/*--------------------------------*- C++ -*----------------------------------*\
| =========                 |                                                 |
| \\      /  F ield         | OpenFOAM: The Open Source CFD Toolbox           |
|  \\    /   O peration     | Version:  v2012                                 |
|   \\  /    A nd           | Website:  www.openfoam.com                      |
|    \\/     M anipulation  |                                                 |
\*---------------------------------------------------------------------------*/
FoamFile
{
    version     2.0;
    format      ascii;
    class       surfaceScalarField;
    location    "174";
    object      phi;
}
// * * * * * * * * * * * * * * * * * * * * * * * * * * * * * * * * * * * * * //

dimensions      [0 3 -1 0 0 0 0];
oriented        oriented;


internalField   nonuniform List<scalar> 
56280
(
-1.9540276e-06
0.0084926519
0.00028885907
-1.9659782e-06
0.0084926886
0.00028881695
-1.951952e-06
0.0084927312
0.00028877312
-1.9804704e-06
0.008492803
0.00028872972
-2.0851664e-06
0.0084930039
0.00028869947
-2.4885309e-06
0.0084935773
0.00028869522
-3.5103447e-06
0.0084950839
0.00028875552
-5.293474e-06
0.0084987063
0.00028896313
-8.469764e-06
0.0085063567
0.00028942814
-8.8810007e-06
0.0085206652
0.00029030617
-6.1265732e-06
0.0085404486
0.00029138784
2.8523961e-05
0.0085581041
0.00029226871
2.6046039e-05
0.0085384438
0.0002896283
0.00015321992
0.0084639757
0.00028236287
4.6113158e-05
0.0082186699
0.00026773755
0.00023155919
0.0078952039
0.0002497268
1.317787e-06
0.0074103461
0.00021414212
0.00010197752
0.0070457332
0.00013200364
-9.9261647e-05
0.0068197988
-5.2271192e-06
0.0070846824
8.4021229e-05
-0.00022529929
0.0075252003
0.00013279387
-5.6209549e-05
0.0080931329
0.00013850754
-0.00016179164
0.0085128233
0.00014124586
-4.8837641e-05
0.0088357255
0.00015075101
-4.6835787e-05
0.0089779782
0.00016050993
-6.836311e-06
0.0090432086
0.00016555652
3.3582089e-05
0.0090427455
0.00016553128
3.6751888e-05
0.0089767133
0.00016042072
0.00015140146
0.0088338922
0.00015058611
4.7938069e-05
0.0085105927
0.00014096123
0.00021913024
0.0080909503
0.00013810603
1.2566679e-06
0.0075229299
0.00013235346
9.7172879e-05
8.3685592e-05
0.0070826124
-0.00010200028
0.0068171295
-1.5758445e-06
0.0070436051
0.00013384006
-0.00023169357
0.0074078712
0.00021597755
-4.6109334e-05
0.0078925464
0.0002517132
-0.00015274514
0.0082155191
0.00026989955
-2.5056854e-05
0.0084606758
0.00028463144
-2.6969915e-05
0.0085351094
0.00029192522
8.1652744e-06
0.0085549309
0.00029453519
1.1279447e-05
0.0085375132
0.00029358408
1.1087986e-05
0.0085179942
0.00029240763
8.0117251e-06
0.0085039412
0.00029141928
6.2354778e-06
0.008496527
0.00029083679
5.156846e-06
0.0084931119
0.0002905089
4.6578222e-06
0.0084917798
0.00029032783
4.4328686e-06
0.0084913623
0.00029021777
4.2879331e-06
0.0084913155
0.00029014355
4.134456e-06
0.0084913955
0.00029008118
3.968184e-06
0.0084914785
0.00029002222
0.008491524
0.00028996677
-1.2280107e-05
0.0081824498
0.00030952305
-1.2858745e-05
0.0081823574
0.00030969967
-1.3300036e-05
0.0081819513
0.00030988543
-1.3716325e-05
0.0081816433
0.00031008853
-1.3986209e-05
0.0081813077
0.00031032453
-1.4384515e-05
0.0081815653
0.00031061279
-1.4784157e-05
0.008182524
0.00031098757
-1.5052054e-05
0.0081852811
0.0003115138
-1.4825108e-05
0.0081914502
0.00031226404
-1.2772484e-05
0.0082026765
0.00031326508
-7.9601701e-06
0.0082184477
0.00031425321
1.0322153e-06
0.008231272
0.00031466654
2.5256265e-06
0.008221101
0.00031251497
9.8330793e-06
0.0081469245
0.00030644388
-2.6331902e-05
0.0079571779
0.00029450614
-3.2934064e-05
0.007625287
0.00027386159
-6.7745431e-05
0.0072079707
0.00023471191
-3.9508678e-05
0.0068567049
0.00015866345
0.0067259366
5.1684195e-05
0.0066172521
4.7240853e-05
6.1443721e-05
0.0065485214
2.6616438e-05
4.211425e-05
0.0065030571
1.3686707e-05
3.1777578e-05
0.0064475374
1.5657301e-05
3.9862347e-05
0.0063465224
3.392809e-05
6.7086987e-05
0.0060659626
0.00011402899
0.00016653077
0.005230474
0.00036617362
0.00046931496
0.0028757067
0.0010719795
0.0012827878
0.0014877569
0.00061750108
0.00077044873
0.00045503263
0.00048210466
0.0005506196
0.00014852283
0.00013729276
0.00016921704
8.8052523e-05
0.00011419763
-5.372733e-05
0.00013629775
1.8902577e-05
-6.7147804e-05
0.00014494734
-1.2755262e-05
4.1056762e-06
0.00020973434
-8.4943098e-07
-6.3937569e-05
0.00017737346
3.8224785e-05
-5.8639113e-06
0.00026044439
7.0592649e-06
-9.013019e-05
0.00045290398
-0.00013635046
-5.6109125e-05
0.000540717
-0.00015148321
6.3670189e-05
0.00028987424
0.0001982559
5.2586863e-05
0.00023767932
9.9694279e-06
4.2225491e-05
0.0002503205
-2.0235807e-05
7.5946237e-06
0.0004058077
-2.2944209e-05
-0.00013254299
0.00041003586
-1.7997733e-05
1.3769569e-05
0.00037795223
-1.2428072e-05
4.4511706e-05
0.00032604273
-7.4545748e-06
5.936408e-05
0.00030957971
1.3970543e-05
2.4924706e-06
0.00045454148
4.0151383e-06
-0.0001489769
0.00041655385
1.2875598e-05
2.5112022e-05
0.0003539184
1.1196496e-05
5.1438958e-05
0.00026712069
2.1985106e-05
6.4812608e-05
0.00020754523
3.7803654e-05
2.17718e-05
0.00031127471
-2.5485002e-05
-7.8244471e-05
0.0010992001
-0.00031051507
-0.00047741033
0.00096819611
-3.3335242e-05
0.00016433924
0.00046454428
0.00033082238
0.00017282945
0.00041847728
1.5647572e-05
3.0419429e-05
0.00045467655
-5.7845699e-05
2.1646429e-05
0.0004880693
-3.4152047e-05
7.5930087e-07
0.00050148446
-1.3134727e-05
-2.8043684e-07
0.00050464381
-4.7726287e-06
1.6132814e-06
0.00050317803
-2.2864701e-06
3.7522487e-06
0.00049991382
-1.6239515e-06
4.8881564e-06
0.0004964859
-1.6170186e-06
5.0449471e-06
0.00049254289
-1.3809695e-06
5.3239734e-06
0.00048892401
-1.3452858e-06
4.9641718e-06
0.00048598279
-1.2936306e-06
4.2348411e-06
0.00048261804
-9.7279179e-07
4.3375433e-06
0.00048074361
-1.1714648e-06
3.0458957e-06
0.00047844486
-9.1926507e-07
3.2180214e-06
0.00047722642
-1.0098974e-06
2.2283355e-06
0.00047599574
-8.756144e-07
2.1062893e-06
0.00047547876
-8.6443706e-07
1.3814205e-06
0.00047524216
-8.0825693e-07
1.0448588e-06
0.00047553567
-8.4828651e-07
5.5477361e-07
0.00047617285
-8.5877951e-07
2.2159609e-07
0.0004772794
-7.9370088e-07
-3.1284283e-07
0.00047862662
-7.820969e-07
-5.651254e-07
0.00048056928
-7.7131511e-07
-1.1713436e-06
0.00048247824
-7.2794955e-07
-1.1810143e-06
0.00048528761
-7.8150388e-07
-2.027867e-06
0.0004877122
-6.7968028e-07
-1.7449064e-06
0.00049126295
-8.175253e-07
-2.7332279e-06
0.00049435103
-6.8317736e-07
-2.4048973e-06
0.00049824796
-8.1242766e-07
-3.0845038e-06
0.0005020046
-6.2448708e-07
-3.1321494e-06
0.00050571201
-5.939716e-07
-3.1134443e-06
0.00050959209
-5.0977616e-07
-3.3703063e-06
0.00051235734
-2.9931203e-07
-2.4659303e-06
0.00051447399
-2.7159612e-07
-1.8450518e-06
0.00051404241
4.4362548e-07
-1.2047788e-08
0.00050927359
1.6169893e-06
3.1518282e-06
0.00049753246
4.2795555e-06
7.4615729e-06
0.00046756354
2.1012653e-05
8.9562656e-06
0.00044748628
-1.9655581e-06
2.2042821e-05
0.00045089782
2.9591151e-05
-3.3002694e-05
0.0011729894
-0.0004504251
-0.00027166649
0.0020442679
-0.00029917925
-0.00057209924
0.0023212053
-8.5236341e-05
-0.00019170104
0.0023794486
1.4925594e-05
-7.3168908e-05
0.0022430187
0.00013507135
1.358536e-06
0.001448395
0.00050265602
0.00029196768
0.00049419269
0.00024336819
0.00071083413
0.00024765403
8.1213425e-05
0.00016532523
0.00029084481
-4.6589073e-05
3.398292e-06
0.00038743811
-4.6378818e-05
-5.0214484e-05
0.00028198987
0.00012071435
-1.5266115e-05
0.00030483475
-5.8747648e-06
-1.6970118e-05
0.00036096673
-5.2923594e-05
-3.2083832e-06
0.0004052295
-3.795107e-05
-6.3117018e-06
0.00043216658
-2.349885e-05
-3.438224e-06
0.00044884432
-1.5171483e-05
-1.5062579e-06
0.00046032193
-1.0601764e-05
-8.7585082e-07
0.00046654346
-6.4525861e-06
2.3105716e-07
0.00046676546
-2.601217e-06
2.379217e-06
0.00045738159
1.2394581e-06
8.144411e-06
0.00043436469
1.9194334e-06
2.1097466e-05
0.00041662837
-1.7443756e-05
3.5180075e-05
0.00048633871
-2.9850896e-05
-3.9859444e-05
0.00109906
-0.00020126196
-0.00041145932
0.0019485994
-0.00047279336
-0.00037674605
-0.00015994001
2.9876614e-05
-2.2020547e-05
0.0079963215
0.00018691071
-2.266871e-05
0.0079957744
0.00018723114
-2.3423935e-05
0.0079951269
0.00018757963
-2.4140473e-05
0.0079943997
0.00018796009
-2.4896814e-05
0.0079936852
0.00018837881
-2.5316569e-05
0.0079931372
0.00018884782
-2.5489457e-05
0.0079933074
0.00018938949
-2.5079189e-05
0.0079948322
0.00019003865
-2.3894614e-05
0.00799943
0.00019083567
-2.1569448e-05
0.0080085571
0.00019179419
-1.8484028e-05
0.0080225532
0.00019280904
-1.6499795e-05
0.008035773
0.00019351475
-1.885798e-05
0.0080304617
0.00019299757
-2.970428e-05
0.0079677757
0.00018999508
-4.8188546e-05
0.007792944
0.00018271813
-6.5489286e-05
0.0074739535
0.00016863419
-6.8442174e-05
0.007067022
0.00014390161
0.0067299282
0.00010557536
0.0066571987
4.0192181e-05
5.9153813e-05
0.0066073502
2.2325795e-05
4.1209408e-05
0.0065527242
2.3890657e-05
4.6392618e-05
0.0064562412
5.4180492e-05
7.6230569e-05
0.0062342279
0.00015761926
0.00017842305
0.0056624701
0.00041714665
0.00052078476
0.0020244867
0.0023615829
0.00071211714
0.0016362629
0.0015542862
0.00040358725
0.00068411433
0.00039139928
0.00058022581
0.00032099448
0.00074377127
0.00028385723
0.00011298547
0.00013184933
0.00013774904
0.00012371268
2.2395508e-05
0.00010993478
1.6824622e-05
1.0989641e-05
-9.1112331e-05
0.00021813496
5.5141225e-05
-7.2229071e-05
-6.4932101e-05
9.5097018e-05
2.4354339e-06
8.0678204e-05
-3.1412673e-05
0.00012821251
-2.8631727e-05
0.00017360142
3.6952848e-05
0.000255848
3.9263908e-05
-0.00012235992
0.00023358106
4.164775e-05
1.8843973e-05
0.00029168892
-5.1048601e-05
0.00022435971
-6.9021244e-05
0.00022059919
-0.00011327491
-3.4447788e-05
-0.00021398444
6.2876716e-05
0.00065329462
-0.0002815877
-0.00042609623
3.3895766e-05
6.4941109e-05
-0.00039254799
-0.00012598309
0.0001340826
0.00015338102
-0.00028853014
0.00015075522
-9.0292823e-05
-3.3064471e-05
-0.0001807313
0.00013222705
0.00043378641
-0.00023452693
-0.00027568162
-6.6216481e-05
7.0873982e-05
-0.00019113713
0.00012954064
-0.0001589439
-0.00034594474
7.3364439e-05
9.8267787e-05
0.00010460304
0.00024266351
-0.00054720101
8.912404e-05
0.00036072109
0.00020195892
-0.0017021881
0.00012453327
0.00073381644
0.00061763182
0.00037828564
0.00068469646
-0.0022877941
0.00021839729
0.0017963873
0.00065129517
-0.0062950204
0.00044284653
0.0025653034
0.0017111935
-0.0066547065
0.0002583059
0.00051852685
-0.0068012254
0.00012434518
0.00017979301
-0.0068807969
5.205604e-05
8.1695982e-05
-0.006935808
2.6547981e-05
5.2353701e-05
-0.0069895375
2.5766583e-05
5.0288766e-05
4.2408249e-05
7.5268375e-05
0.007390774
3.7953747e-05
8.7634045e-05
0.0073329648
2.7275765e-05
5.6299935e-05
0.0072772683
2.7015385e-05
5.5229162e-05
0.0072071353
4.0968227e-05
8.1220794e-05
0.0070938406
7.2384699e-05
0.00016525521
0.0068228331
9.0643429e-05
0.00043866992
0.0025764925
-0.00013425326
0.0032084748
0.0016149656
-0.00025783088
0.00020528659
0.0020084641
0.00062057276
0.0018910456
0.00063482417
-0.00020710141
0.00016998832
0.0015907972
0.00033736152
0.0013150492
0.00039876998
-0.00025493531
7.3972449e-06
0.00024288173
0.00045937002
0.00030066964
0.00055966585
0.0003922872
0.00017571797
-8.48899e-05
0.00035709874
0.00012747561
0.00023788368
0.00011131195
0.00013873336
8.0207393e-05
1.8942924e-05
0.00010342948
5.3930381e-06
2.9910838e-05
-0.00013653868
-6.8059709e-05
8.6275211e-05
0.00022175266
6.9928677e-06
-3.8893277e-05
-1.6186057e-05
3.2184292e-05
2.988791e-05
2.0428024e-05
0.00010488713
5.2740783e-05
-0.00021694922
2.3184891e-05
2.0573895e-05
8.0040333e-06
-3.0879213e-06
-1.2213601e-05
-2.9009851e-05
0.00016069697
1.9521365e-05
-8.8388632e-05
0.00014076218
0.0002469726
-0.00037803599
9.8211205e-05
0.00017047748
0.00012814346
0.00029914349
9.8371377e-05
6.763005e-05
3.5911888e-05
0.00015024988
4.5351671e-05
-0.00021031046
0.00013879258
0.00015847542
-1.9327491e-05
0.00046510693
-0.00032143768
-1.414194e-05
0.00045507477
0.00016296668
0.000378236
7.5304231e-05
0.00059101649
0.00023105547
-0.00038095924
3.7986691e-05
0.00061165486
-0.00021110268
0.00015247763
8.2305222e-05
0.00052699479
8.1981304e-05
0.00026942501
1.1136113e-05
0.00027109093
8.3035083e-06
0.00027131978
-5.4433153e-05
3.3968494e-05
0.00043688303
-2.4019992e-05
-0.00016448746
0.00048285133
-8.0347321e-05
1.6381283e-05
0.00044337191
-3.0164527e-05
5.7215875e-05
0.00035950857
2.1433683e-05
5.4975088e-05
0.00031193972
2.1215092e-05
4.0324299e-05
0.00048223558
1.9681749e-05
-0.00018596247
0.00050439873
-2.9736042e-05
2.0448486e-05
0.00044187719
1.4792987e-05
5.8925054e-05
0.0003278307
7.7393632e-05
5.8637956e-05
0.0002290786
9.0437182e-05
4.6118577e-05
0.00023275258
-2.9158985e-05
6.0613669e-05
-0.00013837615
-0.00042916413
0.00012628748
0.00089730207
-0.00053381175
-0.00051462805
7.1630626e-05
0.00010427047
-0.00057955796
5.6936162e-05
8.5387376e-05
-0.00066316096
5.4165906e-05
4.4230079e-05
-0.00060084657
-0.00018186239
8.9811958e-05
-0.00042587965
0.00022655048
-0.00038183565
-0.00049540694
-1.9147844e-05
0.00010989023
-0.00054307284
-1.1606653e-05
8.0706238e-05
-0.00060882019
-9.890259e-06
4.5473085e-05
-0.00056324278
-0.00021795234
9.2027597e-05
-0.00042004126
0.00018980409
-0.0003570256
-6.9291878e-05
0.00012181225
0.00045341568
-1.5239428e-05
0.00010418673
0.00015788898
0.00023748596
-2.3699077e-05
8.1739812e-05
0.00020220556
-7.2464814e-05
0.00066092867
4.9150715e-05
-0.00027038787
0.00063949311
-2.2875637e-05
3.4420945e-05
0.00056386249
-2.6714491e-05
9.0738455e-05
0.00045238913
-2.0220568e-05
0.00011254608
0.00013923258
0.0002389184
-5.8425245e-06
8.0080673e-05
0.00023568244
-5.1761776e-05
0.00068897799
7.7810434e-05
-0.00029218758
0.00069330095
2.7529546e-05
2.2313398e-05
0.00062275654
3.4497963e-05
9.2982607e-05
0.00053666004
4.3635974e-05
0.00011409115
0.00081777914
0.00048787742
-0.00064270904
0.0010002836
-0.00027668378
4.3095542e-05
0.0005558826
0.000359168
0.0001537317
-3.3518272e-05
0.00071152457
0.00016854561
0.00042503977
5.9514303e-05
0.00043704943
3.6379193e-06
0.00053960471
-0.00018812522
2.7724231e-05
0.00056157823
-5.8321466e-05
2.1959064e-06
0.00056497281
-1.8420508e-05
1.8912003e-06
0.0005624221
-7.9765386e-06
5.7546195e-06
0.00055718242
-4.6548318e-06
7.6080353e-06
0.00055107111
-3.5886012e-06
8.0759679e-06
0.00054483815
-3.2743795e-06
7.8903142e-06
0.00053888379
-2.9860902e-06
7.5594873e-06
0.00053353797
-2.8389878e-06
6.8395194e-06
0.0005287526
-2.58167e-06
6.0734036e-06
0.00052442708
-2.2522442e-06
5.6049732e-06
0.00052126671
-2.2878147e-06
4.2767218e-06
0.00051820063
-1.924881e-06
4.0716954e-06
0.00051625489
-2.0309689e-06
2.966814e-06
0.00051447792
-1.7196932e-06
2.6210494e-06
0.00051370919
-1.8097784e-06
1.7140669e-06
0.0005133094
-1.5655557e-06
1.157096e-06
0.00051362297
-1.6804062e-06
5.1854384e-07
0.00051435474
-1.6282405e-06
3.7691322e-08
0.00051583244
-1.5608573e-06
-7.1054292e-07
0.00051760532
-1.4862777e-06
-1.068697e-06
0.0005201597
-1.4851058e-06
-1.8405915e-06
0.0005228167
-1.4004054e-06
-1.9845476e-06
0.00052643382
-1.4435973e-06
-2.9550211e-06
0.00052991904
-1.3250456e-06
-2.8398563e-06
0.00053443293
-1.4279911e-06
-3.9034206e-06
0.00053884991
-1.3304037e-06
-3.7697602e-06
0.00054393735
-1.43397e-06
-4.4658989e-06
0.00054925542
-1.1648393e-06
-4.7777119e-06
0.00055448873
-1.0549576e-06
-4.7723222e-06
0.00056024668
-9.9528474e-07
-5.2724434e-06
0.00056516278
-6.0231448e-07
-4.6131e-06
0.00056947144
-3.7543184e-07
-4.2048192e-06
0.00057216271
5.6471311e-07
-2.8123634e-06
0.00057065783
2.607297e-06
5.1457821e-07
0.00056195672
4.3050215e-06
8.6756416e-06
0.00054930208
-5.9523951e-06
3.9619681e-05
0.00040825804
0.00013548187
3.5966096e-06
-0.0001803942
0.00015844415
0.00020041542
0.00022979267
-0.00018832146
8.7615314e-05
5.5793825e-05
-3.0552615e-05
0.00018178407
-0.00059200885
0.00025245593
-6.0864026e-07
0.00029738257
-0.00066401463
0.00033668808
8.2313368e-06
0.00033863293
-0.00071334135
0.00036586845
1.3891447e-05
0.00035101152
-0.00073047542
0.00037380379
2.2170075e-05
0.0003480918
-0.00072721312
0.00037084269
4.0585203e-05
0.00033426839
-0.0007136809
0.00036099738
0.0001001214
0.00030466812
-0.00070851766
0.00034431335
0.00035880384
0.00020134125
-0.00077860914
0.00031858545
4.6734225e-06
0.0003294647
8.0369205e-05
-5.5703482e-05
-2.1869625e-05
0.00025444578
-2.6561487e-05
-1.3269342e-05
0.00034594347
-4.9875626e-05
-9.309045e-06
0.0003854277
-5.511961e-05
-8.7463405e-06
0.00040450588
-5.697678e-05
-9.4100469e-06
0.0004089538
-5.7278577e-05
-1.0940091e-05
0.00039549238
-5.5329408e-05
-1.8999026e-05
0.00035474828
-4.9306769e-05
0.00028350724
-3.3106881e-05
-1.8027382e-05
0.00027870247
2.4778856e-05
-1.9467009e-06
-3.3765907e-06
0.00015023223
-6.4388735e-06
0.00022348942
3.1405662e-06
0.00019553536
-0.00027223881
0.00088453967
4.2012019e-05
-0.00045231386
-0.0008681323
-6.8551237e-05
0.0023223626
-0.00080031862
-0.00035413996
1.4976499e-05
-0.00048695682
1.355631e-05
1.1830861e-05
0.00038514431
8.5084187e-06
1.5395958e-05
0.00089829843
7.4167388e-06
-0.00050559436
-0.00091878763
-2.2526462e-05
0.0025289744
-0.00075791312
-0.00039541112
-7.6039565e-07
-0.00051519938
5.9562105e-06
1.6094892e-05
0.00039239981
2.1597191e-06
1.5902563e-05
0.00091480629
-1.0948489e-05
-0.00051221839
-0.00091137787
-6.0040396e-05
0.0026252083
-0.00076151017
-0.00037711955
-4.4996965e-05
-0.00050020985
-4.7432623e-06
1.5211133e-05
0.00034482113
-1.6359218e-05
1.2738295e-05
0.00086798237
-9.3443361e-05
-0.00047471485
-0.0010279882
-9.8461389e-05
0.002705553
-0.00077116143
-0.0002315097
-0.00045750365
-0.00043241826
4.3684197e-06
2.2084413e-06
-0.00011164747
-1.2023056e-05
-0.0010369248
4.6421799e-06
0.002419511
-0.00096342115
-0.00045508553
-0.00085066209
1.3674901e-05
-2.9174166e-05
-0.00017076345
-0.00080584988
9.9190569e-06
-2.1526038e-05
-3.3205226e-05
-0.00078665459
1.0746424e-06
-8.8534783e-06
-1.1416454e-05
-0.00077122094
-6.1803913e-06
-3.1505849e-07
-8.9381982e-06
-0.00075790455
-7.6171971e-06
3.6438539e-06
-9.3430544e-06
-0.00074648094
-6.7404589e-06
4.9325064e-06
-9.6156504e-06
-0.00073663313
-5.9136017e-06
5.1781425e-06
-9.1123521e-06
-0.00072714371
-5.6447261e-06
5.0861862e-06
-8.9308823e-06
-0.00071890324
-5.6503662e-06
5.254977e-06
-7.845079e-06
-0.00071148609
-5.7070991e-06
5.3405844e-06
-7.0506325e-06
-0.00070477644
-6.0179284e-06
5.588768e-06
-6.2804965e-06
-0.00069871031
-6.3344833e-06
5.742351e-06
-5.4739998e-06
-0.00069393344
-6.6803689e-06
6.1500389e-06
-4.2465409e-06
-0.00068979247
-6.6614044e-06
6.1925745e-06
-3.6721367e-06
-0.00068697555
-7.0454482e-06
6.4214427e-06
-2.1929126e-06
-0.00068480615
-7.2515848e-06
6.7531077e-06
-1.670927e-06
-0.00068420973
-7.6903014e-06
7.0434834e-06
5.0398101e-08
-0.00068414882
-7.9760373e-06
7.3969959e-06
5.1813211e-07
-0.00068585006
-8.4694826e-06
7.7467997e-06
2.4239276e-06
-0.0006882498
-8.686248e-06
7.9946093e-06
3.091377e-06
-0.00069244758
-9.4082585e-06
8.7456831e-06
4.8603554e-06
-0.00069769804
-1.0007583e-05
9.2201754e-06
6.0378711e-06
-0.00070428427
-1.0844363e-05
9.9033323e-06
7.5272534e-06
-0.00071261147
-1.1832691e-05
1.1089998e-05
9.0698993e-06
-0.00072231221
-1.3195607e-05
1.2041653e-05
1.0854694e-05
-0.00073308736
-1.5177623e-05
1.3970253e-05
1.1982513e-05
-0.00074579168
-1.7492535e-05
1.6171041e-05
1.4025814e-05
-0.00075933137
-2.0420978e-05
1.9205949e-05
1.4754718e-05
-0.00077158544
-2.444691e-05
2.3195594e-05
1.3505386e-05
-0.00077691059
-3.4549011e-05
2.7678039e-05
1.2196129e-05
-0.00077450861
-2.773657e-06
2.5532117e-05
-2.5160439e-05
-0.00061436458
-0.00018314442
8.3382594e-07
2.216657e-05
-0.00036171766
0.00021214685
-6.3934584e-05
-0.00040085919
-0.00039013567
-2.3504789e-05
-1.1150915e-06
5.3037891e-05
-0.00036718548
-4.5072598e-07
-5.347286e-06
-1.7152178e-05
2.0624533e-05
-0.00082736107
-4.893574e-05
0.0004884868
5.2382424e-05
0.00035795769
-0.00087391892
0.00048420335
0.00039228813
0.00024648466
-0.0010286262
0.00044223581
5.2898644e-05
0.00035034958
-1.7357846e-05
6.3977492e-06
1.2551832e-05
0.00029962767
-1.2796196e-05
0.00039124941
-2.119062e-05
0.00037916103
-5.0022114e-05
3.8605702e-05
0.00013045846
0.00024441937
-4.4519194e-05
4.88024e-05
0.00023716997
-7.7709087e-05
0.00061109956
-0.00033146278
0.00020195255
0.00078907551
6.7806096e-06
-0.00018753021
0.00077880877
7.618597e-06
-3.1900871e-05
0.00076856702
-2.2553939e-05
8.3487805e-06
0.00075619219
-2.2262542e-05
1.4216393e-05
0.00074353105
-1.8985434e-05
1.4154047e-05
0.00073198081
-1.620915e-05
1.2581765e-05
0.00072159043
-1.419178e-05
1.138655e-05
0.00071306476
-1.2835059e-05
9.5280376e-06
0.00070601698
-1.1820171e-05
8.023591e-06
0.0007003695
-1.0865092e-05
6.5049851e-06
0.00069571337
-1.0163814e-05
5.4116863e-06
0.00069334477
-9.5687824e-06
3.2511337e-06
0.00069096988
-9.0686993e-06
2.9741062e-06
0.0006908256
-8.6521365e-06
8.2038426e-07
0.00069083092
-8.214949e-06
5.193213e-07
0.00069289595
-7.8886537e-06
-1.4279549e-06
0.00069518018
-7.5715248e-06
-1.7581524e-06
0.0006993684
-7.2581053e-06
-3.5915198e-06
0.00070354347
-7.0578304e-06
-3.7976148e-06
0.00070923839
-6.8881746e-06
-5.1412238e-06
0.00071566264
-6.478008e-06
-5.9641765e-06
0.00072308318
-6.1802582e-06
-6.9473727e-06
0.00073102475
-5.9911825e-06
-7.6007521e-06
0.00074003644
-6.038793e-06
-8.617632e-06
0.00074976264
-6.6960573e-06
-8.9437361e-06
0.00076084837
-8.6274755e-06
-9.1987128e-06
0.00077444852
-1.3123204e-05
-8.0941504e-06
0.00079325082
-1.9870837e-05
-5.1118493e-06
0.00081674702
-1.3442159e-05
-8.9794004e-06
0.00085614396
1.0784606e-05
-4.0262493e-05
0.0010669772
-9.2575821e-06
-0.00018790073
-0.0010922036
0.00016440686
0.0026457638
-0.00064634778
-0.00081182246
-0.00010346133
-0.00018617736
-0.00084898808
0.00010342609
-5.5475855e-05
-0.00078917547
-0.00010838855
3.5133775e-05
-0.00077361042
-3.623186e-05
7.9597444e-07
-0.00076278386
-1.677165e-05
-7.1781175e-06
-0.0007529858
-9.4314136e-06
-8.9941165e-06
-0.00074394684
-6.9254825e-06
-8.8095323e-06
-0.00073524384
-6.2394949e-06
-8.5022973e-06
-0.00072750376
-6.2762982e-06
-7.4549691e-06
-0.00072026275
-6.6299987e-06
-6.7912642e-06
-0.00071401044
-6.9409897e-06
-5.7893279e-06
-0.00070888849
-7.2194559e-06
-4.7906714e-06
-0.00070482451
-7.4587771e-06
-3.6630307e-06
-0.00070089058
-7.8578111e-06
-3.3342291e-06
-0.00069901709
-7.9447369e-06
-1.5002767e-06
-0.00069723472
-8.5449014e-06
-1.1261228e-06
-0.00069757068
-8.6383132e-06
7.5932411e-07
-0.00069812519
-9.2942296e-06
1.1966025e-06
-0.00070083613
-9.6157134e-06
3.2579567e-06
-0.00070365841
-1.0360508e-05
3.6140038e-06
-0.0007084449
-1.1063994e-05
5.6866671e-06
-0.00071440267
-1.1756712e-05
6.8493903e-06
-0.00072194769
-1.2798614e-05
8.5234652e-06
-0.00073099986
-1.3737075e-05
9.9541899e-06
-0.00074189485
-1.5029644e-05
1.1732846e-05
-0.00075415809
-1.6904352e-05
1.2958447e-05
-0.00076753405
-2.0034987e-05
1.4425513e-05
-0.00077907185
-2.4806848e-05
1.4082108e-05
-0.00077990742
-2.7889713e-05
6.1713432e-06
-0.00069194757
-2.4795047e-05
-5.5546204e-05
-0.00019646398
2.1876536e-06
-0.00028501309
-0.00021265816
-0.00033671515
-2.2139234e-05
3.9584808e-05
0.0001228056
-0.0003954184
-9.5553257e-06
2.3739385e-05
-0.000150615
4.8021549e-06
0.00029318864
-0.00023471673
0.00014126267
0.0001299941
0.00035576833
-0.00062734652
0.00043477272
0.00042545855
0.00021479918
-0.00091681897
0.00040655535
-1.560753e-06
0.00032082473
9.7729537e-05
8.4650316e-06
-2.7744259e-05
0.00024283091
-1.8482298e-06
0.00032611951
-7.6507659e-06
0.00027453489
-1.5140013e-05
4.4585404e-05
0.00069580653
-8.8068893e-05
-0.0003310151
0.00078407897
-7.4876084e-05
-3.8191399e-05
0.00079134593
-4.3056237e-05
7.8995586e-06
0.00077967036
-2.68614e-05
1.3730124e-05
0.00076494617
-1.960363e-05
1.4292836e-05
0.00075185702
-1.7030853e-05
1.3215651e-05
0.00074058109
-1.5992352e-05
1.2238637e-05
0.00073128056
-1.4901554e-05
1.0465008e-05
0.00072309715
-1.3907605e-05
9.2923982e-06
0.00071684099
-1.2881522e-05
7.3809711e-06
0.00071159262
-1.2111468e-05
6.2958426e-06
0.0007080367
-1.116526e-05
4.3606701e-06
0.00070535628
-1.048897e-05
3.5536804e-06
0.0007040117
-9.896088e-06
1.9464377e-06
0.00070393059
-9.4376678e-06
8.8046393e-07
0.00070481838
-9.0824474e-06
-3.5024036e-07
0.00070689636
-8.6365708e-06
-1.3861479e-06
0.00071020632
-8.3832989e-06
-2.7844743e-06
0.00071431974
-8.1114688e-06
-3.460726e-06
0.00071912082
-7.5275635e-06
-4.4929686e-06
0.00072515707
-7.5046397e-06
-5.4726086e-06
0.00073215968
-7.1710113e-06
-6.4615895e-06
0.00073957038
-6.501427e-06
-7.1855712e-06
0.00074808275
-6.451064e-06
-8.3008021e-06
0.00075628536
-6.4705545e-06
-8.6575393e-06
0.00076431289
-8.312371e-06
-9.1465776e-06
0.00077020832
-1.5028252e-05
-7.6388297e-06
0.00076860923
2.2413694e-06
-3.6874137e-05
0.0006747662
6.4206528e-05
-7.8752052e-05
-8.7662596e-05
0.00018564897
0.00029217144
0.00028460839
-3.8685784e-05
0.00028326372
0.00033014432
-0.00066238486
-3.8029652e-05
0.00031002698
0.00034194141
-0.00065262452
-0.00017710184
0.00035060315
0.00037631917
-0.00058785013
-0.00018596548
0.00012976758
-0.0002020951
8.1191146e-05
4.5027776e-05
0.00017957771
-0.000681703
0.00027113203
0.00028500333
0.00018215323
-0.00070250577
0.00028037699
1.3534022e-05
0.00047761776
-2.1373106e-05
-0.00018477534
-3.2545905e-05
0.00025546079
-2.7227633e-05
0.00031834556
-4.1546166e-05
-1.6055979e-05
1.4377102e-05
-3.8467901e-05
0.00035849234
1.6902565e-05
0.00037266402
-5.5019412e-05
1.7244795e-05
0.00036048295
-5.0798196e-05
2.0708306e-05
0.00032609993
-4.6299716e-05
-7.669726e-06
0.00023962773
-2.560073e-05
0.00040857768
-2.0649874e-05
0.00037367556
-1.2044302e-05
-5.6514906e-05
-0.00021620117
7.6425181e-05
0.00090429032
-0.00039083877
9.2309938e-06
2.1512683e-06
0.0003248709
-1.1758493e-06
1.1635865e-05
0.00083239839
2.8431682e-05
-0.00045953399
0.0026065117
4.5406279e-05
-0.00075082238
-3.4319478e-05
0.0028107551
1.5951211e-05
-0.00018587521
7.7536322e-06
0.0028211048
-0.00021741403
0.0027827945
-0.00045399121
3.7038824e-05
0.0028870555
-2.6197338e-05
-0.0001151025
3.7567819e-05
0.0028465188
-0.00014149479
2.8055771e-05
0.0027909745
-0.00015625416
6.2324047e-05
0.0026741751
-0.00017946899
0.0024933944
-0.00019394412
0.002551834
1.7715234e-05
-6.1229275e-05
0.0025268974
0.0001366204
2.3387602e-05
0.0011171232
0.0011672656
0.00019526275
0.00054990188
4.8962419e-05
0.00061343251
0.00069809642
1.9875152e-05
0.00054033313
0.00065601975
-7.8854019e-05
0.00055935848
-0.001104428
0.00064379867
-0.00045238846
0.00063768459
-0.00096430528
0.00070015514
-0.00045939822
0.00025182936
-0.00039441281
0.0001495932
-0.00047401107
8.4192948e-05
-0.00014025158
7.067149e-05
-7.7639606e-05
0.00031921191
-0.001219046
0.00050346262
-4.0732183e-05
0.00048058938
-0.0011196074
0.00060211055
-1.5974651e-05
-0.0011814951
0.00052506263
0.00063167496
-2.1399083e-05
-0.0011699183
0.00053979023
0.0006355525
-1.4168001e-05
-0.0011912871
0.00054547016
0.00063858586
-1.4512873e-05
-0.0011979055
0.00054834386
0.00064990653
-5.2206494e-06
-0.0012078757
0.00054888364
0.00064969981
-9.0755898e-06
-0.0011834625
0.00054732345
0.00063999394
-7.1743588e-06
-0.001189624
0.00054773067
0.00063999206
-6.3722635e-06
-0.0012005316
0.00054982967
0.00064989985
-1.5353562e-06
-0.0012055483
0.00055053822
0.00065017319
-5.3759636e-06
-0.0011863985
0.00054932226
0.00064091682
-5.758706e-06
0.00054977512
0.0006411937
-0.0011905861
-4.2895539e-06
0.00055179749
0.00065139477
-0.0012046614
-7.6129193e-09
0.00055257743
0.00065208311
-0.0012089425
-3.5540151e-06
0.00055246566
0.00064430086
-0.0011932201
-6.5645801e-06
0.00055448599
0.0006468902
-0.0011983656
-1.0058073e-05
0.00055749468
0.00065858405
-0.0012125852
-7.4972613e-06
0.00055821526
-0.0012191355
0.00065835944
-1.4393736e-05
0.00055638806
-0.0011970009
0.00064750934
-1.228535e-05
0.00055634608
-0.0012044617
0.00064600728
-1.2754613e-05
0.00055725071
-0.0012112609
0.00065447943
-6.5992106e-06
0.00055659665
-0.0012153994
0.00065264738
-1.2658852e-05
0.00055256965
-0.0011864255
0.00063991547
-1.4354786e-05
0.00054952072
-0.001183331
0.00063550617
-2.4239132e-05
0.00054600962
-0.0011734319
0.00063730661
-8.6070421e-05
0.00055139754
-0.0011205666
0.00063100038
-0.00044437105
0.00062083774
-0.0009422084
0.0006796713
-0.0004571788
0.00024439198
-0.00037491147
0.00014332724
-0.00048806332
8.025894e-05
-0.00011348007
6.4105654e-05
-8.1461888e-05
0.00031731702
-0.0012243398
0.00050042129
-3.1227313e-05
0.00047484091
-0.0011225078
0.00059743233
-9.210203e-06
0.00052047137
-0.0011644877
0.00062199924
-6.8253648e-06
0.00053652497
-0.0011617047
0.00062279492
-7.5940769e-06
0.00054442264
-0.0011719247
0.00062827079
-4.0684979e-06
0.00054993259
-0.0011964284
0.00064297025
-2.21444e-06
0.00055269978
-0.0012006172
0.00064606334
-5.3122461e-06
0.00055258203
-0.0011895568
0.00064007262
-7.7086952e-06
0.00055375787
-0.001193289
0.00064192759
-8.1698499e-06
0.00055611449
-0.0012093034
0.00065365004
-5.2504527e-06
0.0005575308
-0.0012162599
0.00065580966
-1.6417887e-05
0.00055726968
-0.0011949655
0.00064886327
-1.8700589e-05
0.000556976
-0.0012040893
0.00064939595
-2.9554476e-05
0.00055612052
-0.0012020466
0.00065677995
-2.2775122e-05
0.00055369746
-0.0012127316
0.00065225479
-4.2888848e-05
0.00054703399
-0.0011620325
0.00063511226
-0.00010153315
0.00055342168
-0.0011236643
0.00062888697
-0.0004589812
0.00062631686
-0.00096676636
0.00069789755
-0.00047121761
0.00023964481
0.00013490317
-0.00036231157
-0.00051851927
7.4008407e-05
-7.9073448e-05
5.2366702e-05
-9.6634026e-05
0.00032242036
-0.0012669182
0.00052261259
-6.6039994e-05
0.00048014483
-0.0011153861
0.00060464719
-3.4120294e-05
0.00052653696
-0.0011888403
0.00063038362
-3.9552747e-05
0.0005452576
-0.0011892544
0.00064942925
-2.1283773e-05
0.00055217697
0.00065351485
-0.0012239608
-3.337855e-05
0.00055266928
0.00064659737
-0.0011871719
-2.8186245e-05
0.00055324512
0.0006471949
-0.0012056323
-4.8951754e-05
0.00055166868
0.00065325649
-0.0011841597
-0.00010475373
0.00055779757
0.00064759961
-0.0011495952
0.00062438323
0.00069328781
-0.00095361909
-3.2777645e-05
8.5568039e-05
0.0079119148
-3.3918527e-05
8.6071492e-05
0.0079108438
-3.5026061e-05
8.6621549e-05
0.0079096129