/*--------------------------------*- C++ -*----------------------------------*\
| =========                 |                                                 |
| \\      /  F ield         | OpenFOAM: The Open Source CFD Toolbox           |
|  \\    /   O peration     | Version:  v2012                                 |
|   \\  /    A nd           | Website:  www.openfoam.com                      |
|    \\/     M anipulation  |                                                 |
\*---------------------------------------------------------------------------*/
FoamFile
{
    version     2.0;
    format      ascii;
    class       volScalarField;
    location    "283";
    object      k;
}
// * * * * * * * * * * * * * * * * * * * * * * * * * * * * * * * * * * * * * //

dimensions      [0 2 -2 0 0 0 0];


internalField   nonuniform List<scalar> 
75632
(
0.29041733
0.28931508
0.28821797
0.28712394
0.28603117
0.28493806
0.28384334
0.28274604
0.28164554
0.28054155
0.27943408
0.27832339
0.27720997
0.27609448
0.27497767
0.27386035
0.27274332
0.27162736
0.27051314
0.26940124
0.2682921
0.26718602
0.26608313
0.26498341
0.26388665
0.26279249
0.26170034
0.2606095
0.25951902
0.25842784
0.25733462
0.25623798
0.25513617
0.25402755
0.25291001
0.25178166
0.25064008
0.24948322
0.24830842
0.24711355
0.24589573
0.24465244
0.24337831
0.24908937
0.25019199
0.2512883
0.25238097
0.25347165
0.2545615
0.25565171
0.25674319
0.25783689
0.25893349
0.26003365
0.26113784
0.26224652
0.26336001
0.26447863
0.26560263
0.26673223
0.26786763
0.26900903
0.27015664
0.27131066
0.27247136
0.27363901
0.27481394
0.27599651
0.27718709
0.27838613
0.27959407
0.28081139
0.28203857
0.28327608
0.28452438
0.28453236
0.28328421
0.28204685
0.2808198
0.2796026
0.27839476
0.27719582
0.27600531
0.27482281
0.27364793
0.27248031
0.27131963
0.27016561
0.26901799
0.26787656
0.26674112
0.26561144
0.26448734
0.2633686
0.26225497
0.26114612
0.2600417
0.25894126
0.25784431
0.25675019
0.25565816
0.25456731
0.25347672
0.25238533
0.25129192
0.25019478
0.24909117
0.24330963
0.2433134
0.2433584
0.2434075
0.24344409
0.24345896
0.24344737
0.24341668
0.24337145
0.24330935
0.24323334
0.24314298
0.2443752
0.24446478
0.24454351
0.24460623
0.24465656
0.24468968
0.24470674
0.24469964
0.24467143
0.24463224
0.24459471
0.24459274
0.24584244
0.24584431
0.24587519
0.24590521
0.24592607
0.24592605
0.24590332
0.24586713
0.24581265
0.24574876
0.24566949
0.24558169
0.24656151
0.24666561
0.24676416
0.24685115
0.24693017
0.24699508
0.2470529
0.2470927
0.24712103
0.24712726
0.24711403
0.24709261
0.24706792
0.24706754
0.24826794
0.24826852
0.24828778
0.24830234
0.24830727
0.24829543
0.24826302
0.24821896
0.24815902
0.24809191
0.24801151
0.24792447
0.24782692
0.24772452
0.24842206
0.24853628
0.24864925
0.24875861
0.24886653
0.24896799
0.24906574
0.24915332
0.24923539
0.24930557
0.24936689
0.24941592
0.24945124
0.2494687
0.2494716
0.24946282
0.24944811
0.2494487
0.25061003
0.25060926
0.25061964
0.25062285
0.25061374
0.25059133
0.25055223
0.25050006
0.25043714
0.25036442
0.25028117
0.25019239
0.25009482
0.24999333
0.24988752
0.24977799
0.24966608
0.24955246
0.25000189
0.25011152
0.25022007
0.25033172
0.25044272
0.25055625
0.25066912
0.25078228
0.2508934
0.25100301
0.25110821
0.25120963
0.25130678
0.25139697
0.2514818
0.25155623
0.25162131
0.25167487
0.25171737
0.2517441
0.25175821
0.2517607
0.25175455
0.25175635
0.25288828
0.25288628
0.25288883
0.25288152
0.25286342
0.25283218
0.25278688
0.25273065
0.25266376
0.25258776
0.25250181
0.25241082
0.25231349
0.2522124
0.2521072
0.25199776
0.25188705
0.25177443
0.25166309
0.25154982
0.25143931
0.25132778
0.2512196
0.25111078
0.25100074
0.25188623
0.25199269
0.2521
0.25220867
0.25231719
0.25242546
0.2525366
0.25264696
0.25275977
0.25287086
0.25298278
0.25309357
0.25320245
0.25330824
0.25340867
0.25350609
0.25359765
0.25368462
0.25376191
0.25383043
0.25388993
0.25393734
0.25397343
0.25399524
0.25400623
0.25400676
0.25400951
0.25512091
0.25511798
0.25511478
0.25510049
0.2550751
0.25503542
0.25498545
0.25492374
0.25485363
0.2547752
0.25468764
0.25459545
0.25449801
0.25439752
0.25429131
0.25418273
0.25407247
0.25396086
0.25384977
0.25373735
0.25362708
0.25351634
0.25340793
0.25329949
0.25319173
0.2530852
0.2529797
0.25287284
0.2527652
0.25265392
0.25253497
0.25240674
0.24911686
0.24916973
0.24924535
0.24933723
0.24944237
0.24956079
0.24969299
0.24984014
0.25000281
0.25018148
0.25037469
0.25058192
0.25080179
0.25103183
0.25126878
0.25151046
0.25175332
0.2519936
0.25222727
0.25245102
0.25266118
0.25285729
0.25303779
0.25320228
0.25335341
0.25349192
0.25362014
0.25373951
0.25385203
0.25396013
0.25406699
0.25417211
0.25427844
0.25438536
0.25449365
0.25460219
0.25471256
0.25482279
0.25493487
0.25504601
0.25515759
0.25526704
0.2553754
0.25548184
0.25558293
0.25568079
0.25577324
0.25586092
0.25594065
0.2560123
0.25607566
0.25612809
0.25617039
0.25619911
0.25621636
0.25622197
0.25622551
0.25732423
0.25732051
0.25731285
0.25729308
0.25726137
0.25721668
0.25716222
0.25709743
0.25702442
0.25694382
0.25685585
0.25676285
0.25666492
0.25656333
0.25645701
0.25634877
0.2562395
0.25612809
0.25601691
0.25590512
0.25579489
0.25568484
0.25557622
0.25546821
0.25536143
0.2552552
0.2551501
0.2550429
0.25493429
0.25482099
0.2547011
0.25457271
0.25443371
0.254282
0.25411634
0.25393493
0.25373803
0.25352708
0.25330262
0.25306811
0.25282742
0.25258404
0.25234211
0.25210501
0.25187526
0.25165603
0.25144979
0.25125792
0.25108078
0.25091991
0.25077476
0.2506452
0.25052974
0.25042846
0.25034062
0.25026936
0.25021967
0.25131583
0.25136286
0.25143063
0.25151491
0.251613
0.2517258
0.25185321
0.25199648
0.25215581
0.25233162
0.25252241
0.25272783
0.25294641
0.2531758
0.253413
0.25365503
0.25389892
0.25413994
0.2543752
0.25460033
0.254812
0.25500969
0.25519208
0.25535897
0.25551115
0.25565111
0.25577977
0.25590024
0.25601415
0.25612337
0.25623081
0.25633616
0.25644224
0.2565492
0.25665687
0.25676566
0.25687538
0.25698565
0.2570972
0.25720843
0.25731964
0.25742899
0.25753721
0.25764322
0.25774534
0.25784321
0.25793682
0.25802515
0.25810632
0.2581806
0.25824645
0.25830277
0.25834949
0.25838381
0.25840581
0.25841531
0.25841949
0.25951218
0.25950782
0.25949677
0.25947289
0.25943632
0.2593879
0.25932992
0.25926303
0.25918793
0.25910607
0.25901752
0.25892353
0.25882531
0.25872305
0.25861719
0.25850898
0.25839951
0.25828846
0.25817715
0.2580658
0.25795543
0.25784582
0.25773699
0.25762947
0.25752259
0.25741645
0.25731077
0.25720307
0.25709321
0.25697864
0.25685785
0.25672859
0.25658792
0.25643497
0.2562671
0.25608381
0.25588554
0.25567304
0.25544723
0.25521139
0.25497002
0.25472575
0.25448357
0.25424634
0.25401713
0.25379911
0.25359455
0.25340477
0.25323032
0.25307228
0.25293077
0.25280512
0.25269469
0.25259915
0.25251793
0.25245327
0.25240871
0.2534993
0.25354216
0.25360396
0.25368252
0.25377607
0.25388455
0.25400863
0.25414863
0.25430545
0.25447863
0.25466744
0.2548712
0.2550888
0.25531778
0.25555505
0.25579742
0.25604193
0.25628372
0.25651996
0.25674632
0.25695973
0.2571585
0.25734254
0.25751118
0.25766502
0.2578063
0.25793633
0.25805746
0.2581726
0.25828306
0.25839102
0.25849705
0.25860341
0.25871015
0.25881758
0.25892641
0.25903606
0.25914663
0.25925778
0.25936923
0.2594801
0.2595897
0.25969802
0.25980375
0.25990607
0.26000466
0.26009904
0.26018795
0.26027027
0.26034588
0.26041368
0.26047312
0.26052291
0.26056148
0.26058696
0.26059938
0.26060412
0.26169602
0.26169112
0.26167753
0.26165059
0.26161043
0.2615594
0.26149885
0.26143027
0.26135408
0.26127132
0.26118213
0.26108754
0.26098862
0.26088615
0.26078046
0.26067217
0.26056244
0.2604516
0.2603401
0.26022901
0.26011835
0.26000863
0.25989987
0.25979232
0.25968549
0.25957898
0.25947258
0.25936434
0.25925334
0.25913774
0.25901604
0.25888531
0.25874335
0.25858878
0.25841948
0.25823485
0.25803538
0.2578213
0.25759437
0.25735775
0.2571156
0.25687087
0.25662837
0.25639107
0.25616237
0.25594523
0.25574217
0.25555415
0.25538195
0.25522626
0.25508749
0.25496483
0.25485797
0.2547663
0.25469012
0.25463069
0.25458954
0.25567994
0.2557198
0.25577731
0.25585156
0.25594141
0.25604694
0.2561683
0.25630611
0.25646076
0.2566321
0.25681953
0.25702204
0.25723866
0.25746705
0.2577043
0.25794693
0.25819183
0.25843431
0.25867124
0.25889867
0.25911332
0.25931347
0.25949863
0.2596685
0.2598237
0.25996629
0.26009768
0.26022006
0.26033607
0.26044762
0.26055616
0.26066295
0.26076962
0.26087659
0.26098448
0.2610932
0.26120296
0.26131367
0.26142479
0.26153633
0.26164719
0.2617571
0.26186532
0.26197105
0.26207367
0.2621729
0.26226758
0.262357
0.26244016
0.26251687
0.26258613
0.26264754
0.26269964
0.26274109
0.26276935
0.26278399
0.26278917
0.26388406
0.26387874
0.26386324
0.26383389
0.26379146
0.26373842
0.26367634
0.26360648
0.26352935
0.26344583
0.26335614
0.26326133
0.26316195
0.26305917
0.26295329
0.26284507
0.26273505
0.26262413
0.26251261
0.26240139
0.26229064
0.26218076
0.26207184
0.26196373
0.26185652
0.26174962
0.2616424
0.26153347
0.26142152
0.26130503
0.26118199
0.26104999
0.26090687
0.26075109
0.26058063
0.260395
0.26019422
0.25997906
0.25975124
0.25951408
0.25927133
0.25902633
0.25878361
0.25854645
0.25831837
0.25810223
0.25790022
0.25771339
0.25754283
0.25738905
0.25725209
0.25713179
0.25702741
0.25693902
0.25686637
0.2568104
0.25677176
0.25786555
0.25790331
0.257958
0.25802935
0.25811658
0.25821996
0.25833942
0.25847562
0.25862872
0.25879862
0.25898479
0.25918638
0.25940206
0.25962983
0.25986685
0.26010956
0.2603546
0.26059754
0.26083486
0.26106298
0.26127854
0.26147987
0.26166588
0.26183688
0.26199325
0.26213682
0.26226935
0.26239302
0.26251001
0.26262232
0.26273167
0.26283939
0.26294658
0.26305414
0.2631624
0.26327162
0.2633817
0.26349259
0.26360389
0.26371542
0.26382636
0.26393646
0.2640448
0.26415083
0.26425379
0.26435323
0.26444816
0.26453812
0.26462201
0.26469952
0.26476985
0.26483253
0.26488629
0.26492951
0.26495975
0.26497598
0.2649815
0.26608171
0.26607608
0.26605926
0.26602829
0.26598435
0.26592998
0.26586682
0.26579609
0.26571827
0.2656341
0.26554399
0.26544891
0.26534938
0.26524622
0.26514007
0.26503163
0.26492147
0.26481043
0.26469882
0.26458733
0.26447628
0.26436597
0.26425645
0.26414792
0.26404005
0.2639325
0.26382432
0.26371451
0.26360175
0.26348427
0.26336007
0.26322704
0.26308299
0.26292615
0.26275478
0.26256838
0.26236671
0.26215083
0.26192254
0.26168512
0.26144207
0.26119707
0.26095445
0.26071762
0.26049022
0.26027492
0.26007377
0.25988812
0.25971881
0.25956633
0.25943081
0.25931205
0.25920949
0.25912321
0.25905291
0.25899926
0.25896232
0.26006255
0.26009886
0.26015166
0.26022107
0.2603066
0.26040848
0.26052669
0.26066164
0.26081355
0.26098232
0.26116749
0.26136821
0.26158319
0.2618102
0.26204672
0.26228914
0.26253399
0.26277702
0.26301445
0.26324276
0.26345886
0.2636607
0.2638474
0.26401905
0.26417626
0.26432072
0.26445422
0.26457889
0.26469687
0.26481008
0.26492039
0.26502903
0.26513698
0.26524522
0.26535407
0.26546389
0.26557445
0.26568571
0.26579748
0.26590919
0.26602039
0.26613061
0.26623918
0.26634546
0.26644881
0.26654842
0.26664366
0.26673389
0.26681826
0.26689632
0.26696737
0.26703093
0.2670858
0.26713033
0.26716195
0.26717927
0.26718505
0.26829144
0.26828558
0.26826786
0.26823572
0.26819073
0.26813544
0.26807158
0.26800025
0.267922
0.26783744
0.2677471
0.26765173
0.26755198
0.26744849
0.26734207
0.26723336
0.26712305
0.2670117
0.26689977
0.26678776
0.26667625
0.26656538
0.26645528
0.26634604
0.26623741
0.26612899
0.26601988
0.26590907
0.26579538
0.26567692
0.2655518
0.2654179
0.26527311
0.2651156
0.26494378
0.26475692
0.26455498
0.26433889
0.26411069
0.2638734
0.26363054
0.26338597
0.26314385
0.26290773
0.26268112
0.26246656
0.26226629
0.26208158
0.26191331
0.26176189
0.26162742
0.26150964
0.26140834
0.26132339
0.26125471
0.26120261
0.26116685
0.26227556
0.26231094
0.2623625
0.26243057
0.26251507
0.26261589
0.2627333
0.26286733
0.26301832
0.2631861
0.26337036
0.26357016
0.26378421
0.26401032
0.26424594
0.26448761
0.26473175
0.26497427
0.26521123
0.26543914
0.26565503
0.26585691
0.26604377
0.26621568
0.26637337
0.26651843
0.26665264
0.2667782
0.26689709
0.26701129
0.26712257
0.26723217
0.26734111
0.26745019
0.26755982
0.26767023
0.26778145
0.26789325
0.2680055
0.26811764
0.26822919
0.26833964
0.26844851
0.2685551
0.26865867
0.26875857
0.26885408
0.26894455
0.26902925
0.26910767
0.26917921
0.26924333
0.26929894
0.26934429
0.26937684
0.26939491
0.26940087
0.27051297
0.27050695
0.2704886
0.27045573
0.27041007
0.27035419
0.27028987
0.27021817
0.27013961
0.27005478
0.2699642
0.26986858
0.26976854
0.26966485
0.26955813
0.2694491
0.26933846
0.26922668
0.2691143
0.2690018
0.26888969
0.26877811
0.26866732
0.26855724
0.26844769
0.26833825
0.26822814
0.26811637
0.26800167
0.26788235
0.26775643
0.26762193
0.26747671
0.26731896
0.26714712
0.26696044
0.26675885
0.26654336
0.26631594
0.26607953
0.26583759
0.26559408
0.26535302
0.26511804
0.26489253
0.26467907
0.26447981
0.26429604
0.26412872
0.26397814
0.26384448
0.26372746
0.26362701
0.26354291
0.26347532
0.2634242
0.26338914
0.26450783
0.26454264
0.26459342
0.26466063
0.26474437
0.26484448
0.26496115
0.26509445
0.26524461
0.26541146
0.26559469
0.26579333
0.26600609
0.26623086
0.26646503
0.26670527
0.26694792
0.26718902
0.26742463
0.2676513
0.26786615
0.2680672
0.26825349
0.26842508
0.26858275
0.26872804
0.26886274
0.26898897
0.2691087
0.26922389
0.26933614
0.26944675
0.26955672
0.26966676
0.26977732
0.26988855
0.2700005
0.27011294
0.27022574
0.27033836
0.27045037
0.27056123
0.27067042
0.27077728
0.27088109
0.27098125
0.27107698
0.27116766
0.2712526
0.27133126
0.27140308
0.27146756
0.27152363
0.27156958
0.27160271
0.27162127
0.27162736
0.27274345
0.27273731
0.27271857
0.27268523
0.27263909
0.27258286
0.27251828
0.27244636
0.27236762
0.27228261
0.27219184
0.27209601
0.27199575
0.2718918
0.2717848
0.27167544
0.27156436
0.27145209
0.2713392
0.27122611
0.2711133
0.27100095
0.27088928
0.27077822
0.27066767
0.27055718
0.27044605
0.27033331
0.27021769
0.27009758
0.2699711
0.26983629
0.26969109
0.26953366
0.26936252
0.26917686
0.26897659
0.26876268
0.26853706
0.26830254
0.26806257
0.26782104
0.26758186
0.2673487
0.26712486
0.26691293
0.26671501
0.26653241
0.26636608
0.26621637
0.26608344
0.26596711
0.2658673
0.26578387
0.26571697
0.26566648
0.26563189
0.2667615
0.26679593
0.26684617
0.2669128
0.26699594
0.26709545
0.26721144
0.26734396
0.26749318
0.26765891
0.26784077
0.26803783
0.26824875
0.26847147
0.26870335
0.26894119
0.26918129
0.26941981
0.26965289
0.26987711
0.27008977
0.27028894
0.27047372
0.2706442
0.27080118
0.27094617
0.27108097
0.2712076
0.27132801
0.27144402
0.27155723
0.27166887
0.2717799
0.27189098
0.27200252
0.27211466
0.27222742
0.27234061
0.27245402
0.2725672
0.27267972
0.27279103
0.27290058
0.2730077
0.27311179
0.27321215
0.27330807
0.27339891
0.27348398
0.27356277
0.27363474
0.27369938
0.27375573
0.27380199
0.2738355
0.27385439
0.27386058
0.27497797
0.27497174
0.27495273
0.27491911
0.27487275
0.27481635
0.27475168
0.27467969
0.27460088
0.27451577
0.27442488
0.27432889
0.27422844
0.27412424
0.27401697
0.27390726
0.27379573
0.27368295
0.27356949
0.27345573
0.27334215
0.27322897
0.27311636
0.27300433
0.27289272
0.27278118
0.27266904
0.27255539
0.27243903
0.27231839
0.2721917
0.27205704
0.27191246
0.27175612
0.27158658
0.27140299
0.27120525
0.27099422
0.27077176
0.27054051
0.27030383
0.2700655
0.26982935
0.26959903
0.26937769
0.269168
0.26897197
0.26879097
0.26862594
0.2684773
0.26834523
0.26822962
0.26813042
0.26804757
0.26798118
0.26793116
0.26789689
0.26903825
0.26907239
0.26912219
0.26918832
0.26927087
0.26936973
0.2694849
0.26961644
0.26976441
0.26992861
0.27010858
0.27030339
0.27051162
0.27073127
0.2709597
0.2711938
0.27142993
0.27166435
0.27189335
0.27211364
0.27232263
0.27251856
0.27270063
0.27286895
0.27302438
0.27316837
0.27330272
0.27342935
0.27355014
0.2736668
0.27378083
0.27389343
0.27400548
0.27411758
0.2742301
0.27434318
0.27445679
0.27457076
0.27468484
0.27479861
0.27491162
0.27502335
0.27513323
0.27524063
0.27534492
0.27544544
0.27554147
0.27563238
0.27571751
0.27579631
0.27586829
0.27593295
0.27598936
0.27603577
0.27606948
0.27608858
0.27609485
0.27721039
0.2772041
0.27718493
0.27715117
0.27710476
0.27704837
0.27698376
0.27691183
0.27683307
0.27674797
0.27665707
0.27656102
0.27646046
0.2763561
0.27624858
0.27613857
0.27602666
0.27591342
0.27579938
0.27568499
0.27557065
0.27545663
0.2753431
0.27523011
0.27511753
0.27500502
0.27489201
0.27477766
0.27466078
0.27453996
0.27441353
0.27427966
0.27413649
0.27398222
0.27381544
0.27363527
0.27344155
0.27323503
0.27301738
0.27279111
0.27255942
0.27232592
0.2720943
0.27186811
0.27165047
0.27144397
0.27125063
0.27107187
0.27090865
0.27076148
0.27063056
0.2705159
0.27041744
0.27033522
0.27026936
0.27021979
0.2701858
0.27133974
0.27137357
0.2714229
0.27148846
0.27157029
0.27166828
0.27178235
0.27191253
0.27205876
0.27222082
0.27239815
0.27258978
0.27279424
0.27300953
0.27323306
0.27346177
0.27369216
0.27392062
0.27414364
0.27435814
0.27456172
0.2747528
0.27493069
0.27509559
0.27524839
0.27539052
0.2755237
0.27564976
0.27577048
0.27588746
0.27600207
0.27611544
0.27622835
0.27634136
0.27645477
0.27656871
0.2766831
0.27679779
0.27691246
0.27702675
0.27714018
0.27725224
0.27736235
0.27746994
0.27757434
0.27767491
0.27777094
0.2778618
0.27794683
0.27802551
0.27809735
0.27816187
0.27821819
0.27826456
0.27829832
0.27831752
0.27832385
0.27943457
0.27942823
0.27940901
0.27937527
0.27932898
0.27927279
0.27920841
0.2791367
0.27905815
0.27897323
0.27888247
0.27878651
0.27868598
0.27858159
0.27847398
0.2783638
0.27825164
0.27813807
0.27802358
0.27790867
0.27779369
0.27767897
0.27756468
0.2774509
0.27733752
0.27722428
0.27711065
0.27699589
0.27687893
0.27675846
0.27663294
0.27650067
0.27635986
0.27620884
0.27604617
0.27587097
0.275683
0.27548286
0.27527203
0.27505278
0.27482807
0.2746013
0.27437599
0.27415554
0.27394298
0.27374088
0.27355125
0.27337559
0.27321488
0.27306974
0.27294044
0.27282706
0.27272963
0.27264824
0.27258303
0.27253397
0.27250032
0.27366782
0.27370126
0.27375002
0.27381482
0.27389569
0.27399247
0.27410503
0.27423331
0.27437719
0.27453633
0.27471009
0.27489743
0.27509682
0.27530626
0.27552318
0.27574462
0.27596726
0.27618766
0.2764026
0.27660923
0.27680542
0.27698981
0.27716188
0.27732193
0.27747085
0.27761006
0.27774119
0.27786597
0.27798602
0.27810281
0.2782176
0.27833139
0.27844486
0.27855853
0.2786726
0.27878716
0.27890214
0.27901734
0.27913243
0.27924704
0.2793607
0.2794729
0.27958309
0.27969065
0.27979497
0.27989538
0.27999121
0.28008182
0.28016657
0.28024494
0.28031646
0.28038064
0.28043666
0.28048283
0.2805165
0.28053571
0.28054207
0.28164607
0.28163971
0.28162054
0.28158697
0.28154099
0.28148519
0.28142125
0.28134999
0.28127188
0.28118737
0.28109699
0.28100136
0.28090113
0.28079696
0.28068952
0.28057942
0.28046726
0.28035359
0.28023893
0.28012375
0.28000843
0.27989328
0.27977853
0.27966427
0.27955044
0.27943683
0.27932302
0.27920835
0.27909188
0.27897243
0.27884863
0.27871889
0.27858158
0.27843509
0.27827804
0.27810953
0.2779292
0.27773747
0.27753558
0.27732551
0.27710993
0.27689196
0.27667488
0.27646192
0.27625601
0.27605966
0.27587491
0.2757033
0.27554594
0.27540352
0.27527641
0.2751648
0.27506877
0.2749885
0.27492417
0.27487576
0.27484257
0.27602492
0.27605783
0.27610583
0.27616961
0.2762492
0.27634435
0.27645489
0.27658067
0.27672145
0.27687682
0.27704601
0.27722788
0.27742085
0.27762286
0.27783143
0.27804369
0.27825649
0.27846671
0.27867138
0.27886801
0.27905478
0.27923059
0.27939513
0.27954879
0.27969251
0.27982764
0.27995572
0.28007833
0.28019697
0.28031293
0.28042732
0.28054101
0.2806546
0.28076846
0.28088279
0.28099762
0.28111281
0.28122815
0.28134332
0.28145792
0.28157148
0.2816835
0.28179342
0.28190065
0.28200456
0.28210452
0.28219986
0.28228992
0.28237411
0.28245189
0.28252282
0.28258644
0.28264195
0.2826877
0.28272112
0.28274023
0.28274658
0.28384388
0.28383755
0.28381854
0.28378532
0.28373987
0.28368472
0.28362149
0.28355098
0.28347361
0.28338984
0.28330019
0.28320525
0.28310568
0.28300213
0.28289523
0.28278562
0.28267386
0.28256053
0.28244612
0.2823311
0.28221587
0.28210076
0.28198602
0.28187177
0.28175801
0.28164461
0.28153122
0.28141729
0.28130203
0.28118442
0.28106323
0.28093707
0.28080442
0.28066379
0.28051388
0.28035372
0.28018287
0.28000152
0.27981063
0.27961184
0.27940747
0.2792003
0.27899331
0.27878952
0.27859176
0.27840249
0.27822378
0.27805724
0.27790408
0.27776511
0.27764083
0.2775315
0.27743733
0.27735854
0.27729537
0.27724783
0.27721524
0.27841397
0.27844621
0.27849322
0.2785557
0.2786336
0.27872666
0.27883463
0.27895726
0.27909423
0.27924499
0.27940865
0.27958397
0.27976926
0.27996246
0.2801611
0.28036245
0.28056359
0.28076169
0.28095416
0.28113889
0.28131441
0.28147992
0.28163533
0.28178116
0.28191838
0.28204828
0.28217226
0.28229178
0.28240814
0.28252248
0.28263576
0.28274866
0.2828617
0.28297517
0.28308917
0.28320367
0.28331853
0.28343348
0.2835482
0.28366227
0.28377522
0.28388656
0.28399573
0.28410216
0.28420522
0.28430428
0.28439869
0.28448782
0.28457106
0.2846479
0.28471791
0.28478065
0.28483536
0.28488046
0.28491343
0.28493231
0.28493862
0.28603173
0.28602547
0.28600675
0.28597408
0.28592942
0.28587523
0.28581307
0.28574367
0.28566747
0.28558488
0.28549641
0.28540266
0.28530425
0.28520184
0.28509604
0.28498747
0.28487671
0.28476431
0.28465075
0.28453653
0.28442204
0.28430762
0.28419355
0.28408
0.28396702
0.28385454
0.28374233
0.28362993
0.28351672
0.28340183
0.28328422
0.28316266
0.28303578
0.28290224
0.28276078
0.28261043
0.28245058
0.28228124
0.28210302
0.28191722
0.28172573
0.28153095
0.28133556
0.28114233
0.28095396
0.28077287
0.28060117
0.28044058
0.28029241
0.2801576
0.28003676
0.27993029
0.27983844
0.27976153
0.27969984
0.2796534
0.27962157
0.28083851
0.2808699
0.28091568
0.28097651
0.28105233
0.28114284
0.2812477
0.28136659
0.2814991
0.28164455
0.28180192
0.28196985
0.28214655
0.28232991
0.28251751
0.28270673
0.28289492
0.28307954
0.28325843
0.28342988
0.28359279
0.28374671
0.28389177
0.28402861
0.28415824
0.28428186
0.28440078
0.28451625
0.28462944
0.2847413
0.28485259
0.2849639
0.2850756
0.28518787
0.28530076
0.28541419
0.28552796
0.28564179
0.28575532
0.28586817
0.28597982
0.28608982
0.2861976
0.28630259
0.28640419
0.28650178
0.28659472
0.28668238
0.28676418
0.28683962
0.28690829
0.28696977
0.28702335
0.2870675
0.2870998
0.28711832
0.28712451
0.28821855
0.28821244
0.28819416
0.28816229
0.28811873
0.28806587
0.28800518
0.28793737
0.28786283
0.28778196
0.28769526
0.2876033
0.28750671
0.28740611
0.28730212
0.28719532
0.2870863
0.2869756
0.28686369
0.28675107
0.28663813
0.28652524
0.28641269
0.28630069
0.28618935
0.28607867
0.28596851
0.28585854
0.28574826
0.28563699
0.28552386
0.2854078
0.28528762
0.2851621
0.28503004
0.28489045
0.28474261
0.28458628
0.28442175
0.28424992
0.28407229
0.28389082
0.28370788
0.283526
0.28334776
0.28317553
0.28301149
0.28285745
0.28271485
0.28258477
0.28246792
0.2823648
0.28227575
0.28220111
0.28214123
0.28209616
0.28206526
0.2833023
0.28333266
0.28337696
0.28343582
0.28350917
0.28359666
0.28369794
0.28381262
0.28394019
0.28407985
0.2842305
0.28439061
0.28455832
0.28473144
0.28490759
0.28508426
0.28525902
0.28542967
0.28559442
0.28575201
0.28590173
0.28604343
0.28617748
0.28630464
0.28642594
0.28654253
0.28665557
0.28676617
0.28687532
0.28698379
0.2870922
0.28720099
0.28731041
0.28742056
0.28753142
0.28764285
0.28775462
0.28786643
0.2879779
0.28808864
0.28819816
0.28830599
0.28841157
0.28851436
0.28861375
0.28870915
0.28879994
0.2888855
0.28896528
0.28903878
0.2891056
0.28916537
0.28921742
0.2892603
0.28929166
0.28930965
0.28931567
0.29041794
0.29041204
0.29039438
0.29036358
0.29032148
0.29027036
0.29021162
0.29014593
0.29007363
0.28999512
0.28991087
0.28982145
0.28972744
0.28962946
0.28952811
0.28942396
0.28931757
0.28920946
0.28910014
0.28899006
0.28887963
0.28876923
0.28865917
0.2885497
0.28844098
0.28833306
0.28822589
0.28811926
0.2880128
0.28611762
0.28594709
0.28577901
0.28561576
0.28545957
0.28531234
0.28517565
0.28505068
0.28493825
0.28483891
0.28475306
0.28468109
0.28462334
0.28457988
0.2845501
0.29052594
0.28942465
0.28832839
0.28723508
0.28614291
0.28505028
0.28395592
0.28285886
0.28175849
0.28065452
0.27954697
0.27843612
0.27732248
0.27620669
0.27508955
0.27397186
0.27285445
0.27173808
0.27062344
0.2695111
0.26840152
0.26729498
0.26619162
0.26509141
0.26399412
0.26289937
0.2618066
0.26071506
0.2596238
0.25853173
0.25743754
0.25633977
0.25523674
0.25412669
0.25300761
0.25187747
0.250734
0.24957493
0.24839783
0.24720026
0.24597969
0.24473325
0.24345613
0.2437562
0.2450281
0.24626911
0.24748463
0.24867779
0.24985069
0.25100601
0.25214611
0.25327331
0.25438981
0.25549766
0.25659881
0.25769503
0.25878793
0.25987898
0.26096946
0.26206045
0.26315286
0.26424742
0.26534468
0.26644502
0.26754863
0.26865552
0.26976555
0.2708784
0.27199363
0.27311062
0.27422866
0.27534696
0.27646466
0.27758092
0.27869494
0.27980601
0.2809136
0.28201741
0.28311739
0.28421381
0.28530728
0.28639876
0.28748951
0.28858112
0.28967543
0.29077449
0.29121132
0.29011613
0.28902523
0.28793656
0.28684831
0.28575889
0.28466703
0.28357178
0.28247256
0.28136913
0.28026155
0.2791502
0.27803564
0.27691864
0.27580005
0.27468079
0.27356173
0.27244375
0.2713276
0.27021392
0.26910321
0.26799581
0.26689191
0.26579153
0.26469451
0.2636005
0.26250902
0.26141938
0.26033072
0.25924201
0.25815205
0.25705932
0.2559624
0.25485954
0.25374888
0.25262839
0.25149595
0.25034919
0.24918608
0.24800362
0.24679988
0.24557136
0.24431369
0.24508834
0.24633429
0.24755201
0.24874584
0.249919
0.25107348
0.25221254
0.25333855
0.25445347
0.25555944
0.25665843
0.25775223
0.25884242
0.25993043
0.26101773
0.26210546
0.26319464
0.26428604
0.26538033
0.26647797
0.26757923
0.26868424
0.26979296
0.27090519
0.27202053
0.27313842
0.27425819
0.27537901
0.27649995
0.27762005
0.27873833
0.27985384
0.28096575
0.28207341
0.28317638
0.28427455
0.28536812
0.28645766
0.28754409
0.28862868
0.28971301
0.2907989
0.29188841
0.29285315
0.291771
0.29069153
0.2896127
0.28853269
0.28744993
0.28636313
0.2852714
0.2841742
0.28307137
0.2819631
0.28084991
0.27973255
0.27861197
0.27748921
0.27636535
0.27524148
0.27411859
0.27299758
0.27187921
0.27076407
0.26965264
0.26854511
0.26744155
0.26634193
0.26524598
0.26415327
0.26306319
0.261975
0.26088773
0.2598003
0.25871132
0.25761945
0.25652353
0.2554216
0.25431164
0.25319162
0.25205945
0.25091276
0.24974814
0.24856357
0.2473564
0.24612333
0.24735776
0.24858608
0.24979002
0.25097213
0.25213545
0.25328199
0.2544146
0.25553557
0.25664706
0.25775088
0.25884918
0.25994364
0.26103569
0.26212649
0.26321741
0.26430956
0.26540386
0.26650101
0.26760162
0.2687061
0.26981471
0.27092747
0.2720443
0.27316492
0.27428883
0.27541538
0.27654377
0.27767301
0.27880199
0.27992952
0.28105439
0.28217539
0.28329146
0.28440169
0.28550549
0.28660256
0.28769301
0.28877734
0.28985645
0.2909316
0.29200438
0.29307661
0.29415032
0.2958295
0.29476426
0.293699
0.29263171
0.29156059
0.29048402
0.28940073
0.28830982
0.28721083
0.2861037
0.28498883
0.28386697
0.28273917
0.28160669
0.28047088
0.27933312
0.27819478
0.27705707
0.27592107
0.27478771
0.27365767
0.27253149
0.27140946
0.27029169
0.26917821
0.26806879
0.26696293
0.26586009
0.26475974
0.26366086
0.26256221
0.26146254
0.26036087
0.25925562
0.25814501
0.25702731
0.25590113
0.25476393
0.25361332
0.25244618
0.25126068
0.25005429
0.24882336
0.25046326
0.25170712
0.25292509
0.25412224
0.25530313
0.25646844
0.25762083
0.25876222
0.25989491
0.26102064
0.26214075
0.2632572
0.264372
0.26548597
0.26660028
0.26771608
0.26883433
0.26995567
0.27108068
0.27220975
0.27334314
0.27448083
0.27562269
0.27676838
0.27791735
0.27906883
0.28022181
0.28137512
0.28252739
0.28367709
0.28482263
0.28596242
0.287095
0.28821909
0.28933378
0.29043858
0.2915335
0.29261898
0.29369595
0.2947657
0.29582986
0.29689025
0.29794886
0.30057168
0.29951496
0.29845448
0.29738829
0.29631455
0.2952316
0.29413806
0.29303297
0.29191583
0.2907867
0.28964615
0.28849526
0.28733555
0.28616877
0.28499679
0.28382144
0.2826445
0.28146751
0.28029181
0.27911847
0.27794833
0.27678199
0.27561982
0.27446195
0.27330843
0.27215905
0.27101337
0.26987083
0.26873074
0.26759221
0.26645406
0.26531507
0.26417438
0.26303041
0.26188148
0.26072586
0.25956161
0.25838668
0.25719919
0.25599674
0.25477762
0.25354044
0.25228012
0.25416541
0.25545962
0.25673105
0.2579838
0.25922032
0.26044207
0.26165172
0.26285121
0.26404277
0.26522729
0.26640686
0.26758342
0.26875864
0.26993324
0.27110834
0.27228503
0.27346418
0.27464645
0.27583245
0.27702258
0.27821708
0.2794159
0.28061892
0.28182572
0.28303567
0.28424784
0.28546104
0.28667375
0.28788421
0.28909039
0.29029012
0.29148119
0.29266149
0.29382922
0.29498308
0.29612245
0.29724731
0.29835827
0.29945645
0.30054336
0.30162073
0.30269046
0.30375445
0.30752817
0.30644195
0.30534837
0.30424557
0.3031316
0.30200454
0.30086263
0.29970447
0.29852917
0.29733656
0.29612721
0.29490257
0.29366486
0.29241662
0.29116049
0.28989905
0.28863469
0.28736946
0.28610505
0.28484283
0.28358386
0.2823288
0.28107808
0.27983182
0.27859014
0.27735278
0.27611927
0.27488903
0.27366163
0.27243612
0.27121134
0.26998621
0.26875986
0.26753091
0.26629778
0.26505887
0.26381326
0.26255851
0.26129208
0.26001152
0.25871591
0.25740247
0.25606724
0.25780463
0.25919351
0.2605621
0.26191449
0.26325298
0.26457912
0.26589549
0.2672038
0.26850584
0.2698029
0.2710966
0.27238835
0.27367938
0.27497083
0.27626369
0.27755896
0.27885741
0.28015966
0.28146619
0.28277743
0.2840936
0.28541467
0.28674044
0.28807043
0.28940391
0.29073971
0.2920763
0.29341174
0.29474362
0.29606909
0.29738509
0.29868836
0.29997574
0.30124458
0.30249338
0.3037218
0.30493048
0.30612088
0.30729492
0.30845483
0.30960285
0.31074104
0.31187128
0.31667906
0.31547649
0.31426722
0.3130494
0.3118207
0.3105784
0.3093195
0.30804109
0.30674067
0.3054167
0.30406872
0.3026981
0.30130808
0.2999027
0.29848601
0.29706174
0.29563333
0.29420366
0.292775
0.29134911
0.28992726
0.28851028
0.28709875
0.28569284
0.28429264
0.28289793
0.28150839
0.28012354
0.27874277
0.27736553
0.27599073
0.27461773
0.27324509