/*--------------------------------*- C++ -*----------------------------------*\
| =========                 |                                                 |
| \\      /  F ield         | OpenFOAM: The Open Source CFD Toolbox           |
|  \\    /   O peration     | Version:  v2012                                 |
|   \\  /    A nd           | Website:  www.openfoam.com                      |
|    \\/     M anipulation  |                                                 |
\*---------------------------------------------------------------------------*/
FoamFile
{
    version     2.0;
    format      ascii;
    class       volScalarField;
    location    "283";
    object      nut;
}
// * * * * * * * * * * * * * * * * * * * * * * * * * * * * * * * * * * * * * //

dimensions      [0 2 -1 0 0 0 0];


internalField   nonuniform List<scalar> 
75632
(
0.032342532
0.032329118
0.032315722
0.032302243
0.03228859
0.03227468
0.032260444
0.032245829
0.032230796
0.032215323
0.032199402
0.032183036
0.03216624
0.032149037
0.032131453
0.032113517
0.032095257
0.032076696
0.032057853
0.032038736
0.032019346
0.031999671
0.031979684
0.031959349
0.031938607
0.031917389
0.031895602
0.031873141
0.031849871
0.031825647
0.03180029
0.031773615
0.031745392
0.031715399
0.031683358
0.031649014
0.031612043
0.031572166
0.031529018
0.031482304
0.031431624
0.031376622
0.031316569
0.031352799
0.031383445
0.031412415
0.031440057
0.031466594
0.031492178
0.031516967
0.031541082
0.031564649
0.031587761
0.031610506
0.031632951
0.031655156
0.031677169
0.031699029
0.03172077
0.031742417
0.031763995
0.031785522
0.031807016
0.031828493
0.031849969
0.03187146
0.031892984
0.031914558
0.0319362
0.03195793
0.031979766
0.03200173
0.032023839
0.032046111
0.032068564
0.032068955
0.032046512
0.032024249
0.03200215
0.031980196
0.031958368
0.031936646
0.031915012
0.031893445
0.031871927
0.031850441
0.03182897
0.031807496
0.031786005
0.031764479
0.0317429
0.031721249
0.031699502
0.031677632
0.031655607
0.031633383
0.031610913
0.031588137
0.031564985
0.031541369
0.03151719
0.031492328
0.031466657
0.031440037
0.031412305
0.031383234
0.031352466
0.031307745
0.031308722
0.031315838
0.031324418
0.031332216
0.031337892
0.031340721
0.031341595
0.031341062
0.031338789
0.031335119
0.031329952
0.031384702
0.031389736
0.03139373
0.03139606
0.031397234
0.031396662
0.031394532
0.031389863
0.031383157
0.031375871
0.031369734
0.031368986
0.031424838
0.031425574
0.031430846
0.031436941
0.031442692
0.031446445
0.031447855
0.031448043
0.031446356
0.031443896
0.031439862
0.031435086
0.031469282
0.031475545
0.031481358
0.031486001
0.031489978
0.031492547
0.031494642
0.031494903
0.031494201
0.031491243
0.031486475
0.03148149
0.031477021
0.031476473
0.031523914
0.031524487
0.031528257
0.03153236
0.031536066
0.031538312
0.031538503
0.031537713
0.031535367
0.031532539
0.031528413
0.031523792
0.031518139
0.031512125
0.031524646
0.031531535
0.03153835
0.031544835
0.031551304
0.031557166
0.031562814
0.031567477
0.031571787
0.031574984
0.031577486
0.031578893
0.03157906
0.031577524
0.031574812
0.031571447
0.031568263
0.031567836
0.031608295
0.031608701
0.031611332
0.031613991
0.031615918
0.031616834
0.0316162
0.031614411
0.031611727
0.031608232
0.031603797
0.031599011
0.031593417
0.031587582
0.031581414
0.031574943
0.031568294
0.031561518
0.031557365
0.031563591
0.031569664
0.031576101
0.031582442
0.031589096
0.031595692
0.031602375
0.03160889
0.031615338
0.031621398
0.031627191
0.031632703
0.031637639
0.031642246
0.031645933
0.031648871
0.031650817
0.031651868
0.03165149
0.03165019
0.031648249
0.031646153
0.031645876
0.03168068
0.031680934
0.031682576
0.031683914
0.031684718
0.031684539
0.031683149
0.031680884
0.03167774
0.03167388
0.031669159
0.03166415
0.031658647
0.031652923
0.031646896
0.031640504
0.031634075
0.031627494
0.031621124
0.031614539
0.031608297
0.031601911
0.031595922
0.031589836
0.031583602
0.031602553
0.031608166
0.031613977
0.031619998
0.031626007
0.03163197
0.031638268
0.031644456
0.031650948
0.031657251
0.031663709
0.031670115
0.031676404
0.031682473
0.031688083
0.031693568
0.03169862
0.031703441
0.031707441
0.031710767
0.031713423
0.031715062
0.031715838
0.031715491
0.031714611
0.031713353
0.031713193
0.03174354
0.03174368
0.031744606
0.031745079
0.031744987
0.031743776
0.031741834
0.03173892
0.031735417
0.031731299
0.031726432
0.03172133
0.031715872
0.031710284
0.031704197
0.031697977
0.031691672
0.031685288
0.03167902
0.031672614
0.031666472
0.031660263
0.03165432
0.031648362
0.031642494
0.031636823
0.031631373
0.031625932
0.031620659
0.031615316
0.031609523
0.031603205
0.031354463
0.031359046
0.031365543
0.031373091
0.031381311
0.031390211
0.031399854
0.031410373
0.031421822
0.031434249
0.031447467
0.03146143
0.031476006
0.031490966
0.031506022
0.03152107
0.031535868
0.031550181
0.031563752
0.031576414
0.031587927
0.031598407
0.03160778
0.031616059
0.031623571
0.031630355
0.03163661
0.031642398
0.031647844
0.031653126
0.031658522
0.03166388
0.031669485
0.031675207
0.031681105
0.031687024
0.03169315
0.031699248
0.031705576
0.031711815
0.031718161
0.031724331
0.031730491
0.031736575
0.031742205
0.031747685
0.031752791
0.031757645
0.0317619
0.031765574
0.031768672
0.031770905
0.031772428
0.031772924
0.031772812
0.031772184
0.031772116
0.031799055
0.031799102
0.031799479
0.031799287
0.031798431
0.031796626
0.031794159
0.031790903
0.031787084
0.031782747
0.031777883
0.031772737
0.031767279
0.031761617
0.031755581
0.031749471
0.031743356
0.031737067
0.03173086
0.031724606
0.031718546
0.031712498
0.031706609
0.031700787
0.031695124
0.031689577
0.031684264
0.031678875
0.031673578
0.031668086
0.031662289
0.031656073
0.031649298
0.03164179
0.031633453
0.031624064
0.031613593
0.031602099
0.031589476
0.031575929
0.031561695
0.031546962
0.031532007
0.031517047
0.031502234
0.031487839
0.031474095
0.031461129
0.031448971
0.031437819
0.031427614
0.031418358
0.031409882
0.031402193
0.031395191
0.031389276
0.031385117
0.031414051
0.031417854
0.031423301
0.031429817
0.031437061
0.031445155
0.031454082
0.031463987
0.031474876
0.031486788
0.031499531
0.031513078
0.031527288
0.031541947
0.031556801
0.031571645
0.031586313
0.031600459
0.03161397
0.031626555
0.031638024
0.031648487
0.031657903
0.031666307
0.031673799
0.031680626
0.031686815
0.031692629
0.031698143
0.031703466
0.031708838
0.031714135
0.03171962
0.031725261
0.031731
0.031736867
0.031742834
0.031748861
0.031755048
0.031761224
0.031767452
0.031773541
0.031779614
0.031785579
0.031791274
0.031796696
0.031801887
0.031806767
0.031811151
0.031815102
0.031818469
0.031821149
0.031823189
0.031824356
0.031824815
0.03182466
0.031824669
0.031849082
0.031849053
0.031849022
0.031848341
0.03184691
0.031844676
0.031841811
0.031838337
0.031834307
0.031829865
0.031824984
0.031819776
0.031814343
0.031808663
0.03180275
0.031796713
0.031790645
0.031784474
0.031778327
0.031772203
0.031766205
0.031760291
0.031754462
0.031748784
0.031743197
0.03173775
0.03173246
0.031727105
0.031721754
0.031716212
0.031710413
0.031704209
0.03169736
0.031689847
0.031681403
0.031671968
0.031661533
0.031650074
0.031637526
0.031624068
0.031610007
0.031595417
0.031580679
0.03156594
0.031551415
0.03153738
0.031524037
0.031511509
0.031499848
0.031489193
0.031479573
0.031470925
0.031463179
0.031456298
0.031450203
0.031445177
0.031441705
0.031468213
0.031471451
0.031476092
0.031481816
0.031488403
0.031495854
0.031504247
0.031513611
0.031524038
0.031535458
0.031547775
0.031560921
0.031574797
0.031589179
0.031603804
0.031618443
0.031632935
0.031646923
0.031660307
0.031672807
0.03168427
0.031694668
0.031704107
0.031712566
0.03172012
0.031726978
0.031733218
0.031739004
0.031744563
0.031749935
0.031755273
0.031760559
0.031765985
0.031771509
0.031777132
0.031782918
0.031788794
0.031794774
0.031800835
0.031806958
0.031813072
0.031819119
0.031825133
0.031830997
0.031836652
0.031842097
0.031847324
0.031852219
0.031856692
0.031860762
0.031864326
0.031867351
0.031869737
0.031871399
0.031872267
0.031872461
0.031872532
0.031895126
0.031895036
0.031894707
0.031893672
0.03189183
0.031889309
0.031886167
0.031882529
0.031878412
0.031873912
0.031869011
0.031863789
0.031858334
0.031852696
0.031846871
0.031840895
0.03183487
0.031828801
0.03182271
0.031816699
0.031810749
0.031804909
0.031799177
0.031793585
0.031788098
0.031782701
0.031777421
0.031772099
0.031766712
0.03176115
0.031755348
0.031749083
0.031742203
0.031734628
0.031726165
0.031716737
0.031706348
0.031694906
0.03168245
0.031669138
0.031655229
0.031640834
0.031626302
0.031611792
0.031597559
0.031583847
0.031570888
0.031558763
0.03154755
0.03153734
0.031528198
0.031520042
0.031512846
0.031506538
0.031501147
0.031496831
0.031493826
0.031518622
0.031521445
0.031525493
0.031530606
0.031536642
0.031543618
0.031551551
0.031560504
0.031570507
0.031581526
0.031593483
0.031606272
0.031619811
0.031633892
0.031648277
0.031662703
0.031676996
0.031690826
0.031704061
0.03171647
0.031727883
0.031738266
0.031747678
0.03175614
0.031763725
0.031770622
0.03177691
0.031782738
0.031788299
0.031793699
0.031799006
0.031804282
0.03180965
0.031815106
0.031820689
0.03182637
0.03183217
0.031838082
0.031844053
0.031850106
0.031856141
0.031862149
0.031868078
0.031873873
0.031879495
0.031884955
0.031890157
0.031895058
0.03189958
0.031903735
0.031907434
0.031910662
0.031913297
0.03191528
0.031916465
0.031916915
0.031917036
0.031938343
0.031938208
0.031937661
0.031936355
0.031934267
0.031931536
0.031928246
0.031924495
0.031920314
0.031915775
0.031910871
0.031905685
0.031900241
0.031894633
0.031888858
0.031882965
0.031876983
0.031870985
0.031864976
0.031859036
0.031853165
0.031847398
0.03184174
0.031836181
0.031830746
0.031825403
0.031820127
0.031814826
0.031809429
0.031803865
0.031798012
0.031791705
0.031784803
0.031777209
0.031768745
0.03175935
0.031748975
0.031737594
0.03172524
0.031712086
0.031698338
0.03168415
0.031669832
0.031655577
0.031641649
0.031628277
0.031615654
0.031603866
0.031593032
0.031583219
0.031574443
0.031566705
0.031559927
0.031554119
0.031549243
0.031545415
0.031542761
0.031566328
0.031568851
0.03157249
0.031577167
0.031582782
0.03158938
0.031596949
0.031605558
0.031615205
0.031625868
0.031637478
0.031649944
0.03166315
0.031676927
0.031691049
0.03170525
0.031719329
0.03173299
0.031746059
0.031758355
0.031769698
0.031780061
0.031789434
0.0317979
0.031805505
0.031812407
0.031818723
0.031824598
0.031830168
0.031835555
0.031840853
0.031846134
0.031851459
0.031856882
0.03186241
0.031868052
0.031873795
0.031879635
0.03188554
0.031891506
0.031897465
0.031903416
0.031909283
0.031915038
0.031920632
0.03192605
0.031931218
0.031936125
0.031940682
0.031944885
0.03194867
0.031952013
0.031954813
0.031956982
0.031958383
0.031959011
0.031959167
0.031979562
0.031979396
0.031978705
0.031977227
0.031974988
0.031972131
0.031968751
0.031964939
0.031960725
0.031956162
0.031951267
0.031946113
0.031940718
0.031935138
0.031929407
0.031923567
0.031917651
0.031911723
0.031905793
0.031899913
0.031894102
0.031888382
0.031882757
0.031877251
0.031871845
0.031866531
0.03186125
0.031855953
0.031850567
0.031844992
0.031839106
0.031832783
0.031825877
0.031818269
0.031809815
0.03180046
0.031790125
0.031778823
0.031766595
0.031753608
0.031740038
0.031726073
0.031711994
0.031698009
0.031684388
0.031671338
0.031659027
0.03164758
0.031637081
0.031627591
0.031619143
0.031611727
0.031605287
0.031599836
0.03159533
0.03159185
0.031589448
0.031612187
0.031614493
0.031617838
0.031622195
0.031627505
0.031633802
0.031641083
0.031649386
0.031658721
0.031669064
0.031680355
0.031692509
0.031705414
0.03171888
0.03173272
0.031746669
0.031760514
0.031773987
0.031786887
0.031799039
0.031810298
0.031820591
0.031829927
0.031838362
0.031845964
0.031852871
0.031859199
0.031865089
0.03187067
0.031876056
0.031881356
0.031886633
0.031891939
0.031897332
0.031902822
0.031908428
0.031914126
0.031919912
0.031925775
0.03193167
0.031937572
0.031943453
0.031949266
0.031954974
0.031960539
0.031965909
0.031971049
0.031975927
0.031980486
0.031984704
0.031988532
0.03199194
0.03199484
0.031997136
0.031998677
0.031999421
0.031999602
0.032019314
0.032019127
0.032018343
0.032016752
0.032014417
0.032011484
0.032008059
0.03200422
0.032000004
0.031995452
0.031990591
0.031985468
0.031980118
0.031974575
0.031968891
0.031963103
0.031957254
0.031951382
0.031945509
0.031939668
0.031933905
0.031928227
0.03192264
0.031917162
0.031911781
0.031906479
0.031901203
0.031895902
0.031890515
0.03188493
0.031879038
0.031872708
0.031865808
0.031858214
0.031849802
0.031840495
0.031830243
0.031819043
0.031806972
0.031794166
0.031780799
0.031767079
0.031753265
0.031739575
0.031726263
0.031713512
0.031701513
0.031690373
0.031680183
0.031670992
0.031662823
0.031655662
0.031649494
0.031644305
0.031640078
0.031636849
0.031634632
0.031656828
0.031658976
0.031662109
0.031666223
0.031671308
0.031677358
0.031684406
0.031692446
0.031701503
0.031711544
0.031722535
0.03173438
0.03174697
0.031760125
0.031773661
0.031787333
0.031800918
0.031814171
0.031826874
0.031838857
0.031849986
0.031860189
0.031869459
0.031877845
0.031885423
0.031892314
0.031898638
0.031904532
0.031910117
0.031915507
0.031920808
0.031926082
0.031931384
0.031936759
0.031942224
0.03194779
0.031953454
0.031959196
0.031965013
0.031970861
0.03197671
0.031982528
0.031988292
0.031993954
0.03199947
0.032004801
0.032009905
0.03201475
0.032019291
0.032023503
0.032027344
0.032030781
0.032033735
0.032036097
0.032037726
0.032038542
0.032038738
0.032057877
0.032057677
0.032056837
0.032055183
0.032052797
0.032049829
0.032046387
0.032042548
0.032038346
0.032033819
0.032028992
0.032023907
0.032018598
0.032013108
0.032007471
0.032001733
0.031995939
0.031990113
0.031984289
0.031978496
0.031972773
0.031967124
0.031961573
0.031956117
0.031950748
0.031945447
0.031940174
0.031934874
0.031929481
0.031923896
0.031918004
0.031911688
0.031904811
0.031897256
0.031888905
0.031879683
0.03186954
0.031858492
0.031846608
0.031834018
0.031820894
0.031807452
0.031793931
0.031780556
0.031767562
0.031755135
0.031743447
0.031732606
0.031722706
0.03171378
0.031705859
0.031698924
0.031692977
0.031687989
0.031683972
0.031680923
0.031678834
0.031700686
0.031702724
0.031705703
0.031709635
0.031714532
0.031720383
0.031727212
0.031735017
0.031743815
0.031753576
0.031764266
0.031775795
0.031788056
0.031800882
0.031814089
0.031827448
0.031840736
0.031853718
0.031866181
0.031877955
0.031888911
0.031898977
0.03190814
0.031916447
0.031923971
0.031930827
0.031937132
0.031943018
0.031948602
0.031953998
0.031959297
0.031964569
0.031969868
0.031975231
0.031980682
0.031986223
0.031991856
0.031997561
0.032003332
0.032009133
0.032014937
0.032020708
0.03202642
0.03203203
0.032037495
0.032042781
0.032047844
0.03205265
0.032057162
0.032061351
0.032065183
0.032068624
0.032071601
0.032074005
0.032075677
0.032076535
0.032076741
0.032095315
0.032095107
0.032094236
0.03209255
0.032090137
0.032087158
0.032083722
0.032079901
0.032075727
0.032071234
0.032066449
0.032061409
0.032056148
0.032050708
0.032045124
0.032039438
0.032033689
0.032027907
0.032022128
0.032016378
0.032010688
0.032005069
0.031999539
0.031994094
0.031988735
0.031983437
0.031978165
0.031972867
0.031967472
0.031961892
0.031956016
0.031949728
0.031942901
0.031935416
0.031927165
0.031918073
0.031908096
0.031897248
0.0318856
0.031873278
0.031860451
0.03184733
0.031834143
0.031821114
0.031808463
0.031796375
0.031785009
0.031774471
0.031764848
0.031756178
0.031748485
0.031741759
0.031735998
0.031731184
0.031727325
0.031724408
0.031722415
0.031744047
0.031746003
0.031748864
0.031752656
0.031757392
0.031763067
0.031769693
0.031777275
0.03178582
0.031795302
0.031805684
0.031816883
0.031828792
0.031841258
0.031854097
0.031867099
0.031880039
0.031892695
0.031904859
0.031916362
0.031927087
0.03193696
0.031945968
0.031954152
0.031961586
0.031968377
0.031974641
0.031980502
0.031986075
0.031991464
0.031996761
0.032002033
0.032007329
0.032012686
0.032018123
0.032023645
0.03202925
0.032034925
0.032040656
0.032046414
0.032052174
0.0320579
0.032063561
0.032069118
0.032074533
0.032079769
0.032084785
0.032089547
0.03209402
0.032098175
0.032101983
0.032105408
0.032108385
0.032110801
0.032112495
0.032113376
0.032113587
0.03213153
0.032131318
0.032130431
0.032128733
0.032126318
0.032123348
0.032119935
0.032116145
0.03211201
0.03210756
0.032102823
0.032097832
0.032092623
0.032087234
0.032081704
0.032076068
0.032070365
0.032064628
0.032058891
0.032053178
0.032047518
0.032041925
0.032036412
0.032030981
0.032025628
0.032020334
0.032015064
0.032009771
0.032004388
0.031998827
0.031992986
0.031986752
0.031980008
0.031972635
0.031964532
0.031955624
0.031945873
0.031935292
0.031923949
0.031911962
0.031899496
0.031886754
0.031873954
0.031861317
0.031849047
0.031837326
0.031826301
0.031816079
0.03180674
0.031798323
0.031790852
0.031784323
0.031778733
0.031774071
0.03177034
0.03176753
0.03176561
0.031787119
0.031789008
0.031791771
0.031795443
0.031800033
0.031805541
0.031811972
0.03181933
0.031827617
0.03183681
0.031846866
0.031857709
0.031869232
0.031881292
0.031893712
0.031906293
0.031918817
0.031931073
0.031942863
0.031954025
0.031964443
0.031974053
0.031982843
0.03199085
0.031998149
0.032004837
0.032011031
0.032016845
0.03202239
0.032027765
0.032033052
0.032038317
0.032043608
0.032048957
0.032054381
0.032059885
0.032065466
0.032071111
0.032076806
0.032082522
0.032088236
0.032093914
0.032099523
0.032105027
0.032110387
0.032115569
0.032120532
0.032125243
0.032129669
0.032133781
0.032137551
0.032140948
0.032143907
0.032146317
0.032148016
0.032148907
0.032149121
0.032166328
0.032166114
0.032165222
0.032163525
0.032161125
0.032158179
0.032154801
0.032151053
0.032146966
0.032142567
0.032137885
0.03213295
0.032127798
0.032122467
0.032116992
0.032111411
0.032105758
0.032100069
0.032094374
0.032088698
0.032083068
0.032077501
0.032072006
0.03206659
0.032061248
0.032055962
0.032050703
0.032045425
0.032040065
0.032034542
0.032028761
0.032022617
0.032015996
0.032008786
0.03200089
0.031992237
0.031982787
0.031972553
0.031961595
0.031950026
0.031938002
0.031925715
0.031913374
0.031901187
0.031889351
0.031878037
0.031867385
0.031857501
0.03184846
0.031840307
0.031833063
0.03182673
0.031821306
0.031816786
0.031813171
0.031810453
0.031808595
0.031830052
0.031831881
0.031834555
0.031838114
0.031842564
0.031847904
0.031854136
0.031861262
0.031869278
0.03187816
0.031887864
0.031898315
0.031909407
0.031921005
0.031932941
0.031945023
0.031957049
0.031968817
0.031980141
0.031990871
0.032000898
0.032010166
0.032018664
0.032026431
0.032033537
0.032040079
0.032046164
0.032051902
0.032057396
0.032062737
0.032068002
0.032073252
0.032078529
0.032083863
0.032089269
0.032094751
0.032100305
0.032105917
0.032111572
0.032117244
0.032122908
0.032128532
0.032134083
0.032139528
0.032144829
0.03214995
0.032154853
0.032159506
0.032163875
0.032167935
0.032171658
0.032175014
0.032177942
0.032180331
0.032182021
0.032182913
0.032183127
0.032199495
0.032199281
0.032198392
0.03219671
0.032194336
0.032191428
0.032188097
0.032184402
0.032180372
0.032176035
0.032171416
0.032166546
0.03216146
0.032156192
0.03215078
0.03214526
0.032139666
0.032134031
0.032128384
0.032122752
0.032117159
0.032111623
0.032106156
0.032100763
0.03209544
0.032090174
0.032084938
0.032079691
0.032074376
0.032068919
0.032063233
0.032057218
0.032050769
0.032043782
0.032036162
0.03202784
0.032018777
0.03200898
0.031998503
0.031987449
0.031975961
0.031964219
0.031952416
0.031940751
0.031929408
0.03191855
0.031908311
0.031898797
0.03189008
0.031882207
0.031875202
0.031869074
0.03186382
0.031859441
0.031855939
0.031853308
0.031851508
0.031872977
0.031874748
0.031877336
0.031880781
0.031885087
0.031890252
0.031896274
0.031903152
0.031910876
0.031919421
0.031928737
0.031938752
0.031949361
0.031960434
0.03197181
0.031983311
0.031994746
0.032005929
0.032016688
0.032026887
0.032036428
0.032045264
0.03205339
0.032060844
0.032067697
0.032074039
0.032079971
0.032085596
0.032091008
0.03209629
0.032101512
0.03210673
0.032111979
0.032117286
0.032122663
0.032128112
0.032133627
0.032139197
0.032144802
0.03215042
0.032156025
0.032161585
0.032167071
0.032172446
0.032177677
0.032182726
0.032187559
0.032192141
0.032196444
0.03220044
0.032204104
0.032207407
0.032210291
0.032212648
0.03221432
0.032215205
0.032215419
0.032230892
0.03223068
0.032229801
0.032228142
0.032225806
0.032222948
0.032219676
0.032216046
0.032212087
0.032207823
0.032203281
0.032198489
0.032193481
0.032188291
0.032182956
0.032177509
0.032171985
0.032166416
0.032160831
0.032155256
0.032149714
0.032144224
0.032138798
0.032133443
0.032128157
0.03212293
0.032117738
0.032112547
0.032107306
0.032101948
0.032096396
0.032090558
0.032084337
0.032077635
0.032070364
0.032062456
0.03205387
0.032044608
0.032034713
0.032024273
0.03201342
0.032002315
0.031991136
0.031980068
0.031969282
0.031958935
0.031949156
0.031940046
0.031931682
0.031924112
0.031917366
0.031911454
0.031906381
0.031902149
0.031898764
0.031896219
0.031894478
0.031916027
0.031917738
0.031920238
0.031923563
0.031927717
0.031932696
0.031938492
0.031945103
0.031952511
0.031960689
0.031969582
0.031979116
0.031989188
0.031999671
0.032010415
0.032021251
0.032032005
0.032042506
0.032052601
0.032062169
0.03207113
0.032079444
0.032087115
0.032094184
0.032100719
0.032106804
0.032112535
0.032118005
0.032123298
0.03212849
0.032133641
0.0321388
0.032143998
0.032149257
0.032154584
0.032159982
0.032165441
0.03217095
0.032176489
0.032182036
0.032187565
0.032193046
0.032198449
0.03220374
0.032208884
0.032213847
0.032218593
0.032223091
0.032227312
0.03223123
0.032234822
0.032238059
0.032240887
0.0322432
0.032244843
0.032245715
0.032245926
0.032260541
0.032260333
0.03225947
0.032257844
0.032255558
0.032252764
0.032249566
0.032246016
0.032242143
0.03223797
0.032233521
0.032228825
0.032223914
0.032218821
0.03221358
0.032208227
0.032202794
0.032197312
0.032191809
0.032186312
0.032180843
0.032175421
0.032170059
0.032164766
0.032159543
0.032154381
0.032149263
0.03214416
0.032139028
0.032133809
0.032128434
0.032122822
0.032116885
0.032110534
0.032103683
0.032096268
0.032088245
0.032079607
0.032070387
0.032060657
0.032050529
0.032040147
0.03202967
0.032019267
0.0320091
0.031999314
0.031990035
0.031981366
0.031973383
0.03196614
0.031959671
0.031953993
0.031949113
0.031945039
0.031941776
0.031939323
0.031937643
0.031959346
0.031960993
0.031963398
0.031966596
0.031970588
0.031975365
0.03198092
0.031987244
0.031994315
0.032002098
0.032010537
0.032019552
0.032029043
0.032038884
0.032048934
0.032059036
0.032069031
0.032078768
0.032088114
0.032096968
0.032105265
0.03211298
0.032120123
0.032126739
0.032132894
0.03213867
0.03214415
0.032149419
0.032154552
0.032159616
0.032164662
0.032169729
0.032174845
0.032180026
0.032185276
0.032190594
0.032195971
0.032201393
0.03220684
0.032212291
0.03221772
0.032223098
0.032228394
0.032233577
0.032238613
0.032243468
0.032248107
0.032252502
0.032256622
0.032260444
0.032263946
0.032267102
0.032269859
0.032272114
0.032273719
0.032274571
0.032274777
0.032288687
0.032288485
0.032287645
0.032286064
0.032283842
0.032281127
0.032278019
0.032274569
0.032270802
0.032266741
0.032262408
0.032257831
0.032253041
0.03224807
0.032242951
0.032237719
0.032232404
0.032227038
0.032221647
0.032216257
0.032210892
0.032205569
0.032200304
0.032195106
0.032189978
0.032184917
0.03217991
0.032174931
0.032169947
0.032164909
0.032159756
0.032154419
0.032148818
0.032142871
0.032136502
0.032129644
0.032122252
0.03211431
0.032105837
0.032096887
0.032087554
0.032077958
0.032068241
0.032058554
0.032049047
0.032039858
0.032031111
0.032022908
0.032015329
0.032008434
0.032002261
0.031996832
0.03199216
0.031988254
0.031985123
0.031982768
0.031981154
0.032003088
0.032004666
0.03200697
0.032010031
0.032013848
0.032018412
0.032023711
0.032029732
0.032036448
0.03204382
0.032051785
0.03206026
0.032069143
0.032078312
0.032087631
0.032096958
0.032106148
0.03211507
0.032123613
0.032131697
0.032139274
0.032146334
0.032152897
0.032159009
0.032164737
0.032170154
0.032175339
0.032180364
0.032185297
0.032190192
0.032195092
0.032200029
0.032205025
0.03221009
0.032215226
0.032220428
0.032225687
0.032230986
0.032236308
0.03224163
0.032246925
0.032252168
0.032257327
0.032262373
0.032267271
0.03227199
0.032276497
0.032280761
0.032284757
0.032288462
0.032291855
0.03229491
0.032297579
0.032299762
0.032301317
0.032302143
0.032302341
0.032315819
0.032315627
0.032314817
0.032313292
0.03231115
0.032308532
0.032305535
0.032302206
0.03229857
0.032294646
0.032290457
0.032286028
0.03228139
0.032276572
0.032271609
0.032266531
0.032261371
0.032256156
0.032250915
0.032245671
0.032240448
0.032235264
0.032230135
0.032225073
0.032220081
0.032215162
0.032210305
0.032205493
0.032200699
0.032195881
0.032190992
0.032185969
0.032180744
0.032175242
0.032169393
0.032163132
0.03215641
0.032149201
0.032141511
0.032133376
0.032124867
0.032116084
0.032107148
0.032098196
0.032089364
0.032080786
0.032072583
0.032064857
0.032057694
0.032051158
0.032045293
0.032040126
0.032035674
0.032031948
0.032028959
0.032026708
0.032025166
0.032047407
0.032048912
0.032051107
0.032054022
0.032057654
0.032061993
0.032067025
0.032072733
0.032079088
0.032086043
0.032093531
0.032101467
0.032109744
0.032118243
0.032126834
0.032135385
0.032143767
0.032151867
0.032159598
0.032166897
0.032173739
0.032180124
0.032186083
0.032191666
0.032196936
0.032201964
0.032206819
0.032211564
0.032216257
0.032220942
0.032225654
0.032230419
0.032235252
0.032240157
0.032245135
0.032250179
0.032255277
0.032260413
0.032265567
0.032270718
0.032275841
0.032280909
0.032285894
0.032290766
0.032295492
0.032300042
0.032304384
0.032308489
0.032312333
0.032315894
0.032319154
0.032322087
0.032324649
0.032326745
0.032328238
0.032329029
0.032329215
0.032342631
0.032342452
0.032341681
0.032340225
0.032338178
0.032335678
0.032332813
0.03232963
0.032326151
0.032322395
0.032318381
0.032314135
0.032309684
0.032305058
0.032300289
0.032295406
0.032290441
0.032285421
0.032280371
0.032275318
0.032270281
0.032265281
0.032260334
0.032255452
0.032250643
0.032245909
0.032241246
0.032236642
0.032232076
0.032146732
0.032138491
0.032130314
0.032122329
0.032114656
0.0321074
0.032100651
0.032094476
0.032088925
0.032084029
0.032079806
0.03207627
0.032073432
0.032071293
0.032069827
0.032348442
0.03233512
0.032321812
0.032308417
0.032294841
0.032281003
0.032266833
0.03225228
0.032237303
0.032221881
0.032206006
0.032189681
0.032172924
0.032155755
0.032138202
0.032120295
0.032102061
0.032083524
0.032064701
0.032045602
0.032026227
0.032006562
0.031986581
0.031966245
0.031945497
0.031924264
0.031902453
0.031879956
0.031856639
0.031832352
0.031806918
0.031780144
0.031751808
0.031721674
0.031689477
0.031654942
0.031617766
0.031577641
0.031534231
0.031487199
0.031436194
0.031380814
0.0313204
0.031344721
0.031404359
0.031458941
0.031509201
0.031555572
0.031598352
0.03163791
0.031674567
0.031708637
0.031740416
0.031770178
0.031798182
0.031824663
0.031849834
0.031873889
0.031897
0.031919316
0.031940965
0.031962053
0.031982671
0.032002889
0.032022762
0.032042328
0.032061612
0.032080623
0.032099363
0.032117819
0.032135972
0.032153798
0.032171267
0.032188348
0.032205012
0.032221235
0.032237
0.032252303
0.032267149
0.03228156
0.032295576
0.032309248
0.032322646
0.032335853
0.03234896
0.032362069
0.032386187
0.032373447
0.032360689
0.03234781
0.032334719
0.032321333
0.032307583
0.032293415
0.032278793
0.032263695
0.032248117
0.032232065
0.032215559
0.032198625
0.032181296
0.032163605
0.032145584
0.032127262
0.032108661
0.032089795
0.032070668
0.032051272
0.032031588
0.032011581
0.0319912
0.03197038
0.031949038
0.031927073
0.031904365
0.031880772
0.031856134
0.031830252
0.031802935
0.031773956
0.031743065
0.031709996
0.031674463
0.031636149
0.031594774
0.031549932
0.031501349
0.031448546
0.031390927
0.03145018
0.031506072
0.031557278
0.031604389
0.031647846
0.031687928
0.031725072
0.031759597
0.031791768
0.03182187
0.031850161
0.031876879
0.03190223
0.031926402
0.031949588
0.031971941
0.031993595
0.032014663
0.032035242
0.032055408
0.032075221
0.032094726
0.032113956
0.032132928
0.032151645
0.032170099
0.032188274
0.032206143
0.032223674
0.032240831
0.032257576
0.032273874
0.032289695
0.032305016
0.032319826
0.032334129
0.032347946
0.032361311
0.032374279
0.032386919
0.032399313
0.032411555
0.032423746
0.032477322
0.032465846
0.032454273
0.032442499
0.032430433
0.032417989
0.032405098
0.032391707
0.03237778
0.032363298
0.032348261
0.032332683
0.03231659
0.032300018
0.032283007
0.032265598
0.032247833
0.032229749
0.032211376
0.032192736
0.032173839
0.032154689
0.032135267
0.032115544
0.032095485
0.032075033
0.032054117
0.032032646
0.032010515
0.031987595
0.031963744
0.031938781
0.03191253
0.031884839
0.031855455
0.031824112
0.031790543
0.031754471
0.031715579
0.031673413
0.031627694
0.031578054
0.031524043
0.031599732
0.031652992
0.031702086
0.031747363
0.031789238
0.031827986
0.031863984
0.031897537
0.03192893
0.0319584
0.031986222
0.032012616
0.032037765
0.032061821
0.032084957
0.032107319
0.032129028
0.032150183
0.032170871
0.032191162
0.032211109
0.032230746
0.0322501
0.032269183
0.03228799
0.032306506
0.032324709
0.032342563
0.032360028
0.032377056
0.032393599
0.032409613
0.032425054
0.032439893
0.03245411
0.032467705
0.032480693
0.032493111
0.032505012
0.032516467
0.032527561
0.032538387
0.032549051
0.032640594
0.032630688
0.032620527
0.032610008
0.032599037
0.032587526
0.032575402
0.032562611
0.032549116
0.032534903
0.032519976
0.032504357
0.032488085
0.032471208
0.032453777
0.032435849
0.032417476
0.032398705
0.032379574
0.032360115
0.032340343
0.032320265
0.032299871
0.032279135
0.032258034
0.032236515
0.032214503
0.032191919
0.032168688
0.032144679
0.032119736
0.032093701
0.032066446
0.032037773
0.032007457
0.031975273
0.031941041
0.031904434
0.031865139
0.031822748
0.031777013
0.031727588
0.031673988
0.031728469
0.031783977
0.031835157
0.031882668
0.0319271
0.031968555
0.032007378
0.032043818
0.032078167
0.032110648
0.032141431
0.032170758
0.03219888
0.032225897
0.032251954
0.032277193
0.032301736
0.032325664
0.03234906
0.032371984
0.032394488