/*--------------------------------*- C++ -*----------------------------------*\
| =========                 |                                                 |
| \\      /  F ield         | OpenFOAM: The Open Source CFD Toolbox           |
|  \\    /   O peration     | Version:  v2012                                 |
|   \\  /    A nd           | Website:  www.openfoam.com                      |
|    \\/     M anipulation  |                                                 |
\*---------------------------------------------------------------------------*/
FoamFile
{
    version     2.0;
    format      ascii;
    class       volScalarField;
    location    "283";
    object      p;
}
// * * * * * * * * * * * * * * * * * * * * * * * * * * * * * * * * * * * * * //

dimensions      [0 2 -2 0 0 0 0];


internalField   nonuniform List<scalar> 
75632
(
-0.99273236
-0.92905198
-0.86549403
-0.80255677
-0.74060023
-0.68004831
-0.62128794
-0.56465863
-0.51045419
-0.45891805
-0.4102409
-0.36456025
-0.3219614
-0.28247996
-0.24610585
-0.21278837
-0.1824419
-0.15495213
-0.13018227
-0.10797891
-0.08817765
-0.070607904
-0.055097049
-0.041474024
-0.029572056
-0.019230789
-0.010297841
-0.0026298992
0.0039066379
0.0094353914
0.014070022
0.017914311
0.021062694
0.023600177
0.025604305
0.027142392
0.028279457
0.029063486
0.029561614
0.029806562
0.029805389
0.029622547
0.029288205
-0.13351401
-0.1435928
-0.15445291
-0.16614499
-0.17871775
-0.19220993
-0.20667395
-0.22216941
-0.23875149
-0.25647554
-0.27538008
-0.29547784
-0.31677659
-0.33927427
-0.36295664
-0.38780394
-0.41378886
-0.44086321
-0.46895875
-0.49798803
-0.52784406
-0.55840108
-0.58951373
-0.62100994
-0.65275165
-0.68453829
-0.71611865
-0.74727756
-0.77777255
-0.80735765
-0.83577971
-0.86278301
-0.86332392
-0.83624344
-0.80774448
-0.77808368
-0.74751493
-0.71628519
-0.68463719
-0.65278751
-0.62098738
-0.58943789
-0.55827655
-0.52767621
-0.49778241
-0.46872072
-0.44059824
-0.41350285
-0.387503
-0.36265015
-0.33897951
-0.31651268
-0.29524476
-0.2751736
-0.25628625
-0.23856014
-0.22195987
-0.20644071
-0.19195089
-0.17844793
-0.16588213
-0.15420116
-0.14335305
-0.13328647
0.029230345
0.0291052
0.028897963
0.028596718
0.028193499
0.02768832
0.027084876
0.026387209
0.025597649
0.024717584
0.023747794
0.022689239
0.022758322
0.023860097
0.024868751
0.025784034
0.02660513
0.02733065
0.027958286
0.028483722
0.028903118
0.029216412
0.029431929
0.02956208
0.029741777
0.029605958
0.029381433
0.029055297
0.028618859
0.028072253
0.027419542
0.026665273
0.025811667
0.024859489
0.023809662
0.022664073
0.019704167
0.021089325
0.022377576
0.023567265
0.02465707
0.025646384
0.02653459
0.027319872
0.027998906
0.028567655
0.029021936
0.029361678
0.029596099
0.02973872
0.029492643
0.029346428
0.029105255
0.028754924
0.028285408
0.027696651
0.026992971
0.026179061
0.025257835
0.024230841
0.023099227
0.021864145
0.020526916
0.019089112
0.011234073
0.013124722
0.014918445
0.016613063
0.018206891
0.01969818
0.021085186
0.022366334
0.023540242
0.024605798
0.025561859
0.026406757
0.027137277
0.027748437
0.028235441
0.028597867
0.028845659
0.028994128
0.028204832
0.028047838
0.027788741
0.027412052
0.02690681
0.026273029
0.025515504
0.024639417
0.023648058
0.022543184
0.021326028
0.019997796
0.018559988
0.017014221
0.015362304
0.013606045
0.011747279
0.0097879486
-0.0062766099
-0.0036614756
-0.0011396543
0.0012871933
0.0036169123
0.0058481801
0.0079788337
0.01000772
0.011932492
0.01375141
0.015462461
0.017063837
0.0185536
0.019930054
0.021191622
0.022337005
0.023364919
0.024273502
0.025059352
0.025717084
0.026241664
0.026632874
0.026901862
0.027064671
0.02552289
0.025353432
0.025073935
0.024667834
0.024123431
0.023441023
0.022625917
0.021683757
0.020618143
0.019431041
0.018123835
0.016697943
0.015155009
0.013496864
0.011725515
0.0098428781
0.0078510335
0.005751736
0.0035472502
0.0012388401
-0.001171366
-0.0036821615
-0.0062916253
-0.0089981836
-0.011799575
-0.021184048
-0.018093312
-0.015098729
-0.012201431
-0.0094035559
-0.0067063444
-0.0041111872
-0.0016200319
0.0007661369
0.0030451311
0.0052157313
0.0072756459
0.0092230362
0.011055803
0.012771903
0.01436921
0.015845766
0.017199798
0.018429762
0.019534153
0.020510846
0.021356048
0.022063783
0.022628445
0.023049623
0.023339494
0.023515302
0.020974135
0.020791641
0.020490983
0.020054292
0.019468837
0.018735118
0.01785902
0.016846869
0.015702669
0.014428735
0.013026723
0.011498325
0.0098454597
0.008070267
0.0061749861
0.0041617714
0.002032849
-0.00020984122
-0.002564041
-0.0050284356
-0.0076009402
-0.010280594
-0.013065614
-0.015954823
-0.018947388
-0.022041838
-0.025236869
-0.028530856
-0.031922292
-0.035408122
-0.038985341
-0.042650498
-0.13278307
-0.13195278
-0.13075342
-0.12916574
-0.12720414
-0.12489901
-0.12228432
-0.11938901
-0.11623965
-0.11286138
-0.10928128
-0.10552704
-0.10162457
-0.097602064
-0.09348646
-0.089301782
-0.085072267
-0.080819666
-0.076563017
-0.072319777
-0.068105876
-0.063936153
-0.059823605
-0.055778055
-0.05180861
-0.047923104
-0.04412564
-0.040423134
-0.036818562
-0.033314141
-0.02991204
-0.026614188
-0.023420959
-0.02033393
-0.017353616
-0.014481026
-0.011716876
-0.009062859
-0.0065198493
-0.0040899113
-0.0017743981
0.00042435547
0.0025043768
0.0044632498
0.0062986746
0.0080082486
0.0095896472
0.011040778
0.012359779
0.013544814
0.014593367
0.015501183
0.016261594
0.016868407
0.017321005
0.017632674
0.017821993
0.013973806
0.013777411
0.013454383
0.012985394
0.012356615
0.011568763
0.010628367
0.009542445
0.008315537
0.0069503698
0.0054489756
0.0038134213
0.0020460061
0.00014926923
-0.001874235
-0.0040219677
-0.0062913507
-0.0086802873
-0.01118643
-0.01380826
-0.016543809
-0.019392145
-0.02235189
-0.025422445
-0.028602988
-0.031893596
-0.035292768
-0.038800935
-0.042416596
-0.046137986
-0.049964024
-0.053891412
-0.057915056
-0.06203063
-0.066230096
-0.070504889
-0.074845362
-0.079238539
-0.083668553
-0.088119064
-0.092571703
-0.097005858
-0.10139861
-0.1057234
-0.10995429
-0.1140632
-0.11801934
-0.12179355
-0.12535707
-0.12868051
-0.13173664
-0.13449735
-0.1369314
-0.13900296
-0.14067959
-0.14194606
-0.1428222
-0.15364281
-0.15272052
-0.15138659
-0.14962051
-0.1474383
-0.14487445
-0.14196669
-0.13874853
-0.1352496
-0.13149963
-0.12752963
-0.12337037
-0.11905427
-0.11461371
-0.11007866
-0.1054771
-0.1008379
-0.096185454
-0.09154142
-0.08692593
-0.082355019
-0.077845642
-0.073410935
-0.069060198
-0.064801413
-0.060642759
-0.056588434
-0.052641833
-0.048806409
-0.045082165
-0.041470268
-0.037971833
-0.034585613
-0.031312917
-0.028153342
-0.025107224
-0.02217519
-0.019358354
-0.016657661
-0.014075079
-0.011612217
-0.009271516
-0.0070552417
-0.0049661715
-0.003007052
-0.0011806929
0.0005101601
0.0020629585
0.0034754108
0.0047452593
0.0058695419
0.0068434156
0.0076594953
0.0083108555
0.0087967128
0.0091314077
0.0093351393
0.0038022674
0.003590881
0.0032441936
0.0027409628
0.0020663842
0.0012212818
0.00021302098
-0.00095063592
-0.0022645071
-0.0037253728
-0.0053307251
-0.0070780071
-0.0089644052
-0.0109869
-0.013142443
-0.015428013
-0.017840641
-0.020377804
-0.023036987
-0.025816375
-0.028714053
-0.031728951
-0.034860221
-0.038107378
-0.041470284
-0.044949671
-0.048544792
-0.052257243
-0.056086667
-0.060032761
-0.06409594
-0.068273284
-0.072562768
-0.07696019
-0.081458039
-0.086049152
-0.090723867
-0.095468632
-0.10026666
-0.1051016
-0.10995179
-0.11479421
-0.11960307
-0.12434701
-0.12899639
-0.1335189
-0.13788
-0.14204511
-0.1459807
-0.14965419
-0.15303369
-0.15608771
-0.1587808
-0.16107311
-0.162928
-0.16432849
-0.16529685
-0.17783816
-0.17682353
-0.17535827
-0.17341627
-0.17101623
-0.16819646
-0.1649992
-0.1614613
-0.15761659
-0.15349841
-0.14914168
-0.14458211
-0.13985662
-0.13500213
-0.13005321
-0.12504139
-0.1200001
-0.11495696
-0.10993626
-0.1049606
-0.10004735
-0.095213279
-0.090471174
-0.085831989
-0.081301825
-0.076887182
-0.072591976
-0.068417615
-0.0643653
-0.060434947
-0.056625794
-0.052937334
-0.049367746
-0.045917226
-0.042584378
-0.039369488
-0.036272853
-0.033295081
-0.030437359
-0.027701614
-0.025089904
-0.022604882
-0.020249338
-0.018026488
-0.015939611
-0.013992117
-0.012187284
-0.010528257
-0.0090178522
-0.0076588751
-0.0064548235
-0.0054112526
-0.0045363306
-0.0038378918
-0.0033167734
-0.0029578014
-0.0027384283
-0.010410549
-0.010638179
-0.011009759
-0.011549296
-0.012272275
-0.013177817
-0.014257635
-0.015503091
-0.016908249
-0.018469292
-0.020183118
-0.022046585
-0.024056193
-0.026208336
-0.028499295
-0.030925418
-0.033483189
-0.036169483
-0.038981525
-0.04191691
-0.044973756
-0.04815079
-0.051447382
-0.05486325
-0.058398489
-0.062054713
-0.065832362
-0.069733419
-0.073759461
-0.077912007
-0.082191422
-0.086597534
-0.091130193
-0.095785586
-0.10055852
-0.10544348
-0.11042916
-0.11550325
-0.12064888
-0.12584756
-0.13107601
-0.13630875
-0.14151616
-0.14666294
-0.15171569
-0.15663751
-0.16138899
-0.16593071
-0.17022504
-0.17423503
-0.17792553
-0.18126067
-0.18420217
-0.18670584
-0.1887317
-0.19026057
-0.19132488
-0.20580405
-0.2046947
-0.20310179
-0.20099727
-0.19839598
-0.19534034
-0.19187547
-0.1880414
-0.18387572
-0.17941505
-0.17469853
-0.16976568
-0.16465818
-0.15941774
-0.15408377
-0.14869162
-0.14327831
-0.1378755
-0.13250951
-0.12720482
-0.12198047
-0.11685355
-0.1118362
-0.10693926
-0.10216769
-0.097526032
-0.093017451
-0.088640706
-0.084395099
-0.080279715
-0.076292541
-0.072430766
-0.06869218
-0.065075854
-0.061579911
-0.058204206
-0.05494859
-0.051814014
-0.048801814
-0.045913972
-0.04315324
-0.04052253
-0.038025399
-0.035665726
-0.033447496
-0.031374818
-0.029451708
-0.027682026
-0.026069272
-0.024616883
-0.023329027
-0.022212033
-0.021275043
-0.020526847
-0.019968329
-0.019583746
-0.019347651
-0.029693094
-0.029937914
-0.030335859
-0.030913865
-0.031687905
-0.032657115
-0.033812171
-0.035143384
-0.036644008
-0.038309478
-0.040136
-0.042119686
-0.044256286
-0.046541301
-0.048970224
-0.051538605
-0.054242185
-0.05707703
-0.060039931
-0.063127781
-0.066338394
-0.069670185
-0.073122124
-0.076694469
-0.080387663
-0.084203477
-0.088143378
-0.092210092
-0.096407157
-0.10073715
-0.1052019
-0.10980304
-0.11454278
-0.11941878
-0.12442775
-0.12956443
-0.13481913
-0.14018
-0.14562965
-0.15114845
-0.15671092
-0.16228987
-0.16785173
-0.17335805
-0.17877126
-0.18404952
-0.1891488
-0.19402572
-0.19863877
-0.20294675
-0.20691163
-0.21049467
-0.21365397
-0.21634412
-0.21852045
-0.2201773
-0.22132142
-0.23792003
-0.236747
-0.23503552
-0.2327967
-0.23002997
-0.22678084
-0.22309516
-0.21901631
-0.21458389
-0.20983721
-0.20481916
-0.19957292
-0.19414381
-0.18857771
-0.18291889
-0.17720699
-0.17148179
-0.16577872
-0.16012555
-0.15454898
-0.14906897
-0.14370308
-0.13846282
-0.13335683
-0.12839064
-0.12356605
-0.1188841
-0.11434229
-0.10993807
-0.10566845
-0.10152989
-0.097518793
-0.093631625
-0.08986685
-0.086222329
-0.082697588
-0.079292413
-0.076008007
-0.072846063
-0.069809159
-0.066900813
-0.064124554
-0.061484862
-0.058986396
-0.056634051
-0.054432828
-0.052387755
-0.050503492
-0.048784366
-0.047234594
-0.045859121
-0.04466522
-0.0436631
-0.042862667
-0.04226477
-0.041853109
-0.041599248
-0.055226401
-0.055489533
-0.055915244
-0.05653344
-0.057360807
-0.058396458
-0.059629942
-0.061050475
-0.062650228
-0.064423802
-0.066366603
-0.068473751
-0.070740115
-0.073160083
-0.075728215
-0.078439035
-0.081287401
-0.084268311
-0.087377761
-0.090611707
-0.093967332
-0.097442515
-0.101036
-0.10474762
-0.10857814
-0.11252965
-0.11660398
-0.12080501
-0.12513691
-0.12960369
-0.13420973
-0.13895808
-0.14385216
-0.14889194
-0.15407673
-0.15940164
-0.16485852
-0.17043608
-0.1761173
-0.18188163
-0.18770157
-0.1935485
-0.1993854
-0.20517162
-0.21086514
-0.21641954
-0.2217875
-0.22692216
-0.23177856
-0.23631281
-0.24048432
-0.24425274
-0.24757398
-0.25040136
-0.25268983
-0.2544393
-0.25563698
-0.27450609
-0.27328828
-0.2715202
-0.26919924
-0.26633086
-0.26295943
-0.25913249
-0.25489464
-0.2502866
-0.24535005
-0.24012947
-0.23467078
-0.22902272
-0.22323367
-0.2173515
-0.2114203
-0.20548164
-0.19957393
-0.19372683
-0.18796789
-0.1823185
-0.17679504
-0.17140812
-0.1661661
-0.16107228
-0.15612671
-0.15132847
-0.1466733
-0.14215719
-0.13777507
-0.13352209
-0.1293939
-0.12538611
-0.12149674
-0.11772376
-0.11406641
-0.1105252
-0.10710159
-0.10379815
-0.10061818
-0.097566061
-0.094646515
-0.09186507
-0.089227471
-0.086739747
-0.084407989
-0.082238313
-0.080236436
-0.078407761
-0.076757347
-0.075291093
-0.074017358
-0.07294756
-0.072092724
-0.071453874
-0.071013754
-0.070741178
-0.088314756
-0.088596885
-0.089051593
-0.089711425
-0.090594136
-0.091698538
-0.093013047
-0.09452553
-0.096227085
-0.098111278
-0.10017252
-0.10240487
-0.10480203
-0.10735729
-0.11006384
-0.11291499
-0.1159044
-0.11902584
-0.12227386
-0.12564366
-0.1291314
-0.13273382
-0.13644937
-0.14027707
-0.14421739
-0.14827212
-0.15244355
-0.15673633
-0.16115506
-0.16570507
-0.17039223
-0.17522125
-0.18019726
-0.18532217
-0.19059674
-0.19601853
-0.2015798
-0.20727076
-0.21307543
-0.21897152
-0.22493188
-0.23092596
-0.23691423
-0.2428544
-0.24870067
-0.25440424
-0.25991581
-0.26518551
-0.27016652
-0.27481432
-0.27908678
-0.28294314
-0.28633874
-0.28922555
-0.29156007
-0.29332859
-0.29455689
-0.31581127
-0.31458677
-0.31283244
-0.31050638
-0.30762727
-0.30423783
-0.30038644
-0.29611669
-0.29146925
-0.28648562
-0.28121042
-0.27569082
-0.26997702
-0.26411877
-0.25816561
-0.25216429
-0.2461576
-0.24018597
-0.23428057
-0.22846815
-0.2227711
-0.21720516
-0.21177962
-0.20650135
-0.20137183
-0.19638969
-0.19155162
-0.18685221
-0.18228583
-0.17784605
-0.17352725
-0.16932457
-0.16523335
-0.16125131
-0.15737671
-0.15360967
-0.14995141
-0.14640428
-0.14297179
-0.13965875
-0.13647042
-0.13341313
-0.13049364
-0.1277192
-0.12509708
-0.12263493
-0.12034003
-0.11821941
-0.11627953
-0.11452661
-0.11296759
-0.11161203
-0.11047271
-0.10956183
-0.1088808
-0.10841139
-0.1081197
-0.13032617
-0.13062756
-0.13111205
-0.13181427
-0.13275349
-0.13392786
-0.13532454
-0.13693006
-0.13873429
-0.14072966
-0.14290934
-0.14526621
-0.14779255
-0.1504803
-0.15332112
-0.15630695
-0.15942969
-0.16268178
-0.16605612
-0.16954662
-0.17314775
-0.17685533
-0.18066627
-0.18457865
-0.18859214
-0.19270783
-0.1969282
-0.20125742
-0.2057006
-0.21026339
-0.21495284
-0.21977491
-0.22473587
-0.22983978
-0.23508897
-0.24048247
-0.24601466
-0.25167677
-0.25745343
-0.26332206
-0.26925669
-0.27522603
-0.28118907
-0.28710291
-0.29292032
-0.29859189
-0.30406749
-0.30929742
-0.31423499
-0.31883596
-0.32306004
-0.32686719
-0.33021542
-0.33305713
-0.33535077
-0.33707884
-0.33827829
-0.36195712
-0.36079641
-0.3591145
-0.35688032
-0.35410964
-0.3508421
-0.3471234
-0.34299374
-0.33849153
-0.33365549
-0.32852857
-0.32315621
-0.31758715
-0.31187092
-0.30605637
-0.30019049
-0.29431585
-0.28847318
-0.28269359
-0.27700273
-0.27142274
-0.26596801
-0.26064692
-0.25546412
-0.25041988
-0.24551103
-0.24073283
-0.23607845
-0.23154149
-0.22711485
-0.22279289
-0.21857035
-0.21444352
-0.21041042
-0.20647029
-0.20262438
-0.19887502
-0.19522635
-0.19168328
-0.18825226
-0.18494028
-0.18175536
-0.17870586
-0.17580077
-0.17304911
-0.17045992
-0.16804215
-0.16580423
-0.16375399
-0.1618989
-0.16024716
-0.15880953
-0.15760027
-0.15663278
-0.15590942
-0.15540989
-0.15509881
-0.182591
-0.18291137
-0.18342571
-0.18417022
-0.18516566
-0.18640936
-0.18788738
-0.18958467
-0.19148976
-0.19359376
-0.19588856
-0.19836558
-0.2010156
-0.20382878
-0.20679528
-0.20990499
-0.21314802
-0.2165151
-0.21999723
-0.22358635
-0.22727504
-0.23105738
-0.23492827
-0.23888447
-0.24292405
-0.24704686
-0.25125425
-0.25554939
-0.25993728
-0.26442342
-0.26901475
-0.27371792
-0.27854008
-0.2834865
-0.2885611
-0.2937642
-0.29909223
-0.30453744
-0.31008619
-0.31571736
-0.32140602
-0.32712126
-0.33282368
-0.33847134
-0.34401839
-0.34941731
-0.35461992
-0.35957925
-0.36425179
-0.36859684
-0.37257783
-0.37615871
-0.3793018
-0.3819642
-0.38410901
-0.38572248
-0.38683403
-0.41287045
-0.41182341
-0.41030335
-0.40828086
-0.40576757
-0.4027967
-0.39940769
-0.39563481
-0.39151119
-0.38707024
-0.38234968
-0.37739033
-0.37223638
-0.36693381
-0.36152787
-0.35606247
-0.35057851
-0.34511317
-0.33969673
-0.33435257
-0.3291005
-0.32395375
-0.3189192
-0.31399927
-0.30919288
-0.30449581
-0.2999022
-0.29540495
-0.29099728
-0.28667279
-0.28242596
-0.27825296
-0.27415104
-0.27012003
-0.26616075
-0.26227636
-0.25847106
-0.25475117
-0.25112366
-0.24759717
-0.24418074
-0.24088461
-0.23771904
-0.23469499
-0.23182352
-0.22911552
-0.22658162
-0.22423199
-0.22207588
-0.22012222
-0.21838052
-0.21686306
-0.21558563
-0.21456286
-0.21379736
-0.21326828
-0.21293907
-0.2462573
-0.24659525
-0.24713866
-0.24792441
-0.24897361
-0.25028362
-0.25183915
-0.25362357
-0.25562385
-0.25782963
-0.26023134
-0.26281887
-0.26558121
-0.2685068
-0.2715836
-0.27479963
-0.27814273
-0.28160152
-0.2851645
-0.28882144
-0.2925624
-0.29637914
-0.30026409
-0.30421161
-0.30821753
-0.31227957
-0.31639708
-0.32057156
-0.32480573
-0.32910459
-0.33347391
-0.33792014
-0.34245029
-0.34707029
-0.35178483
-0.3565955
-0.36150091
-0.36649516
-0.37156623
-0.37669547
-0.38186158
-0.3870356
-0.39218316
-0.3972655
-0.40224134
-0.40706874
-0.41170482
-0.41610928
-0.42024485
-0.42407769
-0.42757831
-0.43071735
-0.43346457
-0.43578505
-0.43764978
-0.43904986
-0.44001421
-0.46819705
-0.46733438
-0.46608232
-0.4644127
-0.46233131
-0.45986209
-0.45703462
-0.45387434
-0.45040598
-0.44665442
-0.4426488
-0.43842163
-0.43400842
-0.42944766
-0.42477721
-0.42003458
-0.41525531
-0.41047063
-0.40570704
-0.40098346
-0.39631714
-0.39171817
-0.38719126
-0.38273716
-0.37835356
-0.37403571
-0.36977762
-0.36557307
-0.36141592
-0.35730138
-0.35322547
-0.34918681
-0.34518531
-0.34122302
-0.33730356
-0.33343273
-0.32961755
-0.32586713
-0.32219115
-0.31860094
-0.31510809
-0.31172539
-0.30846557
-0.30534192
-0.30236748
-0.29955543
-0.29691835
-0.29446814
-0.29221582
-0.29017169
-0.28834694
-0.28675527
-0.28541424
-0.28433979
-0.28353494
-0.2829778
-0.28263123
-0.32211132
-0.32246573
-0.32303614
-0.32385909
-0.32495711
-0.32632704
-0.32795225
-0.32981423
-0.33189859
-0.33419341
-0.33668754
-0.33936897
-0.34222491
-0.3452416
-0.34840495
-0.35170061
-0.35511412
-0.35863125
-0.36223791
-0.36592103
-0.36966769
-0.37346659
-0.37730698
-0.38118026
-0.38507878
-0.38899724
-0.39293183
-0.3968808
-0.40084407
-0.40482399
-0.40882443
-0.41285048
-0.41690739
-0.42100097
-0.42513589
-0.42931489
-0.4335381
-0.43780187
-0.44209833
-0.44641268
-0.4507284
-0.45502238
-0.45926745
-0.46343237
-0.4674845
-0.47139097
-0.47511904
-0.4786389
-0.48192392
-0.4849506
-0.48769941
-0.49015104
-0.49228572
-0.49407983
-0.49551543
-0.49659022
-0.4973312
-0.52730961
-0.52671087
-0.52584321
-0.52468162
-0.52322397
-0.52148189
-0.5194721
-0.51720799
-0.51470267
-0.51196944
-0.50902518
-0.50588966
-0.50258613
-0.49914025
-0.4955787
-0.49192815
-0.48821443
-0.48445943
-0.48068228
-0.47689637
-0.47311335
-0.46933917
-0.4655756
-0.46182193
-0.45807495
-0.45433031
-0.45058283
-0.44682819
-0.44306296
-0.43928477
-0.43549302
-0.43168982
-0.42787885
-0.42406614
-0.420259
-0.41646714
-0.41270094
-0.40897297
-0.40529635
-0.40168562
-0.39815557
-0.39472178
-0.39139974
-0.3882053
-0.38515415
-0.38226149
-0.37954209
-0.37700986
-0.37467762
-0.37255754
-0.37066225
-0.36900686
-0.36761084
-0.36649145
-0.36565188
-0.36506915
-0.36470773
-0.41038503
-0.4107524
-0.41134586
-0.41220014
-0.41333828
-0.41475687
-0.41643828
-0.41836204
-0.42051232
-0.42287567
-0.42543897
-0.42818857
-0.43110939
-0.43418567
-0.43740095
-0.4407381
-0.44418008
-0.44770992
-0.45131042
-0.45496505
-0.4586575
-0.46237268
-0.46609628
-0.46981535
-0.47351828
-0.47719515
-0.48083779
-0.48444004
-0.48799762
-0.49150871
-0.49497387
-0.49839437
-0.50177346
-0.50511502
-0.50842304
-0.51170093
-0.51495039
-0.51817146
-0.52136044
-0.52450921
-0.52760865
-0.53064446
-0.53360087
-0.53645861
-0.53919823
-0.5418005
-0.54424787
-0.54652499
-0.54861971
-0.55052295
-0.55222823
-0.55372966
-0.55502066
-0.55609247
-0.55694013
-0.5575708
-0.55800677
-0.5892775
-0.58902509
-0.58866125
-0.58816657
-0.58752939
-0.58674716
-0.58582003
-0.58474696
-0.58352604
-0.58215616
-0.58063786
-0.57897451
-0.57717232
-0.57523996
-0.57318759
-0.5710261
-0.56876719
-0.56641947
-0.56399143
-0.56148742
-0.55891111
-0.55626348
-0.55354272
-0.55074611
-0.54787018
-0.5449115
-0.54186772
-0.53873734
-0.53552144
-0.53222178
-0.52884281
-0.52539164
-0.52187715
-0.51830985
-0.51470264
-0.51106926
-0.50742525
-0.50378721
-0.50017216
-0.4965982
-0.49308382
-0.48964766
-0.4863084
-0.48308444
-0.47999415
-0.47705531
-0.47428488
-0.47169887
-0.46931205
-0.46713825
-0.46519184
-0.46348959
-0.46205262
-0.46089895
-0.4600324
-0.45942975
-0.45905776
-0.51058838
-0.51096356
-0.51157358
-0.51244947
-0.51361461
-0.51506497
-0.51678202
-0.51874404
-0.5209333
-0.52333463
-0.52593338
-0.52871363
-0.53165853
-0.53474978
-0.53796837
-0.54129471
-0.5447088
-0.54819036
-0.55171921
-0.55527497
-0.55883758
-0.56238787
-0.56590684
-0.56937643
-0.57278038
-0.5761027
-0.57933003
-0.58245039
-0.58545362
-0.58833222
-0.5910815
-0.59369781
-0.59618041
-0.59852994
-0.60074892
-0.60284085
-0.60480927
-0.60665814
-0.60838959
-0.6100047
-0.61150488
-0.61288852
-0.61415485
-0.61530137
-0.61632683
-0.61723138
-0.61801653
-0.61868606
-0.6192466
-0.61970641
-0.62007391
-0.6203593
-0.62057332
-0.62072557
-0.6208273
-0.6208956
-0.62094679
-0.65287663
-0.65304358
-0.65329326
-0.65361346
-0.65398228
-0.65437982
-0.65478791
-0.65519135
-0.65557036
-0.65590429
-0.65617389
-0.65635968
-0.65644746
-0.65642522
-0.65628198
-0.65600819
-0.65559559
-0.65503641
-0.65432432
-0.65345104
-0.65241062
-0.65119741
-0.6498049
-0.6482289
-0.64646599
-0.64451491
-0.64237682
-0.64005541
-0.63755695
-0.63488971
-0.63206452
-0.62909492
-0.62599645
-0.62278571
-0.6194815
-0.6161033
-0.61267158
-0.6092078
-0.60573352
-0.60227073
-0.59884155
-0.59546807
-0.592172
-0.58897501
-0.58589784
-0.58296089
-0.58018361
-0.57758391
-0.57517863
-0.57298341
-0.57101414
-0.56928939
-0.56783152
-0.56665969
-0.5657779
-0.56516287
-0.5647861
-0.62140741
-0.62178393
-0.62240105
-0.62328463
-0.62445759
-0.62591593
-0.62764004
-0.62960684
-0.63179704
-0.6341939
-0.63678091
-0.63954028
-0.64245305
-0.64549864
-0.64865538
-0.65190124
-0.65521307
-0.65856759
-0.66194094
-0.66530926
-0.66864844
-0.67193445
-0.67514358
-0.67825236
-0.68123838
-0.68407974
-0.68675629
-0.68924855
-0.69153974
-0.69361478
-0.69546201
-0.69707175
-0.69843722
-0.69955491
-0.70042477
-0.7010498
-0.70143481
-0.701589
-0.70152168
-0.70124464
-0.70077326
-0.70012173
-0.69930704
-0.69835043
-0.6972742
-0.69610264
-0.69486304
-0.69358435
-0.69229257
-0.69101654
-0.68978666
-0.68862954
-0.68757182
-0.6866406
-0.68586509
-0.68527131
-0.68486728
-0.71666537
-0.71732225
-0.71828606
-0.7195531
-0.72109213
-0.72286377
-0.72482901
-0.7269491
-0.72918723
-0.73150609
-0.73386675
-0.73623065
-0.73855618
-0.74080266
-0.74293267
-0.74491197
-0.74670985
-0.74829613
-0.74964495
-0.7507324
-0.7515399
-0.75205429
-0.75226388
-0.75216264
-0.75174859
-0.75102355
-0.74999341
-0.74866699
-0.74705842
-0.74518393
-0.74306293
-0.74071621
-0.73816676
-0.73543871
-0.73255734
-0.72954805
-0.72643721
-0.72325101
-0.72001588
-0.71675799
-0.71350305
-0.71027662
-0.70710348
-0.70400809
-0.7010141
-0.69814403
-0.69541968
-0.69286097
-0.69048676
-0.68831421
-0.68636108
-0.68464728
-0.68319666
-0.68202901
-0.68114841
-0.68053259
-0.68015833
-0.74069987
-0.74106966
-0.74168029
-0.74255247
-0.74370737
-0.74514093
-0.74683333
-0.74875996
-0.75090027
-0.75323567
-0.75574826
-0.75841818
-0.76122461
-0.76414459
-0.76715471
-0.77022973
-0.77334392
-0.77646969
-0.77958039
-0.78264921
-0.78564799
-0.78854821
-0.79132111
-0.79393759
-0.79636905
-0.79858677
-0.8005628
-0.80227054
-0.80368504
-0.80478287
-0.80554498
-0.80595352
-0.80599482
-0.80565942
-0.80494311
-0.80384682
-0.80237764
-0.80054968
-0.79838024
-0.79589515
-0.79312657
-0.7901105
-0.78688952
-0.78350833
-0.78001452
-0.77645941
-0.77289573
-0.76937608
-0.76595666
-0.76268934
-0.75962354
-0.75680638
-0.75428483
-0.75210843
-0.75032649
-0.74897538
-0.74805313
-0.77878588
-0.77998376
-0.78173767
-0.78405521
-0.7868952
-0.79019799
-0.79390337
-0.79795419
-0.80229357
-0.80686145
-0.81159422
-0.81642416
-0.82128308
-0.82610175
-0.83081286
-0.8353529
-0.83965983
-0.84367988
-0.84736783
-0.85068335
-0.85359346
-0.85607605
-0.85811451
-0.8597011
-0.86083585
-0.86152527
-0.86178209
-0.86162377
-0.86107229
-0.86015146
-0.85888903
-0.85731454
-0.85545844
-0.85335275
-0.85102932
-0.84852026
-0.84585728
-0.84307199
-0.84019511
-0.83725731
-0.83428854
-0.83131799
-0.82837195
-0.82547686
-0.82265874
-0.8199422
-0.81735094
-0.81490691
-0.81263064
-0.81054099
-0.80865698
-0.807
-0.80559506
-0.80446251
-0.80360574
-0.80300545
-0.80264332
-0.86556813
-0.86592086
-0.86650762
-0.86734433
-0.86844754
-0.8698155
-0.87142671
-0.8732561
-0.87528155
-0.87748365
-0.87984251
-0.88233706
-0.88494421
-0.8876396
-0.89039734
-0.89319065
-0.89599201
-0.89877357
-0.90150484
-0.90415384
-0.90668838
-0.90907593
-0.91128217
-0.91327281
-0.91501261
-0.91646651
-0.91759841
-0.91837397
-0.91875918
-0.91872085
-0.91822948
-0.91725847
-0.91578779
-0.91380173
-0.91129132
-0.90825507
-0.90470164
-0.90065008
-0.89612736
-0.89117373
-0.88583894
-0.88018055
-0.87426784
-0.86817627
-0.86198463
-0.85577632
-0.84963622
-0.84364759
-0.83789191
-0.83244509
-0.8273782
-0.822758
-0.81865167
-0.81512994
-0.81226256
-0.81009526
-0.8086147
-0.83728408
-0.83905105
-0.84163708
-0.84506208
-0.84927568
-0.85419851
-0.85974921
-0.86585076
-0.87242663
-0.87939507
-0.88666791
-0.89415013
-0.90174301
-0.90934535
-0.91685738
-0.92418329
-0.93123201
-0.93792038
-0.94417839
-0.94994679
-0.955178
-0.95984014
-0.96391193
-0.967384
-0.97025935
-0.97254974
-0.97427492
-0.9754598
-0.97613564
-0.9763355
-0.97609673
-0.97545804
-0.97445743
-0.97313441
-0.9715276
-0.9696749
-0.96761307
-0.96537843
-0.96300519
-0.96052675
-0.95797518
-0.955381
-0.95277582
-0.95018873
-0.94764759
-0.94517915
-0.94280866
-0.94056008
-0.93845508
-0.93651435
-0.93475797
-0.93320867
-0.93189287
-0.93082774
-0.93001877
-0.92945077
-0.92911089
-0.99277224
-0.99309407
-0.99363543
-0.99440528
-0.99541544
-0.99666363
-0.99812964
-0.99978832
-1.0016164
-1.0035932
-1.0056976
-1.007907
-1.010197
-1.0125417
-1.0149136
-1.0172841
-1.0196236
-1.0219009
-1.0240837
-1.0261383
-1.0280298
-1.0297223
-1.0311777
-1.032357
-1.0332198
-1.0337243
-1.0338279
-1.0334888
-1.0326641
-0.95814658
-0.94919169
-0.94015854
-0.93116365
-0.9223245
-0.91375503
-0.90556388
-0.89785125
-0.8907094
-0.88422447
-0.87848285
-0.87357621
-0.86959313
-0.86658851
-0.86453521
-0.99291988
-0.92897662
-0.86516797
-0.80199227
-0.73981402
-0.67906054
-0.62012002
-0.56333475
-0.50900014
-0.45736121
-0.408609
-0.36288062
-0.32026009
-0.28078109
-0.24443098
-0.21115601
-0.18086754
-0.15344793
-0.12875714
-0.10663906
-0.086926734
-0.069447198
-0.054026074
-0.040490898
-0.028673676
-0.018413184
-0.0095564692
-0.0019598746
0.0045103619
0.0099776914
0.014555798
0.018348507
0.021449967
0.023944916
0.025910462
0.027414237
0.028520773
0.02928312
0.029762617
0.029975206
0.029952909
0.029753224
0.029403285
0.029656681
0.030040475
0.030277039
0.030342217
0.030187722
0.029764402
0.029058494
0.02801644
0.026586005
0.02470346
0.022300961
0.019301879
0.015621902
0.011166988
0.0058338533
-0.00049068246
-0.0079304057
-0.016619527
-0.026702548
-0.03833376
-0.051676335
-0.066900851
-0.084183006
-0.10370145
-0.12563411
-0.15015372
-0.17742266
-0.20758769
-0.24077372
-0.27707658
-0.31655634
-0.35923124
-0.40507179
-0.45399656
-0.50586899
-0.56049694
-0.61763208
-0.67697755
-0.73818365
-0.80085445
-0.86455386
-0.92891273
-0.99343164
-0.9943762
-0.92887428
-0.86356909
-0.79896871
-0.73545034
-0.67346717
-0.61342484
-0.55568067
-0.50054268
-0.44826555
-0.3990418
-0.35300673
-0.31023755
-0.27075627
-0.23453484
-0.20150181
-0.17154892
-0.14453902
-0.12031373
-0.098699415
-0.079513392
-0.062569277
-0.047681253
-0.03466781
-0.023354119
-0.013573722
-0.0051701318
0.0020025133
0.008078749
0.013182999
0.017428338
0.020917482
0.023743427
0.025989755
0.027732017
0.029037091
0.029966166
0.030569382
0.030894957
0.030966811
0.030828217
0.030525663
0.030084611
0.030714948
0.031242725
0.031642186
0.031886452
0.03193425
0.031748814
0.03129914
0.030540164
0.029423221
0.027890064
0.025875803
0.023306854
0.02010115
0.016167034
0.011402758
0.0056957594
-0.0010779849
-0.009054254
-0.018380892
-0.02921759
-0.041735402
-0.056115752
-0.072548875
-0.091231179
-0.11236159
-0.13613776
-0.16275017
-0.19237583
-0.22517079
-0.261262
-0.30073916
-0.34364595
-0.38997174
-0.43964639
-0.49253608
-0.54844262
-0.60710436
-0.66820048
-0.73135824
-0.79615661
-0.86211702
-0.92884757
-0.9958292
-0.99777871
-0.92875695
-0.86005749
-0.79221382
-0.72564442
-0.66085912
-0.59830248
-0.53836994
-0.48140128
-0.42767124
-0.37738392
-0.33067077
-0.28759168
-0.24813981
-0.2122494
-0.17980517
-0.15065253
-0.12460798
-0.10146839
-0.081019389
-0.06304261
-0.047321333
-0.033644864
-0.021811715
-0.011631934
-0.0029283685
0.0044626996
0.010691392
0.015894382
0.020195485
0.023706308
0.026526988
0.02874708
0.030446286
0.031695467
0.032556892
0.033085763
0.033328998
0.033328959
0.033118919
0.032732861
0.032205944
0.031563386
0.032618867
0.033403051
0.034089245
0.034653774
0.035066508
0.035296494
0.035310836
0.035070119
0.034529906
0.033638394
0.032336616
0.030557153
0.028223534
0.025249143
0.021536278
0.016975083
0.011442525
0.0048013111
-0.0031009633
-0.012432508
-0.023377616
-0.036136633
-0.050925042
-0.067971687
-0.087515879
-0.10980313
-0.13507914
-0.16358197
-0.19553244
-0.23112294
-0.27050465
-0.31377486
-0.36096472
-0.41202883
-0.4668385
-0.52518098
-0.5867627
-0.65121701
-0.71811611
-0.78698109
-0.85726927
-0.92851444
-1.0001642
-1.0029137
-0.92802687
-0.85363588
-0.78032022
-0.7086066
-0.63907957
-0.57226469
-0.50863403
-0.44859158
-0.39245782
-0.34045817
-0.29271781
-0.24926225
-0.2100264
-0.17486976
-0.14359257
-0.11595226
-0.0916791
-0.070490097
-0.052099833
-0.036229172
-0.022611231
-0.010995489
-0.0011502133
0.0071365347