/*--------------------------------*- C++ -*----------------------------------*\
| =========                 |                                                 |
| \\      /  F ield         | OpenFOAM: The Open Source CFD Toolbox           |
|  \\    /   O peration     | Version:  v2012                                 |
|   \\  /    A nd           | Website:  www.openfoam.com                      |
|    \\/     M anipulation  |                                                 |
\*---------------------------------------------------------------------------*/
FoamFile
{
    version     2.0;
    format      ascii;
    class       surfaceScalarField;
    location    "283";
    object      phi;
}
// * * * * * * * * * * * * * * * * * * * * * * * * * * * * * * * * * * * * * //

dimensions      [0 3 -1 0 0 0 0];
oriented        oriented;


internalField   nonuniform List<scalar> 
221674
(
0.0023109981
-9.2808764e-07
6.231118e-06
0.0023056681
-9.0698921e-07
6.2369676e-06
0.0023003525
-8.8623326e-07
6.2019088e-06
0.0022950911
-8.6578377e-07
6.1271708e-06
0.0022899203
-8.441569e-07
6.0149742e-06
0.0022848745
-8.2297451e-07
5.8687647e-06
0.0022799864
-8.0308204e-07
5.6911535e-06
0.0022752837
-7.8287359e-07
5.4856259e-06
0.0022707896
-7.6219714e-07
5.2562737e-06
0.0022665245
-7.4251286e-07
5.0076292e-06
0.0022625042
-7.2403185e-07
4.7442497e-06
0.0022587398
-7.0589571e-07
4.4703693e-06
0.0022552365
-6.876728e-07
4.1909395e-06
0.0022519967
-6.6977898e-07
3.9095486e-06
0.002249019
-6.5194888e-07
3.629717e-06
0.0022462986
-6.3560153e-07
3.3559503e-06
0.0022438285
-6.1983607e-07
3.089918e-06
0.0022415965
-6.0251858e-07
2.8345994e-06
0.0022395901
-5.8656874e-07
2.5929043e-06
0.0022377989
-5.7207178e-07
2.3632678e-06
0.0022362085
-5.560765e-07
2.1464544e-06
0.002234804
-5.4172046e-07
1.9462189e-06
0.0022335707
-5.2816923e-07
1.7615182e-06
0.002232493
-5.1265482e-07
1.5903393e-06
0.0022315571
-4.9759224e-07
1.433553e-06
0.0022307503
-4.8448476e-07
1.2912208e-06
0.002230061
-4.727882e-07
1.162121e-06
0.0022294765
-4.6006371e-07
1.0445842e-06
0.0022289838
-4.4639812e-07
9.3905588e-07
0.0022285726
-4.3338787e-07
8.4459442e-07
0.0022282347
-4.2134851e-07
7.5920214e-07
0.0022279623
-4.1031954e-07
6.8279675e-07
0.002227747
-3.9954376e-07
6.1478264e-07
0.0022275806
-3.878687e-07
5.5427858e-07
0.0022274568
-3.7653625e-07
5.0033808e-07
0.0022273712
-3.6610562e-07
4.5168423e-07
0.0022273185
-3.5594786e-07
4.0867615e-07
0.002227294
-3.4614953e-07
3.706847e-07
0.0022272926
-3.3777883e-07
3.3916916e-07
0.0022273102
-3.2873676e-07
3.1109408e-07
0.0022273444
-3.1958388e-07
2.8538811e-07
0.0022273927
-3.1071448e-07
2.6238914e-07
-3.02253e-07
2.4209208e-07
-0.002206214
1.1315325e-06
-2.9889845e-07
-0.0022071117
1.1681507e-06
-2.7044175e-07
-0.0022080793
1.2064803e-06
-2.3892077e-07
-0.0022091234
1.2474673e-06
-2.0340066e-07
-0.002210248
1.2892686e-06
-1.6466951e-07
-0.0022114556
1.3306902e-06
-1.2302661e-07
-0.0022127493
1.3722872e-06
-7.8638717e-08
-0.0022141342
1.4184213e-06
-3.3537463e-08
-0.0022156164
1.4695322e-06
1.2669793e-08
-0.0022171976
1.5206621e-06
6.0578365e-08
-0.0022188797
1.5743985e-06
1.0772595e-07
-0.0022206666
1.6322828e-06
1.545965e-07
-0.002222559
1.6893892e-06
2.0302893e-07
-0.0022245551
1.7431258e-06
2.5290533e-07
-0.0022266519
1.7934386e-06
3.0343849e-07
-0.0022288471
1.8409487e-06
3.5420314e-07
-0.0022311389
1.8893029e-06
4.0250731e-07
-0.0022335219
1.9350532e-06
4.4796996e-07
-0.0022359875
1.9742183e-06
4.9134566e-07
-0.0022385271
2.0091727e-06
5.3039185e-07
-0.0022411307
2.0396067e-06
5.6403636e-07
-0.0022437869
2.064267e-06
5.9196589e-07
-0.0022464818
2.0815509e-06
6.1330249e-07
-0.0022491998
2.0895276e-06
6.2849304e-07
-0.0022519252
2.0896154e-06
6.3579705e-07
-0.0022546405
2.0826664e-06
6.3263565e-07
-0.0022573265
2.0649254e-06
6.2101896e-07
-0.0022599621
2.0344211e-06
6.0121929e-07
-0.0022625269
1.9939852e-06
5.7079075e-07
-0.0022650016
1.9439636e-06
5.3078116e-07
-0.0022673655
1.8811123e-06
4.8279285e-07
1.8052099e-06
4.2376228e-07
0.0023009117
3.5635671e-06
5.1319366e-07
0.0022985054
3.7100715e-06
5.772989e-07
0.0022959857
3.8326523e-06
6.3108827e-07
0.0022933724
3.9315658e-06
6.7566287e-07
0.0022906879
4.0103079e-06
7.0865098e-07
0.0022879547
4.0686872e-06
7.2942888e-07
0.0022851913
4.1038179e-06
7.422174e-07
0.002282416
4.1188677e-06
7.4609125e-07
0.0022796494
4.1179469e-06
7.3815836e-07
0.0022769084
4.1009678e-06
7.2154992e-07
0.0022742068
4.0673946e-06
6.9852959e-07
0.0022715582
4.0196813e-06
6.6849428e-07
0.0022689746
3.9602607e-06
6.3251588e-07
0.0022664683
3.8909663e-06
5.8957201e-07
0.002264049
3.8128004e-06
5.4150389e-07
0.0022617189
3.7254767e-06
4.9391056e-07
0.0022594855
3.6322547e-06
4.4209196e-07
0.0022573563
3.5370025e-06
3.8570747e-07
0.0022553313
3.4382185e-06
3.298457e-07
0.0022534123
3.3351875e-06
2.7324593e-07
0.0022515977
3.2276521e-06
2.1919733e-07
0.002249886
3.1189608e-06
1.6717018e-07
0.0022482805
3.0136729e-06
1.1250453e-07
0.0022467788
2.9125804e-06
5.8679807e-08
0.0022453711
2.8146253e-06
1.1465275e-08
0.0022440561
2.7230459e-06
-3.5743382e-08
0.0022428324
2.6371506e-06
-8.2839852e-08
0.0022416936
2.5537118e-06
-1.2558595e-07
0.0022406355
2.4711781e-06
-1.6560407e-07
0.0022396535
2.391025e-06
-2.0257103e-07
0.0022387436
2.3153332e-06
-2.3730857e-07
2.2432792e-06
-2.6900289e-07
-6.0097692e-07
-0.0022602326
2.3717979e-07
-9.1845108e-07
-0.0023727878
2.526097e-07
-1.2607347e-06
-0.0025104948
2.7347665e-07
-1.6185918e-06
-0.0026197186
2.8643058e-07
-1.982044e-06
-0.0026797651
2.9134864e-07
-2.3458646e-06
-0.0027008743
2.9271025e-07
-2.7078324e-06
-0.0027022494
2.9299764e-07
-3.067004e-06
-0.0026975001
2.9329754e-07
-3.4239026e-06
-0.0026927171
2.9447733e-07
-3.7796889e-06
-0.0026894572
2.9729764e-07
-4.1359281e-06
-0.0026874796
3.0225851e-07
-0.0026862211
3.0959524e-07
4.2522723e-06
-0.0026861867
3.3361068e-07
3.8862351e-06
-0.0026874398
3.2624554e-07
3.520489e-06
-0.0026894127
3.2127061e-07
3.1535273e-06
-0.0026926686
3.1848029e-07
2.7840705e-06
-0.0026974481
3.1747172e-07
2.4119228e-06
-0.0027021948
3.1756087e-07
2.0379597e-06
-0.0027008178
3.1752338e-07
1.6643854e-06
-0.0026797076
3.1600956e-07
1.2964746e-06
-0.0026196612
3.1055744e-07
9.4450948e-07
-0.0025104394
2.9655303e-07
6.1791021e-07
-0.0023727353
2.7416919e-07
-0.0022601829
2.5749692e-07
-6.3561893e-07
-0.0022601476
2.8073457e-07
-9.7170076e-07
-0.0023726981
2.9878726e-07
-1.3338667e-06
-0.0025104001
3.2283989e-07
-1.712254e-06
-0.0026196208
3.3803337e-07
-2.0964124e-06
-0.0026796675
3.440961e-07
-2.4810247e-06
-0.0027007792
3.459453e-07
-2.8635827e-06
-0.0027021586
3.4639425e-07
-3.2432464e-06
-0.0026974151
3.4669094e-07
-3.6204694e-06
-0.0026926392
3.4784708e-07
-3.9963339e-06
-0.0026893875
3.5068362e-07
-4.3723186e-06
-0.0026874195
3.5565712e-07
-0.0026861719
3.6305005e-07
5.2764451e-06
-0.0026844482
4.1881571e-07
4.8841023e-06
-0.0026852575
4.062458e-07
4.4957718e-06
-0.0026861797
3.9618887e-07
4.1094854e-06
-0.0026874219
3.8867904e-07
3.7233892e-06
-0.002689385
3.836197e-07
3.3358123e-06
-0.0026926324
3.8079545e-07
2.9456384e-06
-0.0026974046
3.7966953e-07
2.5524458e-06
-0.0027021447
3.7922375e-07
2.1570666e-06
-0.0027007621
3.7837072e-07
1.7619327e-06
-0.0026796483
3.7592599e-07
1.3727112e-06
-0.0026196007
3.6907287e-07
9.9992562e-07
-0.0025103799
3.5257509e-07
6.5389774e-07
-0.0023726787
3.266727e-07
-0.0022601294
3.0695891e-07
-6.7251185e-07
-0.0022601306
3.3590467e-07
-1.028684e-06
-0.0023726802
3.5769327e-07
-1.4122023e-06
-0.0025103821
3.8578029e-07
-1.8125575e-06
-0.0026196041
4.0373036e-07
-2.218614e-06
-0.0026796535
4.1124809e-07
-2.6248686e-06
-0.0027007697
4.1380492e-07
-3.0290696e-06
-0.0027021549
4.1441128e-07
-3.4304192e-06
-0.0026974179
4.1459014e-07
-3.8290065e-06
-0.0026926495
4.1569503e-07
-4.2260173e-06
-0.0026894066
4.1859945e-07
-4.6231337e-06
-0.0026874485
4.2373106e-07
-5.0223659e-06
-0.0026862118
4.3130628e-07
-5.4260041e-06
-0.0026852953
4.4150908e-07
-0.002684485
4.5445153e-07
7.3223897e-06
-0.0026813508
5.744511e-07
6.8701479e-06
-0.0026821893
5.5038833e-07
6.4307468e-06
-0.0026830034
5.2903314e-07
6.001432e-06
-0.0026838004
5.1029052e-07
5.5802571e-06
-0.0026845581
4.9432625e-07
5.1655234e-06
-0.0026853619
4.8131162e-07
4.7551482e-06
-0.0026862725
4.7110658e-07
4.3468809e-06
-0.0026875037
4.6349487e-07
3.9386132e-06
-0.0026894567
4.5832218e-07
3.5285396e-06
-0.0026926948
4.5537503e-07
3.1154317e-06
-0.002697459
4.5425426e-07
2.6990187e-06
-0.0027021926
4.5414274e-07
2.2806427e-06
-0.002700805
4.5368368e-07
1.8626451e-06
-0.0026796865
4.5100811e-07
1.4505695e-06
-0.0026196346
4.4262352e-07
1.0558374e-06
-0.0025104102
4.2283451e-07
6.896027e-07
-0.0023727062
3.9216896e-07
-0.0022601552
3.6809371e-07
-7.0957996e-07
-0.0022602086
4.0697361e-07
-1.086591e-06
-0.0023727623
4.3313733e-07
-1.4929964e-06
-0.0025104699
4.6612358e-07
-1.9171225e-06
-0.0026196981
4.8758325e-07
-2.3471868e-06
-0.0026797533
4.9689747e-07
-2.7777203e-06
-0.0027008745
5.000503e-07
-3.2060286e-06
-0.0027022652
5.00874e-07
-3.630974e-06
-0.0026975354
5.0129774e-07
-4.0527354e-06
-0.0026927756
5.0256407e-07
-4.4725588e-06
-0.0026895424
5.055555e-07
-4.8923273e-06
-0.0026875947
5.1075974e-07
-5.3141135e-06
-0.0026863691
5.183934e-07
-5.7397964e-06
-0.0026854647
5.2851082e-07
-6.1641456e-06
-0.0026846751
5.4130168e-07
-6.6130662e-06
-0.0026839083
5.5683327e-07
-7.0651847e-06
-0.0026831262
5.7500092e-07
-7.5299419e-06
-0.0026823207
5.9610994e-07
-0.0026814986
6.2026061e-07
1.1001869e-05
-0.0026766678
8.6709768e-07
1.0402585e-05
-0.0026775199
8.3103321e-07
9.8352825e-06
-0.0026783746
7.9604825e-07
9.2756944e-06
-0.0026792064
7.6253395e-07
8.7460603e-06
-0.0026800367
7.3065391e-07
8.2443445e-06
-0.0026808607
7.00995e-07
7.7443407e-06
-0.0026816728
6.7411139e-07
7.2670491e-06
-0.0026824933
6.4990398e-07
6.8029664e-06
-0.0026832907
6.2859324e-07
6.3500657e-06
-0.0026840657
6.10285e-07
5.9061911e-06
-0.0026848259
5.9473404e-07
5.46861e-06
-0.002685609
5.8187798e-07
5.0349587e-06
-0.0026865072
5.7168113e-07
4.6032614e-06
-0.002687727
5.6403836e-07
4.1713657e-06
-0.0026896694
5.5885782e-07
3.7375369e-06
-0.0026928977
5.558871e-07
3.3005113e-06
-0.0026976529
5.54559e-07
2.8598843e-06
-0.0027023785
5.5393138e-07
2.4168745e-06
-0.0027009842
5.5268722e-07
1.9741802e-06
-0.0026798596
5.4891198e-07
1.5375969e-06
-0.0026198
5.3854026e-07
1.1188924e-06
-0.0025105663
5.1509347e-07
7.3015982e-07
-0.0023728528
4.7927369e-07
-0.0022602951
4.5059424e-07
-7.5153382e-07
-0.0022604201
4.9995133e-07
-1.1522479e-06
-0.0023729835
5.3144414e-07
-1.5840077e-06
-0.0025107049
5.7037723e-07
-2.0336634e-06
-0.0026199464
5.9599777e-07
-2.4892512e-06
-0.0026800115
6.075457e-07
-2.9450545e-06
-0.0027011402
6.1184704e-07
-3.3981476e-06
-0.0027025384
6.1302536e-07
-3.847921e-06
-0.0026978163
6.1313621e-07
-4.2944738e-06
-0.0026930651
6.1396042e-07
-4.7389584e-06
-0.0026898416
6.1667416e-07
-5.183187e-06
-0.0026879046
6.2174836e-07
-5.6292054e-06
-0.0026866905
6.2940069e-07
-6.0794263e-06
-0.0026857986
6.3978157e-07
-6.5359408e-06
-0.0026850224
6.5300291e-07
-7.0005371e-06
-0.0026842703
6.6920191e-07
-7.4758617e-06
-0.0026835037
6.8831417e-07
-7.9648119e-06
-0.0026827144
7.1006161e-07
-8.4688504e-06
-0.0026819031
7.3434978e-07
-8.9898953e-06
-0.0026811009
7.6127328e-07
-9.5314066e-06
-0.0026802861
7.9095962e-07
-1.0095358e-05
-0.0026794654
8.2291091e-07
-1.0682019e-05
-0.0026786445
8.5652136e-07
-1.1292378e-05
-0.0026778011
8.9152382e-07
-1.1920998e-05
-0.0026769668
9.2760048e-07
-0.0026761373
9.6372605e-07
1.3614397e-05
-0.0026749285
1.0963234e-06
1.291661e-05
-0.0026757063
1.0656888e-06
1.2242141e-05
-0.0026764943
1.0314464e-06
1.1593873e-05
-0.0026773138
9.9521999e-07
1.0970781e-05
-0.0026781366
9.5868334e-07
1.0370875e-05
-0.0026789675
9.2291574e-07
9.7939721e-06
-0.0026797771
8.8862321e-07
9.240192e-06
-0.0026805887
8.5640225e-07
8.7075674e-06
-0.0026813949
8.2659312e-07
8.1923917e-06
-0.0026821874
7.9952104e-07
7.691809e-06
-0.0026829891
7.7528107e-07
7.2041154e-06
-0.0026837698
7.5380525e-07
6.7349593e-06
-0.0026845363
7.3511917e-07
6.2585187e-06
-0.0026852652
7.1923103e-07
5.7957942e-06
-0.0026860419
7.0604817e-07
5.3370688e-06
-0.0026869275
6.9563336e-07
4.8799401e-06
-0.0026881354
6.879751e-07
4.422411e-06
-0.0026900669
6.8290996e-07
3.9627023e-06
-0.0026932857
6.8026792e-07
3.4996916e-06
-0.0026980328
6.7952518e-07
3.0331989e-06
-0.0027027514
6.7946447e-07
2.5640972e-06
-0.0027013495
6.7833086e-07
2.0948815e-06
-0.0026802161
6.7382808e-07
1.6315824e-06
-0.0026201443
6.6125683e-07
1.18722e-06
-0.0025108938
6.331726e-07
7.7444918e-07
-0.0023731613
5.9048177e-07
-0.002260589
5.5546064e-07
-7.9794822e-07
-0.0022608083
6.1769194e-07
-1.2233053e-06
-0.0023733926
6.5670728e-07
-1.6810189e-06
-0.0025111397
7.036539e-07
-2.158118e-06
-0.0026204017
7.3447747e-07
-2.6416948e-06
-0.0026804807
7.4819161e-07
-3.124722e-06
-0.0027016196
7.5312227e-07
-3.6051851e-06
-0.0027030254
7.5448466e-07
-4.0819458e-06
-0.0026983108
7.5475798e-07
-4.5552037e-06
-0.0026935681
7.5571012e-07
-5.0261598e-06
-0.0026903544
7.584382e-07
-5.4964845e-06
-0.0026884286
7.6351391e-07
-5.9682329e-06
-0.0026872269
7.7116703e-07
-6.4433095e-06
-0.0026863482
7.8135811e-07
-6.9166418e-06
-0.0026855859
7.9406936e-07
-7.4144378e-06
-0.0026848479
8.0944106e-07
-7.9155865e-06
-0.0026840963
8.2764323e-07
-8.42854e-06
-0.0026833249
8.4872706e-07
-8.9545208e-06
-0.0026825341
8.726898e-07
-9.4978285e-06
-0.0026817513
8.9976333e-07
-1.0063902e-05
-0.0026809526
9.2988707e-07
-1.0654807e-05
-0.0026801486
9.6237214e-07
-1.1268879e-05
-0.0026793501
9.966158e-07
-1.1905148e-05
-0.0026785326
1.0322697e-06
-1.2565874e-05
-0.0026777218
1.0688016e-06
-1.3252591e-05
-0.0026769126
1.1050135e-06
-1.39632e-05
-0.0026761353
1.1395879e-06
-1.4692624e-05
-0.00267537
1.1708926e-06
-1.54343e-05
-0.0026745955
1.1969438e-06
-1.618162e-05
-0.0026738395
1.2158503e-06
-1.692539e-05
-0.0026730983
1.2253091e-06
-1.7652861e-05
-0.0026724015
1.2228623e-06
-0.0026717216
1.2057703e-06
3.4251045e-06
-0.0023502847
-3.0109006e-07
4.7089355e-06
-0.0024868208
-3.5550231e-07
6.0654183e-06
-0.0025952461
-3.9232894e-07
7.4546339e-06
-0.0026550636
-4.1101099e-07
8.8515229e-06
-0.002676407
-4.2119118e-07
1.0239331e-05
-0.0026782865
-4.239504e-07
1.160466e-05
-0.0026741764
-4.1752825e-07
1.2935503e-05
-0.0026701078
-4.0113102e-07
1.4220291e-05
-0.0026676217
-3.7372685e-07
1.5446126e-05
-0.0026664761
-3.3375103e-07
1.6597776e-05
-0.0026661079
-2.7939882e-07
1.7658801e-05
-0.0026661157
-2.0910278e-07
1.8619238e-05
-0.0026662941
-1.2184354e-07
1.9438804e-05
-0.002666548
-1.7805863e-08
2.0124867e-05
-0.0026668681
1.0129761e-07
2.0657216e-05
-0.0026671912
2.3288365e-07
2.1028178e-05
-0.0026675504
3.7320126e-07
2.1234787e-05
-0.0026679402
5.1752414e-07
2.1277891e-05
-0.0026683862
6.6113149e-07
2.116415e-05
-0.002668865
7.9882122e-07
2.0905818e-05
-0.0026693526
9.2506546e-07
2.051861e-05
-0.0026698747
1.0355977e-06
2.0021443e-05
-0.002670425
1.1278541e-06
1.9434661e-05
-0.0026710294
1.2006694e-06
1.877849e-05
-0.0026716644
1.2538154e-06
1.8072179e-05
-0.0026723036
1.2882466e-06
1.733337e-05
-0.0026729684
1.3057521e-06
1.6577803e-05
-0.0026736514
1.3086491e-06
1.5818564e-05
-0.0026743795
1.2992742e-06
1.5071974e-05
-0.0026751291
1.2801663e-06
1.4321374e-05
-0.0026758731
1.2537774e-06
1.3597193e-05
-0.0026766333
1.2221657e-06
1.2897857e-05
-0.0026774006
1.1873765e-06
1.2224473e-05
-0.0026781999
1.1514495e-06
1.1582882e-05
-0.0026790068
1.1157236e-06
1.0947703e-05
-0.0026797958
1.0809523e-06
1.0335519e-05
-0.0026805834
1.0470449e-06
9.7567906e-06
-0.0026813883
1.0144183e-06
9.209706e-06
-0.0026821883
9.8408515e-07
8.6799041e-06
-0.0026829612
9.5684886e-07
8.1468087e-06
-0.0026837244
9.3262273e-07
7.6327632e-06
-0.0026844933
9.1101347e-07
7.129555e-06
-0.0026852369
8.9219947e-07
6.6351522e-06
-0.002685968
8.7645069e-07
6.1466911e-06
-0.0026867234
8.63667e-07
5.6614309e-06
-0.0026875951
8.5352066e-07
5.1774226e-06
-0.0026887905
8.4590346e-07
4.6926278e-06
-0.0026907105
8.4088456e-07
4.2052455e-06
-0.002693919
8.3830652e-07
3.7141584e-06
-0.0026986573
8.3762916e-07
3.219293e-06
-0.0027033682
8.3764644e-07
2.7219115e-06
-0.0027019586
8.3641618e-07
2.2243115e-06
-0.0026808141
8.3098872e-07
1.7324744e-06
-0.0026207254
8.1555195e-07
1.2599446e-06
-0.0025114487
7.8156202e-07
8.2086234e-07
-0.0023736838
7.3027967e-07
-0.0022610849
6.872228e-07
-8.4416425e-07
-0.0022614272
7.6512179e-07
-1.2977836e-06
-0.0023740428
8.1261638e-07
-1.786115e-06
-0.0025118292
8.6881614e-07
-2.2929772e-06
-0.002621125
9.063984e-07
-2.8051479e-06
-0.0026812256
9.2367823e-07
-3.3173891e-06
-0.002702376
9.2960936e-07
-3.8270012e-06
-0.0027037893
9.3071815e-07
-4.3327948e-06
-0.002699082
9.3046546e-07
-4.8346753e-06
-0.0026943481
9.3093953e-07
-5.3337738e-06
-0.0026911448
9.3335174e-07
-5.831857e-06
-0.0026892307
9.3824185e-07
-6.3310561e-06
-0.0026880417
9.4580351e-07
-6.8338947e-06
-0.0026871768
9.5625672e-07
-7.342209e-06
-0.0026864293
9.6964466e-07
-7.8578728e-06
-0.0026857071
9.8581461e-07
-8.3837871e-06
-0.0026849722
1.0048377e-06
-8.9215727e-06
-0.0026842133
1.0266804e-06
-9.4727828e-06
-0.0026834612
1.0512021e-06
-1.0041761e-05
-0.0026826979
1.0785625e-06
-1.0633684e-05
-0.0026819051
1.1087474e-06
-1.1250265e-05
-0.002681108
1.141192e-06
-1.1889973e-05
-0.0026803312
1.1751141e-06
-1.2552228e-05
-0.0026795545
1.2100068e-06
-1.3238429e-05
-0.0026787593
1.2456448e-06
-1.3942693e-05
-0.0026779778
1.2814818e-06
-1.4687374e-05
-0.0026772047
1.3161223e-06
-1.5443834e-05
-0.0026764639
1.3472557e-06
-1.6212079e-05
-0.0026757339
1.3730612e-06
-1.6985062e-05
-0.0026749983
1.3917296e-06
-1.7753294e-05
-0.0026742837
1.4006178e-06
-1.85038e-05
-0.0026736149
1.3970024e-06
-1.9214329e-05
-0.0026729717
1.3786036e-06
-1.9891077e-05
-0.002672331
1.3433357e-06
-2.049048e-05
-0.0026717192
1.289153e-06
-2.0998747e-05
-0.0026711318
1.2150908e-06
-2.1395684e-05
-0.0026705992
1.1214361e-06
-2.1662202e-05
-0.0026700956
1.0095226e-06
-2.1781618e-05
-0.0026696276
8.8197007e-07
-2.174101e-05
-0.0026691694
7.4260209e-07
-2.1526926e-05
-0.0026687509
5.9658311e-07
-2.1161804e-05
-0.0026683648
4.4927663e-07
-2.0625004e-05
-0.0026680335
3.0554266e-07
-1.9931192e-05
-0.0026677323
1.7036347e-07
-1.909287e-05
-0.002667434
4.772393e-08
-1.8125356e-05
-0.002667202
-5.9701214e-08
-1.7046144e-05
-0.0026670448
-1.5013542e-07
-1.5872916e-05
-0.0026670577
-2.2344151e-07
-1.4622302e-05
-0.0026674462
-2.8053083e-07
-1.3309102e-05
-0.0026686121
-3.2282306e-07
-1.1946415e-05
-0.0026711182
-3.522955e-07
-1.0546666e-05
-0.0026752053
-3.7089989e-07
-9.1218928e-06
-0.0026793317
-3.7957264e-07
-7.6859032e-06
-0.0026774639
-3.7904762e-07
-6.2562087e-06
-0.0026561223
-3.7106909e-07
-4.8592605e-06
-0.0025962887
-3.5432437e-07
-3.5352412e-06
-0.0024878258
-3.1903218e-07
-0.0023512381
-2.6652142e-07
3.6505549e-06
-0.0023522683
-2.293151e-07
5.0167942e-06
-0.0024889123
-2.7979699e-07
6.4567704e-06
-0.0025974154
-3.1325539e-07
7.9291762e-06
-0.0026572665
-3.2813074e-07
9.4061232e-06
-0.0026786066
-3.3425814e-07
1.0869119e-05
-0.002680462
-3.3271055e-07
1.2304179e-05
-0.0026763191
-3.2127829e-07
1.3699359e-05
-0.0026722142
-2.9917582e-07
1.5042303e-05
-0.0026696892
-2.6586124e-07
1.6319185e-05
-0.0026685033
-2.1982856e-07
1.7514905e-05
-0.0026680942
-1.591569e-07
1.8612785e-05
-0.0026680605
-8.2209304e-08
1.9595265e-05
-0.0026681963
1.186666e-08
2.044519e-05
-0.0026684067
1.2279091e-07
2.1147204e-05
-0.0026686832
2.4892196e-07
2.1688994e-05
-0.0026689628
3.8747598e-07
2.2063507e-05
-0.0026692738
5.3450398e-07
2.2268747e-05
-0.0026696411
6.8498525e-07
2.23053e-05
-0.0026700395
8.3354507e-07
2.2178973e-05
-0.002670476
9.7474527e-07
2.1902988e-05
-0.0026709234
1.1037976e-06
2.1495324e-05
-0.0026714088
1.2172414e-06
2.0975477e-05
-0.0026719243
1.3123866e-06
2.0363856e-05
-0.0026724953
1.3876973e-06
1.9681915e-05
-0.002673092
1.4429024e-06
1.8950241e-05
-0.002673719
1.4790509e-06
1.8185996e-05
-0.0026743488
1.4980975e-06
1.7403536e-05
-0.0026750035
1.5021867e-06
1.6615776e-05
-0.0026757044
1.4939133e-06
1.5833064e-05
-0.0026764271
1.4759381e-06
1.5063548e-05
-0.002677145
1.4506118e-06
1.4314161e-05
-0.0026778754
1.4200617e-06
1.3589194e-05
-0.0026786389
1.3860685e-06
1.2889604e-05
-0.00267941
1.3502072e-06
1.2214178e-05
-0.0026801929
1.3137916e-06
1.1562166e-05
-0.0026809572
1.2780209e-06
1.0933641e-05
-0.0026817233
1.2437756e-06
1.032803e-05
-0.002682511
1.2115498e-06
9.7436034e-06
-0.0026832953
1.1817766e-06
9.1776463e-06
-0.0026840501
1.1548625e-06
8.6270652e-06
-0.0026847936
1.1308442e-06
8.0890061e-06
-0.0026855436
1.1094218e-06
7.5678989e-06
-0.0026862766
1.0906206e-06
7.0379378e-06
-0.002686974
1.0746776e-06
6.5210111e-06
-0.0026877214
1.0614589e-06
6.0076892e-06
-0.0026885795
1.0510676e-06
5.4952473e-06
-0.0026897618
1.0435791e-06
4.9814958e-06
-0.0026916698
1.0388154e-06
4.4647285e-06
-0.0026948679
1.0365611e-06
3.9439192e-06
-0.0026995974
1.0362337e-06
3.4192194e-06
-0.0027043011
1.0365129e-06
2.8916813e-06
-0.0027028835
1.0350703e-06
2.3639593e-06
-0.0026817261
1.0281417e-06
1.8413784e-06
-0.0026216111
1.0086944e-06
1.3375134e-06
-0.0025122924
9.6709352e-07
8.6925943e-07
-0.0023744797
9.0518749e-07
-0.0022618438
8.5240592e-07
-8.9621702e-07
-0.0022623434
9.4945879e-07
-1.3791186e-06
-0.0023750053
1.0084525e-06
-1.8979526e-06
-0.0025128508
1.0771929e-06
-2.4369062e-06
-0.0026221954
1.1233009e-06
-2.9810099e-06
-0.0026823268
1.144848e-06
-3.5242877e-06
-0.0027034929
1.1526439e-06
-4.0647436e-06
-0.002704915
1.1543002e-06
-4.6010498e-06
-0.002700215
1.1539005e-06
-5.1331633e-06
-0.0026954898
1.154048e-06
-5.6619628e-06
-0.0026922972
1.1561557e-06
-6.1890993e-06
-0.0026903954
1.1607777e-06
-6.7167405e-06
-0.0026892199
1.1680833e-06
-7.2473934e-06
-0.0026883688
1.1780872e-06
-7.7835605e-06
-0.0026876286
1.1907178e-06
-8.3267179e-06
-0.0026869394
1.2060063e-06
-8.8785844e-06
-0.0026862159
1.2241763e-06
-9.4427126e-06
-0.0026854748
1.2453641e-06
-1.0023187e-05
-0.002684739
1.2694307e-06
-1.0622314e-05
-0.0026839924
1.2962537e-06
-1.1241438e-05
-0.0026832177
1.325834e-06
-1.188247e-05
-0.0026824402
1.3579554e-06
-1.2547338e-05
-0.0026816846
1.3922077e-06
-1.3236468e-05
-0.0026809318
1.4280071e-06
-1.3950175e-05
-0.0026801607
1.4644281e-06
-1.4696726e-05
-0.0026793925
1.5001838e-06
-1.5451983e-05
-0.0026786541
1.5339156e-06
-1.6234991e-05
-0.0026779263
1.5642524e-06
-1.7031743e-05
-0.0026772198
1.589429e-06
-1.7833892e-05
-0.0026765095
1.6072135e-06
-1.863108e-05
-0.0026758215
1.6151721e-06
-1.9410362e-05
-0.0026751802
1.6107021e-06
-2.0156456e-05
-0.0026745642
1.5912927e-06
-2.0851591e-05
-0.0026739513
1.5544818e-06
-2.1475707e-05
-0.0026733694
1.4982361e-06
-2.2007691e-05
-0.002672814
1.4215977e-06
-2.2426659e-05
-0.0026723146
1.324785e-06
-2.2712778e-05
-0.0026718465
1.209184e-06
-2.2847501e-05
-0.0026714186
1.0773159e-06
-2.2816719e-05
-0.0026710035
9.3316287e-07
-2.2613869e-05
-0.0026706258
7.8188811e-07
-2.2237726e-05
-0.0026702785
6.2859973e-07
-2.1690948e-05
-0.0026699879
4.7831846e-07
-2.098091e-05
-0.0026697293
3.360717e-07
-2.0119411e-05
-0.0026694742
2.0596649e-07
-1.912157e-05
-0.0026692851
9.0974693e-08
-1.8004415e-05
-0.0026691704
-7.2169013e-09
-1.678538e-05
-0.0026692249
-8.8329172e-08
-1.5481369e-05
-0.0026696541
-1.5319979e-07
-1.4107963e-05
-0.0026708591
-2.0355324e-07
-1.2679013e-05
-0.0026734021
-2.4111025e-07
-1.1206862e-05
-0.0026775242
-2.6697106e-07
-9.7035943e-06
-0.0026816837
-2.81558e-07
-8.1836523e-06
-0.0026798408
-2.8582493e-07
-6.6662451e-06
-0.0026585016
-2.8232251e-07
-5.1806336e-06
-0.0025986306
-2.7043542e-07
-3.7711841e-06
-0.0024900817
-2.3998291e-07
-0.002353377
-1.9138187e-07
3.8966928e-06
-0.0023545696
-1.503224e-07
5.3518443e-06
-0.0024913402
-1.9664026e-07
6.8847777e-06
-0.0025999397
-2.2385554e-07
8.4491483e-06
-0.0026598338
-2.3222822e-07
1.0013925e-05
-0.0026811733
-2.3227083e-07
1.1559865e-05
-0.002683005
-2.2459469e-07
1.3071376e-05
-0.0026788291
-2.0667722e-07
1.4535693e-05
-0.0026746888
-1.7759761e-07
1.5940582e-05
-0.0026721275
-1.3647998e-07
1.7272192e-05
-0.0026709037
-8.2037968e-08
1.8514901e-05
-0.002670455
-1.2663107e-08
1.965147e-05
-0.0026703801
7.3129224e-08
2.0664617e-05
-0.0026704743
1.7600031e-07
2.1537757e-05
-0.0026706429
2.9551249e-07
2.2255494e-05
-0.0026708772
4.3013777e-07
2.280603e-05
-0.0026711153
5.7684355e-07
2.3182273e-05
-0.0026713862
7.3144211e-07
2.3381739e-05
-0.0026717142
8.8885508e-07
2.3413758e-05
-0.0026720796
1.0440915e-06
2.3262687e-05
-0.0026724595
1.1919813e-06
2.296617e-05
-0.0026728769
1.3269135e-06
2.2535367e-05
-0.0026733288
1.4449523e-06
2.1990453e-05
-0.0026738127
1.543669e-06
2.1352625e-05
-0.0026743534
1.6218294e-06
2.0643115e-05
-0.0026749211
1.679317e-06
1.9881967e-05
-0.0026755203
1.7172311e-06
1.9087412e-05
-0.0026761231
1.7375017e-06
1.8275407e-05
-0.002676752
1.7425408e-06
1.745894e-05
-0.002677428
1.7349173e-06
1.6648294e-05
-0.0026781264
1.7172342e-06
1.5851025e-05
-0.0026788209
1.6918645e-06
1.5065888e-05
-0.0026795299
1.6610221e-06
1.4320523e-05
-0.002680274
1.6267895e-06
1.3592403e-05
-0.0026810239
1.5913034e-06
1.2888824e-05
-0.002681784
1.5558122e-06
1.2210573e-05
-0.0026825271
1.5207523e-06
1.1556929e-05
-0.0026832733
1.4867712e-06
1.0924859e-05
-0.0026840403
1.4546121e-06
1.0311554e-05
-0.0026848038
1.4246949e-06
9.7163894e-06
-0.0026855411
1.397227e-06
9.1381577e-06
-0.0026862692
1.3725984e-06
8.5720764e-06
-0.0026870013
1.3514688e-06
8.0065812e-06
-0.0026877075
1.3335329e-06
7.4638931e-06
-0.002688404
1.3181118e-06
6.9189297e-06
-0.0026891293
1.3054798e-06
6.3765151e-06
-0.0026899732
1.295702e-06
5.8342091e-06
-0.0026911417
1.2885972e-06
5.289879e-06
-0.0026930371
1.2842109e-06
4.7419393e-06
-0.0026962243
1.2823865e-06
4.1895098e-06
-0.0027009451
1.2825361e-06
3.6327081e-06
-0.0027056413
1.2831965e-06
3.0727659e-06
-0.0027042146
1.2816999e-06
2.511749e-06
-0.0026830394
1.2736387e-06
1.9562948e-06
-0.0026228904
1.2504091e-06
1.4212166e-06
-0.0025135158
1.2000595e-06
9.2363994e-07
-0.0023756323
1.1246113e-06
-0.0022629384
1.0585949e-06
-9.5037157e-07
-0.0022636403
1.1794124e-06
-1.464137e-06
-0.0023763714
1.252875e-06
-2.0170346e-06
-0.0025142982
1.3353205e-06
-2.5904242e-06
-0.0026237073
1.3902807e-06
-3.1680835e-06
-0.0026838777
1.4159796e-06
-3.7448426e-06
-0.0027050627
1.4248167e-06
-4.318588e-06
-0.0027064938
1.4262068e-06
-4.8876453e-06
-0.0027018013
1.4252108e-06
-5.4518707e-06
-0.0026970847
1.4246909e-06
-6.0121975e-06
-0.0026939029
1.4261795e-06
-6.570218e-06
-0.002692014
1.4302904e-06
-7.1279799e-06
-0.0026908526
1.4371741e-06
-7.6877874e-06
-0.0026900163
1.4468327e-06
-8.252481e-06
-0.0026892988
1.459488e-06
-8.8320282e-06
-0.0026886031
1.475219e-06
-9.4049706e-06
-0.0026879221
1.4937814e-06
-9.9903458e-06
-0.0026871991
1.5153239e-06
-1.0607309e-05
-0.002686464
1.5399151e-06
-1.1233831e-05
-0.0026857445
1.5671862e-06
-1.1878782e-05
-0.0026849923
1.5969462e-06
-1.2545782e-05
-0.0026842354
1.629096e-06
-1.3238338e-05
-0.0026834976
1.663115e-06
-1.3964317e-05
-0.0026827561
1.6980748e-06
-1.4699078e-05
-0.0026820224
1.7333462e-06
-1.5466321e-05
-0.0026812754
1.7686691e-06
-1.6258094e-05
-0.0026805409
1.8027157e-06
-1.7069723e-05
-0.0026798426
1.8333541e-06
-1.7895023e-05
-0.0026791595
1.8584635e-06
-1.872651e-05
-0.0026784723
1.8757926e-06
-1.9554061e-05
-0.0026778074
1.8829423e-06
-2.0364441e-05
-0.00267719
1.8772657e-06
-2.1141386e-05
-0.0026765995
1.8561076e-06
-2.1866226e-05
-0.0026760134
1.8170825e-06
-2.2518657e-05
-0.0026754592
1.758222e-06
-2.307729e-05
-0.0026749325
1.6784077e-06
-2.352041e-05
-0.0026744632
1.577578e-06
-2.3827263e-05
-0.002674027
1.4569464e-06
-2.3979348e-05
-0.0026736264
1.3190092e-06
-2.3962593e-05
-0.0026732639
1.1675105e-06
-2.3768406e-05
-0.002672916
1.0076699e-06
-2.3393605e-05
-0.0026726062
8.4518103e-07
-2.2840281e-05
-0.0026723542
6.8559635e-07
-2.2115309e-05
-0.0026721361
5.3392533e-07
-2.122312e-05
-0.0026719293
3.9423009e-07
-2.0202146e-05
-0.0026717648
2.6955174e-07
-1.9045793e-05
-0.0026716979
1.6139511e-07
-1.7778884e-05
-0.0026717922
7.0293885e-08
-1.6418772e-05
-0.0026722596
-4.1633694e-09
-1.498119e-05
-0.0026735017
-6.3361143e-08
-1.3479898e-05
-0.0026760813
-1.0879492e-07
-1.1927477e-05
-0.0026802397
-1.4184141e-07
-1.0337688e-05
-0.0026844315
-1.6334124e-07
-8.726084e-06
-0.0026826107
-1.7419716e-07
-7.1131662e-06
-0.0026612694
-1.7726583e-07
-5.5308777e-06
-0.0026013497
-1.7230956e-07
-4.0263994e-06
-0.0024926956
-1.4912809e-07
-0.0023558526
-1.0630239e-07
4.1615164e-06
-0.0023572341
-5.6963968e-08
5.7174817e-06
-0.0024941541
-9.7407095e-08
7.3511082e-06
-0.002602866
-1.1729798e-07
9.0140213e-06
-0.0026628131
-1.1920842e-07
1.0673956e-05
-0.0026841578
-1.1282319e-07
1.2309119e-05
-0.0026859684
-9.8209554e-08
1.3903271e-05
-0.0026817615
-7.230946e-08
1.544281e-05
-0.0026775867
-3.4160658e-08
1.6914427e-05
-0.00267499
1.6725329e-08
1.830403e-05
-0.0026737308
8.15381e-08
1.9595829e-05
-0.0026732458
1.6184214e-07
2.0772737e-05
-0.0026731336
2.5885358e-07
2.1817222e-05
-0.0026731822
3.729419e-07
2.2712622e-05
-0.0026733283
5.036601e-07
2.3444215e-05
-0.0026735171
6.4941777e-07
2.4000121e-05
-0.002673717
8.0686807e-07
2.4373159e-05
-0.0026739508
9.7154896e-07
2.4561458e-05
-0.0026742428
1.138496e-06
2.4561659e-05
-0.0026745664
1.3023173e-06
2.4407196e-05
-0.0026749294
1.4574603e-06
2.4088953e-05
-0.0026753076
1.5988219e-06
2.3632716e-05
-0.0026757294
1.7223895e-06
2.3059614e-05
-0.0026761849
1.825524e-06
2.2391762e-05
-0.0026766985
1.9072073e-06
2.1650823e-05
-0.00267724
1.9675694e-06
2.0857373e-05
-0.0026778138
2.0078112e-06
2.003051e-05
-0.0026783931
2.0299041e-06
1.9186766e-05
-0.0026789999
2.036274e-06
1.8339457e-05
-0.0026796545
2.0295535e-06
1.7498633e-05
-0.0026803312
2.0125386e-06
1.6672391e-05
-0.0026810044
1.9880215e-06
1.5866497e-05
-0.0026816932
1.9581763e-06
1.5084615e-05
-0.0026824182
1.9247317e-06
1.432772e-05
-0.0026831549
1.8893656e-06
1.3595438e-05
-0.0026838772
1.8533903e-06
1.2888539e-05
-0.0026846086
1.8178804e-06
1.2207113e-05
-0.0026853379
1.7839276e-06
1.1556568e-05
-0.0026860941
1.752336e-06
1.0910113e-05
-0.0026868213
1.7232582e-06
1.029544e-05
-0.002687546
1.6966599e-06