/*--------------------------------*- C++ -*----------------------------------*\
| =========                 |                                                 |
| \\      /  F ield         | OpenFOAM: The Open Source CFD Toolbox           |
|  \\    /   O peration     | Version:  v2012                                 |
|   \\  /    A nd           | Website:  www.openfoam.com                      |
|    \\/     M anipulation  |                                                 |
\*---------------------------------------------------------------------------*/
FoamFile
{
    version     2.0;
    format      ascii;
    class       volScalarField;
    location    "400";
    object      omega;
}
// * * * * * * * * * * * * * * * * * * * * * * * * * * * * * * * * * * * * * //

dimensions      [0 0 -1 0 0 0 0];


internalField   nonuniform List<scalar> 
231880
(
32.337795
31.87178
31.420522
30.98333
30.559562
30.148607
29.749892
29.362875
28.987046
28.621926
28.267061
27.922022
27.586403
27.259821
26.941915
26.632341
26.330774
26.036906
25.750445
25.471114
25.198651
24.932808
24.673346
24.42004
24.172674
23.931043
23.694952
23.464214
23.238649
23.018089
22.802372
22.591341
22.38485
22.182757
21.984925
21.791224
21.601529
21.415721
21.233684
21.055305
20.880478
20.709104
20.541083
20.376319
20.214725
20.05621
19.900694
19.748096
19.598339
19.45135
19.307058
19.165393
19.02629
18.889683
18.755506
18.62369
18.494157
18.366814
18.241529
18.11822
17.996754
17.878119
17.762149
17.652891
17.548396
17.452352
17.363035
17.285952
17.138766
16.867822
16.534144
16.165577
15.813763
15.466001
15.137439
14.818096
14.505238
14.195256
13.888898
13.593649
13.313678
13.054619
12.820107
12.609009
12.419724
12.253032
12.106277
11.977526
11.865098
11.767656
11.682584
11.609165
11.544548
11.486527
11.437101
11.396384
11.358887
11.324713
11.29573
11.269831
11.245753
11.219348
11.197897
11.178483
11.164219
11.148907
11.132997
11.121045
11.112516
11.106565
11.105528
11.108536
11.120666
11.14264
11.177487
11.225394
11.293012
11.382094
11.502113
11.652359
11.846671
12.087407
12.389891
12.760404
13.212025
13.749681
14.372074
15.059724
15.760044
16.388376
16.833372
16.999353
16.860269
16.432319
15.788367
14.998503
14.118072
13.191752
12.228226
11.253467
10.315153
9.515705
8.8813946
8.3992152
8.0398612
7.7760119
7.5875915
7.450601
7.3568951
7.2878869
7.2449785
7.2129924
7.1986263
7.1894746
7.182977
7.1788859
7.171764
7.1714617
7.170561
7.1651614
7.1574572
7.1498776
7.1428791
7.1367952
7.1317985
7.1277136
7.1237567
7.1196354
7.116758
7.1135201
7.1104596
7.1079166
7.1054162
7.1033171
7.101442
7.1000939
7.0988659
7.0973123
7.0952936
7.0931086
7.0922315
7.092177
7.0926273
7.0932659
7.0932152
7.0940325
7.0959821
7.0999126
7.1044462
7.1103991
7.117519
7.1233627
7.1241304
7.1201099
7.1278601
7.1308746
7.1302766
7.1295101
7.1285534
7.1289661
7.1298281
7.1309181
7.1324936
7.1337379
7.1345596
7.1348638
7.1361954
7.1376173
7.1392476
7.1407738
7.1429684
7.1452413
7.1484678
7.1513513
7.154569
7.1579706
7.1605965
7.1631684
7.1651848
7.1668987
7.1675278
7.1682868
7.1688887
7.1699517
7.1720337
7.1738519
7.1759304
7.1778233
7.1797854
7.1814294
7.1839323
7.1858212
7.187879
7.1896851
7.1913755
7.1918997
7.1918277
7.1907414
7.1909251
7.1911015
7.1904735
7.1905257
7.1899333
7.1897614
7.1888559
7.1889049
7.1902562
7.1920778
7.1931847
7.1939676
7.1951814
7.1955365
7.1956542
7.1952741
7.196077
7.1966707
7.1977616
7.1980225
7.199152
7.200201
7.2008847
7.2019364
7.2026487
7.2043827
7.20493
7.2063675
7.2064023
7.2071682
7.2065766
7.207219
7.2073626
7.2083607
7.2081325
7.208392
7.207348
7.2069231
7.2054653
7.2049126
7.2041749
7.203652
7.2009538
7.1955334
7.1876575
7.1924002
7.1912961
7.1918934
7.1888723
7.1919822
7.1934164
7.2021586
7.2088456
7.2227707
7.2338594
7.2516492
7.2693748
7.295908
7.3233589
7.3604505
7.4012566
7.4559466
7.5186911
7.6001916
7.6967116
7.8188097
7.9644957
8.1440963
8.358321
8.6169068
8.9232002
9.2861612
9.7137482
10.216288
10.812544
11.513474
12.361089
13.3313
14.475466
15.634538
16.665934
16.543165
15.560652
14.412039
13.308918
12.342798
11.512646
10.81183
10.217509
9.7138768
9.2865894
8.9243182
8.6181699
8.3606832
8.1457943
7.967618
7.8207776
7.7004254
7.6023574
7.5231626
7.4583427
7.4056411
7.3627974
7.3284415
7.2984296
7.2743729
7.2544739
7.2406245
7.2277346
7.2155252
7.206056
7.1992377
7.195406
7.1946828
7.1953823
7.19703
7.1968116
7.2020776
7.2005956
7.1972139
7.1977322
7.1987559
7.2013901
7.2069322
7.2160599
7.2286864
7.2431235
7.2578036
7.2773418
7.3007523
7.3313035
7.3651369
7.4074364
7.4598142
7.5255216
7.6032192
7.7025414
7.8228651
7.9687164
8.1459872
8.3604406
8.617846
8.9241351
9.2861873
9.7135152
10.216132
10.808746
11.50509
12.322703
13.265492
14.331369
15.418334
16.326949
16.056979
15.23737
14.221207
13.206257
12.293004
11.489886
10.799653
10.211185
9.7105176
9.284284
8.9226454
8.6163889
8.3596422
8.1454609
7.9691177
7.8233775
7.7021035
7.602866
7.5238595
7.4593398
7.4075561
7.3650948
7.3305039
7.3019475
7.2785437
7.2585794
7.2428593
7.2272202
7.2160403
7.2068381
7.20282
7.1996871
7.1974663
7.1980304
7.2033221
7.20518
7.2052603
7.2027221
7.198248
7.1985799
7.199618
7.2026599
7.2080974
7.2177677
7.2286391
7.2435501
7.2590738
7.2783127
7.3019586
7.3309884
7.3647877
7.4060339
7.4585198
7.5238511
7.6028951
7.7020962
7.8229955
7.9685147
8.1452098
8.3591126
8.6151957
8.9205669
9.2811759
9.7057092
10.202864
10.785938
11.465026
12.249693
13.130883
14.086651
15.029755
15.760404
15.459017
14.806182
13.938391
13.03967
12.193948
11.432365
10.76616
10.19161
9.6984472
9.2763257
8.9172911
8.6130207
8.356758
8.1441317
7.9673547
7.8206306
7.7004732
7.6017984
7.5234902
7.457691
7.4053314
7.3637877
7.3296409
7.3007182
7.2778467
7.2577396
7.2428068
7.230139
7.2185991
7.2102833
7.2040999
7.1985061
7.1976109
7.1981813
7.2030559
7.2053646
7.2063108
7.2034341
7.1985042
7.1986437
7.1989582
7.2029966
7.2094858
7.2167297
7.2296105
7.2433121
7.2570827
7.2786323
7.3017834
7.33001
7.3636636
7.4060736
7.4580942
7.5225843
7.602537
7.7013786
7.8202322
7.965893
8.1420045
8.3546876
8.6097137
8.9127531
9.2697793
9.6885221
10.176491
10.742219
11.393273
12.129902
12.938069
13.779793
14.574549
15.157927
14.864395
14.342197
13.61412
12.826642
12.059542
11.348785
10.712994
10.156831
9.6757054
9.2611836
8.906844
8.6057321
8.3514699
8.1401026
7.9652803
7.8202941
7.7009429
7.6025151
7.5223916
7.4592528
7.4073734
7.3645214
7.3316183
7.3023571
7.2773311
7.2564107
7.2417808
7.228091
7.216815
7.2089698
7.2039918
7.200476
7.1980817
7.1991096
7.2053501
7.2080772
7.2079638
7.2045419
7.1989266
7.198727
7.1992548
7.2031139
7.2092616
7.2162363
7.2279148
7.2429787
7.2578226
7.2775518
7.3023992
7.3305459
7.364263
7.4063072
7.4580672
7.5222831
7.6013987
7.6993214
7.8188116
7.9626888
8.1377358
8.3483277
8.6005978
8.8994197
9.2503872
9.6598446
10.135013
10.680487
11.299526
11.984218
12.711277
13.446135
14.110566
14.577617
14.293575
13.877482
13.273052
12.591698
11.901836
11.242719
10.642111
10.108828
9.6419866
9.2379945
8.8908895
8.5949451
8.3444422
8.1344548
7.9603698
7.8159557
7.6977258
7.6004768
7.5229416
7.4592188
7.4068921
7.3656706
7.3316847
7.303327
7.2776786
7.258533
7.2434057
7.2279132
7.2158455
7.2077911
7.202033
7.1977304
7.1973331
7.1987734
7.2058939
7.2092168
7.2085236
7.2047356
7.1987508
7.1984485
7.1995565
7.2031026
7.2084798
7.217033
7.2293712
7.2440424
7.2586908
7.2776549
7.3025303
7.3311881
7.3660556
7.4067921
7.4595625
7.522867
7.6020104
7.6981132
7.8159052
7.9586819
8.1317677
8.3394452
8.5876509
8.8806721
9.2234959
9.6212747
10.07954
10.599998
11.182876
11.814877
12.467829
13.099464
13.643577
14.009942
13.731558
13.409182
12.919404
12.33873
11.722518
11.118018
10.553943
10.047345
9.5990526
9.2077831
8.8696678
8.5801016
8.3345105
8.1285588
7.9564054
7.8150315
7.6971
7.6016402
7.5228422
7.459352
7.4070535
7.3661329
7.3318901
7.3030661
7.2787705
7.2594286
7.243936
7.2285006
7.2155026
7.2071378
7.2031423
7.1999644
7.1975816
7.1990209
7.2058703
7.2091513
7.2079115
7.2044443
7.1990631
7.1986191
7.1996121
7.2022369
7.2076952
7.21588
7.2275236
7.2433877
7.2590308
7.2776137
7.302497
7.3312414
7.3661429
7.4069323
7.4592678
7.5223782
7.6017544
7.6968919
7.813403
7.9540837
8.1249246
8.3289621
8.5722617
8.8582349
9.1912425
9.5757059
10.013922
10.507333
11.050462
11.626018
12.204459
12.739515
13.176124
13.457893
13.195644
12.948029
12.556558
12.068696
11.528587
10.9817
10.458182
9.9799837
9.5517811
9.1747411
8.8468692
8.5646952
8.3247584
8.1224091
7.9532768
7.8123564
7.6964029
7.6008627
7.5228283
7.4582704
7.4070877
7.3645231
7.3312124
7.3003593
7.2763669
7.2575298
7.2429258
7.2288975
7.2173666
7.2093164
7.2031478
7.2001715
7.1984069
7.200076
7.2058051
7.2080923
7.2067043
7.2058419
7.2007818
7.1979792
7.1991524
7.2016994
7.2082975
7.2154741
7.2271136
7.2414031
7.2581043
7.2770251
7.3003403
7.3296428
7.3642498
7.4070924
7.4598777
7.5238558
7.6021544
7.6965133
7.8121828
7.9529357
8.1214559
8.321387
8.5590149
8.8366607
9.158716
9.5277368
9.9448865
10.408216
10.909243
11.428125
11.929738
12.373937
12.728056
12.94903
12.722435
12.520809
12.199469
11.790748
11.325334
10.837221
10.358844
9.9107402
9.5050429
9.144186
8.8277035
8.554157
8.3187455
8.1204976
7.952511
7.8130732
7.6984282
7.6044959
7.5265994
7.4625534
7.4087125
7.3651687
7.3314456
7.3020119
7.2774611
7.2576848
7.2406791
7.226456
7.2152392
7.2082296
7.2017422
7.2004201
7.1996312
7.201477
7.2065543
7.2081797
7.2065723
7.2057234
7.2005644
7.1976234
7.1999017
7.2008811
7.2061626
7.2137069
7.2269921
7.2413298
7.2568777
7.2756197
7.3012096
7.3299901
7.3658322
7.4095364
7.4641251
7.5280165
7.6062849
7.6994386
7.8144972
7.9537837
8.1208695
8.317646
8.5506369
8.8210019
9.1316041
9.4843655
9.8786517
10.310169
10.765775
11.224685
11.657038
12.035082
12.331903
12.518429
12.334847
12.159752
11.883366
11.529469
11.124384
10.693884
10.261641
9.8479438
9.4657921
9.1212732
8.8162436
8.5491618
8.3190359
8.1231101
7.9563449
7.8181452
7.7025538
7.6088203
7.5302225
7.4652014
7.4117753
7.367947
7.3312948
7.3010163
7.2753504
7.2561104
7.2405671
7.2268679
7.2152672
7.206684
7.2001289
7.1981591
7.1962979
7.1998051
7.2055086
7.2073331
7.2050777
7.2042509
7.1992667
7.1960172
7.1983502
7.1991034
7.2045505
7.2127814
7.2254933
7.2394432
7.2551209
7.2743063
7.3011547
7.331136
7.3689478
7.4111274
7.4660154
7.5313299
7.6111197
7.7050359
7.8220428
7.9616953
8.1273943
8.3217296
8.550952
8.8150122
9.1144008
9.4497422
9.8183956
10.213606
10.623296
11.029321
11.409934
11.743715
12.005177
12.171943
12.028791
11.868865
11.618435
11.3004
10.939096
10.554738
10.166487
9.7897091
9.4348916
9.10966
8.8162241
8.5561378
8.3289078
8.1341033
7.9669327
7.8270727
7.709801
7.6142845
7.5340465
7.4671448
7.4124534
7.3693623
7.3324969
7.3024717
7.274606
7.2549321
7.2379741
7.2238595
7.2125722
7.2048577
7.1997548
7.1975845
7.1943439
7.1981711
7.2035469
7.2053142
7.2025355
7.2013604
7.1958193
7.1923174
7.1951382
7.1969094
7.2016681
7.2097037
7.2231812
7.237691
7.2544635
7.2748734
7.3022191
7.3311069
7.3683278
7.4118628
7.4680062
7.534525
7.618278
7.7157536
7.8341445
7.9750932
8.1428365
8.3374085
8.5640185
8.8203901
9.1067581
9.4215892
9.7618678
10.121087
10.490386
10.856521
11.201722
11.506911
11.748132
11.9027
11.792498
11.642144
11.408653
11.113986
10.781956
10.431071
10.078522
9.7347963
9.4082442
9.1038968
8.8259939
8.5745728
8.3511714
8.1550254
7.9875911
7.8430769
7.7232627
7.6221251
7.5372562
7.4674804
7.4130181
7.3682254
7.33238
7.3005391
7.2744653
7.2529658
7.2359783
7.2212124
7.2075981
7.2003362
7.1946577
7.1911482
7.1899453
7.1923905
7.1987696
7.2018039
7.2012952
7.198506
7.1924713
7.189459
7.1892843
7.1924855
7.1995653
7.20636
7.2184204
7.2353365
7.2533609
7.273976
7.2999804
7.3311386
7.3698913
7.4151996
7.4705496
7.5413043
7.6253043
7.7281502
7.8526198
7.9987993
8.168932
8.3639806
8.5864961
8.8327807
9.1032008
9.3961023
9.7094436
10.038951
10.377512
10.715439
11.036556
11.32276
11.549624
11.696719
11.612885
11.469027
11.247794
10.969689
10.65751
10.330246
10.003987
9.686626
9.3850525
9.1023215
8.839903
8.5989942
8.3792624
8.1838613
8.0116741
7.8634148
7.7353211
7.630777
7.544019
7.4714022
7.4153501
7.3712916
7.3330952
7.3016134
7.2745938
7.2526821
7.2343457
7.2168171
7.2053631
7.1985874
7.1931541
7.1894863
7.188941
7.191285
7.1962008
7.2003505
7.1995292
7.1960369
7.1901867
7.1872718
7.1887465
7.1916856
7.1983883
7.205573
7.2172629
7.2331649
7.2515155
7.2724109
7.3011964
7.3317343
7.3720489
7.4178322
7.4747067
7.5463542
7.6335878
7.7409117
7.869678
8.0228799
8.1992974
8.3960736
8.6117198
8.8468709
9.1017017
9.3748088
9.6662216
9.9723346
10.288348
10.606037
10.911098
11.183413
11.399097
11.539946
11.476798
11.338381
11.12724
10.860607
10.562751
10.253299
9.9462047
9.6488458
9.3666873
9.1015003
8.853847
8.6229477
8.406307
8.2102319
8.0326605
7.8767125
7.7451738
7.6354612
7.5470832
7.474358
7.4168316
7.3698729
7.3307197
7.2994418
7.2705107
7.2500715
7.2319118
7.2165062
7.2056175
7.1966672
7.1909187
7.1886595
7.1867399
7.188682
7.1931399
7.1975771
7.1979088
7.1935141
7.1875032
7.1850654
7.1880257
7.1920914
7.1966015
7.2051656
7.2167726
7.2318285
7.2491564
7.2697613
7.2976845
7.32919
7.3690893
7.4176404
7.4744599
7.5482051
7.6366198
7.7458477
7.880179
8.0353623
8.2149262
8.4146562
8.6307367
8.8597303
9.1008575
9.3586766
9.633751
9.9224889
10.222095
10.523804
10.81671
11.078763
11.285721
11.421286
11.373195
11.239757
11.036276
10.779132
10.492364
10.196325
9.9041367
9.6217966
9.3527282
9.099866
8.8613708
8.6330825
8.4168069
8.2180396
8.0399282
7.8833057
7.749387
7.6384721
7.5491049
7.4745684
7.4152699
7.3656328
7.3280082
7.2971293
7.2704055
7.2485026
7.2316255
7.2153296
7.2045114
7.1958351
7.1895029
7.186568
7.1847813
7.1864785
7.1913405
7.1962681
7.1961126
7.1917829
7.1862571
7.1846466
7.1875446
7.1909028
7.1959859
7.2053521
7.2168303
7.2316214
7.2469838
7.2675192
7.2955985
7.3285826
7.36449
7.4135549
7.472865
7.5484264
7.6379392
7.748022
7.882704
8.0386717
8.2197134
8.4202181
8.6353411
8.8601534
9.0977973
9.3480252
9.610801
9.8870126
10.174463
10.464674
10.746492
10.999464
11.19983
11.331754
11.295765
11.165313
10.967684
10.718649
10.441107
10.154898
9.8724668
9.6001317
9.3413779
9.0933717
8.8580266
8.6342149
8.419349
8.2194441
8.0385502
7.879771
7.7461637
7.635461
7.546147
7.4719211
7.4122485
7.3635135
7.3254328
7.2920762
7.2656603
7.2463685
7.2313173
7.2161864
7.2033968
7.1941611
7.1889253
7.1871838
7.183954
7.1847815
7.19041
7.1943844
7.1960311
7.1918098
7.1858206
7.1844755
7.1874149
7.1895625
7.1942805
7.2030213
7.2148359
7.2299392
7.2457338
7.2649589
7.2924301
7.3256748
7.3646212
7.4134277
7.473066
7.547238
7.6367361
7.7462183
7.8801865
8.0371281
8.2200767
8.4187417
8.6327398
8.8565939
9.0920081
9.3363924
9.592912
9.8608066
10.139394
10.420018
10.693362
10.939291
11.135277
11.264418
11.237984
11.109426
10.915259
10.67231
10.402362
10.125482
9.8502457
9.585735
9.3309485
9.0866267
8.8529297
8.6290496
8.4159023
8.2171385
8.0343939
7.8781336
7.743333
7.6351821
7.5448992
7.4714629
7.4106054
7.3627011
7.3223069
7.2906686
7.26518
7.2435432
7.2272638
7.2133367
7.2023032
7.1929982
7.1890653
7.1858274
7.1833335
7.1857909
7.1925217
7.1960055
7.1958182
7.1918785
7.1856257
7.1825904
7.1849198
7.1876571
7.192944
7.2005659
7.2125342
7.2257638
7.2421116
7.2631942
7.2899859
7.3230369
7.3612956
7.4103023
7.470734
7.5448488
7.6336912
7.7416011
7.8739633
8.0301216
8.2129043
8.4126695
8.6249052
8.8487377
9.0797269
9.3217217
9.5759293
9.8391877
10.112916
10.387643
10.652236
10.890848
11.084935
11.212461
11.188585
11.062093
10.869453
10.632514
10.371203
10.098575
9.8275664
9.5653285
9.313477
9.0725073
8.8422985
8.6187621
8.4053659
8.2068517
8.027212
7.8710636
7.7391819
7.6308751
7.540856
7.4690605
7.4078328
7.3604386
7.3208182
7.2882978
7.2616202
7.2402995
7.2243012
7.2102835
7.1982659
7.1923545
7.1875444
7.1831382
7.1811278
7.1844495
7.1912983
7.1943573
7.1936726
7.1898105
7.1845499
7.1818296
7.1815491
7.1848961
7.1903089
7.1966209
7.2092252
7.2235161
7.2392988
7.2596745
7.2871409
7.3202104
7.359083
7.40652
7.4665918
7.5381449
7.6287957
7.7358448
7.8681338
8.0230499
8.2028997
8.4011751
8.6133619
8.8363951
9.067394
9.307868
9.5582454
9.8190433
10.088607
10.358535
10.617729
10.852784
11.042483
11.163722
11.142036
11.021613
10.837388
10.605603
10.34638
10.077699
9.8111044
9.5506891
9.2994498
9.0603657
8.8285941
8.6062302
8.392608
8.1959634
8.0189465
7.8643101
7.7332525
7.6264616
7.5373462
7.4647982
7.4051565
7.3570642
7.3165025
7.284578
7.2587187
7.2380693
7.2224742
7.2084594
7.1956123
7.1891586
7.1853287
7.1823256
7.1813215
7.183974
7.1898765
7.1929009
7.190685
7.1870234
7.1826243
7.1801008
7.1795052
7.1822078
7.1876149
7.1940844
7.20784
7.2221405
7.2377925
7.257709
7.2834035
7.3161976
7.3553628
7.4025115
7.4623936
7.5332633
7.6232244
7.7296291
7.8606156
8.0132691
8.1911252
8.3878
8.6003312
8.8221685
9.0531544
9.2921825
9.5418662
9.8009271
10.067528
10.336689
10.592799
10.822736
11.003945
11.122573
11.106438
10.988729
10.809064
10.579389
10.324913
10.057003
9.7930345
9.5329363
9.2836349
9.044011
8.815756
8.5948229
8.3810877
8.1836712
8.007335
7.8547086
7.726217
7.6190293
7.5301851
7.4585567
7.3997276
7.3517931
7.3148303
7.2819521
7.256958
7.2357503
7.2208209
7.2066336
7.1943331
7.1861851
7.1812507
7.1783192
7.1786426
7.1813714
7.1858127
7.1885526
7.18898
7.1851704
7.1808424
7.1799244
7.1802665
7.1823315
7.185592
7.1950506
7.2053578
7.2192917
7.2333137
7.255976
7.2808796
7.3125831
7.3506095
7.3976116
7.4574165
7.5276153
7.6153926
7.7219646
7.8527006
8.0040743
8.1795225
8.3771342
8.588306
8.8094091
9.0384928
9.2775474
9.5263512
9.7848505
10.048429
10.315707
10.568757
10.797201
10.975272
11.092108
11.079501
10.963043
10.78428
10.559444
10.306738
10.041726
9.7799968
9.521873
9.2721837
9.0325242
8.8028607
8.5819893
8.3718853
8.1732891
7.9987471
7.848441
7.7176893
7.6119948
7.5264417
7.455637
7.3952683
7.3492931
7.3113915
7.2783014
7.2532485
7.2311747
7.2174065
7.2053669
7.1938799
7.186
7.1798217
7.1788235
7.1781789
7.1803526
7.1868594
7.1903778
7.1901085
7.1855973
7.1801233
7.1790133
7.1788631
7.1803842
7.1854825
7.1945039
7.2050323
7.2180891
7.2313455
7.2515988
7.2766121
7.3086192
7.3469629
7.3926707
7.4524147
7.523509
7.6081166
7.7143736
7.8440811
7.9966875
8.170291
8.3665749
8.577417
8.7986298
9.028089
9.2669693
9.5169009
9.7736745
10.036468
10.301825
10.553174
10.777318
10.95399
11.069438
11.063083
10.947181
10.770747
10.548654
10.297513
10.035419
9.7717122
9.5140783
9.264515
9.025834
8.7976019
8.5752399
8.3650787
8.1707938
7.9964335
7.8449121
7.7151788
7.6071641
7.5230077
7.4525859
7.3931041
7.3439148
7.3066027
7.2759333
7.2516168
7.2318172
7.2173182
7.2039453
7.1933613
7.1834788
7.1786501
7.1774244
7.1769824
7.1794628
7.1869982
7.1910354
7.190513
7.1855843
7.1792892
7.1781203
7.1784802
7.1801198
7.1829594
7.1912929
7.2030937
7.2166554
7.2318149
7.2512215
7.2765562
7.3081946
7.3443931
7.3917524
7.4519437
7.520572
7.6059112
7.7132386
7.8445689
7.9947504
8.1709419
8.3662378
8.5768702
8.7981757
9.025919
9.2635549
9.5133032
9.7700598
10.035255
10.298237
10.547935
10.768939
10.943087
11.057832
11.05606
10.942602
10.76873
10.549434
10.299832
10.03845
9.7753954
9.5180929
9.2691571
9.0294413
8.8011866
8.57842
8.3682091
8.1734224
7.9993119
7.8468613
7.7167763
7.609232
7.5219872
7.4501891
7.392128
7.3437816
7.3069532
7.2769159
7.250732
7.2310467
7.2155427
7.2025083
7.1919812
7.1836812
7.178761
7.1774728
7.1771496
7.1795708
7.1873203
7.1915069
7.1906617
7.1858934
7.1798105
7.178476
7.1783356
7.1795093
7.1835137
7.1919869
7.203671
7.2172441
7.2327536
7.2529791
7.2777357
7.3090909
7.3449974
7.3932638
7.4516274
7.5246524
7.6121976
7.7189191
7.8504928
8.002381
8.1793228
8.3761704
8.5864976
8.8074593
9.0381948
9.27806
9.527311
9.7834137
10.046752
10.308948
10.557292
10.776832
10.948968
11.060825
11.072537
10.961829
10.789404
10.569209
10.322596
10.061422
9.8011447
9.5438575
9.2948281
9.053665
8.8226211
8.5988202
8.3873347
8.1888528
8.0121067
7.8565841
7.7263598
7.6174712
7.5292814
7.4558604
7.3966058
7.3491623
7.3097815
7.2773435
7.2525055
7.2313525
7.2173126
7.2036357
7.1925922
7.1843594
7.1778503
7.1760565
7.1773587
7.1799402
7.186097
7.1892888
7.1916834
7.1874151
7.1820068
7.177438
7.1759642
7.1788213
7.1834279
7.1914246
7.2035543
7.2177824
7.2328484
7.2531561
7.2805419
7.3131077
7.3541623
7.4016767
7.4609999
7.5355724
7.6268816
7.7390703
7.8710357
8.0273593
8.2094897
8.4088501
8.6229825
8.850347
9.0824258
9.3224722
9.57157
9.8280296
10.088239
10.350193
10.596342
10.814048
10.984985
11.094611
11.129581
11.020797
10.851466
10.634053
10.387791
10.128379
9.8701759
9.6138662
9.3639289
9.1221358
8.887214
8.6605739
8.4432315
8.2402981
8.0525552
7.8918863
7.7539553
7.6397976
7.5453782
7.469546
7.4075183
7.3580197
7.3161926
7.2829919
7.2544057
7.2339985
7.2177058
7.2035271
7.1922121
7.1831834
7.178796
7.1752675
7.1762242
7.181841
7.1871241
7.1918778
7.1918723
7.1878405
7.1817017
7.1761721
7.1743523
7.1783602
7.1819184
7.1899428
7.2029801
7.2180757
7.2341486
7.2555546
7.2850935
7.3190952
7.3633205
7.4144632
7.4805413
7.5607206
7.6594662
7.7791505
7.9217815
8.0889333
8.2818029
8.4892675
8.711617
8.9416945
9.1779366
9.420212
9.6712355
9.9268603
10.185446
10.444445
10.687985
10.902429
11.071017
11.179278
11.246302
11.140375
10.974756
10.761567
10.519781
10.265189
10.007167
9.750785
9.4994642
9.2541646
9.0136798
8.780598
8.5520325
8.3374878
8.1381305
7.9621127
7.8095359
7.6840209
7.5781364
7.4938805
7.4256067
7.3690387
7.3231697
7.2874083
7.2583899
7.2351439
7.2177051
7.2005901
7.1889756
7.1807958
7.1774909
7.1737505
7.1748005
7.179688
7.18503
7.1897807
7.1884101
7.1845039
7.1787865
7.1747653
7.1729381
7.1761453
7.1811198
7.1895832
7.1994413
7.2167027
7.2352873
7.2594515
7.2914681
7.3310914
7.3780016
7.4371179
7.5117851
7.603341
7.7149055
7.8498088
8.0128443
8.1990231
8.4086328
8.6323634
8.8696441
9.1101386
9.3546986
9.6032518
9.8570415
10.113277
10.370885
10.622945
10.860564
11.069313
11.23284
11.337103
11.455387
11.354325
11.195228
10.990044
10.756234
10.50765
10.251427
9.9938567
9.7367296
9.4829269
9.2313763
8.9823956
8.7366647
8.4995202
8.2754013
8.074616
7.9001854
7.752621
7.6303121
7.5324913
7.4528686
7.3884777
7.3371659
7.2970426
7.2637996
7.2371507
7.2165044
7.1997314
7.1879476
7.1793319
7.1746596
7.1723873
7.1727226
7.1764972
7.1813404
7.1859545
7.184375
7.1806104
7.1749128
7.1705029
7.1704095
7.1736879
7.1772049
7.1865912
7.1995682
7.2163395
7.2383453
7.2655122
7.3020544
7.3463397
7.3999618
7.4689096
7.5572863
7.664588
7.7971209
7.9578593
8.1504615
8.3703137
8.6097927
8.8613928
9.1213349
9.3827717
9.6433612
9.9039334
10.16523
10.424869
10.68098
10.926844
11.155657
11.355232
11.510611
11.608935
11.802947
11.709257
11.559977
11.365343
11.141526
10.897389
10.641189
10.3771
10.109168
9.8378553
9.5644059
9.2871533
9.0117384
8.7405847
8.4794213
8.2396107
8.0281838
7.8489837
7.7019809
7.5829315
7.4882115
7.4119381
7.3532394
7.3052266
7.2687181
7.2401527
7.2181
7.1985139
7.1850179
7.1752352
7.1720233
7.1673495
7.1676911
7.1706971
7.1769184
7.1804591
7.1801296
7.1757181
7.1689046
7.1662822
7.1655872
7.1708678
7.1761607
7.1853578
7.1995073
7.2196471
7.2429227
7.2717255
7.3109155
7.3639684
7.4274347
7.5090632
7.6135525
7.7464448
7.9090309
8.1069987
8.3418091
8.6072037
8.892603
9.1859632
9.4823156
9.7783789
10.069474
10.35513
10.634393
10.906221
11.165251
11.407791
11.62681
11.814119
11.95706
12.046573
12.350546
12.265138
12.129107
11.94804
11.73215
11.488052
11.221985
10.938709
10.642842
10.336401
10.021944
9.701891
9.379506
9.0589574
8.7456736
8.454042
8.1946559
7.9742667
7.7926001
7.6480159
7.5325241
7.4424308
7.3723506
7.3177052
7.2757222
7.2442635
7.2184727
7.1983345
7.1835421
7.173273
7.1663576
7.1633594
7.1620678
7.1661223
7.1746502
7.1782681
7.1763555
7.1718041
7.1642541
7.1602273
7.1608992
7.1642341
7.1715438
7.1807722
7.1968741
7.2179163
7.2447331
7.2777986
7.3231473
7.3819562
7.4571956
7.5544753
7.6825002
7.8418211
8.0406042
8.2835176
8.5716583
8.8936599
9.2362353
9.586949
9.9404824
10.29117
10.635145
10.969014
11.289402
11.591963
11.870051
12.119504
12.335403
12.511962
12.642911
12.723534
13.176627
13.099298
12.971583
12.794887
12.573871
12.311573
12.012503
11.682701
11.329113
10.958693
10.577096
10.189478
9.8012167
9.416732
9.042107
8.6906121
8.3741613
8.106263
7.8865975
7.7136288
7.5768109
7.4716768
7.3892775
7.32735
7.2791079
7.2442903
7.2164048
7.1945197
7.1795882
7.1704182
7.1637228
7.1594665
7.1587679
7.1619376
7.1703981
7.174058
7.1722635
7.1676054
7.1603579
7.1568251
7.1581546
7.16119
7.1696163
7.1784377
7.1941952
7.2157739
7.2440773
7.2803718
7.3301418
7.395757
7.483127
7.5946727
7.7421724
7.9291463
8.1669954
8.458225
8.8032994
9.1859504
9.5919745
10.010764
10.438265
10.868762
11.294715
11.709672
12.106819
12.475044
12.805233
13.089912
13.325574
13.508822
13.638382
13.715042
14.335998
14.254925
14.116329
13.916199
13.654841
13.334174
12.959633
12.542549
12.093427
11.625478
11.148932
10.672467
10.204837
9.7505529
9.3126357
8.9012747
8.5306789
8.21794
7.9648799
7.7649787
7.6092003
7.4913801
7.4012949
7.3319566
7.281202
7.2430322
7.2141758
7.1927791
7.1773137
7.1680523
7.1603994
7.1573869
7.1565722
7.1588968
7.1663166
7.1699296
7.1690522
7.1642002
7.1573662
7.1540489
7.1554936
7.1578196
7.1656035
7.1745821
7.1910754
7.2128496
7.241382
7.2792198
7.3313321
7.4014413
7.495569
7.6176768
7.7801796
7.98877
8.2564334
8.5872782
8.9787721
9.4149042
9.8808405
10.368163
10.87578
11.398602
11.927571
12.452179
12.9602
13.436783
13.86714
14.23534
14.536844
14.76578
14.924939
15.01806
15.709213
15.596461
15.407407
15.135897
14.783571
14.356519
13.864222
13.322763
12.754711
12.173937
11.595718
11.03078
10.489176
9.9729801
9.484281
9.0282628
8.6209798
8.2773919
8.0021199
7.7857208
7.6201596
7.4935357
7.3985066
7.3274775
7.2759327
7.2374812
7.2094302
7.185719
7.1716782
7.1626516
7.1562329
7.15392
7.1534887
7.15841
7.1651619
7.1684492
7.1671298
7.1641292
7.1551089
7.1519077
7.1515599
7.1534247
7.1608125
7.1689909
7.1830018
7.2046769
7.2335837
7.2712606
7.3234408
7.393311
7.4881131
7.6144394
7.7813961
7.9988987
8.2790312
8.6286029
9.0449376
9.5129562
10.017621
10.553636
11.122347
11.720566
12.339764
12.968653
13.592577
14.191991
14.745911
15.232823
15.641108
15.960753
16.187589
16.324257
16.75877
16.598752
16.335968
15.970101
15.514619
14.977646
14.374354
13.730727
13.067676
12.403415
11.755994
11.137188
10.5535
10.006707
9.4957465
9.0245051
8.6072792
8.2593146
7.9819461
7.7668455
7.6017463
7.4775734
7.3835554
7.316166
7.2634783
7.2278852
7.2015083
7.1798477
7.1672114
7.1583275
7.1511843
7.1513328
7.1518749
7.1558503
7.1638336
7.167016
7.1646949
7.1617796
7.1531925
7.1489096
7.149155
7.148629
7.1535692
7.1615576
7.1761676
7.196616
7.2215965
7.2559681
7.3054482
7.370771
7.4613913
7.5798609
7.7397335
7.9465886
8.2159206
8.5554346
8.9634454
9.4287732
9.9367894
10.482801
11.069159
11.695287
12.354048
13.032132
13.71368
14.378673
15.009548
15.578027
16.064295
16.459165
16.748265
16.923261
16.778779
16.597292
16.302046
15.899826
15.404781
14.831285
14.200294
13.537499
12.86105
12.189846
11.53834
10.919228
10.342274
9.8078585
9.3137833
8.8639966
8.4729342
8.1520378
7.8981253
7.7019851
7.5509079
7.4398299
7.3546717
7.2935528
7.2478514
7.2139247
7.1890806
7.171268
7.1570982
7.1503559
7.1468149
7.1465619
7.147488
7.1516357
7.1596323
7.1629989
7.1599307
7.156534
7.1472087
7.1427139
7.1429918
7.142076
7.1464298
7.1538806
7.1650839
7.1818652
7.2048346
7.2351632
7.2787367
7.3363893
7.4139756
7.5162512
7.654587
7.8348254
8.0690433
8.3669955
8.7308927
9.1541122
9.624317
10.137914
10.695502
11.292665
11.919611
12.564814
13.215289
13.854103
14.462897
15.018479
15.499438
15.889814
16.177614
16.353073
15.712593
15.549266
15.280537
14.915079
14.463996
13.942737
13.372406
12.773769
12.164104
11.55831
10.968568
10.40519
9.8778481
9.393824
8.9569711
8.5703446
8.2406605
7.9728259
7.7628569
7.6012596
7.4776408
7.3851008
7.3140226
7.2627088
7.22432
7.1961367
7.1740048
7.1578701
7.1467519
7.1416082
7.1397427
7.1400903
7.1413645
7.1458997
7.1541428
7.1577873
7.153686
7.1504392
7.1411609
7.1359712
7.1355361
7.1344033
7.1373666
7.1435152
7.152915
7.1656746
7.1857909
7.209576
7.2451149
7.2905801
7.3539606
7.4349306
7.5439312
7.6848875
7.8677204
8.1011556
8.3900418
8.7323883
9.1272375
9.5705521
10.056976
10.577596
11.122309
11.68105
12.241731
12.791286
13.313403
13.790418
14.202957
14.535655
14.780402
14.927922
14.056106
13.925259
13.708063
13.410733
13.040766
12.611658
12.139677
11.642475
11.133367
10.62605
10.131928
9.6628877
9.2285897
8.8377742
8.4951847
8.2020422
7.9577831
7.7592419
7.6047257
7.483452
7.392657
7.3227177
7.2677605
7.2266655
7.1954604
7.1731544
7.1572562
7.1450068
7.1370149
7.1318302
7.1309584
7.1315088
7.1321737
7.1368355
7.145749
7.1500508
7.1482387
7.1438764
7.135652
7.1297196
7.1293028
7.128942
7.1286898
7.1315509
7.1389134
7.1506465
7.1638755
7.1836212
7.211328
7.2452709
7.2915905
7.3496312
7.4268329
7.5284036
7.6560394
7.8194786
8.0203874
8.2626258
8.5477543
8.8759917
9.2462174
9.6522972
10.086063
10.536353
10.990435
11.434096
11.855044
12.237284
12.565529
12.827771
13.018621
13.135162
12.179619
12.080048
11.913845
11.685459
11.397473
11.062292
10.694263
10.308043
9.9183398
9.5374727
9.1761743
8.8425291
8.5419779
8.277499
8.0480034
7.8544991
7.6926844
7.5606184
7.458075
7.3759292
7.3117535
7.2629952
7.2253051
7.1960048
7.1736519
7.1572583
7.1451801
7.1341177
7.1273461
7.1243973
7.1233757
7.1248063
7.1260466
7.1328146
7.1391715
7.1442902
7.1424964
7.1375637
7.1302769
7.1242663
7.1225226
7.1220338
7.1221174
7.1232814
7.1289848
7.1381678
7.1476583
7.1614208
7.1804782
7.2034869
7.2350291
7.2742983
7.3271542
7.3932076
7.4743512
7.5787198
7.7067423
7.8590696
8.0391809
8.2461107
8.4818352
8.7441647
9.029572
9.3332842
9.6474888
9.9629024
10.267649
10.548095
10.789931
10.983885
11.125495
11.211291
10.28271
10.215816
10.104987
9.9534665
9.7640486
9.5454773
9.310027
9.0676204
8.8269838
8.5949633
8.3769973
8.1758213
7.9956034
7.8366136
7.6971539
7.5796253
7.4818772
7.4000841
7.3363065
7.2848441
7.2433714
7.2101947
7.1854859
7.1666372
7.1513851
7.1389846
7.1322035
7.1248069
7.1206127
7.1196535
7.118405
7.1198079
7.1221447
7.1270175
7.1337164
7.1397524
7.1386388