/*--------------------------------*- C++ -*----------------------------------*\
| =========                 |                                                 |
| \\      /  F ield         | OpenFOAM: The Open Source CFD Toolbox           |
|  \\    /   O peration     | Version:  v2012                                 |
|   \\  /    A nd           | Website:  www.openfoam.com                      |
|    \\/     M anipulation  |                                                 |
\*---------------------------------------------------------------------------*/
FoamFile
{
    version     2.0;
    format      ascii;
    class       volScalarField;
    location    "400";
    object      p;
}
// * * * * * * * * * * * * * * * * * * * * * * * * * * * * * * * * * * * * * //

dimensions      [0 2 -2 0 0 0 0];


internalField   nonuniform List<scalar> 
231880
(
0.066984019
0.063857004
0.060903582
0.058115043
0.0554777
0.052980683
0.050614955
0.048371847
0.046243207
0.044221725
0.042300933
0.040474353
0.038736017
0.037080494
0.035502763
0.033998351
0.032562834
0.031192024
0.029882041
0.028629268
0.027431097
0.026284003
0.025185678
0.024132951
0.023122732
0.022152904
0.021221443
0.020326286
0.019466159
0.018638805
0.017842945
0.017076414
0.016337318
0.015624307
0.014936267
0.014271977
0.013630235
0.013009972
0.012409936
0.011829031
0.011265981
0.010719947
0.010190297
0.0096761506
0.0091762554
0.0086899111
0.0082165143
0.0077552939
0.007306426
0.0068682667
0.0064399837
0.0060211851
0.0056111194
0.0052091097
0.0048146418
0.0044271612
0.0040459317
0.003670564
0.003300729
0.0029359639
0.0025751508
0.0022204669
0.0018721387
0.0015376847
0.0012116404
0.00091049917
0.00056775186
0.00033126614
0.00038741935
0.00040026997
0.00039470986
0.00038864687
0.00038132668
0.0003703031
0.00036354038
0.00035617083
0.00034930607
0.0003435818
0.00033405468
0.00032608578
0.00031511074
0.00030379874
0.00029243338
0.00028199794
0.00027110276
0.00025954674
0.00025313111
0.00024106972
0.00023707109
0.0002268083
0.00022101814
0.00021176865
0.00020386549
0.00019681575
0.00019098591
0.00018476746
0.00017616504
0.00016651249
0.00015029049
0.00013868888
0.0001305253
0.00011852415
0.00011236897
0.00010532714
0.00010030432
9.53493e-05
9.084224e-05
8.7491489e-05
8.8678934e-05
8.9968549e-05
9.3914018e-05
9.4910056e-05
9.7616914e-05
9.9743447e-05
0.00010229406
0.00010545326
0.00010567861
0.00010317983
9.9034501e-05
8.7623696e-05
7.4238348e-05
5.4003868e-05
3.2027116e-05
8.4835214e-06
-5.5959742e-06
-6.6817856e-06
2.3667283e-05
6.3721373e-05
0.00021887863
0.00042583986
0.0006650999
0.00080413796
0.00097436321
0.0010033178
0.00092207158
0.00078987885
0.00062046573
0.00046067477
0.00030900689
0.00017073461
4.0923079e-05
-6.0241291e-05
-0.00013205068
-0.00017575407
-0.0002094505
-0.00022995357
-0.00024335579
-0.00024983138
-0.00025235794
-0.00025111236
-0.00025016506
-0.00025476236
-0.00026233587
-0.00027154444
-0.00027693256
-0.00027466148
-0.00027498976
-0.00024662055
-0.00022961493
-0.00022284883
-0.00022038575
-0.0002166367
-0.00021668418
-0.00021398263
-0.00021376437
-0.00021341616
-0.00021365862
-0.00021462808
-0.00021600366
-0.00021752294
-0.0002195253
-0.00022101984
-0.00022275924
-0.00022472941
-0.00022617527
-0.00022782056
-0.00022920571
-0.00023015241
-0.00023118039
-0.00023265793
-0.0002338211
-0.00023432438
-0.00023501364
-0.00023489107
-0.00023517156
-0.0002353364
-0.00023683279
-0.0002380864
-0.00024231227
-0.00024724694
-0.00025022017
-0.00025310075
-0.00025169583
-0.00025494121
-0.00023889098
-0.00022891362
-0.00022448266
-0.00022468173
-0.00021957564
-0.00021390081
-0.00020678704
-0.00020114469
-0.00019664994
-0.00019351848
-0.00019045419
-0.00018796197
-0.00018547059
-0.00018247068
-0.0001797101
-0.00017711422
-0.00017454783
-0.00017208147
-0.00016970256
-0.00016753762
-0.00016636442
-0.00016401904
-0.00016208933
-0.00016014919
-0.00015814064
-0.00015614332
-0.00015389035
-0.00015166096
-0.00014894542
-0.00014616362
-0.0001427968
-0.00013926958
-0.0001351038
-0.00013078237
-0.00012584155
-0.00012113577
-0.00011533314
-0.00010910514
-0.00010245455
-9.560987e-05
-8.8269182e-05
-8.0786856e-05
-7.3366024e-05
-6.5921001e-05
-5.8177385e-05
-4.96357e-05
-4.1615779e-05
-3.3301741e-05
-2.5024168e-05
-1.6616801e-05
-8.4152832e-06
-1.1519629e-07
7.9492843e-06
1.6281013e-05
2.427899e-05
3.1852861e-05
3.9686998e-05
4.6985879e-05
5.4160602e-05
6.1224282e-05
6.7752263e-05
7.4222991e-05
8.0664063e-05
8.6870496e-05
9.307854e-05
9.9023776e-05
0.00010476163
0.0001107838
0.0001155739
0.00012097974
0.00012510054
0.00012945752
0.00013310664
0.00013704867
0.00014011252
0.00014351172
0.0001461887
0.00014855863
0.00015030417
0.00015226932
0.00015452443
0.00015794441
0.00016103675
0.00016313183
0.00016550036
0.0001601623
0.00016024518
0.00015531999
0.00014270544
0.00014966172
0.00013403615
0.00012764495
0.00012333036
0.00012451884
0.00013636872
0.00014365583
0.00014979857
0.00015077937
0.00015011464
0.00014899984
0.00014870662
0.00014913757
0.0001503946
0.00015242951
0.00015520709
0.00015872513
0.00016251729
0.00016681953
0.00017086863
0.00017456874
0.00017730809
0.00017916675
0.00017872583
0.00017728188
0.0001764975
0.00016917999
0.00017826121
0.00016435867
0.0001534081
0.00014468157
0.00011554439
0.00012883713
0.00014056965
0.00018470351
0.00028161387
0.00032337711
0.00024709115
0.00017215017
0.00013019378
0.00011574094
0.00012995084
0.00014408854
0.00015483969
0.00016319627
0.00017175813
0.00016905558
0.00017076509
0.0001719938
0.00017037175
0.00017013467
0.00016679263
0.00016402373
0.00015947493
0.00015594627
0.00015230003
0.00014893236
0.00014654487
0.00014446356
0.00014390959
0.00014243874
0.00014292143
0.00014281933
0.00014218703
0.00013908272
0.00013389564
0.00012468935
0.00012014732
0.00012284835
0.00013599898
0.00014537456
0.00015635293
0.00016036091
0.00015035986
0.00013581902
0.00011948393
0.0001143357
0.00011771717
0.0001289912
0.00013483187
0.00013983888
0.00014203037
0.0001426118
0.00014314944
0.00014530466
0.00014632989
0.00014831026
0.00015127536
0.00015501987
0.00015904894
0.00016280664
0.0001676739
0.00017094242
0.0001746623
0.00017492348
0.00017791082
0.00017665635
0.00017353583
0.0001727229
0.00016941758
0.00016092291
0.00014899236
0.00013018518
0.00011789327
0.00013315835
0.0001920823
0.00028116061
0.00034686441
0.00035199093
0.00028501603
0.00019116261
0.00013168123
0.0001191532
0.00013767862
0.00015817698
0.00017155123
0.00017907798
0.00018362209
0.00018551452
0.00018777646
0.00018816459
0.00018486304
0.00018382168
0.0001803772
0.00017678965
0.00017141526
0.000167234
0.00016300356
0.00015921643
0.0001556711
0.00015267586
0.00015043068
0.00014919701
0.00014794063
0.00014658514
0.00014320862
0.00013751317
0.00013013592
0.00011791511
0.00011290517
0.0001180691
0.00013463309
0.00015178773
0.00016087658
0.0001645071
0.00015321957
0.0001366985
0.00012036788
0.00011543107
0.00012160114
0.00013560947
0.00014370287
0.00014899746
0.0001524101
0.00015386412
0.00015499646
0.00015673269
0.00015889729
0.00016186932
0.00016531711
0.00016911379
0.00017286583
0.00017681442
0.0001817791
0.00018478578
0.00018816544
0.00018865508
0.00019100505
0.00019027614
0.00018780956
0.00018686
0.00018278309
0.0001750124
0.00016173924
0.00013902075
0.00011786072
0.00012888044
0.00018457449
0.00027982699
0.00034916889
0.00034053084
0.00027088673
0.00017579831
0.00012290862
0.00011139928
0.00013091737
0.00015368727
0.00016658489
0.00017339526
0.00017953657
0.00018205834
0.00018472307
0.00018569633
0.00018562451
0.0001843157
0.00018220038
0.00017938035
0.00017479704
0.00017154755
0.00016821584
0.00016512861
0.00016230691
0.00015982231
0.0001571942
0.00015698989
0.00015584504
0.00015479622
0.00015099105
0.00014621302
0.00013651529
0.00012415389
0.00011660398
0.0001211321
0.00013732583
0.00015579858
0.00016470791
0.00016198733
0.0001517571
0.00013620962
0.00011941114
0.00011453812
0.00012209223
0.00013507613
0.00014344754
0.00014865882
0.00015063748
0.00015116928
0.00015245475
0.0001530008
0.00015429481
0.00015692745
0.00015943445
0.00016218986
0.00016510501
0.00016757222
0.00017117504
0.00017363996
0.00017532105
0.00017627248
0.00017549257
0.00017412705
0.00017185512
0.00016906002
0.00016419279
0.00015904579
0.00014633141
0.00012385777
0.00010526953
0.00011838356
0.0001679585
0.00026255694
0.00033313431
0.00032485514
0.00025536471
0.00016294993
0.00011313271
9.7813978e-05
0.00011645255
0.00013552869
0.00014995068
0.00015472607
0.00015967684
0.00015974333
0.00016462965
0.00016584407
0.00016683219
0.00016590788
0.00016448882
0.00016250529
0.00016009443
0.00015767665
0.00015490742
0.0001526503
0.00015072772
0.00014862774
0.00014765167
0.00014794306
0.00014594927
0.00014600735
0.00014394855
0.00013996021
0.00013093469
0.00011862198
0.00011147255
0.00011565495
0.00013304118
0.00014866821
0.00015876638
0.0001554369
0.00014407528
0.00012951644
0.00011170813
0.00010714621
0.00011453186
0.00012648844
0.00013561305
0.00013978209
0.00014162288
0.00014185493
0.00014193114
0.00014246994
0.00014310703
0.00014522653
0.00014665712
0.00014877198
0.00015153206
0.00015396292
0.00015639539
0.00015830873
0.00016007639
0.00016100529
0.00016022473
0.00015872262
0.00015526657
0.00015309117
0.00014888496
0.00014454875
0.00013368552
0.00011207441
9.3427801e-05
0.00010957237
0.00016200291
0.00025074673
0.00031899898
0.00031399493
0.00024825461
0.000161895
0.0001076421
9.032107e-05
0.00011020339
0.0001318945
0.00014360009
0.00014484957
0.00015012547
0.0001513836
0.00015385259
0.00015602382
0.00015617802
0.00015600267
0.00015402803
0.00015228906
0.00014943505
0.00014704205
0.00014478478
0.00014291688
0.00014124251
0.0001398582
0.00013900832
0.00013846761
0.00013842257
0.00013835885
0.00013633444
0.00013140552
0.00012398916
0.00011100045
0.00010478466
0.00010837457
0.00012583577
0.00014110251
0.00015240852
0.00015015101
0.00013766897
0.000123081
0.00010621572
0.00010247441
0.00010896393
0.00012172589
0.00012924513
0.00013418623
0.00013581727
0.00013600505
0.00013573621
0.00013623359
0.00013716584
0.00013871107
0.00014033763
0.0001422806
0.00014450625
0.00014676358
0.00014939397
0.00015133173
0.0001530772
0.00015342572
0.00015363763
0.00015224742
0.00015015184
0.00014896468
0.00014650644
0.00014343522
0.00013195373
0.00010992691
8.8880467e-05
0.00010631069
0.00016143122
0.00024547662
0.00030861449
0.00030206069
0.00024136218
0.00015973434
0.00010522356
8.7708065e-05
0.0001098903
0.0001319789
0.00014265572
0.00014659493
0.00014843117
0.00014906129
0.00014992129
0.00015101091
0.00015152042
0.0001512384
0.00014946645
0.00014751251
0.00014475349
0.00014239436
0.00014023937
0.00013827882
0.00013664846
0.00013522811
0.00013441362
0.00013411132
0.00013394718
0.00013367802
0.00013214692
0.00012683213
0.00011961266
0.00010722254
0.00010064127
0.00010391918
0.00011997116
0.00013565439
0.00014774313
0.00014546712
0.00013266503
0.00011744894
0.00010215766
9.8759833e-05
0.00010518069
0.00011794418
0.00012481298
0.00012979445
0.00013158602
0.00013178327
0.00013170479
0.00013232294
0.00013295665
0.00013458202
0.00013612471
0.00013818595
0.00014034046
0.00014270573
0.00014544687
0.0001476896
0.00014943467
0.00014998471
0.00015057106
0.0001493257
0.00014854684
0.00014814227
0.00014758971
0.00014322971
0.00013256799
0.00010944134
8.552422e-05
0.00010221722
0.00015710125
0.00023696093
0.00029425188
0.00028642098
0.00023067171
0.00015431684
9.8439999e-05
8.3242225e-05
0.00010735458
0.00013179075
0.00014204814
0.00014654684
0.00014662727
0.00014812048
0.00014722664
0.00014850381
0.00014730076
0.00014666755
0.00014434414
0.00014194338
0.00013961057
0.00013791157
0.00013575115
0.00013372577
0.00013245261
0.00013056259
0.00013048207
0.00013026784
0.00012995637
0.00012901499
0.00012737354
0.00012281702
0.0001140811
0.00010338883
9.6351657e-05
0.00010092188
0.00011262449
0.00013068587
0.00014251395
0.00013873634
0.0001277865
0.00010988263
9.6249957e-05
9.3368485e-05
0.00010063922
0.00011165809
0.00011933927
0.0001255728
0.00012588403
0.00012653518
0.00012639317
0.00012776045
0.00012754477
0.00012962899
0.00013095836
0.00013293526
0.00013551512
0.00013745855
0.0001400912
0.00014128461
0.0001442266
0.0001449085
0.00014651001
0.00014543457
0.00014556782
0.00014423131
0.00014321466
0.00013980731
0.00012894577
0.00010432812
8.0668083e-05
9.5217327e-05
0.00015055958
0.00022424979
0.00027656327
0.00026724843
0.00021713012
0.00014561173
9.0086552e-05
7.7084595e-05
0.00010095509
0.00012580309
0.0001364559
0.00014016613
0.00014141292
0.00014282847
0.00014287056
0.00014335416
0.0001422092
0.00014101081
0.00013934745
0.00013724626
0.00013481593
0.00013250624
0.00013009316
0.00012824365
0.00012667332
0.00012464613
0.00012400391
0.00012379547
0.00012375142
0.00012431529
0.00012259259
0.00011785065
0.00010853937
9.7673264e-05
9.167863e-05
9.4645697e-05
0.00010698194
0.00012474181
0.00013629076
0.00013212303
0.00012160827
0.00010396581
9.1009552e-05
8.8692549e-05
9.4905644e-05
0.00010494233
0.00011346996
0.0001183522
0.0001199363
0.00012042717
0.00012032587
0.00012086285
0.0001211624
0.0001232916
0.00012491087
0.00012683509
0.00012927539
0.00013164621
0.00013448117
0.00013647028
0.00013794657
0.00013883734
0.00014031286
0.00013969235
0.00013875356
0.0001381043
0.00013782142
0.00013381685
0.00012281125
9.7413456e-05
7.3683195e-05
8.3806223e-05
0.00014062602
0.0002098834
0.00025786691
0.00025008389
0.00020345661
0.00013472688
7.8633945e-05
6.9907633e-05
9.3743918e-05
0.00011937651
0.0001316086
0.00013485739
0.00013559486
0.00013572941
0.00013698466
0.00013650998
0.00013591428
0.00013467295
0.00013273884
0.00013071198
0.00012825222
0.00012573499
0.00012333525
0.00012124724
0.0001193093
0.00011804488
0.00011729534
0.00011699696
0.00011683669
0.00011668943
0.00011484717
0.0001101664
0.00010257573
9.1907303e-05
8.7195637e-05
8.828395e-05
0.00010060606
0.00011803939
0.00012910139
0.00012453653
0.0001145021
9.7446504e-05
8.5050819e-05
8.2979234e-05
8.8946848e-05
9.8731962e-05
0.00010617433
0.00011108277
0.00011265802
0.00011306402
0.00011294773
0.00011367414
0.00011425877
0.00011579931
0.00011736058
0.00011949518
0.00012192246
0.0001243637
0.00012708825
0.00012920044
0.00013110025
0.0001321507
0.00013363376
0.00013328539
0.0001322845
0.00013159673
0.0001307548
0.00012726385
0.00011490903
8.9455831e-05
6.6330027e-05
7.4560188e-05
0.00012912862
0.0001937368
0.0002414083
0.0002335314
0.00018852143
0.00012467042
7.0621323e-05
6.2530954e-05
8.5156513e-05
0.00010986923
0.00012254929
0.00012727367
0.00012787356
0.00012828855
0.00012893348
0.0001293222
0.00012880157
0.00012767413
0.00012532398
0.00012308096
0.00012054374
0.00011791252
0.00011557789
0.00011356736
0.00011187135
0.00011045658
0.00010970183
0.00010875142
0.00010888353
0.00010862678
0.00010719362
0.00010288794
9.584192e-05
8.6338871e-05
8.0002431e-05
8.219889e-05
9.3764971e-05
0.00011046866
0.00012106789
0.00011568378
0.000105991
8.9839139e-05
7.8382908e-05
7.6357591e-05
8.2055536e-05
9.134223e-05
9.8458024e-05
0.00010280062
0.0001044988
0.00010489245
0.00010466037
0.00010562713
0.00010610402
0.00010782763
0.0001093466
0.00011153961
0.00011384062
0.00011623602
0.00011898495
0.00012144069
0.0001237607
0.00012520855
0.00012603022
0.00012484796
0.00012397893
0.00012352632
0.0001228158
0.00011822015
0.00010562027
8.0523336e-05
5.8204972e-05
6.5410609e-05
0.00011898499
0.00018289793
0.00022638569
0.00021959093
0.00017710527
0.00011245996
6.1335057e-05
5.3736561e-05
7.5252373e-05
0.00010045275
0.00011226373
0.00011611429
0.0001173152
0.00011926244
0.00012012228
0.000120972
0.00012068353
0.00011910359
0.00011640584
0.00011432045
0.00011191473
0.00010918639
0.00010706345
0.00010519446
0.00010374878
0.00010197959
0.00010186775
0.0001013642
0.00010111803
9.9905773e-05
9.8530315e-05
9.4919403e-05
8.7767561e-05
7.8651179e-05
7.3848901e-05
7.6954808e-05
8.724925e-05
0.00010140061
0.00011269229
0.00010634507
9.6524364e-05
8.127912e-05
7.1303797e-05
7.0446772e-05
7.5021127e-05
8.4221166e-05
8.9796905e-05
9.3165449e-05
9.521005e-05
9.5626076e-05
9.5394922e-05
9.7172184e-05
9.7174873e-05
9.8663961e-05
0.00010025663
0.00010220552
0.00010421178
0.00010686743
0.0001098112
0.00011108743
0.00011489849
0.00011615314
0.00011695408
0.00011588357
0.0001147089
0.00011390195
0.00011308482
0.00010708432
9.6009121e-05
7.1163539e-05
4.9755442e-05
5.8317334e-05
0.00010662815
0.00017166488
0.00021568153
0.00020614277
0.00016512047
9.8585939e-05
5.2541241e-05
4.5592281e-05
6.7038023e-05
9.1139165e-05
0.00010412002
0.00010854797
0.00010964247
0.00011026356
0.00011082389
0.00011113676
0.00011115751
0.00010830503
0.00010702706
0.00010446189
0.00010189046
9.9584493e-05
9.7553406e-05
9.5416711e-05
9.405367e-05
9.2647596e-05
9.1698601e-05
9.1095311e-05
9.09374e-05
9.0336737e-05
8.8482651e-05
8.5573293e-05
7.9841587e-05
7.1397679e-05
6.5100876e-05
6.7475819e-05
7.6856545e-05
9.1535686e-05
0.00010070279
9.5680414e-05
8.6772506e-05
7.250557e-05
6.2970598e-05
6.1170122e-05
6.6518549e-05
7.5452035e-05
8.1311764e-05
8.4431033e-05
8.57714e-05
8.5972513e-05
8.5540047e-05
8.67472e-05
8.7520409e-05
8.9134804e-05
9.063248e-05
9.2565136e-05
9.4501789e-05
9.6778372e-05
9.9213128e-05
0.00010166743
0.00010435966
0.00010558216
0.00010589342
0.00010580689
0.0001054322
0.00010508006
0.00010413328
9.9541144e-05
8.6454853e-05
6.2713697e-05
4.0713759e-05
4.7452787e-05
9.2097106e-05
0.00015943737
0.00020015575
0.00019234409
0.00015349039
8.4877838e-05
4.2833057e-05
3.6886944e-05
5.8718447e-05
8.1656656e-05
9.5425074e-05
9.9686087e-05
0.0001009767
0.00010097862
0.00010134879
0.00010105146
0.0001003315
9.8456962e-05
9.6301876e-05
9.4129376e-05
9.164245e-05
8.9518436e-05
8.7440512e-05
8.5389554e-05
8.3695757e-05
8.2105301e-05
8.1199889e-05
8.0442393e-05
8.0849521e-05
8.0686367e-05
7.9403977e-05
7.6538508e-05
7.0416779e-05
6.2401337e-05
5.6601865e-05
5.8634804e-05
6.7581777e-05
8.1307607e-05
8.9615839e-05
8.42434e-05
7.646913e-05
6.3216445e-05
5.4047124e-05
5.2179499e-05
5.795258e-05
6.5499672e-05
7.1429138e-05
7.4606315e-05
7.5990238e-05
7.6156708e-05
7.576128e-05
7.6095329e-05
7.6749642e-05
7.8281717e-05
8.0041427e-05
8.1978515e-05
8.4238555e-05
8.6342537e-05
8.8812383e-05
9.1184908e-05
9.3514018e-05
9.5319739e-05
9.6277128e-05
9.6323592e-05
9.6544109e-05
9.7098439e-05
9.6084783e-05
9.1310553e-05
7.7139621e-05
5.4303472e-05
3.2032636e-05
3.828003e-05
8.0054952e-05
0.00014857102
0.0001872362
0.00018190253
0.00014358797
7.5423819e-05
3.2724751e-05
2.7318827e-05
5.0039027e-05
7.2606715e-05
8.6746992e-05
9.119797e-05
9.2945301e-05
9.1970586e-05
9.1742743e-05
9.1187077e-05
9.0118279e-05
8.7906014e-05
8.5611591e-05
8.3267334e-05
8.0974578e-05
7.8710901e-05
7.6559551e-05
7.4721893e-05
7.289263e-05
7.1548365e-05
7.0841796e-05
7.0807958e-05
7.0766943e-05
7.0438678e-05
6.8877653e-05
6.6527217e-05
6.0613135e-05
5.2997197e-05
4.7318266e-05
4.9551745e-05
5.8222019e-05
7.0777604e-05
7.7816061e-05
7.2059427e-05
6.5200077e-05
5.3272973e-05
4.4391575e-05
4.261596e-05
4.8116626e-05
5.570892e-05
6.1591009e-05
6.4061399e-05
6.5249096e-05
6.5272728e-05
6.4743513e-05
6.5262778e-05
6.6274605e-05
6.7531438e-05
6.9104342e-05
7.0933399e-05
7.3165348e-05
7.5638249e-05
7.8078894e-05
8.0723374e-05
8.3326562e-05
8.5312886e-05
8.6002543e-05
8.7192797e-05
8.8390915e-05
8.8255778e-05
8.6573766e-05
8.2708066e-05
6.8679878e-05
4.6084116e-05
2.2469535e-05
2.7115098e-05
7.0113562e-05
0.00013931865
0.00017749843
0.00016877465
0.00013301009
6.2803364e-05
2.1478342e-05
1.8920629e-05
4.1830153e-05
6.3773511e-05
7.7142299e-05
8.0764195e-05
8.2573501e-05
8.2595036e-05
8.0759823e-05
8.1002236e-05
7.8843146e-05
7.7169604e-05
7.4385443e-05
7.2201776e-05
6.9627517e-05
6.7167737e-05
6.5294709e-05
6.3360187e-05
6.2676003e-05
6.0783871e-05
5.9902968e-05
6.0726133e-05
6.0761185e-05
5.9831515e-05
5.8779599e-05
5.698783e-05
4.9919225e-05
4.2285192e-05
3.7510125e-05
4.0851859e-05
4.9573908e-05
6.0725017e-05
6.6543388e-05
5.9498788e-05
5.3381359e-05
4.4043939e-05
3.3817479e-05
3.2081656e-05
3.7468635e-05
4.4153005e-05
4.9948716e-05
5.2643577e-05
5.3968416e-05
5.423075e-05
5.4070918e-05
5.4220152e-05
5.516889e-05
5.6328398e-05
5.7767906e-05
5.9293825e-05
6.1448835e-05
6.3642122e-05
6.6233351e-05
6.8361857e-05
7.109472e-05
7.2499781e-05
7.442012e-05
7.4177145e-05
7.5858611e-05
7.6942655e-05
7.6862752e-05
7.2526976e-05
5.8964095e-05
3.6597958e-05
1.2150098e-05
1.5584671e-05
5.5612278e-05
0.0001273842
0.00016373915
0.00014971244
0.00011750683
4.7426083e-05
1.043973e-05
8.8367094e-06
3.2735428e-05
5.4917518e-05
6.7578166e-05
7.1412479e-05
7.1278346e-05
7.0634662e-05
6.9803226e-05
6.8627291e-05
6.6834032e-05
6.5109136e-05
6.2595254e-05
6.0400664e-05
5.8096298e-05
5.5682935e-05
5.3617425e-05
5.1998909e-05
5.0415905e-05
4.9368326e-05
4.8775454e-05
4.8649379e-05
4.8195685e-05
4.8049235e-05
4.7061138e-05
4.4441492e-05
3.8879883e-05
3.1865564e-05
2.6813344e-05
2.8647926e-05
3.9059823e-05
4.7768829e-05
5.253999e-05
4.596224e-05
4.1469456e-05
3.3391785e-05
2.3161643e-05
2.1535453e-05
2.6460498e-05
3.3076879e-05
3.8177823e-05
4.1331942e-05
4.2592277e-05
4.285301e-05
4.2701112e-05
4.3130274e-05
4.3836096e-05
4.4882917e-05
4.6141237e-05
4.7653991e-05
4.9678378e-05
5.2212216e-05
5.4344491e-05
5.6745665e-05
5.8878292e-05
6.0681155e-05
6.3523139e-05
6.4938101e-05
6.5235276e-05
6.6400138e-05
6.674848e-05
6.2769238e-05
5.0188431e-05
2.8131562e-05
4.8253932e-06
5.0241378e-06
3.7993364e-05
0.00010689298
0.00013852189
0.00012721373
9.0477741e-05
3.3125939e-05
2.4608817e-06
2.1234196e-07
2.4033909e-05
4.5354159e-05
5.7173925e-05
6.1199029e-05
6.1677022e-05
6.0193934e-05
5.9149235e-05
5.7980554e-05
5.5486571e-05
5.3030397e-05
5.1100088e-05
4.8739501e-05
4.6413307e-05
4.4028784e-05
4.1835785e-05
4.0228938e-05
3.9143425e-05
3.7930644e-05
3.7243155e-05
3.6977346e-05
3.6818056e-05
3.6435665e-05
3.5150357e-05
3.2078662e-05
2.7390467e-05
2.0471628e-05
1.5169422e-05
1.7825698e-05
2.7487333e-05
3.5365939e-05
3.8447744e-05
3.1719713e-05
2.8837952e-05
2.1702257e-05
1.1690617e-05
9.601687e-06
1.4375498e-05
2.115389e-05
2.6193462e-05
2.9308194e-05
3.0713083e-05
3.1175214e-05
3.0936162e-05
3.1269648e-05
3.1913255e-05
3.3423902e-05
3.441566e-05
3.6063263e-05
3.8007931e-05
4.0362983e-05
4.2666308e-05
4.4949687e-05
4.7145919e-05
4.9126939e-05
5.1864284e-05
5.3466509e-05
5.4606719e-05
5.5886735e-05
5.5829725e-05
5.2192386e-05
4.0308338e-05
1.9640874e-05
-2.8589253e-06
-1.8120271e-06
2.5979728e-05
7.8603043e-05
0.00011256754
0.00010397857
7.4527774e-05
2.0198537e-05
-8.035215e-06
-5.9745787e-06
1.5783206e-05
3.5484974e-05
4.6016779e-05
5.0150328e-05
5.0172781e-05
4.8570191e-05
4.7079389e-05
4.5978479e-05
4.3666328e-05
4.118142e-05
3.9031811e-05
3.6818495e-05
3.4510343e-05
3.2191486e-05
3.0276137e-05
2.8639771e-05
2.7084242e-05
2.5736008e-05
2.537826e-05
2.5054815e-05
2.501517e-05
2.4434104e-05
2.2950251e-05
2.0098269e-05
1.5351284e-05
8.7531364e-06
3.9556799e-06
5.9179238e-06
1.5987871e-05
2.3003708e-05
2.4274003e-05
1.683389e-05
1.5796332e-05
9.6084748e-06
-4.7867319e-08
-2.4012879e-06
1.9398627e-06
8.608441e-06
1.4020442e-05
1.693583e-05
1.8544567e-05
1.910532e-05
1.8864123e-05
1.9215074e-05
1.9843864e-05
2.1138406e-05
2.2411932e-05
2.4307127e-05
2.5984457e-05
2.8187876e-05
3.070642e-05
3.305171e-05
3.5430266e-05
3.7489605e-05
3.9637103e-05
4.0979336e-05
4.2068109e-05
4.4018721e-05
4.4198474e-05
4.0973136e-05
3.0404924e-05
1.1661991e-05
-8.9212099e-06
-1.1439426e-05
1.5122111e-05
6.6598617e-05
9.9137465e-05
8.6866864e-05
5.8026034e-05
9.1647489e-06
-1.5065239e-05
-1.2719449e-05
8.9152522e-06
2.57069e-05
3.4375514e-05
3.6798194e-05
3.6675994e-05
3.5891485e-05
3.3698255e-05
3.2395584e-05
3.0546096e-05
2.7865526e-05
2.6820398e-05
2.4891623e-05
2.1619699e-05
1.9379357e-05
1.8074862e-05
1.6638635e-05
1.5838546e-05
1.3830741e-05
1.3090721e-05
1.3936327e-05
1.3654859e-05
1.2460609e-05
1.0848435e-05
8.2081237e-06
2.8024176e-06
-2.9694035e-06
-6.9512996e-06
-4.7002678e-06
3.8998038e-06
1.1151181e-05
1.0389938e-05
2.7258291e-06
3.364719e-06
-2.5004322e-06
-1.1668521e-05
-1.321992e-05
-8.8805596e-06
-3.0361101e-06
1.7249799e-06
4.2424073e-06
5.9225947e-06
6.2492728e-06
6.9248892e-06
7.8799855e-06
7.0910512e-06
8.6393251e-06
9.7957179e-06
1.174439e-05
1.3133848e-05
1.5386815e-05
1.8197079e-05
2.0029054e-05
2.1872509e-05
2.3556326e-05
2.5086173e-05
2.7195615e-05
2.896203e-05
3.0074595e-05
3.0889005e-05
2.7605825e-05
1.9573194e-05
3.3122161e-06
-1.6538514e-05
-1.9610556e-05
3.7510468e-06
5.0304567e-05
7.7695226e-05
7.1616325e-05
4.3631938e-05
-1.3439635e-06
-2.2777666e-05
-1.9541899e-05
2.8043693e-07
1.5310122e-05
2.1224752e-05
2.3485307e-05
2.2644015e-05
2.1700855e-05
2.0469885e-05
1.8468243e-05
1.6583855e-05
1.4878365e-05
1.4153141e-05
1.1499458e-05
9.678231e-06
7.211662e-06
5.2392257e-06
3.564066e-06
2.8494672e-06
8.7155448e-07
1.4007126e-06
5.5153173e-07
-8.337161e-09
-4.9060119e-07
-2.1492249e-06
-4.7339218e-06
-9.4277025e-06
-1.5257855e-05
-1.9328661e-05
-1.7599813e-05
-8.1928431e-06
-2.8283974e-06
-4.7502137e-06
-1.208415e-05
-1.0088279e-05
-1.479682e-05
-2.3717102e-05
-2.5563964e-05
-2.182419e-05
-1.6104536e-05
-1.0889865e-05
-8.1761123e-06
-6.4792749e-06
-5.8353104e-06
-5.8367471e-06
-4.6807872e-06
-5.9899106e-06
-3.4411348e-06
-2.1182787e-06
-1.0358656e-06
1.3871847e-06
3.4072819e-06
4.6326275e-06
6.3222179e-06
8.2393735e-06
9.2347944e-06
1.079026e-05
1.2621783e-05
1.3660345e-05
1.4709141e-05
1.5758857e-05
1.4565875e-05
9.1914897e-06
-5.6827068e-06
-2.2941905e-05
-2.5403675e-05
-5.8012001e-06
3.7849734e-05
6.5754836e-05
6.4927292e-05
3.2872771e-05
-1.0565631e-05
-3.0304801e-05
-2.6313046e-05
-1.0326303e-05
2.8993438e-06
7.0496987e-06
7.2338426e-06
6.0505419e-06
4.6971459e-06
4.2689139e-06
3.2838928e-06
2.450927e-06
9.3067231e-07
-1.0637487e-06
-2.5078948e-06
-3.5260362e-06
-5.1613567e-06
-7.5556306e-06
-8.9432931e-06
-1.0520604e-05
-1.1531115e-05
-1.1551604e-05
-1.205764e-05
-1.197818e-05
-1.2901162e-05
-1.4893881e-05
-1.8114049e-05
-2.2948521e-05
-2.8175271e-05
-3.1875912e-05
-2.9734429e-05
-2.0740237e-05
-1.6278701e-05
-1.9592488e-05
-2.6819212e-05
-2.3380374e-05
-2.729675e-05
-3.5849377e-05
-3.7749882e-05
-3.4214605e-05
-2.881068e-05
-2.4606297e-05
-2.1739724e-05
-1.9694734e-05
-1.8370497e-05
-1.8758866e-05
-1.8168382e-05
-1.7396661e-05
-1.6226346e-05
-1.579062e-05
-1.3719442e-05
-1.1134562e-05
-1.0369264e-05
-9.9368012e-06
-8.0970415e-06
-6.5881242e-06
-6.3986809e-06
-5.0503933e-06
-4.390052e-06
-3.1087322e-06
-1.4786085e-06
-5.8685551e-07
-9.1554569e-07
-5.4425104e-06
-1.6305474e-05
-2.9351838e-05
-3.2821366e-05
-1.4198787e-05
2.9201651e-05
6.4088167e-05
6.3100207e-05
2.5243738e-05
-1.8547931e-05
-3.7718983e-05
-3.4095069e-05
-2.1641259e-05
-1.3081199e-05
-9.6700326e-06
-9.6504398e-06
-9.9729212e-06
-1.1797154e-05
-1.35247e-05
-1.3788789e-05
-1.3721522e-05
-1.4593318e-05
-1.5901486e-05
-1.6963026e-05
-1.7703833e-05
-1.8753524e-05
-2.0574413e-05
-2.2040023e-05
-2.3147761e-05
-2.3619231e-05
-2.4463251e-05
-2.4606453e-05
-2.4586339e-05
-2.590374e-05
-2.7773569e-05
-3.0414656e-05
-3.5638612e-05
-4.081812e-05
-4.3952365e-05
-4.1748095e-05
-3.305631e-05
-2.9455995e-05
-3.4115813e-05
-4.1951394e-05
-3.7055532e-05
-3.9380395e-05
-4.7544754e-05
-5.0553063e-05
-4.6794144e-05
-4.1440252e-05
-3.6707788e-05
-3.3870614e-05
-3.1925058e-05
-3.1086298e-05
-3.0580158e-05
-3.0675778e-05
-2.9259975e-05
-2.8644594e-05
-2.8474648e-05
-2.729551e-05
-2.5728272e-05
-2.4390286e-05
-2.433082e-05
-2.3522208e-05
-2.2392542e-05
-2.2630544e-05
-2.2815609e-05
-2.1690012e-05
-2.0906591e-05
-1.9973496e-05
-1.8974753e-05
-1.84024e-05
-2.227645e-05
-2.8039242e-05
-3.8506957e-05
-4.0289025e-05
-2.2163069e-05
2.1688285e-05
6.2944796e-05
6.20715e-05
1.8281621e-05
-2.8263424e-05
-4.6101367e-05
-4.5026952e-05
-3.436162e-05
-3.1033093e-05
-2.9565821e-05
-3.2183747e-05
-3.4172055e-05
-3.3303502e-05
-3.2802474e-05
-3.2498649e-05
-3.3167483e-05
-3.1964626e-05
-3.2622848e-05
-3.2087651e-05
-3.1943525e-05
-3.2630483e-05
-3.3814405e-05
-3.3948464e-05
-3.4213347e-05
-3.5877985e-05
-3.6359146e-05
-3.7280763e-05
-3.723014e-05
-3.824842e-05
-4.0212306e-05
-4.3399947e-05
-4.8151368e-05
-5.3663428e-05
-5.5766873e-05
-5.3882792e-05
-4.5823728e-05
-4.3132909e-05
-4.8656177e-05
-5.5285832e-05
-4.9670269e-05
-5.1999144e-05
-5.9389088e-05
-6.0556747e-05
-5.8872579e-05
-5.429188e-05
-4.9845248e-05
-4.6950867e-05
-4.4621659e-05
-4.2922902e-05
-4.3349449e-05
-4.2366674e-05
-4.1913424e-05
-4.0761565e-05
-3.9531421e-05
-3.9481722e-05
-3.9827659e-05
-3.9821948e-05
-3.9601629e-05
-4.0538192e-05
-4.0787135e-05
-4.3226499e-05
-4.4094783e-05
-4.8059068e-05
-4.7076227e-05
-4.6691251e-05
-4.4610094e-05
-4.3367294e-05
-4.3171677e-05
-4.5950661e-05
-5.2125844e-05
-5.2832169e-05
-3.6738342e-05
1.2304315e-05
6.0439674e-05
5.9193895e-05
6.8146231e-06
-4.246471e-05
-6.1318056e-05
-6.2448441e-05
-5.7103744e-05
-5.4724692e-05
-5.603008e-05
-5.7672748e-05
-5.9832829e-05
-6.0245261e-05
-5.9830428e-05
-5.631881e-05
-5.4306208e-05
-5.0631726e-05
-4.8583478e-05
-4.7179922e-05
-4.6203139e-05
-4.593158e-05
-4.5671531e-05
-4.6413593e-05
-4.7479292e-05
-4.8387588e-05
-4.8940455e-05
-4.9537646e-05
-4.9430359e-05
-5.1188369e-05
-5.3030067e-05
-5.5666771e-05
-5.9937404e-05
-6.4526032e-05
-6.6812447e-05
-6.4652194e-05
-5.8456257e-05
-5.5540812e-05
-6.2460782e-05
-6.953342e-05
-6.2777795e-05
-6.5071355e-05
-7.0653411e-05
-7.2783166e-05
-7.0561101e-05
-6.6165615e-05
-6.2398934e-05
-6.0310627e-05
-5.7617507e-05
-5.5778694e-05
-5.5646215e-05
-5.565865e-05
-5.5577472e-05
-5.4499722e-05
-5.3347741e-05
-5.2942696e-05
-5.29559e-05
-5.3613617e-05
-5.504112e-05
-5.7048009e-05
-6.0941018e-05
-6.5494362e-05
-6.7491413e-05
-7.189879e-05
-7.3465491e-05
-7.3720851e-05
-7.1943906e-05
-6.9987721e-05
-6.798723e-05
-7.112001e-05
-7.3189021e-05
-7.0718179e-05
-5.273757e-05
-4.7399836e-07
5.8164797e-05
5.464885e-05
-9.1742828e-06
-6.2344714e-05
-8.2693755e-05
-8.7903485e-05
-8.6834681e-05
-8.3405073e-05
-8.5092389e-05
-8.7240625e-05
-8.8145595e-05
-8.7284624e-05
-8.4682667e-05
-8.0613678e-05
-7.6656726e-05
-7.1341077e-05
-6.6401634e-05
-6.2924724e-05
-6.1117395e-05
-6.0026117e-05
-5.9672661e-05
-6.044215e-05
-6.1315279e-05
-6.1164295e-05
-6.1751701e-05
-6.2071714e-05
-6.2737916e-05