/*--------------------------------*- C++ -*----------------------------------*\
| =========                 |                                                 |
| \\      /  F ield         | OpenFOAM: The Open Source CFD Toolbox           |
|  \\    /   O peration     | Version:  v2012                                 |
|   \\  /    A nd           | Website:  www.openfoam.com                      |
|    \\/     M anipulation  |                                                 |
\*---------------------------------------------------------------------------*/
FoamFile
{
    version     2.0;
    format      ascii;
    class       volScalarField;
    location    "0";
    object      p;
}
// * * * * * * * * * * * * * * * * * * * * * * * * * * * * * * * * * * * * * //

dimensions      [0 2 -2 0 0 0 0];


internalField   nonuniform List<scalar> 
46869
(
0.064623992
0.06835537
0.10513094
0.11352068
0.071260218
0.030461313
-0.06513239
-0.11408691
-0.16273564
-0.16662083
-0.11759398
-0.06168086
0.037822966
0.08290596
0.12774957
0.12052398
0.12201357
0.10509539
0.098800059
0.068572257
0.080371266
0.096570111
0.11944001
0.14650884
0.17652308
0.20762065
0.23925939
0.27131795
0.3037854
0.33675809
0.37046062
0.40445693
0.43846018
0.4723771
0.50590726
0.53932963
0.57195012
0.60640553
0.63239945
0.67030958
0.70049466
0.73680705
0.74652795
0.75932296
0.72154601
0.68333655
0.59153945
0.53692222
0.4768807
0.46472015
0.46695031
0.4648726
0.5166676
0.53017159
0.56583289
0.54240207
0.52658787
0.48382222
0.45687828
0.44112729
0.43472961
0.42344649
0.40636823
0.38687811
0.363948
0.3370582
0.30782264
0.27782898
0.24832669
0.21886915
0.18973215
0.16150507
0.13475973
0.10999798
0.08768754
0.068962968
0.053782097
0.046052291
0.040075099
0.073252401
0.08394345
0.10439187
0.070386949
0.047402188
0.039666358
0.013225112
0.015563424
0.021580231
0.034450703
0.052884345
0.075360506
0.10049337
0.12763908
0.15639572
0.1861781
0.21627273
0.24640947
0.27646385
0.30538369
0.33199532
0.35500283
0.37572574
0.39496923
0.4092257
0.41504373
0.43273686
0.44911299
0.48907993
0.4961038
0.5093284
0.37582161
0.34587698
0.48867835
0.74410525
1.0790517
1.3010484
0.95421545
1.6441033
2.8094166
4.0109989
4.4418546
5.7477375
7.2205815
7.3385752
5.2842617
3.6103059
2.3714913
1.3803282
0.9191206
0.58996065
0.4270766
0.070996355
-0.94259585
-1.5655098
-1.3938072
-1.6654999
-1.1634196
-0.28454682
0.21053064
0.061630676
-1.6096672
-3.2927838
-2.4329136
-2.0974715
-2.217112
-2.1951199
-2.1921128
-2.2188109
-2.269441
-2.3137408
-2.3393151
-2.3549876
-2.3620838
-2.3784887
-2.3919762
-2.3959056
-2.3921968
-2.3923418
-2.394
-2.3914577
-2.3733958
-2.3536882
-2.34032
-2.3184445
-2.2844111
-2.2513884
-2.2246791
-2.1800785
-2.1090305
-2.0634005
-2.0323891
-1.9506248
-1.8269752
-1.516744
-1.8469322
-2.9798858
-3.9912336
-5.4651345
-2.8839641
-2.5156797
-2.4985196
-3.0414386
-4.6234217
-3.1112172
-1.5117609
-1.0427752
-1.3671109
-1.5848877
-1.6187803
-1.4480242
-1.0787974
-1.1248436
-1.1640868
-1.2096464
-1.2396195
-1.1979539
-1.1213039
-1.0449376
-0.95862312
-0.70817927
-0.97377313
-2.065071
-2.5723837
-3.5189742
-1.7491388
-2.2117206
-3.9178311
-2.4210778
-0.60021812
-0.11720746
-0.38683894
-0.50309726
-0.31483073
0.21541081
0.28539507
0.31600743
0.40991632
0.49858513
0.55639346
0.58372215
0.57301685
0.60669508
0.49204706
1.2931606
1.4923726
0.88212891
0.37700864
0.21572077
0.025301538
-0.10364467
-0.14344057
-0.13516667
-0.10429166
-0.069452665
-0.049184607
-0.038928254
-0.033783058
-0.031099417
-0.030040365
-0.029594401
-0.028839494
-0.027867559
-0.026797088
-0.025693911
-0.024617858
-0.023739957
-0.022908489
-0.021727435
-0.019659957
-0.015295187
-0.0060190014
0.01168818
0.040222859
0.076512244
0.11327133
0.14725154
0.15146887
0.11262579
0.053479561
0.01979511
0.031898495
0.021938467
0.0081836276
0.015823677
0.0051781168
0.011085693
0.0019262714
0.0026586395
0.0022268252
0.0038401062
0.0049834972
0.0055707645
0.005720575
0.005748131
0.0057638508
0.0058010692
0.0058728507
0.0059645042
0.0060880133
0.0062000919
0.0061796554
0.0056720273
0.0045921086
0.0030252282
0.0035231732
0.0028669213
0.012068084
0.0061956835
0.016900236
0.0092526683
0.023012234
0.010689372
0.01112599
-0.0097759953
-0.015177027
-0.028573104
-0.028563901
-0.015148974
-0.0097322286
0.011182508
0.010753194
0.023076013
0.0093168154
0.016966357
0.0062614602
0.012134748
0.0029343864
0.003596584
0.0030910559
0.0046657543
0.0057520083
0.006263685
0.0062857481
0.0061770198
0.0060566992
0.0059679403
0.0058943926
0.0058589979
0.005845074
0.0058188232
0.0056696905
0.005082343
0.0039349803
0.0023155303
0.0027562465
0.0020190663
0.011178387
0.0052689671
0.015913917
0.008270364
0.022019516
0.0097118271
0.010142403
-0.010710073
-0.016112948
-0.029504822
-0.029523047
-0.016163084
-0.010780822
0.01005639
0.0096208183
0.011542576
0.013656032
-0.0014990787
-0.010374166
-0.022245555
-0.022227483
-0.010325118
-0.0014291343
0.013739279
0.011632952
0.020116195
0.021978123
0.012026278
0.00034455713
-0.010234629
-0.010253427
0.00029575257
0.011957316
0.021896901
0.020024195
0.021975212
0.029339677
0.021014615
0.0059378283
-0.0054759171
-0.0054564402
0.0059854626
0.021081913
0.029421474
0.022065786
0.022519119
0.028832573
0.020993705
0.0050376537
-0.006761332
-0.0067793589
0.0049926603
0.020929099
0.028752125
0.022428977
0.017755657
0.025198514
0.017031567
-0.00038108218
-0.012818698
-0.012802567
-0.00033842587
0.017095888
0.025278047
0.017846331
0.016724479
0.022416906
0.012805942
-0.0053761937
-0.018241592
-0.018255132
-0.0054157806
0.012745645
0.022338316
0.01663237
0.016295403
0.021445431
0.011158684
-0.0073134025
-0.020332351
-0.020321052
-0.0072753785
0.011219192
0.021523083
0.01638543
0.01767378
0.022323184
0.011717564
-0.0068338485
-0.019857998
-0.019868521
-0.0068714328
0.01165624
0.022243815
0.017580789
0.018586609
0.023173368
0.012501324
-0.0060825589
-0.019089183
-0.01907888
-0.0060451052
0.012563275
0.02325446
0.018681721
0.019209445
0.023760873
0.013073881
-0.0055559147
-0.018587307
-0.018597851
-0.005593225
0.013012454
0.0236819
0.019112782
0.019141881
0.023805481
0.013183177
-0.0054221117
-0.018420129
-0.018407725
-0.0053841242
0.013243997
0.023882948
0.01923761
0.019240387
0.023927767
0.013348402
-0.0052601638
-0.018276587
-0.018290681
-0.005298467
0.013288841
0.023853035
0.019145289
0.019178298
0.023912453
0.013374988
-0.0051949363
-0.018181481
-0.018167438
-0.0051572126
0.013433043
0.023984303
0.019271673
0.019326242
0.024055997
0.013513894
-0.0050707315
-0.018080398
-0.018092411
-0.0051068293
0.013456641
0.023984738
0.019233239
0.019309705
0.024057742
0.013528776
-0.0050392726
-0.018027097
-0.018017025
-0.0050034987
0.0135869
0.024133035
0.019403522
0.019478736
0.024187612
0.013638434
-0.0049582842
-0.017975612
-0.017984805
-0.0049925608
0.01358174
0.02411513
0.019386996
0.019505922
0.024219401
0.013659488
-0.0049378293
-0.017940207
-0.017930867
-0.0049036335
0.013715082
0.024289624
0.019594207
0.019738765
0.024395187
0.013768958
-0.0048730551
-0.017909784
-0.017919871
-0.0049075918
0.013714013
0.024325998
0.019654878
0.019721343
0.02427114
0.013608377
-0.0050208727
-0.018041391
-0.018029232
-0.0049857536
0.013662363
0.024338727
0.019804144
0.019346993
0.023889215
0.013204083
-0.0054263431
-0.018473053
-0.01848685
-0.0054612695
0.013151912
0.023824325
0.019268153
0.018340608
0.02298187
0.012364121
-0.006193733
-0.019213083
-0.019199592
-0.0061602273
0.01241394
0.023044437
0.018413563
0.017176343
0.022274951
0.011928581
-0.006588791
-0.019649394
-0.01966184
-0.0066203013
0.011881411
0.022215364
0.017108149
0.017532842
0.023238321
0.013602251
-0.0045747257
-0.017436094
-0.017425934
-0.0045457161
0.013646759
0.023296589
0.017601673
0.018815169
0.026294969
0.018096411
0.00063080831
-0.011856456
-0.011864519
0.00060351865
0.01805203
0.026238213
0.018749034
0.023464333
0.029842735
0.022013535
0.0060735294
-0.005725689
-0.0057183316
0.0060994678
0.022055528
0.02989747
0.023530308
0.023096615
0.030476698
0.022131425
0.0070143186
-0.0044411914
-0.0044495469
0.0069884535
0.022089061
0.030420723
0.023032189
0.02111252
0.022967569
0.013014127
0.0013265146
-0.0092488667
-0.0092386291
0.001353139
0.013056419
0.023021999
0.021177773
0.012685351
0.014781515
-0.0004302505
-0.0093489988
-0.021269079
-0.021278858
-0.0093759957
-0.00047295781
0.014726184
0.012621556
0.037158557
0.027199088
0.047607455
0.088306093
0.13432328
0.15598154
0.14975318
0.12243372
0.087891073
0.054375077
0.027491828
0.010700812
0.0018918621
-0.0024094089
-0.0048025654
-0.0067726874
-0.0090105506
-0.011806216
-0.015242546
-0.019328171
-0.02402016
-0.029152415
-0.034299912
-0.03847263
-0.041017514
-0.041847513
-0.040914219
-0.038922646
-0.038111352
-0.04311722
-0.061346449
-0.10108407
-0.1650571
-0.24708958
-0.33726884
-0.43229313
-0.53831192
-0.65941834
-0.79223267
-0.93003133
-1.065359
-1.1924146
-1.3067407
-1.4044361
-1.4810243
-1.5311899
-1.5495971
-1.5306072
-1.4696645
-1.3632614
-1.2095964
-1.0167194
-0.80931175
-0.61923796
-0.46753061
-0.3551689
-0.27322305
-0.20871011
-0.14773414
-0.081274314
-0.018628085
0.018496128
0.022792807
-0.0033355691
-0.048501983
-0.021036923
-0.0096768485
-0.0077491955
-0.0083296346
-0.011513226
-0.020153265
-0.019221074
-0.0095270884
0.0074949283
0.029203295
0.054440051
0.082451873
0.11279599
0.14505314
0.17879992
0.21312239
0.24703878
0.27988863
0.31087743
0.34012346
0.36779308
0.3919635
0.41442281
0.43113467
0.44230845
0.43524225
0.42193782
0.40000398
0.39127841
0.52178554
0.73413247
0.99826534
1.1276826
0.81023766
1.5520606
1.6355708
1.5597011
1.2872248
1.6546317
1.842782
2.1413955
2.0112141
2.1399239
2.2076273
2.1824485
1.8946341
2.9532027
4.125085
4.3376429
4.2808336
4.3763862
4.570658
5.0408152
5.1706473
5.2384896
5.0778246
5.2100841
5.7948171
7.0331711
7.1610884
5.4073112
4.0054204
2.3892812
1.5172889
1.4419903
0.57160303
0.53473319
0.096449752
-2.0483661
-3.7578931
-1.6059553
-1.0378891
-0.97277209
-0.29949711
0.13812386
0.44001078
1.1498231
1.7182071
2.2595662
3.7600479
5.6609383
6.7652225
6.5709286
6.3307646
6.6332351
5.8753934
3.8100415
2.5135938
1.5462915
0.99273281
0.51185149
-0.19680966
-0.53347705
-0.81606639
-0.65253631
-0.52106746
-0.97618365
-1.3407424
-0.99510469
0.025885023
0.55101991
0.72536727
-0.18023833
-0.64867294
0.13755765
-0.30954744
-0.6131894
-0.5744375
-1.7396446
-2.9855416
-2.3359364
-2.854504
-2.3207283
-2.3995085
-1.895135
-1.2089091
-0.8023846
-0.65229784
-0.8041031
-0.78996895
-0.46833524
-0.29537874
0.37917304
0.89101765
1.231249
2.8236292
4.6134325
6.942065
6.8315319
6.3411094
5.6457043
6.0989519
6.3183986
6.5563995
5.7304057
5.4647093
5.7242118
5.7749316
5.8453102
5.3640942
5.4366644
5.7961349
6.1180155
5.1332258
3.0056819
1.6625913
0.74819462
0.27624707
-0.092621911
-0.57378091
-0.83616905
-0.91670956
-0.74524192
-0.8708214
-1.3529654
-1.3024412
-1.5869842
-2.1326028
-2.5207328
-2.8415965
-2.3209684
-2.0134806
-2.0164564
-1.9767091
-2.2002068
-2.3331775
-2.180197
-2.1460284
-2.2403516
-2.3198234
-2.328161
-2.3397787
-2.3542553
-2.3620817
-2.3773771
-2.3902645
-2.3954072
-2.392034
-2.3929469
-2.3947393
-2.3917496
-2.3738788
-2.3549008
-2.3413973
-2.319634
-2.2860739
-2.2542528
-2.2296035
-2.1868933
-2.1256703
-2.0981538
-2.0838881
-2.0219898
-2.2744789
-3.703707
-2.0830372
-1.8210973
-1.9264094
-2.1979603
-2.0086533
-2.0234587
-1.9127116
-1.8089095
-1.7374816
-1.5760213
-2.3039332
-4.4620563
-9.1720937
-4.6718564
-2.4155996
-2.1826579
-2.6009256
-2.8110542
-2.5252645
-2.508701
-2.8666704
-3.6076707
-2.9830676
-3.0739475
-2.9805708
-3.0125901
-2.7805883
-2.9382124
-2.8262328
-2.9749126
-2.9379566
-3.0334448
-3.0329432
-3.0805834
-3.0794558
-3.0986272
-3.146002
-3.1538878
-3.1087793
-3.0856301
-3.1371998
-3.1983447
-3.2529252
-3.2882705
-3.2973661
-3.3236227
-3.160732
-3.2017736
-3.1471555
-2.129223
-2.0873472
-2.5193523
-2.9678977
-2.9429133
-3.0309458
-3.0501433
-3.0839364
-3.1323922
-3.1491647
-3.2083585
-3.1961017
-3.2691498
-3.2790338
-3.2867556
-3.1511969
-3.2847446
-3.1147259
-3.2327644
-3.2983581
-2.5583505
-3.0611158
-3.5452898
-3.8243901
-3.8018404
-3.8055287
-3.8398718
-3.8237716
-3.9201496
-3.6467271
-3.7697409
-3.8307668
-2.9052262
-3.4490366
-3.9452098
-3.6488329
-3.8385697
-3.8207489
-3.0048543
-2.9757462
-3.6181297
-4.5272046
-4.2392697
-4.3143061
-3.8314017
-2.8246453
-2.7537448
-2.7583836
-2.8421331
-2.6714912
-2.9412468
-3.4715681
-3.3267218
-3.2279431
-3.2416977
-3.2314979
-3.2091762
-3.2622215
-3.228785
-2.9255965
-2.773341
-2.6055386
-2.4662527
-2.7447858
-1.5061294
0.24987132
2.9033126
3.950949
4.3693992
3.0000534
2.3942965
1.5832296
0.83670393
1.0135174
1.1897045
1.5401725
1.9055008
2.3549468
3.5029515
5.3211595
4.526487
4.3297064
4.2320938
4.6228805
4.738723
5.0188851
5.3154798
7.4290186
5.6396185
3.3043202
3.6803779
4.3033909
3.8549996
4.9545873
3.8542059
1.3491299
-0.36756375
-0.76707435
-2.2165719
-2.5663792
-2.7033619
-2.6541246
-2.8464693
-3.3166483
-3.3044999
-3.2350732
-3.2949922
-3.2963784
-3.2292591
-3.2403274
-3.5489805
-3.7901121
-3.2118777
-3.1017839
-2.6116413
-2.7972472
-2.8061066
-3.18262
-3.9204163
-4.0439098
-3.6604186
-3.839911
-2.9559975
-3.0020459
-3.252195
-3.6217805
-3.1825959
-3.0081378
-3.17694
-2.9527772
-3.4206111
-3.6459171
-2.9926102
-2.8108423
-3.0291551
-2.9317178
-2.913349
-2.8771468
-2.9007197
-3.0157058
-2.901154
-2.5846736
-2.9855166
-3.1668033
-2.6746807
-2.5304312
-2.5717171
-2.3684819
-2.456074
-2.4994566
-2.4891333
-2.4240133
-2.4236401
-2.3671221
-2.347147
-2.2950093
-2.2551693
-2.2442913
-2.2118675
-2.2933355
-2.0591165
-2.2827832
-2.7746727
-3.0949923
-2.7089192
-2.6141422
-2.7123947
-2.6866713
-2.6818295
-2.6305499
-2.5535001
-2.4291111
-2.2899898
-2.3096739
-2.3603958
-2.3404963
-2.3022326
-2.2877191
-2.2884316
-2.256619
-2.255505
-2.1820667
-2.192429
-2.0761784
-2.1364028
-2.0152623
-2.1661837
-2.154414
-2.1898959
-2.0812522
-2.4596831
-2.2347689
-1.6762224
-1.123037
-1.4343419
-1.7238198
-2.2750308
-1.4996091
-1.6914083
-1.6392758
-1.5333869
-1.4984434
-1.4894384
-1.5097669
-1.5340889
-1.5573398
-1.5667159
-1.5731475
-1.570935
-1.5647481
-1.5568522
-1.5477162
-1.5343388
-1.5100553
-1.4660164
-1.4661756
-1.7036717
-1.5271746
-1.4252942
-1.3643331
-1.3346918
-1.3166851
-1.3082955
-1.3036829
-1.3139986
-1.3328674
-1.3927907
-1.546464
-1.7083215
-1.8290825
-2.1815423
-2.0424047
-1.9237781
-1.8454262
-1.7929013
-1.7633263
-1.7374121
-1.7102792
-1.6784438
-1.6339615
-1.6342871
-1.8866452
-1.6990524
-1.5480816
-1.4933137
-1.4925354
-1.5421499
-1.707641
-1.9082376
-2.0780317
-2.5056999
-2.331885
-2.1696084
-2.0593792
-1.9768503
-1.9650069
-2.177383
-1.9555459
-1.9326459
-2.0271625
-2.3330571
-2.770652
-2.4993933
-2.3002905
-2.3188247
-2.5424069
-2.4474368
-2.7056631
-2.9615435
-2.7273128
-2.7431498
-2.8066659
-3.1736148
-2.9786529
-2.9034124
-3.0300683
-3.1080968
-3.1333052
-3.3317265
-3.4662208
-3.5186905
-3.5015867
-3.5079121
-3.4957479
-3.4908962
-3.5261048
-3.5665657
-3.5043657
-3.4178575
-3.2541921
-3.0644187
-3.0836137
-2.876201
-2.4582837
-2.8138692
-1.8415407
-0.28237973
-0.62858528
0.49550066
2.9024598
4.8422779
4.520073
5.9772036
5.0030555
3.3875312
0.43279911
-0.28003948
-1.2875423
-0.38471983
-1.9160129
-2.6217378
-2.8019162
-2.9251062
-2.8164717
-2.9729173
-3.120844
-3.2723171
-3.3164347
-3.3724762
-3.3673559
-3.3128414
-3.2960417
-3.4120471
-3.642533
-3.7832985
-3.1645653
-3.186433
-2.6340172
-2.8997011
-3.1266383
-3.4878664
-3.734431
-3.4531299
-3.0279415
-2.9285209
-2.9827069
-2.8989339
-2.8048739
-2.8027781
-2.6579191
-2.4097695
-2.552222
-2.8298733
-3.0097191
-2.572526
-2.3132038
-1.9414833
-2.071816
-2.0381283
-1.9932109
-1.9112021
-1.8551261
-1.9826791
-2.2295914
-2.5739646
-2.4961659
-2.3000289
-2.1251397
-1.8490049
-1.7550747
-1.6354234
-1.5752453
-1.7292009
-1.752895
-1.7252041
-1.7165491
-1.6975567
-1.6858181
-1.6577829
-1.6167352
-1.5668635
-1.5407457
-1.6854801
-1.9003523
-2.3030704
-2.2035092
-2.0589953
-1.9341074
-1.689588
-1.6470658
-1.6122928
-1.6128362
-1.6077164
-1.5931562
-1.5465768
-1.4556761
-1.3408095
-1.4888194
-1.5165002
-1.4827732
-1.4636984
-1.4505708
-1.4401893
-1.4377244
-1.4213281
-1.4180865
-1.3861152
-1.3912275
-1.3543295
-1.3743294
-1.3380992
-1.3274152
-1.2860262
-1.3165664
-1.3563771
-1.5967383
-1.7507444
-1.5289268
-1.4278719
-1.4251276
-1.2894783
-1.1453429
-0.92310791
-0.9803398
-1.2005054
-0.58640666
-1.6504754
-2.2390507
-2.3267908
-2.4101073
-2.66476
-2.9874347
-2.0947416
-1.0756744
-1.6417939
-1.8784147
-2.0169312
-2.0789399
-2.1468654
-2.2157918
-2.2413083
-2.2572686
-2.2890976
-2.3282037
-2.3439334
-2.3510938
-2.3733018
-2.3999614
-2.3955007
-2.3865257
-2.3869351
-2.3964823
-2.3893758
-2.3739468
-2.3595365
-2.354975
-2.3348701
-2.3084156
-2.2813332
-2.2444641
-2.2726529
-2.2573743
-2.131147
-2.1132655
-2.1483113
-2.0030534
-1.2937961
-1.0537871
-0.035289864
0.93709573
2.0082612
2.5501975
2.6059252
2.2919847
1.6461818
1.0988174
0.80344826
0.570053
0.41658243
0.41835223
0.49544911
0.50072057
0.45816384
0.45426701
0.44582669
0.45887214
0.52263283
0.58337967
0.67376818
0.70273563
0.72771312
0.63009587
0.58133668
0.60513842
0.59975976
0.51805054
0.36152567
0.16009124
-0.067311636
-0.31340794
-0.56951374
-0.82790181
-1.0769284
-1.3044715
-1.4997263
-1.654645
-1.7644324
-1.8276396
-1.8464619
-1.8224459
-1.7589795
-1.6624558
-1.5381666
-1.3918795
-1.2298126
-1.0584201
-0.88409326
-0.71323171
-0.55133939
-0.40290066
-0.27205834
-0.16204688
-0.074684851
-0.0099386499
0.034036792
0.060399877
0.072951458
0.075516102
0.071486692
0.063589558
0.053848046
0.043649739
0.033866528
0.02499431
0.01726172
0.010650108
0.0051094063
0.00060164296
-0.0030352369
-0.0060281307
-0.0084692969
-0.010341702
-0.011505792
-0.011377154
-0.0086126971
-0.00066081126
0.01598084
0.043664994
0.079264398
0.11546788
0.1489779
0.15280501
0.11363445
0.054203355
0.020291284
0.032175627
0.016784745
0.013949407
0.041088655
0.093939343
0.12793408
0.12891671
0.10620766
0.074311178
0.042795628
0.017228398
0.0012360033
-0.0069230523
-0.010020377
-0.010468801
-0.0096555857
-0.0081448395
-0.0060367831
-0.0033503517
-2.7365872e-06
0.0042186016
0.0094668337
0.015813777
0.023308546
0.031958854
0.041604129
0.051823427
0.061833414
0.070339409
0.075397735
0.074320877
0.063646483
0.03934833
-0.0026878077
-0.066003851
-0.15275239
-0.26300417
-0.39468714
-0.54429909
-0.7075953
-0.88006119
-1.056168
-1.229485
-1.39354
-1.541799
-1.6680146
-1.7664258
-1.8316699
-1.8585466
-1.8428163
-1.7810183
-1.6714408
-1.5155191
-1.3174171
-1.0849831
-0.8292335
-0.56318806
-0.29957147
-0.049143196
0.17910947
0.37254188
0.51620623
0.59473509
0.60425217
0.5932126
0.63939745
0.61977828
0.589124
0.61444771
0.60775428
0.53549095
0.40031634
0.21330279
-0.014968728
-0.27425026
-0.55216159
-0.83402759
-1.1038857
-1.3465491
-1.5505407
-1.7084379
-1.8168421
-1.874368
-1.8838556
-1.8517037
-1.7822708
-1.6797473
-1.5494393
-1.3970001
-1.2286983
-1.0512431
-0.87129418
-0.69534291
-0.52905359
-0.37689971
-0.24321955
-0.13228579
-0.046924665
0.013041816
0.050604592
0.070268478
0.076848771
0.074772447
0.067593405
0.05787473
0.047367527
0.037163171
0.027842269
0.019674222
0.012731553
0.0069708415
0.0023128439
-0.0013292838
-0.0040958924
-0.006168749
-0.0076284913
-0.0084556243
-0.0085774926
-0.0075256016
-0.004137472
0.0033125199
0.016819479
0.037646487
0.062620391
0.086545492
0.10230505
0.098841767
0.064481054
0.011666563
-0.015322343
0.0025853704
-0.048654638
-0.068964861
-0.031765781
0.025823398
0.066688807
0.076638861
0.066882306
0.049448503
0.030402242
0.014573254
0.0043369989
-0.0017611763
-0.0050606793
-0.0066419812
-0.0072818209
-0.0072806846
-0.0066704405
-0.005440012
-0.0034946112
-0.00068667239
0.0030890588
0.0079252762
0.013942774
0.021262484
0.029936577
0.039918254
0.05096703
0.062332165
0.072597606
0.079590833
0.079750148
0.067989564
0.03834974
-0.015505581
-0.098417364
-0.21093891
-0.34833823
-0.50446557
-0.67521507
-0.85666689
-1.0430972
-1.2273654
-1.4023565
-1.5611832
-1.6978002
-1.8066434
-1.8825442
-1.9229131
-1.9235397
-1.8740954
-1.769185
-1.6094908
-1.3972378
-1.1384476
-0.84560849
-0.53765707
-0.23703176
0.037449028
0.27269048
0.45904803
0.58478007
0.64197143
0.63514525
0.58851119
0.57487811
0.52002947
0.57476268
0.66441108
0.70294058
0.66879248
0.55307097
0.36324464
0.1136204
-0.18498092
-0.5201645
-0.86819405
-1.1952161
-1.4746069
-1.6948349
-1.8540219
-1.9517543
-1.9887555
-1.9740544
-1.9218541
-1.8373809
-1.7206931
-1.576385
-1.4096552
-1.2256605
-1.0315254
-0.83568821
-0.64675134
-0.47040276
-0.30820575
-0.164162
-0.048814567
0.029451981
0.072703605
0.089705055
0.08991603
0.080591561
0.067176301
0.053314027
0.040418374
0.029209013
0.01990328
0.012346891
0.0063305281
0.0016116675
-0.0020113471
-0.0046814804
-0.0064888356
-0.0075021772
-0.0078352979
-0.0075550364
-0.0067598341
-0.0054873959
-0.0035748985
-0.00062096232
0.0040653187
0.011808915
0.02418791
0.039060276
0.051539295
0.056010432
0.038447128
-0.013340937
-0.081263512
-0.12710312
-0.084176511
-0.12177138
-0.16954647
-0.11254082
-0.037053382
0.021813436
0.044616889
0.043391849
0.033276969
0.020395691
0.0097040559
0.0032695671
-0.00070428425
-0.0034620817
-0.0055907533
-0.0073424155
-0.0087898933
-0.0098052893
-0.010274514
-0.010154364
-0.0093818924
-0.0079186278
-0.0056959453
-0.0025688201
0.0017133782
0.0075139137
0.015290645
0.025988907
0.040248643
0.057468105
0.076526264
0.095516102
0.11021891
0.11218254
0.087541105
0.019852081
-0.097720177
-0.25288574
-0.4259785
-0.61049935
-0.80891207
-1.0172405
-1.224847
-1.419614
-1.5936919
-1.7451868
-1.870265
-1.9658258
-2.0345755
-2.0659909
-2.0439424
-1.9585849
-1.8064724
-1.583324
-1.2817143
-0.90858279
-0.50166818
-0.11587376
0.221482
0.49753329
0.69137185
0.78496087
0.78158084
0.70373421
0.57494067
0.47878691
0.46780523
0.58063168
0.73862822
0.8642146
0.92411305
0.87760338
0.69263238
0.38281048
-0.021260843
-0.49111771
-0.98144139
-1.4085322
-1.7266993
-1.9405443
-2.0722065
-2.1378852
-2.146063
-2.1023351
-2.0137102
-1.899637
-1.7651842
-1.6118586
-1.4349093
-1.2277011
-1.0032766
-0.77884637
-0.56437386
-0.36376631
-0.17739217
-0.010231326
0.1089614
0.1566255
0.15042407
0.12213601
0.090974428
0.063078647
0.040003522
0.022180065
0.0089432073
-0.00031641519
-0.0061085232
-0.0095861602
-0.011787724
-0.013203527
-0.014025527
-0.014341544
-0.014195887
-0.01359307
-0.012520295
-0.011009487
-0.0091564788
-0.0070580188
-0.00463971
-0.0016487322
0.0024997747
0.0090830372
0.019898722
0.032880001
0.04308613
0.044377108
0.021621706
-0.037195175
-0.11264596
-0.16962492
-0.12182203
-0.084317543
-0.12732648
-0.08157126
-0.013748185
0.037895187
0.055301461
0.050644568
0.037912495
0.022749083
0.010003024
0.0018230899
-0.003432368
-0.0070404104
-0.0097599344
-0.012018208
-0.01399473
-0.015702452
-0.0170946
-0.018163524
-0.018972773
-0.019529264
-0.019842049
-0.019934892
-0.01967556
-0.018489891
-0.015537315
-0.010089413
-0.00082082194
0.014239085
0.037618233
0.070716726
0.1157844
0.17547728
0.22827694
0.21760094
0.10248162
-0.074621691
-0.27704085
-0.50619018
-0.7472552
-0.99390858
-1.2373005
-1.4599296
-1.6335652
-1.7721812
-1.9225019
-2.0698089
-2.1709492
-2.2119966
-2.2163093
-2.1814043
-2.0865241
-1.9020137
-1.5854248
-1.1085822
-0.50650251
0.10415826
0.63644867
0.97620453
1.1122624
1.0686751
0.92804743
0.75782462
0.58804561
0.47795433
0.48232018
0.57068532
0.74146289
0.95440071
1.1898168
1.3709544
1.362566
1.0731656
0.2561496
-0.60077651
-1.3189862
-1.8040019
-2.0908885
-2.2277172
-2.2758627
-2.2681938
-2.2430483
-2.2145843
-2.1402284
-1.9584701
-1.7695906
-1.6702778
-1.4792077
-1.2475162
-1.0028222
-0.707076
-0.43373488
-0.17349267
0.06667916
0.25381678
0.33398246
0.28374874
0.17697773
0.083873778
0.032550692
-0.00065539901
-0.019050651
-0.026451431
-0.028750716
-0.028619325
-0.027781628
-0.026760193
-0.025746121
-0.024788702
-0.02383308
-0.022797662
-0.02163842
-0.020363459
-0.01892071
-0.017305012
-0.015481979
-0.013317457
-0.01046274
-0.0061362671
0.00079353452
0.011748793
0.028162284
0.047659428
0.065460437
0.075521796
0.065829654
0.025186417
-0.032244278
-0.069303757
-0.048861752
0.0023367093
-0.015736493
0.011062605
0.063654284
0.097746161
0.10087303
0.084727055
0.060340416
0.03479296
0.013241458
-0.0011620084
-0.0096928155
-0.014400559
-0.017074187
-0.01889545
-0.020353889
-0.021694844
-0.02302216
-0.024302413
-0.025518503
-0.026641474
-0.027676862
-0.028718215
-0.030177745
-0.032780641
-0.037005503
-0.043334487
-0.050575876
-0.056281392
-0.050807343
-0.022369846
0.033073975
0.15403974
0.28995765
0.40499634
0.44652962
0.27863733
-0.049103332
-0.35926499
-0.67929173
-0.87653636
-1.0231683
-1.0980967
-1.1722399
-1.2248448
-1.3029853
-1.3830253
-1.5837154
-1.7766536
-1.7648225
-1.9369789
-2.0693352
-2.207201
-2.3471386
-2.1202981
-2.0846062
-2.0949458
-2.2030385
-2.2683651
-2.3186182
-2.347919
-2.3697028
-2.3678446
-2.3592663
-2.3458766
-2.3057081
-2.2692862
-2.2080151
-2.1118288
-1.9390081
-1.6445293
-1.2338168
-0.76033853
-0.011583951
0.79738237
1.5923727
2.0544297
1.8931102
1.5335445
1.217952
0.91764729
0.67474675
0.50174034
0.46124371
0.5230117
0.55931099
0.56108338
0.55017684
0.55565216
0.58946581
0.63014579
0.65616571
0.65680208
0.63396544
0.63116027
0.61082135
0.58333161
0.5407419
0.49804195
0.46021494
0.42654754
0.39529315
0.3643914
0.33295879
0.30072251
0.26788809
0.23478088
0.20168229
0.16894015
0.13685738
0.10581241
0.076423207
0.049766905
0.027540239
0.012474384
0.0066519219
0.00917713
0.0069990201
0.0037170706
-0.00082829799
-0.014267592
-0.027398346
0.083766996
0.081059777
0.085421184
0.066243635
0.062722977
0.040615128
0.046851663
0.059024697
0.078977789
0.10434205
0.13339974
0.16417655
0.19583748
0.22806722
0.26073023
0.29376113
0.32714113
0.36051788
0.39357428
0.42617186
0.45828701
0.49063356
0.52358025
0.55951312
0.59101353
0.63672653
0.66647514
0.70835706
0.71647897
0.71539644
0.73153836
0.73154144
0.70208125
0.67099013
0.63829627
0.61601771
0.58882555
0.55870674
0.52967179
0.50058383
0.47008875
0.43807513
0.40510649
0.37190187
0.33882103
0.30591082
0.27323035
0.24077894
0.2085327
0.17709081
0.14978764
0.13001861
0.11709516
0.10885754
0.11712032
0.10999516
0.11729023
0.099343777
0.060338912
0.086086513
0.094692952
0.10210981
0.10177998
0.11740135
0.13246748
0.1504725
0.17693719
0.20668725
0.23815373
0.27031562
0.30284327
0.33563507
0.36858415
0.40148176
0.43407824
0.46612468
0.49700514
0.52668315
0.55751338
0.59020777
0.6172548
0.63329119
0.65909307
0.68923074
0.71654458
0.70177233
0.62547735
0.66363454
0.65275907
0.6305172
0.60418152
0.57955399
0.54851304
0.51255615
0.4796386
0.44899791
0.41609854
0.38275789
0.35024895
0.31768908
0.2851969
0.25300091
0.22126537
0.19022235
0.16047261
0.13340124
0.1111133
0.0933974
0.080847701
0.074918363
0.081178635
0.064799278
0.028856922
-0.020978051
-0.077557867
-0.022346656
0.01424086
0.028507924
0.030085217
0.03412945
0.044225157
0.061100169
0.081972066
0.1079121
0.13675959
0.16699476
0.19797575
0.22951499
0.2614447
0.2933653
0.32457098
0.35330349
0.38099703
0.4108268
0.44384839
0.48223683
0.52102039
0.56020238
0.58904162
0.61044313
0.60102981
0.56238732
0.50181101
0.54057977
0.55484053
0.54387242
0.51888816
0.47565968
0.43544897
0.39470012
0.35942455
0.32625634
0.29480045
0.26419646
0.23321745
0.20204034
0.171033
0.14068507
0.11089802
0.081433698
0.052751231
0.026496653
0.0048883667
-0.01288116
-0.017410719
-0.016935317
-0.014129169
-0.022476822
-0.059276159
-0.11971277
-0.11460425
-0.057739343
-0.022445883
-0.012365586
-0.0098693979
-0.011675617
-0.0089597717
0.0068495446
0.029244523
0.057193433
0.087425139
0.11827811
0.14881535
0.17957816
0.21074638
0.24208048
0.27328034
0.30425304
0.33540413
0.36781697
0.40328651
0.4416204
0.47356182
0.50199537
0.52030647
0.52619523
0.51348764
0.48707748
0.48166967
0.50221242
0.51775252
0.50974295
0.49357702
0.47085752
0.44377365
0.40964734
0.37697593
0.34671253
0.31711017
0.28716998
0.25672219
0.22604587
0.19551486
0.16543019
0.13602038
0.107554
0.080818236
0.057273028
0.038680014
0.026905068
0.021189737
0.020860252
0.021339385
0.0091364931
-0.023814992
-0.069339051
-0.024160223
0.019669084
0.052813847
0.065939134
0.054409806
0.053408801
0.059417974
0.070311208
0.085986238
0.10693642
0.1316421
0.15861007
0.18699185
0.2163002
0.24613128
0.27606795
0.30561893
0.33424859
0.36167454
0.3886875
0.41683181
0.44593321
0.46796083
0.4868077
0.50784576
0.52181168
0.5076127
0.48840623
0.52591643
0.53138869
0.51084289
0.4852086
0.46948009
0.45502622
0.43933549
0.41740192
0.39569463
0.37367845
0.3494855
0.32202389
0.2930087
0.26342371
0.23389043
0.20488633
0.17689543
0.15048284
0.12658424
0.1075059
0.093566184
0.083571111
0.07596894
0.073520155
0.079519266
0.076901159
0.069882053
0.050686545
0.086960406
0.10229826
0.090148957
0.092080562
0.079504452
0.080471964
0.084622314
0.096725882
0.11462955
0.13704847
0.16196644
0.18884844
0.21721391
0.24657886
0.27644177
0.30636508
0.33578053
0.36325763
0.38733272
0.40704086
0.42349058
0.4398557
0.45039762
0.45701639
0.46658036
0.49226569
0.52944539
0.53213052
0.51034038
0.52915863
0.50883353
0.50118023
0.49692706
0.50575087
0.56634147
0.62752859
0.69611903
0.71815357
0.72332799
0.67284696
0.63364939
0.59936402
0.60305584
0.58570045
0.55963994
0.52224144
0.48590169
0.45166932
0.41872107
0.38613635
0.35348934
0.32058624
0.28747564
0.25434647
0.2214579
0.18910237
0.15766102
0.12767083
0.099852428
0.075144704
0.05469862
0.040090667
0.031705897
0.0269241
0.015998581
0.00095016666
-0.026883901
-0.049656848
-0.071513866
-0.02679262
0.0050154932
-0.0052020539
-0.065357226
-0.16227397
-0.26305019
-0.36230202
-0.45995699
-0.56051969
-0.66677155
-0.77878854
-0.89389622
-1.0074828
-1.1138614
-1.2070955
-1.2817824
-1.3337106
-1.3603678
-1.3613944
-1.3360842
-1.2859578
-1.2154306
-1.1283498
-1.0290071
-0.92182639
-0.81110587
-0.70080944
-0.59455383
-0.49518015
-0.40464768
-0.32435939
-0.25505457
-0.19681236
-0.1491379
-0.11108946
-0.081436568
-0.058823754
-0.041909185
-0.029459754
-0.020405361
-0.013863091
-0.0091388945
-0.0057106899
-0.0032045486
-0.0013673654
-3.6965107e-05
0.00088526498
0.0014172004
0.0016642972
0.0019692207
0.0030408756
0.0063118247
0.014475608
0.031303571
0.059182874
0.094508956
0.12964652
0.16142371
0.16338473