/*--------------------------------*- C++ -*----------------------------------*\
| =========                 |                                                 |
| \\      /  F ield         | OpenFOAM: The Open Source CFD Toolbox           |
|  \\    /   O peration     | Version:  v2012                                 |
|   \\  /    A nd           | Website:  www.openfoam.com                      |
|    \\/     M anipulation  |                                                 |
\*---------------------------------------------------------------------------*/
FoamFile
{
    version     2.0;
    format      ascii;
    class       volVectorField;
    location    "0";
    object      U;
}
// * * * * * * * * * * * * * * * * * * * * * * * * * * * * * * * * * * * * * //

dimensions      [0 1 -1 0 0 0 0];


internalField   nonuniform List<vector> 
46869
(
(4.9895576 -0.056084052 -0.012809066)
(5.0083386 -0.025000702 0.012341301)
(4.9958298 -0.0082522695 0.05319938)
(4.9852641 -0.0086151737 0.02100532)
(5.0029564 -0.021253181 0.00096560456)
(5.0004697 -0.0002833299 -0.022740401)
(5.0249802 0.0076950076 -0.008844851)
(5.0260326 0.0024813363 -0.034683732)
(5.0394294 0.010889665 -0.03162183)
(5.0397238 -0.002445961 -0.03152342)
(5.0261152 0.0050938479 -0.034501071)
(5.0253828 -0.0011825498 -0.0086947859)
(5.0011374 0.0051223383 -0.022529336)
(5.0036486 0.024211005 0.0011248268)
(4.9860328 0.0096465958 0.021234891)
(4.9965806 0.0092385821 0.053867464)
(4.9932617 0.010987543 0.082655745)
(5.0102494 -0.014838531 0.07259673)
(5.0067734 0.00011193404 0.037249643)
(5.0149706 -0.0029421219 0.0090185559)
(5.0120386 0.0068108268 -0.018325123)
(5.0123543 0.0073992208 -0.030306195)
(5.0106293 0.0088129493 -0.038350892)
(5.0096279 0.0085995933 -0.041795194)
(5.0089731 0.0083588807 -0.04383882)
(5.0087119 0.008080669 -0.045417139)
(5.0085823 0.0079738273 -0.046984446)
(5.0085085 0.0079824701 -0.048429696)
(5.0084498 0.0080773773 -0.049604843)
(5.0083906 0.0082331916 -0.050359088)
(5.0083387 0.0084745194 -0.050533282)
(5.0083014 0.0087953808 -0.049964379)
(5.0083222 0.0092336637 -0.04851127)
(5.0084806 0.0098515593 -0.046059288)
(5.009044 0.010450038 -0.043044827)
(5.0099551 0.011077208 -0.040320422)
(5.0115534 0.01019416 -0.040805096)
(5.0112989 0.010016562 -0.044067467)
(5.0145767 -0.00078780932 -0.06387852)
(5.0044793 0.0021108198 -0.084426853)
(5.008657 -0.013043499 -0.11134513)
(4.9899073 0.015252043 -0.11030694)
(4.9949338 0.012398191 -0.069747362)
(4.9832678 0.013272515 -0.02697598)
(5.0014521 0.034054151 -0.0054180452)
(4.9984163 0.021558812 0.016684095)
(5.021596 0.021340443 0.0037001964)
(5.0210115 0.03213642 0.028069868)
(5.0326473 0.027448672 0.024817195)
(5.0284104 0.034914472 0.026027843)
(5.0185046 0.015191839 0.031713281)
(5.0186974 0.0099525667 0.007128308)
(4.9965033 -0.0061283422 0.021590412)
(5.0019067 -0.029794229 -0.0020094701)
(4.9866536 -0.012891265 -0.023715661)
(4.9986892 -0.013004767 -0.060340193)
(4.991024 -0.016054089 -0.097638336)
(5.0087045 0.01192904 -0.099468069)
(5.0048756 -0.0023730819 -0.073487226)
(5.0094116 0.0028003493 -0.056371485)
(5.0048125 -0.0069585637 -0.044229323)
(5.0047082 -0.0059948149 -0.048051076)
(5.004559 -0.0065994639 -0.051768513)
(5.0043163 -0.0059925288 -0.055923779)
(5.0042148 -0.0055386638 -0.059258444)
(5.004446 -0.0051302572 -0.061459392)
(5.0047709 -0.0049367214 -0.062337387)
(5.0051162 -0.004882127 -0.062164722)
(5.005447 -0.0049191881 -0.06119707)
(5.0057574 -0.0050137823 -0.059644303)
(5.0060604 -0.0051815485 -0.057686975)
(5.0063641 -0.0054170707 -0.055493074)
(5.0067124 -0.0057542309 -0.053202962)
(5.0071837 -0.0062466996 -0.050915901)
(5.0080445 -0.0066817852 -0.048150383)
(5.0092531 -0.00706622 -0.043924052)
(5.0111823 -0.0058274979 -0.035012983)
(5.0109841 -0.005396581 -0.022175689)
(5.0140126 0.0042070737 0.0059226584)
(5.0059054 0.0010409381 0.034805009)
(5.0092848 0.016123708 0.070800319)
(4.9925079 -0.009928036 0.081488625)
(5.0046272 -0.012990899 0.014376184)
(5.0263916 0.0012077979 0.0001652523)
(5.0246032 -0.0022005904 -0.020134645)
(5.0356093 -0.0043570309 -0.035195489)
(5.0333765 -0.010026797 -0.04050386)
(5.0340528 -0.011888188 -0.042438933)
(5.0313392 -0.012247964 -0.043442126)
(5.029092 -0.011965703 -0.04584882)
(5.0271952 -0.011594311 -0.048938768)
(5.0258146 -0.011223456 -0.052139462)
(5.0246561 -0.010921703 -0.055061893)
(5.0236042 -0.010680411 -0.057562114)
(5.0225804 -0.010483155 -0.059576847)
(5.0215513 -0.010322445 -0.061059521)
(5.0204795 -0.010194032 -0.061944101)
(5.0193556 -0.010109919 -0.062120167)
(5.018221 -0.010088018 -0.061389781)
(5.0171669 -0.010140131 -0.059429565)
(5.0164533 -0.010217304 -0.055652037)
(5.015781 -0.010327668 -0.049356162)
(5.0157989 -0.010593494 -0.041021959)
(5.0154727 -0.0093336555 -0.032924334)
(5.0203177 -0.0032686975 -0.027326401)
(5.0116814 -0.003664946 -0.023765146)
(5.0202164 -0.0014453265 -0.023364915)
(5.0025456 -0.016488641 -0.027744164)
(5.0120922 -0.027689138 -0.019592666)
(5.0068102 -0.036746625 -0.0043743977)
(5.0470222 -0.013654964 -0.0060575413)
(5.0290177 0.0094995305 -0.011538707)
(4.9603302 0.02809206 -0.014314434)
(4.8423749 0.058155609 -0.013633081)
(4.6996432 0.096669195 0.0069732726)
(4.6291157 -0.019685209 0.039475548)
(4.7800361 0.05160206 0.085296776)
(4.6902861 0.1307126 -0.027816757)
(4.3565165 0.13881271 0.077858958)
(4.1926348 0.0824686 0.022561874)
(3.8463853 0.072516253 -0.0051719371)
(3.2713617 0.068546481 -0.15846748)
(2.4369477 0.15175447 -0.22132726)
(1.5853345 2.0811557 -0.38457656)
(2.5223254 2.2832282 -0.19219051)
(3.5931274 2.1554763 -0.12005189)
(4.0670429 2.0438908 -0.018624628)
(4.3989068 1.7766887 -0.032720014)
(4.7754916 1.6220099 -0.081778613)
(4.933555 1.5236376 -0.0031056573)
(5.0208491 1.3965477 -0.065178081)
(5.0710151 1.3098847 0.063382329)
(5.230839 1.2028879 -0.060811441)
(5.1398397 1.4320731 0.15381987)
(5.4299092 1.0432637 0.1453139)
(5.5633131 1.0652884 -0.023866977)
(5.5350704 0.97680174 0.0049547914)
(5.5484858 0.88134348 -0.039107648)
(5.6580911 0.80790311 -0.010457173)
(5.8672944 0.83714588 0.01143342)
(6.19628 0.75073277 0.012708255)
(6.0818557 0.78899737 -0.081527437)
(5.9746714 0.65403155 -0.027138234)
(5.9235605 0.55131618 -0.011239671)
(5.8685303 0.64177834 0.040613108)
(5.8167708 0.48918415 0.02367473)
(5.7964273 0.43922182 0.0024289008)
(5.7702565 0.37585169 0.017259882)
(5.773326 0.33490221 0.019280592)
(5.7821396 0.28698297 0.019399226)
(5.7902445 0.24575904 0.018713954)
(5.7948436 0.19784327 0.01853431)
(5.7974706 0.16780664 0.016179845)
(5.8022365 0.1261403 0.01514875)
(5.8021077 0.089001987 0.012856945)
(5.7999588 0.053002894 0.011305738)
(5.7966298 0.032058437 0.0097909993)
(5.7911625 -0.015623046 0.0094163924)
(5.7855892 -0.025925004 0.0069437281)
(5.7791014 -0.071761587 0.0065414357)
(5.7725316 -0.086555432 0.0041110015)
(5.7662948 -0.11856238 0.0035602949)
(5.7597263 -0.14042226 0.0018872614)
(5.753639 -0.16308506 0.00076841101)
(5.746918 -0.18843667 -5.0066429e-05)
(5.7429772 -0.20684324 -0.0013394399)
(5.7423913 -0.23408245 -0.0015321363)
(5.7430657 -0.24821873 -0.0035562158)
(5.7473972 -0.27321653 -0.00046479257)
(5.7728518 -0.3050338 -0.0035481001)
(5.8088701 -0.31246874 0.00072430184)
(5.8460676 -0.32822054 0.021508857)
(5.8845331 -0.31765923 0.012019734)
(5.9331844 -0.28294779 0.11034435)
(5.7013349 -0.23121488 0.040004994)
(5.9534777 -0.61856665 -0.071081205)
(6.5983969 -0.5451629 -0.053604704)
(6.3363568 -0.22596155 0.080862748)
(5.9540488 -0.26473364 -0.08349358)
(5.8389837 -0.37660736 -0.031275636)
(5.7949496 -0.36734537 0.050646295)
(5.8297186 -0.56755706 0.088964626)
(6.1601801 -0.46893716 0.037572887)
(6.0856766 -0.43064481 -0.022655442)
(5.5858226 -0.46890687 -0.10465808)
(5.4572279 -0.50461538 -0.023608322)
(5.4397945 -0.46971268 -0.021464691)
(5.368361 -0.40295962 0.0048925071)
(5.2976001 -0.45144435 0.027239938)
(5.2265147 -0.4239175 0.034481542)
(5.2629293 -0.49603689 0.078560442)
(5.3432071 -0.49163143 0.0048281269)
(5.3456194 -0.51467878 0.0034158874)
(5.3583905 -0.52521283 -0.0012443878)
(5.3717563 -0.53037912 -0.006338007)
(5.3701073 -0.54692062 -0.0094558621)
(5.373812 -0.56026522 -0.011079236)
(5.3867016 -0.54850666 -0.002805352)
(5.3743323 -0.54922155 -0.0043533616)
(5.3869023 -0.53690236 0.070539876)
(5.245749 -0.45294771 0.039196047)
(5.4329166 -0.80827768 -0.065255393)
(5.7993022 -0.68489265 -0.046514205)
(5.6031866 -0.44768818 0.062022828)
(5.3987508 -0.48208499 -0.056093584)
(5.4509065 -0.63671498 0.20515493)
(5.7219582 -0.6066056 0.055265972)
(5.6302399 -0.58904321 -0.05155724)
(5.1730472 -0.56838868 -0.069340497)
(5.0168918 -0.60725053 -0.019769179)
(4.976957 -0.51153831 0.032061972)
(4.9014066 -0.54855718 0.01306985)
(4.7900452 -0.53476652 0.025339201)
(4.7923871 -0.59385345 0.053343468)
(4.8276512 -0.58073465 0.00013640807)
(4.7996894 -0.59547312 -0.0064598283)
(4.7702675 -0.60173688 -0.0097659096)
(4.7561223 -0.61625432 -0.011876868)
(4.7842497 -0.64841839 -0.0040081481)
(4.7980178 -0.62825145 -0.012962806)
(4.9082786 -0.6585108 0.055480562)
(4.9696913 -0.61385747 0.037085538)
(4.8103286 -0.63407458 -0.074951288)
(4.4196935 -0.57071783 -0.03967586)
(4.4773209 -0.045805419 -0.017359944)
(4.7793018 -0.10230856 -0.032981058)
(4.7880509 -0.020363973 -0.016620454)
(4.8359364 -0.069617927 -0.022272475)
(4.915016 -0.047657758 -0.0032903642)
(4.9805878 -0.02437224 -0.0016329513)
(5.007869 -0.0092103604 -0.0043807204)
(5.0111871 -0.0023879863 -0.0033164205)
(5.0039962 0.0024063419 -0.0023691083)
(4.9947417 0.0015661157 -0.0013250335)
(4.9892071 0.00069643515 -0.00097801139)
(4.9864424 0.00018450917 -0.00038684595)
(4.9855689 2.4924958e-05 -0.00010735605)
(4.9856744 -0.00010126432 0.00011992101)
(4.9864266 -0.00018373032 0.00020934772)
(4.9874191 -0.00019211291 0.0002256983)
(4.9884305 -0.00017623634 0.00023099975)
(4.9893832 -0.00014659384 0.00022113643)
(4.9902187 -0.00011028319 0.00019902258)
(4.990894 -6.9240975e-05 0.00016606747)
(4.9913656 -2.162205e-05 0.000119976)
(4.9915775 4.1915918e-05 6.3700831e-05)
(4.9914363 0.00012980913 -1.888683e-05)
(4.9907965 0.00026024653 -0.0001284994)
(4.9894594 0.00044276434 -0.00028079723)
(4.9870688 0.00071010334 -0.00054473672)
(4.9830149 0.0011680426 -0.0009234997)
(4.9765524 0.0017531898 -0.0014772738)
(4.9676747 0.0022782315 -0.0017772617)
(4.9577391 0.0024973455 -0.001576201)
(4.9505411 0.0022296614 0.00035622854)
(4.9501465 0.00092183467 0.0021950266)
(4.9659838 -0.0032676439 0.0071502172)
(4.9964013 -0.0032805689 0.009858971)
(5.034985 -0.0030570327 0.013653617)
(5.0630369 0.0039916344 0.0091576393)
(5.0633341 0.012310313 0.0061009238)
(5.1003697 -0.018178713 0.023686248)
(5.0976947 -0.017557753 0.043457221)
(5.138527 -0.014577906 0.075728675)
(5.1527449 -0.047724475 0.083112235)
(5.1818194 -0.04493663 0.061964997)
(5.1764891 -0.050063234 0.046383409)
(5.1790055 -0.042594808 0.018792216)
(5.1759346 -0.042773763 0.0080650567)
(5.1772624 -0.041715898 -0.00017473535)
(5.1801181 -0.042233328 -0.0019884886)
(5.1827312 -0.042765024 -0.0016966642)
(5.1846263 -0.043131758 -0.00081586329)
(5.1859097 -0.043328461 -0.00020907771)
(5.186738 -0.043438782 7.6579316e-05)
(5.1872335 -0.043491045 0.00012559938)
(5.1874623 -0.043489798 0.00010738103)
(5.1874002 -0.043441716 0.00017768021)
(5.1869971 -0.043332444 0.00046592372)
(5.1861297 -0.043132084 0.0010842004)
(5.1846706 -0.042777381 0.0019853079)
(5.182521 -0.042255873 0.0022985457)
(5.1801958 -0.04174339 0.00048252836)
(5.1793671 -0.042820652 -0.0078371359)
(5.1827059 -0.042636863 -0.018675478)
(5.180515 -0.050093935 -0.046312847)
(5.1860868 -0.044960964 -0.061923065)
(5.157172 -0.047767633 -0.083116077)
(5.1430442 -0.014605987 -0.07574072)
(5.1022437 -0.017586187 -0.043460817)
(5.104961 -0.018209918 -0.023692072)
(5.0676148 -0.033329542 -0.0026266403)
(5.0610909 -0.075723236 0.023947779)
(5.0257885 -0.087575369 0.0023392322)
(5.0106125 -0.059794874 0.023940773)
(4.9857609 -0.031933729 0.017967299)
(4.9857642 0.031928251 0.017966866)
(5.0106183 0.059790237 0.023941988)
(5.0257979 0.087572319 0.0023401951)
(5.0611047 0.075722466 0.023948003)
(5.0676354 0.033329003 -0.0026269359)
(5.1049896 0.018209371 -0.02369461)
(5.1022779 0.01758722 -0.043465419)
(5.1430809 0.01460458 -0.075752231)
(5.1571986 0.04776888 -0.083133585)
(5.1861097 0.044962777 -0.061932547)
(5.1805341 0.050095434 -0.046307088)
(5.1827255 0.042638095 -0.018655586)
(5.1793896 0.042820768 -0.0078069604)
(5.1802202 0.041742544 0.00051725362)
(5.1825488 0.042254075 0.0023316547)
(5.1846974 0.042776661 0.0020136058)
(5.1861562 0.043130499 0.001107026)
(5.1870242 0.043332055 0.00048460311)
(5.1874276 0.043440956 0.00019155987)
(5.1874885 0.043490874 0.00011466513)
(5.1872581 0.043487057 0.00012840473)
(5.1867619 0.043436658 7.7651782e-05)
(5.1859347 0.043325694 -0.00021121795)
(5.1846525 0.043128687 -0.00082500736)
(5.1827583 0.04276208 -0.0017154395)
(5.1801473 0.042231477 -0.0020155746)
(5.1772907 0.041714575 -0.00020541224)
(5.175963 0.042773316 0.008037454)
(5.1790319 0.042595278 0.01877338)
(5.1765164 0.050063964 0.046376598)
(5.1818527 0.044938165 0.061971251)
(5.1527851 0.047726129 0.083125518)
(5.1385821 0.014579052 0.07573823)
(5.0977454 0.01755915 0.043460225)
(5.1004086 0.018176427 0.023686939)
(5.0630714 0.03325421 0.0026354145)
(5.0565413 0.075600953 -0.023922462)
(5.0212746 0.087457858 -0.002334291)
(5.0061117 0.059728651 -0.023910489)
(4.9812722 0.031920354 -0.017938852)
(4.981264 -0.031864379 -0.017936679)
(5.0060933 -0.059690701 -0.023909847)
(5.021254 -0.087440378 -0.0023320603)
(5.0565247 -0.075599145 -0.023919571)
(5.063052 -0.033258873 0.0026364094)
(5.0738079 -0.054272204 0.0078528013)
(5.0554999 -0.093737436 -0.036981541)
(5.014075 -0.11777766 -0.010518573)
(4.9807141 -0.099242381 -0.041229073)
(4.9544113 -0.0381525 -0.034277883)
(4.9544185 0.038193148 -0.034277501)
(4.9807329 0.099275683 -0.04123019)
(5.0140973 0.11779313 -0.010522407)
(5.0555254 0.093743377 -0.036986291)
(5.0738402 0.054275262 0.0078522022)
(5.0972803 0.071964768 0.014022792)
(5.0612703 0.14080213 -0.013729804)
(5.0058194 0.16943646 -0.0056283098)
(4.9552665 0.13812562 -0.012668211)
(4.92474 0.052034311 -0.011018862)
(4.9247319 -0.051981829 -0.011022113)
(4.9552474 -0.13809275 -0.012666725)
(5.0057957 -0.16942213 -0.0056256623)
(5.0612431 -0.14079637 -0.013727006)
(5.0972456 -0.071961837 0.01402037)
(5.1069202 -0.13361385 0.031039272)
(5.0580464 -0.19572435 0.023291335)
(4.9922405 -0.21438215 0.02843859)
(4.9301279 -0.16721548 0.032060172)
(4.8940029 -0.062947634 0.032881903)
(4.8940124 0.062997622 0.032880654)
(4.9301454 0.16724126 0.032056156)
(4.9922622 0.21439199 0.028435536)
(5.0580717 0.19572834 0.02328979)
(5.1069513 0.13361705 0.031042762)
(5.1138185 0.13507677 0.048298813)
(5.0509535 0.21178795 0.052903425)
(4.9717194 0.23392384 0.060462467)
(4.8995681 0.18155656 0.06456631)
(4.8589508 0.068228554 0.06541539)
(4.8589425 -0.068206909 0.065419402)
(4.8995525 -0.18154664 0.064571863)
(4.9716996 -0.23392087 0.060465996)
(5.0509297 -0.21178654 0.0529048)
(5.1137904 -0.1350744 0.048297661)
(5.1065379 -0.14314522 0.048671743)
(5.03922 -0.21529021 0.058491555)
(4.954995 -0.23671008 0.067691887)
(4.8787065 -0.18399153 0.072207156)
(4.8356921 -0.069160358 0.073410132)
(4.8356991 0.069165804 0.073405198)
(4.8787198 0.18398989 0.07220267)
(4.9550132 0.2367075 0.06768914)
(5.0392422 0.21528914 0.058489783)
(5.1065633 0.14314605 0.048668818)
(5.1030655 0.13058002 0.037304577)
(5.0327619 0.20862613 0.048890139)
(4.9462596 0.23360942 0.056197111)
(4.8682429 0.18244049 0.059551689)
(4.8242477 0.068650952 0.06053026)
(4.8242425 -0.06866243 0.060536529)
(4.8682316 -0.18244991 0.059554727)
(4.9462427 -0.23361562 0.056198926)
(5.0327405 -0.20862909 0.048892321)
(5.1030407 -0.13058024 0.037311229)
(5.10057 -0.12963361 0.022286015)
(5.0302181 -0.20618562 0.032215413)
(4.9433889 -0.23152549 0.037207594)
(4.8650805 -0.18105277 0.039139822)
(4.8209269 -0.068149724 0.039655499)
(4.8209294 0.06812196 0.03965191)
(4.8650903 0.18103807 0.039138522)
(4.9434049 0.23151715 0.037206783)
(5.0302395 0.20618116 0.032212933)
(5.1005955 0.12963169 0.022276526)
(5.1019563 0.12781368 0.010701606)
(5.0316051 0.20519224 0.017578713)
(4.9450148 0.23094421 0.020414516)
(4.8670252 0.18057619 0.021282993)
(4.8230939 0.067923014 0.021433479)
(4.8230926 -0.067951402 0.021433712)
(4.867017 -0.18059257 0.02128282)
(4.9449999 -0.23095386 0.020414407)
(5.0315841 -0.20519815 0.017580919)
(5.1019307 -0.12781728 0.010711682)
(5.1051306 -0.12871178 0.0041113868)
(5.0354397 -0.20583664 0.0081444792)
(4.9495114 -0.23127888 0.0096815281)
(4.8720701 -0.18066583 0.010050122)
(4.8284583 -0.067942301 0.010064262)
(4.8284591 0.067912711 0.010064488)
(4.8720775 0.18064854 0.010050821)
(4.9495255 0.23126836 0.0096821824)
(5.0354601 0.20582913 0.0081430488)
(5.1051565 0.12870653 0.0041059034)
(5.1083159 0.12961376 0.0015402295)
(5.0391828 0.20650883 0.0033036951)
(4.9537961 0.23169172 0.0041164164)
(4.8767682 0.18082274 0.0042941664)
(4.8333803 0.067949947 0.0042822715)
(4.8333795 -0.067981646 0.0042807416)
(4.8767611 -0.18084089 0.004293538)
(4.9537827 -0.23170279 0.0041158792)
(5.0391634 -0.20651627 0.0033044791)
(5.108292 -0.1296198 0.0015413855)
(5.1105127 -0.13046221 0.00085339935)
(5.0419132 -0.20723981 0.0013139111)
(4.9569242 -0.23206343 0.0016769183)
(4.8801739 -0.18100078 0.0017817209)
(4.8369346 -0.068020535 0.0017886124)
(4.8369385 0.067999361 0.0017912343)
(4.8801822 0.1809847 0.0017824717)
(4.956938 0.23205255 0.0016771949)
(5.0419323 0.20723235 0.0013135534)
(5.110536 0.13045608 0.00085150204)
(5.1119553 0.13087461 0.00045972042)
(5.0436444 0.20762514 0.00065310196)
(4.9588971 0.2323045 0.00076106569)
(4.8822966 0.18109592 0.00081934422)
(4.8391252 0.068033428 0.00083996609)
(4.8391182 -0.068041925 0.00083855922)
(4.8822866 -0.18110871 0.00081901766)
(4.9588822 -0.23231457 0.00076129616)
(5.043625 -0.20763221 0.00065441923)
(5.1119327 -0.13088034 0.00046411543)
(5.1128145 -0.13107942 0.000252165)
(5.0445944 -0.20779448 0.00035088153)
(4.959956 -0.23243265 0.00039011021)
(4.8834313 -0.18117136 0.00041548018)
(4.8402961 -0.068059874 0.00042561263)
(4.8403029 0.068053636 0.00042392361)
(4.8834408 0.18115997 0.00041417697)
(4.9599698 0.23242462 0.00038911565)
(5.0446118 0.20778861 0.00034119564)
(5.1128364 0.13107404 0.00024474114)
(5.1133504 0.13116438 0.00014387806)
(5.0451537 0.20785676 0.00015384976)
(4.9605412 0.23247368 0.00017946254)
(4.8840367 0.18119042 0.0001840677)
(4.8409107 0.068059186 0.00018502298)
(4.840907 -0.068075601 0.00018800573)
(4.8840292 -0.1811994 0.00018491352)
(4.9605286 -0.23247382 0.00018161867)
(5.0451364 -0.20786422 0.00018699046)
(5.1133276 -0.13117682 0.0001465125)
(5.1135526 -0.13117053 8.9908786e-05)
(5.0453537 -0.20786539 7.4196441e-05)
(4.9607378 -0.23248708 1.6107339e-05)
(4.8842332 -0.18120946 -3.6385377e-06)
(4.8411113 -0.068083754 -6.7003844e-06)
(4.841112 0.068054496 -8.3675743e-06)
(4.8842405 0.18119031 -3.4592288e-06)
(4.9607501 0.23246939 1.3174058e-05)
(5.0453722 0.20786101 4.4302395e-05)
(5.1135754 0.13117558 9.0459128e-05)
(5.1134908 0.13108277 1.0198248e-05)
(5.0452512 0.20781027 -0.00013478444)
(4.9605987 0.23245848 -0.00020332728)
(4.8840613 0.18118446 -0.00023975562)
(4.8409171 0.068053092 -0.00025220999)
(4.8409159 -0.068078875 -0.00025228318)
(4.8840526 -0.18119793 -0.00023992488)
(4.9605827 -0.23246627 -0.00020175031)
(5.0452292 -0.2078148 -0.00012869962)
(5.1134663 -0.13108503 9.125804e-06)
(5.1129963 -0.13089641 -0.0002097098)
(5.0446518 -0.20766647 -0.00047241087)
(4.9598903 -0.23235875 -0.00058472034)
(4.8832806 -0.18114396 -0.00064760718)
(4.8401055 -0.068061226 -0.00066980625)
(4.840107 0.068041831 -0.00066917249)
(4.8832896 0.18113479 -0.00064673474)
(4.9599057 0.2323536 -0.00058449334)
(5.0446722 0.20766324 -0.00047308246)
(5.1130203 0.13089472 -0.0002027774)
(5.1119924 0.13048438 -0.00062160734)
(5.0433837 0.20729674 -0.0011597654)
(4.9583726 0.23212634 -0.0015244497)
(4.8815991 0.18104483 -0.0016317229)
(4.8383435 0.068023922 -0.0016406119)
(4.8383412 -0.068036808 -0.001642875)
(4.881589 -0.18104956 -0.0016337824)
(4.9583567 -0.23212964 -0.0015266851)
(5.043363 -0.2072982 -0.0011630314)
(5.1119687 -0.13048595 -0.00062722601)
(5.1102104 -0.12967348 -0.0013636541)
(5.0410787 -0.20660663 -0.0031835332)
(4.9556794 -0.23179391 -0.0039969803)
(4.8786363 -0.18090417 -0.0041767409)
(4.835242 -0.067991312 -0.0041659472)
(4.8352462 0.067994463 -0.0041627917)
(4.8786467 0.18090503 -0.0041743571)
(4.9556949 0.23179207 -0.0039937139)
(5.0410987 0.2066028 -0.0031775128)
(5.1102351 0.12967038 -0.0013560096)
(5.1075499 0.12877801 -0.0039591599)
(5.0378387 0.20593939 -0.0080201866)
(4.9518739 0.23138746 -0.0095649384)
(4.8743956 0.18074639 -0.0099377373)
(4.83076 0.067967023 -0.0099531737)
(4.8307536 -0.067953435 -0.009954735)
(4.8743847 -0.18074326 -0.0099388335)
(4.9518587 -0.23138859 -0.0095671919)
(5.0378191 -0.20594224 -0.0080257277)
(5.1075262 -0.12878147 -0.0039727645)
(5.1048272 -0.12789575 -0.010588507)
(5.0344451 -0.20531679 -0.017463222)
(4.9478138 -0.23108285 -0.020301228)
(4.8697873 -0.18068694 -0.021172907)
(4.8258375 -0.06797111 -0.02132559)
(4.8258438 0.067980625 -0.021325908)
(4.8697977 0.1806881 -0.02117308)
(4.9478284 0.23108128 -0.020300139)
(5.0344636 0.20531467 -0.017458599)
(5.1048492 0.12789386 -0.010574805)
(5.1039927 0.12974399 -0.022145486)
(5.0336035 0.2063284 -0.032093586)
(4.9467162 0.23167737 -0.037096293)
(4.8683513 0.1811664 -0.039033995)
(4.8241627 0.068185017 -0.039551928)
(4.8241573 -0.068177706 -0.03954858)
(4.8683423 -0.18116727 -0.039032534)
(4.9467031 -0.2316793 -0.037096259)
(5.0335865 -0.20632955 -0.032096824)
(5.1039725 -0.12974416 -0.022156778)
(5.1067059 -0.13068665 -0.037177292)
(5.0363526 -0.2087787 -0.048778227)
(4.9497902 -0.23378076 -0.056095951)
(4.8717218 -0.18257784 -0.05945622)
(4.8276997 -0.068708414 -0.060437127)
(4.8277033 0.068703123 -0.060443225)
(4.8717295 0.18257353 -0.059458896)
(4.9498023 0.23377861 -0.056096965)
(5.0363685 0.20877878 -0.048776604)
(5.1067244 0.13068844 -0.037170236)
(5.1104814 0.14324456 -0.048559054)
(5.0430877 0.21544813 -0.058393962)
(4.9587872 0.23688558 -0.067608918)
(4.8824364 0.18412613 -0.072129523)
(4.8393835 0.069205316 -0.07333459)
(4.8393824 -0.069225785 -0.073330495)
(4.8824304 -0.18413488 -0.072126391)
(4.9587764 -0.23688837 -0.067607151)
(5.0430726 -0.21544724 -0.058393945)
(5.1104637 -0.14324185 -0.048561207)
(5.1179406 -0.13517133 -0.048238882)
(5.0550002 -0.21195397 -0.052808719)
(4.9756884 -0.2341086 -0.060384108)
(4.9034962 -0.18170348 -0.064502079)
(4.8628529 -0.068286649 -0.065355563)
(4.8628534 0.068256007 -0.065353934)
(4.9035009 0.18168864 -0.064504432)
(4.9756982 0.23410365 -0.060386271)
(5.0550148 0.21195449 -0.052810203)
(5.1179593 0.13517427 -0.04824178)
(5.1113118 0.13373087 -0.03101976)
(5.0623816 0.19588852 -0.023203902)
(4.9964984 0.21455854 -0.028377253)
(4.9342958 0.16735311 -0.032008565)
(4.8981281 0.063008946 -0.032831605)
(4.8981261 -0.063037806 -0.032835632)
(4.9342915 -0.16737317 -0.032008371)
(4.9964894 -0.21456704 -0.028376004)
(5.0623675 -0.19588947 -0.023202815)
(5.1112925 -0.13372873 -0.03101368)
(5.1017277 -0.072053294 -0.013988598)
(5.0656987 -0.14095441 0.013796169)
(5.0102027 -0.16961091 0.0056661398)
(4.9595992 -0.1382538 0.012717643)
(4.9290488 -0.052064696 0.011073571)
(4.9290536 0.052050324 0.011073522)
(4.9596044 0.13823516 0.012719609)
(5.0102117 0.16960104 0.0056666963)
(5.0657129 0.14095084 0.013795964)
(5.1017498 0.072051016 -0.013994918)
(5.0783593 0.054357006 -0.0078270302)
(5.0600344 0.093870964 0.037040793)
(5.0185689 0.11793342 0.010548919)
(4.9851747 0.099370463 0.041295493)
(4.9588387 0.038207192 0.034340913)
(4.958835 -0.038224919 0.034343193)
(4.9851692 -0.09938508 0.041292915)
(5.0185596 -0.11794223 0.010547218)
(5.0600198 -0.093874802 0.037040743)
(5.0783372 -0.054357052 -0.0078239053)
(5.0483694 0.0072645739 -0.0011033388)
(5.0839652 0.0070076738 -0.021882569)
(5.0632429 -0.0030216364 -0.029776269)
(5.0282682 -0.0096953559 -0.033601252)
(4.9959728 -0.0087379168 -0.022250879)
(4.9737177 -0.0049391255 -0.016013994)
(4.9614718 -0.0011371648 -0.0063803919)
(4.9590173 0.0025626739 -0.0014604335)
(4.9648736 0.004364273 0.002685988)
(4.9742001 0.0038461563 0.0046253846)
(4.9838036 0.0028440186 0.0043062951)
(4.9911331 0.0015985452 0.0032407595)
(4.9960971 0.00091809026 0.0024108484)
(4.9994415 0.00052767531 0.0019006995)
(5.0017415 0.00029531143 0.0015711799)
(5.003443 0.00015321802 0.0013917388)
(5.004797 6.180839e-05 0.0013145953)
(5.005959 3.2593182e-06 0.0013073073)
(5.0070113 -5.0084694e-05 0.0013338803)
(5.0079945 -9.4070724e-05 0.0013891505)
(5.0089279 -0.0001422081 0.0014545961)
(5.0097908 -0.00020307575 0.001512557)
(5.0105209 -0.00029106353 0.0015435063)
(5.0109983 -0.00043751912 0.0015325095)
(5.0112243 -0.00072217592 0.0021978144)
(5.0113898 -0.0011323196 0.0035041964)
(5.0117652 -0.0017223638 0.005769187)
(5.0128102 -0.0025348152 0.0094103694)
(5.0152929 -0.0036123639 0.01479036)
(5.0203067 -0.004931632 0.021984859)
(5.0291114 -0.0063509468 0.03034229)
(5.0425267 -0.0075686588 0.03804375)
(5.0599711 -0.0081915738 0.042417042)
(5.0790857 -0.0079656032 0.041666987)
(5.0971008 -0.0070021272 0.03685695)
(5.1126311 -0.0056365676 0.030693695)
(5.1268139 -0.0043531659 0.026587427)
(5.1420056 -0.0036956482 0.027279191)
(5.1587056 -0.0032326275 0.027171959)
(5.1758812 -0.0027777359 0.025977428)
(5.1925801 -0.0022672032 0.02369816)
(5.207993 -0.0016768411 0.020386079)
(5.22142 -0.0010050362 0.016146667)
(5.2322808 -0.00025893992 0.011107998)
(5.2400062 0.00056805967 0.005250498)
(5.2439643 0.0014395233 -0.001688551)
(5.2438766 0.0023290234 -0.0082097908)
(5.2394928 0.0032978403 -0.015621001)
(5.2306321 0.0043799941 -0.023243482)
(5.217083 0.0058032087 -0.03295821)
(5.1979097 0.0076281482 -0.043889862)
(5.17302 0.0089309196 -0.05253591)
(5.1446648 0.0092693636 -0.055641637)
(5.116583 0.0085070592 -0.052215129)
(5.0917838 0.0067836861 -0.044272831)
(5.0709029 0.0043659841 -0.034996365)
(5.053087 0.0021209504 -0.026472235)
(5.0373421 0.00017881477 -0.019579528)
(5.0208559 -0.0019706603 -0.017029436)
(5.0016745 -0.0027509051 -0.016265636)
(4.9845934 -0.0019058284 -0.012681845)
(4.9778328 0.0010525653 -0.0022105711)
(4.9817854 0.004342927 0.0077787218)
(4.9938495 0.0075344801 0.012246574)
(5.0123384 0.0072291178 0.022433828)
(5.0239007 -0.0072143699 0.018035121)
(5.021585 0.01058915 0.017618915)
(5.0245157 0.020016705 -0.0018366091)
(5.0263124 0.016891328 -0.019063473)
(5.0312232 0.015979697 -0.029707242)
(5.0335265 0.014211014 -0.037178313)
(5.0343233 0.013148138 -0.041542657)
(5.0329509 0.012940587 -0.044519465)
(5.0308106 0.013071783 -0.047532877)
(5.0285082 0.013297289 -0.050666653)
(5.0263311 0.0135398 -0.053725054)
(5.0242987 0.013775325 -0.056520236)
(5.0223683 0.01399852 -0.0589433)
(5.0204762 0.014218985 -0.060930954)
(5.0185532 0.014451359 -0.062431869)
(5.0165188 0.014711216 -0.063373437)
(5.0142952 0.015005523 -0.063621826)
(5.0118303 0.015365944 -0.062961312)
(5.0090542 0.015853029 -0.061086485)
(5.005857 0.016574285 -0.05758536)
(5.0023536 0.01767798 -0.052490484)
(5.001574 0.01789892 -0.046329685)
(4.9995552 0.018157427 -0.038723204)
(4.9975129 0.019853485 -0.029619814)
(4.9923922 0.020642545 -0.023524048)
(5.002593 0.019589375 -0.021469465)
(5.0122023 0.010199235 -0.020617974)
(5.0268647 -0.0039633045 -0.016363888)
(5.0036946 0.016626585 -0.029034149)
(4.9406015 0.028064174 -0.036876077)
(4.842586 0.049848742 -0.036984623)
(4.7101615 0.076471209 0.01369795)
(4.5942074 -0.017671448 0.052049425)
(4.643968 -0.024200209 0.13909393)
(4.4592612 0.0014096774 -0.0081030125)
(4.4727448 0.028204724 -0.06365465)
(4.4672501 0.013234112 -0.17494235)
(4.6319724 0.069218444 -0.2328912)
(4.5448829 0.020913028 -0.39470486)
(4.2997421 0.15042853 -0.40646335)
(4.2521446 0.027337034 -0.26061119)
(4.2447234 0.094386785 -0.27502216)
(4.2368574 0.046549519 -0.26244423)
(4.2369542 0.056186871 -0.19599483)
(4.2690006 0.06567888 -0.14739163)
(4.5271631 0.15172535 -0.088827778)
(3.972375 0.15140462 -0.049228001)
(3.6379977 0.13937681 -0.097994036)
(3.4155814 0.14487503 -0.16700897)
(3.5475846 0.13807584 -0.17026005)
(3.5309138 0.031554958 -0.44515814)
(3.3888321 0.12536278 -0.51934311)
(3.1282198 -0.016289984 -0.43550449)
(2.9924056 -0.0049902651 -0.38609199)
(3.0134433 0.051454042 -0.43849084)
(3.2379269 0.023604154 -0.50364283)
(3.0065672 0.066580685 -0.46907506)
(2.9627051 0.010616029 -0.47665077)
(2.4826924 0.15233738 -0.55602815)
(1.6894651 1.7952966 -0.73366195)
(2.4359881 2.3421082 -0.42155709)
(3.6712531 2.2319502 -0.4002197)
(4.157045 2.134373 -0.074820445)
(4.3925432 1.9862602 0.026987907)
(4.9214102 1.6938355 -0.22613478)
(4.9490432 1.6282199 -0.098755014)
(5.0492895 1.4410634 0.042952683)
(5.2262753 1.3430891 0.075695286)
(5.3214796 1.3425546 -0.15692062)
(5.7590293 0.96326974 0.40938696)
(5.435867 1.1177898 0.086083582)
(5.4826468 1.1699611 0.32602445)
(5.3872181 1.4584265 -0.12605336)
(5.3856535 1.3779578 0.10253775)
(5.174799 1.5217248 0.16370439)
(5.0439244 1.6407776 -0.17705057)
(4.6526745 1.8948356 -0.052300923)
(4.3537836 1.8998956 -0.059677229)
(4.1062208 2.0675279 -0.22034784)
(3.3931577 2.3886543 -0.37803574)
(2.4051552 2.0822183 -0.70741398)
(1.8718206 1.6496605 -0.90347734)
(2.8792278 0.14203542 -0.67584412)
(2.8810807 0.083558537 -0.64453719)
(1.8947852 1.5161797 -0.98803857)
(2.4505321 1.80568 -1.0870096)
(3.1925026 2.3446401 -0.39577482)
(3.9544971 1.9820511 -0.31434282)
(4.3855026 2.0611536 -0.27127178)
(4.5890458 1.8846596 0.026375241)
(5.0288005 1.5732773 -0.10871905)
(5.230383 1.6349089 0.1142992)
(5.3281029 1.4167857 0.099427627)
(5.4127034 1.2705709 -0.14870833)
(5.312488 1.1302064 0.31532457)
(5.5259201 0.96436054 0.10140191)
(5.549559 1.1251862 0.022890013)
(5.4911669 1.2041347 -0.033429711)
(5.4892351 0.87043319 -0.032754199)
(5.5175751 0.93534412 -0.03289219)
(5.5513277 0.88620059 0.083805404)
(5.7543773 0.73119449 0.01569705)
(5.9400399 0.76293483 0.15292969)
(5.8708767 0.8434596 0.20002788)
(5.5517952 0.83576927 0.12065007)