/*--------------------------------*- C++ -*----------------------------------*\
| =========                 |                                                 |
| \\      /  F ield         | OpenFOAM: The Open Source CFD Toolbox           |
|  \\    /   O peration     | Version:  v2012                                 |
|   \\  /    A nd           | Website:  www.openfoam.com                      |
|    \\/     M anipulation  |                                                 |
\*---------------------------------------------------------------------------*/
FoamFile
{
    version     2.0;
    format      ascii;
    class       volScalarField;
    location    "300";
    object      k;
}
// * * * * * * * * * * * * * * * * * * * * * * * * * * * * * * * * * * * * * //

dimensions      [0 2 -2 0 0 0 0];


internalField   nonuniform List<scalar> 
229912
(
0.37305474
0.37305356
0.37417083
0.37415325
0.37416556
0.37415578
0.3741745
0.37416515
0.37417619
0.37417286
0.37417476
0.37417355
0.37417319
0.37417292
0.3741729
0.37417291
0.37417293
0.37417295
0.37417295
0.37417296
0.37417296
0.37417296
0.37417296
0.37417296
0.37417296
0.37417295
0.37417295
0.37417293
0.37417291
0.3741729
0.37417292
0.37417319
0.37417355
0.37417476
0.37417286
0.37417619
0.37416515
0.3741745
0.37415578
0.37416556
0.37415325
0.37417083
0.37416484
0.37418958
0.37418137
0.37419399
0.37418954
0.37419124
0.37418937
0.37418885
0.37418845
0.37418843
0.37418846
0.3741885
0.37418854
0.37418856
0.37418857
0.37418859
0.3741886
0.37418861
0.37418862
0.37418863
0.37418864
0.37418865
0.37418866
0.37418867
0.37418868
0.37418869
0.3741887
0.37418871
0.37418872
0.37418873
0.37418873
0.37418874
0.37418875
0.37418875
0.37418876
0.37418876
0.37418877
0.37418877
0.37418878
0.37418878
0.37418878
0.37418879
0.37418879
0.37418879
0.37418879
0.37418879
0.37418879
0.37418879
0.37418879
0.37418879
0.37418879
0.37418879
0.37418879
0.37418878
0.37418878
0.37418878
0.37418877
0.37418877
0.37418876
0.37418876
0.37418875
0.37418874
0.37418874
0.37418873
0.37418872
0.37418871
0.3741887
0.37418869
0.37418868
0.37418867
0.37418866
0.37418865
0.37418863
0.37418861
0.37418857
0.37418853
0.3741885
0.37418852
0.37418892
0.37418944
0.37419131
0.37418961
0.37419406
0.37418144
0.37418965
0.37416491
0.3741709
0.37415333
0.37416565
0.37415592
0.37417472
0.37416548
0.37417666
0.37417352
0.37417563
0.37417466
0.37417456
0.37417457
0.37417485
0.37417516
0.37417549
0.37417581
0.37417611
0.37417639
0.37417664
0.37417686
0.37417704
0.37417716
0.37417723
0.37417723
0.37417716
0.37417702
0.3741768
0.37417653
0.37417623
0.37417613
0.37417609
0.37417687
0.37417456
0.37417749
0.37416611
0.37417517
0.37415626
0.3741659
0.37415354
0.37417111
0.37416515
0.37418992
0.37418178
0.37419447
0.37419011
0.3741919
0.37419013
0.37418972
0.37418942
0.3741895
0.37418963
0.37418976
0.37418988
0.37418998
0.37419006
0.37419013
0.37419019
0.37419024
0.37419028
0.37419032
0.37419035
0.37419039
0.37419048
0.37419065
0.37419094
0.37419139
0.37419202
0.37419282
0.37419377
0.37419482
0.37419593
0.37419706
0.37419816
0.37419918
0.37420001
0.3742002
0.37420019
0.37420015
0.37420011
0.37420007
0.37420003
0.37419999
0.37419995
0.37419992
0.37419988
0.37419985
0.37419981
0.37419978
0.37419974
0.3741997
0.37419965
0.37419938
0.37419848
0.37419739
0.37419622
0.37419503
0.37419384
0.37419273
0.37419172
0.37419086
0.37419018
0.37418969
0.37418936
0.37418916
0.37418904
0.37418898
0.37418893
0.3741889
0.37418886
0.37418883
0.3741888
0.37418877
0.37418873
0.37418869
0.37418864
0.37418857
0.37418853
0.37418853
0.37418892
0.37418942
0.37419128
0.37418957
0.37419401
0.37418138
0.37418959
0.37416484
0.37305677
0.37307901
0.37307872
0.37309124
0.3730902
0.37309159
0.37308981
0.3730887
0.37308789
0.37308761
0.37308754
0.37308757
0.37308764
0.37308772
0.37308779
0.37308787
0.37308794
0.37308802
0.3730881
0.37308818
0.37308828
0.3730884
0.37308857
0.37308884
0.37308925
0.37308982
0.37309058
0.37309152
0.37309262
0.37309381
0.37309507
0.37309634
0.37309755
0.37309864
0.37309947
0.3730998
0.37309993
0.37310002
0.37310011
0.3731002
0.37310028
0.37310038
0.37310046
0.37310054
0.37310065
0.37310075
0.37310084
0.37310094
0.37310103
0.37310113
0.37310118
0.37310102
0.37310036
0.37309945
0.37309841
0.37309731
0.3730962
0.37309517
0.37309423
0.37309343
0.3730928
0.37309234
0.37309205
0.37309188
0.37309178
0.37309171
0.37309168
0.37309162
0.37309154
0.37309144
0.37309133
0.3730912
0.37309103
0.37309085
0.37309065
0.37309047
0.37309038
0.3730905
0.37309112
0.37309205
0.37309365
0.37309208
0.37309296
0.37308031
0.37308049
0.3730582
0.37305495
0.37303646
0.3718617
0.37058917
0.36927284
0.36791833
0.36656611
0.36522646
0.3639107
0.36262364
0.36137012
0.36015679
0.35899362
0.35789514
0.35688242
0.35598637
0.35525211
0.35474587
0.35454894
0.35471669
0.35519202
0.35608166
0.35752323
0.35973906
0.36299305
0.36781527
0.37478771
0.289766
0.29083622
0.29188038
0.29290205
0.29390544
0.29489271
0.29586727
0.29683138
0.29778649
0.29873389
0.29967504
0.300611
0.30154247
0.30247016
0.30339429
0.30431476
0.30523166
0.30614496
0.30705448
0.3079601
0.30886183
0.30975984
0.31065453
0.31154656
0.31243684
0.31332655
0.31421714
0.31511022
0.31600752
0.31691081
0.31782181
0.31874209
0.31967307
0.3206159
0.32157152
0.32254061
0.32352359
0.3245207
0.32553196
0.32655725
0.32759634
0.32864891
0.3297146
0.33079299
0.33188367
0.33298624
0.33410031
0.33522552
0.33636153
0.33750805
0.33866481
0.33983157
0.34100815
0.34219436
0.34339008
0.34459517
0.34580955
0.34703316
0.34826593
0.34950784
0.35075885
0.35201899
0.35328824
0.35456664
0.3558542
0.35715101
0.35845717
0.35977288
0.3610985
0.36243463
0.3637821
0.36514138
0.36651115
0.36788521
0.36925109
0.37058385
0.37186014
0.37186387
0.37187938
0.37188464
0.37189474
0.37189634
0.37189714
0.37189556
0.37189404
0.37189289
0.37189232
0.37189209
0.37189207
0.37189213
0.37189223
0.37189235
0.37189247
0.3718926
0.37189272
0.37189285
0.37189299
0.37189313
0.37189331
0.37189356
0.3718939
0.3718944
0.37189506
0.37189593
0.37189697
0.37189817
0.37189948
0.37190083
0.37190218
0.37190346
0.37190457
0.3719054
0.37190581
0.37190602
0.37190617
0.37190633
0.37190647
0.37190662
0.37190676
0.37190691
0.37190707
0.37190723
0.3719074
0.37190756
0.37190773
0.3719079
0.37190805
0.37190815
0.37190804
0.37190752
0.37190671
0.37190573
0.37190466
0.37190359
0.37190256
0.37190164
0.37190084
0.37190023
0.3718998
0.37189951
0.37189935
0.37189927
0.37189924
0.37189921
0.37189917
0.37189909
0.371899
0.37189886
0.3718987
0.37189851
0.3718983
0.3718981
0.37189796
0.37189799
0.37189836
0.37189928
0.37190057
0.37190191
0.37190089
0.37189909
0.37188882
0.37188343
0.37186785
0.37186409
0.37059284
0.36926892
0.36791726
0.36656466
0.3652259
0.36391016
0.36262279
0.36136878
0.3601548
0.35899068
0.35789076
0.35687583
0.35597639
0.35523698
0.3547232
0.35451529
0.35467211
0.355133
0.35600331
0.35742484
0.35962191
0.36294641
0.3680882
0.37643965
0.37576294
0.3675838
0.36257261
0.35933382
0.35721007
0.35584201
0.3550114
0.35458021
0.35444659
0.35467695
0.35520635
0.35595629
0.35686264
0.35788212
0.35898504
0.36015108
0.36136623
0.36262081
0.36390821
0.36522352
0.36656165
0.36791444
0.36926698
0.37059497
0.37060497
0.36927235
0.36791686
0.36656247
0.36522355
0.3639077
0.36261952
0.36136361
0.36014636
0.35897712
0.35786943
0.35684284
0.35592579
0.35515961
0.35460553
0.35433968
0.35443127
0.35482098
0.35559117
0.35687004
0.35885873
0.36187982
0.36650381
0.37369255
0.37505998
0.36761084
0.36277103
0.35953223
0.3573688
0.35596431
0.35510436
0.35465078
0.35449977
0.35471252
0.35522945
0.3559709
0.35687161
0.35788731
0.35898768
0.360152
0.36136598
0.36261981
0.36390683
0.36522202
0.36656006
0.36791166
0.36926228
0.37058482
0.37185569
0.37304687
0.3730419
0.37305415
0.37305047
0.37306132
0.37306216
0.37306528
0.37306552
0.37306587
0.37306623
0.37306676
0.37306727
0.37306769
0.37306798
0.37306811
0.37306807
0.37306791
0.3730676
0.37306719
0.37306667
0.37306608
0.37306543
0.37306473
0.37306401
0.3730633
0.37306266
0.37306215
0.37306196
0.37306189
0.37306202
0.37305933
0.37305895
0.37304852
0.37305256
0.37304058
0.37304573
0.37303541
0.37185872
0.37058233
0.36925922
0.36789365
0.36652458
0.36516018
0.36380911
0.36247242
0.36114979
0.35984064
0.3585448
0.35726236
0.35599354
0.35473869
0.35349816
0.35227235
0.35106165
0.34986646
0.3486871
0.34752391
0.34637712
0.34524692
0.34413339
0.34303648
0.34195606
0.34089182
0.33984334
0.33881001
0.3377911
0.33678571
0.33579283
0.3348113
0.3338399
0.3328773
0.33192218
0.33193413
0.33288809
0.33384959
0.33481993
0.33580046
0.3367924
0.33779691
0.33881502
0.3398476
0.34089541
0.34195904
0.34303893
0.34413536
0.34524847
0.34637829
0.34752475
0.34868766
0.34986674
0.35106168
0.35227215
0.35349772
0.354738
0.35599259
0.35726109
0.3585432
0.35983866
0.36114741
0.36246965
0.3638058
0.36515597
0.36651854
0.36788687
0.36924848
0.37057781
0.37185256
0.37184484
0.37056838
0.3692359
0.36787501
0.36650792
0.36514741
0.36379905
0.36246433
0.36114317
0.35983528
0.35854054
0.35725904
0.35599108
0.35473699
0.35349717
0.35227205
0.35106206
0.34986762
0.34868908
0.34752679
0.34638102
0.34525199
0.34413977
0.34304437
0.34196562
0.34090329
0.33985693
0.33882594
0.33780958
0.33680696
0.33581705
0.3348387
0.33387065
0.33291157
0.33196011
0.33200325
0.33295052
0.33390559
0.33486982
0.33584458
0.33683112
0.33783062
0.33884411
0.33987248
0.34091648
0.3419767
0.34305356
0.34414731
0.34525808
0.34638587
0.34753055
0.3486919
0.34986962
0.35106333
0.35227267
0.35349719
0.35473644
0.35598996
0.35725734
0.35853819
0.35983223
0.36113929
0.36245946
0.36379308
0.36514033
0.36650012
0.36786742
0.36922993
0.37056613
0.37184825
0.37184749
0.37056577
0.36922893
0.36786569
0.36649795
0.36513811
0.36379109
0.36245785
0.36113808
0.35983142
0.3585378
0.35725736
0.35599042
0.35473739
0.3534987
0.35227484
0.35106626
0.34987344
0.3486968
0.34753672
0.34639355
0.34526753
0.34415881
0.34306742
0.34199328
0.34093613
0.33989557
0.33887102
0.33786173
0.3368668
0.3358852
0.33491573
0.3339571
0.33300794
0.33206683
0.33215354
0.33308625
0.33402738
0.33497838
0.33594067
0.33691557
0.33790428
0.33890788
0.33992727
0.34096319
0.34201621
0.34308671
0.34417493
0.34528093
0.34640463
0.34754586
0.34870431
0.34987962
0.35107136
0.35227907
0.35350225
0.3547404
0.35599303
0.35725967
0.3585399
0.35983339
0.36113997
0.36245972
0.36379301
0.36514022
0.36650044
0.36786887
0.36923319
0.37057155
0.37185529
0.37185829
0.37057535
0.36923704
0.36787262
0.36650411
0.36514387
0.36379668
0.3624634
0.36114369
0.35983718
0.35854381
0.35726378
0.35599744
0.35474525
0.3535077
0.35228532
0.35107865
0.34988823
0.34871457
0.34755815
0.34641938
0.34529862
0.34419609
0.34311192
0.34204607
0.34099836
0.33996841
0.33895568
0.33795943
0.33697874
0.3360125
0.3350595
0.33411835
0.33318761
0.33226575
0.33240613
0.33331441
0.33423214
0.33516093
0.33610231
0.33705768
0.33802834
0.3390154
0.3400198
0.34104228
0.34208336
0.34314339
0.34422253
0.34532074
0.34643785
0.34757355
0.34872745
0.34989907
0.35108784
0.3522932
0.35351457
0.35475134
0.35600294
0.35726884
0.35854854
0.35984164
0.36114793
0.36246743
0.36380047
0.3651474
0.36650739
0.36787569
0.36924002
0.37057832
0.3718612
0.37186196
0.37057962
0.36924169
0.36787773
0.36650985
0.36515031
0.3638038
0.36247116
0.36115205
0.35984616
0.35855349
0.3572743
0.35600904
0.35475823
0.35352247
0.3523024
0.35109867
0.34991194
0.34874286
0.34759206
0.34646011
0.3453475
0.34425459
0.34318164
0.34212875
0.34109581
0.34008252
0.33908838
0.33811264
0.33715435
0.33621236
0.33528532
0.33437176
0.33347005
0.33365933
0.33454142
0.33543635
0.33634584
0.33727147
0.33821463
0.33917654
0.34015816
0.34116023
0.34218324
0.34322743
0.34429284
0.3453793
0.34648645
0.34761384
0.34876086
0.34992684
0.35111107
0.3523128
0.35353127
0.35476576
0.35601556
0.35728001
0.35855853
0.35985064
0.36115603
0.36247466
0.36380682
0.36515283
0.36651189
0.36787932
0.36924286
0.37058041
0.37186237
0.37186286
0.37058124
0.36924407
0.36788093
0.36651395
0.36515537
0.36380983
0.36247817
0.36116006
0.35985525
0.35856381
0.35728608
0.35602259
0.35477401
0.35354105
0.3523245
0.3511252
0.34994399
0.34878173
0.34763927
0.3465174
0.34541685
0.3443382
0.34328192
0.34224829
0.34123736
0.34024893
0.33928256
0.33833753
0.33741281
0.33650716
0.33561908
0.33474689
0.33388874
0.33416687
0.33499577
0.33584018
0.33670209
0.33758334
0.33848553
0.33941
0.34035778
0.34132961
0.34232587
0.3433467
0.34439192
0.34546113
0.34655373
0.34766896
0.34880594
0.34996373
0.35114134
0.35233775
0.353552
0.35478314
0.3560303
0.35729265
0.35856947
0.35986017
0.36116436
0.36248192
0.36381308
0.36515814
0.36651628
0.36788282
0.36924555
0.37058235
0.37186364
0.37186462
0.37058371
0.36924731
0.367885
0.36651889
0.36516121
0.36381663
0.36248598
0.36116901
0.35986552
0.35857565
0.35729987
0.35603884
0.35479336
0.35356436
0.35235283
0.35115986
0.34998657
0.34883413
0.34770371
0.34659647
0.34551348
0.34445568
0.34342385
0.34241858
0.34144017
0.3404886
0.33956352
0.33866421
0.3377896
0.33693826
0.33610843
0.3352981
0.33450503
0.33491807
0.33566704
0.3364354
0.3372257
0.33804021
0.33888086
0.33974922
0.34064643
0.34157319
0.34252977
0.34351607
0.3445316
0.34557557
0.34664695
0.34774455
0.34886706
0.35001308
0.35118122
0.35237009
0.35357837
0.35480484
0.35604834
0.35730783
0.3585824
0.35987132
0.36117404
0.36249036
0.36382045
0.36516452
0.36652173
0.36788739
0.36924925
0.37058522
0.37186572
0.37186685
0.37058678
0.36925127
0.36788987
0.3665247
0.36516799
0.36382446
0.36249499
0.36117939
0.35987756
0.35858975
0.35731659
0.35605892
0.35481777
0.35359432
0.3523899
0.35120595
0.350044
0.34890571
0.34779275
0.34670682
0.34564954
0.34462243
0.34362683
0.3426638
0.34173405
0.34083789
0.33997513
0.33914508
0.33834651
0.33757769
0.33683642
0.33612005
0.33668009
0.33733169
0.33801178
0.33872353
0.33946953
0.34025179
0.34107165
0.3419298
0.3428263
0.3437606
0.34473169
0.34573812
0.34677816
0.3478499
0.34895128
0.35008023
0.3512347
0.35241275
0.35361253
0.35483236
0.35607071
0.35732622
0.35859771
0.35988421
0.36118503
0.3624998
0.36382858
0.36517151
0.36652769
0.36789236
0.36925328
0.37058833
0.37186796
0.37186901
0.37058981
0.36925522
0.36789478
0.36653062
0.36517502
0.36383273
0.36250472
0.3611909
0.35989128
0.35860631
0.35733681
0.35608388
0.35484889
0.3536334
0.3524392
0.35126829
0.35012286
0.34900526
0.34791801
0.34686366
0.34584479
0.34486388
0.34392318
0.34302462
0.34216967
0.34135915
0.34059319
0.33987107
0.33919123
0.33855127
0.33794794
0.33737731
0.33825022
0.33871982
0.33922667
0.33977596
0.34037197
0.34101782
0.34171548
0.34246576
0.34326836
0.34412204
0.34502478
0.34597398
0.34696665
0.34799959
0.34906955
0.35017329
0.35130773
0.35246999
0.35365743
0.35486769
0.35609865
0.35734848
0.35861561
0.35989876
0.36119698
0.36250971
0.36383684
0.36517842
0.36653342
0.36789705
0.36925702
0.37059118
0.37186997
0.37187081
0.37059238
0.36925863
0.36789912
0.36653603
0.36518166
0.36384087
0.36251472
0.36120326
0.3599067
0.35862571
0.35736141
0.3561153
0.35488919
0.35368525
0.35250598
0.35135424
0.35023321
0.34914645
0.34809781
0.34709137
0.34613132
0.34522185
0.34436693
0.34357007
0.34283404
0.3421606
0.34155015
0.34100154
0.34051199
0.34007708
0.33969074
0.33934581
0.3409105
0.34114933
0.34144189
0.34179716
0.34222192
0.34272062
0.34329543
0.34394612
0.34467043
0.34546463
0.34632396
0.34724311
0.34821656
0.34923883
0.35030469
0.3514093
0.35254825
0.3537176
0.3549139
0.35613416
0.35737581
0.35863673
0.35991515
0.36120977
0.36251976
0.36384478
0.36518471
0.36653839
0.36790094
0.36926
0.37059339
0.3718715
0.37187201
0.37059416
0.3692611
0.36790247
0.36654046
0.36518751
0.36384855
0.36252482
0.36121655
0.35992421
0.35864883
0.35739196
0.35615565
0.35494243
0.35375536
0.35259803
0.35147469
0.35039021
0.34935012
0.34836063
0.3474285
0.34656094
0.34576533
0.34504882
0.34441776
0.34387697
0.34342883
0.34307256
0.34280346
0.34261387
0.34249281
0.34242643
0.34425074
0.34413397
0.34406595
0.34406469
0.34414639
0.344325
0.34461222
0.34501189
0.34552277
0.34613941
0.34685356
0.34765566
0.34853582
0.34948446
0.35049266
0.35155245
0.35265676
0.3537995
0.35497546
0.35618023
0.35741015
0.35866222
0.35993399
0.36122364
0.36252991
0.36385217
0.36519005
0.36654222
0.36790365
0.36926189
0.37059467
0.37187233
0.37187241
0.37059488
0.36926233
0.36790448
0.36654363
0.36519232
0.36385565
0.36253508
0.36123112
0.35994462
0.35867709
0.35743072
0.35620839
0.35501371
0.35385112
0.35272601
0.35164486
0.3506154
0.34964667
0.34874913
0.34793457
0.34721584
0.34660612
0.34611789
0.34576075
0.34553929
0.34544763
0.3454727
0.34559087
0.34578721
0.34604411
0.34816045
0.34771239
0.34733301
0.34702979
0.3468017
0.34668461
0.34669734
0.34686356
0.34718848
0.34766464
0.3482771
0.3490087
0.34984229
0.35076213
0.35175443
0.35280745
0.35391133
0.35505794
0.35624063
0.357454
0.35869368
0.35995625
0.36123909
0.36254037
0.36385902
0.36519433
0.36654471
0.36790495
0.36926244
0.3705948
0.37187227
0.3718719
0.37059443
0.36926222
0.36790508
0.36654548
0.36519612
0.36386233
0.36254586
0.36124763
0.359969
0.35871218
0.35748028
0.35627742
0.35510886
0.35398121
0.35290275
0.35188375
0.35093687
0.35007747
0.34932384
0.34869699
0.3482193
0.34791157
0.34778502
0.34783227
0.34803116
0.3483364
0.34875209
0.34927738
0.34990106
0.35153095
0.35071948
0.35004367
0.3495124
0.34912845
0.3488794
0.34879212
0.34889929
0.34920896
0.34970461
0.35035868
0.35114367
0.35203531
0.35301343
0.35406169
0.35516702
0.3563191
0.35750979
0.35873273
0.35998299
0.36125683
0.36255161
0.36386564
0.36519775
0.366546
0.36790494
0.36926173
0.37059383
0.37187134
0.37187065
0.37059306
0.36926105
0.3679046
0.36654636
0.36519928
0.36386901
0.36255767
0.36126672
0.35999823
0.35875538
0.35754259
0.3563658
0.35523272
0.35415337
0.35314067
0.35221125
0.35138629
0.35069226
0.3501609
0.34982676
0.34971437
0.34981946
0.35009992
0.35054799
0.35117913
0.35199722
0.35300124
0.35418184
0.35569085
0.35425674
0.35307102
0.35213179
0.35142697
0.35094046
0.35064997
0.35055486
0.350701
0.3510835
0.35166768
0.35241299
0.35328502
0.35425638
0.3553059
0.35641739
0.35757853
0.35877997
0.36001462
0.36127722
0.362564
0.36387244
0.36520077
0.36654661
0.36790414
0.36926027
0.37059223
0.37186994
0.3718693
0.3705914
0.36925943
0.36790357
0.36654672
0.36520213
0.36387583
0.36257045
0.36128814
0.3600319
0.35880616
0.35761716
0.35647332
0.35538595
0.35437015
0.35344612
0.35264075
0.35198919
0.3515356
0.35132547
0.35137782
0.35165261
0.35214435
0.35288633
0.3539089
0.35524188
0.35690889
0.35891806
0.36287057
0.36006914
0.35775886
0.35591563
0.35449398
0.35344196
0.35270878
0.35224984
0.35202037
0.3520454
0.35234924
0.35289281
0.35362232
0.3544932
0.35547165
0.35653262
0.35765771
0.35883335
0.36004958
0.36129909
0.36257671
0.3638789
0.36520313
0.36654648
0.36790268
0.3692583
0.37059035
0.37186854
0.37186729
0.37058858
0.36925642
0.36790103
0.36654549
0.3652034
0.36388128
0.36258238
0.36130961
0.36006708
0.35886077
0.35769913
0.35659387
0.35556108
0.35462298
0.35381029
0.35316487
0.35274263
0.35260013
0.35275352
0.35314029
0.35381595
0.35483548
0.35626832
0.35819642
0.36071198
0.36390551
0.36868695
0.36422544
0.360801
0.35822358
0.3563197
0.35495941
0.35403474
0.35346084
0.35317138
0.35315528
0.35344946
0.35400448
0.35475559
0.3556515
0.3566552
0.3577402
0.35888761
0.3600839
0.36131937
0.36258721
0.36388275
0.36520267
0.36654338
0.36789812
0.36925305
0.370585
0.37186379
0.37186017
0.37058054
0.36924871
0.36789436
0.36654062
0.36520142
0.36388378
0.36259157
0.36132852
0.36009985
0.35891322
0.35777956
0.3567143
0.35573924
0.35488537
0.35419639
0.35373374
0.3535666
0.35372449
0.35415108
0.35492059
0.35612198
0.35787916
0.36036092
0.36378739
0.36849077
0.37377656
0.36716238
0.36262852
0.35945123
0.35724682
0.35574887
0.35477705
0.35420641
0.35394556
0.35399839
0.35437479
0.35500488
0.3558196
0.35676835
0.35781572
0.35893706
0.36011511
0.36133776
0.36259659
0.36388581
0.36520129
0.3665388
0.36789108
0.36924395
0.37057412
0.37185179
0.37185204
0.37057392
0.36924447
0.36789264
0.36654142
0.36520497
0.36389085
0.36260361
0.36134781
0.36012969
0.35895836
0.35784694
0.35681425
0.35588747
0.35510599
0.35452713
0.35422485
0.35426807
0.35461311
0.35530998
0.35646955
0.35825534
0.36091826
0.36484203
0.37078348
0.36469074
0.36064227
0.35788147
0.35600803
0.35476914
0.35399808
0.35358547
0.35344723
0.35364778
0.35413837
0.35484887
0.35571872
0.3567055
0.35777945
0.35891971
0.36011156
0.36134454
0.36261136
0.36390705
0.36522808
0.36657085
0.36792862
0.36928744
0.37062294
0.37062248
0.37062
0.3706117
0.36927851
0.36792185
0.36656626
0.36522621
0.36390913
0.36261935
0.36136122
0.36014081
0.35896704
0.3578528
0.3568166
0.35588524
0.3550975
0.35451031
0.3541969
0.35422789
0.35456705
0.35526015
0.35642399
0.35823559
0.36097301
0.36509356
0.37140115
0.37385951
0.36662966
0.36208415
0.35904199
0.35702073
0.35571096
0.35491586
0.35450821
0.35439428
0.35464109
0.3551815
0.35593835
0.35684904
0.35787121
0.35897571
0.36014256
0.36135792
0.36261223
0.36389887
0.36521297
0.36654942
0.36790003
0.36925003
0.37057572
0.37184825
0.37185334
0.37185458
0.37185836
0.37186651
0.37187184
0.37187506
0.37187623
0.37187673
0.37187717
0.37187773
0.37187832
0.37187883
0.37187917
0.37187931
0.37187922
0.37187891
0.3718784
0.37187772
0.37187688
0.37187592
0.37187488
0.37187378
0.37187268
0.37187163
0.37187074
0.37187012
0.37186983
0.37186968
0.371869
0.37186636
0.37186164
0.37185407
0.37185079
0.37184993
0.37185558
0.37186109
0.3718648
0.37188028
0.37188551
0.37189557
0.37189713
0.37189788
0.37189625
0.37189466
0.37189345
0.3718928
0.3718925
0.37189239
0.37189237
0.37189239
0.37189241
0.37189243
0.37189245
0.37189248
0.3718925
0.37189252
0.37189255
0.37189256
0.37189258
0.37189259
0.3718926
0.37189261
0.37189262
0.37189263
0.37189264
0.37189264
0.37189264
0.37189264
0.37189265
0.37189265
0.37189264
0.37189264
0.37189263
0.37189263
0.37189262
0.37189261
0.37189259
0.37189259
0.37189257
0.37189255
0.37189254
0.37189252
0.3718925
0.37189249
0.37189247
0.37189244
0.37189242
0.37189239
0.37189236
0.37189234
0.3718923
0.37189227
0.37189225
0.37189222
0.37189218
0.37189216
0.37189211
0.37189207
0.37189203
0.37189199
0.37189195
0.37189191
0.37189186
0.37189182
0.37189177
0.37189173
0.37189169
0.37189164
0.3718916
0.37189158
0.37189158
0.37189167
0.37189196
0.3718926
0.3718938
0.37189538
0.371897
0.37189624
0.37189468
0.37188461
0.37187937
0.37186388
0.37186016
0.3718578
0.37303508
0.37305356
0.37305677
0.373079
0.37307869
0.3730912
0.37309013
0.3730915
0.37308969
0.37308854
0.3730877
0.37308738
0.37308727
0.37308726
0.37308729
0.37308732
0.37308734
0.37308736
0.3730874
0.37308743
0.37308745
0.37308748
0.3730875
0.37308752
0.37308756
0.37308757
0.3730876
0.37308763
0.37308765
0.37308767
0.37308769
0.37308771
0.37308773
0.37308774
0.37308775
0.37308778
0.37308779
0.3730878
0.37308782
0.37308783
0.37308783
0.37308785
0.37308786
0.37308786
0.37308788
0.37308788
0.37308787
0.37308789
0.37308789
0.37308789
0.3730879
0.37308789
0.37308789
0.37308789
0.37308789
0.37308789
0.37308788
0.37308787
0.37308787
0.37308786
0.37308785
0.37308784
0.37308784
0.37308782
0.3730878
0.37308779
0.37308776
0.37308775
0.37308773
0.37308772
0.3730877
0.37308767
0.37308765
0.37308763
0.37308762
0.37308759
0.37308756
0.37308757
0.37308769
0.37308801
0.37308885
0.37309
0.37309181
0.37309044
0.37309151
0.37307901
0.37307932
0.3730571
0.37305389
0.37305511
0.37417014
0.37417476
0.37418824
0.37419206
0.37419919
0.374199
0.37419892
0.37419742
0.37419644
0.37419581
0.37419556
0.37419547
0.37419546
0.37419547
0.37419548
0.3741955
0.37419551
0.37419552
0.37419553
0.37419554
0.37419554
0.37419556
0.37419556
0.37419557
0.37419558
0.37419559
0.3741956
0.37419559
0.37419561
0.37419561
0.37419561
0.37419562
0.37419563
0.37419562
0.37419563
0.37419563
0.37419563
0.37419563
0.37419563
0.37419564
0.37419563
0.37419563
0.37419563
0.37419563
0.37419563
0.37419563
0.37419562
0.37419562
0.37419561
0.37419561
0.37419561
0.37419561
0.3741956
0.37419558
0.37419559
0.37419558
0.37419557
0.37419556
0.37419555
0.37419555
0.37419555
0.37419553
0.37419552
0.37419551
0.3741955
0.37419549
0.37419548
0.37419547
0.37419546
0.37419545
0.37419544
0.37419542
0.37419541
0.37419539
0.37419538
0.37419537
0.37419538
0.37419547
0.37419572
0.37419635
0.37419734
0.37419883
0.37419891
0.3741991
0.37419197
0.37418815
0.37417467
0.37417005
0.37416875
0.37417912
0.37419074
0.37420012
0.37420621
0.37420773
0.37420687
0.37420525
0.37420389
0.37420305
0.37420262
0.37420244
0.37420238
0.37420237
0.37420236
0.37420239
0.3742024
0.37420242
0.37420242
0.37420243
0.37420244
0.37420245
0.37420246
0.37420248
0.37420249
0.37420249
0.37420252
0.37420252
0.37420252
0.37420253
0.37420255
0.37420255
0.37420256
0.37420256
0.37420256
0.37420258
0.3742026
0.37420259
0.37420259
0.37420258
0.3742026
0.37420261
0.37420261
0.37420261
0.37420261
0.37420262
0.37420262
0.37420261
0.37420262
0.37420262
0.37420262
0.37420262
0.37420262
0.37420262
0.37420261
0.37420262
0.37420261
0.37420261
0.3742026
0.37420259
0.37420259
0.37420259
0.37420259
0.37420259
0.37420257
0.37420256
0.37420256
0.37420254
0.37420254
0.37420254
0.37420252
0.37420251
0.3742025
0.37420248
0.37420249
0.3742025
0.37420257
0.37420275
0.37420318
0.37420402
0.37420538
0.374207
0.37420785
0.37420634
0.37420025
0.37419088
0.37417926
0.37416889
0.37417526
0.37418452
0.37419769
0.37420934
0.37421608
0.37421773
0.37421651
0.37421457
0.37421298
0.37421199
0.37421148
0.37421125
0.37421116
0.37421114
0.37421113
0.37421114
0.37421114
0.37421115
0.37421116
0.37421117
0.37421117
0.37421118
0.37421118
0.37421119
0.3742112
0.3742112
0.3742112
0.37421121
0.3742112
0.37421121
0.37421121
0.37421121
0.37421121
0.37421121
0.37421121
0.37421122
0.37421121
0.37421121
0.37421121
0.37421121
0.37421121
0.37421121
0.3742112
0.3742112
0.3742112
0.3742112
0.37421119
0.37421119
0.37421117
0.37421117
0.37421117
0.37421117
0.37421116
0.37421115
0.37421114
0.37421114
0.37421113
0.37421113
0.3742111
0.3742111
0.37421109
0.37421109
0.37421108
0.37421106
0.37421105
0.37421104
0.37421103
0.37421102
0.374211
0.374211
0.37421099
0.37421097
0.37421096
0.37421095
0.37421095
0.37421097
0.37421106
0.37421129
0.3742118
0.37421278
0.37421437
0.37421631
0.37421753
0.37421588
0.37420913
0.37419748
0.3741843
0.37417504
0.37417696
0.37419082
0.37420616
0.37421909
0.37422609
0.37422747
0.37422585
0.3742236
0.37422185
0.3742208
0.37422026
0.37422002
0.37421994
0.37421991
0.37421991
0.37421992
0.37421993
0.37421994
0.37421996
0.37421997
0.37421998
0.37421999
0.37422
0.37422001
0.37422002
0.37422004
0.37422005
0.37422006
0.37422006
0.37422007
0.37422009
0.3742201
0.3742201
0.37422011
0.37422011
0.37422012
0.37422013
0.37422014
0.37422014
0.37422015
0.37422016
0.37422017
0.37422017
0.37422017
0.37422017
0.37422018
0.37422019
0.37422019
0.3742202
0.3742202
0.3742202
0.3742202
0.3742202
0.3742202
0.37422021
0.37422021
0.37422021
0.37422021
0.37422021
0.37422021
0.37422021
0.37422021
0.37422021
0.37422021
0.3742202
0.3742202
0.3742202
0.3742202
0.37422019
0.37422019
0.37422018
0.37422018
0.37422018
0.37422017
0.37422018
0.37422021
0.3742203
0.37422055
0.37422109
0.37422215
0.3742239
0.37422615
0.37422777
0.3742264
0.3742194
0.37420648
0.37419115
0.37417729
0.37418369
0.37419739
0.37421372
0.37422707
0.37423389
0.37423485
0.37423283
0.37423033
0.37422845
0.37422735
0.3742268
0.37422656
0.37422647
0.37422644
0.37422643
0.37422643
0.37422643
0.37422643
0.37422643
0.37422643
0.37422643
0.37422643
0.37422643
0.37422643
0.37422643
0.37422643
0.37422642
0.37422642
0.37422642
0.37422642
0.37422641
0.37422641
0.37422641
0.3742264
0.3742264
0.37422639
0.37422639
0.37422638
0.37422638
0.37422637
0.37422637
0.37422636
0.37422635
0.37422635
0.37422634
0.37422634
0.37422633
0.37422633
0.37422632
0.37422631
0.3742263
0.37422629
0.37422629
0.37422627
0.37422627
0.37422626
0.37422625
0.37422624
0.37422623
0.37422622
0.37422621
0.3742262
0.37422619
0.37422618
0.37422616
0.37422615
0.37422614
0.37422613
0.37422612
0.3742261
0.37422609
0.37422608
0.37422607
0.37422606
0.37422606
0.37422608
0.37422616
0.3742264
0.37422694
0.37422803
0.3742299
0.3742324
0.37423442
0.37423346
0.37422662
0.37421327
0.37419693
0.37418322
0.37418447
0.37420001
0.37421677
0.37423004
0.37423655
0.37423713
0.37423482
0.37423213
0.37423018
0.37422906
0.37422852
0.37422829
0.37422822
0.3742282
0.3742282
0.37422821
0.37422822
0.37422823
0.37422825
0.37422826
0.37422827
0.37422829
0.3742283
0.37422831
0.37422832
0.37422834
0.37422835
0.37422836
0.37422837
0.37422838
0.37422839
0.37422841
0.37422842
0.37422842
0.37422843
0.37422845
0.37422845
0.37422846
0.37422847
0.37422848
0.37422849
0.3742285
0.37422851
0.37422852
0.37422852
0.37422853
0.37422854
0.37422855
0.37422855
0.37422856
0.37422857
0.37422858
0.37422858
0.37422859
0.3742286
0.37422861
0.37422862
0.37422862
0.37422863
0.37422864
0.37422864
0.37422865
0.37422865
0.37422866
0.37422867
0.37422867
0.37422868
0.37422868
0.37422868
0.37422869
0.37422869
0.37422869
0.37422869
0.3742287
0.37422871
0.37422874
0.37422884
0.37422907
0.37422962
0.37423075
0.37423271
0.3742354
0.37423772
0.37423715
0.37423065
0.37421739
0.37420065
0.37418512
0.37418618
0.37420149
0.37421816
0.37423119
0.37423738
0.37423768
0.37423517
0.37423236
0.37423035
0.37422922
0.37422867
0.37422843
0.37422834
0.37422831
0.37422829
0.37422828
0.37422828
0.37422827
0.37422826
0.37422825
0.37422824
0.37422824
0.37422823
0.37422822
0.37422821
0.3742282
0.37422818
0.37422818
0.37422817
0.37422815
0.37422814
0.37422813
0.37422812
0.37422811
0.3742281
0.37422809
0.37422808
0.37422807
0.37422806
0.37422804
0.37422804
0.37422803
0.37422801
0.374228
0.37422799
0.37422798
0.37422797
0.37422796
0.37422795
0.37422794
0.37422793
0.37422792
0.37422791
0.3742279
0.37422788
0.37422787
0.37422786
0.37422785
0.37422784
0.37422783
0.37422781
0.3742278
0.37422779
0.37422777
0.37422776
0.37422775
0.37422774
0.37422772
0.3742277
0.37422769
0.37422768
0.37422767
0.37422765
0.37422764
0.37422763
0.37422765
0.37422772
0.37422794
0.37422848
0.3742296
0.3742316
0.3742344
0.37423691
0.3742366
0.37423039
0.37421734
0.37420064