/*--------------------------------*- C++ -*----------------------------------*\
| =========                 |                                                 |
| \\      /  F ield         | OpenFOAM: The Open Source CFD Toolbox           |
|  \\    /   O peration     | Version:  v2012                                 |
|   \\  /    A nd           | Website:  www.openfoam.com                      |
|    \\/     M anipulation  |                                                 |
\*---------------------------------------------------------------------------*/
FoamFile
{
    version     2.0;
    format      ascii;
    class       volScalarField;
    location    "300";
    object      omega;
}
// * * * * * * * * * * * * * * * * * * * * * * * * * * * * * * * * * * * * * //

dimensions      [0 0 -1 0 0 0 0];


internalField   nonuniform List<scalar> 
229912
(
11.130358
11.130298
11.158096
11.157624
11.15797
11.157708
11.158231
11.157969
11.158263
11.158165
11.158216
11.158184
11.158176
11.15817
11.15817
11.158171
11.158171
11.158172
11.158172
11.158172
11.158172
11.158172
11.158172
11.158172
11.158172
11.158172
11.158172
11.158171
11.158171
11.15817
11.15817
11.158176
11.158184
11.158216
11.158165
11.158263
11.157969
11.158231
11.157708
11.15797
11.157624
11.158096
11.15792
11.158585
11.158343
11.158677
11.15855
11.1586
11.158552
11.158542
11.158533
11.158534
11.158535
11.158536
11.158537
11.158538
11.158538
11.158538
11.158539
11.158539
11.158539
11.158539
11.158539
11.15854
11.15854
11.15854
11.15854
11.15854
11.15854
11.158541
11.158541
11.158541
11.158541
11.158541
11.158541
11.158541
11.158541
11.158542
11.158542
11.158542
11.158542
11.158542
11.158542
11.158542
11.158542
11.158542
11.158542
11.158542
11.158542
11.158542
11.158542
11.158542
11.158542
11.158542
11.158542
11.158542
11.158542
11.158542
11.158542
11.158541
11.158541
11.158541
11.158541
11.158541
11.158541
11.158541
11.15854
11.15854
11.15854
11.15854
11.15854
11.15854
11.158539
11.158539
11.158539
11.158538
11.158537
11.158536
11.158535
11.158534
11.158543
11.158553
11.1586
11.158551
11.158677
11.158343
11.158585
11.157921
11.158097
11.157625
11.157971
11.15771
11.158234
11.157974
11.158271
11.158177
11.158231
11.158203
11.1582
11.158199
11.158205
11.15821
11.158217
11.158223
11.158228
11.158233
11.158238
11.158241
11.158245
11.158247
11.158248
11.158248
11.158247
11.158244
11.158239
11.158234
11.158228
11.158228
11.158228
11.158253
11.158194
11.158284
11.157984
11.158241
11.157715
11.157973
11.157627
11.158099
11.157923
11.158589
11.158348
11.158683
11.158559
11.15861
11.158564
11.158556
11.158549
11.158552
11.158555
11.158558
11.15856
11.158562
11.158564
11.158565
11.158566
11.158567
11.158568
11.158569
11.158569
11.158569
11.158569
11.158569
11.158568
11.158566
11.158562
11.158557
11.158549
11.158538
11.158525
11.15851
11.158494
11.158478
11.158466
11.158459
11.158458
11.158457
11.158456
11.158455
11.158455
11.158454
11.158454
11.158453
11.158453
11.158452
11.158451
11.158451
11.15845
11.15845
11.158451
11.158456
11.158467
11.158482
11.158496
11.15851
11.158522
11.158531
11.158538
11.158543
11.158545
11.158546
11.158546
11.158546
11.158546
11.158545
11.158545
11.158544
11.158543
11.158543
11.158542
11.158542
11.158541
11.15854
11.158539
11.158537
11.158536
11.158535
11.158543
11.158553
11.1586
11.158551
11.158677
11.158343
11.158585
11.15792
11.130332
11.130974
11.130891
11.131235
11.131174
11.131218
11.131171
11.131148
11.131132
11.131127
11.131127
11.131128
11.13113
11.131131
11.131133
11.131134
11.131135
11.131136
11.131138
11.131139
11.131139
11.131137
11.13113
11.131113
11.131081
11.131029
11.130954
11.130855
11.130735
11.130596
11.130446
11.130291
11.130136
11.129991
11.129875
11.129838
11.129833
11.129833
11.129834
11.129835
11.129837
11.129838
11.129839
11.12984
11.129842
11.129844
11.129845
11.129846
11.129848
11.129851
11.129859
11.129898
11.130018
11.130166
11.130324
11.130482
11.130635
11.130776
11.130899
11.131001
11.131079
11.131133
11.131166
11.131185
11.131193
11.131196
11.131196
11.131195
11.131194
11.131192
11.13119
11.131187
11.131184
11.131181
11.131176
11.131172
11.13117
11.131171
11.131184
11.131204
11.131247
11.1312
11.131258
11.130911
11.130992
11.130349
11.130314
11.129756
11.100525
11.068714
11.035857
11.001896
10.96794
10.934158
10.90083
10.868028
10.835825
10.804316
10.773654
10.744065
10.715881
10.68959
10.665916
10.645987
10.631476
10.624966
10.630774
10.656359
10.714551
10.829713
11.0437
11.44799
12.21803
9.028586
9.0504039
9.0723775
9.0945064
9.1167888
9.1392221
9.1618023
9.1845243
9.2073817
9.2303668
9.2534704
9.2766818
9.2999895
9.3233799
9.346839
9.3703521
9.3939047
9.4174831
9.4410753
9.4646717
9.4882663
9.5118572
9.5354474
9.5590455
9.5826655
9.6063265
9.6300522
9.65387
9.6778092
9.7018997
9.7261709
9.7506496
9.7753596
9.8003205
9.8255479
9.8510531
9.8768433
9.902922
9.9292894
9.9559434
9.9828796
10.010093
10.037577
10.065324
10.093328
10.121582
10.15008
10.178814
10.20778
10.236973
10.266388
10.296022
10.325871
10.355933
10.386206
10.416688
10.447378
10.478274
10.509376
10.540684
10.572198
10.603918
10.635845
10.667978
10.70032
10.732871
10.765634
10.798615
10.831821
10.865267
10.898973
10.932949
10.967163
11.001458
11.035533
11.068758
11.100573
11.100627
11.1011
11.101157
11.101437
11.10144
11.101464
11.101422
11.101389
11.101365
11.101354
11.101351
11.101351
11.101353
11.101354
11.101357
11.101359
11.101361
11.101363
11.101365
11.101366
11.101366
11.101361
11.101345
11.10131
11.101243
11.101136
11.100983
11.100783
11.10054
11.100264
11.099967
11.09966
11.099358
11.099081
11.098866
11.098794
11.098782
11.098781
11.098783
11.098785
11.098787
11.098789
11.098791
11.098793
11.098796
11.098798
11.098801
11.098803
11.098807
11.098812
11.098829
11.098905
11.099125
11.099408
11.099715
11.100027
11.100329
11.10061
11.100858
11.101062
11.10122
11.101331
11.1014
11.101439
11.101457
11.101464
11.101466
11.101465
11.101464
11.101462
11.101459
11.101456
11.101452
11.101447
11.101443
11.101439
11.101439
11.101445
11.101464
11.101493
11.101531
11.101502
11.101495
11.101212
11.101152
11.100678
11.100623
11.068878
11.035776
11.001905
10.96792
10.934159
10.900824
10.868011
10.835795
10.804274
10.773596
10.743986
10.715768
10.689425
10.665668
10.645614
10.630886
10.623993
10.629181
10.653763
10.710545
10.824147
11.043947
11.488701
12.47713
12.352913
11.434684
11.01762
10.809086
10.701858
10.648601
10.626061
10.622084
10.629714
10.644874
10.665184
10.689107
10.715557
10.743843
10.773498
10.804202
10.835739
10.867961
10.900771
10.934094
10.967839
11.00183
11.035716
11.068913
11.069233
11.035906
11.001934
10.967895
10.934124
10.900787
10.867963
10.835719
10.804148
10.773394
10.743665
10.715267
10.688649
10.664469
10.643755
10.627952
10.619283
10.621504
10.640941
10.688492
10.784722
10.970154
11.333709
12.075304
12.25148
11.432687
11.030362
10.819361
10.70834
10.652559
10.628464
10.623547
10.630608
10.645424
10.665525
10.68931
10.71567
10.743896
10.773509
10.804185
10.835702
10.867909
10.900709
10.934027
10.967769
11.001728
11.035579
11.068654
11.100404
11.130113
11.129964
11.130368
11.13022
11.13052
11.130504
11.130578
11.130571
11.130575
11.130579
11.130589
11.130598
11.130606
11.130611
11.130614
11.130614
11.130611
11.130606
11.130599
11.13059
11.13058
11.130569
11.130557
11.130544
11.130532
11.13052
11.130511
11.13051
11.130512
11.130526
11.13046
11.130485
11.130192
11.130346
11.129947
11.130099
11.129744
11.100489
11.068628
11.035681
11.001571
10.967384
10.933258
10.899432
10.865922
10.832718
10.799805
10.767176
10.734831
10.702775
10.671012
10.63955
10.608394
10.577552
10.54703
10.516835
10.486972
10.457445
10.428258
10.399412
10.370907
10.342741
10.314908
10.287402
10.260213
10.233327
10.206731
10.180407
10.154334
10.128493
10.102859
10.077411
10.077603
10.103031
10.128645
10.154468
10.180523
10.20683
10.233411
10.260282
10.287457
10.314951
10.342772
10.370929
10.399424
10.428262
10.457441
10.48696
10.516817
10.547005
10.577519
10.608355
10.639503
10.670958
10.702713
10.73476
10.767095
10.799715
10.832619
10.865816
10.899318
10.933128
10.96721
11.0014
11.035399
11.068565
11.100365
11.100151
11.068315
11.035058
11.00107
10.966899
10.93286
10.899089
10.865619
10.832447
10.799563
10.766962
10.734643
10.702611
10.670871
10.639429
10.608292
10.577469
10.546967
10.516792
10.486948
10.457443
10.42828
10.39946
10.370984
10.342848
10.31505
10.287582
10.260435
10.233594
10.207047
10.180774
10.154757
10.128974
10.103401
10.078016
10.078699
10.104014
10.12952
10.155239
10.181195
10.207411
10.233906
10.260698
10.287801
10.315228
10.34299
10.371093
10.39954
10.428335
10.457476
10.486961
10.516786
10.546945
10.577433
10.608242
10.639366
10.670795
10.702523
10.734543
10.766848
10.799435
10.832303
10.865458
10.898911
10.932669
10.966708
11.000904
11.034957
11.068333
11.100333
11.100269
11.068297
11.034921
11.00086
10.966657
10.932617
10.898861
10.865413
10.832262
10.799398
10.766815
10.734515
10.7025
10.670779
10.639358
10.608244
10.577447
10.546973
10.516831
10.487026
10.457566
10.428454
10.399693
10.371284
10.343226
10.315515
10.288144
10.261104
10.234382
10.207962
10.181828
10.155959
10.130333
10.104925
10.079713
10.081102
10.106177
10.131453
10.156954
10.182706
10.20873
10.235048
10.261678
10.288635
10.315931
10.343576
10.371576
10.399934
10.428653
10.457729
10.48716
10.516941
10.547064
10.577523
10.60831
10.639415
10.670832
10.70255
10.734564
10.766865
10.79945
10.832317
10.865471
10.898924
10.932686
10.966738
11.000961
11.035052
11.068469
11.100497
11.100536
11.068535
11.035126
11.001039
10.966819
10.93277
10.89901
10.865558
10.832404
10.799537
10.766953
10.734652
10.702641
10.670927
10.639517
10.608421
10.577648
10.547207
10.517107
10.487356
10.457962
10.428931
10.400266
10.371971
10.344045
10.316484
10.289284
10.262434
10.235923
10.209735
10.183851
10.15825
10.13291
10.107803
10.082905
10.08516
10.109837
10.134732
10.159872
10.185284
10.210992
10.237018
10.263381
10.290096
10.317177
10.344632
10.372466
10.400682
10.429279
10.458254
10.487601
10.517313
10.547383
10.577799
10.608554
10.639635
10.671034
10.702741
10.734746
10.767042
10.799623
10.832486
10.865635
10.899082
10.932836
10.966879
11.001096
11.035184
11.068597
11.100601
11.100605
11.06861
11.035203
11.001122
10.966913
10.932878
10.899131
10.865693
10.83255
10.799694
10.767121
10.734833
10.702837
10.671142
10.639758
10.608696
10.577966
10.547581
10.51755
10.487886
10.458597
10.429693
10.401179
10.373061
10.345341
10.318016
10.291083
10.264532
10.238352
10.212526
10.187034
10.161854
10.136961
10.112325
10.115337
10.139657
10.16425
10.189147
10.214375
10.239957
10.265915
10.292265
10.319018
10.346184
10.373766
10.401764
10.430176
10.458994
10.488212
10.517818
10.547801
10.578148
10.608847
10.639886
10.671251
10.702931
10.734914
10.767192
10.799757
10.832605
10.86574
10.899171
10.932909
10.966936
11.001138
11.035214
11.068616
11.100607
11.100612
11.068626
11.035228
11.001158
10.966963
10.932943
10.899212
10.865788
10.832661
10.799821
10.767265
10.734999
10.703029
10.671366
10.640024
10.609014
10.578351
10.548049
10.518123
10.488587
10.459456
10.430741
10.402452
10.374598
10.347184
10.320211
10.293675
10.26757
10.241882
10.216596
10.191689
10.167135
10.142907
10.118971
10.123355
10.146825
10.170611
10.194747
10.219264
10.244191
10.269551
10.29536
10.321632
10.348372
10.375584
10.403264
10.431404
10.459996
10.489024
10.518476
10.548334
10.578582
10.609202
10.640178
10.671495
10.703137
10.735091
10.767346
10.799891
10.832723
10.865843
10.89926
10.932984
10.966998
11.001187
11.035251
11.068643
11.100624
11.100641
11.068666
11.03528
11.001222
10.967039
10.933033
10.899315
10.865905
10.832793
10.79997
10.767436
10.735195
10.703259
10.67164
10.640354
10.609417
10.578848
10.548664
10.518887
10.489536
10.460631
10.432188
10.404226
10.376756
10.34979
10.323331
10.29738
10.271931
10.246971
10.222481
10.198438
10.174811
10.151565
10.128662
10.135113
10.157324
10.17991
10.202914
10.226377
10.25033
10.274802
10.299812
10.325372
10.351487
10.378156
10.405371
10.433118
10.461381
10.490138
10.519369
10.549049
10.579155
10.609664
10.640554
10.671804
10.703396
10.735311
10.767535
10.800057
10.83287
10.865973
10.899375
10.933086
10.967086
11.001262
11.035312
11.068691
11.10066
11.100679
11.068718
11.035346
11.001303
10.967134
10.933142
10.899439
10.866045
10.832951
10.80015
10.767643
10.735438
10.703548
10.67199
10.640783
10.609949
10.579512
10.549498
10.519935
10.490849
10.462271
10.434226
10.406741
10.379836
10.353531
10.327836
10.302756
10.278287
10.254416
10.231123
10.208377
10.18614
10.164367
10.173046
10.19381
10.215093
10.236949
10.259421
10.282545
10.306344
10.33083
10.356006
10.381864
10.408388
10.435553
10.463332
10.491693
10.520602
10.550025
10.579927
10.610276
10.641043
10.672198
10.703717
10.735577
10.767759
10.800249
10.833036
10.866119
10.899504
10.933198
10.967183
11.001344
11.03538
11.068744
11.100698
11.100716
11.068769
11.035412
11.001383
10.96723
10.933254
10.899568
10.866194
10.833124
10.800353
10.767884
10.735728
10.703904
10.672433
10.64134
10.610656
10.580412
10.550645
10.521393
10.492699
10.464604
10.437151
10.41038
10.384328
10.359025
10.334495
10.31075
10.28779
10.265602
10.244159
10.223421
10.203335
10.183836
10.197377
10.215277
10.233847
10.253167
10.273303
10.294305
10.316205
10.339015
10.362734
10.387341
10.412807
10.439089
10.466139
10.493906
10.522337
10.551379
10.580981
10.611097
10.641682
10.672699
10.704113
10.735894
10.768016
10.800461
10.833213
10.866268
10.899631
10.933307
10.967275
11.00142
11.035441
11.068791
11.100732
11.100746
11.068811
11.035468
11.001453
10.967316
10.933356
10.899691
10.866342
10.833303
10.800573
10.768159
10.736076
10.704347
10.673003
10.642078
10.611613
10.581654
10.552253
10.523468
10.495362
10.468001
10.441451
10.415782
10.391054
10.367325
10.344637
10.323019
10.302477
10.282995
10.264535
10.247032
10.2304
10.214533
10.249724
10.263866
10.279022
10.295313
10.312825
10.33161
10.35169
10.373054
10.395662
10.419452
10.44435
10.470271
10.497128
10.524832
10.5533
10.582453
10.612221
10.64254
10.673353
10.704613
10.736277
10.768313
10.800692
10.833395
10.866414
10.899748
10.933401
10.967352
11.001482
11.03549
11.068828
11.100758
11.100766
11.06884
11.035507
11.001505
10.967382
10.933442
10.899801
10.866485
10.83349
10.800818
10.768481
10.736503
10.704915
10.673758
10.64308
10.612941
10.583407
10.554558
10.526481
10.499278
10.473054
10.447926
10.424009
10.401419
10.38026
10.360616
10.342543
10.326057
10.311123
10.297665
10.285556
10.274616
10.306638
10.313523
10.321767
10.331579
10.343137
10.356581
10.372005
10.38939
10.40866
10.429697
10.452355
10.476476
10.501903
10.528481
10.556072
10.584547
10.613794
10.643716
10.674228
10.705261
10.736757
10.768666
10.800952
10.833586
10.866554
10.899851
10.933477
10.967407
11.001522
11.035518
11.068848
11.100771
11.100772
11.06885
11.035524
11.001532
10.967425
10.933506
10.899896
10.866623
10.833687
10.801097
10.768872
10.737045
10.70566
10.674776
10.644463
10.614807
10.58591
10.557896
10.530909
10.505113
10.480696
10.457863
10.436831
10.417823
10.401043
10.386662
10.374727
10.365199
10.357927
10.352785
10.349609
10.397998
10.393675
10.392098
10.393516
10.398013
10.405517
10.416002
10.429484
10.445816
10.464728
10.485904
10.509039
10.533852
10.56009
10.587537
10.616006
10.645342
10.675415
10.70612
10.737372
10.769101
10.801255
10.833793
10.866691
10.899939
10.93353
10.967436
11.001536
11.035523
11.068847
11.100769
11.100762
11.06884
11.035517
11.001533
10.967442
10.933549
10.899979
10.866762
10.833907
10.801429
10.769359
10.737745
10.706649
10.676156
10.646369
10.617419
10.589469
10.562719
10.53741
10.513833
10.492333
10.473301
10.457173
10.444346
10.435081
10.429574
10.42816
10.43106
10.438365
10.449874
10.502459
10.482376
10.46856
10.461009
10.459401
10.463096
10.47147
10.484007
10.500253
10.519666
10.54169
10.565849
10.59175
10.619073
10.647561
10.677009
10.707254
10.738167
10.769649
10.801622
10.83403
10.866835
10.900018
10.933565
10.967443
11.001526
11.035505
11.068828
11.100751
11.100738
11.068813
11.035491
11.001516
10.967442
10.93358
10.900058
10.866914
10.834164
10.801835
10.769971
10.738642
10.707938
10.677982
10.648931
10.620988
10.594414
10.569544
10.546802
10.526726
10.509982
10.497274
10.489274
10.486851
10.491058
10.502996
10.523528
10.553309
10.592547
10.653578
10.599339
10.55951
10.532784
10.517388
10.511533
10.513521
10.521807
10.535215
10.552851
10.573857
10.597487
10.623174
10.650481
10.679075
10.708702
10.739168
10.770327
10.802068
10.83431
10.866999
10.900101
10.933596
10.967441
11.001505
11.035477
11.068798
11.100726
11.100717
11.068787
11.035465
11.001496
10.96744
10.933612
10.900146
10.867088
10.834464
10.802316
10.770709
10.739738
10.709536
10.680278
10.652203
10.625628
10.600977
10.578821
10.55993
10.545287
10.535968
10.533386
10.539531
10.556819
10.588145
10.636834
10.706273
10.799189
11.017791
10.860832
10.74442
10.662363
10.607842
10.574634
10.557584
10.552713
10.556993
10.568066
10.584429
10.60486
10.628322
10.654072
10.68157
10.710422
10.740338
10.771106
10.802571
10.834619
10.867174
10.900187
10.933625
10.967437
11.001485
11.03545
11.068774
11.100708
11.100695
11.06875
11.035423
11.001459
10.967418
10.933622
10.900212
10.867245
10.834761
10.802816
10.771501
10.740946
10.711334
10.682918
10.656046
10.631205
10.609072
10.590638
10.577181
10.570245
10.57231
10.586859
10.61863
10.674357
10.763224
10.897399
11.091553
11.452073
11.120718
10.901975
10.761411
10.673539
10.621911
10.595013
10.585091
10.587056
10.597274
10.613514
10.634191
10.658063
10.684276
10.71224
10.741539
10.771875
10.803038
10.834877
10.86729
10.900209
10.933589
10.967368
11.001398
11.035355
11.068676
11.100618
11.100568
11.068597
11.035269
11.001314
10.967293
10.933533
10.900184
10.867313
10.834972
10.803238
10.772224
10.742101
10.713111
10.685595
10.660042
10.637157
10.618004
10.604077
10.597345
10.601104
10.620363
10.662839
10.740958
10.874686
11.0954
11.459492
11.998169
11.363838
11.018332
10.820368
10.708246
10.647183
10.617453
10.607547
10.610596
10.622253
10.639948
10.661887
10.68682
10.713923
10.742632
10.77256
10.803438
10.835077
10.867351
10.900174
10.933487
10.967217
11.001208
11.035127
11.068412
11.10033
11.100384
11.068437
11.035152
11.001245
10.96727
10.933555
10.900263
10.867471
10.835245
10.803677
10.772904
10.743131
10.714651
10.687894
10.663485
10.642379
10.625959
10.616284
10.616647
10.63251
10.672965
10.754195
10.906137
11.184585
11.721985
11.19721
10.906918
10.748172
10.661678
10.617073
10.597839
10.594755
10.602237
10.616842
10.636477
10.659721
10.68554
10.713254
10.742393
10.772631
10.803736
10.835548
10.867955
10.900887
10.934295
10.968117
11.002207
11.036234
11.069611
11.069601
11.069572
11.069346
11.036028
11.002048
10.967996
10.934212
10.900858
10.868011
10.835733
10.804112
10.773285
10.743452
10.714902
10.688058
10.663535
10.642278
10.625646
10.615692
10.615735
10.6313
10.671806
10.754526
10.912577
11.213737
11.809842
12.094466
11.339941
10.982845
10.793596
10.694219
10.644516
10.623711
10.620642
10.628785
10.644236
10.664717
10.68874
10.71525
10.74357
10.77324
10.803947
10.835477
10.867682
10.900467
10.933756
10.967461
11.001405
11.035245
11.068411
11.100195
11.100363
11.100432
11.100521
11.100728
11.100839
11.100902
11.100915
11.100917
11.10092
11.100929
11.100939
11.100948
11.100955
11.100958
11.100957
11.100952
11.100943
11.100932
11.100918
11.100902
11.100884
11.100866
11.100847
11.100829
11.100815
11.100807
11.100807
11.100812
11.100809
11.100756
11.100657
11.100461
11.100381
11.100319
11.100448
11.100586
11.10064
11.101113
11.10117
11.101449
11.101451
11.101475
11.101431
11.101397
11.101372
11.101361
11.101356
11.101355
11.101355
11.101355
11.101356
11.101356
11.101357
11.101357
11.101358
11.101358
11.101359
11.101359
11.101359
11.10136
11.10136
11.10136
11.10136
11.101361
11.101361
11.101361
11.101361
11.101361
11.101361
11.101361
11.101361
11.101361
11.101361
11.101361
11.101361
11.101361
11.101361
11.10136
11.10136
11.10136
11.10136
11.101359
11.101359
11.101359
11.101359
11.101358
11.101358
11.101357
11.101357
11.101357
11.101356
11.101355
11.101355
11.101354
11.101354
11.101354
11.101353
11.101352
11.101351
11.101351
11.10135
11.101349
11.101348
11.101348
11.101347
11.101346
11.101346
11.101345
11.101344
11.101343
11.101343
11.101344
11.101348
11.10136
11.101385
11.101419
11.101462
11.101438
11.101436
11.101157
11.1011
11.100627
11.100573
11.100476
11.12974
11.130298
11.130332
11.130974
11.13089
11.131234
11.131173
11.131217
11.131169
11.131146
11.131128
11.131124
11.131122
11.131123
11.131124
11.131124
11.131125
11.131125
11.131126
11.131126
11.131127
11.131127
11.131128
11.131128
11.131129
11.131129
11.131129
11.13113
11.13113
11.13113
11.131131
11.131131
11.131132
11.131132
11.131132
11.131132
11.131132
11.131133
11.131133
11.131133
11.131133
11.131133
11.131134
11.131134
11.131134
11.131134
11.131134
11.131134
11.131134
11.131134
11.131134
11.131134
11.131134
11.131134
11.131134
11.131134
11.131134
11.131134
11.131133
11.131133
11.131133
11.131133
11.131133
11.131132
11.131132
11.131132
11.131131
11.131131
11.131131
11.131131
11.13113
11.13113
11.131129
11.131129
11.131129
11.131128
11.131127
11.131126
11.131128
11.131133
11.13115
11.131173
11.131221
11.131177
11.131239
11.130894
11.130978
11.130337
11.130303
11.130363
11.158107
11.158248
11.1586
11.15869
11.158867
11.158858
11.158857
11.158821
11.158798
11.158784
11.158779
11.158777
11.158777
11.158777
11.158777
11.158778
11.158778
11.158778
11.158778
11.158779
11.158778
11.158779
11.158779
11.158779
11.158779
11.158779
11.15878
11.15878
11.15878
11.15878
11.15878
11.15878
11.15878
11.15878
11.15878
11.15878
11.15878
11.15878
11.15878
11.15878
11.15878
11.15878
11.15878
11.15878
11.15878
11.15878
11.15878
11.15878
11.15878
11.15878
11.15878
11.15878
11.15878
11.158779
11.15878
11.158779
11.158779
11.158779
11.158779
11.158779
11.158779
11.158779
11.158778
11.158778
11.158778
11.158778
11.158778
11.158777
11.158777
11.158777
11.158777
11.158777
11.158776
11.158776
11.158776
11.158776
11.158776
11.158778
11.158783
11.158797
11.15882
11.158856
11.158857
11.158866
11.158689
11.158599
11.158246
11.158106
11.158105
11.15841
11.158713
11.158946
11.159092
11.159127
11.159106
11.159067
11.159035
11.159016
11.159006
11.159002
11.159001
11.159
11.159
11.159001
11.159001
11.159001
11.159001
11.159001
11.159002
11.159002
11.159002
11.159003
11.159003
11.159003
11.159003
11.159003
11.159003
11.159003
11.159004
11.159004
11.159004
11.159004
11.159004
11.159004
11.159005
11.159004
11.159004
11.159004
11.159005
11.159005
11.159005
11.159005
11.159005
11.159005
11.159005
11.159005
11.159005
11.159005
11.159005
11.159005
11.159005
11.159005
11.159005
11.159005
11.159005
11.159005
11.159005
11.159004
11.159004
11.159004
11.159004
11.159004
11.159004
11.159004
11.159004
11.159003
11.159003
11.159003
11.159003
11.159003
11.159003
11.159002
11.159002
11.159003
11.159004
11.159008
11.159018
11.159037
11.159069
11.159108
11.159129
11.159094
11.158948
11.158715
11.158412
11.158107
11.158287
11.158564
11.158908
11.159195
11.159356
11.159393
11.159363
11.159316
11.159279
11.159256
11.159245
11.15924
11.159238
11.159237
11.159237
11.159237
11.159237
11.159238
11.159238
11.159238
11.159238
11.159238
11.159238
11.159238
11.159239
11.159239
11.159239
11.159239
11.159239
11.159239
11.159239
11.159239
11.159239
11.159239
11.159239
11.159239
11.159239
11.159239
11.159239
11.159239
11.159239
11.159239
11.159239
11.159239
11.159239
11.159239
11.159239
11.159239
11.159238
11.159238
11.159238
11.159238
11.159238
11.159238
11.159238
11.159238
11.159238
11.159238
11.159237
11.159237
11.159237
11.159237
11.159237
11.159236
11.159236
11.159236
11.159236
11.159236
11.159235
11.159235
11.159235
11.159235
11.159235
11.159234
11.159234
11.159235
11.159237
11.159242
11.159253
11.159276
11.159313
11.15936
11.15939
11.159353
11.159192
11.158905
11.158561
11.158284
11.158334
11.158729
11.159125
11.159441
11.159607
11.159636
11.159596
11.159542
11.159501
11.159476
11.159464
11.159459
11.159457
11.159457
11.159457
11.159457
11.159457
11.159457
11.159457
11.159458
11.159458
11.159458
11.159458
11.159458
11.159459
11.159459
11.159459
11.159459
11.159459
11.15946
11.15946
11.15946
11.15946
11.15946
11.15946
11.15946
11.159461
11.159461
11.159461
11.159461
11.159461
11.159461
11.159461
11.159461
11.159461
11.159461
11.159461
11.159462
11.159462
11.159462
11.159462
11.159462
11.159462
11.159462
11.159462
11.159462
11.159462
11.159462
11.159462
11.159462
11.159462
11.159462
11.159462
11.159462
11.159462
11.159462
11.159462
11.159462
11.159461
11.159461
11.159461
11.159461
11.159461
11.159461
11.159461
11.159462
11.159464
11.159469
11.159481
11.159506
11.159547
11.159601
11.159641
11.159612
11.159446
11.15913
11.158734
11.15834
11.158499
11.158886
11.159306
11.159631
11.159791
11.159809
11.159759
11.159699
11.159655
11.159629
11.159617
11.159612
11.15961
11.159609
11.159609
11.159609
11.159609
11.159609
11.159609
11.159609
11.159609
11.159609
11.159609
11.159609
11.159609
11.159609
11.159609
11.159609
11.159609
11.159609
11.159609
11.159609
11.159609
11.159609
11.159609
11.159609
11.159608
11.159608
11.159608
11.159608
11.159608
11.159608
11.159608
11.159608
11.159608
11.159608
11.159608
11.159607
11.159607
11.159607
11.159607
11.159607
11.159607
11.159607
11.159606
11.159606
11.159606
11.159606
11.159606
11.159606
11.159605
11.159605
11.159605
11.159605
11.159605
11.159604
11.159604
11.159604
11.159604
11.159604
11.159603
11.159603
11.159603
11.159603
11.159603
11.159603
11.159605
11.15961
11.159622
11.159647
11.159691
11.159752
11.159802
11.159784
11.159623
11.159298
11.158878
11.158491
11.158519
11.158953
11.159382
11.159704
11.159856
11.159864
11.159806
11.159741
11.159695
11.159669
11.159657
11.159652
11.159651
11.15965
11.15965
11.159651
11.159651
11.159651
11.159651
11.159652
11.159652
11.159652
11.159652
11.159652
11.159653
11.159653
11.159653
11.159653
11.159654
11.159654
11.159654
11.159654
11.159654
11.159654
11.159655
11.159655
11.159655
11.159655
11.159655
11.159655
11.159656
11.159656
11.159656
11.159656
11.159656
11.159656
11.159656
11.159657
11.159657
11.159657
11.159657
11.159657
11.159657
11.159657
11.159658
11.159658
11.159658
11.159658
11.159658
11.159658
11.159658
11.159658
11.159658
11.159658
11.159659
11.159659
11.159659
11.159659
11.159659
11.159659
11.159659
11.159659
11.159659
11.159659
11.159659
11.15966
11.159662
11.159667
11.159679
11.159705
11.159751
11.159816
11.159875
11.159866
11.159714
11.159392
11.158964
11.158531
11.158555
11.158981
11.159408
11.159724
11.159868
11.15987
11.159807
11.159739
11.159691
11.159665
11.159653
11.159648
11.159646
11.159646
11.159645
11.159645
11.159645
11.159645
11.159645
11.159645
11.159644
11.159644
11.159644
11.159644
11.159644
11.159644
11.159643
11.159643
11.159643
11.159643
11.159643
11.159643
11.159642
11.159642
11.159642
11.159642
11.159642
11.159642
11.159641
11.159641
11.159641
11.159641
11.159641
11.15964
11.15964
11.15964
11.15964
11.15964
11.159639
11.159639
11.159639
11.159639
11.159639
11.159638
11.159638
11.159638
11.159638
11.159638
11.159637
11.159637
11.159637
11.159637
11.159636
11.159636
11.159636
11.159636
11.159636
11.159635
11.159635
11.159635
11.159635
11.159634
11.159634
11.159634
11.159634
11.159634
11.159636
11.15964
11.159652
11.159678
11.159725
11.159793
11.159856
11.159854
11.15971
11.159394
11.158967
11.15854
11.158524
11.158953
11.159376
11.159688
11.159827
11.159826
11.15976
11.159691
11.159643
11.159617
11.159606
11.159601
11.1596
11.159599
11.159599
11.1596
11.1596
11.1596
11.1596
11.159601
11.159601
11.159601
11.159602
11.159602
11.159602
11.159602
11.159602
11.159603
11.159603
11.159603
11.159603
11.159604
11.159604
11.159604
11.159604
11.159605
11.159605
11.159605
11.159605
11.159606
11.159606
11.159606
11.159606
11.159606
11.159607
11.159607
11.159607
11.159607
11.159608
11.159608
11.159608
11.159608
11.159609
11.159609
11.159609
11.159609
11.15961
11.15961
11.15961
11.159611
11.159611
11.159611
11.159611
11.159612
11.159612
11.159612
11.159612
11.159613
11.159613
11.159613
11.159613
11.159614
11.159614
11.159614
11.159614
11.159615
11.159617
11.159622
11.159634
11.15966
11.159708
11.159777
11.159843
11.159845
11.159706
11.159395
11.158972
11.158543
11.158534
11.158959
11.159379
11.159688
11.159824
11.159821
11.159754
11.159684
11.159636
11.15961
11.159598
11.159593
11.159591
11.159591
11.15959
11.15959
11.15959
11.159589
11.159589
11.159589
11.159588
11.159588
11.159588
11.159587
11.159587
11.159586
11.159586
11.159586
11.159585
11.159585
11.159585
11.159584
11.159584
11.159584
11.159583
11.159583
11.159583
11.159582
11.159582
11.159582
11.159581
11.159581
11.159581
11.15958
11.15958
11.15958
11.15958
11.159579
11.159579
11.159579
11.159578
11.159578
11.159578
11.159578
11.159577
11.159577
11.159577
11.159577
11.159577
11.159576
11.159576
11.159576
11.159575
11.159575
11.159575
11.159575
11.159574
11.159574
11.159574
11.159573
11.159573
11.159573
11.159573
11.159572
11.159572
11.159572
11.159574
11.159578
11.15959
11.159616
11.159663
11.159733
11.159799
11.159803
11.159666
11.159357
11.158936
11.158511
11.158502
11.158925
11.159343
11.159651
11.159787
11.159784
11.159717
11.159648
11.1596
11.159574
11.159563
11.159558
11.159557
11.159557
11.159557
11.159558
11.159558
11.159558
11.159558
11.159559
11.159559
11.159559
11.15956
11.15956
11.15956
11.15956
11.159561
11.159561
11.159561
11.159562
11.159562
11.159562
11.159562
11.159563
11.159563
11.159563
11.159564
11.159564
11.159564
11.159565
11.159565
11.159565
11.159566
11.159566
11.159566
11.159567
11.159567
11.159567
11.159568
11.159568
11.159568
11.159569
11.159569
11.15957
11.15957
11.159571
11.159571
11.159571
11.159572
11.159572
11.159573
11.159573
11.159574
11.159574
11.159575
11.159575
11.159576
11.159576
11.159576
11.159577
11.159577
11.159578
11.159578
11.159579
11.159579
11.15958
11.159582
11.159587
11.159599
11.159625
11.159673
11.159742
11.159809
11.159814
11.159678
11.159371
11.158953
11.15853
11.158532
11.158952