/*--------------------------------*- C++ -*----------------------------------*\
| =========                 |                                                 |
| \\      /  F ield         | OpenFOAM: The Open Source CFD Toolbox           |
|  \\    /   O peration     | Version:  v2012                                 |
|   \\  /    A nd           | Website:  www.openfoam.com                      |
|    \\/     M anipulation  |                                                 |
\*---------------------------------------------------------------------------*/
FoamFile
{
    version     2.0;
    format      ascii;
    class       volVectorField;
    location    "0";
    object      U;
}
// * * * * * * * * * * * * * * * * * * * * * * * * * * * * * * * * * * * * * //

dimensions      [0 1 -1 0 0 0 0];


internalField   nonuniform List<vector> 
75385
(
(4.9936808 -9.9039056e-05 0.00014166337)
(4.9937907 -8.6816249e-05 0.00013548654)
(4.9939166 -7.6095779e-05 0.00012949616)
(4.9940549 -6.7096846e-05 0.00012386305)
(4.9942021 -5.902773e-05 0.00011825259)
(4.9943558 -5.1808404e-05 0.00011251481)
(4.9945129 -4.5496194e-05 0.00010662929)
(4.9946716 -3.9251846e-05 0.00010039267)
(4.9948346 -3.0013716e-05 9.360421e-05)
(4.9949952 -3.1540666e-05 9.0511867e-05)
(4.995149 -2.7455612e-05 8.5800801e-05)
(4.9952973 -2.6694051e-05 8.14095e-05)
(4.9954393 -2.2175879e-05 7.5507649e-05)
(4.9955749 -2.0519671e-05 7.010742e-05)
(4.9956997 -1.9493592e-05 6.4707755e-05)
(4.9958121 -1.9257173e-05 5.9552057e-05)
(4.995909 -1.9096661e-05 5.2793479e-05)
(4.9959867 -1.9600137e-05 4.5601587e-05)
(4.9960383 -2.3810131e-05 3.8387393e-05)
(4.9960581 -2.4024594e-05 2.6576482e-05)
(4.9960347 -2.8867419e-05 1.1597619e-05)
(4.9959568 -3.8519861e-05 1.3043765e-06)
(4.9958023 -5.163013e-05 -2.1357341e-05)
(4.9955297 -7.1037877e-05 -5.2325274e-05)
(4.9950851 -0.00010177108 -9.6476588e-05)
(4.9943772 -0.00015165237 -0.00016324694)
(4.9932582 -0.00023179949 -0.00026536099)
(4.9915441 -0.00034266268 -0.00040479536)
(4.9888314 -0.0005758426 -0.00064587353)
(4.9844476 -0.00092187988 -0.0010366618)
(4.9776572 -0.0014242287 -0.0015360724)
(4.9686089 -0.0016885637 -0.0018788338)
(4.9590871 -0.00150532 -0.0017514838)
(4.9548076 0.00029638627 -0.00010250151)
(4.9598597 0.0019517984 0.0013451949)
(4.984625 0.0070647356 0.0061640465)
(5.0251149 0.0082109028 0.0066046753)
(5.0656814 0.008594209 0.0049509482)
(5.0760825 -0.00028476626 -0.0069782689)
(5.0360857 -0.0087890857 -0.015809655)
(5.0199042 0.0092844716 0.0030660142)
(5.0104749 0.024160957 -0.018160548)
(5.0371904 0.065852729 -0.031479376)
(5.0444976 0.079836235 0.0030844756)
(5.0630029 0.066348694 -0.0076218788)
(5.0584564 0.05514783 -0.00091834258)
(5.0589499 0.029165842 -0.0086669668)
(5.0544384 0.015724374 -0.009519262)
(5.0530673 0.0050055816 -0.011571386)
(5.0527916 0.0011103303 -0.012181011)
(5.0528549 0.00013784974 -0.012298058)
(5.0529055 1.8820935e-06 -0.012268079)
(5.0529384 -8.9014775e-06 -0.01225935)
(5.0529301 3.5727646e-05 -0.012259781)
(5.0528516 0.00015121292 -0.012289207)
(5.0528283 0.00041667198 -0.012358859)
(5.0531223 0.0008483817 -0.012477443)
(5.0542714 0.0014473894 -0.012655686)
(5.0563432 0.0018265207 -0.012493451)
(5.0596662 0.0023739642 -0.011983951)
(5.0623818 0.0030616001 -0.010324396)
(5.059431 0.005454767 -0.0088428917)
(5.0482042 0.0098274918 -0.0082307367)
(5.0357756 0.010251074 -0.0080440425)
(5.0313023 0.011852365 -0.016598961)
(5.0231534 0.020432625 -0.027961427)
(5.0054653 0.025322406 -0.020224725)
(5.0035103 0.03358077 -0.010831121)
(4.9988455 0.037536768 -0.0068833782)
(4.9924816 0.038269438 -0.0090219641)
(4.9908896 0.040283813 -0.01079672)
(4.9896971 0.039397338 -0.0085881802)
(4.9914445 0.038533977 -0.0060442896)
(4.9938356 0.037348682 -0.0035247787)
(4.996092 0.036944364 -0.0018826315)
(4.9977664 0.036611208 -0.00069584912)
(4.998939 0.03646004 -8.1241531e-05)
(4.9997612 0.036386601 0.00018532093)
(5.0003631 0.036356426 0.00022926498)
(5.0008389 0.036350214 0.00018680668)
(5.0012149 0.036359166 0.00015055696)
(5.0015264 0.036357389 0.00012639493)
(5.0017896 0.036358927 0.00010755389)
(5.0020176 0.036360105 9.3987044e-05)
(5.00222 0.036361657 8.3840742e-05)
(5.002403 0.036363134 7.6382188e-05)
(5.0025721 0.036364658 7.0946607e-05)
(5.0027301 0.036365713 6.7142438e-05)
(5.0028807 0.0363662 6.4319119e-05)
(5.0030243 0.03636542 6.0691051e-05)
(5.0031603 0.036367958 5.7330941e-05)
(5.0032912 0.036370511 5.7011102e-05)
(5.0034203 0.036365419 5.4108933e-05)
(5.0035406 0.036372598 5.0419943e-05)
(5.003658 0.036373877 5.0087394e-05)
(5.0037719 0.036373077 4.9337912e-05)
(5.003882 0.036369088 4.5399595e-05)
(5.0039813 0.036373503 3.9843898e-05)
(5.0040724 0.036378553 3.6625281e-05)
(5.0041599 0.036376591 3.4913802e-05)
(5.0042384 0.036373647 3.0054561e-05)
(5.0042989 0.036374988 2.1514982e-05)
(5.0043416 0.036377492 1.2698059e-05)
(5.004374 0.036379814 3.9078128e-06)
(5.0043856 0.036380245 -5.8166273e-06)
(5.0043571 0.036376123 -1.9500329e-05)
(5.0042964 0.036375604 -4.0292115e-05)
(5.0041816 0.036380276 -6.5423797e-05)
(5.0040015 0.036372331 -9.9051965e-05)
(5.0037252 0.036385632 -0.00012214235)
(5.0033171 0.036417112 -6.1838355e-05)
(5.0026991 0.036485923 0.00017147635)
(5.0017379 0.036620827 0.000635632)
(5.0002653 0.036854332 0.0012555471)
(4.9981083 0.037101051 0.0011882571)
(4.9956284 0.037564281 -0.000705105)
(4.993882 0.03637068 -0.0095135708)
(4.9975793 0.037561608 -0.02058084)
(4.9990166 0.028126735 -0.047374945)
(5.0128235 0.037641428 -0.059015787)
(5.0066344 0.020251262 -0.071457354)
(5.0126904 0.047120901 -0.05601967)
(5.0003303 0.022202678 -0.011401873)
(5.0243027 -0.0092998914 -0.0030603686)
(5.0148839 -0.024204249 0.018182037)
(5.0416212 -0.065944359 0.031509971)
(5.0489259 -0.079943678 -0.003083678)
(5.0674421 -0.066440907 0.0076306978)
(5.0628965 -0.055219356 0.0009213831)
(5.063396 -0.029202435 0.0086777485)
(5.0588855 -0.015738921 0.0095308101)
(5.0575233 -0.0050004199 0.011585872)
(5.0572636 -0.0011042842 0.012200312)
(5.0573356 -0.00012864989 0.012311169)
(5.0574399 2.4350027e-05 0.012276521)
(5.057506 3.9580739e-05 0.012268708)
(5.0575138 3.4329987e-06 0.012274756)
(5.0574508 4.2525804e-06 0.012280282)
(5.0573503 0.00013935884 0.012313853)
(5.0572798 0.0011073197 0.012200157)
(5.0575449 0.0050038212 0.011586035)
(5.0589116 0.015740676 0.0095311066)
(5.0634242 0.02920308 0.0086778379)
(5.0629273 0.055219389 0.00092150159)
(5.0674742 0.0664405 0.0076308301)
(5.048959 0.079942977 -0.0030836807)
(5.0416553 0.065943205 0.031509889)
(5.0149197 0.024202033 0.018180988)
(5.0243424 0.009298473 -0.0030652731)
(5.0003762 -0.02220467 -0.011416874)
(5.0127341 -0.047122508 -0.056042687)
(5.0066705 -0.020251621 -0.071481197)
(5.0128544 -0.037640241 -0.059031603)
(4.9990467 -0.028124605 -0.047374308)
(4.9976118 -0.037560167 -0.020564068)
(4.9939186 -0.036373299 -0.0094984743)
(4.9956604 -0.037561795 -0.00068597933)
(4.9981483 -0.037101423 0.0012208507)
(5.0003042 -0.036857157 0.0012843657)
(5.0017777 -0.03662308 0.0006534813)
(5.00274 -0.036487789 0.00017679977)
(5.0033587 -0.036417863 -6.8344821e-05)
(5.003765 -0.03638252 -0.00012840311)
(5.0040419 -0.036372686 -9.9734712e-05)
(5.0042218 -0.036377519 -6.3126937e-05)
(5.0043342 -0.036380607 -3.8784512e-05)
(5.0043983 -0.036376184 -1.9088548e-05)
(5.0044136 -0.036374896 -2.4100899e-07)
(5.0044121 -0.036385199 1.0943402e-05)
(5.0043933 -0.036379084 1.7604614e-05)
(5.0043413 -0.036376807 2.438443e-05)
(5.0042764 -0.036375516 3.0019919e-05)
(5.0042033 -0.03637709 3.4763096e-05)
(5.0041184 -0.036378154 3.7172823e-05)
(5.0040268 -0.036370733 4.1070756e-05)
(5.0039252 -0.036373569 4.6107321e-05)
(5.0038175 -0.03637384 4.8947831e-05)
(5.0037041 -0.036377763 4.8487803e-05)
(5.0035911 -0.036369064 4.9040071e-05)
(5.0034707 -0.036367427 5.3922119e-05)
(5.0033429 -0.036369456 5.7279295e-05)
(5.0032106 -0.036371145 5.831959e-05)
(5.0030754 -0.036369528 5.8886037e-05)
(5.0029361 -0.036366253 6.0847448e-05)
(5.0027904 -0.036361753 6.617424e-05)
(5.0026329 -0.036365893 7.2046005e-05)
(5.0024662 -0.036370698 7.2732385e-05)
(5.0022934 -0.03635558 7.9510719e-05)
(5.0020963 -0.036361164 9.1653045e-05)
(5.0018779 -0.036360421 0.00010235863)
(5.001629 -0.036359284 0.00011858554)
(5.0013372 -0.03635785 0.00014112861)
(5.0009865 -0.036355435 0.00017202672)
(5.0005516 -0.036356945 0.00020476264)
(5.0000012 -0.036391838 0.00015149433)
(4.9992478 -0.036462006 -9.6711884e-05)
(4.9981639 -0.03659621 -0.00057773346)
(4.9965776 -0.036827672 -0.0012086038)
(4.9943036 -0.037073111 -0.0011417368)
(4.9916804 -0.037534771 0.00075435362)
(4.9898068 -0.036345794 0.0095403922)
(4.9934245 -0.03753006 0.020576607)
(4.9947899 -0.028097124 0.047356222)
(5.0085359 -0.037606667 0.058999905)
(5.0023119 -0.020235543 0.071433477)
(5.008343 -0.047086111 0.056005036)
(4.995977 -0.022189375 0.011413941)
(5.0403353 -0.020072269 -0.030536034)
(5.0458069 -0.020091076 -0.02313122)
(5.0663825 -0.016651975 -0.011517289)
(5.0681606 -0.020664728 -0.002003788)
(5.0754162 -0.020676278 0.0039125749)
(5.0723721 -0.021766912 0.0064576724)
(5.0714226 -0.021823502 0.0054881236)
(5.0698481 -0.022031678 0.003759249)
(5.0700844 -0.021859511 0.0027321514)
(5.0710113 -0.021479548 0.0022703435)
(5.0719835 -0.021203962 0.0016959987)
(5.0727981 -0.021098802 0.0012089937)
(5.0734489 -0.021057621 0.00087759243)
(5.0739643 -0.021039633 0.00066455068)
(5.074369 -0.021032638 0.00052513723)
(5.0747 -0.021029489 0.00042859086)
(5.0749779 -0.02102847 0.00036084023)
(5.0752187 -0.021027661 0.00031252625)
(5.0754315 -0.02102732 0.00027646687)
(5.0756223 -0.021027659 0.00024826009)
(5.0758018 -0.021028704 0.00022869529)
(5.0759662 -0.021028933 0.00021498237)
(5.0761197 -0.021029424 0.00020223829)
(5.0762681 -0.021029758 0.00019183798)
(5.0764104 -0.021030203 0.00018411103)
(5.0765473 -0.021030773 0.00017806826)
(5.0766789 -0.021031169 0.00017241651)
(5.0768058 -0.021031476 0.00016607364)
(5.0769296 -0.021031842 0.000159057)
(5.0770502 -0.021032337 0.00015267152)
(5.0771629 -0.021033227 0.00014647456)
(5.077271 -0.021034001 0.00013939821)
(5.077373 -0.021034425 0.00013098144)
(5.0774705 -0.021035626 0.00012421933)
(5.0775573 -0.02103593 0.00011839786)
(5.077634 -0.021034026 0.0001014943)
(5.0777003 -0.021036344 8.0024059e-05)
(5.0777521 -0.021040855 7.4173519e-05)
(5.0777875 -0.021036912 6.2569673e-05)
(5.0777977 -0.021031188 6.2520348e-06)
(5.0777795 -0.021038677 -5.9386202e-05)
(5.0777301 -0.021039483 -0.00011652216)
(5.0776322 -0.021041577 -0.00019601745)
(5.0774717 -0.021045761 -0.00030528136)
(5.0772287 -0.021053092 -0.00045987231)
(5.0768652 -0.021071716 -0.00068920259)
(5.0763522 -0.021113886 -0.0010372289)
(5.0756614 -0.021221545 -0.001539192)
(5.0747965 -0.021499551 -0.0021165538)
(5.0739978 -0.021867452 -0.0026013455)
(5.0738979 -0.022048021 -0.003658468)
(5.0755894 -0.021842037 -0.0053719985)
(5.076646 -0.021788833 -0.0063301976)
(5.0797573 -0.020696861 -0.0038024036)
(5.0725475 -0.020682746 0.0020978181)
(5.0708035 -0.016665232 0.011598111)
(5.0502385 -0.020105115 0.02319771)
(5.0447775 -0.0200864 0.030584774)
(5.0405467 -0.0088012887 0.015828541)
(5.0805951 -0.00027750829 0.0069962334)
(5.0702078 0.0085997294 -0.0049437546)
(5.029644 0.0082157748 -0.0065985476)
(4.9891606 0.0070687361 -0.0061561706)
(4.9644214 0.0019517956 -0.0013303315)
(4.959426 0.00028973747 0.00012122063)
(4.963806 -0.0015178135 0.001785459)
(4.9734714 -0.0017042353 0.0019206781)
(4.982682 -0.0014413636 0.0015797571)
(4.9896363 -0.0009333644 0.0010845433)
(4.9941752 -0.00058263166 0.00069406265)
(4.9970619 -0.00034896021 0.00047223296)
(4.998975 -0.00023355986 0.00033736851)
(5.0003003 -0.00015291698 0.00024130585)
(5.0012307 -0.00010303403 0.00018112894)
(5.0019156 -7.1883094e-05 0.00014407203)
(5.0024466 -5.0822229e-05 0.00012159127)
(5.0028798 -3.6485312e-05 0.00010861289)
(5.0032524 -2.8102036e-05 0.00010049049)
(5.0035884 -2.2055612e-05 9.6535726e-05)
(5.0039029 -1.8112618e-05 9.4976456e-05)
(5.0042076 -1.7647018e-05 9.3893122e-05)
(5.0045133 -2.0567406e-05 9.311525e-05)
(5.0048241 -2.1330872e-05 9.3847259e-05)
(5.0051386 -1.3302441e-05 0.00010345786)
(5.0054673 -1.9292546e-05 0.00010656701)
(5.0058149 -2.1529352e-05 0.00010877768)
(5.0061784 -2.376401e-05 0.00011373183)
(5.0065655 -2.5739789e-05 0.00012195096)
(5.0069755 -2.1966527e-05 0.00013261142)
(5.0074127 -2.9017861e-05 0.00013867239)
(5.0078834 -3.3770591e-05 0.00014517183)
(5.008388 -3.5521966e-05 0.0001570418)
(5.0089289 -3.5326683e-05 0.00017048448)
(5.009506 -3.6871946e-05 0.00018259337)
(5.0101284 -4.6498726e-05 0.00019235095)
(5.0108003 -5.2375873e-05 0.00020313121)
(5.0115218 -5.8188121e-05 0.00021693263)
(5.0122988 -6.5270419e-05 0.00023078896)
(5.0131352 -7.3246331e-05 0.00024531106)
(5.0140366 -8.1233618e-05 0.00026227591)
(5.0150099 -8.8728497e-05 0.00028250456)
(5.0160607 -9.8516321e-05 0.00030163688)
(5.0171937 -0.00011047446 0.00032081027)
(5.0184169 -0.00012239569 0.00034354453)
(5.0197379 -0.00013547549 0.00036725698)
(5.0211637 -0.00015010491 0.00039229573)
(5.0227022 -0.00016680054 0.00041814688)
(5.0243621 -0.00018469517 0.00044611498)
(5.0261529 -0.00020416769 0.00047612737)
(5.0261049 -0.00019283362 0.0014685405)
(5.0243172 -0.00017469248 0.001375867)
(5.0226605 -0.00015729954 0.0012899909)
(5.0211244 -0.00014036121 0.0012125279)
(5.0197002 -0.00012596484 0.0011357953)
(5.0183807 -0.00011418383 0.0010622343)
(5.0171615 -0.00010132845 0.00099178256)
(5.0160312 -9.2078337e-05 0.00093339614)
(5.0149785 -8.3120122e-05 0.00087464134)
(5.0140071 -7.0710536e-05 0.00081473472)
(5.013111 -6.4293764e-05 0.00076213536)
(5.0122769 -5.7089382e-05 0.00071816324)
(5.0115002 -4.9353205e-05 0.00067707302)
(5.0107813 -4.0846552e-05 0.00063567355)
(5.010113 -4.1433717e-05 0.00059686181)
(5.0094893 -3.8623351e-05 0.00056170806)
(5.0089088 -3.5276905e-05 0.00052582745)
(5.0083677 -3.1778573e-05 0.00048668805)
(5.0078688 -2.2389666e-05 0.00045625143)
(5.0074031 -2.0801284e-05 0.0004361587)
(5.0069624 -1.9131647e-05 0.00041501015)
(5.0065504 -1.5148827e-05 0.00038630525)
(5.0061679 -1.3819433e-05 0.00035952754)
(5.0058099 -1.1346511e-05 0.0003447222)
(5.0054638 -1.8355687e-05 0.00033042665)
(5.0051279 -1.8752852e-05 0.00031724959)
(5.0048158 -1.013908e-05 0.00029550879)
(5.0045141 -1.9826314e-05 0.00028653012)
(5.0042092 -2.0352029e-05 0.00028623946)
(5.0039047 -2.2676176e-05 0.00028677146)
(5.0035926 -2.6559747e-05 0.00029018528)
(5.0032617 -3.1651219e-05 0.00030204222)
(5.0028959 -3.8344454e-05 0.00032805465)
(5.0024733 -4.9923201e-05 0.0003677501)
(5.0019613 -6.7994017e-05 0.00043507462)
(5.0013071 -9.8560977e-05 0.00054257911)
(5.0004239 -0.00015080886 0.00071422477)
(4.9991604 -0.00024167734 0.00098887735)
(4.9972306 -0.00040881951 0.0014003961)
(4.9941693 -0.00072733595 0.0020244211)
(4.9893056 -0.0013077657 0.0029893368)
(4.9821719 -0.0017605184 0.004362797)
(4.9732047 -0.0019830487 0.005287554)
(4.9656564 -0.0014940856 0.003965025)
(4.9644144 0.00038289709 -0.00040249594)
(4.9741377 0.0033454882 -0.0048309684)
(4.9983596 0.0085750909 -0.014474878)
(5.0356923 0.011673395 -0.015402784)
(5.0704778 0.0073278263 -0.012566028)
(5.076096 -0.0083895978 0.0098680801)
(5.0827611 -0.009745631 0.0039986567)
(5.097447 -0.0081682925 0.0010041664)
(5.1080601 -0.0066038429 0.00071200791)
(5.115347 -0.0068389541 0.001083954)
(5.1171806 -0.0080547056 -0.00081102867)
(5.1181428 -0.0084614211 -0.0030442575)
(5.1174737 -0.0084375104 -0.0038223306)
(5.1168567 -0.0082771713 -0.0033969902)
(5.1169123 -0.0081199332 -0.0026633265)
(5.1171789 -0.0079675678 -0.0020162118)
(5.1174822 -0.00790054 -0.0014415914)
(5.1177609 -0.0078683651 -0.0010065093)
(5.117984 -0.007852491 -0.00069184336)
(5.1181465 -0.0078465917 -0.0004678836)
(5.1182562 -0.007840346 -0.00030420439)
(5.1183214 -0.0078360232 -0.00017567982)
(5.118349 -0.0078363213 -7.3114178e-05)
(5.1183553 -0.0078386899 -5.9396321e-06)
(5.1183265 -0.0078356952 4.1517463e-05)
(5.118279 -0.0078337212 9.2720843e-05)
(5.1182239 -0.0078351269 0.00013497654)
(5.1181542 -0.0078367891 0.00016080668)
(5.1180708 -0.0078345807 0.00018178692)
(5.1179801 -0.0078321705 0.00020661337)
(5.1178812 -0.0078339188 0.00022807232)
(5.117776 -0.007835931 0.00024014698)
(5.1176656 -0.0078335886 0.00025001007)
(5.1175501 -0.0078311641 0.00026467169)
(5.1174288 -0.0078329631 0.00027872112)
(5.1173036 -0.0078349688 0.00028615334)
(5.1171756 -0.0078329438 0.00029292658)
(5.1170437 -0.0078327597 0.00030315744)
(5.1169071 -0.0078325059 0.00031488004)
(5.116766 -0.0078323455 0.00032846)
(5.1166195 -0.007832267 0.00034417646)
(5.1164674 -0.0078301935 0.00036560128)
(5.1163063 -0.0078346687 0.00038866033)
(5.1161354 -0.0078319972 0.00041758699)
(5.1159529 -0.0078300793 0.0004642089)
(5.1157532 -0.0078330506 0.00052421917)
(5.1155324 -0.007836376 0.00059674295)
(5.1152849 -0.0078338619 0.00069986454)
(5.1150018 -0.0078395602 0.00084720705)
(5.1146747 -0.0078495421 0.0010478961)
(5.1142975 -0.007863341 0.0013334295)
(5.1138773 -0.0078956714 0.0017386238)
(5.1134477 -0.0079626424 0.0022802579)
(5.1130795 -0.0081133538 0.0028963841)
(5.1128812 -0.0082741004 0.0035925552)
(5.1133763 -0.008430072 0.0039834722)
(5.1139425 -0.0084514737 0.003183251)
(5.1128566 -0.0080378544 0.00095142204)
(5.1109598 -0.0068282165 -0.00092344943)
(5.1036232 -0.0066024153 -0.00056023934)
(5.0929776 -0.0081647842 -0.00088590665)
(5.0782742 -0.0097411567 -0.0039171497)
(5.071599 -0.0083834481 -0.0098192023)
(5.0659452 0.0073182742 0.012599786)
(5.0729646 0.010721055 0.016383725)
(5.0843595 0.014851106 0.016498904)
(5.0926592 0.016985013 0.012319813)
(5.0974355 0.017505041 0.0077887415)
(5.0996095 0.017266014 0.0048876006)
(5.1011599 0.0170124 0.0040478287)
(5.1013321 0.017138696 0.0041558297)
(5.1010229 0.017292967 0.0037905172)
(5.1008115 0.01734825 0.0031403099)
(5.1008417 0.017383811 0.0025394944)
(5.101002 0.017412575 0.0020377613)
(5.1012266 0.017432132 0.0016409855)
(5.1014693 0.017444663 0.0013375322)
(5.1017057 0.017452418 0.0011092258)
(5.1019272 0.017456723 0.00093925138)
(5.1021329 0.017459222 0.00081437939)
(5.102325 0.017462176 0.00072074553)
(5.1025036 0.017464661 0.00064703571)
(5.1026709 0.017464983 0.00059042395)
(5.1028299 0.017465125 0.00054943338)
(5.1029821 0.01746586 0.00051939474)
(5.1031293 0.017466736 0.0004956184)
(5.1032723 0.017467792 0.00047494739)
(5.1034106 0.017468468 0.00045602174)
(5.1035449 0.017468959 0.00043897979)
(5.1036752 0.01746879 0.00042444004)
(5.1038026 0.01746866 0.00041253283)
(5.1039282 0.017470132 0.00039992999)
(5.1040502 0.017471405 0.00038329645)
(5.1041666 0.017471027 0.00036553465)
(5.104279 0.017470579 0.00034867884)
(5.1043872 0.017471507 0.0003287877)
(5.1044898 0.017472924 0.00030240625)
(5.1045846 0.017472152 0.00027175809)
(5.1046717 0.017471366 0.00023877286)
(5.1047499 0.017472346 0.00019896858)
(5.1048173 0.017473234 0.00014719684)
(5.1048733 0.017472309 8.4296391e-05)
(5.1049127 0.017471028 9.3637262e-06)
(5.1049368 0.017471348 -8.4967506e-05)
(5.104938 0.017470744 -0.00020745218)
(5.104916 0.017467285 -0.0003644173)
(5.1048687 0.017462398 -0.00056428569)
(5.1047985 0.017456081 -0.00082464777)
(5.1047123 0.017445122 -0.0011659706)
(5.1046317 0.017427207 -0.0016065811)
(5.1046005 0.017401867 -0.0021616795)
(5.1046761 0.017377958 -0.002843847)
(5.1050278 0.017294657 -0.0035491724)
(5.1054512 0.017148559 -0.003931489)
(5.105385 0.017021294 -0.0038472483)
(5.1039392 0.017265863 -0.0046877032)
(5.1018326 0.017517238 -0.007596803)
(5.0971118 0.017002483 -0.012166614)
(5.0888483 0.014868941 -0.016386457)
(5.0774847 0.010734862 -0.016310681)
(5.0357622 0.015651816 -0.016674052)
(5.0388674 0.018221242 -0.014960679)
(5.0418784 0.020081241 -0.013206536)
(5.0433333 0.021069897 -0.010267593)
(5.0439371 0.021247775 -0.007175446)
(5.0438641 0.021131395 -0.0052954363)
(5.0436813 0.021201235 -0.004405464)
(5.0432685 0.021266728 -0.0035786709)
(5.0428181 0.02124539 -0.0027522319)
(5.0425893 0.021205016 -0.0020887008)
(5.0424598 0.021207742 -0.0015902705)
(5.0423996 0.021217699 -0.0011843875)
(5.0423734 0.021225736 -0.00085195321)
(5.0423576 0.021230643 -0.00058359452)
(5.0423405 0.021234655 -0.00036872345)
(5.0423152 0.021236516 -0.00019645259)
(5.0422792 0.021237484 -5.8298751e-05)
(5.0422307 0.0212378 5.283178e-05)
(5.0421711 0.021237992 0.00014269298)
(5.0421017 0.021237963 0.00021628874)
(5.0420234 0.021237655 0.00027714368)
(5.0419372 0.02123727 0.000327446)
(5.0418437 0.021237106 0.00036953229)
(5.0417442 0.021236921 0.00040548868)
(5.0416387 0.02123667 0.00043664066)
(5.0415278 0.021235378 0.00046257451)
(5.0414142 0.021235151 0.00048476897)
(5.041297 0.021235456 0.0005059836)
(5.0411753 0.021234303 0.00052514017)
(5.041051 0.021233105 0.00054163931)
(5.040925 0.021233045 0.00055759432)
(5.0407968 0.021232906 0.0005748168)
(5.0406664 0.021232743 0.0005941986)
(5.040533 0.02123158 0.00061595502)
(5.0403964 0.02123048 0.00064032299)
(5.0402575 0.021229194 0.00066888272)
(5.0401163 0.021228864 0.00070478951)
(5.0399717 0.021228492 0.00075179159)
(5.0398238 0.021228015 0.00081360937)
(5.0396712 0.02122638 0.000893867)
(5.0395139 0.021223577 0.00099693386)
(5.039355 0.021221294 0.0011312729)
(5.0391962 0.021217362 0.0013063659)
(5.0390448 0.021210895 0.001530836)
(5.038914 0.021201146 0.0018134849)
(5.038829 0.02118882 0.0021624622)
(5.038827 0.021180537 0.0025902619)
(5.0389442 0.021203385 0.0031445029)
(5.0392576 0.021262811 0.0038916248)
(5.0395631 0.021191864 0.0046927885)
(5.0396448 0.021121416 0.0055544932)
(5.0396369 0.021247902 0.0074418867)
(5.0389307 0.021055553 0.010525434)
(5.0374369 0.020059393 0.013408885)
(5.0343716 0.018195295 0.015088315)
(5.0312381 0.015634942 0.016731888)
(5.0311522 0.011662628 0.01542677)
(4.993815 0.0085672156 0.01450658)
(4.9911401 0.010540461 0.015423483)
(4.9869719 0.011860412 0.013133699)
(4.9848076 0.012604156 0.010890635)
(4.9837095 0.013323918 0.0090805668)
(4.9828239 0.013477557 0.0073703656)
(4.9820072 0.013521272 0.0060855296)
(4.9816074 0.013536197 0.0048809174)
(4.9812315 0.013521371 0.0038254636)
(4.9808995 0.013422054 0.003018891)
(4.9806982 0.013375242 0.0025133346)
(4.9806031 0.013375994 0.0021648671)
(4.9805924 0.013385381 0.0018778554)
(4.9806385 0.013393436 0.0016348594)
(4.9807205 0.013398833 0.0014330993)
(4.9808244 0.013402154 0.0012695226)
(4.9809409 0.013404201 0.0011392498)
(4.9810638 0.013405317 0.0010373155)
(4.9811914 0.013406382 0.00095780962)
(4.9813206 0.013406746 0.00089522415)
(4.9814511 0.013407452 0.00084588764)
(4.9815811 0.013407855 0.00080676289)
(4.9817108 0.013408341 0.00077553663)
(4.9818402 0.013409061 0.00074972548)
(4.9819685 0.013409317 0.0007273776)
(4.9820958 0.013409418 0.00070723029)
(4.9822219 0.013409967 0.0006882639)
(4.9823468 0.013410269 0.00066961365)
(4.9824702 0.013410664 0.00065039694)
(4.9825915 0.013411296 0.00062984709)
(4.9827106 0.013411815 0.00060649531)
(4.9828265 0.013411478 0.00058005266)
(4.9829396 0.013412052 0.0005501856)
(4.9830491 0.013412536 0.00051541465)
(4.9831545 0.013412631 0.00047473909)
(4.9832553 0.013412944 0.00042668609)
(4.9833507 0.013413169 0.00036953346)
(4.9834407 0.013413292 0.00030143099)
(4.9835253 0.013413198 0.00022001165)
(4.9836047 0.013413419 0.00012196233)
(4.9836787 0.013413364 2.9736872e-06)
(4.9837488 0.013412365 -0.00014173672)
(4.983818 0.013410547 -0.00031728212)
(4.9838925 0.013408399 -0.00053058706)
(4.9839789 0.013404038 -0.00078752128)
(4.9840911 0.013397274 -0.001091362)
(4.9842489 0.013390472 -0.0014477306)
(4.9844779 0.013396552 -0.0018831679)
(4.9847951 0.013466141 -0.0025263611)
(4.9852611 0.0135255 -0.003440923)
(4.9857489 0.013533507 -0.0045339034)
(4.9862438 0.013523531 -0.0057792667)
(4.9871284 0.01347729 -0.0071097243)
(4.9881091 0.013321931 -0.0088312954)
(4.9892732 0.012624181 -0.010689321)
(4.9914865 0.011874507 -0.01301686)
(4.9956726 0.010551851 -0.015354499)
(4.9722647 0.0038821101 -0.0076531498)
(4.9668351 0.0040255621 -0.0080573373)
(4.9619899 0.0041714791 -0.007604433)
(4.9591585 0.0044521152 -0.0070469641)
(4.9573164 0.0046462709 -0.0062584253)
(4.9563162 0.0047282972 -0.005146738)
(4.9556891 0.004734366 -0.0039945159)
(4.955133 0.0047127638 -0.0029683389)
(4.9546298 0.0046653596 -0.0021305346)
(4.9542134 0.0045969707 -0.0015681951)
(4.9539123 0.004590465 -0.0012122787)
(4.9536865 0.0045959731 -0.00091498251)
(4.9535121 0.0046015335 -0.00065117916)
(4.9533714 0.0046053059 -0.00041911479)
(4.9532516 0.0046068147 -0.00021920781)
(4.9531446 0.0046081018 -4.9560829e-05)
(4.9530439 0.0046085982 9.340828e-05)
(4.9529459 0.0046089286 0.0002135069)
(4.9528479 0.0046090468 0.00031487566)
(4.9527475 0.0046089889 0.00040029708)
(4.9526452 0.0046090022 0.00047235622)
(4.9525398 0.0046089518 0.00053365002)
(4.9524311 0.0046087568 0.00058585936)
(4.9523188 0.0046084933 0.00063005344)
(4.9522046 0.0046084553 0.00066781685)
(4.9520878 0.004608464 0.00070090919)
(4.9519684 0.0046082086 0.00072976216)
(4.9518469 0.0046077156 0.00075455713)
(4.9517247 0.0046081629 0.00077676181)
(4.951601 0.0046078043 0.00079747032)
(4.9514765 0.0046074006 0.0008169691)
(4.9513519 0.0046077741 0.00083678525)
(4.9512268 0.0046073378 0.0008576066)
(4.951102 0.0046070684 0.00087976535)
(4.9509784 0.004607041 0.00090504776)
(4.9508566 0.0046069491 0.0009356171)
(4.9507367 0.0046068223 0.00097355768)
(4.9506194 0.0046065637 0.0010209583)
(4.9505061 0.0046060636 0.0010799147)
(4.9504003 0.0046052735 0.0011533145)
(4.9503048 0.0046051087 0.0012457897)
(4.9502232 0.0046034251 0.0013610671)
(4.9501623 0.0046008859 0.001501568)
(4.9501318 0.0045966625 0.0016688189)
(4.9501447 0.004590149 0.0018613499)
(4.9502194 0.0045822546 0.0020771223)
(4.9503817 0.0045815327 0.0023306245)
(4.9506665 0.0046247238 0.0027230962)
(4.9510544 0.0047197357 0.0034272626)
(4.9514868 0.0047405469 0.0044052006)
(4.9520222 0.0047318943 0.0055019048)
(4.9529497 0.0046534165 0.0065590744)
(4.9547273 0.0044549555 0.0072895774)
(4.9574734 0.0041675202 0.0077889692)
(4.9622913 0.0040208186 0.0081902052)
(4.9677048 0.0038773516 0.0077378659)
(4.9695698 0.0033424734 0.0048775629)
(4.9598109 0.00038114943 0.00045813268)
(4.9601536 -0.00011183636 0.0016960473)
(4.9567831 -0.0010920354 0.002844001)
(4.952775 -0.0016197474 0.0039517581)
(4.9499728 -0.0017079167 0.0046413533)
(4.9483402 -0.0016199678 0.0046532657)
(4.9474923 -0.0015886446 0.0041253001)
(4.9469723 -0.0016209374 0.0034187136)
(4.9465413 -0.0016607124 0.0027304211)
(4.9461377 -0.0018016091 0.00226606)
(4.9458103 -0.0018451076 0.0020648591)
(4.9456068 -0.0018361351 0.0019310397)
(4.9454884 -0.0018226449 0.0017934113)
(4.945433 -0.0018129325 0.001655898)
(4.9454252 -0.0018069953 0.0015286575)
(4.945453 -0.0018034056 0.001417272)
(4.9455073 -0.0018015399 0.0013232735)
(4.9455813 -0.0018004302 0.0012458183)
(4.9456696 -0.0018002591 0.0011833836)
(4.9457688 -0.0017987734 0.0011326573)
(4.9458753 -0.0017985516 0.0010907167)
(4.9459873 -0.0017989576 0.0010566744)
(4.9461034 -0.0017995152 0.0010291272)
(4.9462228 -0.0017990831 0.0010058075)
(4.9463452 -0.0017990877 0.00098460247)
(4.9464686 -0.0017990315 0.00096469908)
(4.9465931 -0.0017989621 0.00094534626)
(4.9467179 -0.0017989118 0.00092557574)
(4.9468428 -0.0017989999 0.00090446315)
(4.9469677 -0.0017990232 0.00088108668)
(4.947092 -0.0017990111 0.00085466192)
(4.9472153 -0.0017989189 0.00082431442)
(4.9473371 -0.0017989797 0.00078932581)
(4.9474573 -0.0017995339 0.00074949336)
(4.9475763 -0.0017986432 0.00070283033)
(4.9476935 -0.0017990616 0.00064809729)
(4.9478092 -0.0017992037 0.00058479833)
(4.947924 -0.0017998617 0.0005115336)
(4.948039 -0.0017992076 0.00042576889)
(4.9481551 -0.0017999474 0.00032533258)
(4.9482748 -0.0018005172 0.00020865208)
(4.9484016 -0.0018014444 7.2791551e-05)
(4.9485398 -0.001803094 -8.4388963e-05)
(4.9486958 -0.0018062605 -0.00026401498)
(4.9488785 -0.0018115607 -0.00046521736)
(4.9490991 -0.0018200263 -0.00068375442)
(4.9493727 -0.0018296552 -0.00091388088)
(4.949719 -0.0018237925 -0.0011716602)
(4.9501888 -0.0017372338 -0.0015861075)
(4.9507098 -0.0016852223 -0.0022044025)
(4.9512677 -0.0016321752 -0.0029437859)
(4.9518861 -0.0016058453 -0.003721013)
(4.9528105 -0.001643106 -0.0043104533)
(4.9544938 -0.0017181323 -0.0043583654)
(4.957353 -0.0016214538 -0.0037369931)
(4.9613897 -0.0010951178 -0.0026959088)
(4.9647566 -0.00011042281 -0.001600873)
(4.9676576 -0.0028449391 0.0034151136)
(4.9673981 -0.0039550284 0.0013352111)
(4.9658384 -0.0045019711 -0.00060085689)
(4.9642579 -0.0047199002 -0.0017839985)
(4.9631487 -0.0046643101 -0.0022551357)
(4.9624334 -0.0046004403 -0.0021542065)
(4.9618839 -0.0045775355 -0.0018003215)
(4.9613713 -0.0045922915 -0.0013959146)
(4.9608612 -0.0046113855 -0.0010266754)
(4.9603927 -0.0046575999 -0.00076037748)
(4.9600268 -0.0046627139 -0.00058130162)
(4.9597243 -0.0046554741 -0.00041186361)
(4.9594719 -0.0046491762 -0.00023999261)
(4.9592586 -0.0046449962 -7.3467507e-05)
(4.9590748 -0.0046427636 8.1121208e-05)
(4.958912 -0.004641107 0.00022088981)
(4.9587637 -0.0046401145 0.00034554225)
(4.9586254 -0.004639538 0.00045537902)
(4.9584931 -0.0046391974 0.00055149826)
(4.9583648 -0.0046388301 0.00063514213)
(4.9582381 -0.0046385115 0.00070791139)
(4.9581122 -0.00463822 0.00077139888)
(4.9579864 -0.0046380474 0.00082666998)
(4.9578605 -0.0046379442 0.00087450098)
(4.9577337 -0.004637942 0.00091573057)
(4.9576065 -0.0046377831 0.00095140184)
(4.9574788 -0.0046377615 0.00098232728)
(4.9573508 -0.0046376348 0.0010092194)
(4.957223 -0.0046375225 0.0010327921)
(4.9570959 -0.0046375326 0.0010536803)
(4.9569697 -0.004637473 0.0010726076)
(4.9568447 -0.004637351 0.0010904946)
(4.9567217 -0.0046367806 0.0011088445)
(4.9566013 -0.004637856 0.001127447)
(4.9564848 -0.0046372717 0.0011471785)
(4.9563725 -0.0046371908 0.0011704545)
(4.9562663 -0.0046371581 0.0011981924)
(4.9561681 -0.0046374489 0.0012314352)
(4.9560802 -0.0046378553 0.001271317)
(4.9560051 -0.0046384683 0.0013194613)
(4.9559476 -0.0046393583 0.0013774138)
(4.9559133 -0.0046410302 0.0014455709)
(4.9559089 -0.0046438577 0.0015227792)
(4.9559432 -0.0046485626 0.0016056038)
(4.9560265 -0.0046562481 0.0016861723)
(4.9561705 -0.0046677579 0.0017509737)