/*--------------------------------*- C++ -*----------------------------------*\
| =========                 |                                                 |
| \\      /  F ield         | OpenFOAM: The Open Source CFD Toolbox           |
|  \\    /   O peration     | Version:  v2012                                 |
|   \\  /    A nd           | Website:  www.openfoam.com                      |
|    \\/     M anipulation  |                                                 |
\*---------------------------------------------------------------------------*/
FoamFile
{
    version     2.0;
    format      ascii;
    class       volScalarField;
    location    "206";
    object      k;
}
// * * * * * * * * * * * * * * * * * * * * * * * * * * * * * * * * * * * * * //

dimensions      [0 2 -2 0 0 0 0];


internalField   nonuniform List<scalar> 
33282
(
0.19513765
0.1921919
0.18932648
0.18653723
0.18382034
0.18117228
0.17858975
0.17606972
0.17360927
0.17120569
0.16885645
0.16655915
0.16431146
0.16211114
0.15995608
0.15784426
0.15577366
0.15374235
0.15174854
0.14979045
0.14786632
0.14597437
0.14411297
0.14228049
0.14047526
0.13869563
0.13693997
0.13520664
0.13349452
0.13180129
0.13012487
0.12846263
0.12681234
0.12517291
0.12355078
0.12193878
0.12036849
0.11881114
0.11732228
0.11584027
0.11449285
0.11415626
0.1164136
0.11992611
0.12198038
0.12436614
0.12729195
0.13039181
0.13387751
0.13736727
0.14080625
0.14365378
0.14663696
0.14881183
0.15060915
0.15203325
0.15376819
0.15385384
0.15441983
0.1547633
0.15555295
0.15612533
0.1571075
0.15773976
0.15704002
0.15566318
0.15318526
0.14893905
0.14326539
0.13676614
0.13326205
0.13410415
0.14443699
0.1578425
0.17092421
0.181031
0.18684953
0.19026484
0.19136954
0.19180366
0.19131797
0.191035
0.19051687
0.19080871
0.19038389
0.18999724
0.18961959
0.18930085
0.1888172
0.18841083
0.18797755
0.18765499
0.1873727
0.18721606
0.18710089
0.18691116
0.18677707
0.18655827
0.18651433
0.18663157
0.18710076
0.18655613
0.18646859
0.18660891
0.18688666
0.18714844
0.1873086
0.18746989
0.18763229
0.18779463
0.18796195
0.1881205
0.18831575
0.1885463
0.18867418
0.18882093
0.18899274
0.18919563
0.18944471
0.18967083
0.18988996
0.19013792
0.19030662
0.19052692
0.19069536
0.19087939
0.19101591
0.1911461
0.19129122
0.19144193
0.19157908
0.19176625
0.19196274
0.19213778
0.19233988
0.19257941
0.1928051
0.19301563
0.19321891
0.19346191
0.19356182
0.19377372
0.19409653
0.19471946
0.19439959
0.19473286
0.19501553
0.19586043
0.1964508
0.19734279
0.19770614
0.19793933
0.1970626
0.19514363
0.19105299
0.1844077
0.174306
0.16016011
0.14327674
0.12607364
0.12595518
0.14331088
0.159785
0.17375074
0.18377198
0.19063566
0.19455299
0.19671043
0.19735869
0.19730258
0.19667626
0.19599332
0.19519856
0.19462569
0.1941989
0.19407142
0.19378701
0.19394366
0.19431944
0.19487032
0.19561508
0.19633171
0.19699885
0.19711361
0.1964752
0.19438381
0.19038587
0.1836459
0.17357568
0.16004336
0.1440234
0.12766278
0.12996913
0.14527472
0.16058011
0.1737421
0.18351179
0.19020058
0.19412588
0.19619034
0.19682247
0.19659788
0.19594658
0.1951575
0.19450917
0.19395385
0.19370369
0.19352851
0.19344136
0.19354626
0.19381457
0.19426604
0.19493066
0.19566524
0.19649479
0.19661325
0.1961542
0.19413885
0.19025822
0.18376331
0.17417307
0.16146126
0.14657333
0.13178894
0.13369138
0.14809981
0.16252577
0.1748285
0.18415905
0.19036752
0.1941985
0.19599953
0.19637905
0.19622901
0.19534541
0.19456964
0.19387224
0.19346023
0.19319662
0.19308512
0.19284064
0.19286396
0.19321417
0.19375856
0.19432915
0.19523607
0.19605208
0.19625561
0.19601557
0.19430379
0.19072639
0.18459243
0.17571519
0.16381511
0.14994863
0.13631835
0.1388073
0.15183244
0.16502097
0.17655924
0.18507352
0.19095753
0.19433265
0.19601121
0.1961743
0.19585029
0.19492236
0.19405864
0.19347653
0.19301476
0.19265024
0.19269935
0.19247289
0.19252817
0.19283972
0.19327361
0.19401578
0.19485741
0.19563843
0.19598702
0.19591276
0.19444574
0.19125247
0.1856108
0.17734194
0.16642053
0.15367043
0.14143368
0.1440754
0.15549309
0.16755022
0.17806464
0.18614387
0.19147914
0.1944115
0.19586182
0.19586074
0.19544377
0.1945677
0.19363187
0.19292987
0.19255167
0.19222792
0.19217621
0.19197195
0.19201226
0.19236918
0.19278063
0.1935135
0.19431634
0.19522615
0.19572742
0.19582921
0.1944654
0.1915832
0.18655108
0.17898063
0.16892822
0.15747201
0.14699791
0.1495711
0.15931847
0.17001889
0.17959005
0.18669469
0.19168756
0.19457092
0.19576881
0.19569031
0.19502193
0.19430031
0.19345694
0.19275752
0.19226777
0.19187716
0.19188857
0.19168006
0.19175908
0.19206491
0.19244805
0.19323667
0.19408909
0.19493823
0.19554567
0.19563595
0.19445115
0.19183434
0.18700963
0.18010081
0.17110951
0.16117541
0.15214648
0.15407472
0.16260765
0.17186828
0.18043693
0.18704955
0.19185516
0.1944571
0.19554878
0.19546744
0.19486704
0.19391301
0.19293873
0.19224648
0.19185201
0.19150536
0.19143398
0.19134505
0.19141032
0.19168111
0.19209859
0.19284177
0.19373139
0.19470112
0.1953549
0.19549968
0.19442307
0.19178508
0.18717773
0.18064803
0.17239526
0.1635868
0.15532064
0.15639544
0.16428485
0.17264541
0.18073678
0.1871776
0.19176509
0.194406
0.19535305
0.1950294
0.19444285
0.19353175
0.19264342
0.19201492
0.19155307
0.19127623
0.19115914
0.19101246
0.1910626
0.19145465
0.19198377
0.1926813
0.19340854
0.19425261
0.19489301
0.19521002
0.19421878
0.19180271
0.18736291
0.18097084
0.17319596
0.1650044
0.15769078
0.15808503
0.16520713
0.17337829
0.18119197
0.18736294
0.19179515
0.19424276
0.19513648
0.19484075
0.19407863
0.19337821
0.19261043
0.19181939
0.19136707
0.19094246
0.19095398
0.19083186
0.19090896
0.1913024
0.19183452
0.19248417
0.19327222
0.19412472
0.19466234
0.19490353
0.19409424
0.19175391
0.18767317
0.1815733
0.17401494
0.16599876
0.15874662
0.15922163
0.16650112
0.17436173
0.18191168
0.18777744
0.19182147
0.19411631
0.194825
0.19452354
0.1939665
0.19304578
0.19228557
0.19153649
0.19109691
0.19069264
0.19059483
0.19049451
0.19061706
0.19098622
0.19146666
0.19219795
0.1931271
0.19399903
0.1945454
0.19500187
0.1942803
0.1921859
0.18820323
0.18228019
0.17488239
0.1669925
0.15978809
0.16024284
0.16750381
0.17524232
0.18262201
0.18839713
0.19215106
0.19422688
0.19486601
0.19450359
0.19389672
0.19290774
0.19197035
0.19128345
0.19069396
0.19038674
0.19021889
0.19011375
0.1902326
0.19060629
0.19113669
0.19183191
0.19274975
0.19384548
0.19458425
0.19490472
0.19420036
0.19231353
0.18852537
0.18295628
0.17579062
0.16817763
0.16131963
0.16179707
0.16857356
0.17587491
0.18300266
0.18859153
0.19234327
0.19419063
0.19493704
0.19444771
0.19373236
0.19260733
0.19167989
0.19084565
0.19029672
0.18989698
0.18974909
0.18952024
0.1895782
0.19003293
0.19070571
0.19137359
0.19254912
0.19361903
0.19438238
0.19472181
0.19398911
0.19199245
0.18807854
0.18254733
0.1754101
0.16816795
0.16132072
0.15981151
0.16683678
0.17410258
0.18136045
0.18699975
0.19116799
0.19326012
0.19406663
0.19384089
0.19317107
0.19210081
0.19103932
0.19033534
0.1898137
0.18935805
0.18936205
0.18908599
0.18916585
0.18952455
0.19006648
0.19087175
0.1917026
0.19263953
0.19334363
0.19337835
0.19234822
0.1898659
0.18534957
0.1794059
0.17191484
0.16435073
0.15726219
0.15313843
0.16076929
0.16877198
0.1767239
0.18325688
0.18820121
0.19105136
0.19231879
0.19250494
0.19218109
0.19140485
0.1906607
0.18979797
0.18926894
0.18891604
0.18884055
0.18871186
0.18878837
0.18905282
0.18952273
0.19023549
0.19094823
0.19167757
0.19193438
0.19151113
0.18977815
0.18633731
0.18077289
0.1735418
0.16501115
0.15626513
0.14801972
0.14196264
0.15125571
0.16109929
0.17049506
0.17823813
0.18440478
0.18832367
0.19053691
0.19125648
0.19104794
0.19045968
0.1899272
0.18925073
0.1888477
0.18864216
0.1885503
0.18849264
0.18849277
0.18866205
0.18903088
0.1895564
0.19010783
0.1906461
0.19061557
0.18963491
0.18736009
0.18312042
0.17681595
0.1685391
0.15887015
0.14835831
0.13865422
0.13992561
0.14911636
0.15940342
0.16890417
0.17677209
0.18291681
0.18701385
0.18918169
0.19015113
0.19018203
0.18971746
0.18922491
0.18863461
0.18833381
0.18818533
0.18814783
0.18790514
0.18785851
0.18806539
0.18838381
0.1887767
0.18944375
0.18980283
0.18966674
0.18908018
0.18721431
0.18404493
0.17899983
0.17219039
0.16432579
0.15574082
0.14847524
0.16072079
0.16561172
0.17146513
0.17715815
0.18199533
0.1856516
0.18771461
0.18901373
0.18944299
0.18934951
0.18888074
0.18830823
0.18794381
0.18781342
0.18764034
0.18779995
0.18760155
0.18748587
0.18752624
0.18762497
0.18804102
0.18838736
0.18880846
0.18917978
0.18904799
0.18839956
0.18702145
0.18490046
0.18212735
0.17875782
0.17521838
0.17240422
0.18139375
0.18263297
0.18439191
0.18605137
0.18721479
0.18814515
0.18879223
0.18886834
0.18885358
0.18855386
0.18813306
0.18779731
0.18732672
0.18727087
0.18725612
0.18738848
0.18726421
0.18714302
0.18709889
0.18711977
0.18740347
0.18770065
0.188106
0.18854428
0.18874155
0.18900291
0.18895815
0.18865375
0.1882948
0.18782285
0.18730587
0.1868657
0.18986368
0.18964253
0.18941094
0.18926007
0.18915826
0.18916139
0.1888065
0.18845152
0.18822685
0.18792107
0.18743739
0.18721293
0.18688619
0.18692284
0.18698222
0.18707029
0.18700722
0.18689672
0.18686498
0.18683262
0.18704716
0.18729319
0.18766343
0.18785549
0.18823991
0.18860367
0.18902129
0.18925457
0.1897096
0.1900955
0.19039589
0.19092272
0.1911189
0.19055282
0.19021029
0.18966808
0.18914096
0.18879213
0.1882992
0.18797033
0.18754923
0.18733609
0.18695781
0.18680139
0.18659627
0.18662728
0.18659935
0.18665059
0.18640664
0.18631656
0.18642091
0.18658481
0.1866757
0.18687557
0.18718735
0.18740091
0.18771143
0.1881087
0.18855027
0.18894619
0.18958323
0.190052
0.19045055
0.19088271
0.19045948
0.19011511
0.18967718
0.18931682
0.1886793
0.18827018
0.18779157
0.18744822
0.18721243
0.18696657
0.18680936
0.18662506
0.18647675
0.18624295
0.18617559
0.18631326
0.18637751
0.18632136
0.1863301
0.18655479
0.18663253
0.18689575
0.18696324
0.1871126
0.1874786
0.18779943
0.18826115
0.18866472
0.18922086
0.18954282
0.18989538
0.19018338
0.19194653
0.19227482
0.19437776
0.19654893
0.19874559
0.20093577
0.20310739
0.20523686
0.20731928
0.2093445
0.21131063
0.21322318
0.21507325
0.21686547
0.2186078
0.2203033
0.22195116
0.22355248
0.2251098
0.22662814
0.22810701
0.22955211
0.23096937
0.2323595
0.23372759
0.23507791
0.23641198
0.23773401
0.23904672
0.24035283
0.24165529
0.24295597
0.24425697
0.24555999
0.24686703
0.24817955
0.24949889
0.25082618
0.25216244
0.25350858
0.2548653
0.25623322
0.25761278
0.25900442
0.25773441
0.25634813
0.25497366
0.25361057
0.2522583
0.25091613
0.24958316
0.24825837
0.24694048
0.24562812
0.2443196
0.24301312
0.24170656
0.24039766
0.23908378
0.23776224
0.23642992
0.23508375
0.23372024
0.2323361
0.23092754
0.22949122
0.22802325
0.22652043
0.22497906
0.22339635
0.22176888
0.22009446
0.2183701
0.21659414
0.21476416
0.21287917
0.21093749
0.20893942
0.20689216
0.20479762
0.20269097
0.20056537
0.19846954
0.19642401
0.19614293
0.19823108
0.20037031
0.20252505
0.20466977
0.20679081
0.20886767
0.21089262
0.21286132
0.21477326
0.21662931
0.21843119
0.22017957
0.22187707
0.22352606
0.22512932
0.22668977
0.22821059
0.2296951
0.23114682
0.23256939
0.23396652
0.23534177
0.23669863
0.23804046
0.23937052
0.24069187
0.2420074
0.24331975
0.24463135
0.24594434
0.24726063
0.24858191
0.2499097
0.25124529
0.25258976
0.25394407
0.255309
0.25668515
0.25807306
0.25880973
0.25741858
0.25603902
0.25467053
0.25331245
0.25196397
0.25062408
0.24929167
0.24796542
0.24664377
0.2453251
0.24400747
0.2426887
0.24136621
0.24003737
0.23869927
0.23734885
0.23598288
0.23459833
0.23319176
0.23175957
0.23029731
0.22880183
0.22726944
0.22569682
0.22408074
0.22241849
0.22070677
0.21894361
0.2171268
0.21525593
0.21332853
0.21134404
0.20930253
0.20720787
0.20507011
0.20290713
0.20073757
0.19858365
0.1964922
0.1968008
0.19892506
0.20110738
0.20331554
0.20551909
0.20769715
0.20983073
0.21190949
0.2139304
0.21589305
0.21779856
0.21964891
0.22144443
0.22318861
0.22488248
0.22652916
0.22813086
0.22969058
0.23121244
0.23269757
0.23415072
0.23557719
0.23698138
0.23836686
0.23973572
0.24109107
0.24243626
0.2437735
0.24510585
0.24643622
0.24776699
0.24910017
0.25043726
0.25177981
0.25312924
0.25448664
0.2558531
0.25722957
0.25861674
0.26001526
0.26174262
0.26032907
0.25892634
0.2575338
0.25615068
0.25477602
0.2534088
0.25204776
0.25069148
0.24933841
0.24798679
0.24663463
0.24527962
0.24391906
0.24255044
0.24117086
0.23977719
0.23836648
0.2369356
0.23548116
0.23399929
0.23248568
0.23093733
0.22935066
0.22772213
0.22604887
0.22432743
0.22255566
0.22073614
0.21886065
0.21692816
0.21493933
0.21289309
0.21078988
0.20863257
0.20643132
0.20421412
0.20199279
0.19979034
0.19765356
0.198272
0.2004547
0.20270264
0.20497796
0.20725076
0.20950452
0.2117038
0.21384513
0.21592914
0.21795733
0.21993484
0.22186393
0.22373866
0.22556359
0.22733247
0.22905134
0.23072519
0.23235753
0.23395349
0.23551426
0.23704204
0.23854163
0.2400165
0.24147007
0.24290543
0.24432601
0.24573546
0.24713591
0.24852966
0.24991956
0.25130785
0.25269657
0.2540875
0.25548229
0.2568825
0.25828928
0.25970367
0.26112671
0.26255922
0.26400199
0.26673743
0.26524404
0.26376021
0.26228521
0.26081818
0.25935812
0.25790402
0.25645459
0.25500841
0.25356379
0.25211909
0.25067226
0.24922123
0.2477633
0.24629631
0.24481747
0.24332367
0.24181163
0.24027877
0.23872168
0.23713729
0.23552126
0.23387152
0.23218474
0.23045779
0.22868662
0.22686862
0.22500097
0.22308683
0.22111854
0.21909683
0.21702244
0.21489394
0.21271044
0.21047639
0.20820109
0.20591369
0.20362681
0.20136344
0.19917292
0.19954531
0.20176061
0.20405373
0.20638362
0.20872247
0.21103598
0.21331104
0.21554869
0.21772681
0.21984867
0.22192391
0.22395544
0.22593766
0.22787278
0.2297608
0.23160545
0.23340384
0.23516153
0.23688552
0.23857685
0.24023717
0.24187123
0.24348312
0.24507681
0.24665181
0.2482117
0.24976083
0.25130105
0.25283436
0.25436357
0.25589093
0.25741856
0.25894723
0.26047877
0.26201493
0.26355673
0.26510513
0.2666612
0.26822584
0.26979996
0.27292705
0.27123637
0.26955549
0.2678837
0.26622022
0.26456405
0.26291424
0.26126973
0.25962919
0.25799122
0.25635436
0.25471686
0.25307682
0.25143187
0.24977997
0.24811885
0.24644588
0.24475843
0.24305406
0.2413297
0.2395824
0.23780891
0.23600638
0.23417254
0.2323045
0.23039906
0.22845413
0.22646768
0.22444231
0.22236936
0.22024818
0.21808042
0.2158651
0.21360205
0.21129763
0.20896254
0.20662469
0.20429805
0.20200575
0.19979476
0.19892059
0.20114634
0.20346357
0.2058104
0.20817232
0.21052916
0.2128591
0.21515072
0.21739953
0.21960914
0.22178431
0.22391154
0.22599694
0.2280449
0.23005665
0.23203486
0.23398154
0.23590234
0.23779683
0.23966709
0.24151601
0.24334668
0.24516179
0.24696401
0.24875572
0.25054005
0.25231981
0.25409483
0.2558678
0.25764117
0.25941668
0.2611959
0.26298015
0.26477094
0.26656956
0.26837619
0.27019197
0.27201788
0.27385466
0.27570339
0.27752388
0.27547694
0.27344501
0.2714275
0.26942379
0.26743295
0.26545435
0.26348723
0.26153073
0.25958352
0.25764462
0.25571265
0.25378606
0.25186275
0.24994116
0.24801958
0.24609609
0.24416809
0.24223371
0.24029059
0.23833603
0.23636744
0.23438533
0.2323859
0.23036624
0.22832176
0.22624961
0.22414949
0.2220196
0.2198574
0.21766204
0.21543321
0.21316917
0.21086779
0.20853312
0.20617754
0.20382339
0.20149366
0.19921025
0.1970096
0.19290754
0.19509723
0.19736748
0.19967747
0.20201279
0.20435359
0.20668237
0.20899169
0.21126143
0.21349913
0.2157099
0.21789622
0.22005924
0.22220193
0.22432903
0.22644334
0.22854392
0.23063242
0.23271077
0.2347828
0.23684624
0.23890547
0.24096525
0.2430283
0.24509431
0.24716515
0.2492435
0.25132918
0.25342455
0.25553179
0.25765293
0.25978944
0.26194124
0.26410953
0.26629549
0.26849893
0.27072083
0.27296217
0.27522382
0.27750743
0.27443816
0.27190057
0.26939165
0.26691091
0.26445785
0.26203151
0.25963236
0.25725832
0.25490799
0.25258084
0.25027632
0.24799324
0.2457306
0.2434868
0.24126077
0.23905118
0.23685627
0.23467417
0.23250358
0.23034229
0.22818787
0.22603753
0.22388957
0.22174172
0.21959508
0.21744583
0.21529198
0.21313086
0.21095975
0.20877462
0.20657206
0.20435121
0.20210891
0.19984137
0.19755424
0.19526022
0.19298199
0.19073855
0.18853674
0.1863687
0.17613936
0.1781971
0.18031138
0.18246919
0.18466411
0.1868787
0.18909215
0.19129186
0.19347497
0.19564564
0.19781066
0.19997468
0.20213607
0.2042977
0.20646166
0.20863002
0.21080531
0.21298875
0.21518217
0.21738931
0.21960674
0.22183979
0.22409166
0.22636435
0.22865965
0.23097906
0.23332572
0.23570137
0.23810512
0.2405382
0.24300183
0.24549723
0.24802515
0.25058671
0.25318401
0.25581521
0.25848211
0.26118618
0.2639281
0.26671197
0.25296762
0.25000689
0.24709563
0.24423306
0.24141833
0.23865003
0.23592988
0.23325493
0.23062221
0.22802898
0.22547578
0.22296179
0.2204855
0.21804557
0.21564166
0.21327233
0.21093604
0.20863066
0.20635493
0.20410713
0.20188486
0.19968585
0.19750898
0.19535229
0.19321378
0.19109104
0.18898232
0.18688526
0.18480138
0.18272357
0.18064816
0.17857287
0.17649429
0.17440818
0.17231777
0.17023403
0.16817633
0.16616729
0.16421763
0.16223833
0.144859
0.14658628
0.14836781
0.15020771
0.1520929
0.15400271
0.15592989
0.15786982
0.15980669
0.1617453
0.16369456
0.16565917
0.1676378
0.16963213
0.17164382
0.17367783
0.17572837
0.17780148
0.17990369
0.1820404
0.18420114
0.18639153
0.18861784
0.19088521
0.19318388
0.19551919
0.19789721
0.20032318
0.20278712
0.20529496
0.20785256
0.21046251
0.21312177
0.21583155
0.21859647
0.2214111
0.22428117
0.2272091
0.23019919
0.23326191
0.25471836
0.2533037
0.25190095
0.25050997
0.2491305
0.2477622
0.24640459
0.24505712
0.24371902
0.24238947
0.2410674
0.23975158
0.23844046
0.23713239
0.2358254
0.23451734
0.23320574
0.23188791
0.23056102
0.22922201
0.22786799
0.2264956
0.22510127
0.22368145
0.22223174
0.22074863
0.21922833
0.21766776
0.21606364
0.21441349
0.21271452
0.21096495
0.20916251
0.20730595
0.20539387
0.20342521
0.20140016
0.19932733
0.19721103
0.19508541
0.19294641
0.19084188
0.1888014
0.18829204
0.1882161
0.18837878
0.18862973
0.18889402
0.18904541
0.18920618
0.18937899
0.18953923
0.189723
0.18988743
0.19008464
0.19031435
0.19045366
0.19060038
0.19078512
0.19097988
0.19124096
0.19146543
0.19167928
0.19191515
0.19208524
0.19229956
0.19247367
0.1926504
0.19279671
0.19292797
0.19307405
0.19321887
0.19336197
0.19354107
0.19374798
0.19392253
0.1941208
0.19434889
0.194582
0.19478466
0.19498997
0.19521446
0.1953326
0.19551585
0.19583601
0.19792016
0.19760932
0.19744612
0.19731814
0.19711485
0.19691501
0.1967121
0.19648349
0.19626658
0.19607246
0.19588965
0.19568306
0.19551196
0.19536345
0.19522324
0.19507414
0.19493371
0.19478745
0.19461879
0.19443626
0.19423135
0.19405781
0.19383855
0.19362826
0.19339758
0.19313473
0.19294816
0.19274915
0.1926008
0.19244537
0.19221825
0.19201804
0.19183826
0.19164733
0.1914885
0.19130221
0.19114013
0.19098333
0.19072212
0.19048454
0.19030767
0.19038417
0.19252186
0.19245807
0.19264313
0.1928731
0.19312348
0.19329627
0.19346328
0.19366336
0.19382373
0.1940158
0.19420915
0.19441581
0.1946372
0.19481336
0.19496752
0.19517862
0.19535871
0.19561693
0.19585512
0.1960599
0.19626157
0.19644235
0.19663846
0.19682933
0.19699557
0.19713204
0.19728274
0.19743576
0.19757528
0.1977274
0.19789155
0.19809142
0.19828076
0.19847514
0.19868366
0.19890081
0.19910456
0.1992948
0.19947651
0.1996133
0.19976559
0.20006489
0.20221603
0.20194092
0.20178817
0.20165622
0.20148151
0.20129924
0.20110241
0.20089748
0.20068856
0.20050351
0.2003073
0.20011463
0.19994897
0.1998011
0.19965509
0.19949795
0.19934557
0.19921052
0.1990476
0.19886412
0.19866389
0.19848332
0.1982978
0.19809044
0.19785222
0.1975994
0.19741707
0.19720178
0.19703581
0.19684685
0.19662216
0.19641701
0.19620953
0.19601697
0.19584463
0.19563732
0.19545964
0.19528476
0.19503218
0.19480955
0.194623
0.19468553
0.19683556
0.19678696
0.19697029
0.19718783
0.1974415
0.19761805
0.19780906
0.19801986
0.19820612
0.19839905
0.19862256
0.1988244
0.19905266
0.19925399
0.19943298
0.19965064
0.1998372
0.20008545
0.20031707
0.20053452
0.20070589
0.20088119
0.20108873
0.20126065
0.20141776
0.20155486
0.20170431
0.20186742
0.20202499
0.2021627
0.20233447
0.20251894
0.20272325
0.20289302
0.20310737
0.20329872
0.20348435
0.20366214
0.20382995
0.20395855
0.20411506
0.20436589
0.20648332
0.206254
0.20609992
0.20597486
0.20582313
0.20564824
0.20547304
0.20528204
0.20507318
0.20490663
0.20470069
0.20451919
0.2043531
0.20421306
0.20405161
0.20388504
0.20374494
0.20359939
0.20344519
0.20327947
0.20307758
0.20290793
0.20273643
0.2025219
0.20229172
0.20204847
0.20185603
0.20163807
0.20144554
0.2012371
0.2010057
0.20079481
0.20056634
0.20036888
0.20016731
0.19994846
0.19975647
0.19957274
0.19932695
0.19910912
0.19893538
0.19897474
0.20107119
0.20104564
0.20120927
0.20142605
0.20166073
0.20185439
0.20204264
0.20226978
0.20248794
0.20269005
0.20292131
0.20314549
0.20338622
0.20359364
0.20379696
0.20401593
0.20421396
0.20445479
0.20468748
0.20489362
0.20506685
0.20523089
0.20542505
0.2055855
0.2057355
0.20589387
0.20602481
0.20619148
0.20635032
0.20649854
0.20665769
0.20683531
0.20703888
0.20720775
0.20740943
0.20760399
0.20777355
0.20794352
0.20807948
0.20819749
0.20834559
0.208563
0.21058425
0.21038405
0.21024146
0.2101285
0.21000166
0.20984159
0.20967189
0.20947795
0.20927988
0.20911576
0.208921
0.20873972
0.20858241
0.20843218
0.20827685
0.20811617
0.20798264
0.20782109
0.20767256
0.20751449
0.20732188
0.2071631
0.20699384
0.20679685
0.20656129
0.20632466
0.2061193
0.20590046
0.20568578
0.20547267
0.2052237
0.20499045
0.20475137
0.20454428
0.20431771
0.20408867
0.20389402
0.20369552
0.20347361
0.20326551
0.20310656
0.20312626
0.20511827
0.20510923
0.20525866
0.20546507
0.20567447
0.20587664
0.20607995
0.20630876
0.20653917
0.20675276
0.20699862
0.20724145
0.20749772
0.20771889
0.20794633
0.20816398
0.20837583
0.20860757
0.20884871
0.20903552
0.20919772
0.20935361
0.20954284
0.20970347
0.20985413
0.21001349
0.21014927
0.21030546
0.21045532
0.21060774
0.21076004
0.21095062
0.2111337
0.2112921
0.21148425
0.21167829
0.21185017
0.2120001
0.21211669
0.21222808
0.21236604
0.21255551
0.21446419
0.2142908
0.21416268
0.21405157
0.2139445
0.21379981
0.21362538
0.21343259
0.21325089
0.21309338
0.21291532
0.21272603
0.21257609
0.21242097
0.21227386
0.21212307
0.2119833
0.21182842
0.21167515
0.21151896
0.21133443
0.21117909
0.2110229
0.21083609
0.2105982
0.21036802
0.21014875
0.20992826
0.20969878
0.20946894
0.20920674
0.20895029
0.20870194
0.20847778
0.208242
0.20800953
0.20780794
0.20760096
0.20739956
0.20719394
0.207054
0.20705839
0.20893691
0.20894481
0.20907791
0.20928065
0.20947637
0.20968558
0.20988213
0.21011998
0.21035931
0.21059661
0.21084843
0.21111784
0.21138953
0.21162352
0.21185215
0.21207537
0.21230267
0.21253157
0.2127641
0.21295385
0.21310793
0.21325952
0.2134359
0.21358846
0.21374565
0.21389458
0.21403919
0.21418496
0.21432828
0.21448883
0.21463902
0.21482329
0.21499422
0.21515414
0.2153269
0.21551496
0.21569192
0.21583321
0.21593424
0.21604349
0.21616291
0.21632241
0.21812112
0.21797764
0.21786306
0.21775946
0.21765937
0.21752092
0.21734775
0.217164
0.21699622
0.21683804
0.21667295
0.21649536
0.21634416
0.21618282
0.21603919
0.21589304
0.21574771
0.21560158
0.21544795
0.21529353
0.21512653
0.21497839
0.21482169
0.21463223
0.21440167
0.21417428
0.21394535
0.2137184
0.21348576
0.21324619
0.21296708
0.21268906
0.21243114
0.21218553
0.21194271
0.2117041
0.21150323
0.21129526
0.21110068
0.21090507
0.21077533
0.21076471
0.21253386
0.21255007
0.2126778
0.21286567
0.21305991
0.21326632
0.21347214
0.21371012
0.21395699
0.21421117
0.21447284
0.21475958
0.21504477
0.21529083
0.2155271
0.21575954
0.21598725
0.21621435
0.21644152
0.21663084
0.21679191
0.21693776
0.21709454
0.21725346
0.21740107
0.2175452
0.21768791
0.21783851
0.21798513
0.21814417
0.21829599
0.21846793
0.21862596
0.21878308
0.21894434
0.21912576
0.21929186
0.21942859
0.21952994
0.21962707
0.21973669
0.21987039
0.2215647
0.22144395
0.22134168
0.22124861
0.22114518
0.22101054
0.22085139
0.22067505
0.22051764
0.22036415
0.22020934
0.22004278
0.21988848
0.21973242
0.21958294
0.21943173
0.21928954
0.21914991
0.21900076
0.21884346
0.21869411
0.21855023
0.21838486
0.21819696
0.21797677
0.21774946
0.21752415
0.21728528
0.21704606
0.21679044
0.21649909
0.21620726
0.21593964
0.21567992
0.21542548
0.21518803
0.21497686
0.21477254
0.21457743
0.21439834
0.21427207
0.21425556
0.21592375
0.21594391
0.21606951
0.21623969
0.21643598
0.21663774
0.21685492
0.21709326
0.21735242
0.21761904
0.21789435
0.21818877
0.21848383
0.21875098
0.21899474
0.21923887
0.21946294
0.21968914
0.21990254
0.22008659
0.22025605
0.2203982
0.22054477
0.22069637
0.22084798
0.22098298
0.22112781
0.22127543
0.22142823
0.22158064
0.22173683
0.22189974
0.22205027
0.22220269
0.22235842
0.22252826
0.22267862
0.22281168
0.22291634
0.22300731
0.22310173
0.22321393
0.22481402
0.22471213
0.22462197
0.22453611
0.22443082
0.22429943
0.22415626
0.22399328
0.2238389
0.22368664
0.22353996
0.22338125
0.22322293
0.22307124
0.22291757
0.22277046
0.22262608
0.222493
0.22234156
0.22219211
0.2220508
0.22190753
0.22173798
0.22155722
0.22134718
0.22112464
0.22089868
0.22065256
0.2204022
0.22013
0.21982931
0.2195329
0.21924983
0.21897624
0.2187131
0.2184713
0.21825113
0.2180493
0.21785452
0.21769031
0.21756834
0.2175484
0.21912544
0.21914784
0.21926493
0.2194251
0.2196167
0.21982003
0.2200414
0.2202881
0.22055463
0.22083474
0.22112592
0.2214232
0.22172836
0.2220052
0.22226206
0.22250928
0.222738
0.22295675
0.22316289
0.22334142
0.22350912
0.22365555
0.22379229
0.22393985
0.2240895
0.22422156
0.22436492
0.22451307
0.22466575
0.22481806
0.22497897
0.22513283
0.22527678
0.22542939
0.225583
0.2257381
0.2258751
0.22600529
0.22611146
0.22619194
0.22627896
0.22637406
0.22789183
0.2278055
0.22772302
0.22764349
0.22754053
0.22741093
0.22727779
0.22712777
0.2269796
0.22682613
0.22668253
0.22653084
0.22637211
0.22621895
0.2260659
0.22591677
0.22577621
0.22564327
0.22549729
0.22535129
0.22521343
0.2250688
0.22490345
0.22472475
0.22452355
0.22430643
0.22407438
0.22382672
0.22356319
0.22328217
0.22297537
0.22267362
0.22237925
0.22209155
0.22182402
0.22157228
0.22135049
0.22114504
0.22095733
0.22080025
0.22068818
0.22066392
0.22216227
0.22219111
0.22230031
0.22245343
0.22263826
0.22284437
0.22306694
0.22332244
0.22359032
0.2238848
0.2241807
0.2244878
0.22479526
0.2250802
0.22535038
0.22559794
0.22583344
0.22604976
0.22624706
0.22642573
0.22658729
0.22673076
0.22686972
0.22701545
0.22715675
0.22729187
0.22743043
0.22757981
0.22773506
0.22788712
0.22804284
0.22819428
0.22833834
0.2284914
0.22863315
0.22878052
0.22891064
0.22903841
0.22913697
0.22921663
0.22929514
0.22937535
0.23082398
0.23075088
0.23067609
0.23059751
0.2304994
0.23037502
0.23024804
0.23010442
0.2299651
0.22981418
0.22967
0.22951812
0.22936343
0.22921245
0.22905738
0.22890761
0.22876936
0.22863354
0.22849418
0.2283509
0.22821075
0.22806757
0.22790831
0.22773108
0.22753582
0.22732013
0.22708336
0.22683428
0.22655981
0.22627156
0.22596153
0.22565272
0.22535244
0.2250547
0.22478341
0.2245259
0.22430121
0.22409433
0.22391274
0.22376307
0.22365702
0.22362571
0.22505569
0.22509079
0.22519406
0.22534075
0.22551875
0.22572636
0.22595328
0.22621214
0.22648668
0.22678695
0.22709159
0.22740183
0.22771429
0.22800564
0.22828317
0.22853469
0.22877164
0.22898778
0.22918059
0.2293564
0.22951567
0.2296577
0.22979896
0.229939
0.23007734
0.23021417
0.23035148
0.23050213
0.2306564
0.23080681
0.23096001
0.23111283
0.23125747
0.23140612
0.23154362
0.23168363
0.2318079
0.23192889
0.23202692
0.23210482
0.23217645
0.23224492
0.23363878
0.23357538
0.23350632
0.23342903
0.23333086
0.23321322
0.23309114
0.23295454
0.23281843
0.23267215
0.23252722
0.23237473
0.232222
0.23207213
0.23191842
0.23176799
0.23163063
0.23149369
0.23135477
0.23121644
0.23107677
0.23093458
0.23077525
0.23060078
0.23040987
0.23019431
0.22995778
0.22970248
0.22942304
0.22912781
0.22881391
0.22850116
0.22819225
0.22789015
0.22761267
0.22735313
0.22712449
0.22691748
0.22674341
0.22659925
0.22649902
0.22646066
0.22784102
0.22788422
0.22798216
0.22812363
0.22829419
0.22849938
0.22872887
0.22898881
0.22926858
0.22957222
0.22988505
0.23020021
0.23051519
0.23081475
0.23109632
0.2313551
0.23159232
0.23180588
0.23199597
0.23216961
0.23232753
0.23247051
0.23260871
0.23274631
0.23288505
0.23302261
0.23316091
0.2333104
0.23346303
0.23361253
0.23376472
0.23391706
0.2340618
0.23420603
0.23434082
0.23447456
0.2345946
0.23470937
0.23480772
0.23488452
0.2349517
0.23501186
0.23636546
0.2363088
0.23624306
0.23616569
0.23606803
0.23595601
0.23583757
0.23570642
0.23557263
0.2354304
0.23528572
0.23513389
0.23498299
0.234833
0.23468111
0.23453266
0.23439321
0.23425485
0.23411641
0.23397927
0.23384149
0.23369875
0.23354202
0.23337023
0.23317958
0.23296636
0.23272952
0.23246724
0.23218299
0.23188026
0.23156412
0.23124589
0.23093059
0.23062604
0.23034427
0.23008443
0.22985427
0.22965086
0.22948268
0.22934457
0.22924838
0.22920326
0.23054888
0.23059553
0.2306902
0.23082494
0.23099115
0.23119274
0.23142308
0.23168267
0.2319659
0.23227121
0.23258788
0.2329097
0.23322688
0.23353242
0.23381861
0.23408467
0.23432147
0.23453498
0.23472627
0.23489586
0.2350518
0.23519444
0.23533165
0.23546845
0.23560695
0.2357462
0.23588676
0.23603425
0.23618526
0.23633636
0.23648641
0.23663711
0.23678138
0.23692202
0.2370549
0.23718394
0.23730093
0.2374106
0.23750714
0.23758556
0.23765042
0.23770493
0.23903196
0.23897974
0.23891562
0.23883631
0.23874117
0.23863299
0.23851695
0.23838991
0.23825752
0.23811841
0.23797428
0.23782463
0.23767469
0.23752404
0.23737393
0.23722675
0.23708511
0.23694516
0.23680653
0.23667
0.23653312
0.23639107
0.23623496
0.23606652
0.23587589
0.23566191
0.2354235
0.23515526
0.23486697
0.2345587
0.23423964
0.23391588
0.23359767
0.23329185
0.23300747
0.23274848
0.23251821
0.23231858
0.23215485
0.23202277
0.23193009
0.23188253
0.23320551
0.23325434
0.23334506
0.23347486
0.23363618
0.23383394
0.23406392
0.23432202
0.23460724
0.23491341
0.2352334
0.2355583
0.23587891
0.23619002
0.23648051
0.23675028
0.23699023
0.237205
0.23739511
0.23756309
0.23771924
0.23786107
0.23799761
0.23813403
0.23827317
0.23841327
0.23855565