/*--------------------------------*- C++ -*----------------------------------*\
| =========                 |                                                 |
| \\      /  F ield         | OpenFOAM: The Open Source CFD Toolbox           |
|  \\    /   O peration     | Version:  v2012                                 |
|   \\  /    A nd           | Website:  www.openfoam.com                      |
|    \\/     M anipulation  |                                                 |
\*---------------------------------------------------------------------------*/
FoamFile
{
    version     2.0;
    format      ascii;
    class       volScalarField;
    location    "206";
    object      nut;
}
// * * * * * * * * * * * * * * * * * * * * * * * * * * * * * * * * * * * * * //

dimensions      [0 2 -1 0 0 0 0];


internalField   nonuniform List<scalar> 
33282
(
0.0087963715
0.0088014239
0.0088055047
0.0088086493
0.008810891
0.0088122561
0.0088127687
0.0088124506
0.0088113174
0.0088093824
0.0088066567
0.0088031476
0.008798859
0.0087937884
0.0087879323
0.0087812839
0.0087738305
0.008765556
0.0087564456
0.0087464793
0.0087356309
0.0087238677
0.0087111599
0.0086974727
0.0086827617
0.0086669798
0.0086500759
0.008631994
0.0086127078
0.008592116
0.008570131
0.0085466478
0.0085215425
0.0084948317
0.0084663165
0.0084354559
0.0084016325
0.0083638366
0.0083229135
0.0082767797
0.0082330889
0.0082435444
0.008489497
0.0088526486
0.0091301655
0.0094610141
0.0098759995
0.010350005
0.010895347
0.011460877
0.012023731
0.012525779
0.013017033
0.0134072
0.01373044
0.013989964
0.014256383
0.014340556
0.014455249
0.014529357
0.014624461
0.01466195
0.014687997
0.014605149
0.014297095
0.013808275
0.013086022
0.012077772
0.010854898
0.009575987
0.0087073618
0.0085427243
0.0095253852
0.011282792
0.013677742
0.016704595
0.019927185
0.02274244
0.024841273
0.02622392
0.027018477
0.027454727
0.027634675
0.027787406
0.027738432
0.027704204
0.027686096
0.027682397
0.027655192
0.027637142
0.027609632
0.027594055
0.027579218
0.027579468
0.027580669
0.027566131
0.027554295
0.027528554
0.027525177
0.027550599
0.027628443
0.027537716
0.027516758
0.027535235
0.027570183
0.02760314
0.027614791
0.027624985
0.027632845
0.027638529
0.027643508
0.027646266
0.027654691
0.027669371
0.027668349
0.027671601
0.027680798
0.027696288
0.027721295
0.027743872
0.027766025
0.027793189
0.027808062
0.02783171
0.027847068
0.02786474
0.027874606
0.027883249
0.027894201
0.027905782
0.027915168
0.027932581
0.027951947
0.027968246
0.027989234
0.028016962
0.028043501
0.028067937
0.028092761
0.028123223
0.028134999
0.028163109
0.028214248
0.028310733
0.028238577
0.028237573
0.028194633
0.028181654
0.028062126
0.027880032
0.027485425
0.026891318
0.025924165
0.02456748
0.022708966
0.02035251
0.017662648
0.014692766
0.011935523
0.0096030006
0.0096236913
0.011935453
0.01465196
0.017536816
0.020238141
0.022607429
0.024468126
0.025865057
0.026812701
0.027431764
0.027787313
0.027996492
0.028083931
0.028134013
0.028154807
0.028187001
0.028143162
0.028117013
0.028089679
0.0280392
0.027945158
0.027742781
0.027393014
0.02678061
0.025824469
0.024425289
0.022541971
0.020180909
0.017482086
0.014670599
0.012023378
0.009818349
0.010081487
0.012183278
0.014743951
0.017497087
0.020157353
0.022511792
0.024389787
0.025787882
0.02674572
0.027342
0.027693364
0.027883224
0.027990933
0.028038595
0.028084486
0.028106394
0.028098707
0.028066479
0.02802497
0.027961977
0.027857836
0.027660719
0.027337071
0.026727445
0.025794261
0.024405664
0.022536995
0.020208611
0.017579631
0.014884742
0.012378584
0.010332123
0.010620379
0.012626927
0.015080075
0.017722902
0.020309804
0.022594835
0.024443418
0.025795864
0.026711082
0.027311567
0.027623796
0.027812247
0.027909245
0.027977286
0.028018802
0.028049341
0.028018714
0.027974318
0.027947575
0.027901818
0.027786933
0.027621321
0.02730293
0.026716195
0.025829335
0.024501647
0.022698094
0.020444248
0.017917653
0.015327924
0.012933012
0.010997986
0.011410242
0.013276616
0.015599657
0.018133695
0.020600662
0.022803679
0.024562309
0.025868665
0.026732939
0.027294509
0.027590265
0.027758472
0.027869069
0.02792631
0.027950139
0.028005668
0.027979343
0.02794145
0.027910565
0.027850717
0.027768256
0.027600699
0.027289018
0.026740298
0.025901902
0.024638985
0.022924164
0.02077418
0.018361239
0.015907693
0.013656663
0.011879111
0.012377782
0.014068962
0.016221247
0.018595269
0.020949592
0.023039008
0.024701754
0.025944251
0.026758918
0.027288245
0.027578263
0.027725865
0.027811545
0.027877855
0.027905049
0.027942682
0.027921715
0.027882949
0.0278628
0.027804116
0.027726737
0.027563349
0.027285728
0.026777675
0.025988781
0.024772811
0.023138946
0.021112768
0.018848497
0.016569383
0.014510095
0.012904593
0.013393845
0.014939101
0.016902499
0.019080265
0.021247651
0.023233632
0.024847342
0.026030048
0.026810858
0.027286311
0.027585742
0.027737861
0.027817313
0.027861122
0.02787454
0.027920757
0.027899631
0.027869162
0.027844083
0.02778575
0.02772442
0.027578812
0.027305401
0.026830004
0.026062405
0.024894576
0.023325646
0.021388242
0.019298468
0.017224786
0.015347827
0.013859459
0.014236987
0.01568801
0.017490667
0.019478937
0.021490518
0.023404252
0.024957838
0.026102071
0.026859683
0.027327315
0.027577998
0.027698984
0.027771837
0.027825273
0.027842007
0.027873
0.02787185
0.027840346
0.027812733
0.027765574
0.0277049
0.027576005
0.027335364
0.026884973
0.0261479
0.025018533
0.023476027
0.021598724
0.019618517
0.017692749
0.015947195
0.014516205
0.014745698
0.01614055
0.017832427
0.019731587
0.021692488
0.023555172
0.025083714
0.026182239
0.026880376
0.027329449
0.027571103
0.027694523
0.027769893
0.027807557
0.027833161
0.027855038
0.027844131
0.027811921
0.027806623
0.027781758
0.027720853
0.027576932
0.027332359
0.026901586
0.026216681
0.025127672
0.023639792
0.021800935
0.019847184
0.017978071
0.016305317
0.014968432
0.015082948
0.016403242
0.018076917
0.019952565
0.021884107
0.02371402
0.025192939
0.026255957
0.026931243
0.02733463
0.027594682
0.027727876
0.027770998
0.027806713
0.02780596
0.027847448
0.027840149
0.027813294
0.027809679
0.02778792
0.027723941
0.027597258
0.02736541
0.026936127
0.026264971
0.025226061
0.023772282
0.021987901
0.020061866
0.018206071
0.016543443
0.015207852
0.015296742
0.016637552
0.018288455
0.020147009
0.022048932
0.02382311
0.025262114
0.026279375
0.026934647
0.027356528
0.027575184
0.027704895
0.027752365
0.02778902
0.02779051
0.027813714
0.027809302
0.027789734
0.027781997
0.027750685
0.02769865
0.027592825
0.027363237
0.026936826
0.026302212
0.025283756
0.023872651
0.022108097
0.020200994
0.018356871
0.016702738
0.015369222
0.015392193
0.016726128
0.018359279
0.020194039
0.022079143
0.023815343
0.025225926
0.026241449
0.026900295
0.027329537
0.027551086
0.027663032
0.027727168
0.027743598
0.027763213
0.027775951
0.02777108
0.027748407
0.027736555
0.027704718
0.027632428
0.027502328
0.02727546
0.02683813
0.026143247
0.025092808
0.0236879
0.021946652
0.020095479
0.018301563
0.016698903
0.015419278
0.015305894
0.016549653
0.018088186
0.019841009
0.021669815
0.02341387
0.024851877
0.025960819
0.026688521
0.027176469
0.027435438
0.027588783
0.027653987
0.027691314
0.027703736
0.027723785
0.027699119
0.027661226
0.027651658
0.027622609
0.027509848
0.027358831
0.027037275
0.026483012
0.025647855
0.024453053
0.022932032
0.021159374
0.019375567
0.017680588
0.016201023
0.014994493
0.014459582
0.015621371
0.017032248
0.018662928
0.020407142
0.022223629
0.023851411
0.025179
0.026148944
0.026812248
0.027203654
0.027417358
0.027550857
0.027618351
0.027635128
0.027686354
0.027655209
0.027614331
0.027574048
0.027494019
0.027346203
0.027044895
0.026550878
0.025772681
0.024625723
0.023110495
0.021317258
0.019439952
0.017718547
0.016144054
0.014786426
0.013690016
0.012650574
0.013721713
0.015049525
0.016609204
0.01834755
0.020299887
0.02227407
0.023999389
0.025342519
0.026297835
0.026903138
0.027271718
0.027441095
0.027538623
0.027587227
0.027631902
0.027628904
0.027582303
0.027514586
0.027395997
0.027179226
0.026760007
0.026069184
0.024984652
0.023445106
0.021488781
0.019319767
0.017263845
0.015455774
0.013857306
0.01250523
0.011434979
0.010167648
0.011296164
0.012740447
0.014446948
0.016356575
0.018531903
0.020861835
0.023011233
0.024713286
0.025892356
0.02665487
0.027128912
0.027365225
0.027500135
0.027579359
0.027623501
0.027637179
0.02757956
0.02749723
0.027359508
0.027101295
0.026625703
0.025840075
0.024594769
0.022807536
0.020566525
0.018122155
0.015848742
0.013809307
0.012006382
0.010474588
0.0093085825
0.0091861658
0.010343699
0.011902178
0.013761501
0.015870331
0.018221076
0.020695539
0.022922607
0.024678869
0.025893315
0.026656201
0.027114112
0.02734365
0.027479908
0.027558271
0.02760531
0.027591685
0.027536787
0.027479679
0.027366279
0.027140506
0.026761498
0.026063199
0.024942728
0.02335507
0.0212781
0.018910704
0.016553745
0.014433483
0.012633138
0.011149584
0.010080303
0.011783962
0.012740532
0.014104476
0.015838986
0.01790248
0.020132989
0.022235258
0.024019369
0.025371982
0.02630032
0.026867486
0.027184312
0.027368924
0.027486138
0.027534626
0.027600858
0.027593795
0.027542441
0.0274875
0.027393225
0.027266577
0.026999873
0.026559386
0.025861606
0.02480501
0.023397303
0.021675447
0.019790315
0.017945431
0.016312529
0.015014077
0.014126304
0.017114674
0.017921885
0.019040388
0.020380738
0.021828727
0.0232653
0.024547943
0.025560955
0.026333255
0.026847347
0.027159464
0.027347032
0.027417129
0.027491729
0.027536422
0.027583049
0.027583844
0.027545495
0.027504205
0.027447606
0.027389324
0.027266319
0.027064867
0.026739817
0.026225194
0.02555381
0.024686411
0.023678375
0.022645049
0.021678178
0.02086174
0.020262479
0.022946296
0.023329591
0.023852321
0.024473466
0.025136025
0.02578658
0.026311474
0.02672656
0.027051372
0.027263379
0.027364636
0.02744398
0.027461926
0.027509715
0.027543388
0.027570699
0.027576335
0.027548902
0.027527538
0.027494227
0.027481623
0.027445638
0.027390238
0.027256021
0.027089176
0.026851648
0.026553106
0.026176521
0.025808289
0.025449142
0.025134746
0.024933568
0.026234587
0.026322919
0.026490564
0.026664624
0.026848402
0.027043678
0.027185606
0.027311485
0.027383555
0.027451447
0.027462726
0.027486397
0.027484167
0.027507913
0.027514323
0.027529105
0.027498708
0.027478143
0.027487424
0.027501606
0.027494811
0.027495021
0.027499072
0.027469508
0.027434459
0.027390731
0.027330345
0.027244526
0.027185757
0.027105631
0.027035044
0.027002471
0.027399994
0.027405412
0.027417301
0.027453285
0.027448129
0.027473129
0.027476162
0.027487492
0.027503661
0.027505564
0.027511728
0.027504298
0.027495628
0.027466531
0.027462098
0.027489626
0.027505662
0.027491619
0.027487272
0.027515612
0.027515886
0.027541259
0.02752839
0.027521785
0.027543614
0.027549861
0.027571131
0.027575552
0.027601006
0.027591032
0.027594559
0.027602979
0.027798801
0.02782679
0.028059526
0.028293323
0.028520847
0.028739369
0.028948727
0.029147677
0.029336547
0.02951456
0.029681731
0.029838967
0.029985136
0.030120997
0.030247761
0.030365954
0.030475573
0.030576875
0.030670306
0.030756625
0.030835857
0.030908825
0.030976362
0.031038622
0.031096303
0.031149991
0.031199921
0.031246648
0.031290539
0.031331945
0.031371241
0.031408667
0.031444482
0.031478895
0.031512136
0.031544372
0.031575752
0.031606397
0.031636412
0.031665888
0.031694896
0.031723495
0.031751735
0.031779651
0.031847265
0.031822067
0.031796807
0.031771435
0.031745886
0.031720078
0.031693907
0.03166725
0.031639956
0.031611852
0.031582729
0.031552353
0.031520448
0.031486712
0.031450792
0.031412316
0.03137085
0.031325961
0.031277142
0.03122391
0.031165704
0.031102005
0.031032214
0.030955813
0.030872196
0.030780878
0.03068127
0.030572943
0.030455349
0.030328131
0.030190825
0.030043201
0.029884867
0.029715683
0.029535551
0.029344473
0.029143351
0.028932528
0.028713681
0.028494158
0.028426539
0.028653393
0.028877976
0.029094383
0.029300655
0.029496473
0.029681121
0.029854635
0.03001711
0.030168782
0.030309941
0.03044095
0.030562026
0.030673667
0.030776344
0.030870562
0.030956846
0.031035742
0.031107804
0.031173597
0.031233691
0.031288652
0.031339017
0.031385299
0.031427984
0.031467534
0.031504381
0.03153892
0.03157151
0.031602472
0.031632088
0.031660605
0.031688236
0.031715167
0.031741554
0.031767531
0.031793206
0.031818669
0.031843989
0.031869228
0.03191619
0.031890837
0.031865358
0.031839696
0.031813778
0.031787508
0.031760772
0.031733436
0.031705339
0.031676293
0.031646089
0.03161448
0.031581181
0.03154585
0.031508132
0.031467626
0.031423906
0.031376513
0.031325005
0.031268876
0.03120759
0.031140482
0.031067048
0.0309867
0.030898888
0.030803061
0.030698727
0.0305853
0.030462378
0.030329516
0.030186536
0.030032964
0.029868558
0.029693034
0.029506328
0.029308665
0.029100646
0.028882681
0.028656542
0.02842914
0.028386638
0.028617652
0.028847428
0.029070454
0.029283725
0.029486633
0.029678478
0.029858989
0.030028315
0.030186665
0.030334343
0.030471745
0.030599045
0.030716859
0.030825464
0.030925418
0.031017143
0.031101161
0.03117813
0.031248294
0.031312373
0.031371146
0.031425255
0.031475221
0.031521358
0.031564107
0.031603933
0.031641144
0.031676151
0.031709337
0.031741015
0.031771437
0.031800791
0.031829269
0.031857043
0.03188424
0.031910988
0.031937393
0.031963534
0.031989482
0.032083806
0.032056141
0.032028157
0.031999788
0.031970951
0.03194154
0.031911439
0.031880502
0.031848561
0.031815429
0.031780888
0.031744687
0.031706528
0.031666059
0.031622944
0.03157679
0.031527166
0.031473654
0.031415809
0.031353138
0.031285075
0.03121098
0.031130378
0.031042704
0.030947384
0.030843923
0.030731735
0.030610401
0.030480161
0.030339749
0.030188899
0.030027599
0.029855582
0.029672677
0.029478733
0.029273998
0.029060487
0.028837484
0.028606861
0.028375518
0.028255288
0.028489794
0.028724468
0.028953159
0.029172824
0.029383406
0.02958184
0.029768878
0.029945171
0.030111145
0.030267614
0.03041496
0.030552457
0.030680851
0.03079941
0.030909087
0.03101067
0.031104729
0.031192042
0.031272843
0.031347497
0.031416698
0.031480952
0.031540748
0.031596523
0.031648746
0.031697908
0.031744297
0.031788215
0.031830029
0.031870021
0.031908443
0.031945508
0.031981414
0.032016336
0.032050405
0.03208373
0.032116423
0.032148565
0.032180234
0.032236883
0.032197583
0.032157638
0.032116989
0.03207556
0.032033256
0.031989976
0.031945592
0.031899948
0.031852854
0.031804122
0.031753511
0.031700767
0.031645557
0.031587604
0.031526547
0.031461979
0.03139346
0.031320627
0.031243007
0.03116016
0.031071467
0.030976596
0.030875035
0.030766294
0.030649743
0.030524929
0.030391366
0.030249366
0.030097789
0.029936638
0.029765941
0.029585421
0.029394759
0.02919404
0.028983403
0.028765035
0.028538554
0.028305937
0.028073894
0.027675526
0.027905653
0.028137231
0.028364784
0.028585739
0.028797449
0.028999986
0.029194588
0.029378759
0.029553139
0.029719094
0.029877066
0.030026398
0.030167486
0.030300441
0.030425851
0.030543462
0.030654076
0.030758662
0.03085743
0.030950653
0.031038977
0.031122957
0.031203112
0.031279427
0.031352361
0.031422454
0.031489945
0.03155508
0.031618188
0.031679532
0.031739345
0.031797709
0.031854816
0.031910837
0.031965866
0.03201998
0.032073265
0.032125786
0.0321776
0.031881692
0.031812444
0.031742596
0.031672126
0.031601005
0.03152917
0.031456562
0.031383099
0.031308669
0.031233142
0.031156373
0.031078184
0.030998365
0.030916652
0.030832804
0.030746549
0.03065756
0.030565506
0.03047007
0.03037085
0.030267448
0.03015942
0.030046359
0.029927917
0.029803653
0.029673087
0.029535861
0.029391618
0.029240577
0.029081557
0.02891439
0.028739207
0.028555793
0.028363945
0.028164028
0.027956407
0.027742998
0.027523596
0.027299929
0.027077851
0.026101453
0.026316456
0.02653452
0.026746896
0.026953312
0.027153604
0.027346971
0.027532981
0.027711546
0.027883284
0.028048855
0.028206779
0.028357872
0.028502775
0.028641743
0.028775196
0.028903471
0.029027295
0.029146728
0.029262087
0.029373772
0.029482191
0.029587701
0.029690646
0.029791332
0.029890126
0.02998735
0.030083043
0.030177489
0.030270954
0.030363618
0.030455635
0.030547131
0.030638228
0.030729023
0.030819515
0.030909762
0.030999812
0.03108967
0.03117936
0.029864934
0.029757002
0.029649528
0.02954254
0.029436046
0.029330017
0.029224435
0.029119261
0.029014434
0.028909844
0.028805399
0.028700961
0.028596367
0.028491397
0.028385868
0.028279578
0.028172295
0.02806371
0.027953577
0.027841593
0.027727413
0.027610696
0.027491394
0.02736903
0.027243211
0.027113353
0.026979055
0.02684015
0.026696317
0.026547146
0.026392409
0.026231944
0.026065411
0.02589226
0.025712259
0.025526029
0.02533447
0.025137602
0.024936057
0.024735204
0.022861045
0.023045702
0.02322968
0.023406616
0.023577568
0.023743451
0.023904176
0.024059664
0.024207998
0.024350686
0.024488481
0.02462181
0.02475095
0.024876336
0.024998549
0.025117976
0.025234656
0.025348871
0.025460901
0.025571186
0.025679653
0.02578676
0.025892997
0.025998681
0.026103885
0.026208836
0.026313807
0.026418881
0.026524274
0.026630203
0.026736856
0.026844375
0.026952793
0.027062208
0.027172707
0.027284286
0.027396979
0.027510821
0.027625815
0.027741994
0.024720069
0.024614157
0.024509482
0.024406095
0.02430402
0.024203233
0.024103781
0.024005546
0.023908442
0.023812426
0.023717445
0.023623394
0.02353017
0.023437622
0.023345628
0.023254043
0.023162682
0.023071347
0.022979877
0.022888033
0.022795548
0.022702123
0.022607541
0.022511533
0.022414084
0.022314793
0.0222134
0.022109573
0.02200295
0.021893027
0.021779333
0.021661542
0.02153898
0.021410718
0.021277056
0.021138578
0.020995793
0.020847543
0.020691213
0.020521885
0.017783213
0.017913321
0.018037542
0.018155003
0.018267415
0.018375599
0.018479221
0.018577812
0.018671473
0.018761019
0.018847322
0.018930986
0.019012067
0.019090926
0.019167827
0.019243012
0.019316733
0.019389164
0.019460481
0.019530986
0.019600531
0.019669498
0.019738145
0.019806637
0.019875118
0.019943706
0.020012615
0.020081961
0.020151698
0.020221901
0.020292635
0.020363953
0.02043588
0.020508442
0.020581708
0.020655531
0.020729916
0.02080486
0.020880282
0.020956283
0.016961145
0.016920733
0.016879448
0.01683749
0.016795025
0.016752153
0.016709131
0.016665927
0.016622494
0.01657879
0.01653494
0.016490982
0.0164469
0.016402678
0.016358356
0.016313894
0.01626924
0.016224293
0.016179004
0.016133283
0.016086989
0.016039983
0.015992194
0.015943488
0.015893723
0.015842719
0.015790329
0.015736353
0.015680841
0.015623205
0.015563063
0.015500063
0.015433802
0.015363614
0.015289376
0.015211226
0.015129255
0.015043727
0.014954389
0.0148459
0.012001351
0.012069637
0.012134183
0.012195896
0.012254259
0.012308852
0.012360753
0.012410323
0.012456825
0.012500563
0.012542304
0.012582469
0.012621016
0.0126581
0.012693845
0.012728575
0.012761917
0.012794257
0.012825993
0.012857433
0.012887905
0.012917729
0.012947249
0.012976729
0.013005547
0.013033971
0.013062301
0.013090774
0.01311876
0.013146525
0.013174325
0.013202217
0.013229951
0.013257496
0.013284996
0.013312055
0.013338856
0.013365392
0.013391741
0.013418302
0.031512594
0.031484183
0.031455784
0.031427378
0.031398935
0.031370413
0.031341758
0.031312902
0.031283757
0.031254217
0.031224153
0.031193408
0.031161783
0.03112906
0.031094978
0.031059245
0.031021522
0.030981434
0.030938579
0.030892516
0.030842819
0.030788984
0.030730473
0.030666738
0.030597094
0.03052097
0.030437743
0.030346868
0.030247763
0.030139941
0.030022865
0.029896129
0.029759259
0.02961193
0.029453828
0.02928462
0.029104125
0.028912464
0.028709976
0.028497555
0.028275902
0.028046801
0.027819067
0.027733467
0.02771637
0.027737209
0.027768918
0.027801191
0.027811968
0.027821829
0.027831396
0.02783662
0.027844035
0.027847558
0.027856066
0.027870315
0.027871012
0.027874143
0.027885215
0.027899227
0.027925797
0.027947848
0.027968947
0.027993924
0.028008884
0.02803133
0.028047401
0.028063716
0.028074991
0.028083688
0.02809466
0.02810519
0.028115414
0.028131389
0.028152174
0.028168259
0.028188435
0.028214108
0.02824139
0.028264476
0.028288917
0.028316776
0.028329968
0.028354191
0.028402581
0.028629602
0.028584238
0.028563437
0.028549454
0.02852495
0.028501731
0.028478809
0.028452577
0.028428918
0.028409628
0.028392443
0.028371968
0.028357412
0.028346486
0.028336798
0.028325518
0.028315534
0.028304425
0.028289583
0.028272426
0.028251725
0.028236396
0.028214303
0.028194017
0.02817131
0.028144857
0.028132326
0.028119255
0.028115999
0.02811292
0.028099398
0.028090678
0.028084928
0.028076603
0.028071714
0.028060164
0.028050304
0.028038666
0.028007572
0.027977774
0.027954931
0.027970912
0.028205059
0.028191426
0.028215487
0.028243857
0.028272802
0.028286695
0.028297112
0.028310569
0.028315585
0.028323886
0.028331544
0.028341019
0.028353353
0.028359466
0.028363487
0.028378162
0.028389502
0.028414849
0.028438379
0.028457538
0.028476649
0.028492901
0.028511981
0.028530175
0.028544447
0.028553908
0.028565312
0.028577021
0.028586476
0.028597812
0.028611135
0.028630331
0.028648312
0.028667411
0.028689537
0.028713749
0.028736593
0.028758161
0.028779141
0.028794179
0.028812845
0.028855752
0.029072181
0.029033508
0.029014969
0.029000837
0.028981097
0.028960899
0.028939296
0.028917169
0.0288952
0.028877735
0.028858919
0.028841052
0.02882765
0.028817113
0.028806791
0.028794624
0.028783135
0.028774015
0.028760439
0.028743628
0.028724167
0.028708161
0.028691765
0.028672479
0.0286493
0.028625172
0.028613674
0.028598653
0.028592958
0.02858509
0.028572524
0.028563518
0.028553889
0.028545716
0.028538977
0.028524677
0.028512821
0.028498861
0.028469979
0.028443083
0.02841911
0.028432292
0.02864841
0.028637186
0.028660192
0.02868593
0.028714573
0.028728591
0.028742288
0.028756876
0.028765596
0.028773649
0.028785506
0.028793795
0.028806633
0.028816169
0.028823671
0.028838763
0.028850696
0.028873754
0.028895582
0.028916108
0.028930141
0.028945134
0.028965443
0.028980282
0.028992793
0.029002102
0.029012987
0.02902589
0.029037816
0.029046689
0.029060849
0.029077273
0.029097089
0.029112067
0.029134623
0.029154501
0.029174229
0.029193585
0.029212111
0.029225669
0.029244737
0.029279693
0.029475359
0.029443889
0.029425238
0.029412266
0.029396298
0.029377551
0.029359564
0.029339929
0.029318446
0.029304096
0.029284272
0.029268477
0.029255341
0.029246216
0.029233867
0.029220616
0.029211277
0.029200828
0.029188921
0.029175205
0.029156018
0.029142074
0.029128217
0.029108441
0.029087157
0.029065223
0.029052623
0.029037776
0.029028423
0.029018046
0.029005001
0.028995531
0.02898315
0.028974556
0.028963656
0.028948055
0.028934397
0.02891945
0.028892383
0.028866952
0.028845853
0.028855607
0.029051402
0.029043771
0.029063017
0.029087979
0.029113052
0.029129351
0.029142305
0.029158974
0.029172229
0.029181393
0.02919399
0.029205256
0.029219443
0.029229443
0.029240195
0.029254914
0.029268113
0.029289334
0.029310666
0.029328898
0.029342812
0.029355732
0.029373518
0.02938627
0.02939739
0.029409605
0.029417467
0.029430571
0.029442378
0.029452616
0.02946457
0.029479616
0.029498859
0.029513404
0.029533584
0.029553532
0.029570503
0.029588336
0.029601835
0.029613686
0.029631332
0.029660785
0.029834087
0.029807477
0.029790807
0.029779798
0.029767764
0.029751577
0.029734756
0.029715122
0.029695698
0.029682003
0.029664272
0.029648845
0.029637297
0.029626879
0.029615724
0.02960366
0.029595507
0.029582986
0.029572223
0.029559986
0.02954266
0.029530695
0.029517569
0.029500968
0.029479531
0.029459274
0.029445224
0.029430797
0.029418584
0.029407953
0.029392791
0.029380377
0.0293668
0.029357005
0.029342636
0.029325851
0.029312044
0.029295162
0.029272258
0.029248855
0.02923053
0.029237166
0.029410397
0.029405454
0.029422195
0.029445144
0.029465986
0.029483284
0.029498278
0.029514886
0.02952969
0.029540348
0.029554745
0.029568381
0.029584365
0.029595978
0.029609832
0.029623823
0.029638575
0.029657796
0.029679729
0.029694582
0.029706479
0.02971786
0.029734466
0.029746922
0.029757864
0.029769909
0.029778299
0.029789567
0.029799798
0.029810429
0.029821118
0.029837742
0.029853576
0.029866302
0.029884653
0.02990409
0.029921046
0.029935585
0.029946003
0.029956665
0.029972475
0.029997238
0.030148712
0.030126519
0.030112308
0.030101807
0.030092874
0.030079246
0.0300621
0.030043045
0.030026399
0.030013922
0.029998977
0.029982714
0.029972471
0.029961559
0.029951834
0.029941474
0.029932596
0.029921348
0.029910154
0.029898498
0.029882786
0.02987164
0.029860798
0.029846175
0.029825044
0.029806354
0.029790775
0.029776621
0.029762718
0.029750049
0.029733443
0.029718004
0.029703413
0.029691298
0.029675828
0.029658807
0.029644166
0.029626281
0.029606779
0.029584132
0.029568924
0.029573102
0.029724031
0.02972171
0.029735806
0.029757854
0.029776392
0.029794485
0.029808305
0.029825996
0.029841867
0.029855798
0.029870739
0.029887861
0.029905607
0.029918663
0.029932204
0.029946504
0.029962978
0.02998119
0.030001233
0.03001605
0.030026418
0.030036868
0.030051208
0.030062204
0.030073835
0.030084098
0.030093579
0.030103108
0.030112187
0.030123773
0.030133956
0.030149335
0.030163107
0.030175813
0.03019101
0.030209196
0.030226532
0.030239531
0.030247504
0.03025762
0.030270432
0.030290428
0.030421197
0.030403659
0.030391665
0.030382463
0.0303747
0.030362235
0.030345608
0.030328211
0.030313868
0.030301528
0.030288719
0.030274444
0.030264206
0.030252619
0.030243581
0.030234091
0.030224604
0.030214853
0.030203863
0.030192726
0.030179908
0.030170098
0.030159515
0.030144971
0.030125508
0.030107797
0.030091363
0.030076776
0.030062889
0.030049241
0.030030663
0.030012499
0.029996817
0.02998179
0.029965518
0.02994783
0.029933445
0.029915652
0.029897391
0.02987655
0.029863031
0.029864929
0.029994788
0.029993724
0.030006863
0.03002644
0.030044541
0.030062006
0.030077042
0.030094538
0.030111298
0.030127457
0.03014354
0.030162763
0.030181976
0.03019634
0.030210511
0.030225632
0.030241621
0.030259014
0.030277707
0.030292007
0.030303048
0.030312393
0.0303236
0.030335255
0.030345267
0.030354635
0.030363655
0.030373689
0.030383073
0.030394225
0.030404462
0.030417804
0.030429494
0.030441573
0.030454859
0.030471769
0.030487239
0.030499345
0.030507211
0.030515403
0.030526584
0.030542591
0.030653953
0.030639896
0.03062985
0.030622305
0.030614217
0.030602517
0.030588164
0.03057212
0.030559492
0.030548032
0.030536897
0.030524432
0.030513931
0.030503297
0.030493588
0.03048356
0.030474694
0.030466056
0.030455929
0.030444633
0.03043461
0.030425678
0.030414198
0.030400316
0.030382889
0.030365739
0.030350354
0.030334575
0.030320219
0.030304708
0.030284848
0.030265093
0.030248287
0.030231439
0.030213684
0.030196352
0.03018061
0.030163537
0.030145415
0.030127229
0.030114382
0.030115384
0.030225999
0.03022554
0.03023821
0.030255013
0.030273204
0.03028983
0.030306364
0.030323748
0.030342085
0.030359816
0.030377589
0.030397527
0.030417687
0.030434606
0.030449371
0.030465633
0.030480584
0.03049731
0.030513522
0.030526649
0.030538533
0.030547096
0.030556607
0.030566982
0.030577354
0.030585259
0.030594418
0.030603857
0.030613953
0.030623986
0.030634665
0.030646515
0.030656953
0.030668169
0.030680452
0.030695448
0.030708445
0.030719824
0.030728012
0.030735198
0.03074406
0.030756812
0.030850725
0.030839503
0.030831301
0.030824886
0.030816679
0.030805629
0.030793741
0.030779827
0.030767832
0.030756732
0.030746914
0.030735747
0.030724854
0.030715
0.030704863
0.03069557
0.03068655
0.030678984
0.030668737
0.030658771
0.030650108
0.030641509
0.030629785
0.030617322
0.030601826
0.030585878
0.030570912
0.030554634
0.030539175
0.030521773
0.030501039
0.030480998
0.030462253
0.030443632
0.030424816
0.030407009
0.030390115
0.03037355
0.03035567
0.030339811
0.030327733
0.030328207
0.030421561
0.030421451
0.030432772
0.030447977
0.03046532
0.03048203
0.030499033
0.030517464
0.030536679
0.030556122
0.030575883
0.030595877
0.030617021
0.030634846
0.030650976
0.030667149
0.030682245
0.03069741
0.030712125
0.030724085
0.030735384
0.030744303
0.030752228
0.030761829
0.030771732
0.030779091
0.030787898
0.030797264
0.030807186
0.030817053
0.030828223
0.030838629
0.030847993
0.030859054
0.030870845
0.030883554
0.030894492
0.030905285
0.030913548
0.030919168
0.030926874
0.030937076
0.031015663
0.031006736
0.030999713
0.030994265
0.03098651
0.030975883
0.030965562
0.030953653
0.030942704
0.030931611
0.030922366
0.030912336
0.030901549
0.030891635
0.030881732
0.030872301
0.030863949
0.030856527
0.030847222
0.030837931
0.030829947
0.030821397
0.030810584
0.030798789
0.030784986
0.030770295
0.03075499
0.030739011
0.030722196
0.030704014
0.030682853
0.030662396
0.030642314
0.030621904
0.030602624
0.03058355
0.030566544
0.030549599
0.030532885
0.030518188
0.030507634
0.030507468
0.030585824
0.030586639
0.03059674
0.030610812
0.030627052
0.030644023
0.030661087
0.03068062
0.030699882
0.030721137
0.030741315
0.030762353
0.030783401
0.030801902
0.030819392
0.030835104
0.030850631
0.03086497
0.030878015
0.030889622
0.030899759
0.030908034
0.030916078
0.03092524
0.030933822
0.030941484
0.0309495
0.030958898
0.030969036
0.030978731
0.030989029
0.030998954
0.031008194
0.031019147
0.031029132
0.031040586
0.031050414
0.031060707
0.031067802
0.031073228
0.03107966
0.031087691
0.031153156
0.031146144
0.031140262
0.031135019
0.03112804
0.031118285
0.031108958
0.031098102
0.031088521
0.031077941
0.031068748
0.031058833
0.031048745
0.03103926
0.031029216
0.031019827
0.031011909
0.031004211
0.030995969
0.030987228
0.030979112
0.030970988
0.030961312
0.030950082
0.030937529
0.030923514
0.030908066
0.030892396
0.030874563
0.030855828
0.030834626
0.03081351
0.030792842
0.03077123
0.030751559
0.030731811
0.030714505
0.030697488
0.030681764
0.030668237
0.030658623
0.030657459
0.030722667
0.030724359
0.030733543
0.030746599
0.030761764
0.030778823
0.030796387
0.030816259
0.030836313
0.03085818
0.030879333
0.030900495
0.030921833
0.030940768
0.030958774
0.030974528
0.030989748
0.031003591
0.031015605
0.031026466
0.031036001
0.031043863
0.031052038
0.031060257
0.031068294
0.03107607
0.031083806
0.031093254
0.031103125
0.031112472
0.031122294
0.031132269
0.031141461
0.031151658
0.031160922
0.03117121
0.031180102
0.031189325
0.031196243
0.031201358
0.031206776
0.031213119
0.031267724
0.031262102
0.031257063
0.031252064