/*--------------------------------*- C++ -*----------------------------------*\
| =========                 |                                                 |
| \\      /  F ield         | OpenFOAM: The Open Source CFD Toolbox           |
|  \\    /   O peration     | Version:  v2012                                 |
|   \\  /    A nd           | Website:  www.openfoam.com                      |
|    \\/     M anipulation  |                                                 |
\*---------------------------------------------------------------------------*/
FoamFile
{
    version     2.0;
    format      ascii;
    class       volScalarField;
    location    "206";
    object      p;
}
// * * * * * * * * * * * * * * * * * * * * * * * * * * * * * * * * * * * * * //

dimensions      [0 2 -2 0 0 0 0];


internalField   nonuniform List<scalar> 
33282
(
0.14876737
0.13235008
0.11814774
0.105811
0.095051653
0.085624443
0.077329139
0.070001407
0.063501241
0.057713241
0.052544007
0.047913488
0.043750604
0.039995847
0.036599461
0.033518559
0.030715182
0.028156682
0.025815184
0.023666885
0.021690442
0.019867537
0.018181695
0.016618781
0.015165587
0.013810689
0.012543812
0.011355543
0.010237985
0.0091820518
0.0081831583
0.007230336
0.0063237144
0.0054484426
0.00461464
0.0038062116
0.0030459576
0.0023156562
0.0016478784
0.00096719382
0.00040874789
0.00045144693
0.00048434112
0.00048129437
0.0004686452
0.00045074348
0.00042266965
0.00040420512
0.00037639047
0.00036049533
0.00033651915
0.00031109742
0.00029593778
0.00026533425
0.00024472425
0.00021756876
0.00019237369
0.00016843129
0.0001495618
0.00012129735
0.00010002396
6.7266775e-05
3.3350523e-05
-1.8600553e-05
-0.00011699415
-0.00023150459
-0.00039331145
-0.00052552023
-0.00072484687
-0.00040484704
0.00061303791
0.0016965957
0.0019676597
0.0016941539
0.001135344
0.00052296551
5.2671189e-05
-0.00018158392
-0.00030273702
-0.00033428558
-0.00042661388
-0.00044537928
-0.00049489781
-0.0004513395
-0.00043708892
-0.00040897681
-0.00040706328
-0.00042248033
-0.00042406893
-0.00044251651
-0.00044193303
-0.00044559599
-0.00044232866
-0.00044070293
-0.00043832399
-0.00044652461
-0.00045840039
-0.00046837493
-0.00048540232
-0.00047965576
-0.00048560082
-0.00045652709
-0.00044891564
-0.00044063857
-0.00044538405
-0.00042857776
-0.00040983241
-0.00038548593
-0.00036378688
-0.00034566266
-0.0003313103
-0.00031601578
-0.000298898
-0.00027945532
-0.00025682217
-0.00023150664
-0.00020248245
-0.00017028989
-0.00013672355
-0.00010047317
-6.1858329e-05
-2.393748e-05
1.4661853e-05
5.322489e-05
9.1050093e-05
0.00012845703
0.00016417843
0.00019945405
0.00023330069
0.00026557911
0.00029598648
0.00032426618
0.00034992742
0.00037327607
0.00039485035
0.00041614419
0.00044109589
0.00046493479
0.00048840212
0.00050396401
0.0004994004
0.00050463363
0.00048603532
0.00048507627
0.00047639768
0.00041793569
0.00039734612
0.0003782263
0.00037558941
0.00039882497
0.00039173287
0.00037358381
0.00033916792
0.00030981209
0.00028922942
0.00024570195
0.00026292625
0.00022642708
0.0002843937
0.00036964239
0.00037430799
0.00027849196
0.00023052858
0.00024470326
0.00025934991
0.00030047029
0.00031728461
0.00033458277
0.00035120807
0.00035400119
0.0003382575
0.00031165484
0.00031676307
0.00035173256
0.0004033261
0.00045655534
0.00045495616
0.00039090746
0.00031758466
0.00027113529
0.00027217153
0.00031162624
0.00034704956
0.00035953819
0.000358358
0.00035305374
0.00034288208
0.00030230235
0.00026140303
0.00023830607
0.00028367911
0.00038411189
0.00038822085
0.00029274248
0.00025332797
0.00029213689
0.00034730707
0.00038697751
0.00039278863
0.00039270198
0.00038675524
0.00036537792
0.00032064728
0.00026600698
0.00025631107
0.0003054989
0.00038793061
0.00045476613
0.00045666989
0.00038911452
0.00030388617
0.00025644765
0.00027201657
0.00033301146
0.0003763132
0.00039826783
0.00040411872
0.00040681528
0.00040082394
0.00036311512
0.00029750676
0.00025139551
0.00028890664
0.00038174386
0.0003627039
0.0002690756
0.0002278573
0.00027495525
0.00034384719
0.0003807489
0.00038841605
0.00038658029
0.00038319602
0.00036422866
0.00032388612
0.00026519532
0.0002487607
0.00029559484
0.00038006987
0.00044617287
0.0004254813
0.00035903797
0.00027418439
0.00022522494
0.00024230839
0.00029469552
0.00033365124
0.00034946312
0.00034957222
0.00034960948
0.00033866127
0.00030262929
0.00023092404
0.00018841235
0.00023750835
0.00033626494
0.00030840091
0.00020186782
0.00014670233
0.00018547686
0.00026086617
0.00029321946
0.00030892674
0.00031112291
0.00031345506
0.00029991466
0.00025999342
0.00021067488
0.00019232152
0.00024643016
0.00033129727
0.00040026042
0.00037465
0.00030346153
0.00021918927
0.00016510074
0.00017710933
0.00023119383
0.00027055918
0.00028259494
0.00027918035
0.00027551244
0.00025582305
0.00022482613
0.00014731352
0.00011113298
0.00017083057
0.00028058577
0.00025829897
0.00014545812
8.3024164e-05
0.00011774223
0.00019479354
0.00022832872
0.00025004376
0.00025480172
0.00025895719
0.00024527197
0.00020809355
0.00015679975
0.00014578524
0.00019398778
0.000278477
0.00035082419
0.00032824582
0.00025617584
0.00017125591
0.00012896481
0.00014050472
0.00018852702
0.00022534888
0.00023937471
0.00023523558
0.00022941049
0.0002074995
0.00016902466
9.1661096e-05
5.8799524e-05
0.00012629035
0.00023632267
0.00021508293
0.00010693456
3.75308e-05
6.8943275e-05
0.00014495159
0.00018713087
0.00020911146
0.00021610329
0.00022082422
0.00020604648
0.00016889271
0.00012508892
0.00011260773
0.00015073538
0.00023516721
0.00030536358
0.0002823233
0.00021417676
0.00013332039
9.6995756e-05
0.00010955243
0.0001500103
0.00018524957
0.000199306
0.00019541618
0.00018731049
0.00016629959
0.00012088181
4.6349769e-05
1.8322708e-05
9.0760975e-05
0.00020258622
0.00017663378
6.6410276e-05
-2.5987901e-06
2.5028297e-05
9.6867891e-05
0.00014334609
0.00016361531
0.00017262471
0.00017720795
0.00016401865
0.00013168653
9.319617e-05
8.1870945e-05
0.00011672717
0.00019186605
0.00025666899
0.00023051198
0.00016854095
9.9125776e-05
6.5826371e-05
7.5772079e-05
0.00011161649
0.00014120761
0.00015135877
0.00014687043
0.0001373225
0.00011890723
7.1938917e-05
1.9254709e-06
-2.3241117e-05
4.4909951e-05
0.00015426564
0.00012799626
1.9102393e-05
-4.7590974e-05
-2.4607871e-05
4.2962156e-05
8.9571268e-05
0.00010907484
0.00012036886
0.00012508941
0.00011608949
9.0137839e-05
5.6759494e-05
4.801358e-05
8.0230185e-05
0.00014504387
0.00020275721
0.00017343365
0.00012170783
6.0527709e-05
2.9937056e-05
3.6277095e-05
6.676311e-05
9.0162958e-05
9.6206648e-05
8.9890986e-05
7.86343e-05
5.824617e-05
9.4257751e-06
-5.6044831e-05
-7.6433736e-05
-1.0049809e-05
9.9219968e-05
7.6028728e-05
-4.0817665e-05
-0.00011115634
-9.2912549e-05
-3.0202811e-05
1.7473459e-05
4.227706e-05
5.6510894e-05
6.5674404e-05
6.1513579e-05
4.0644376e-05
1.4586063e-05
9.4748186e-06
3.8739586e-05
9.6441096e-05
0.00014324245
0.00011485387
7.1720017e-05
1.6678032e-05
-1.2287913e-05
-9.5363541e-06
1.3501079e-05
2.8684178e-05
2.952261e-05
1.9441399e-05
1.9092162e-06
-2.515232e-05
-7.4829741e-05
-0.00013728112
-0.00015477907
-8.2022881e-05
5.322579e-05
1.0939093e-05
-0.00012687856
-0.00020421852
-0.00018798362
-0.00012714682
-7.645539e-05
-4.4010147e-05
-2.0785397e-05
-7.6014447e-06
-5.3155346e-06
-1.6646034e-05
-3.5870773e-05
-3.6257415e-05
-6.5110166e-06
4.5625731e-05
8.3091798e-05
5.1600239e-05
1.7941124e-05
-2.9308693e-05
-6.1694294e-05
-6.2563632e-05
-4.9122536e-05
-4.1490694e-05
-4.5949337e-05
-6.4041845e-05
-9.4633498e-05
-0.00013454155
-0.00019158925
-0.00025182486
-0.00026457083
-0.00018002363
-1.7282861e-05
-6.7496593e-05
-0.00024413466
-0.00033803008
-0.00032815799
-0.00026558613
-0.00019971174
-0.00014977202
-0.00011042715
-8.775638e-05
-7.8760066e-05
-8.2105698e-05
-9.11078e-05
-8.7096976e-05
-5.4486528e-05
-9.8744333e-06
1.9130841e-05
-1.4059378e-05
-3.7031094e-05
-7.9014355e-05
-0.000111363
-0.00012123971
-0.00011430184
-0.00011434779
-0.00012944707
-0.00016068715
-0.00020830159
-0.0002705826
-0.00034920919
-0.00041493501
-0.00042044457
-0.00031703902
-0.00011783391
-0.00017983735
-0.00040822998
-0.0005273344
-0.00052015472
-0.00043986074
-0.00034331169
-0.00026835462
-0.00020839633
-0.00016908807
-0.00015027563
-0.00014634596
-0.00014726536
-0.00013609865
-0.00010207474
-6.5191357e-05
-4.7527316e-05
-8.4394464e-05
-9.6566398e-05
-0.00012785362
-0.0001584693
-0.0001705323
-0.00017317576
-0.00018275224
-0.00020619484
-0.00025413678
-0.00032683694
-0.00042996253
-0.00053276911
-0.00062402646
-0.0006366588
-0.00052274507
-0.00028542874
-0.00040205462
-0.00064833012
-0.00078424541
-0.00075948003
-0.00064147782
-0.00050363938
-0.00037890969
-0.00029548639
-0.00024190343
-0.00021199278
-0.00019657111
-0.0001931415
-0.00017779045
-0.00015387449
-0.00012873465
-0.00011931782
-0.00015090194
-0.00015889733
-0.00017789221
-0.00019704214
-0.0002116813
-0.0002200184
-0.00023729337
-0.00027021366
-0.00032982311
-0.00042568982
-0.00057283718
-0.00075324413
-0.00092867272
-0.00094994456
-0.00077216249
-0.00054565799
-0.00067128351
-0.00096667819
-0.0010900373
-0.001030179
-0.00083891351
-0.00062625426
-0.00045577298
-0.00035598909
-0.00029669019
-0.00026062314
-0.00023551799
-0.0002239636
-0.00021286495
-0.00020210271
-0.00019040309
-0.00018611442
-0.00021847794
-0.00022024212
-0.00022405832
-0.00022679193
-0.00023476004
-0.00024710668
-0.00027075153
-0.0003123128
-0.00037256774
-0.00047399527
-0.00066236406
-0.00093253866
-0.001177039
-0.0012187519
-0.0010665475
-0.00069303747
-0.00055898892
-0.0010929539
-0.0013568531
-0.0013305891
-0.0010119393
-0.00067839925
-0.0004684266
-0.00036960574
-0.00031518927
-0.00028277185
-0.00025660019
-0.00024202062
-0.00024145447
-0.00024438925
-0.00024550563
-0.00024757741
-0.0002759504
-0.00027169415
-0.00026391281
-0.00025192561
-0.00024719403
-0.0002625766
-0.00029118014
-0.00031682741
-0.00035305394
-0.00043945908
-0.00065497862
-0.00103445
-0.00140082
-0.0013699537
-0.00081289485
-5.6335684e-05
0.00050333811
-0.00046110289
-0.0012639038
-0.0013552972
-0.00098533352
-0.00060275109
-0.0004038237
-0.00034208648
-0.00031644952
-0.00029493636
-0.00026986366
-0.00025440926
-0.00026335934
-0.00028079687
-0.00029435292
-0.00030070986
-0.00032530794
-0.00031717811
-0.00030027149
-0.00027670157
-0.00026481381
-0.00027742755
-0.00030337762
-0.00032601666
-0.0003436375
-0.00039278086
-0.00055591757
-0.00090467492
-0.001227336
-0.0010597226
-0.00013205375
0.0010143922
0.0010619826
6.5184401e-05
-0.00078125731
-0.00098989425
-0.00078689722
-0.00053807268
-0.00040698779
-0.00035840043
-0.00034064634
-0.00031584697
-0.00028738888
-0.00028194473
-0.00029239196
-0.00032170706
-0.00034134024
-0.00034524051
-0.00036229945
-0.0003632323
-0.00034414755
-0.00031590932
-0.00030122526
-0.00030656079
-0.00033360834
-0.0003598504
-0.00038274135
-0.00043133
-0.00054206709
-0.0007279209
-0.00087435699
-0.00066097492
6.0026895e-05
0.00072970373
0.00034757212
-2.7795565e-05
-0.00053402329
-0.00075220317
-0.00068117644
-0.00054115666
-0.00044708868
-0.00040063006
-0.00036968506
-0.00035107382
-0.00032736656
-0.00032460961
-0.00034288
-0.00037196757
-0.00038994715
-0.0003837924
-0.00040739412
-0.00041852829
-0.00040247418
-0.00037353407
-0.00035348931
-0.00035003175
-0.00036658491
-0.00038665809
-0.00041055231
-0.00044757366
-0.00051070822
-0.00059096028
-0.00062476443
-0.00044597758
-0.00013691239
2.6245868e-05
-0.00013596347
-0.00017481262
-0.00034926005
-0.00048182949
-0.00048990979
-0.00045817658
-0.0004279796
-0.00040721431
-0.00039028145
-0.0003846204
-0.00037663194
-0.00038513008
-0.00040654719
-0.00043174778
-0.00044266665
-0.00042743289
-0.00044394531
-0.00046091743
-0.00045224294
-0.00042916921
-0.00040543004
-0.00039119453
-0.00039108102
-0.0003941821
-0.00040026776
-0.00040097614
-0.00040659644
-0.0004086367
-0.00037423353
-0.00027957912
-0.0001979991
-0.00023043077
-0.00029129453
-0.00024524958
-0.00027292774
-0.00032788962
-0.00036352433
-0.00037997738
-0.00038354167
-0.00038866376
-0.00039006484
-0.00039167312
-0.00039563984
-0.00041050424
-0.00043490386
-0.00045447331
-0.00046333895
-0.0004495305
-0.00044363402
-0.00044840002
-0.00044124051
-0.00042367925
-0.00040154119
-0.00038889454
-0.00038383959
-0.00038285119
-0.00038391798
-0.00038373928
-0.00038220933
-0.00037099842
-0.00034894332
-0.00032672381
-0.00032791647
-0.00037409412
-0.00042707166
-0.00039594556
-0.00038309612
-0.00038607035
-0.00039438557
-0.00039729026
-0.00039572836
-0.00038970695
-0.00038567329
-0.00038338903
-0.00038465014
-0.00039618407
-0.00041319874
-0.00042848294
-0.00043705977
-0.00043827361
-0.00044449963
-0.00044229392
-0.00043033859
-0.00041890765
-0.00040488626
-0.00039743626
-0.00039606261
-0.00040163376
-0.0004071263
-0.00041043124
-0.00041361931
-0.00041212764
-0.00041267063
-0.0004166094
-0.00042845891
-0.00045741233
-0.00096351456
-0.00099839512
-0.0016579201
-0.0022748475
-0.0029363124
-0.0036163956
-0.0043316912
-0.0050777598
-0.0058613886
-0.0066842547
-0.0075509626
-0.008463978
-0.0094302608
-0.010453606
-0.011537008
-0.012685405
-0.013904224
-0.015199009
-0.016575969
-0.018041783
-0.019603853
-0.021268039
-0.023043974
-0.024941091
-0.026966849
-0.029134454
-0.031456163
-0.033944201
-0.036615011
-0.039484945
-0.042574652
-0.045907033
-0.049511254
-0.053420806
-0.057673917
-0.062320523
-0.067417679
-0.073039475
-0.079273141
-0.086230951
-0.094048668
-0.10289527
-0.11298619
-0.12457125
0.013163401
0.018230721
0.022095778
0.024949746
0.026968196
0.028289279
0.02905883
0.029374309
0.029265379
0.02886223
0.028233874
0.027425183
0.026480134
0.02543611
0.024322718
0.023164223
0.021979994
0.020787596
0.019599247
0.018422377
0.017265116
0.016133152
0.015030445
0.013959668
0.012922397
0.011919243
0.01095019
0.010014413
0.0091109681
0.0082377451
0.0073935331
0.00657443
0.0057801201
0.0050037515
0.0042526904
0.0035151764
0.0028188424
0.0021399323
0.0015322788
0.00089457698
0.00090401457
0.0015370984
0.0021466013
0.0028224754
0.0035203883
0.0042542737
0.00500617
0.0057821918
0.0065781699
0.0073990188
0.0082455715
0.0091212516
0.010027547
0.010966519
0.011939282
0.012946734
0.013989015
0.015065654
0.016175246
0.017315319
0.018482138
0.019670331
0.020872249
0.022080045
0.023282277
0.024462532
0.025601487
0.026675673
0.027656177
0.028506672
0.029183574
0.029640636
0.029819682
0.02961679
0.028922549
0.02769552
0.025795916
0.023081781
0.019378873
0.014497349
0.017376997
0.021860205
0.025214273
0.027626997
0.029265896
0.03026532
0.030748412
0.030773807
0.030446756
0.029864464
0.029081774
0.028142587
0.027087017
0.025948764
0.02475515
0.02352844
0.02228757
0.021046692
0.019815899
0.018603597
0.017416408
0.016259054
0.01513479
0.014045674
0.012992748
0.01197619
0.010995604
0.01004995
0.0091378379
0.0082572488
0.0074063236
0.006581892
0.0057824561
0.0050037297
0.0042483877
0.0035121853
0.0028098071
0.0021332476
0.0015195738
0.00089941056
0.00090855903
0.0015071695
0.0021204825
0.002796851
0.00350287
0.0042424387
0.0050023677
0.0057854174
0.0065900937
0.0074201901
0.0082778852
0.0091662322
0.010087492
0.011043751
0.012036692
0.013067674
0.014137479
0.015246411
0.016394
0.01757884
0.0187984
0.020048942
0.021325026
0.02261937
0.023922686
0.025222972
0.026503876
0.027745708
0.028924179
0.030009257
0.030964277
0.031747752
0.032305122
0.032548704
0.032395598
0.031768705
0.030556444
0.02863243
0.025839046
0.021994946
0.028419395
0.031358092
0.033359331
0.034593987
0.035207343
0.035316965
0.035024654
0.034405322
0.033531151
0.032474786
0.031285328
0.030000732
0.02865315
0.027268245
0.025866381
0.024463892
0.023073651
0.021705635
0.020367628
0.019064546
0.017800408
0.016577793
0.015398149
0.014262033
0.013169082
0.012118358
0.011108558
0.010137872
0.0092042204
0.0083051681
0.007438233
0.0066001588
0.00578849
0.004999313
0.004233772
0.0034895107
0.0027786636
0.0020988116
0.0014808117
0.00087459264
0.00085865333
0.0014577334
0.0020743288
0.0027573629
0.0034730603
0.0042237446
0.0049961286
0.005793142
0.0066131979
0.0074610528
0.0083391715
0.0092513123
0.010200177
0.011188647
0.012219205
0.01329424
0.014415629
0.015585283
0.016804482
0.018073806
0.019393141
0.020761498
0.022176748
0.02363537
0.025133068
0.026662716
0.02821493
0.029777431
0.031334505
0.032865863
0.034345611
0.035741978
0.037014008
0.038106618
0.038956483
0.03949644
0.039639045
0.039279546
0.038288196
0.036509355
0.045975939
0.04637082
0.046164128
0.045490598
0.044458559
0.043158268
0.041660024
0.040019525
0.038283697
0.036493024
0.034678236
0.032862669
0.031064657
0.029298275
0.027573904
0.025898435
0.024277195
0.022713588
0.021209753
0.019766658
0.01838415
0.017061389
0.015797004
0.014589046
0.013435108
0.012332371
0.011278215
0.010269493
0.0093034369
0.0083764775
0.0074857456
0.0066266495
0.0057968436
0.0049906853
0.0042104174
0.0034520742
0.0027304992
0.0020412269
0.0014247434
0.00081802426
0.00079780951
0.0013959437
0.0020092297
0.0027018111
0.0034291394
0.0041943601
0.0049830047
0.0057983292
0.0066384167
0.007509365
0.0084138196
0.0093566086
0.010341078
0.011371333
0.012450804
0.013583268
0.014772081
0.016021365
0.017334661
0.018715313
0.020166211
0.02169036
0.023290287
0.02496769
0.026723478
0.028558246
0.030471261
0.03246029
0.034521117
0.036647351
0.038829135
0.041052866
0.043300263
0.045546528
0.047760195
0.049902058
0.051921345
0.053752822
0.055311489
0.056489225
0.067760952
0.064860093
0.061830601
0.058746895
0.055663597
0.05261949
0.049641987
0.046750401
0.043957895
0.041273637
0.038703034
0.036248534
0.033910633
0.031687563
0.029577033
0.027575665
0.025679219
0.023883018
0.022182927
0.020574275
0.019052144
0.017611505
0.016247581
0.014955487
0.013730467
0.012567424
0.011462044
0.010409745
0.0094065167
0.0084478462
0.0075298194
0.0066469472
0.0057962913
0.0049721175
0.0041751277
0.003403164
0.0026696702
0.0019757603
0.0013658842
0.00077443823
0.00075566948
0.0013352184
0.0019435435
0.002637192
0.003375709
0.0041534351
0.0049583842
0.0057905919
0.0066511798
0.0075454738
0.0084773045
0.0094518366
0.010473559
0.011547617
0.012678805
0.013871992
0.015132967
0.01646776
0.017882568
0.019383603
0.020977665
0.022672107
0.024474458
0.026391993
0.028432101
0.030602976
0.03291443
0.035376309
0.0379976
0.040788958
0.043759572
0.046918641
0.05027538
0.053837081
0.057610259
0.061598055
0.065799806
0.070207457
0.074801901
0.079550296
0.091578005
0.084893352
0.078673024
0.072900321
0.067552347
0.062602528
0.058022023
0.053782988
0.049857651
0.046221375
0.042849811
0.039721496
0.036816898
0.034114964
0.031603278
0.029265301
0.027084082
0.025047208
0.023144815
0.021366544
0.019702218
0.018142064
0.016677751
0.01530139
0.014005533
0.012782736
0.01162672
0.01053181
0.0094923405
0.0085027898
0.0075584411
0.0066537635
0.005784052
0.0049438315
0.004131907
0.0033488623
0.002605956
0.001912014
0.0013030383
0.00073012861
0.00071586552
0.0012789628
0.0018891674
0.0025828118
0.0033283678
0.0041152995
0.0049326587
0.0057794432
0.0066573378
0.0075716145
0.0085277218
0.0095314095
0.010587465
0.011702175
0.012881678
0.014132358
0.015461024
0.016876042
0.018386963
0.020003222
0.021734117
0.023593221
0.025594459
0.027753968
0.030082374
0.032586532
0.035286255
0.038215048
0.041391473
0.044848342
0.048613337
0.052719242
0.057205515
0.062114737
0.067496731
0.073405408
0.079901095
0.087049875
0.094919905
0.10358361
0.11509117
0.10447918
0.095002242
0.086523328
0.078923543
0.07209873
0.065955558
0.060412735
0.055398525
0.050851344
0.046717234
0.042949952
0.039503632
0.036353706
0.033487604
0.030865073
0.02841943
0.026140005
0.024040505
0.022101211
0.020304743
0.018635488
0.017078912
0.01562516
0.014265348
0.012989797
0.011789689
0.010656908
0.0095849837
0.0085683746
0.0076023931
0.0066795516
0.0057940884
0.0049413732
0.0041190508
0.0033285151
0.0025786997
0.0018808077
0.0012585273
0.00068649993
0.000738268
0.0012963508
0.0019248157
0.002619428
0.0033692669
0.0041599382
0.0049846783
0.0058397801
0.0067290798
0.0076576149
0.0086318654
0.009659909
0.010746838
0.011897086
0.013118822
0.014419772
0.015808478
0.017296168
0.018892615
0.020609775
0.022462795
0.024464884
0.026632714
0.028985224
0.031536949
0.034317499
0.037367347
0.040712973
0.044391467
0.048439494
0.052909152
0.057859167
0.0633563
0.069480406
0.076323421
0.083991195
0.092610109
0.10232669
0.11330759
0.1257543
0.13467266
0.12066961
0.10842693
0.097680106
0.088216514
0.079852485
0.072434376
0.065833893
0.059941273
0.054662177
0.049918044
0.045641653
0.041775084
0.038269328
0.035084919
0.032185621
0.029535684
0.027104404
0.024869449
0.022810414
0.020909592
0.019151772
0.017522119
0.016006877
0.014594346
0.013273242
0.012036039
0.010873991
0.0097793995
0.0087448293
0.0077630733
0.0068276756
0.0059322326
0.0050716786
0.0042429495
0.0034485439
0.002693666
0.0019904788
0.0013474903
0.00077491818
0.00084117501
0.0014435948
0.0020978669
0.0028104018
0.0035673318
0.004365249
0.0051960104
0.0060613162
0.0069621615
0.0079052154
0.0088959395
0.0099409604
0.011046729
0.012220985
0.01347194
0.014808615
0.016239968
0.017777838
0.01943457
0.021223847
0.023160896
0.025263593
0.027551535
0.030046442
0.032773152
0.035763741
0.039054357
0.04268506
0.046700519
0.051155329
0.056113632
0.061649565
0.0678507
0.074822055
0.082688415
0.091598018
0.10172435
0.11328374
0.12652441
0.14176228
-0.19308503
-0.17511916
-0.15881272
-0.14404122
-0.13067721
-0.1185998
-0.10769291
-0.097846853
-0.088959247
-0.080935656
-0.073689184
-0.067140728
-0.06121851
-0.05585733
-0.050998621
-0.046589909
-0.042584117
-0.038939248
-0.035617554
-0.032585489
-0.02981301
-0.027273365
-0.024942758
-0.022800114
-0.020826079
-0.019003775
-0.017317669
-0.015754082
-0.014300737
-0.012946286
-0.011680277
-0.01049385
-0.0093778257
-0.0083248926
-0.0073260394
-0.0063757093
-0.0054649671
-0.0045953046
-0.0037576484
-0.0029744523
-0.0022236408
-0.0015781183
-0.00089283193
-0.00087807872
-0.00085670393
-0.00082054604
-0.00080663885
-0.00077753978
-0.00076073328
-0.00073236277
-0.0007041912
-0.00067218946
-0.00064120911
-0.00060858557
-0.00057373265
-0.00053704759
-0.00049807263
-0.00045363477
-0.00040355477
-0.00034805203
-0.00028841265
-0.00022536025
-0.00015600679
-8.6331167e-05
-1.502194e-05
5.7120395e-05
0.00012850408
0.00020003226
0.0002697794
0.00033694615
0.00040153732
0.00046294369
0.00052058739
0.00057436561
0.00062452356
0.0006711035
0.00071318191
0.00075077925
0.00078063503
0.00080807485
0.00082286725
0.00084843393
0.00085918415
0.00088300763
0.00089143637
0.0015321029
0.0015140397
0.0014886674
0.0014609331
0.0014234433
0.0013822788
0.0013318118
0.0012748932
0.0012106205
0.0011397369
0.0010619486
0.00097756865
0.00088687165
0.0007896536
0.00068630699
0.00057751285
0.00046411783
0.00034590586
0.00022425219
0.00010086724
-2.3759035e-05
-0.00014705831
-0.00026879423
-0.00038930226
-0.00050087221
-0.00060704453
-0.0007059488
-0.00079624649
-0.00087804106
-0.00095052391
-0.0010190212
-0.0010829539
-0.0011423479
-0.0011995667
-0.0012553272
-0.0013090146
-0.0013613393
-0.001405866
-0.0014496409
-0.0014833986
-0.0015206817
-0.0015510942
-0.0021988917
-0.0021648342
-0.0021185319
-0.0020706161
-0.0020113417
-0.0019473821
-0.0018742295
-0.0017995921
-0.001720878
-0.0016384998
-0.0015522358
-0.0014602274
-0.0013609748
-0.001255754
-0.0011373839
-0.0010081234
-0.00086788929
-0.0007162565
-0.00055817761
-0.00038918201
-0.00021670388
-4.208213e-05
0.00013328226
0.00030691429
0.00047660339
0.00064248304
0.00080137965
0.00095341972
0.0010973824
0.0012334157
0.0013603143
0.0014785988
0.0015875252
0.0016867982
0.0017764113
0.0018559667
0.0019260255
0.0019856249
0.0020372053
0.0020781753
0.0021120465
0.0021362665
0.0028123425
0.0027857631
0.0027454512
0.0026922688
0.0026249386
0.0025440745
0.0024498956
0.0023433331
0.002224189
0.0020923225
0.0019479556
0.0017911702
0.0016228243
0.0014426124
0.0012521393
0.001051562
0.00084133347
0.00062290656
0.00039860158
0.00017048813
-6.0024869e-05
-0.00029084633
-0.0005180582
-0.00073986808
-0.00095032546
-0.0011521617
-0.0013394459
-0.0015129705
-0.0016728116
-0.0018158907
-0.0019510723
-0.0020761366
-0.0021933257
-0.002306199
-0.0024122178
-0.0025127053
-0.0026099974
-0.0026974515
-0.0027759789
-0.0028412879
-0.0028993291
-0.0029418072
-0.0037214434
-0.0036736003
-0.0036047872
-0.0035233698
-0.0034251707
-0.0033148243
-0.0031927793
-0.0030651363
-0.0029288388
-0.0027831262
-0.002632158
-0.0024709373
-0.0022956663
-0.002110351
-0.0019063848
-0.0016853331
-0.0014483122
-0.0011941971
-0.00092941132
-0.00065195312
-0.00036917224
-8.0492343e-05
0.00020686243
0.00049064517
0.00076964881
0.0010416794
0.0013040567
0.0015549963
0.0017933646
0.0020193756
0.0022308701
0.0024279263
0.0026097305
0.0027760962
0.0029266518
0.003061195
0.0031796813
0.00328114
0.0033646197
0.0034297711
0.0034775142
0.0035072033
0.0042386573
0.0042053742
0.0041495791
0.004071614
0.003970532
0.0038469916
0.0037025114
0.0035384716
0.003355119
0.0031527075
0.0029316624
0.0026922096
0.0024354758
0.0021615761
0.0018726661
0.0015687925
0.0012517964
0.000924109
0.00058732857
0.00024463047
-0.00010163393
-0.00044857578
-0.00079034555
-0.0011249115
-0.0014470409
-0.0017557017
-0.0020455707
-0.0023163484
-0.0025682614
-0.0027995021
-0.0030164801
-0.0032179699
-0.0034067122
-0.0035869355
-0.0037561322
-0.0039146587
-0.0040643648
-0.0041991446
-0.0043182172
-0.0044163241
-0.004496646
-0.0045507257
-0.0054147407
-0.0053536084
-0.0052616158
-0.0051469628
-0.0050067943
-0.0048469476
-0.0046681497
-0.0044774169
-0.0042734348
-0.0040563317
-0.003827529
-0.003583388
-0.0033221152
-0.0030429368
-0.0027403644
-0.0024171962
-0.0020727643
-0.0017068274
-0.001326656
-0.00093201543
-0.00053015575
-0.00012312875
0.00028343313
0.0006857501
0.0010810914
0.0014660819
0.0018381179
0.0021956719
0.0025357961
0.0028584462
0.0031612235
0.0034437884
0.0037048362
0.0039441008
0.0041608769
0.0043550628
0.0045260533
0.0046720261
0.0047912907
0.0048827483
0.004947606
0.0049861473
0.0057579297
0.0057135387
0.0056390389
0.0055334373
0.0053952028
0.0052257823
0.0050273902
0.0048020187
0.0045506457
0.0042734014
0.0039713542
0.003644579
0.0032944391
0.0029217696
0.002528779
0.0021163141
0.0016871292
0.0012434692
0.00078730256
0.00032415839
-0.00014451602
-0.00061339301
-0.001078274
-0.0015339158
-0.0019750032
-0.0023999382
-0.0028018655
-0.0031794485
-0.003534804
-0.0038646794
-0.0041729543
-0.0044622
-0.0047331313
-0.0049900373
-0.0052307503
-0.0054560434
-0.0056653304
-0.0058529435
-0.0060150804
-0.0061470892
-0.0062511753
-0.0063196579
-0.0072654977
-0.0071893611
-0.0070720958
-0.0069221701
-0.0067364596
-0.0065206368
-0.0062794328
-0.0060187596
-0.0057386342
-0.0054398701
-0.0051244376
-0.0047883641
-0.0044288352
-0.0040446375
-0.003634463
-0.0032002401
-0.0027388341
-0.0022518584
-0.0017481173
-0.0012295129
-0.00070000192
-0.00016604474
0.00036631703
0.0008929797
0.0014104764
0.0019145483
0.002401868
0.0028706669
0.0033174211
0.0037412908
0.0041396534
0.0045116477
0.0048556979
0.0051716753
0.0054582946
0.0057153733
0.005941656
0.006134885
0.0062926118
0.006412999
0.0064979649
0.0065489647
0.0073648563
0.0073071626
0.0072113533
0.0070756881
0.0068978064
0.0066798907
0.0064248692
0.0061351352
0.005812303
0.0054565932
0.0050692424
0.0046506898
0.0042025481
0.0037261034
0.0032236874
0.0026970139
0.0021492008
0.0015833441
0.001001662
0.00040990661
-0.00018878355
-0.00078969993
-0.0013854872
-0.0019705051
-0.0025401399
-0.0030905283
-0.0036148183
-0.0041105962
-0.0045788643
-0.0050193087
-0.0054316764
-0.0058183201
-0.0061814127
-0.0065237027
-0.0068453712
-0.0071451007
-0.0074201899
-0.0076653183
-0.0078756915
-0.0080445334
-0.0081758146
-0.0082600261
-0.0093087609
-0.0092161783
-0.0090698847
-0.0088814182
-0.0086444195
-0.0083688347
-0.0080574203
-0.0077164514
-0.0073506155
-0.0069619313
-0.0065481839
-0.0061079064
-0.0056391386
-0.0051391159
-0.0046092377
-0.004048478
-0.003458302
-0.0028411357
-0.0022026006
-0.0015483843
-0.00088384738
-0.00021307087
0.0004542452
0.001113891
0.0017617463
0.0023919357
0.003001765
0.0035882941
0.0041478167
0.0046787294
0.0051779855
0.0056444985
0.0060763615
0.0064729742
0.0068329695
0.0071560967
0.0074406642
0.0076839043
0.0078825798
0.0080341042
0.0081413177
0.008205979
0.0090759298
0.0090041959
0.0088854095
0.0087172795
0.0084971802
0.008227669
0.0079126008
0.0075551136
0.0071565965
0.0067177244
0.0062398086
0.0057237686
0.0051714556
0.0045844238
0.0039654945
0.0033171553
0.0026426991
0.00194524
0.0012288555
0.0004994125
-0.00023956567
-0.00098265289
-0.0017201947
-0.0024464804
-0.0031574417
-0.0038452687
-0.0045052815
-0.0051339772
-0.0057295434
-0.0062927921
-0.0068218127
-0.0073194639
-0.0077871508
-0.0082263949
-0.0086385923
-0.009022529
-0.0093728066
-0.0096821668
-0.0099468579
-0.01015682
-0.010318186
-0.010420328
-0.011602025
-0.011490032
-0.011312187
-0.011079632
-0.010784954
-0.010439491
-0.010047762
-0.0096186867
-0.0091558177
-0.0086626829
-0.0081367041
-0.0075776932
-0.0069852092
-0.0063553092
-0.0056893094
-0.0049882065
-0.0042544685
-0.0034906593
-0.0027042641
-0.0019021077
-0.0010889026
-0.00027011473
0.00054382691
0.0013468747
0.0021343465
0.0029015522
0.0036429937
0.0043559857
0.0050361117
0.0056814768
0.0062886247
0.0068559887
0.0073815136
0.0078640828
0.0083024269
0.008695517
0.009041868
0.0093384636
0.0095807117
0.0097661095
0.0098969047
0.009975999
0.010908253
0.010821571
0.010678457
0.010475308
0.010209975
0.00988554
0.0095066478
0.0090765769
0.0085970056
0.0080691397
0.0074941788
0.0068736027
0.0062093751
0.0055036186
0.0047594672
0.0039796874
0.0031679902
0.0023284816
0.0014661564
0.00058681283
-0.0003056512
-0.0012034025
-0.0020968663
-0.0029800356
-0.0038462534
-0.0046894159
-0.0055011314
-0.0062787034
-0.0070192429
-0.0077193435
-0.008380614
-0.0090057114
-0.0095939746
-0.010145891
-0.010662553
-0.011140882
-0.011576525
-0.011961176
-0.012287368
-0.012545005
-0.012739792
-0.012862826
-0.014211682
-0.014077083
-0.013863969
-0.013579664
-0.01321909
-0.012792699
-0.012309171
-0.011778217
-0.011202989
-0.010588438
-0.0099331089
-0.0092377796
-0.0085018532
-0.0077255413
-0.0069063735
-0.0060473691
-0.0051534802
-0.0042258224
-0.0032752993
-0.0023066094
-0.0013288247
-0.0003480905
0.0006263598
0.0015861216