/*--------------------------------*- C++ -*----------------------------------*\
| =========                 |                                                 |
| \\      /  F ield         | OpenFOAM: The Open Source CFD Toolbox           |
|  \\    /   O peration     | Version:  v2012                                 |
|   \\  /    A nd           | Website:  www.openfoam.com                      |
|    \\/     M anipulation  |                                                 |
\*---------------------------------------------------------------------------*/
FoamFile
{
    version     2.0;
    format      ascii;
    class       surfaceScalarField;
    location    "206";
    object      phi;
}
// * * * * * * * * * * * * * * * * * * * * * * * * * * * * * * * * * * * * * //

dimensions      [0 3 -1 0 0 0 0];
oriented        oriented;


internalField   nonuniform List<scalar> 
96413
(
0.0057618471
3.3883836e-07
-4.2760321e-06
0.0057652487
5.446408e-07
-3.946205e-06
0.0057682028
7.149718e-07
-3.6691302e-06
0.0057707847
8.5861062e-07
-3.4404967e-06
0.0057730548
9.8117931e-07
-3.251223e-06
0.0057750581
1.083686e-06
-3.0869846e-06
0.0057768342
1.1715586e-06
-2.9477047e-06
0.0057784191
1.247298e-06
-2.8321679e-06
0.0057798398
1.3109815e-06
-2.7316558e-06
0.0057811149
1.3689998e-06
-2.6441411e-06
0.0057822626
1.4185179e-06
-2.5662152e-06
0.0057833045
1.4560092e-06
-2.4978903e-06
0.0057842548
1.4912974e-06
-2.4416322e-06
0.005785121
1.5258804e-06
-2.3921099e-06
0.0057859122
1.5537041e-06
-2.3448088e-06
0.0057866403
1.5741554e-06
-2.3022895e-06
0.0057873138
1.5901548e-06
-2.2636377e-06
0.005787934
1.6046375e-06
-2.2248299e-06
0.0057885048
1.6232003e-06
-2.194013e-06
0.0057890349
1.6393442e-06
-2.1694392e-06
0.0057895308
1.6454445e-06
-2.1413456e-06
0.005789992
1.6471293e-06
-2.108364e-06
0.0057904189
1.6564171e-06
-2.0832682e-06
0.0057908168
1.6675037e-06
-2.0654882e-06
0.0057911892
1.6698794e-06
-2.0422388e-06
0.0057915353
1.6686538e-06
-2.0147917e-06
0.0057918506
1.6721922e-06
-1.9874892e-06
0.005792113
1.688035e-06
-1.9504068e-06
0.0057922593
1.7303513e-06
-1.8766225e-06
0.0057921549
1.8276612e-06
-1.7232567e-06
0.0057915107
2.0492293e-06
-1.4050834e-06
0.0057899806
2.4039726e-06
-8.7386062e-07
0.0057871439
2.924012e-06
-8.7318531e-08
0.005783791
2.9518934e-06
4.0107012e-07
0.0057786
3.7077713e-06
1.4831696e-06
0.0057748532
2.6166415e-06
1.1301956e-06
0.0057690279
3.3334234e-06
2.4918764e-06
0.0057647023
1.5291798e-06
2.7963673e-06
0.0057798777
-9.3613289e-06
-5.8140509e-06
0.0057801581
-2.7103602e-06
2.4299282e-06
7.4085796e-05
7.7456296e-05
-8.8259023e-06
1.625292e-05
-0.0060571293
0.00017733729
3.1602581e-05
-0.0063542597
3.2818315e-05
6.1462627e-05
-0.0067555874
0.0001248525
7.8230561e-05
-0.006928483
2.0679249e-05
8.3813587e-05
-0.0070604545
2.673291e-05
8.3903474e-05
-0.0070279443
-2.7026199e-06
8.4806497e-05
-0.0069808917
-1.3974905e-06
8.6047751e-05
-0.0069154275
4.7552477e-07
8.7159859e-05
-0.006867662
5.4708695e-06
8.779728e-05
-0.0068355159
8.5818532e-06
8.8085158e-05
-0.0068167163
1.0747825e-05
8.8131957e-05
-0.0068051618
1.218828e-05
8.8042556e-05
-0.0067972396
1.3362289e-05
8.7863837e-05
-0.0067907452
1.4580384e-05
8.7597312e-05
-0.0067846973
1.6088696e-05
8.7230141e-05
-0.0067788325
1.8023589e-05
8.674148e-05
-0.0067730535
2.0517885e-05
8.6125044e-05
-0.0067673029
2.3711932e-05
8.5372083e-05
-0.0067615433
2.7762533e-05
8.4485855e-05
-0.0067556582
3.2734615e-05
8.348015e-05
-0.006749477
3.8700455e-05
8.2393918e-05
-0.0067426521
4.5731928e-05
8.1288053e-05
-0.0067346881
5.3713036e-05
8.0238343e-05
-0.0067247904
6.2394493e-05
7.9365868e-05
-0.0067118335
7.1351164e-05
7.88308e-05
-0.0066941146
7.9891008e-05
7.8893881e-05
-0.0066693087
8.6824611e-05
7.9948008e-05
-0.0066346026
9.0476605e-05
8.2398022e-05
-0.0065878757
8.8794966e-05
8.6673652e-05
-0.0065340498
8.171646e-05
9.1842945e-05
-0.0064978941
7.1461651e-05
9.5695463e-05
-0.006508147
6.2247996e-05
9.694193e-05
-0.0065612973
5.1738509e-05
9.5860291e-05
-0.0066395514
4.2953967e-05
9.3505905e-05
-0.0067250434
6.0710848e-06
9.0993486e-05
-0.006815128
5.23178e-06
8.9027522e-05
-0.0068766965
-0.00010257494
8.8084432e-05
-0.0069168408
-1.7338587e-05
8.1896431e-05
-0.006791399
-0.00016337147
6.490357e-05
-0.0066234343
1.5342115e-05
3.5106282e-05
-0.0062302843
-6.9422977e-05
1.9706588e-05
-0.0059388483
7.94159e-05
-0.0056673413
-3.729202e-07
-1.6094513e-05
-0.0059155095
0.00018980138
-1.9363538e-05
-0.0061621732
4.1282743e-05
-5.0114694e-06
-0.0065110474
0.00013227848
4.9278904e-06
-0.0066308648
2.4351675e-05
9.6730405e-06
-0.006725714
3.261933e-05
1.2251935e-05
-0.0066705357
7.0736075e-06
1.5002702e-05
-0.0066208208
1.0875129e-05
1.7023701e-05
-0.0065761974
1.4378139e-05
1.7358339e-05
-0.0065753788
-1.2145425e-05
1.6004543e-05
-0.0066183316
-5.5616279e-06
1.3923189e-05
-0.0066664371
-0.00011569959
1.1984581e-05
-0.0067201305
-2.7645765e-05
7.7847491e-06
-0.006624097
-0.00017922546
-1.7363589e-06
-0.0065033889
7.3160617e-06
-1.5909655e-05
-0.0061541817
-7.5857583e-05
-1.2553724e-05
-0.0059072868
7.2799225e-05
-0.0056591184
-8.0769812e-06
1.592016e-05
-0.0059310749
0.00017464758
3.0876585e-05
-0.0062238587
3.3571049e-05
6.0002324e-05
-0.0066198754
0.00012450296
7.6290736e-05
-0.0067933667
2.3190825e-05
8.1629349e-05
-0.0069280202
3.0196039e-05
8.1608276e-05
-0.0069022235
2.4425528e-06
8.2432511e-05
-0.0068624303
4.9356045e-06
8.3670905e-05
-0.0068045677
7.9115053e-06
8.4899824e-05
-0.0067642282
1.3771763e-05
8.5791458e-05
-0.0067395436
1.7469149e-05
8.6451594e-05
-0.0067283449
1.9844952e-05
8.6959085e-05
-0.0067246373
2.1053172e-05
8.7401704e-05
-0.0067248457
2.1481927e-05
8.7814279e-05
-0.0067268406
2.1380363e-05
8.8205187e-05
-0.0067296193
2.0920815e-05
8.8565207e-05
-0.0067328104
2.0163137e-05
8.8881519e-05
-0.0067361981
1.9188425e-05
8.9141493e-05
-0.006739758
1.8039592e-05
8.9335666e-05
-0.0067434209
1.6798514e-05
8.9466498e-05
-0.0067471905
1.5538737e-05
8.9542169e-05
-0.0067510308
1.4285688e-05
8.9570649e-05
-0.0067549454
1.3086219e-05
8.9564231e-05
-0.006758904
1.1939043e-05
8.953445e-05
-0.0067628539
1.0890432e-05
8.949085e-05
-0.0067668358
9.9308264e-06
8.94417e-05
-0.0067707962
9.0610569e-06
8.9391671e-05
-0.0067747339
8.3149979e-06
8.934754e-05
-0.0067786778
7.8098146e-06
8.9307981e-05
-0.0067827656
7.7910989e-06
8.925798e-05
-0.0067873802
8.6581974e-06
8.9165733e-05
-0.0067934965
1.0603971e-05
8.897817e-05
-0.0068032474
1.4523085e-05
8.8593115e-05
-0.00682023
1.5348815e-05
8.7924326e-05
-0.00685051
1.5551424e-05
8.6863317e-05
-0.0068962894
-1.5014874e-05
8.574174e-05
-0.0069594681
-1.0381056e-05
8.4991761e-05
-0.0070038924
-0.00011572555
8.504779e-05
-0.0070336188
-2.5782074e-05
7.9593123e-05
-0.0068997585
-0.00017142901
6.2967204e-05
-0.006725692
1.2135981e-05
3.322885e-05
-0.0063247307
-7.2083473e-05
1.792536e-05
-0.0060279624
7.8752563e-05
-0.0057518403
-4.0846308e-06
-1.4737869e-05
-0.0060047426
0.0001873763
-1.8206661e-05
-0.0062570804
3.5097485e-05
-3.863015e-06
-0.006614354
0.00012657618
5.8643866e-06
-0.0067401268
1.6221088e-05
1.0247299e-05
-0.0068414718
2.4495511e-05
1.2420534e-05
-0.0067908192
-1.2393632e-06
1.4806115e-05
-0.00674594
3.3177518e-06
1.6518782e-05
-0.0067062068
7.8089005e-06
1.6584819e-05
-0.006710842
-1.8108547e-05
1.5004376e-05
-0.0067597906
-1.0046945e-05
1.2767619e-05
-0.0068132932
-0.00012130264
1.0781932e-05
-0.0068713879
-2.999036e-05
6.615985e-06
-0.0067747212
-0.00018399393
-2.8867965e-06
-0.0066508479
7.3272703e-06
-1.7033116e-05
-0.0062915515
-1.328024e-05
-0.0060361021
6.8686483e-05
2.3104337e-05
-0.0063352295
0.0001816216
5.5854558e-05
-0.0066993225
0.00019582759
9.8221149e-05
-0.0069993163
0.00019267152
0.0001272811
-0.0071614611
0.00012042526
0.00013947844
-0.0072036179
6.938338e-05
0.00014391506
-0.0071722746
2.5227125e-05
0.00014613503
-0.00711576
-3.2683398e-06
0.00014727105
-0.0070765728
-3.1789496e-05
0.00014706747
-0.00707173
-7.5693872e-05
0.00014551026
-0.0071013758
-0.00012625344
0.00014284396
-0.0071489408
-0.00019769172
0.00013791398
-0.0071727212
-0.00020014255
0.00012522145
-0.0071254362
-0.00018510954
9.5734543e-05
-0.0069614857
-7.1587965e-05
5.3020626e-05
-0.0066631929
1.9937287e-05
-0.0063028612
0.00014164529
0.00012079623
-0.0067064233
0.00027438784
0.00017411573
-0.0071309983
0.00033300676
0.00024363617
-0.0074428449
0.0002956694
0.00028782815
-0.0075944146
0.00020776752
0.00030551391
-0.0076255985
0.00011989327
0.00030994836
-0.0075940703
5.3523137e-05
0.00031050506
-0.007547593
3.2900617e-06
0.00031054311
-0.0075191135
-4.6895858e-05
0.00031090715
-0.0075241699
-0.00011359438
0.00031161569
-0.0075625958
-0.00020213493
0.00031184886
-0.0076183721
-0.00029098864
0.00030826127
-0.0076577641
-0.00032925965
0.00029139062
-0.0076319517
-0.00027127015
0.00024788544
-0.0074822987
-0.00013902974
0.00017887933
-0.0071685683
0.00012604539
-0.0067397395
0.00020762024
0.00015624158
-0.007090198
0.00036928843
0.00025353709
-0.0075356663
0.00043131546
0.00033088333
-0.0078481756
0.00037177898
0.00037471425
-0.0079828964
0.00025344475
0.0003884419
-0.0079945626
0.00014079845
0.00038757581
-0.0079474334
5.7898689e-05
0.00038325759
-0.0078889503
-3.346515e-06
0.00038012179
-0.0078497116
-6.4529272e-05
0.00037966196
-0.0078445588
-0.00014704106
0.00038184935
-0.0078736777
-0.00025890304
0.0003851478
-0.0079227302
-0.00037612094
0.00038489922
-0.0079619081
-0.00043459047
0.00037006684
-0.0079448253
-0.00037194173
0.00032524531
-0.007808219
-0.00020991527
0.00024711643
-0.0074977549
0.00014928833
-0.0070567423
0.0002516512
0.00015910237
-0.0072684503
0.00042987667
0.00023573949
-0.0076995914
0.00049109264
0.00030058824
-0.0079959734
0.00041685484
0.0003335206
-0.0081186903
0.00028143366
0.0003410492
-0.0081265031
0.00015669472
0.00033691522
-0.008082332
6.7545465e-05
0.00033083969
-0.0080307196
3.2767569e-06
0.00032725673
-0.0080004559
-6.1075046e-05
0.0003277366
-0.0080055638
-0.00015064402
0.00033231746
-0.0080458344
-0.00027622157
0.00033949423
-0.0081067335
-0.00041283489
0.00034488493
-0.0081586829
-0.00048820523
0.00033867903
-0.0081560992
-0.00042760135
0.00030705057
-0.0080350841
-0.00024963574
0.00024334727
-0.0077365152
0.00016761673
-0.0073008809
0.00026416909
0.00011346809
-0.0073806813
0.00044788845
0.00017984252
-0.0078009752
0.00050567434
0.00022086548
-0.008085877
0.00042236438
0.00023750195
-0.0081978391
0.0002786065
0.00023708266
-0.008195301
0.00014954235
0.00022974962
-0.0081403814
5.9765565e-05
0.00022224613
-0.0080776935
-3.1426069e-06
0.00021770125
-0.0080366076
-6.5925663e-05
0.0002172308
-0.0080316533
-0.00015527573
0.00022079167
-0.0080630492
-0.00028349806
0.00022717717
-0.0081167886
-0.00042606109
0.00023317699
-0.0081642809
-0.00050823955
0.00023210741
-0.0081619317
-0.00044986623
0.00021388421
-0.0080485714
-0.00026594987
0.00017134918
-0.0077660558
0.0001037834
-0.0073503129
0.0002679039
6.1045134e-05
-0.0073448951
0.00045126315
0.00010034231
-0.0077524148
0.00050609054
0.0001237944
-0.0080270126
0.00042029182
0.00013134158
-0.0081351284
0.00027652923
0.00012923694
-0.008134041
0.00014949999
0.00012377709
-0.008084048
6.2703983e-05
0.00011879417
-0.0080286411
2.9645258e-06
0.00011616899
-0.0079963703
-5.6898698e-05
0.00011664192
-0.0080011112
-0.00014411693
0.00012026616
-0.0080426405
-0.00027197095
0.00012640335
-0.0081065593
-0.00041690152
0.00013327571
-0.008163538
-0.00050380611
0.00013701828
-0.0081691057
-0.00044954581
0.00013129592
-0.0080620296
-0.00026634913
0.00010965314
-0.0077848008
7.1847716e-05
-0.0073726235
0.0002659455
3.5730499e-05
-0.0073221477
0.00044622582
5.8338365e-05
-0.0077351027
0.00049679148
6.7553344e-05
-0.0080098473
0.00040796035
6.7619446e-05
-0.0081145881
0.00026376411
6.3202588e-05
-0.0081072528
0.00013833676
5.7860098e-05
-0.0080491149
5.4073902e-05
5.3494227e-05
-0.0079847182
-2.801597e-06
5.0921628e-05
-0.0079432017
-5.9590503e-05
5.0414549e-05
-0.0079386998
-0.00014343627
5.1915602e-05
-0.0079714351
-0.00026805501
5.5038349e-05
-0.0080277926
-0.00041110887
5.8856865e-05
-0.0080794113
-0.00049885417
6.1479277e-05
-0.0080826847
-0.00044772238
5.9391411e-05
-0.0079772449
-0.00026728473
4.815654e-05
-0.0077053291
2.3888162e-05
-0.0072970816
0.0002668145
5.2122453e-06
-0.0072447079
0.00044409539
1.757957e-05
-0.0076548789
0.0004921922
2.2568841e-05
-0.007926703
0.00040333712
2.2717701e-05
-0.0080311152
0.00026130685
2.0816918e-05
-0.0080267171
0.00013883009
1.867984e-05
-0.0079743592
5.7311369e-05
1.7123329e-05
-0.0079177133
2.7272564e-06
1.6538025e-05
-0.0078848557
-5.1941469e-05
1.7105614e-05
-0.0078891135
-0.00013387495
1.8887189e-05
-0.0079302673
-0.00025715196
2.1824317e-05
-0.0079944701
-0.0004003089
2.5633132e-05
-0.0080528837
-0.00049024227
2.9497803e-05
-0.0080609412
-0.00044273001
3.1538699e-05
-0.0079569385
-0.0002656293
2.8707308e-05
-0.0076821825
1.8088248e-05
-0.0072673889
0.00026537156
1.0441509e-05
-0.0072219901
0.00044003715
1.4741296e-05
-0.0076394353
0.0004855318
1.4584527e-05
-0.0079152678
0.0003951021
1.2049142e-05
-0.0080195074
0.00025280111
8.9312269e-06
-0.0080115099
0.00013101096
6.1960402e-06
-0.0079534059
5.0569113e-05
4.1462196e-06
-0.0078897549
-2.7470656e-06
2.8196896e-06
-0.0078491166
-5.5980153e-05
2.1729087e-06
-0.0078451014
-0.00013600521
2.1412653e-06
-0.0078779273
-0.00025699696
2.6391818e-06
-0.0079344999
-0.00039817935
3.5273917e-06
-0.0079870038
-0.00048752988
4.500557e-06
-0.0079917325
-0.00044141803
4.6937299e-06
-0.0078873365
-0.00026652041
2.5982829e-06
-0.0076144686
-3.4767309e-06
-0.0072014723
0.0002663536
-6.2969109e-06
-0.0071726429
0.00043974093
-3.7666907e-06
-0.0075869604
0.00048475778
-2.9059014e-06
-0.007860841
0.00039528345
-2.9979467e-06
-0.007965609
0.00025469872
-3.2720358e-06
-0.007960946
0.00013459882
-3.3881214e-06
-0.0079085449
5.5401306e-05
-3.2606958e-06
-0.0078521361
2.8760102e-06
-2.8515463e-06
-0.0078193496
-4.9733842e-05
-2.1119561e-06
-0.0078231242
-0.00012935644
-9.7510523e-07
-0.0078632425
-0.00025026016
6.4482074e-07
-0.0079262532
-0.00039196453
2.8028297e-06
-0.007983801
-0.0004825291
5.4115872e-06
-0.0079913462
-0.00043817764
7.9943565e-06
-0.0078864987
-0.00026510434
9.4627042e-06
-0.0076096542
8.712578e-06
-0.0071910973
0.00026479998
9.0192961e-06
-0.0071715295
0.00043691669
8.1345884e-06
-0.007590286
0.00048067326
6.0855108e-06
-0.0078676814
0.0003901145
3.5263927e-06
-0.0079730763
0.00024880182
1.1344735e-06
-0.0079660515
0.00012837848
-8.1064125e-07
-0.0079090804
4.9159368e-05
-2.299488e-06
-0.0078466575
-3.1233502e-06
-3.4160011e-06
-0.007806999
-5.5316004e-05
-4.2606431e-06
-0.0078034647
-0.00013409339
-4.9019495e-06
-0.0078362692
-0.00025369586
-5.3765083e-06
-0.0078925696
-0.00039387275
-5.6862304e-06
-0.0079448467
-0.00048331051
-5.8295244e-06
-0.007949368
-0.00043881488
-5.9130402e-06
-0.0078442729
-0.00026626604
-6.2690313e-06
-0.0075698208
-7.169685e-06
-0.007155089
0.00026622337
-7.5180446e-06
-0.007144666
0.00043834728
-7.3258703e-06
-0.0075592512
0.00048264044
-7.1678111e-06
-0.0078338666
0.00039330806
-6.9719052e-06
-0.0079391031
0.00025340649
-6.6049666e-06
-0.0079346503
0.00013409105
-6.064676e-06
-0.007882421
5.5533554e-05
-5.3873038e-06
-0.0078261327
3.499132e-06
-4.5832665e-06
-0.007793239
-4.8634853e-05
-3.619419e-06
-0.0077965332
-0.00012766184
-2.4259889e-06
-0.0078358
-0.0002478343
-8.9948904e-07
-0.0078977368
-0.00038891335
1.0505359e-06
-0.007954217
-0.0004794296
3.4344126e-06
-0.0079608058
-0.00043598741
6.0409191e-06
-0.0078550642
-0.00026445434
8.3666576e-06
-0.007577532
9.9742127e-06
-0.0071591328
0.00026405145
1.1030578e-05
-0.0071504275
0.00043518501
9.1431627e-06
-0.0075683356
0.00047842179
6.6577992e-06
-0.0078457574
0.00038793049
3.9388134e-06
-0.0079516718
0.00024698793
1.4401095e-06
-0.0079454054
0.00012695541
-6.3454684e-07
-0.0078893159
4.8032861e-05
-2.2903531e-06
-0.0078277754
-4.0168141e-06
-3.6171621e-06
-0.0077888436
-5.5952891e-05
-4.7170897e-06
-0.0077857893
-0.00013436626
-5.6618849e-06
-0.0078188255
-0.00025348362
-6.483986e-06
-0.0078751863
-0.00039317398
-7.1677171e-06
-0.007927456
-0.000482377
-7.6597911e-06
-0.0079319396
-0.00043813251
-7.9153053e-06
-0.0078267278
-0.0002662053
-7.9934021e-06
-0.0075521959
-7.9216296e-06
-0.0071379216
0.00026620544
-8.5037159e-06
-0.0071328444
0.00043804962
-8.6676606e-06
-0.0075467659
0.00048231724
-8.6224589e-06
-0.0078210963
0.00039325751
-8.3285677e-06
-0.0079261816
0.00025375984
-7.7483708e-06
-0.0079215911
0.0001348184
-6.949998e-06
-0.0078692145
5.6536979e-05
-5.998114e-06
-0.0078127256
4.6948267e-06
-4.9111333e-06
-0.0077795147
-4.727854e-05
-3.6546228e-06
-0.0077823325
-0.00012612046
-2.1545111e-06
-0.0078209685
-0.00024605715
-3.1124704e-07
-0.0078821779
-0.00038691445
1.9616298e-06
-0.0079379524
-0.00047740913
4.6546896e-06
-0.0079439849
-0.00043435634
7.5429518e-06
-0.0078380018
-0.00026356352
1.0157346e-05
-0.0075607859
1.2142013e-05
-0.0071433616
0.0002629473
1.340076e-05
-0.0071368993
0.00043339008
1.1374499e-05
-0.007553892
0.00047624085
8.6212177e-06
-0.0078308878
0.00038571768
5.5033082e-06
-0.0079368882
0.00024492559
2.5428411e-06
-0.0079310368
0.00012507794
7.5927195e-09
-0.0078755279
4.6324574e-05
-2.0739663e-06
-0.0078146092
-5.5552291e-06
-3.7619227e-06
-0.0077762429
-5.7282441e-05
-5.1985129e-06
-0.0077736545
-0.00013541336
-6.4611437e-06
-0.0078070556
-0.00025416746
-7.5425544e-06
-0.0078637036
-0.00039346426
-8.4474256e-06
-0.0079162255
-0.00048236558
-9.10463e-06
-0.0079209685
-0.00043803712
-9.4112307e-06
-0.0078160661
-0.0002662197
-9.3350494e-06
-0.0075419896
-9.1534077e-06
-0.0071284114
0.0002662601
-1.0044304e-05
-0.0071241837
0.00043806935
-1.0256007e-05
-0.0075374354
0.00048247761
-1.034346e-05
-0.0078112334
0.00039375422
-1.0011541e-05
-0.0079159209
0.00025467959
-9.2900958e-06
-0.0079110012
0.00013614024
-8.2861085e-06
-0.0078583137
5.8192491e-05
-7.0723793e-06
-0.007801492
6.6373592e-06
-5.6647363e-06
-0.0077678943
-4.5137602e-05
-4.0228758e-06
-0.0077702566
-0.00012377626
-2.0637679e-06
-0.0078083689
-0.00024352178
3.1181038e-07
-0.0078690267
-0.00038424978
3.2003654e-06
-0.0079243072
-0.00047482239
6.5222094e-06
-0.0079300175
-0.00043220503
9.939479e-06
-0.0078240287
-0.00026215382
1.2966571e-05
-0.0075472649
1.5029397e-05
-0.0071306597
0.00026115137
1.6926929e-05
-0.0071245907
0.00043074116
1.4737144e-05
-0.0075408094
0.00047308743
1.1448789e-05
-0.0078173134
0.00038245319
7.6481573e-06
-0.0079232386
0.00024179881
3.8932776e-06
-0.0079176303
0.00012218723
5.9177476e-07
-0.0078625438
4.3702744e-05
-2.1388287e-06
-0.0078021227
-7.9021716e-06
-4.3873938e-06
-0.0077642526
-5.9263711e-05
-6.2601169e-06
-0.0077621156
-0.00013698829
-7.8478654e-06
-0.007795915
-0.00025527973
-9.1952129e-06
-0.0078529217
-0.00039410626
-1.0288258e-05
-0.0079057866
-0.00048263113
-1.1055092e-05
-0.0079108935
-0.00043812502
-1.1389804e-05
-0.0078064321
-0.00026630898
-1.1276697e-05
-0.007532919
-1.1033409e-05
-0.0071199889
0.00026636004
-1.2121401e-05
-0.0071157866
0.00043819111
-1.241438e-05
-0.007528394
0.00048280573
-1.2557514e-05
-0.0078016211
0.00039449615
-1.2240612e-05
-0.0079058522
0.00025594264
-1.1460292e-05
-0.0079005482
0.00013793183
-1.0290181e-05
-0.0078474953
6.0471347e-05
-8.8130143e-06
-0.0077902933
9.3309988e-06
-7.0390241e-06
-0.0077562835
-4.2029189e-05
-4.913356e-06
-0.0077581921
-0.00012030924
-2.3339456e-06
-0.0077958251
-0.0002397454
8.1857198e-07
-0.0078560211
-0.00038030187
4.6082103e-06
-0.0079109286
-0.00047100096
8.896817e-06
-0.0079164591
-0.00042896442
1.3205145e-05
-0.0078106125
-0.00025991255
1.6782586e-05
-0.0075343812
1.9218374e-05
-0.0071185533
0.0002584157
2.2255666e-05
-0.007112481
0.00042685733
1.9482699e-05
-0.0075278969
0.00046854905
1.5356209e-05
-0.0078038412
0.00037779618
1.0351354e-05
-0.0079095997
0.00023738343
5.3655954e-06
-0.007904148
0.00011818187
9.659544e-07
-0.0078494211
4.0168407e-05
-2.6779574e-06
-0.0077894576
-1.0913104e-05
-5.6184826e-06
-0.0077520708
-6.1764486e-05
-8.0088948e-06
-0.0077504014
-0.00013892442
-9.9714211e-06
-0.0077846324
-0.00025662692
-1.1565643e-05
-0.0078420384
-0.00039489068
-1.2809238e-05
-0.0078952892
-0.00048297763
-1.3629756e-05
-0.0079007991
-0.00043824704
-1.3909907e-05
-0.0077968055
-0.00026640118
-1.367726e-05
-0.007523869
-1.3307792e-05
-0.0071115825
0.00026642127
-1.4685635e-05
-0.0071073741
0.00043826633
-1.5153173e-05
-0.007519335
0.00048310039
-1.5380887e-05
-0.0077919813
0.00039523637
-1.5172024e-05
-0.0078957381
0.00025726902
-1.4378119e-05
-0.0078900205
0.00013988896
-1.3108417e-05
-0.0078365642
6.3056655e-05
-1.1426365e-05
-0.0077789393
1.2534151e-05
-9.2987098e-06
-0.0077444704
-3.8214183e-05
-6.6437583e-06
-0.0077458818
-0.00011589569
-3.308432e-06
-0.0077829964
-0.00023479462
8.9723916e-07
-0.0078426969
-0.00037500018
6.0691468e-06
-0.0078972143
-0.00046577095
1.1981626e-05
-0.0079025729
-0.00042443819
1.7925507e-05
-0.0077968949
-0.00025667609
2.2917565e-05
-0.0075212564
2.6182521e-05
-0.0071062677
0.00025472958
3.0806948e-05
-0.0070997564
0.00042176455
2.6827787e-05
-0.0075142837
0.00046275649
2.0785434e-05
-0.0077896124
0.00037202808
1.3642248e-05
-0.0078952232
0.00023210809
6.6016601e-06
-0.0078900051
0.0001135925
5.3741287e-07
-0.0078357504
3.6307857e-05
-4.2893001e-06
-0.0077763678
-1.4083129e-05
-8.0369042e-06
-0.0077395758
-6.4226968e-05
-1.0920514e-05
-0.0077384645
-0.00014072147
-1.3156606e-05
-0.0077732061
-0.00025778203
-1.4885404e-05
-0.0078310746
-0.00039546635
-1.6136156e-05
-0.0078847502
-0.00048312828
-1.6854508e-05
-0.0078906838
-0.00043821556
-1.6949968e-05
-0.0077871627
-0.00026638308
-1.6489741e-05
-0.0075148038
-1.5906914e-05
-0.0071031689
0.00026628478
-1.7250629e-05
-0.0070990163
0.00043805374
-1.7975106e-05
-0.0075103309
0.00048300409
-1.85683e-05
-0.0077823917
0.00039550248
-1.862551e-05
-0.0078856591
0.00025806112
-1.805939e-05
-0.0078794881
0.00014128864
-1.6893916e-05
-0.0078255637
6.5114313e-05
-1.5172412e-05
-0.0077674133
1.5350607e-05
-1.2841765e-05
-0.0077323462
-3.4657082e-05
-9.7353619e-06
-0.007733087
-0.00011148976
-5.597193e-06
-0.0077694682
-0.00022953514
-1.1807663e-07
-0.0078284279
-0.00036906514
6.9134723e-06
-0.0078823035
-0.00045965503
1.5251084e-05
-0.0078872667
-0.00041894878
2.3881748e-05
-0.0077816378
-0.00025264827
3.120267e-05
-0.0075065884
3.6167717e-05
-0.007092545
0.00025053386
4.2527357e-05
-0.0070841024
0.00041614452
3.6282838e-05
-0.0074976275
0.00045666947
2.7227087e-05
-0.0077724837
0.0003663638
1.67847e-05
-0.007878317
0.0002273577
6.9275746e-06
-0.0078738328
0.0001098669
-1.1683028e-06
-0.0078205538
3.3520215e-05
-7.2867039e-06
-0.0077621963
-1.6090653e-05
-1.1760515e-05
-0.0077263637
-6.5532752e-05
-1.500378e-05
-0.0077260923
-0.00014144079
-1.7344251e-05
-0.0077615553
-0.0002579914
-1.899547e-05
-0.0078200381
-0.0003952616
-2.0038403e-05
-0.007874249
-0.00048267444
-2.0457337e-05
-0.007880683
-0.00043774334
-2.022266e-05
-0.0077776908
-0.00026608719
-1.9443491e-05
-0.0075059401
-1.8580046e-05
-0.0070949486
0.00026577921
-1.9912081e-05
-0.0070909524
0.00043725194
-2.0933502e-05
-0.0075016222
0.00048207871
-2.1785227e-05
-0.0077730618
0.00039466552
-2.2203782e-05
-0.0078757723
0.0002574662
-2.1987267e-05
-0.0078690583
0.00014103123
-2.1103422e-05
-0.0078145306
6.5287269e-05
-1.9572997e-05
-0.0077556588
1.6081586e-05
-1.7301944e-05
-0.0077197067
-3.3184919e-05
-1.4021812e-05
-0.0077193656
-0.00010904785
-9.3184031e-06
-0.0077544477
-0.00022591498
-2.6324095e-06
-0.0078119295
-0.0003642518
6.541048e-06
-0.0078642581
-0.00045408219
1.8073736e-05
-0.0078678779
-0.00041356244
3.0640871e-05
-0.0077615207
-0.00024853321
4.191682e-05
-0.0074866807
4.9767102e-05
-0.0070736637
0.0002468732
5.7357448e-05
-0.0070601022
0.00041150516
4.7521413e-05
-0.0074726952
0.00045225902
3.3758678e-05
-0.0077478592
0.00036313892
1.883207e-05
-0.007855307
0.00022560585
5.5756956e-06
-0.0078531522
0.00010938212
-4.5843607e-06
-0.0078023065
3.3939101e-05
-1.1697262e-05
-0.0077461153
-1.5100293e-05
-1.648861e-05
-0.0077120664
-6.4212232e-05
-1.9700624e-05
-0.0077132059
-0.00013994145
-2.1822157e-05
-0.0077497593
-0.00025640218
-2.3118433e-05
-0.0078090832
-0.00039366085
-2.3745377e-05
-0.0078639615
-0.00048118759
-2.3733878e-05
-0.0078709692
-0.00043655508
-2.3112326e-05
-0.0077685362
-0.00026533535
-2.2096081e-05
-0.0074973985
-2.0956132e-05
-0.0070870449
0.00026476483
-2.1762514e-05
-0.0070832757
0.00043565433
-2.3006386e-05
-0.0074933259
0.00047999733
-2.4186173e-05
-0.007764173
0.00039223287
-2.5014501e-05
-0.0078663309
0.00025476358
-2.526661e-05
-0.0078590149
0.00013810123
-2.487282e-05
-0.0078037462
6.219362e-05
-2.3802053e-05
-0.0077439015
1.2945986e-05
-2.1943444e-05
-0.0077066277
-3.6047249e-05
-1.8939421e-05
-0.0077044825
-0.00011123035
-1.4219039e-05
-0.0077371491
-0.0002268661
-6.9227371e-06
-0.0077915012
-0.00036348933
3.9866206e-06
-0.0078400753
-0.00045162212
1.8856215e-05
-0.0078398049
-0.00041032425
3.6266757e-05
-0.007730296
-0.00024582937
5.2713907e-05
-0.0074541149
6.4870688e-05
-0.0070417294
0.00024581483
7.1940738e-05
-0.0070163418
0.0004106356
5.722083e-05
-0.007429141
0.00045288948
3.787878e-05
-0.0077075409
0.00036591149
1.8138239e-05
-0.0078206321
0.0002301433
1.9939594e-06
-0.0078247646
0.00011487031
-9.3329894e-06
-0.007779516
3.9654256e-05
-1.6568587e-05
-0.0077276663
-9.5814684e-06
-2.1023639e-05
-0.0076967549
-5.9221845e-05
-2.3713233e-05
-0.0077001041
-0.00013552955
-2.528057e-05
-0.0077381989
-0.00025257682
-2.6110134e-05
-0.0077986112
-0.00039040875
-2.6308864e-05
-0.0078542884
-0.00047853156
-2.5892063e-05
-0.0078619147
-0.00043456917
-2.4902854e-05
-0.0077600259
-0.00026407777
-2.3592052e-05
-0.007489456
-2.226268e-05
-0.0070796851
0.00026329998
-2.2267497e-05
-0.0070763569
0.00043334551
-2.3637533e-05
-0.0074858778
0.00047685627
-2.514272e-05
-0.0077561881
0.00038827606
-2.6252051e-05
-0.0078578235
0.00024995266
-2.6783462e-05
-0.0078499057
0.00013235143
-2.6731973e-05
-0.0077938391
5.5424751e-05
-2.609201e-05
-0.0077328608
5.1297439e-06
-2.4748529e-05
-0.0076939132
-4.4725468e-05
-2.2373277e-05
-0.0076892513
-0.00012039415
-1.8310165e-05
-0.0077181284
-0.00023573417
-1.140407e-05
-0.0077668673
-0.00037094128
-8.364328e-08
-0.0078076633
-0.00045673671
1.6771957e-05
-0.0077978983
-0.00041317137
3.826275e-05
-0.0076789338
-0.00024747022
6.0280126e-05
-0.0073960998
7.7537929e-05
-0.0069815356
0.00025161201
7.9990259e-05
-0.0069362144
0.00041879065
6.079826e-05
-0.007355325
0.00046378115
3.7234755e-05
-0.0076459385
0.00037880785
1.5100337e-05
-0.0077734984
0.00024354671
-1.6417264e-06
-0.0077904937
0.00012752769
-1.2518994e-05
-0.00775486
5.0921783e-05
-1.8970489e-05
-0.0077094388
1.0347617e-07
-2.2692058e-05
-0.0076825903
-5.1081623e-05
-2.4838239e-05
-0.0076884914
-0.00012879396
-2.6037094e-05
-0.0077282084
-0.00024707259
-2.6591105e-05
-0.0077896853
-0.00038597924
-2.6594862e-05
-0.0078460941
-0.0004750808
-2.6040264e-05
-0.0078542717
-0.00043206109
-2.4913488e-05
-0.0077528776
-0.00026248213
-2.3365748e-05
-0.0074828164
-2.1915709e-05
-0.0070735065
0.0002616567
-2.1068613e-05
-0.0070715913
0.00043081305
-2.2731469e-05
-0.0074807368
0.00047335943
-2.4307446e-05
-0.0077505447
0.00038371895
-2.5354685e-05
-0.0078517011
0.00024418852
-2.5806119e-05
-0.0078432946
0.00012517783
-2.5712767e-05
-0.0077866158
4.6606603e-05
-2.5099125e-05
-0.0077247665
-5.5852401e-06
-2.3885476e-05
-0.0076844863
-5.7575883e-05
-2.1794268e-05
-0.0076776808
-0.00013548986
-1.8254443e-05
-0.0077029901
-0.00025279045
-1.220017e-05
-0.0077457125
-0.00038892331
-2.0090776e-06
-0.0077767495
-0.00047388859
1.3826047e-05
-0.0077524979
-0.00042785621
3.5133134e-05
-0.0076149866
-0.00025887052
5.8405678e-05
-0.0073135567
7.781836e-05
-0.0068863103
0.00026756777
7.0840445e-05
-0.0068542626
0.00043848734
5.3042073e-05
-0.0072890302
0.00048502027
3.2086163e-05
-0.0075987943
0.0003993589
1.3012914e-05
-0.0077427908
0.0002618596
-1.2680606e-06
-0.0077710734
0.00014306341
-1.0657343e-05
-0.0077421947
6.3802589e-05
-1.6434186e-05
-0.0077005436
1.0672107e-05
-1.99704e-05
-0.0076757845
-4.2479719e-05
-2.2189181e-05
-0.0076829229
-0.00012187606
-2.3596975e-05
-0.0077234542
-0.00024160675
-2.4449366e-05
-0.0077855187
-0.00038175525
-2.4818104e-05
-0.0078423926
-0.0004719011
-2.4647021e-05
-0.0078510054
-0.00042973774
-2.3796149e-05
-0.0077501198
-0.00026087431
-2.2124912e-05
-0.0074806301
-1.9848457e-05
-0.0070716466
0.00026018189
-1.8862317e-05
-0.0070756898
0.00042902191
-2.2628455e-05
-0.0074843888
0.00047100624
-2.4657414e-05
-0.0077533695
0.00038044223
-2.5201984e-05
-0.0078538886
0.00023969659
-2.484451e-05
-0.0078450674
0.00011927788
-2.3944553e-05
-0.0077880607
3.9148606e-05
-2.2632119e-05
-0.0077259316
-1.4791746e-05
-2.0865995e-05
-0.0076854796
-6.881074e-05
-1.8421813e-05
-0.0076786631
-0.00014910956
-1.4853943e-05
-0.0077040724
-0.00026909936
-9.4006606e-06
-0.007746819
-0.00040780188
-1.0223418e-06
-0.0077772003
-0.00049422971
1.117472e-05
-0.0077505932
-0.00044733699
2.7053611e-05
-0.0076080758
-0.00027449727
4.4551456e-05
-0.0072991848
6.0201724e-05
-0.0068646108
0.0002779429
4.6854796e-05
-0.0069152313
0.00045264526
3.1696414e-05
-0.0073428851
0.00050013675
1.72285e-05
-0.0076425561
0.00041333376
4.7057224e-06
-0.0077764507
0.00027394216
-4.990532e-06
-0.0077964708
0.00015323795
-1.1905677e-05
-0.0077615947
7.2277215e-05
-1.6675266e-05
-0.0077160101
1.7611813e-05
-2.0077076e-05
-0.0076889429
-3.6950181e-05
-2.2725449e-05
-0.0076948982
-0.0001177807
-2.5002906e-05
-0.0077350059
-0.00023893086
-2.7065068e-05
-0.0077970883
-0.00038028547
-2.8855837e-05
-0.0078541768
-0.00047110865
-3.004668e-05
-0.0078631934
-0.00042891642
-2.976202e-05
-0.0077631642
-0.00025962885
-2.668278e-05
-0.0074950482
-1.9563439e-05
-0.0070871484
0.00025926118
-2.5869702e-05
-0.0071101187
0.00042972939
-3.903354e-05
-0.0075163622
0.00047277617
-4.4785125e-05
-0.0077832177
0.00038194954
-4.5239622e-05
-0.0078827595
0.00023992712
-4.2994383e-05
-0.0078736846
0.00011782262
-3.9858352e-05
-0.0078166245
3.6111301e-05
-3.6655073e-05
-0.0077546701
-1.9146039e-05
-3.3696461e-05
-0.0077150548
-7.444147e-05
-3.0953454e-05
-0.0077102771
-0.00015598128
-2.8122884e-05
-0.0077395324
-0.00027721314