/*--------------------------------*- C++ -*----------------------------------*\
| =========                 |                                                 |
| \\      /  F ield         | OpenFOAM: The Open Source CFD Toolbox           |
|  \\    /   O peration     | Version:  v2012                                 |
|   \\  /    A nd           | Website:  www.openfoam.com                      |
|    \\/     M anipulation  |                                                 |
\*---------------------------------------------------------------------------*/
FoamFile
{
    version     2.0;
    format      ascii;
    class       volVectorField;
    location    "206";
    object      U;
}
// * * * * * * * * * * * * * * * * * * * * * * * * * * * * * * * * * * * * * //

dimensions      [0 1 -1 0 0 0 0];


internalField   nonuniform List<vector> 
33282
(
(5.0373358 -0.0008310675 -0.00017474294)
(5.0405214 -0.00085869423 -0.00022546323)
(5.0432831 -0.0008785601 -0.00027180449)
(5.0456898 -0.00089217851 -0.00031352972)
(5.0477983 -0.00090065734 -0.00035094658)
(5.0496555 -0.00090502618 -0.00038438768)
(5.0513001 -0.00090631335 -0.00041411119)
(5.0527625 -0.00090531638 -0.00044031484)
(5.0540691 -0.00090246602 -0.00046382483)
(5.0552417 -0.00089838018 -0.00048475112)
(5.0562989 -0.00089351267 -0.00050322452)
(5.057255 -0.00088806364 -0.00051947298)
(5.0581234 -0.00088218084 -0.00053374189)
(5.0589147 -0.00087597083 -0.00054620984)
(5.0596382 -0.00086956284 -0.00055706826)
(5.0603015 -0.00086305007 -0.00056648613)
(5.0609117 -0.00085648829 -0.00057461972)
(5.0614743 -0.00084986406 -0.00058160041)
(5.0619945 -0.00084319729 -0.00058755712)
(5.0624764 -0.00083651123 -0.00059258486)
(5.0629239 -0.00082983084 -0.00059678372)
(5.0633401 -0.00082315038 -0.00060023306)
(5.0637279 -0.00081648718 -0.00060302007)
(5.0640899 -0.00080985543 -0.0006052058)
(5.0644282 -0.00080326983 -0.00060685173)
(5.064745 -0.00079671779 -0.00060799962)
(5.0650418 -0.00079020618 -0.0006087174)
(5.0653204 -0.00078376963 -0.00060903276)
(5.0655824 -0.00077738264 -0.00060900585)
(5.0658282 -0.00077111971 -0.00060864006)
(5.0660611 -0.00076483426 -0.00060796244)
(5.0662787 -0.00075868985 -0.00060697611)
(5.0664878 -0.00075239026 -0.00060574373)
(5.0666803 -0.00074559179 -0.00060405865)
(5.0668699 -0.00073962685 -0.00060324174)
(5.0670371 -0.00073074728 -0.00060063821)
(5.0672053 -0.00072742035 -0.00060226134)
(5.0673408 -0.00071722853 -0.00059838865)
(5.0674868 -0.00071780449 -0.00060241344)
(5.0675804 -0.0007142116 -0.00059966874)
(5.0677408 -0.00070383438 -0.00058841178)
(5.0671998 -0.00072662343 -0.0018020476)
(5.0659776 -0.00071502387 -0.0030756634)
(5.064183 -0.00067184987 -0.0043518933)
(5.0617852 -0.00061327801 -0.0055856015)
(5.0587883 -0.00054158203 -0.0067032111)
(5.0553239 -0.00046250651 -0.0076626007)
(5.0517643 -0.00038138739 -0.008435528)
(5.0482531 -0.00031358102 -0.0090530799)
(5.0447317 -0.00027400353 -0.0095776435)
(5.0411016 -0.00026797639 -0.010077613)
(5.0373319 -0.00028635629 -0.010618401)
(5.0334308 -0.00031719815 -0.011248813)
(5.0294266 -0.0003610965 -0.011981774)
(5.0252765 -0.00041931585 -0.012849912)
(5.0210152 -0.00050848493 -0.013900297)
(5.0167009 -0.00063927116 -0.015208973)
(5.0124078 -0.00082575076 -0.016883484)
(5.0081286 -0.0010715975 -0.019055785)
(5.0038573 -0.0013814559 -0.021856747)
(4.9994902 -0.001752125 -0.025424418)
(4.9948999 -0.0021774488 -0.029889634)
(4.9898303 -0.0026391201 -0.035345194)
(4.9839148 -0.0031060578 -0.041842811)
(4.9765949 -0.0035406013 -0.049350098)
(4.9669839 -0.0038783972 -0.057722546)
(4.9538697 -0.0040402509 -0.066642582)
(4.9355687 -0.003881312 -0.075613976)
(4.9099537 -0.0031241611 -0.083609952)
(4.8754068 -0.0017296528 -0.089375123)
(4.8353589 0.00040265635 -0.09049954)
(4.8070535 0.0030780244 -0.084818743)
(4.8103171 0.0051004774 -0.07354162)
(4.8397129 0.0055903958 -0.059547962)
(4.8776154 0.0050295515 -0.046538659)
(4.909406 0.0041179279 -0.035856453)
(4.9317703 0.0032633886 -0.027492423)
(4.9464215 0.0025867062 -0.020940767)
(4.9557507 0.0020723708 -0.015720866)
(4.9614836 0.0017146297 -0.011556509)
(4.9649367 0.001448265 -0.0081528671)
(4.9669408 0.0012840644 -0.0053654709)
(4.9680526 0.0011574267 -0.0030193392)
(4.9686279 0.0010720763 -0.00096181168)
(4.9684336 0.0032724584 -0.00094346526)
(4.9682108 0.005443831 -0.00087394376)
(4.9679387 0.0074890637 -0.00074042679)
(4.9676084 0.0092566608 -0.00057526735)
(4.9672125 0.010572819 -0.00038216114)
(4.9667431 0.011398911 -0.00018525209)
(4.9662115 0.011721406 1.1543554e-06)
(4.9656227 0.011599094 0.00016860668)
(4.9649954 0.011093429 0.00031140567)
(4.9643454 0.010263826 0.00042857518)
(4.9636988 0.00917098 0.00052096128)
(4.963079 0.0078643979 0.00058878066)
(4.9625312 0.0064315742 0.00063931298)
(4.9620743 0.0049269747 0.00066857436)
(4.9617379 0.0034430983 0.00069140409)
(4.9615118 0.0020190222 0.00069308202)
(4.9613918 0.00066020386 0.00068208975)
(4.9615357 0.00068161059 0.0021215456)
(4.9618218 0.00070481342 0.0036514631)
(4.9622684 0.0007185243 0.0053177114)
(4.9629054 0.00074115909 0.0071160857)
(4.9637244 0.00075307433 0.0089884964)
(4.9647277 0.00076026838 0.010913088)
(4.9658856 0.00075038108 0.01281211)
(4.9671915 0.00072114886 0.014650732)
(4.9686348 0.00066771278 0.016372577)
(4.9702169 0.00058833947 0.017928589)
(4.9719391 0.00048348237 0.019263894)
(4.9738043 0.00035665034 0.020323578)
(4.9758124 0.00021339719 0.021062692)
(4.977961 6.2181021e-05 0.021451249)
(4.9802459 -8.7208319e-05 0.021481203)
(4.9826585 -0.00022512424 0.021167086)
(4.9851876 -0.00034352846 0.020544891)
(4.9878199 -0.00043695097 0.01966692)
(4.99054 -0.00050221433 0.018596865)
(4.9933341 -0.00053934509 0.017399128)
(4.996187 -0.00055152609 0.016136563)
(4.9990847 -0.00054257546 0.014862507)
(5.0020131 -0.00051757139 0.013619653)
(5.004958 -0.00048164139 0.012438981)
(5.0079065 -0.00043954394 0.011339127)
(5.010845 -0.00039529723 0.01032931)
(5.01376 -0.00035169632 0.0094105225)
(5.0166364 -0.00031095316 0.008577849)
(5.0194587 -0.00027441564 0.0078233681)
(5.0222108 -0.0002428232 0.0071363713)
(5.0248752 -0.00021640178 0.0065053885)
(5.0274342 -0.00019511311 0.0059188821)
(5.0298702 -0.00017860979 0.005365553)
(5.0321669 -0.00016657936 0.0048340397)
(5.0343069 -0.00015849495 0.0043141536)
(5.0362737 -0.00015384068 0.0037959849)
(5.0380353 -0.00015236078 0.0032745943)
(5.0395685 -0.00015296076 0.0027431097)
(5.0408151 -0.0001569745 0.0022126667)
(5.0417668 -0.0001597459 0.0016845465)
(5.0424039 -0.00016676892 0.0011762654)
(5.0427629 -0.0001690395 0.0006935646)
(5.042877 -0.00017265707 0.00022594605)
(5.0435578 -0.0005200053 0.00022821935)
(5.044865 -0.00088021148 0.00022970877)
(5.0468715 -0.0012607488 0.00022372805)
(5.0495658 -0.0016601457 0.00022111933)
(5.0528035 -0.0020653136 0.00021623686)
(5.0564276 -0.0024742266 0.00021118457)
(5.0601838 -0.0028725858 0.000203119)
(5.0639067 -0.0032547031 0.0001890171)
(5.0674176 -0.0036075303 0.0001670149)
(5.0705626 -0.0039144683 0.0001333361)
(5.0731252 -0.0041464119 8.3263953e-05)
(5.0748545 -0.0042456814 1.0438176e-05)
(5.0754256 -0.0041587987 -8.9162864e-05)
(5.0746461 -0.0037894989 -0.00021371962)
(5.0726031 -0.0030828228 -0.00036246291)
(5.0698879 -0.0020353999 -0.00050345398)
(5.0693107 -0.0020635644 -0.001523074)
(5.0720313 -0.0031110568 -0.0010840862)
(5.0740993 -0.003800121 -0.00063479965)
(5.0748911 -0.0041464865 -0.00025794381)
(5.0743559 -0.0042199593 3.3421563e-05)
(5.0726745 -0.0041105677 0.00025311421)
(5.0701446 -0.0038731602 0.00040434424)
(5.0670366 -0.0035640916 0.00050694778)
(5.0635544 -0.0032107739 0.00057641753)
(5.0598684 -0.0028308661 0.00062262851)
(5.056147 -0.0024356373 0.00065169291)
(5.0525756 -0.0020344496 0.00066972638)
(5.0493682 -0.0016348638 0.00068200546)
(5.0467094 -0.0012430965 0.00068897045)
(5.0447222 -0.00086774316 0.00069523518)
(5.0434248 -0.00051142461 0.00069596053)
(5.0430416 -0.00050084485 0.0011818996)
(5.0443143 -0.00084977081 0.0011799959)
(5.0462742 -0.0012178469 0.0011724625)
(5.0488997 -0.0016002329 0.0011611773)
(5.0520699 -0.0019891621 0.0011411052)
(5.0555946 -0.0023787514 0.0011087361)
(5.0592663 -0.0027624751 0.0010570225)
(5.062899 -0.0031310296 0.00097817863)
(5.0663256 -0.0034732307 0.00086143517)
(5.0693743 -0.0037731935 0.00068974884)
(5.0718383 -0.0040037901 0.00043758881)
(5.073443 -0.0041134032 6.8311488e-05)
(5.0738845 -0.0040453512 -0.00042343899)
(5.0730017 -0.0037175511 -0.0010634404)
(5.0708343 -0.0030457706 -0.0018307607)
(5.0680593 -0.0020213377 -0.0025853406)
(5.0662312 -0.0019102679 -0.0036507752)
(5.0690562 -0.0028859677 -0.0025831413)
(5.071348 -0.0035313648 -0.001495171)
(5.0723718 -0.0038497983 -0.00058824521)
(5.0720586 -0.0039208056 0.0001019794)
(5.0705665 -0.0038244356 0.00062184403)
(5.0681977 -0.0036134324 0.00097694913)
(5.0652343 -0.0033352044 0.0012199682)
(5.0618868 -0.003016 0.0013869995)
(5.0583263 -0.0026693074 0.0015013566)
(5.0547195 -0.0023048964 0.0015788115)
(5.0512519 -0.0019318714 0.0016283616)
(5.0481304 -0.001557525 0.0016594588)
(5.0455461 -0.0011869412 0.0016771283)
(5.0436215 -0.00082816835 0.0016867325)
(5.042379 -0.00048733679 0.0016899848)
(5.041412 -0.00047708726 0.0022139011)
(5.0426243 -0.00080826497 0.0022072347)
(5.0445065 -0.0011562146 0.0021921102)
(5.0470386 -0.0015128 0.0021646113)
(5.0500987 -0.0018695364 0.002118146)
(5.0534944 -0.002220763 0.0020466767)
(5.05702 -0.0025591068 0.001940694)
(5.0604884 -0.0028747403 0.0017871937)
(5.0637382 -0.0031611651 0.0015672321)
(5.0665935 -0.0034055192 0.0012510293)
(5.0688415 -0.0035843938 0.0007935473)
(5.0701938 -0.0036560758 0.0001269736)
(5.0703512 -0.0035725323 -0.00075783948)
(5.0691614 -0.0032598723 -0.0019225502)
(5.0667317 -0.0026512091 -0.0033170223)
(5.0638453 -0.0017481802 -0.0046802534)
(5.0609067 -0.0015532646 -0.0056227091)
(5.0639067 -0.0023691961 -0.0039986544)
(5.0665016 -0.0029345329 -0.0023303727)
(5.0678736 -0.0032438702 -0.00093190603)
(5.0678867 -0.0033484434 0.00013352387)
(5.0666907 -0.0033116411 0.00093741741)
(5.0645828 -0.0031747397 0.0014947598)
(5.0618517 -0.0029722958 0.0018848361)
(5.0587167 -0.0027255582 0.0021612714)
(5.0553548 -0.0024457262 0.0023585627)
(5.0519263 -0.0021379302 0.002498362)
(5.0486172 -0.0018113464 0.002597165)
(5.0456313 -0.0014733515 0.0026641219)
(5.0431603 -0.0011303014 0.0027059451)
(5.0413253 -0.00079211149 0.002730252)
(5.0401459 -0.00046778122 0.0027421121)
(5.0386034 -0.00046435199 0.0032671185)
(5.0397509 -0.00078446656 0.0032467676)
(5.0415353 -0.0011160311 0.0032091751)
(5.0439383 -0.0014482042 0.0031477378)
(5.0468399 -0.0017691452 0.0030547002)
(5.0500519 -0.002072187 0.0029226707)
(5.053371 -0.0023494704 0.0027424859)
(5.0566156 -0.0025934371 0.0024958467)
(5.0596251 -0.0027985988 0.0021590258)
(5.0622193 -0.0029550004 0.0016933707)
(5.0641793 -0.003044731 0.0010392011)
(5.0652104 -0.0030388806 0.00010878076)
(5.0650274 -0.0029051044 -0.0011178889)
(5.0634709 -0.0025897325 -0.0027171926)
(5.060699 -0.0020620748 -0.0046109525)
(5.0575525 -0.0013361622 -0.0064437721)
(5.0540437 -0.0011179005 -0.0071338304)
(5.0572797 -0.0017625927 -0.0051593495)
(5.0601846 -0.0022660506 -0.0030942473)
(5.0618991 -0.0025991449 -0.0013280846)
(5.0622429 -0.0027703021 4.2608882e-05)
(5.0613729 -0.0028224427 0.0010902492)
(5.0595646 -0.0027809241 0.0018406616)
(5.057113 -0.0026685787 0.0023848186)
(5.0542369 -0.0025020761 0.0027865583)
(5.0511174 -0.002290074 0.0030884235)
(5.0479149 -0.0020385835 0.0033157663)
(5.0448082 -0.0017546658 0.0034872396)
(5.0419985 -0.001445455 0.003612068)
(5.039668 -0.0011194937 0.0036984043)
(5.0379376 -0.00078893327 0.0037529629)
(5.0368249 -0.00046762165 0.0037835675)
(5.0348429 -0.0004803807 0.0042951234)
(5.0359196 -0.0008094689 0.004251958)
(5.0375927 -0.0011460025 0.0041771545)
(5.0398457 -0.001471986 0.0040609948)
(5.0425595 -0.0017774028 0.0038987459)
(5.0455529 -0.0020508424 0.0036823085)
(5.048632 -0.0022845885 0.0034009153)
(5.0516206 -0.002471991 0.0030376743)
(5.0543577 -0.0026067496 0.0025654573)
(5.0566635 -0.0026811013 0.0019390565)
(5.0583187 -0.0026788668 0.0010898581)
(5.0590323 -0.0025824643 -6.8579112e-05)
(5.0585433 -0.0023706796 -0.0015736325)
(5.0567108 -0.0020124831 -0.0034797027)
(5.053743 -0.001519051 -0.0056679587)
(5.0505109 -0.00093638362 -0.0077197648)
(5.0469195 -0.00083153028 -0.0082439652)
(5.0500793 -0.0013801931 -0.0061600746)
(5.0530574 -0.0018741628 -0.0038841494)
(5.0549797 -0.0022575162 -0.0018571607)
(5.0556044 -0.0025055081 -0.00022442438)
(5.0550441 -0.0026392498 0.0010451093)
(5.0535437 -0.0026766136 0.0019959929)
(5.0513885 -0.0026314387 0.0027100168)
(5.0487956 -0.0025188687 0.0032585962)
(5.0459443 -0.002346496 0.0036894942)
(5.0429935 -0.0021208392 0.00403086)
(5.0401168 -0.0018474479 0.0042997069)
(5.0375047 -0.0015362102 0.0045049934)
(5.0353351 -0.0011999648 0.0046536462)
(5.0337222 -0.0008490331 0.0047514616)
(5.0326838 -0.00050400148 0.0048087393)
(5.0303667 -0.00054033106 0.0053337026)
(5.0313651 -0.00091060349 0.0052612603)
(5.0329156 -0.0012859859 0.0051380986)
(5.0349977 -0.0016439624 0.0049533196)
(5.0375027 -0.0019730791 0.0047003484)
(5.040257 -0.0022580268 0.0043732898)
(5.0430748 -0.0024873284 0.0039652507)
(5.0457846 -0.0026558628 0.0034596459)
(5.0482289 -0.002756496 0.0028277581)
(5.0502297 -0.0027820908 0.0020204971)
(5.0515715 -0.0027186233 0.00096370252)
(5.0519793 -0.0025543427 -0.00041827344)
(5.0512232 -0.0022740182 -0.0021748373)
(5.0492237 -0.0018655847 -0.004312735)
(5.0462588 -0.0013600916 -0.006660093)
(5.043198 -0.00081507477 -0.0087575289)
(5.0393407 -0.00086677004 -0.0093068721)
(5.0422976 -0.001439947 -0.0071912221)
(5.0452337 -0.0019753326 -0.0047744856)
(5.0472991 -0.0024166178 -0.0025276948)
(5.0481814 -0.0027313231 -0.00064709979)
(5.0479263 -0.00292344 0.00085244974)
(5.0467459 -0.0030072327 0.0020209949)
(5.044902 -0.0029930861 0.0029287808)
(5.0426097 -0.0028938698 0.003651831)
(5.0400446 -0.0027171451 0.0042397486)
(5.0373651 -0.002470514 0.004721602)
(5.0347376 -0.0021610967 0.0051123104)
(5.0323438 -0.001800649 0.0054176297)
(5.030352 -0.0014074669 0.0056418694)
(5.0288663 -0.00099682626 0.0057922285)
(5.0279096 -0.00059087109 0.005880334)
(5.0253302 -0.0006565471 0.0064604604)
(5.0262441 -0.0011094907 0.0063564925)
(5.0276621 -0.0015677582 0.0061777618)
(5.0295609 -0.0020109533 0.0059113682)
(5.0318403 -0.0024176634 0.005549421)
(5.0343372 -0.0027671584 0.0050890968)
(5.0368752 -0.0030458651 0.0045257637)
(5.0392914 -0.0032442366 0.0038457174)
(5.0414293 -0.0033531708 0.0030205103)
(5.0431149 -0.0033634883 0.0020009985)
(5.0441376 -0.0032608076 0.00071176571)
(5.0442458 -0.0030363777 -0.00091444233)
(5.0432454 -0.0026764443 -0.002925674)
(5.0411253 -0.0021835851 -0.0052870139)
(5.0382243 -0.001592 -0.0077820693)
(5.035369 -0.00095969416 -0.0099296224)
(5.0312979 -0.0010911279 -0.010651689)
(5.0340672 -0.0018121765 -0.0084593534)
(5.0369292 -0.0024896106 -0.005877488)
(5.0390969 -0.0030600569 -0.0033892392)
(5.0402048 -0.0034831512 -0.0012330007)
(5.0402346 -0.0037471784 0.00053791139)
(5.0393658 -0.0038663429 0.0019644489)
(5.0378368 -0.003851526 0.0031120714)
(5.0358539 -0.0037198388 0.0040530998)
(5.0335884 -0.0034841802 0.0048367461)
(5.0311939 -0.0031564143 0.0054904825)
(5.0288297 -0.0027489338 0.0060268366)
(5.0266674 -0.0022787954 0.0064490452)
(5.0248638 -0.001770821 0.0067593969)
(5.0235154 -0.0012499331 0.0069667266)
(5.0226451 -0.0007380848 0.007086345)
(5.0198715 -0.00083574882 0.0077695383)
(5.020697 -0.0014188269 0.0076360879)
(5.0219745 -0.002017155 0.0074012522)
(5.0236815 -0.0026071046 0.0070465923)
(5.0257246 -0.0031594058 0.0065614303)
(5.0279543 -0.0036457656 0.0059433771)
(5.0302047 -0.004043466 0.0051896729)
(5.0323199 -0.0043362681 0.0042890535)
(5.034149 -0.0045083043 0.0032141587)
(5.0355249 -0.004540904 0.0019162786)
(5.0362463 -0.0044119087 0.00032715415)
(5.0360874 -0.0041033726 -0.0016153197)
(5.0348827 -0.0036019065 -0.0039416679)
(5.0326691 -0.0029247552 -0.0065768373)
(5.0298298 -0.002125215 -0.0092589299)
(5.0271185 -0.0012756907 -0.011503318)
(5.0228427 -0.0015468758 -0.012534769)
(5.0255276 -0.0025765661 -0.010225081)
(5.0283659 -0.0035432277 -0.0074181778)
(5.030624 -0.0043534693 -0.0046035278)
(5.0319179 -0.0049438843 -0.0020693633)
(5.0321966 -0.0052923 8.3530601e-05)
(5.0316146 -0.0054173922 0.0018686564)
(5.0303861 -0.0053468849 0.0033437047)
(5.0287065 -0.0051115921 0.0045733578)
(5.0267408 -0.0047345316 0.0056063436)
(5.0246357 -0.00424086 0.0064690145)
(5.0225424 -0.0036518168 0.0071731453)
(5.0206202 -0.0029957732 0.007721689)
(5.019012 -0.0023060493 0.0081188343)
(5.0178075 -0.0016154705 0.0083783778)
(5.0170278 -0.00094892132 0.0085230147)
(5.0141293 -0.0010751793 0.0093583118)
(5.0148631 -0.0018366571 0.0092075887)
(5.0159938 -0.0026337066 0.0089281286)
(5.0175018 -0.0034409031 0.0084926059)
(5.0193006 -0.0042230026 0.007883602)
(5.0212552 -0.0049415657 0.0070925085)
(5.0232139 -0.005561876 0.0061137975)
(5.0250306 -0.0060547626 0.0049339816)
(5.0265626 -0.0063870904 0.0035260567)
(5.0276496 -0.0065262416 0.0018408711)
(5.0281022 -0.0064278824 -0.00018279532)
(5.0277142 -0.0060519651 -0.0025959765)
(5.026341 -0.0053697394 -0.0053933922)
(5.0240393 -0.0043996916 -0.0084409682)
(5.0211972 -0.0032179146 -0.011414783)
(5.0185171 -0.0019382149 -0.013818069)
(5.0142234 -0.0024889516 -0.015439621)
(5.0168864 -0.0040990022 -0.012894046)
(5.0197214 -0.0055505009 -0.0096828122)
(5.0220479 -0.006701277 -0.0063246174)
(5.0234867 -0.0074717072 -0.0031887252)
(5.0239711 -0.0078491471 -0.00044877534)
(5.0236401 -0.0078834856 0.0018646802)
(5.0226908 -0.0076360093 0.0037955513)
(5.0213052 -0.0071659138 0.0054049464)
(5.0196374 -0.0065197757 0.0067441646)
(5.0178275 -0.0057388642 0.0078421564)
(5.0160143 -0.0048632337 0.0087166864)
(5.0143401 -0.0039331346 0.0093795421)
(5.0129338 -0.0029909731 0.009843803)
(5.0118778 -0.0020756514 0.01013445)
(5.0111916 -0.0012107826 0.010284185)
(5.0082299 -0.0013493736 0.011307378)
(5.0088676 -0.002321751 0.011167555)
(5.0098471 -0.0033628956 0.010877973)
(5.0111491 -0.0044519114 0.010398233)
(5.0126956 -0.005549797 0.0096954132)
(5.0143649 -0.0066100517 0.0087471413)
(5.016022 -0.0075843549 0.0075329035)
(5.0175365 -0.0084267625 0.0060278997)
(5.0187744 -0.0090824905 0.0041950794)
(5.0195878 -0.0094873477 0.0019790765)
(5.0198021 -0.0095623404 -0.00068378522)
(5.019228 -0.0092149285 -0.0038301959)
(5.0177364 -0.008371545 -0.0074052259)
(5.0153925 -0.0070195781 -0.011185332)
(5.0125728 -0.0052432947 -0.014739653)
(5.0099332 -0.0032118874 -0.017512733)
(5.0056433 -0.0041182284 -0.020147953)
(5.0082432 -0.0066632438 -0.017031462)
(5.0110342 -0.0088192948 -0.01298679)
(5.0133791 -0.010379871 -0.0086372996)
(5.0149173 -0.011271015 -0.0044960164)
(5.0155771 -0.011536259 -0.00084420497)
(5.015482 -0.011295161 0.0022341847)
(5.0148103 -0.0106778 0.0047737357)
(5.0137275 -0.0097890999 0.0068460334)
(5.012374 -0.0087116407 0.0085168111)
(5.0108753 -0.0075131699 0.0098364658)
(5.0093557 -0.0062470438 0.010840404)
(5.0079414 -0.0049690769 0.011563022)
(5.0067467 -0.0037267649 0.012038216)
(5.0058456 -0.0025592527 0.012310738)
(5.0052578 -0.0014818182 0.012429389)
(5.0022882 -0.0015957788 0.013640069)
(5.002825 -0.0027669814 0.013557536)
(5.0036453 -0.0040513288 0.013322383)
(5.0047286 -0.0054405358 0.012876529)
(5.0060056 -0.0068995681 0.012161967)
(5.0073674 -0.0083800212 0.011128923)
(5.008696 -0.0098225024 0.0097262559)
(5.0098759 -0.011167189 0.0078998362)
(5.0107891 -0.012332584 0.0055805929)
(5.0113027 -0.013219364 0.0026850248)
(5.0112621 -0.013689165 -0.00087558115)
(5.0105009 -0.013567846 -0.0051418172)
(5.0089098 -0.012677317 -0.010005832)
(5.0065599 -0.010917547 -0.015114136)
(5.0038075 -0.0083455434 -0.019844291)
(5.0012454 -0.0051993768 -0.02346306)
(4.9966189 -0.006434775 -0.027560861)
(4.9991183 -0.010241265 -0.023232835)
(5.001844 -0.013240937 -0.017573223)
(5.0042207 -0.015161755 -0.011476718)
(5.0059005 -0.015985673 -0.0057131311)
(5.0068002 -0.01588911 -0.00071525203)
(5.0070128 -0.015122142 0.003390511)
(5.0066894 -0.013915848 0.0066635187)
(5.0059734 -0.012438803 0.0092226739)
(5.0049895 -0.010811271 0.01118029)
(5.0038476 -0.0091224144 0.012632747)
(5.0026544 -0.0074361135 0.013659021)
(5.0015229 -0.0058117659 0.014329777)
(5.0005552 -0.0042972136 0.014717702)
(4.9998184 -0.0029187021 0.01489222)
(4.9993344 -0.0016766709 0.014923863)
(4.9964101 -0.0017076267 0.016247242)
(4.99684 -0.0029849442 0.016284044)
(4.9974897 -0.0044182655 0.016191693)
(4.998336 -0.0060197494 0.015896037)
(4.9993117 -0.0077701408 0.015308383)
(5.0003197 -0.0096287802 0.014334035)
(5.0012523 -0.011539514 0.012876429)
(5.0020074 -0.013440366 0.010828406)
(5.0024812 -0.015239148 0.0080566121)
(5.0025578 -0.016801186 0.0044047707)
(5.0021052 -0.0179261 -0.00029192188)
(5.000991 -0.018325776 -0.0061341878)
(4.9991484 -0.017655966 -0.012990673)
(4.996682 -0.015644085 -0.020336621)
(4.993947 -0.012246447 -0.027218412)
(4.991493 -0.0077607693 -0.032501331)
(4.9855251 -0.0090901619 -0.038306539)
(4.987966 -0.014216504 -0.031771199)
(4.9907869 -0.017929068 -0.023334562)
(4.9934561 -0.019918561 -0.014451724)
(4.9956011 -0.020319655 -0.0063174608)
(4.997064 -0.019530423 0.0004622071)
(4.9978698 -0.018001262 0.0057672636)
(4.9981297 -0.016075862 0.0097685166)
(4.9979628 -0.013981911 0.012704211)
(4.9974827 -0.011852091 0.014785411)
(4.9967914 -0.0097776073 0.016191585)
(4.9959898 -0.0078105669 0.017063106)
(4.9951814 -0.0059990367 0.017528376)
(4.9944634 -0.0043714304 0.017700945)
(4.9939036 -0.0029371101 0.017687751)
(4.9935297 -0.0016734862 0.01756837)
(4.9907067 -0.0015608374 0.018829357)
(4.9910233 -0.0027498903 0.019042531)
(4.9914907 -0.0041154117 0.019179077)
(4.9920747 -0.0056872643 0.01915287)
(4.9927035 -0.007472142 0.018850481)
(4.9932769 -0.0094495175 0.018128208)
(4.9936876 -0.011591776 0.016836953)
(4.9938307 -0.013859241 0.014795583)
(4.9935985 -0.016180527 0.01177531)
(4.9928715 -0.01843276 0.007492345)
(4.9915365 -0.020378664 0.0016131894)
(4.9895033 -0.021636826 -0.0061548488)
(4.9868139 -0.02163176 -0.015741177)
(4.9837254 -0.019827326 -0.026441016)
(4.980662 -0.015955863 -0.036790348)
(4.9781614 -0.010307373 -0.044917525)
(4.9685745 -0.011227578 -0.052168145)
(4.9713091 -0.017168924 -0.042091288)
(4.9748978 -0.020973712 -0.029448447)
(4.9787925 -0.022394034 -0.016674199)
(4.9824136 -0.021865338 -0.0055439919)
(4.9853587 -0.02011396 0.0031774748)
(4.9874885 -0.017794149 0.0095479304)
(4.9888636 -0.015315066 0.014002769)
(4.9896145 -0.012894067 0.017004443)
(4.9898823 -0.010625944 0.018921792)
(4.9897949 -0.0085525117 0.020038068)
(4.9894729 -0.0066891274 0.020566264)
(4.9890363 -0.0050456606 0.020682313)
(4.9885906 -0.0036231181 0.02054148)
(4.9882167 -0.0024078463 0.020273641)
(4.987958 -0.0013612303 0.019962437)
(4.9852979 -0.0010737289 0.020900383)
(4.9855007 -0.0019080916 0.021303227)
(4.9857827 -0.0028896817 0.021700071)
(4.9860898 -0.0040591116 0.022005604)
(4.9863288 -0.005436819 0.022085939)
(4.9863795 -0.0070381676 0.021777688)
(4.986103 -0.008873849 0.020885826)
(4.9853489 -0.010952496 0.019170558)
(4.9839445 -0.013273687 0.016306005)
(4.9816951 -0.015791752 0.011836168)
(4.9784193 -0.018347045 0.0051464297)
(4.9740593 -0.020557814 -0.0044179167)
(4.9688931 -0.021715241 -0.017096015)
(4.963556 -0.020947656 -0.032130807)
(4.9589109 -0.017472829 -0.047358936)
(4.9556246 -0.01161157 -0.059737194)
(4.9378025 -0.011086343 -0.067115002)
(4.9422841 -0.016348674 -0.052166012)
(4.9488804 -0.01894646 -0.034132913)
(4.9566576 -0.018925504 -0.016797557)
(4.964274 -0.017197173 -0.0027571674)
(4.9707153 -0.014743264 0.0073797107)
(4.9755624 -0.012238644 0.014149376)
(4.9789282 -0.0099694181 0.018460723)
(4.9811144 -0.00800828 0.021080815)
(4.9824181 -0.0063402457 0.022535598)
(4.9830831 -0.0049305779 0.023184335)
(4.9833095 -0.0037434072 0.023275996)
(4.9832638 -0.002753147 0.023014338)
(4.983089 -0.0019347389 0.022561723)
(4.9828935 -0.0012647455 0.022054294)
(4.9827423 -0.00070659311 0.021574386)
(4.980306 -0.00027801929 0.021922904)
(4.9804119 -0.00050991052 0.022458083)
(4.9805319 -0.00080625992 0.02304684)
(4.9805886 -0.0011944398 0.023609455)
(4.9804576 -0.0016947252 0.024012585)
(4.979971 -0.0023351663 0.024099011)
(4.9789238 -0.0031467527 0.023669594)
(4.9770558 -0.0041729484 0.022477174)
(4.9740178 -0.0054769158 0.020160069)
(4.9693513 -0.0071273161 0.016154466)
(4.9625349 -0.0091501896 0.0095660465)
(4.9532841 -0.011410398 -0.00077560317)
(4.9420755 -0.01341575 -0.015767674)
(4.9303692 -0.01429507 -0.035039997)
(4.9202599 -0.012987449 -0.055826398)
(4.913363 -0.0091478859 -0.073493685)
(4.881398 -0.0050791364 -0.077678232)
(4.8928854 -0.0065626181 -0.057522488)
(4.9087982 -0.0063183987 -0.034630143)
(4.9262259 -0.0049060819 -0.014179824)
(4.9420781 -0.0032318492 0.0010911277)
(4.9546192 -0.0017971389 0.011212114)
(4.963554 -0.0007776837 0.017418095)
(4.9695244 -0.00012141218 0.021068369)
(4.973366 0.00026729839 0.023111107)
(4.9757393 0.00047543777 0.024104661)
(4.9771147 0.00056359101 0.024389338)
(4.9778189 0.00056830196 0.024196108)
(4.978093 0.00051517676 0.023717918)
(4.9781309 0.0004237096 0.023099958)
(4.9780715 0.00030961125 0.022471519)
(4.9780016 0.00018668041 0.021911175)
(4.9758388 0.00065717543 0.021519098)
(4.9758839 0.0011396295 0.02207481)
(4.9759028 0.0016698051 0.022694596)
(4.9758028 0.00224883 0.023305616)
(4.9754323 0.0028692889 0.023784609)
(4.9745826 0.0035227868 0.023984326)
(4.9729833 0.0041983516 0.023728765)
(4.9702515 0.004878032 0.022810302)
(4.9658214 0.0055318924 0.020912906)
(4.9588504 0.0061039811 0.017518803)
(4.9481703 0.0064834537 0.011722115)
(4.9326638 0.0064886595 0.002135035)
(4.9121097 0.0059240756 -0.012664893)
(4.8880666 0.0047292901 -0.033047369)
(4.8643827 0.0031299546 -0.056631713)
(4.8458099 0.0016902753 -0.077992578)
(4.8215846 0.0092192696 -0.072954119)
(4.8462508 0.013631401 -0.053004999)
(4.8758589 0.016149085 -0.030933749)
(4.9042638 0.016679204 -0.011988706)
(4.9274932 0.015833488 0.0017524695)
(4.9444474 0.014281116 0.010729558)
(4.9558681 0.012514271 0.016269467)
(4.963226 0.010778915 0.01961191)
(4.9678734 0.0091558684 0.021553245)
(4.9707368 0.0076600115 0.022551886)
(4.9724187 0.0062853279 0.022898212)
(4.9733221 0.0050260724 0.022788708)
(4.9737289 0.0038800692 0.022391332)
(4.9738548 0.0028464122 0.021845604)
(4.9738544 0.0019254013 0.021276438)
(4.9738218 0.0011030954 0.020757735)
(4.9719528 0.0014978203 0.019657968)
(4.9719844 0.0026190775 0.020117277)
(4.9719882 0.0038787952 0.020599428)
(4.9718735 0.0052985465 0.021028644)
(4.9714895 0.0068825903 0.021288834)
(4.9706305 0.0086300066 0.021229675)
(4.96902 0.010549314 0.020699151)
(4.9662763 0.012658927 0.019503521)
(4.961837 0.014977071 0.017372178)
(4.9548324 0.017504874 0.013910438)
(4.9440077 0.020171555 0.0084639173)
(4.9278992 0.022697012 8.5316913e-05)
(4.905613 0.024399314 -0.012204934)
(4.8780117 0.024198714 -0.028638127)
(4.8488857 0.020914506 -0.047333712)
(4.8244916 0.014320575 -0.063893627)
(4.8504852 0.015838167 -0.05271722)
(4.8694244 0.023315812 -0.040503171)
(4.8924716 0.027258443 -0.026077933)
(4.9146933 0.027727952 -0.012724958)
(4.9329029 0.026087224 -0.002102158)
(4.9462905 0.023471021 0.0056326145)
(4.9554545 0.020592651 0.010992637)
(4.9614985 0.017776147 0.01460275)
(4.9653775 0.015130282 0.016953998)
(4.9677822 0.01267851 0.018387714)
(4.9691846 0.010416882 0.01914327)
(4.9699171 0.0083328582 0.019399797)
(4.9702257 0.0064288376 0.01931454)
(4.9702984 0.0047136143 0.019024346)
(4.9702722 0.0031853452 0.018650778)
(4.9702319 0.0018220375 0.018268496)
(4.9686553 0.0020670222 0.016653085)
(4.9687124 0.0036076192 0.016948492)
(4.968774 0.0053259649 0.017206874)
(4.9687672 0.0072379855 0.017348781)
(4.9685721 0.0093346424 0.017259042)
(4.9680247 0.011596279 0.016812101)
(4.9669198 0.01400119 0.015858592)
(4.9649949 0.016534124 0.014231141)
(4.9618839 0.019172483 0.011733197)
(4.9571078 0.021841943 0.0080932264)
(4.9500374 0.024379948 0.0029810428)
(4.9400546 0.026413967 -0.0039416005)
(4.9269682 0.027300197 -0.012845532)
(4.9115787 0.026002959 -0.023249306)
(4.8962345 0.021724767 -0.03373897)
(4.8841158 0.0144483 -0.042105026)
(4.9128805 0.012007403 -0.033076397)
(4.9197907 0.018490642 -0.027524658)
(4.9289578 0.022831596 -0.02012748)
(4.9386244 0.024801561 -0.012263175)
(4.9472489 0.024838507 -0.0050646851)
(4.9541182 0.02361149 0.00091908498)
(4.9591573 0.021676658 0.0055878772)
(4.962636 0.019409395 0.0090801548)
(4.9649219 0.017006208 0.01158911)
(4.9663205 0.014583658 0.013307098)
(4.9670842 0.012203574 0.014398018)
(4.9674149 0.009905945 0.014997806)
(4.9674756 0.0077322642 0.015237908)
(4.9674042 0.0057172307 0.015229394)
(4.9672994 0.0038862267 0.015081506)
(4.9672201 0.0022320103 0.014871582)
(4.9659268 0.0023223804 0.012977814)
(4.9660301 0.0040322544 0.013112046)
(4.9661801 0.0059083776 0.013166203)
(4.9663322 0.0079459054 0.013068493)
(4.9664075 0.010105511 0.012722534)
(4.9662954 0.012335447 0.012031483)
(4.9658689 0.014576764 0.010888663)
(4.9649847 0.016764725 0.0091831868)
(4.9634703 0.018820018 0.0068019016)
(4.961146 0.020599766 0.0036192474)
(4.957818 0.021900832 -0.00045622564)
(4.9533974 0.02239428 -0.0054308933)
(4.9480487 0.021660163 -0.011099752)
(4.9423242 0.019300102 -0.016935599)
(4.9371603 0.015181191 -0.022100927)
(4.9334649 0.0096442362 -0.025769204)
(4.9471689 0.0077248235 -0.019865039)
(4.9490475 0.012377593 -0.017431728)
(4.9518307 0.016116102 -0.013835902)
(4.955049 0.018584119 -0.0095740012)
(4.9581681 0.019746706 -0.0052236211)
(4.9608118 0.01980133 -0.0012264209)
(4.9628178 0.019043764 0.0021849675)
(4.9642045 0.017727987 0.0049475347)
(4.9650624 0.016046851 0.0070886342)
(4.9654961 0.014140892 0.0086759536)
(4.9656173 0.012103873 0.0097889647)
(4.9655296 0.010009105 0.010505617)
(4.9653273 0.0079320541 0.010912077)
(4.9650998 0.0059335701 0.01108295)
(4.9649071 0.0040678995 0.011101503)
(4.9647806 0.0023509381 0.011030402)
(4.9637944 0.0023306958 0.009075749)
(4.9639424 0.0040202272 0.0091030874)
(4.9641726 0.0058365145 0.009035248)