/*--------------------------------*- C++ -*----------------------------------*\
| =========                 |                                                 |
| \\      /  F ield         | OpenFOAM: The Open Source CFD Toolbox           |
|  \\    /   O peration     | Version:  v2012                                 |
|   \\  /    A nd           | Website:  www.openfoam.com                      |
|    \\/     M anipulation  |                                                 |
\*---------------------------------------------------------------------------*/
FoamFile
{
    version     2.0;
    format      ascii;
    class       volScalarField;
    location    "100";
    object      k;
}
// * * * * * * * * * * * * * * * * * * * * * * * * * * * * * * * * * * * * * //

dimensions      [0 2 -2 0 0 0 0];


internalField   nonuniform List<scalar> 
33005
(
0.27024793
0.27388918
0.27731043
0.28054202
0.2835962
0.28648451
0.28922525
0.2918327
0.29431752
0.29669164
0.29896891
0.30116099
0.30327782
0.3053269
0.30731386
0.30924465
0.31112649
0.31297051
0.3147949
0.31662224
0.31551095
0.31344695
0.31139382
0.30934516
0.30729334
0.30522958
0.30314369
0.30102394
0.29885746
0.29663017
0.29432788
0.29193485
0.28943333
0.28680874
0.2840448
0.28112379
0.27803302
0.27475944
0.27128881
0.27073631
0.27065747
0.27089108
0.27123418
0.2715465
0.27172171
0.27799135
0.2779217
0.27780272
0.27763874
0.27747856
0.277323
0.27714021
0.27700515
0.27682843
0.27662342
0.27643313
0.27621875
0.27599576
0.27578326
0.27560473
0.27545082
0.275346
0.2752191
0.27503676
0.27474511
0.27443298
0.27421887
0.27428702
0.27762579
0.27757048
0.27777233
0.27804774
0.27831449
0.27850383
0.27864803
0.2787564
0.27891295
0.27908137
0.27929869
0.27950547
0.2797228
0.27990551
0.28010254
0.28026532
0.2803988
0.28057106
0.28072703
0.28087246
0.28102939
0.28116763
0.28124607
0.28428635
0.28419551
0.28405376
0.28390641
0.28376069
0.28361152
0.28345134
0.28331783
0.28315928
0.28297103
0.28279711
0.28258407
0.28238607
0.28217216
0.28200559
0.28184735
0.28173534
0.28158962
0.28140575
0.28116992
0.280928
0.28074374
0.28079266
0.28376725
0.28373762
0.28389933
0.28411997
0.28432366
0.28450006
0.284643
0.28475789
0.28491712
0.28508334
0.28529242
0.28548444
0.28569006
0.28585675
0.28603629
0.28619279
0.28632773
0.28647697
0.28661456
0.28676716
0.28690768
0.287043
0.28714743
0.28726204
0.28739512
0.29008318
0.2899607
0.28984077
0.28973044
0.28960239
0.28946396
0.28931595
0.2891859
0.28904694
0.28891111
0.28875769
0.28858981
0.28842564
0.28823026
0.28803984
0.28783901
0.28766968
0.28751346
0.28739283
0.28725202
0.28708716
0.28690363
0.28670636
0.28656577
0.28658292
0.28924972
0.2892477
0.28937247
0.28954289
0.289707
0.28986279
0.28999861
0.29012608
0.2902804
0.2904516
0.29064588
0.29083438
0.29102214
0.29118418
0.29134318
0.29149137
0.29162784
0.2917584
0.29188533
0.29202316
0.29216039
0.29228007
0.2923922
0.29251158
0.2926271
0.29505275
0.29493871
0.29482411
0.29471128
0.29459628
0.2944631
0.2943312
0.29421043
0.294084
0.29395063
0.29380585
0.29365075
0.29349171
0.29330738
0.29312249
0.29293163
0.29276153
0.29260684
0.29247744
0.29234583
0.29220017
0.29205276
0.29190226
0.29179357
0.29178999
0.29421187
0.2942226
0.29431651
0.2944515
0.29458555
0.29471863
0.29484565
0.29497592
0.29512932
0.29529872
0.29548604
0.29566873
0.29585053
0.2960087
0.29616125
0.29630532
0.29643473
0.29655963
0.29667461
0.29680291
0.29693068
0.29704246
0.29715621
0.29726561
0.29738179
0.29962335
0.29950961
0.29940343
0.29929287
0.2991824
0.29905883
0.29893482
0.29882266
0.29869936
0.29857113
0.29842795
0.29827683
0.29811667
0.29793778
0.29775528
0.2975728
0.2974042
0.2972532
0.2971227
0.29699839
0.29687676
0.29675483
0.29663653
0.2965549
0.29654202
0.29879123
0.29880648
0.29887808
0.29897983
0.29909085
0.29920255
0.29932216
0.29945291
0.29960166
0.29976755
0.29994552
0.30012742
0.30030451
0.30046706
0.30061871
0.30076125
0.30089034
0.30101254
0.30112447
0.30124459
0.30136418
0.30147444
0.30158229
0.30168647
0.30179946
0.30380977
0.30370457
0.30359675
0.30348724
0.30336992
0.30325213
0.30313885
0.30301632
0.30288522
0.30274214
0.30258849
0.30242464
0.30224844
0.30206866
0.30189432
0.3017318
0.30158676
0.30145861
0.30134461
0.30124134
0.30114144
0.30105446
0.30099368
0.30097758
0.30311147
0.30312861
0.3031805
0.30325469
0.30334363
0.30343875
0.30354667
0.30367038
0.30380991
0.30396785
0.30413706
0.30431372
0.30448785
0.30465221
0.30480823
0.30495213
0.30508617
0.30521009
0.30532601
0.30544341
0.30556001
0.30567
0.3057785
0.30588748
0.30792261
0.30781156
0.30770072
0.30758892
0.30747191
0.30735296
0.30723356
0.30710698
0.30697072
0.30682575
0.30666972
0.30650589
0.30633527
0.30616407
0.30600127
0.30585023
0.30571742
0.30560026
0.30549893
0.30541199
0.30533359
0.30526999
0.30522553
0.30520875
0.30728022
0.30729669
0.30733449
0.30738913
0.30745788
0.30753681
0.30763027
0.30773955
0.30786413
0.308006
0.30816053
0.30832387
0.30848865
0.30865002
0.30880441
0.30894953
0.30908718
0.3092166
0.30933958
0.30946121
0.30957972
0.30969459
0.30980901
0.30992283
0.31189187
0.31177447
0.31165643
0.31153797
0.31141683
0.31129287
0.31116696
0.31103564
0.31089804
0.31075393
0.31060278
0.31044695
0.31029014
0.31013683
0.30999271
0.30986179
0.3097471
0.30964714
0.30956262
0.30949161
0.30943162
0.3093847
0.30935252
0.30933776
0.31138998
0.31140301
0.31143024
0.31147027
0.31152209
0.3115852
0.31166038
0.31174978
0.31185322
0.31197169
0.31210357
0.31224483
0.31239135
0.31253911
0.31268445
0.31282561
0.31296147
0.3130931
0.31322064
0.3133463
0.31346998
0.31359178
0.31371329
0.31383466
0.31575668
0.31563203
0.31550784
0.31538363
0.31525848
0.31513238
0.31500517
0.3148753
0.31474285
0.31460749
0.31447023
0.31433284
0.31419861
0.31407088
0.31395295
0.31384783
0.31375642
0.31367807
0.3136123
0.31355739
0.313513
0.31347921
0.31345648
0.31344553
0.31551086
0.31551988
0.31553857
0.31556682
0.3156045
0.31565134
0.31570776
0.31577499
0.315854
0.31594532
0.31604855
0.31616169
0.31628227
0.31640733
0.31653439
0.31666155
0.069750615
0.073677974
0.069863534
0.073766995
0.066976732
0.070554479
0.06693871
0.0556698
0.052094877
0.049286058
0.051874341
0.064048123
0.061334669
0.060365006
0.058519945
0.05809964
0.057587366
0.12414415
0.12642587
0.12656531
0.12671018
0.12737814
0.13098784
0.13224342
0.13450648
0.13509916
0.13688112
0.1374213
0.13857126
0.13910247
0.14138508
0.1419607
0.14273928
0.14292742
0.14437234
0.1450717
0.14648746
0.14716803
0.1493291
0.15061974
0.15298704
0.15360159
0.15382335
0.15403098
0.15341025
0.15336669
0.15768056
0.143513
0.13503612
0.11853143
0.10231433
0.094891649
0.090422355
0.095846082
0.11352089
0.12919745
0.13822931
0.14990077
0.14566346
0.14911095
0.15007437
0.14992598
0.14993806
0.14932653
0.1471887
0.14583011
0.14392916
0.14325999
0.14199603
0.14113608
0.13982172
0.13952934
0.13867864
0.13801835
0.13589618
0.13530345
0.13432294
0.13372948
0.1320903
0.13146816
0.12935537
0.12805653
0.12490245
0.12419521
0.12381216
0.12259881
0.12066236
0.11811176
0.11492669
0.11166243
0.11039271
0.11406982
0.11765843
0.12092372
0.12117734
0.1179421
0.11446972
0.11104818
0.11092136
0.11471584
0.11844272
0.12192361
0.12466417
0.12096159
0.11711625
0.11340419
0.1097565
0.10634208
0.10302104
0.099981986
0.10009163
0.10322725
0.10671395
0.11031653
0.11412247
0.11817127
0.12220127
0.12602336
0.12796885
0.12427145
0.12036391
0.11653766
0.11277904
0.10919933
0.10572589
0.1025982
0.10212752
0.10540825
0.10902654
0.11271232
0.11658797
0.12074422
0.1248069
0.12864426
0.13013861
0.12627074
0.12228548
0.11843827
0.11468713
0.11104873
0.10747913
0.10427507
0.10195532
0.10297892
0.10902887
0.10230318
0.10115989
0.1035191
0.10683488
0.11051044
0.11426191
0.11823975
0.12246623
0.12671309
0.13076157
0.13158629
0.127706
0.12366182
0.11973407
0.11586619
0.11224654
0.10870963
0.10548428
0.10314321
0.10428515
0.11061938
0.10385659
0.10254926
0.1048736
0.10820157
0.11186948
0.11560556
0.11959475
0.12386453
0.12811963
0.13223399
0.134243
0.13025797
0.12610245
0.12211789
0.1181977
0.11448941
0.11089203
0.10758564
0.10517887
0.10616208
0.11272275
0.10625677
0.10510042
0.10743526
0.11077373
0.11444297
0.11821131
0.12221217
0.1265097
0.1308376
0.1349775
0.13589304
0.13200845
0.1279105
0.12393012
0.11999692
0.1162755
0.11265435
0.10933555
0.10692004
0.10797798
0.11428886
0.10758577
0.10645035
0.10883498
0.11217815
0.1159198
0.11976214
0.12385706
0.1280766
0.13228238
0.13627981
0.13745632
0.13346999
0.12931088
0.1253672
0.12148968
0.11779199
0.11417804
0.11088181
0.10847021
0.10958943
0.11621631
0.10944963
0.10814833
0.11056738
0.11397248
0.1177742
0.12166617
0.1257208
0.13002942
0.13445108
0.13849787
0.13958548
0.1356424
0.13146601
0.12745007
0.12352513
0.11970064
0.1159503
0.11259081
0.11018266
0.1112286
0.11791479
0.1109439
0.10963899
0.1121225
0.11560234
0.11948399
0.12337353
0.12745303
0.13179338
0.13611494
0.14023468
0.14186903
0.13765168
0.13325197
0.12908208
0.12502239
0.12116877
0.11739566
0.11397542
0.11149857
0.11254306
0.119219
0.1122394
0.1110563
0.11364289
0.11723748
0.1212227
0.12534045
0.12963071
0.13418012
0.13884862
0.14328782
0.14520808
0.14071889
0.13605944
0.13164005
0.12732828
0.12325249
0.11926694
0.11565712
0.11299553
0.11394431
0.120098
0.11315734
0.11215928
0.11489056
0.11864407
0.12278904
0.12704075
0.13154329
0.13636758
0.14130243
0.14589
0.14561934
0.1410915
0.13638741
0.13181557
0.12732969
0.123072
0.1189306
0.11514122
0.11225796
0.11280241
0.11733229
0.11016757
0.10977027
0.11277128
0.11674376
0.12108101
0.12557903
0.1303908
0.13548617
0.14062985
0.14561052
0.14426023
0.13933324
0.13429656
0.12939828
0.12462399
0.12006912
0.11570542
0.11166361
0.1084513
0.10841909
0.1110682
0.10360275
0.10371221
0.10693213
0.11102457
0.11548363
0.12014565
0.12515943
0.13040101
0.13567353
0.14084214
0.12889615
0.13372899
0.12421257
0.1192571
0.11439006
0.1242648
0.11960834
0.1150664
0.1106214
0.10637547
0.1022788
0.098463044
0.095352181
0.094704526
0.092143383
0.082604957
0.083390307
0.087615824
0.091604788
0.095858138
0.10047796
0.10501339
0.10965857
0.095077774
0.099812507
0.10441501
0.10899602
0.091754417
0.087794566
0.084015947
0.080254843
0.0766245
0.091129931
0.087288494
0.083548663
0.079882841
0.076087237
0.0715661
0.05930427
0.062757261
0.066359291
0.069772177
0.073179002
0.069466767
0.066345085
0.063445086
0.061188128
0.058163447
0.055052324
0.052249204
0.048045303
0.050265928
0.048859212
0.047332752
0.046136905
0.045909728
0.14641199
0.14375697
0.14172297
0.14207477
0.14624998
0.14645803
0.14402303
0.14379387
0.14307785
0.14343554
0.14955928
0.15013349
0.15298832
0.1533509
0.15573607
0.15601023
0.15788019
0.15820859
0.16106024
0.16129082
0.1615142
0.16165345
0.1633648
0.1636834
0.16588179
0.16632012
0.16992998
0.17062383
0.17473092
0.17518779
0.17620831
0.17671029
0.18038081
0.17975056
0.16026038
0.15390411
0.14711932
0.14038892
0.13612335
0.12502178
0.11847675
0.12036506
0.1303756
0.13233235
0.12867787
0.14724221
0.15469223
0.17198367
0.17303813
0.17049717
0.16976114
0.16918364
0.16843039
0.16505944
0.16395152
0.16097948
0.16026614
0.15846052
0.15792068
0.156402
0.15615327
0.15586073
0.15541254
0.15283999
0.15231902
0.15082336
0.15035624
0.14825885
0.1476777
0.14515023
0.14418528
0.13901542
0.13841942
0.13894426
0.1392118
0.14077268
0.13975034
0.13733184
0.13483263
0.13949492
0.14210245
0.13962279
0.13702419
0.13304492
0.13139675
0.1333359
0.13735895
0.13620723
0.13172305
0.13162843
0.1360523
0.13573555
0.13161683
0.13241389
0.13650976
0.14081346
0.13619836
0.13752895
0.14208587
0.14441042
0.13980291
0.14044839
0.14512488
0.14696765
0.14223732
0.14290713
0.14761624
0.1488008
0.14402126
0.1446235
0.14947613
0.15184402
0.14694723
0.14759208
0.15248793
0.15290084
0.14821992
0.148454
0.1532299
0.15464335
0.14991527
0.15070971
0.15540627
0.15691501
0.15210821
0.15289362
0.15778622
0.16027762
0.15517708
0.15658666
0.16167649
0.16441584
0.1590079
0.15977525
0.16530988
0.16555741
0.15998775
0.1605131
0.16633469
0.1673645
0.16125937
0.17892327
0.18029622
0.17949646
0.18016231
0.17924499
0.1773719
0.17547107
0.17340071
0.17239481
0.17108314
0.1697746
0.16806831
0.16761312
0.16673435
0.16571901
0.16338723
0.16268938
0.16191373
0.16094749
0.15929799
0.15862869
0.15643099
0.15494752
0.15216842
0.1514572
0.15127231
0.15099063
0.15162386
0.15191079
0.1506223
0.15419946
0.15962112
0.16237836
0.16435955
0.15350747
0.15389438
0.16010577
0.16656833
0.16451064
0.16426872
0.16183657
0.16118866
0.15824429
0.15693294
0.15291427
0.1510839
0.1487209
0.14663421
0.14289511
0.1405992
0.14329009
0.14574017
0.1476162
0.15129468
0.15280551
0.15541548
0.15623731
0.15818438
0.15857944
0.15304651
0.15278987
0.16289441
0.1519931
0.15254906
0.15090458
0.15092871
0.16108588
0.14983786
0.14996878
0.14747226
0.14755813
0.15780083
0.14582085
0.14585614
0.14242908
0.14305451
0.15413705
0.14095077
0.14035211
0.13775876
0.13891674
0.15250719
0.13891011
0.13610135
0.14207172
0.16018067
0.15769846
0.15895556
0.16333703
0.16845732
0.17375399
0.17907658
0.18455197
0.19009578
0.19570225
0.20138272
0.20729956
0.21327278
0.21939948
0.22564292
0.23202899
0.23844546
0.24514083
0.25184328
0.25873072
0.26545847
0.27200375
0.27811037
0.28616684
0.29401444
0.2988046
0.3072919
0.31606552
0.32494811
0.33398902
0.3426867
0.34835905
0.35941015
0.37258584
0.38626379
0.39961004
0.41303413
0.42677579
0.44058931
0.45458894
0.4689877
0.48342868
0.49763248
0.51160394
0.52541154
0.53904012
0.5525215
0.56609861
0.58190424
0.59640499
0.60982422
0.62215115
0.63299262
0.6442315
0.66086474
0.66687949
0.66861222
0.66477164
0.66681572
0.65534788
0.61945721
0.59596976
0.56084551
0.56442183
0.53346067
0.50539138
0.5140228
0.46498893
0.4237117
0.44717668
0.46302731
0.40156612
0.37039247
0.35604785
0.34790956
0.3451011
0.34379013
0.34606653
0.34873421
0.35183412
0.36314516
0.38744623
0.42831515
0.4466921
0.44446377
0.42625563
0.41802097
0.43731087
0.4472472
0.46032773
0.4804836
0.49379319
0.50786218
0.49965953
0.50943924
0.56022305
0.58300451
0.62708204
0.64826457
0.65105721
0.66178449
0.66481435
0.66063501
0.64569811
0.63571291
0.62484825
0.61305367
0.60010006
0.58625554
0.57244939
0.55839609
0.55598743
0.54303828
0.53012928
0.51679998
0.50316679
0.48925785
0.47504067
0.46079369
0.44677166
0.43288542
0.41918105
0.4057626
0.39251619
0.37963914
0.3666469
0.35364984
0.34126844
0.33017842
0.31980474
0.30990099
0.29960979
0.29179692
0.28355205
0.27630978
0.26906324
0.26195213
0.25487892
0.24807233
0.24134363
0.23481813
0.22842921
0.22224665
0.21615607
0.21020984
0.20425747
0.1985105
0.19285943
0.18735068
0.18191652
0.17663906
0.17140501
0.1664111
0.16225003
0.16122305
0.16690744
0.16222344
0.16288863
0.16692804
0.17193121
0.17726695
0.18263242
0.18814921
0.19374591
0.19944186
0.20521501
0.21123701
0.21726486
0.22350261
0.22985484
0.23638422
0.24304479
0.24997745
0.25705972
0.26439023
0.27192223
0.27975386
0.28777068
0.29633432
0.30514531
0.31508146
0.32544853
0.33630979
0.34770484
0.35977764
0.37206151
0.38462125
0.39739827
0.41060442
0.42409443
0.43782889
0.45167661
0.46578282
0.47999111
0.49411173
0.50803861
0.52171492
0.5350628
0.54818629
0.56169872
0.57743957
0.59079004
0.60381181
0.6162342
0.62780539
0.63876458
0.65451909
0.65992061
0.661711
0.65485573
0.63657924
0.63221251
0.60204682
0.55711724
0.54203946
0.53436203
0.54122191
0.55814901
0.52865714
0.51954347
0.54547405
0.58507494
0.59457581
0.58898694
0.59070651
0.628313
0.6453929
0.64712405
0.64954766
0.65955139
0.6609157
0.65641939
0.64212845
0.63140452
0.62008609
0.60832496
0.59558559
0.58180269
0.56674371
0.55329329
0.54000218
0.52672851
0.51320244
0.49935011
0.48537086
0.47128912
0.45715062
0.44332034
0.42968005
0.41610666
0.40292897
0.39009508
0.37762496
0.36558053
0.35375506
0.34247674
0.3315515
0.32113992
0.31116892
0.30196062
0.29306199
0.2846464
0.27647051
0.26874565
0.26131457
0.25410516
0.24702785
0.24018188
0.23350108
0.22697815
0.22056108
0.21452604
0.20844996
0.20258769
0.19680942
0.19111533
0.18554996
0.18012021
0.17472421
0.16968839
0.16559268
0.16470507
0.17009037
0.16524042
0.16604048
0.17022603
0.17536909
0.18088819
0.18645507
0.19214437
0.19796216
0.20382448
0.20976577
0.2160092
0.22234366
0.22885589
0.23547415
0.24233908
0.24939981
0.256678
0.26400826
0.27165815
0.27959604
0.28792626
0.29652704
0.30568832
0.31517808
0.32522092
0.33570087
0.34665522
0.35798418
0.36980799
0.38196854
0.39450047
0.40725621
0.42052763
0.43425982
0.44783805
0.46170865
0.4757312
0.48966359
0.50354151
0.51716904
0.53030187
0.54315051
0.5563927
0.57272872
0.58625012
0.59983814
0.612479
0.62393161
0.6355168
0.64534688
0.66014136
0.66444141
0.66121936
0.64835428
0.64504402
0.62145421
0.58419947
0.61578812
0.61931289
0.6199575
0.58424289
0.54830361
0.5341353
0.49072094
0.50590536
0.52620322
0.56981453
0.54588226
0.50643022
0.52552614
0.53913753
0.55590397
0.53395613
0.52892468
0.51784877
0.48783056
0.52210932
0.52906371
0.56072113
0.56126679
0.61349102
0.61098622
0.64306469
0.64960151
0.64500514
0.66037952
0.66471709
0.66206075
0.65524385
0.64033455
0.63827594
0.62676709
0.61568206
0.60330329
0.59013144
0.57612191
0.56090547
0.54777053
0.53472968
0.5216412
0.5081787
0.49449576
0.48072506
0.46688135
0.45307135
0.43955081
0.42601243
0.41269357
0.39982803
0.38724966
0.37514062
0.36326006
0.3519368
0.34089368
0.33029565
0.32008179
0.31052198
0.30122005
0.2923933
0.28387087
0.2758232
0.26790672
0.2603927
0.25292509
0.24580678
0.23887602
0.23208105
0.22545729
0.21902903
0.21270135
0.2066708
0.20065617
0.19482214
0.18913641
0.18351559
0.17798748
0.17284249
0.1685702
0.16754292
0.17288144
0.16817453
0.16917073
0.17351898
0.17881428
0.1844635
0.19019209
0.19606374
0.20199591
0.20808528
0.21420996
0.22063145
0.2271872
0.23384277
0.24063506
0.24771028
0.25502583
0.26268537
0.27046488
0.27859573
0.28696281
0.2957082
0.30464711
0.31410487
0.32383042
0.33414975
0.34481849
0.35596025
0.36739382
0.37939472
0.39163704
0.40431065
0.41717617
0.43045542
0.44399243
0.45750507
0.47118834
0.48482328
0.4983922
0.51173709
0.52472981
0.53741819
0.55051883
0.56635057
0.57942042
0.59330748
0.60616175
0.61836159
0.62971142
0.64017629
0.65498322
0.66121915
0.66114909
0.65445692
0.65598713
0.65131855
0.62333719
0.58414052
0.59780606
0.61353202
0.62026331
0.63037436
0.63722903
0.64147712
0.64514907
0.66895839
0.67362295
0.67174731
0.6608948
0.6646079
0.63973376
0.60231475
0.61187123
0.56160529
0.55790097
0.53062417
0.4766388
0.43244944
0.40990292
0.37820756
0.35985323
0.34981525
0.24994979
0.25950249
0.26564888
0.27155404
0.2748478
0.2771872
0.27692604
0.27936844
0.28755198
0.28837129
0.28857184
0.2879274
0.28633053
0.28394089
0.28026684
0.27760813
0.27959027
0.28680842
0.28721867
0.28698225
0.286514
0.28570972
0.28321131
0.28436125
0.29118737
0.2904511
0.289207
0.28703007
0.28381597
0.28111321
0.28278144
0.28946075
0.2891553
0.28743105
0.28319789
0.28303055
0.2879658
0.28532377
0.28081567
0.28144946
0.28712193
0.28409066
0.27895571
0.27805717
0.28229962
0.27813798
0.27157311
0.2700339
0.27348953
0.27306117
0.27738119
0.27324797
0.27320606
0.27809251
0.28031352
0.28745252
0.29626068
0.3036119
0.31154697
0.31875945
0.32642332
0.33395985
0.34188776
0.34829694
0.35597368
0.36634513
0.37980095
0.39396099
0.40779253
0.42157966
0.43542375
0.4495367
0.46397801
0.47848918
0.49288789
0.50708267
0.52109141
0.53472661
0.54807272
0.56187903
0.57868305
0.59257159
0.60685056
0.62004736
0.63188602
0.64356713
0.65351865
0.65409776
0.67020592
0.67620638
0.67608839
0.66780906
0.66904792
0.65444248
0.6174578
0.61764477
0.58430644
0.54083817
0.49428102
0.44119737
0.41979643
0.38845251
0.36532589
0.35348827
0.34908006
0.27588142
0.27991601
0.29621402
0.2994893
0.30923748
0.3110862
0.31579622
0.31651759
0.31819828
0.31841061
0.31908096
0.31866631
0.31675268
0.31401896
0.31350583
0.31810596
0.32585082
0.32647926
0.3269485
0.32668095
0.3253271
0.32507965
0.32499828
0.32440732
0.32202677
0.32118827
0.31937556
0.31674571
0.31632144
0.32086529
0.32850181
0.32882373
0.32797026
0.32742768
0.32595968
0.322912
0.32152035
0.32501369
0.33177775
0.33134139
0.32758755
0.32594143
0.32136622
0.31744126
0.31534072
0.31790717
0.3246179
0.32314029
0.31659872
0.31210229
0.30993509
0.31276088
0.31909976
0.32309288
0.32956737
0.33394712
0.34033261
0.34557173
0.35139776
0.35497473
0.36457442
0.37417172
0.38326721
0.39348388
0.40568522
0.42001304
0.43427015
0.44878465
0.4634787
0.47822904
0.49296913
0.50763615
0.52209078
0.5361923
0.5501178
0.56409986
0.57817535
0.5946549
0.60960556
0.62343177
0.63598302
0.64760971
0.65805102
0.67427519
0.67912682
0.67699614
0.66835847
0.66834123
0.64856201
0.6116703
0.61206402
0.57167508
0.54284656
0.4912959
0.44112942
0.41153901
0.42766798
0.45017968
0.44880313
0.5175705
0.54130799
0.5673697
0.60682645
0.59215268
0.55925127
0.51109844
0.5354539
0.55275863
0.57281963
0.5437806
0.54329768
0.52497461
0.50843383
0.52477424
0.59664099
0.63637082
0.66253463
0.65972708
0.67557884
0.6798828
0.67657005
0.67006528
0.65363638
0.65217464
0.63987564
0.62743595
0.61404139
0.59942
0.58527995
0.57049048
0.56800798
0.55418181
0.54075604
0.52707158
0.51300338
0.49854024
0.48397854
0.46932876
0.45474168
0.44027503
0.4260589
0.41169012
0.39731907
0.38633704
0.3846772
0.37568605
0.36706672
0.35747944
0.34858968
0.34040558
0.33243218
0.3255832
0.3185256
0.31245988
0.30628665
0.30178517
0.29533743
0.30185373
0.30665171
0.3118255
0.31388998
0.30736562
0.30009147
0.30717332
0.31138017
0.31536364
0.31754813
0.32036586
0.32122823
0.31388804
0.30610826
0.3124649
0.31548896
0.31692747
0.31756498
0.31791416
0.31767428
0.30961836
0.30160685
0.30645373
0.308759
0.3103846
0.31154715
0.31353018
0.31440011
0.3145887
0.31493602
0.31595678
0.31615578
0.31543024
0.31486839
0.30653754
0.29827357
0.30353233
0.30602372
0.30778179
0.30837712
0.30794417
0.30763
0.30632289
0.30528683
0.30143719
0.29867712
0.29057155
0.28568766
0.27228142
0.26618362
0.27037357
0.27396116
0.27733549
0.28052484
0.283542
0.28639927
0.28911111
0.29169134
0.29415278
0.29650947
0.29877488
0.30096134
0.30307815
0.30513229
0.3071294
0.30907473
0.31097533
0.31284195
0.31469049
0.31654131
0.31650168
0.31464136
0.31278311
0.31090695
0.30899673
0.30704137
0.30503354
0.30296723
0.30083604
0.29863248
0.29634669
0.29396626
0.2914778
0.28886824
0.28613037
0.28324529
0.28019709
0.27697653
0.27356725
0.26994627
0.26856714
0.26880881
0.26905452
0.26939497
0.27308246
0.27277542
0.27251948
0.2723006
0.2720024
0.27173986
0.27152077
0.2713559
0.27121913
0.27106149
0.2709313
0.27077433
0.27060153
0.27052964
0.270696
0.27423986
0.27410798
0.27418648
0.27435265
0.27448162
0.27460492
0.27476425
0.27490947
0.27505969
0.27528485
0.27553394
0.27580129
0.27602222
0.27627284
0.27654763
0.27981226
0.27957576
0.27932814
0.27910258
0.27884889
0.27861723
0.27838911
0.27825376
0.27810341
0.27794844
0.27782932
0.27770288
0.27755745
0.27748855
0.2775942
0.28075649
0.28066559
0.28073488
0.28085614
0.28098653
0.28109998
0.28125341
0.28138993
0.28152613
0.28174395
0.281978
0.28221546
0.28244893
0.28268631
0.28291932
0.28584088
0.28562329
0.28539279
0.2851531
0.28491856
0.28468693
0.28448345
0.28433938
0.28421272
0.28407173
0.28396701
0.28383738
0.28373459
0.28366514
0.28374077
0.28655294
0.28649605
0.28656431
0.28666172
0.28678344
0.28688024
0.28700273
0.28712559
0.28727729
0.28746732
0.28769481
0.28793469
0.28817708
0.28840797
0.28861378
0.29124804
0.2910506
0.2908165
0.29057326
0.29032707
0.29010619
0.28991806
0.28977028
0.28965107
0.28953938
0.28945127
0.28933581
0.28924617
0.28917966
0.28922739
0.29176703
0.29173756
0.29179553
0.29187661
0.29198025
0.2920643
0.29216947
0.29228409
0.29243221
0.29261665
0.29283531
0.29307932
0.29332581
0.29355947
0.29375856
0.29615426
0.29595659
0.29572218
0.29547441
0.29523089
0.29501642
0.29483345
0.29468477
0.29457176
0.2944748
0.29439292
0.29430103
0.29422631
0.29417513
0.29419526
0.2965256
0.2965147
0.29656065
0.29662798
0.29670897
0.29678558
0.29687893
0.29699153
0.2971373
0.29731853
0.29753171
0.29777239
0.29802257
0.29825615
0.29845494
0.30066898
0.30047022
0.30023632
0.29998724
0.29975022
0.29953938
0.29936216
0.29921857
0.29910786
0.29901618
0.2989447
0.29887412
0.29881565
0.29877486
0.29877948
0.30096648
0.30096685
0.30100361
0.30105467
0.30111781
0.30118429
0.30127241
0.30138083
0.30152063
0.30169309
0.30189952
0.30213225
0.30237846
0.30261189
0.30281077
0.30488456
0.30469001
0.30446088
0.30421972
0.30399337
0.30379289
0.30362631
0.30349086
0.30338671
0.30330395
0.30324086
0.30318394
0.30313803
0.30310668
0.3031034
0.30520148
0.30520671
0.30523454
0.30527556
0.3053265
0.30538608
0.30546295
0.30556145
0.30569058
0.30585042
0.30604128
0.30625904
0.30649077
0.306713
0.30690138
0.30886605
0.30868727
0.30847651
0.30825813
0.30805305
0.30787419
0.30772479
0.30760487
0.30751354
0.30744269
0.30738722
0.30734218
0.30730592
0.30728086
0.30727495
0.30933341
0.30934028
0.30936251
0.30939374
0.30943389
0.30948432
0.30954883
0.30963164
0.3097401
0.30987608
0.31003957
0.3102275
0.31042806
0.31062234
0.31078755
0.3126772
0.31252981
0.31235671
0.31217834
0.31201164
0.31186701
0.3117466
0.31165082
0.31157727
0.31152047
0.31147577
0.31144023
0.31141315
0.31139396
0.31138704
0.31344333
0.31345007
0.3134664
0.3134899
0.31352072
0.31355917
0.31360815
0.31367155
0.31375364
0.3138567
0.31398076
0.31412335
0.31427616
0.31442456
0.31455119
0.31642801
0.31632384
0.31620172
0.31607596
0.31595839
0.31585573
0.31577041
0.31570223
0.3156494
0.31560825
0.31557591
0.31554964
0.31552953
0.31551568
0.31550955
0.17067119
0.17471739
0.18013831
0.18449349
0.19029896
0.19502958
0.20120239
0.20630796
0.21288509
0.21838364
0.22534285
0.23124028
0.23862802
0.24494797
0.25274926
0.25950225
0.26779999
0.27504997
0.28378038
0.29149184
0.30060374
0.30869271
0.3182344
0.32678616
0.33683943
0.34591748
0.35640932
0.36597045
0.3768323
0.38676996
0.39803653
0.40843567
0.42017986
0.43109193
0.44322649
0.4545779
0.46702366
0.47871169
0.49146388
0.50354044
0.51664906
0.52907823
0.54246562
0.55537576
0.56920306
0.58251074
0.59661884
0.61045164
0.6251592
0.63960909
0.65487783
0.67021893
0.68656163
0.70310094
0.72065919
0.73889442
0.75842903
0.77889936
0.80067093
0.82405196
0.84899785
0.87605053
0.90432591
0.93528185
0.9676032
1.0035812
1.040166
1.0813254
1.1227507
1.1685782
1.2136599
1.2609893
1.3050005
1.3427535
1.3670804
1.36346
1.3324485
1.2376047
1.1181624
0.96691709
0.73700412
0.82181883
0.94047988
1.034017
1.0553871
1.1061834
1.1158653
1.1442705
1.1205827
1.1279543
1.0890426
1.0841924
1.0429647
1.0305431
0.99185988
0.97508693
0.94063053
0.92174787
0.89168443
0.87255308
0.84603601
0.82719689
0.80408275
0.7863111
0.76595922
0.74912763
0.73099978
0.71521528
0.69883524
0.68378597
0.66877781
0.65442875
0.64052168
0.6265464
0.61353645
0.59991991
0.5876932
0.57420746
0.56267105
0.54937492
0.5385467
0.52531464
0.51509731
0.50193328
0.49231707
0.47920415
0.47012954
0.45705807
0.44860951
0.43563459
0.42783108
0.41504328
0.40783055
0.39518094
0.38845242
0.3759466
0.36980557
0.357502
0.35194416
0.33993261
0.3348952
0.32312344
0.31850056
0.30696006
0.30284003
0.29157867
0.28795744
0.27705093
0.27386152
0.26326189
0.26045384
0.25019195
0.24776608
0.23781535
0.23573201
0.22612235
0.22438071
0.21508817
0.21364989
0.20468508
0.20348537
0.22714305
0.23760842
0.24866524
0.26028159
0.27255667
0.28543057
0.29896861
0.31313114
0.32796416
0.34341256
0.35948249
0.37618754
0.39351
0.41142403
0.42990502
0.44896417
0.46855897
0.48872265
0.50937636
0.53063029
0.55242345
0.57493965
0.59814341
0.62228986
0.64742061
0.67387548
0.70171405
0.73118554
0.76207476
0.79419513
0.82671825
0.85803416
0.88573312
0.90564956
0.91351348
0.90497814
0.87894356
0.83419298
0.77601137
0.64820159
0.51485788
0.42052163
0.37976365
0.36107748
0.35022739
0.34633968
0.34937134
0.35379025
0.3653617
0.38537653
0.42872066
0.49252508
0.56326874
0.61237599
0.63685404
0.65001729
0.65582046
0.6586031
0.65551698
0.65123384
0.64091073
0.63151947
0.61697019
0.60472088
0.58847924
0.57492595
0.55838306
0.54444815
0.52815055
0.51419944
0.49832083
0.48442799
0.46906774
0.45547571
0.44079347
0.42753414
0.41350914
0.40062091
0.38736151
0.37499099
0.36242712
0.35060943
0.33887664
0.32758453
0.31661989
0.30599052
0.29586204
0.28580797
0.27646373
0.26705269
0.25847325
0.29172284
0.30372314
0.31611248
0.32875993
0.34155688
0.35431658
0.36695762
0.3794105
0.39140076
0.40263094
0.41279089
0.42150833
0.42833573
0.43276122
0.4344423
0.43298162
0.42742642
0.41569294
0.39449456
0.37119487
0.35342419
0.34318943
0.34174723
0.34520104
0.34931016
0.35682936
0.37457741
0.40629152
0.39320806
0.36457632
0.35020726
0.34923181
0.34620385
0.34471968
0.34266882
0.34175724
0.34451723
0.34657842
0.34870608
0.35202734
0.355169
0.35981932
0.38032833
0.41301149
0.43826894
0.47771798
0.52640497
0.50644532
0.55948433
0.56685564
0.61069917
0.63881578
0.64106403
0.65407884
0.6569873
0.65323767
0.64746554
0.63416031
0.63159387
0.61977934
0.60812581
0.59623466
0.58318617
0.56942537
0.55469768
0.54166202
0.5288545
0.51599855
0.50295876
0.48967703
0.4763384
0.46285719
0.44947413
0.43610468
0.42287711
0.40993727
0.39726814
0.38501584
0.37300311
0.36151575
0.3502764
0.33944678
0.32896553
0.31899954
0.30933828
0.30021656
0.29134464
0.28292358
0.27478756
0.26684081
0.25905396
0.25165216
0.2444768
0.23764427
0.23091713
0.22437997
0.21796832
0.21178757
0.20571745
0.19976331
0.19379655
0.18795808
0.18222116
0.1767595
0.1722653
0.17089453
0.17628934
0.16987164
0.17281081
0.17802268
0.18397093
0.18989366
0.19586165
0.20196882
0.20792386
0.21399249
0.22021357
0.22676095
0.23350045
0.24032417
0.24713371
0.25443837
0.26197439
0.26991802
0.27797233
0.2863029
0.29504425
0.30404619
0.31333515
0.32311377
0.3331485
0.34373837
0.35468431
0.36607849
0.37772527
0.38985795
0.40229457
0.41502518
0.42802328
0.44128407
0.45464816
0.46795337
0.4810964
0.49416778
0.50701518
0.51951118
0.53170195
0.54405276
0.55966995
0.57288212
0.58632111
0.59880653
0.6099097
0.62091242
0.632203
0.64665618
0.65167345
0.6528453
0.64906926
0.64833042
0.63477572
0.60216139
0.61062616
0.57461216
0.54195015
0.51725922
0.4775473
0.4345503
0.42871154
0.41656047
0.40972594
0.42841008
0.43777632
0.44907068
0.463524
0.51027303
0.53819538
0.55164746
0.59323168
0.5894927