/*--------------------------------*- C++ -*----------------------------------*\
| =========                 |                                                 |
| \\      /  F ield         | OpenFOAM: The Open Source CFD Toolbox           |
|  \\    /   O peration     | Version:  v2012                                 |
|   \\  /    A nd           | Website:  www.openfoam.com                      |
|    \\/     M anipulation  |                                                 |
\*---------------------------------------------------------------------------*/
FoamFile
{
    version     2.0;
    format      ascii;
    class       volScalarField;
    location    "100";
    object      nut;
}
// * * * * * * * * * * * * * * * * * * * * * * * * * * * * * * * * * * * * * //

dimensions      [0 2 -1 0 0 0 0];


internalField   nonuniform List<scalar> 
33005
(
0.030373535
0.030698814
0.030984427
0.031235597
0.031455077
0.031645516
0.031810352
0.031952414
0.032074024
0.032177615
0.032265803
0.032340901
0.032404957
0.032459695
0.032506534
0.032546752
0.03258147
0.032611796
0.032639087
0.03266474
0.032609709
0.032572677
0.032534289
0.03249391
0.032450732
0.032403756
0.032351765
0.032293279
0.032226591
0.032149746
0.032060658
0.031956941
0.031835822
0.03169477
0.031530907
0.031341032
0.031122416
0.030872181
0.030587183
0.030503638
0.030487616
0.030515062
0.030555841
0.030589794
0.030601914
0.030993879
0.030997574
0.030994178
0.030984767
0.030976453
0.030969865
0.030960042
0.030957967
0.030950958
0.030941173
0.030934621
0.030924719
0.030913861
0.030903621
0.0308976
0.030893679
0.030895453
0.030892082
0.030878972
0.030848507
0.030812771
0.030788418
0.030802247
0.031063468
0.031052005
0.031074334
0.031104519
0.031131139
0.031145177
0.031151149
0.031150421
0.031155149
0.031160294
0.031171579
0.031180805
0.031191724
0.031198075
0.031207494
0.031213371
0.031216095
0.031224971
0.031232101
0.031238787
0.031247391
0.031253529
0.031251469
0.031472945
0.031472937
0.03146619
0.031458621
0.03145152
0.031444816
0.031437055
0.031433537
0.031427519
0.031418591
0.031412612
0.031401714
0.031393091
0.031381895
0.031376511
0.031371144
0.031370846
0.031364393
0.031351065
0.031328859
0.031303529
0.031283847
0.031293895
0.031492113
0.031485063
0.031501563
0.03152383
0.0315417
0.031554132
0.031560503
0.031561692
0.031567555
0.031573344
0.031584223
0.031592577
0.031602992
0.031608747
0.031617132
0.031623507
0.031627859
0.031634696
0.03164037
0.03164867
0.031655629
0.031661778
0.0316639
0.031667365
0.031673057
0.03183575
0.031831133
0.031826721
0.031823494
0.031817999
0.031811023
0.031803029
0.031797857
0.031791874
0.031786868
0.031780375
0.031772975
0.03176695
0.031757444
0.031748881
0.031738787
0.031732215
0.031726405
0.031724016
0.031717636
0.031706576
0.031691316
0.031672263
0.03165861
0.031663674
0.031810907
0.031808035
0.031819637
0.031835197
0.031848045
0.031858116
0.031864154
0.031867802
0.031873689
0.031880801
0.031890302
0.031898925
0.031907783
0.031913977
0.031920672
0.031926914
0.031932415
0.031937742
0.031942922
0.031949915
0.031956989
0.031961737
0.031965521
0.031970144
0.0319742
0.03209235
0.032088167
0.032083854
0.032079682
0.032075219
0.032068431
0.032061929
0.032057179
0.032052049
0.032046627
0.032040522
0.032034024
0.032027905
0.032019267
0.032010882
0.032001626
0.031994398
0.031988179
0.031983937
0.031978121
0.031969124
0.03195824
0.031945172
0.031935554
0.031937492
0.032045258
0.032044409
0.032052274
0.032063487
0.032072891
0.03208058
0.032086149
0.032090838
0.032097169
0.032104534
0.032113495
0.032121748
0.032130185
0.032136372
0.032142718
0.032148901
0.032154039
0.0321592
0.032163496
0.032169744
0.032176047
0.032180371
0.032184906
0.032188856
0.032193561
0.032279656
0.032275019
0.032271226
0.032266876
0.03226252
0.032256598
0.03225075
0.032246627
0.032241547
0.032236452
0.032230322
0.032224089
0.032217594
0.032209467
0.032201148
0.032192643
0.032185162
0.032178843
0.03217379
0.03216822
0.032161634
0.032153492
0.03214419
0.032137699
0.032138102
0.032217859
0.032217914
0.032223352
0.032230849
0.032237928
0.032243653
0.032249013
0.032254447
0.032260805
0.032268196
0.032276316
0.032284637
0.03229257
0.03229935
0.032305627
0.032311657
0.032316855
0.032321827
0.032325993
0.032331424
0.032336933
0.032341374
0.032345539
0.032349259
0.032353966
0.032413868
0.032409952
0.03240574
0.032401358
0.03239613
0.032391006
0.032386707
0.032381759
0.032376401
0.032370389
0.032363936
0.032357022
0.032349158
0.032340974
0.032333077
0.032325793
0.032319511
0.032313992
0.032308896
0.032303802
0.032297753
0.03229178
0.032287436
0.032287108
0.032347418
0.032348033
0.032351544
0.032356284
0.032361379
0.032365928
0.03237076
0.032376218
0.032382297
0.032389426
0.032397029
0.032405054
0.032412781
0.032419775
0.032426447
0.032432453
0.032438025
0.032443008
0.032447501
0.032452465
0.03245751
0.032461887
0.032466139
0.032470466
0.032520095
0.032515649
0.032511262
0.032506822
0.032501894
0.032496924
0.032492196
0.03248706
0.032481362
0.032475304
0.032468627
0.032461586
0.032454043
0.032446319
0.032439027
0.032432203
0.032426365
0.032421135
0.032416565
0.032412515
0.032408276
0.032404471
0.032401598
0.032400859
0.032448833
0.0324497
0.032452043
0.032455129
0.032458652
0.032462265
0.032466487
0.032471416
0.032476939
0.032483331
0.032490248
0.032497556
0.0325048
0.032511794
0.032518391
0.032524463
0.03253023
0.032535542
0.032540498
0.032545566
0.032550458
0.032555044
0.032559639
0.032564213
0.032603696
0.032598955
0.032594186
0.032589423
0.03258445
0.032579311
0.032574175
0.032568741
0.032562984
0.032556918
0.032550447
0.032543692
0.032536819
0.032530008
0.032523565
0.032517685
0.032512565
0.032508028
0.032504226
0.032501006
0.032498073
0.032495548
0.032493605
0.032492764
0.032533639
0.032534452
0.032536074
0.032538139
0.032540564
0.032543412
0.032546786
0.032550849
0.032555488
0.032560793
0.032566683
0.03257292
0.03257932
0.03258572
0.032591939
0.032597919
0.032603596
0.032609071
0.032614316
0.032619511
0.03262459
0.032629522
0.032634455
0.032639399
0.032672037
0.032666927
0.032661865
0.032656799
0.032651645
0.032646433
0.032641177
0.032635757
0.032630197
0.032624458
0.032618586
0.032612646
0.032606802
0.032601188
0.032595943
0.032591242
0.032587123
0.03258356
0.032580606
0.032578158
0.032576159
0.032574481
0.032573132
0.032572386
0.03260965
0.032610339
0.03261146
0.032612816
0.032614458
0.03261651
0.032619046
0.032622106
0.032625681
0.03262976
0.03263433
0.032639283
0.032644523
0.032649909
0.03265534
0.032660723
0.0018247901
0.0019354595
0.0017799552
0.0018866379
0.0016347376
0.0017261308
0.0015741863
0.0012269964
0.0011277128
0.0010616352
0.0011380477
0.0015086521
0.0014488612
0.001441001
0.0014055205
0.0014135637
0.0014194693
0.0045084968
0.0045873593
0.0045927323
0.0045922501
0.0046220406
0.0047984064
0.004857207
0.004968482
0.0049928995
0.0050692796
0.0050882868
0.005131401
0.0051496157
0.005248282
0.0052651123
0.005276797
0.005269302
0.0053040298
0.0053163612
0.0053382834
0.0053330682
0.0053400695
0.0053381387
0.0053136577
0.0052504927
0.0050640987
0.0049557944
0.004720678
0.0046502952
0.0047167599
0.0039076851
0.0035292679
0.0029113514
0.0023616208
0.0021269927
0.0020073753
0.0021856071
0.0027735695
0.0033608838
0.0037733059
0.0044681423
0.0043434277
0.0045877335
0.004822201
0.0049339811
0.0051196611
0.0051846153
0.0052081093
0.0052080697
0.0052087706
0.0052152576
0.0051963461
0.0051766665
0.0051470447
0.0051506591
0.0051338256
0.0051127231
0.0050210787
0.0050004843
0.0049650095
0.0049437442
0.0048749405
0.0048500076
0.0047471881
0.0046869661
0.0045338238
0.0045028266
0.0044923132
0.0044377108
0.00438114
0.0042906858
0.0041685347
0.0040424394
0.0039731256
0.0041189869
0.004260599
0.0043862675
0.0043895908
0.0042644735
0.004127817
0.0039942506
0.0039824673
0.0041344023
0.0042837646
0.0044213539
0.0045530086
0.0044030157
0.0042460305
0.0040967401
0.0039515182
0.003818278
0.00369
0.0035757719
0.0035718296
0.0036912793
0.0038281394
0.0039710402
0.0041247194
0.0042914731
0.0044583867
0.0046153359
0.0047088121
0.0045560482
0.0043933409
0.0042360138
0.0040833087
0.0039400934
0.0038028063
0.0036829721
0.0036494878
0.0037771019
0.0039214051
0.0040704316
0.0042299971
0.0044043321
0.0045752228
0.0047358123
0.0047972702
0.0046345992
0.0044666423
0.0043070598
0.0041525411
0.0040053472
0.0038632688
0.0037393552
0.0036588677
0.0037452135
0.0040833607
0.0036988329
0.0036075573
0.0036903031
0.0038201088
0.0039681488
0.0041215924
0.0042868738
0.0044658238
0.0046474307
0.0048194456
0.004847639
0.0046840908
0.0045116286
0.0043474664
0.004188108
0.0040407858
0.003898455
0.0037729283
0.0036922137
0.0037842838
0.0041380643
0.0037526681
0.0036535185
0.0037341932
0.003864916
0.0040135911
0.0041659921
0.0043314171
0.0045128261
0.004695348
0.004870528
0.004956603
0.0047879145
0.0046113607
0.0044440762
0.004282052
0.0041316843
0.0039869397
0.0038576391
0.0037735914
0.0038582872
0.0042231244
0.0038489475
0.0037557659
0.0038374544
0.0039687028
0.0041167184
0.0042700211
0.0044364773
0.0046195566
0.0048042617
0.0049808593
0.0050023397
0.0048396357
0.00466725
0.0045012262
0.0043390585
0.0041887533
0.0040438962
0.0039144246
0.0038301452
0.0039190807
0.0042698402
0.0038814475
0.0037893778
0.0038722918
0.0040030179
0.0041532979
0.0043093557
0.0044790215
0.0046568977
0.0048345968
0.0050027399
0.0050273781
0.0048617424
0.0046877664
0.0045249854
0.0043666708
0.0042185771
0.0040757241
0.0039485526
0.0038656718
0.0039570557
0.0043194101
0.0039301754
0.0038310085
0.0039146509
0.0040464243
0.0041972592
0.0043539325
0.0045208012
0.0047009543
0.0048871227
0.005055425
0.0050698332
0.0049094714
0.0047379343
0.0045749336
0.0044165548
0.0042651017
0.0041186233
0.0039909471
0.0039093766
0.0039967811
0.004352763
0.0039529059
0.0038551153
0.0039396631
0.0040713079
0.0042220839
0.0043750422
0.0045390948
0.0047160676
0.0048934206
0.0050621319
0.0050548084
0.0048873258
0.0047118903
0.0045479801
0.0043897712
0.0042421402
0.0040995309
0.0039735757
0.0038921569
0.0039772069
0.0043117434
0.0039132185
0.0038235793
0.00390904
0.0040406447
0.0041906185
0.0043479001
0.004514395
0.0046941753
0.0048804964
0.0050570647
0.0050343483
0.0048650167
0.0046873087
0.0045206223
0.0043593572
0.0042091031
0.0040637146
0.0039355159
0.0038506737
0.0039308682
0.0042237714
0.0038258159
0.0037455011
0.0038315642
0.0039624109
0.0041109932
0.0042652762
0.0044313834
0.0046127359
0.0047996993
0.0049718858
0.0047879434
0.0046309876
0.004466032
0.0043067366
0.0041512408
0.0040054208
0.0038648773
0.0037390897
0.0036523061
0.0037118851
0.0039063905
0.0035141507
0.0034634177
0.0035523309
0.0036808901
0.0038245781
0.0039754849
0.0041397916
0.0043165649
0.0044960788
0.0046694268
0.0044371152
0.0042813345
0.0041197265
0.00396287
0.0038106603
0.0036667194
0.0035303146
0.0034064373
0.0033156353
0.0033508434
0.0034589308
0.0030765932
0.0030461406
0.0031332221
0.0032537709
0.0033887345
0.0035319756
0.0036888537
0.0038555934
0.0040245951
0.0041904255
0.0035293111
0.0036607354
0.0032243359
0.0030879878
0.0029543541
0.0034016077
0.0032718973
0.0031458898
0.0030232195
0.0029072732
0.0027967558
0.0026965837
0.0026223091
0.0026354343
0.002549514
0.0021365215
0.0021318516
0.0022404657
0.0023427524
0.0024540858
0.0025781075
0.0026995578
0.0028250567
0.0022904395
0.0024147123
0.002535202
0.0026548392
0.0020848773
0.0019878148
0.0018957278
0.0018054859
0.0017195244
0.002191274
0.0020956863
0.0020033027
0.0019137159
0.0018192149
0.0017016174
0.0013155015
0.0013954612
0.0014804549
0.0015596693
0.0016387615
0.0015150912
0.0014448665
0.001380381
0.0013310522
0.0012655083
0.0011946826
0.0011316012
0.0010365712
0.001110364
0.0010871969
0.0010603714
0.0010441881
0.0010560047
0.0055440727
0.0054022848
0.0052895129
0.0052795402
0.0054608976
0.005474028
0.0053369026
0.0053247889
0.0052789074
0.005295875
0.0056046459
0.0056331399
0.0057795576
0.0057961772
0.0059020898
0.0059134922
0.0059879473
0.0060011791
0.0061207838
0.0061278787
0.00609815
0.0060983926
0.0061274671
0.0061335313
0.0061574617
0.0061613861
0.0061771051
0.00618129
0.0061336706
0.0061128862
0.0058304622
0.005800178
0.0055982399
0.0055144017
0.0043802426
0.0040975018
0.0038120736
0.0035175588
0.0033098588
0.0029045542
0.0027150468
0.0028234295
0.0031560297
0.0032768072
0.0031922963
0.0038954552
0.0042320304
0.005236071
0.0053723135
0.0055632195
0.0056141932
0.0058657666
0.005897434
0.0059397036
0.0059326783
0.0059246752
0.0059177716
0.0058991191
0.0058873777
0.0058604076
0.0058593284
0.0058808146
0.0058658926
0.0057573377
0.0057368016
0.0056783766
0.0056587562
0.0055667362
0.0055406628
0.0054119922
0.0053646306
0.0051055712
0.0050778358
0.0051133753
0.0051282999
0.0052172546
0.005160313
0.005078621
0.004992531
0.0052235804
0.0053605124
0.0052773963
0.0051406739
0.0049420224
0.0048627578
0.0049204678
0.0050842512
0.005016981
0.0048289621
0.0048212065
0.00500627
0.0049819756
0.0048129432
0.0048499963
0.0050180398
0.0052342873
0.0050382478
0.0051022014
0.0052961156
0.005414223
0.0052162239
0.005244663
0.0054465484
0.0055268753
0.005322802
0.0053495887
0.0055541397
0.005598768
0.0053907313
0.0054124604
0.0056253941
0.0057249291
0.0055117308
0.0055323895
0.0057472158
0.0057352862
0.0055345283
0.0055297705
0.0057374088
0.005763042
0.0055622025
0.005579467
0.0057817367
0.0057944083
0.0055947343
0.0055947329
0.0058027329
0.0058017899
0.0055979767
0.0056017856
0.0058116402
0.005766598
0.0055647806
0.0055084322
0.0057252597
0.005490479
0.0053016125
0.0052116209
0.0054229242
0.0052112823
0.0050253574
0.0057878942
0.0061141
0.0062134295
0.0065378015
0.006606209
0.0066967808
0.0066796575
0.00672941
0.0067289391
0.0067317856
0.0066906877
0.0066606181
0.006658751
0.0066477818
0.0066072687
0.0065085497
0.0064829773
0.0064584764
0.0064127896
0.006335336
0.0063041885
0.0061828045
0.0061045855
0.0059517537
0.0059158882
0.0059094137
0.0058959816
0.0059319923
0.0059350042
0.005837401
0.0060401911
0.0061622877
0.006245982
0.0062777427
0.0056001716
0.0055619226
0.0058377561
0.006119519
0.0060095744
0.00599703
0.0058673954
0.0058323714
0.0056774815
0.0056089471
0.005402329
0.0053098055
0.0051962966
0.0051021534
0.0049610754
0.0048480104
0.0049756165
0.0050934233
0.0051878425
0.0053759335
0.0054536578
0.005589628
0.005632716
0.0057364724
0.0057563399
0.0055155342
0.0055610655
0.0061963521
0.0055207057
0.0054907632
0.005403706
0.0054627706
0.0060947983
0.0054065385
0.0053556268
0.0052273802
0.0052891251
0.0059141833
0.0051996587
0.0051448189
0.0049707762
0.005057738
0.0057126049
0.0049529054
0.004867116
0.0047421515
0.0048534408
0.0056183745
0.0048423184
0.0046600466
0.0049675868
0.0058953968
0.0056729173
0.0056562382
0.0058156112
0.0060150366
0.0062234396
0.0064326229
0.006647805
0.0068653819
0.0070852655
0.0073066739
0.0075380629
0.0077703838
0.0080082888
0.008248676
0.0084935317
0.0087369988
0.0089903992
0.0092390267
0.0094902954
0.0097228926
0.0099330275
0.010103585
0.010361267
0.010619946
0.010744425
0.011008605
0.011265734
0.011517836
0.011760817
0.011989547
0.01211254
0.012365486
0.012688277
0.012980753
0.013234974
0.013457477
0.013658768
0.013832832
0.013986767
0.014123123
0.014239145
0.014329822
0.01439912
0.014446395
0.014469951
0.014451997
0.014436712
0.014360264
0.014328991
0.014268439
0.014176937
0.014051616
0.013878157
0.013569337
0.013342935
0.012987958
0.012491088
0.010610145
0.0087370929
0.0036480783
0.0025778772
0.0024254685
0.0023326202
0.0027781878
0.0026123107
0.0033447189
0.0020567774
0.0020427102
0.0026462443
0.003238257
0.0031436347
0.0042216341
0.0053446183
0.0085514406
0.0089878492
0.010562172
0.012102495
0.0065078891
0.0060729476
0.0049295543
0.0033235878
0.0032133808
0.0015863085
0.0027293614
0.0023148249
0.0023156189
0.0031265218
0.0020246772
0.0025325451
0.0026501192
0.0025344022
0.0027071639
0.0024600242
0.0023713179
0.0021074041
0.0028769813
0.0060585032
0.010548875
0.012453711
0.01296015
0.01334511
0.013619339
0.013908232
0.014047547
0.014183279
0.01428511
0.014351649
0.014388191
0.014379486
0.014416476
0.014446569
0.01449291
0.014481613
0.014443457
0.014382753
0.014301599
0.014195677
0.014069918
0.013924979
0.013760653
0.013572773
0.01336543
0.013132763
0.012882687
0.012599847
0.012291229
0.011975171
0.011681858
0.011390829
0.011104721
0.010795904
0.010583929
0.010328787
0.010101928
0.0098611329
0.0096151715
0.0093611194
0.0091136968
0.0088643377
0.0086203549
0.0083789855
0.0081447945
0.0079111649
0.0076824324
0.0074515596
0.0072282916
0.0070073099
0.0067925589
0.0065798981
0.0063733269
0.0061687817
0.0059763552
0.0058304739
0.0058628075
0.0062662033
0.0059040838
0.0058516122
0.0059916741
0.0061851736
0.0063942216
0.006604819
0.0068216207
0.0070397585
0.0072624234
0.0074866817
0.0077196749
0.007951702
0.0081907223
0.0084307666
0.0086772502
0.0089246453
0.0091801124
0.0094353122
0.0096970331
0.0099572607
0.010221209
0.010480106
0.010746875
0.011006822
0.011299779
0.011593092
0.011888452
0.012179271
0.012471465
0.012744003
0.012999055
0.01323191
0.013450572
0.013647692
0.013826172
0.013981295
0.014120263
0.014239009
0.014337826
0.01441446
0.014470972
0.014503765
0.014513013
0.014489804
0.014404094
0.014394594
0.014349688
0.014279492
0.01417422
0.014034396
0.0137955
0.013620502
0.013352486
0.01295256
0.01160257
0.010035789
0.0040766381
0.0024385017
0.0018069013
0.0018438526
0.0018324833
0.0020587616
0.0023852254
0.0028196712
0.0020448547
0.0021821723
0.0027269877
0.0039207862
0.0036938104
0.0072505667
0.0090619704
0.012618434
0.012725111
0.013198712
0.013522695
0.01372995
0.014011419
0.014140254
0.014246396
0.014321204
0.014372105
0.014400963
0.014487241
0.014497624
0.014510041
0.014487095
0.014438777
0.014369007
0.014278735
0.014169338
0.014038297
0.013892882
0.013726697
0.013540157
0.01333476
0.013113602
0.012875032
0.012624327
0.012354097
0.012080029
0.01179478
0.011509527
0.011221838
0.010949302
0.010673143
0.010403111
0.010129677
0.0098670358
0.0096060011
0.0093505941
0.0090932987
0.0088409725
0.00858954
0.0083441721
0.0080993911
0.007867788
0.007633762
0.0074064813
0.007180425
0.0069584817
0.0067394822
0.0065260515
0.0063146152
0.0061201264
0.0059788153
0.0060229239
0.0064137964
0.0060312551
0.0059826323
0.006128375
0.0063287101
0.0065463472
0.0067657718
0.0069907377
0.0072186869
0.0074478885
0.0076788673
0.0079207594
0.0081647208
0.0084130463
0.0086616259
0.0089197103
0.0091797404
0.0094429817
0.0097020231
0.0099683372
0.01023735
0.01051275
0.010786313
0.011069587
0.011348742
0.011633677
0.011913733
0.012191282
0.012457137
0.012716614
0.012959619
0.013188982
0.013397846
0.013594935
0.013775127
0.013931129
0.014068699
0.014189584
0.014288864
0.014370163
0.014429226
0.014463223
0.014470992
0.014431285
0.014356221
0.014360626
0.014325227
0.014264644
0.014176137
0.01404716
0.013931095
0.013652335
0.013402114
0.013045013
0.01255632
0.009826619
0.0057538091
0.0037323056
0.0052215757
0.0044836889
0.0033611229
0.0022508314
0.0026448616
0.0028954354
0.0024752713
0.0029980745
0.0021048772
0.0026342923
0.0022107096
0.001217454
0.0017011128
0.0016188687
0.0037542315
0.0026823692
0.0021932122
0.0019251603
0.0011644456
0.0015219985
0.0016664446
0.0021551879
0.0023394194
0.0027421635
0.0038833396
0.0088979671
0.0078969286
0.011901238
0.012817284
0.013235167
0.013521785
0.013697301
0.013921348
0.013955815
0.014102802
0.01420617
0.014282441
0.014330413
0.014353027
0.014433198
0.014440388
0.01445286
0.014429425
0.014381037
0.014310745
0.014222303
0.014113029
0.01398561
0.013840491
0.01367421
0.013486841
0.013286264
0.013067363
0.012837338
0.012588235
0.012333421
0.012063708
0.011788896
0.011506585
0.011232166
0.010950553
0.010673363
0.010396278
0.010126968
0.0098547203
0.0095907487
0.0093226444
0.00906366
0.008804884
0.0085502397
0.0082975896
0.0080515821
0.0078070339
0.0075716079
0.0073366081
0.0071084404
0.0068836141
0.0066626301
0.0064448758
0.0062447188
0.006096694
0.0061360802
0.0065283992
0.0061485866
0.0061078953
0.0062604356
0.0064675083
0.0066914265
0.0069178466
0.007149821
0.0073825166
0.0076213117
0.0078603682
0.0081084357
0.008358982
0.0086115311
0.0088655753
0.0091297337
0.00939601
0.0096709232
0.0099435143
0.010222944
0.010501742
0.010783791
0.011061031
0.011343153
0.011618045
0.01189737
0.012167544
0.012432603
0.012682912
0.012926831
0.013152391
0.013365295
0.013557602
0.013736529
0.01389581
0.014033986
0.0141531
0.014253238
0.014333218
0.014392566
0.014426823
0.014435827
0.014400937
0.014330617
0.014333529
0.014302832
0.0142411
0.014146818
0.014023505
0.013899575
0.01362256
0.013379767
0.013031069
0.012548533
0.0097627502
0.012423668
0.0084473903
0.0088624044
0.0090212515
0.010699874
0.0116794
0.013453436
0.014220423
0.014152707
0.014105268
0.013494999
0.013201977
0.01278828
0.012335782
0.0096595716
0.005855082
0.003666074
0.0027460963
0.0022791404
0.00245396
0.0031237508
0.0023481374
0.002151617
0.0030076833
0.0036114847
0.0048446169
0.0067972273
0.0095409309
0.0099843265
0.010275382
0.010568863
0.010740165
0.010879641
0.01088415
0.010982005
0.01131385
0.01138934
0.011446041
0.011445409
0.011410159
0.011315061
0.011180602
0.011072673
0.011157058
0.01146228
0.011516047
0.011539823
0.011538413
0.011521958
0.011395803
0.0114256
0.011715318
0.011697434
0.011649653
0.011539984
0.011392703
0.011253125
0.011310196
0.011584357
0.01157707
0.011486896
0.011248309
0.01120451
0.0113907
0.011261939
0.011020896
0.011016922
0.011226646
0.011066564
0.010779286
0.010693976
0.010833368
0.010608558
0.010242249
0.010117725
0.010207384
0.010154128
0.010298122
0.0100632
0.010005069
0.010147343
0.010185728
0.010425917
0.010880146
0.01109034
0.01132643
0.01151393
0.011714337
0.011886981
0.012066117
0.012141784
0.012268935
0.012495672
0.012808702
0.013104368
0.013352873
0.013569114
0.013755309
0.013920757
0.014065567
0.01418917
0.014288166
0.014365497
0.014420272
0.01445059
0.014452944
0.014407727
0.01433087
0.01432463
0.014279646
0.014206534
0.014101892
0.01395576
0.013823422
0.013922621
0.013629633
0.013421314
0.013097824
0.012637749
0.009635416
0.007699357
0.0040229906
0.0031121374
0.0023520695
0.0029264397
0.0027864898
0.0024171116
0.0027105665
0.0033152575
0.0043455905
0.0067358308
0.0090759416
0.010359867
0.010532929
0.011212981
0.01135677
0.011806824
0.011898956
0.012167226
0.012216766
0.012371836
0.012401506
0.012508803
0.012511946
0.012510332
0.012403841
0.012385382
0.012525425
0.012805534
0.012857462
0.0129536
0.012961893
0.012972908
0.01297725
0.013027373
0.013012213
0.01294377
0.012912593
0.012849201
0.012719342
0.012679648
0.012803627
0.013081841
0.013109027
0.013077313
0.013052148
0.012968076
0.012810546
0.012713507
0.012769163
0.012989683
0.012976549
0.012794493
0.012714441
0.012479748
0.01227599
0.012136374
0.012142467
0.012360381
0.012286311
0.011929305
0.011700338
0.011562446
0.011589393
0.011790057
0.011843094
0.012030281
0.012079968
0.012248646
0.01231189
0.012466987
0.012375404
0.012574977
0.012764032
0.012901195
0.013068102
0.013256624
0.01350445
0.013716006
0.013898915
0.014056818
0.014188455
0.014298164
0.014385235
0.014451504
0.014493566
0.014513288
0.014498093
0.014488743
0.014404064
0.014381345
0.014332754
0.014253219
0.014139701
0.01403301
0.013763988
0.013527009
0.013185628
0.0127364
0.0098113779
0.0073756701
0.0042660926
0.0023637447
0.0023056102
0.0038788148
0.0029237151
0.0021460413
0.0024536787
0.0032492855
0.0029582363
0.0020855117
0.002971929
0.0024482264
0.0028532221
0.0028165909
0.0027142408
0.0022812472
0.001275382
0.0019278813
0.0017374738
0.0036332659
0.0026664119
0.0025231416
0.0027537841
0.0029825198
0.0028462016
0.0029911649
0.0056427096
0.009109567
0.011902001
0.012943813
0.013334229
0.013597968
0.013766212
0.013996931
0.014011549
0.014145809
0.014247084
0.01431606
0.014354264
0.014353036
0.01442823
0.014429455
0.014472783
0.014470167
0.014444191
0.01439346
0.014319604
0.014223812
0.014106337
0.013964531
0.013799143
0.013607812
0.013380196
0.013102543
0.012903979
0.012882061
0.012754374
0.012615496
0.012422465
0.012239027
0.012082865
0.011898073
0.011751634
0.011570316
0.011429605
0.011266699
0.011201221
0.011016458
0.01132759
0.011576063
0.011855165
0.011952801
0.011784401
0.011553689
0.011899849
0.012124376
0.012330051
0.012439719
0.012572491
0.01259288
0.012388133
0.012134687
0.012429022
0.012589979
0.012667796
0.012696791
0.012697283
0.01265708
0.012402923
0.012129494
0.012333904
0.012448761
0.012509434
0.012555043
0.012619679
0.012646516
0.012611994
0.012606528
0.012595432
0.012575956
0.012475651
0.01240302
0.012145723
0.01188109
0.012050697
0.012145357
0.012161855
0.01215947
0.01207728
0.012034329
0.011912034
0.011841025
0.011617906
0.011479331
0.011095139
0.010875618
0.010296647
0.010029509
0.0304238
0.030739815
0.031017349
0.03126131
0.031474484
0.031659574
0.03181949
0.031956997
0.03207467
0.032175158
0.032260979
0.032334427
0.032397447
0.032451676
0.032498483
0.032539033
0.032574399
0.032605656
0.032633993
0.032660689
0.032658615
0.032631331
0.032602339
0.03257036
0.03253416
0.032492625
0.032444656
0.032389003
0.032324217
0.032248594
0.032160132
0.032056492
0.031935158
0.031793587
0.031629918
0.03144078
0.031223082
0.03097451
0.030691823
0.030370846
0.030247693
0.030257411
0.030270542
0.03030122
0.030633265
0.030607412
0.030592476
0.030585056
0.030566522
0.030551663
0.030540201
0.030534481
0.030529783
0.030519246
0.030510843
0.03049621
0.030477327
0.030471189
0.030498254
0.030796054
0.030774539
0.030781612
0.030799229
0.030810043
0.030817693
0.030828594
0.030834953
0.0308394
0.030852265
0.03086593
0.030880748
0.030889214
0.030903711
0.030924999
0.031180694
0.031164582
0.031150292
0.031140666
0.031127194
0.031115275
0.031101585
0.031098361
0.03109087
0.031080383
0.031073091
0.031062512
0.031047961
0.031042148
0.031059448
0.03128938
0.0312746
0.031280526
0.031291762
0.031302913
0.031309684
0.031320161
0.031326252
0.031330289
0.031342968
0.031355685
0.031367418
0.031378456
0.031391489
0.031407103
0.03160172
0.031588191
0.031576005
0.031563958
0.031552277
0.031539554
0.031528401
0.031522807
0.031517525
0.031508452
0.03150254
0.031491477
0.031482662
0.031476683
0.031488927
0.031660125
0.031650712
0.031656546
0.031664714
0.031674786
0.031679974
0.03168697
0.031692178
0.031699155
0.031708884
0.031721305
0.031733854
0.031746313
0.031758521
0.031770459
0.031915624
0.03190484
0.03189233
0.031879781
0.031866378
0.031854642
0.031844918
0.031838116
0.031833006
0.031827062
0.031822684
0.031813357
0.031806111
0.031800481
0.031808377
0.031934935
0.031929595
0.031934199
0.031940477
0.031948412
0.03195257
0.031957975
0.031962843
0.031969948
0.031979379
0.031990931
0.032004041
0.032016918
0.032029226
0.032040085
0.032145913
0.032135374
0.032123134
0.032110215
0.032097215
0.032086126
0.032076742
0.032069367
0.032064416
0.032059743
0.03205559
0.032048979
0.032043374
0.032039527
0.032043494
0.03213638
0.032133709
0.032137009
0.032141837
0.032147276
0.032151045
0.032155546
0.032160705
0.032167917
0.032177208
0.032188188
0.032200793
0.03221389
0.032225876
0.032236409
0.032313456
0.032303042
0.032291121
0.032278224
0.032266047
0.032255265
0.032246306
0.032239145
0.032233952
0.032229396
0.032225986
0.032221614
0.032217709
0.032214925
0.032216695
0.032286017
0.032284968
0.032287386
0.032290567
0.032294255
0.032297342
0.032301751
0.032306962
0.032313931
0.032322551
0.032332985
0.032344767
0.032357362
0.032369209
0.032379583
0.0324361
0.032426159
0.032414676
0.032402459
0.032391143
0.032381086
0.032372816
0.032366016
0.032360964
0.032356865
0.032353892
0.03235072
0.032347978
0.032346067
0.032346658
0.032400172
0.032399916
0.032401549
0.032403896
0.032406609
0.03240948
0.032413259
0.032418073
0.032424589
0.032432563
0.032442018
0.032452849
0.032464434
0.032475487
0.032484965
0.032527257
0.032518386
0.032507983
0.032497163
0.032487004
0.032478186
0.032470749
0.032464714
0.032460225
0.032456722
0.032453992
0.032451704
0.032449721
0.032448274
0.032448345
0.032492352
0.032492492
0.032493751
0.032495354
0.032497349
0.032499863
0.032503106
0.032507205
0.032512635
0.032519381
0.032527421
0.032536702
0.032546594
0.032556124
0.032564233
0.032597025
0.032589858
0.032581391
0.032572598
0.032564384
0.032557302
0.032551335
0.032546536
0.032542844
0.03253997
0.032537727
0.032535979
0.03253465
0.032533598
0.032533352
0.032572148
0.032572471
0.032573338
0.032574456
0.032575946
0.032577875
0.032580391
0.032583619
0.032587741
0.032592836
0.032598913
0.032605935
0.03261349
0.032620762
0.032626904
0.032655065
0.032650011
0.032643982
0.032637722
0.032631914
0.032626879
0.032622666
0.032619222
0.032616495
0.032614338
0.032612712
0.032611466
0.032610544
0.032609826
0.032609476
0.0029535795
0.0029760189
0.0030386369
0.003065958
0.0031341253
0.0031670848
0.0032401338
0.0032783969
0.0033568422
0.0034003991
0.003483657
0.0035324272
0.0036213392
0.0036756057
0.0037698323
0.0038297237
0.0039310665
0.0039978567
0.0041051462
0.0041782288
0.0042907995
0.0043687384
0.004487872
0.0045726877
0.0047008226
0.004794405
0.0049305003
0.0050324848
0.0051760149
0.0052849033
0.0054374312
0.0055559834
0.0057207881
0.0058516553
0.0060276548
0.006170178
0.0063569022
0.0065096818
0.0067077844
0.0068732365
0.0070853531
0.0072630314
0.0074866704
0.0076802944
0.0079193215
0.008124114
0.0083694584
0.0085849769
0.0088401485
0.0090607737
0.0093138326
0.0095361059
0.0097879506
0.010004401
0.010242062
0.010448114
0.010672485
0.010862714
0.011065082
0.011238991
0.011425001
0.011584942
0.01175261
0.011897952
0.012053971
0.012192913
0.012338776
0.01247033
0.012609578
0.012729655
0.012856234
0.012950255
0.013047043
0.013077327
0.013073295
0.012924652
0.012696892
0.01217685
0.007534394
0.0048510621
0.0041937487
0.0048163702
0.0063553723
0.012059539
0.012336722
0.012471349
0.012724866
0.012787438
0.012877951
0.012867879
0.0128532
0.012799615
0.012737155
0.012649765
0.012567441
0.012452742
0.012365619
0.012226713
0.012140577
0.011980866
0.011891957
0.011706233
0.011616537
0.011405439
0.011312064
0.011070081
0.010972825
0.010705453
0.01060817
0.010313949
0.010219447
0.0099084334
0.0098215545
0.0094939659
0.0094166086
0.009083707
0.0090193551
0.0086805582
0.0086289433
0.0082941564
0.0082584956
0.0079266545
0.0079033698
0.0075782781
0.0075674711
0.0072491054
0.0072476946