/*--------------------------------*- C++ -*----------------------------------*\
| =========                 |                                                 |
| \\      /  F ield         | OpenFOAM: The Open Source CFD Toolbox           |
|  \\    /   O peration     | Version:  v2012                                 |
|   \\  /    A nd           | Website:  www.openfoam.com                      |
|    \\/     M anipulation  |                                                 |
\*---------------------------------------------------------------------------*/
FoamFile
{
    version     2.0;
    format      ascii;
    class       volScalarField;
    location    "100";
    object      omega;
}
// * * * * * * * * * * * * * * * * * * * * * * * * * * * * * * * * * * * * * //

dimensions      [0 0 -1 0 0 0 0];


internalField   nonuniform List<scalar> 
33005
(
8.8974803
8.9218161
8.9499938
8.9814842
9.0159117
9.0529257
9.0921738
9.1333535
9.1761955
9.2204359
9.2658135
9.3120778
9.3589945
9.4063389
9.4539106
9.5015517
9.5491852
9.5968501
9.6447216
9.6930892
9.6753686
9.6230024
9.5712502
9.5200964
9.4695351
9.4195738
9.3702363
9.3215663
9.2736294
9.2265167
9.1803443
9.1352565
9.0914357
9.0490873
9.0084564
8.9698321
8.9335293
8.8999037
8.8693625
8.8755417
8.8776201
8.8772909
8.876672
8.8770294
8.8792389
8.9692341
8.965918
8.9630612
8.9604915
8.9577254
8.9546079
8.951545
8.9477824
8.9440989
8.9403016
8.9360438
8.9319728
8.9278968
8.9239789
8.9199398
8.9160901
8.912185
8.90905
8.9069272
8.9062692
8.9064689
8.9065592
8.9047732
8.9373725
8.9388905
8.9389632
8.9391428
8.9400678
8.9421174
8.9450324
8.9487199
8.9523868
8.956314
8.9600431
8.9640235
8.967853
8.9718841
8.9754897
8.9790148
8.9825072
8.9854706
8.988413
8.9911451
8.9936913
8.9963482
8.9994512
9.0327219
9.0298374
9.0272688
9.024757
9.0221614
9.0193412
9.0164726
9.0132341
9.0099151
9.0064839
9.0026612
8.9990015
8.9951662
8.9915589
8.987793
8.9842866
8.9808014
8.9780032
8.9759551
8.9747896
8.9743236
8.9740797
8.9727617
9.0107403
9.0118167
9.01223
9.0128633
9.0142147
9.0162536
9.0189628
9.0222631
9.0256318
9.0292412
9.0327507
9.0364403
9.0399688
9.0435964
9.0468765
9.0500018
9.053023
9.0557838
9.0585086
9.0609543
9.0634017
9.0659153
9.0686061
9.0712328
9.0738043
9.111869
9.1093428
9.1068373
9.1042938
9.1018416
9.0994861
9.0971194
9.0945092
9.0918497
9.0890084
9.0860379
9.0828704
9.079425
9.0759903
9.0724406
9.0689984
9.0655405
9.0622769
9.0591565
9.0565394
9.0544989
9.0530678
9.0522851
9.0517481
9.0508423
9.0927843
9.093542
9.0941477
9.0950558
9.0965396
9.0985539
9.1010924
9.1040507
9.1072108
9.1105491
9.1139269
9.1173726
9.1207256
9.124033
9.1271004
9.1299577
9.1326585
9.1352233
9.1377156
9.1400293
9.1423003
9.1446866
9.1471122
9.1495234
9.1519759
9.1938653
9.19151
9.1891737
9.1868517
9.1845449
9.1823356
9.1800838
9.1776768
9.1752014
9.1725919
9.1698212
9.1668392
9.1636249
9.1603403
9.1569639
9.1536484
9.1503998
9.1473429
9.1445104
9.1420578
9.1400742
9.1385747
9.137602
9.1369501
9.1362839
9.1811357
9.181714
9.182391
9.1833898
9.1848767
9.1868235
9.1891879
9.1919046
9.1948707
9.1980377
9.2013042
9.2046274
9.207869
9.2110179
9.2139456
9.2166547
9.2192066
9.2216111
9.2239542
9.2261508
9.2283144
9.2305479
9.2327818
9.2350472
9.2373064
9.282111
9.2799204
9.2777211
9.2755453
9.2733736
9.2712453
9.2690811
9.2667882
9.264424
9.2619103
9.2592298
9.2563307
9.2532258
9.2500068
9.2467287
9.2435031
9.2404132
9.2375354
9.2349303
9.2326647
9.2307735
9.2293188
9.2283094
9.2276332
9.2271168
9.2740873
9.2745447
9.2752012
9.2762009
9.2776076
9.2794248
9.2815913
9.2840813
9.2868624
9.2898761
9.2930531
9.296292
9.2994922
9.302573
9.3054597
9.3081346
9.3106319
9.3129804
9.3152428
9.3173932
9.3195041
9.3216336
9.3237677
9.3259158
9.3280514
9.3728328
9.3707196
9.3686105
9.3664976
9.3643877
9.3622326
9.3599775
9.357624
9.3551234
9.3524404
9.3495578
9.3464919
9.3433169
9.3401226
9.3370119
9.3340879
9.3314147
9.3290427
9.3269856
9.3252595
9.3239132
9.322944
9.322316
9.3219119
9.3704997
9.3708514
9.3714385
9.3723585
9.3736311
9.3752526
9.3771868
9.3794273
9.381975
9.3847864
9.3878069
9.390934
9.3940675
9.3971105
9.3999886
9.4026847
9.4052018
9.4075767
9.4098468
9.4120251
9.4141544
9.4162732
9.4183822
9.4204832
9.4686872
9.4665667
9.4644349
9.4622883
9.4601228
9.4579091
9.455611
9.4532093
9.4506727
9.4479717
9.4451089
9.4421108
9.4390479
9.4360186
9.433121
9.4304489
9.428051
9.4259579
9.4241611
9.4226561
9.4214694
9.4206134
9.4200765
9.4197734
9.4696849
9.4699392
9.4704204
9.4712033
9.4722935
9.4736708
9.4753177
9.4772448
9.4794686
9.4819709
9.4847085
9.4876016
9.4905568
9.4934787
9.4963007
9.4989893
9.5015368
9.5039635
9.5062953
9.5085519
9.510764
9.5129527
9.5151242
9.517283
9.5661507
9.5639408
9.5617186
9.5594812
9.5572222
9.5549249
9.5525661
9.5501279
9.5475904
9.544943
9.5421971
9.5393894
9.5365849
9.5338689
9.5313262
9.5290237
9.5269965
9.5252513
9.5237655
9.5225239
9.5215375
9.5208336
9.5204124
9.5202046
9.5713234
9.5714847
9.5718446
9.5724671
9.5733462
9.5744479
9.5757649
9.5773163
9.5791291
9.5812068
9.5835233
9.5860253
9.5886394
9.5912908
9.5939199
9.59649
9.5989863
9.6014111
9.6037776
9.6061004
9.608396
9.6106765
9.6129473
9.6152096
9.6644319
9.6621282
9.6598234
9.6575183
9.6552096
9.6528888
9.6505455
9.6481692
9.6457539
9.6433018
9.6408295
9.6383725
9.6359834
9.6337251
9.6316572
9.629821
9.628233
9.6268814
9.6257356
9.6247732
9.6240014
9.6234597
9.6231607
9.6230446
9.6753831
9.6754555
9.6756957
9.6761597
9.6768281
9.6776553
9.6786328
9.6797854
9.6811468
9.682735
9.6845423
9.6865388
9.6886781
9.6909098
9.6931893
9.6954849
38.223912
38.067432
39.250165
39.09971
40.970936
40.874353
42.522738
45.370795
46.195165
46.424666
45.581868
42.453872
42.333017
41.891024
41.635783
41.101536
40.569644
27.535597
27.559619
27.557736
27.592178
27.558853
27.298196
27.226226
27.071947
27.058258
27.002085
27.007381
27.004567
27.012204
26.939306
26.962522
27.050364
27.124544
27.219369
27.28778
27.440929
27.595377
27.963887
28.215779
28.791286
29.2547
30.375266
31.080987
32.497504
32.97999
33.429847
36.725835
38.261793
40.713541
43.323776
44.613059
45.045067
43.853299
40.929528
38.441511
36.633476
33.54879
33.536522
32.502095
31.12155
30.38641
29.286716
28.801853
28.261447
28.000798
27.632079
27.469399
27.326131
27.263892
27.165437
27.089609
27.012728
26.995077
27.065137
27.058068
27.053914
27.050242
27.095777
27.106796
27.248841
27.321837
27.549031
27.581611
27.560891
27.62659
27.541317
27.527479
27.570046
27.622537
27.784852
27.693659
27.615467
27.568706
27.605612
27.656897
27.731297
27.802007
27.852423
27.746656
27.649212
27.576079
27.380614
27.472442
27.582527
27.681567
27.77578
27.850794
27.91898
27.960952
28.02251
27.96517
27.876192
27.780261
27.667936
27.536296
27.409301
27.30535
27.17646
27.276148
27.396897
27.511161
27.619523
27.714908
27.802071
27.857447
27.98407
27.907178
27.802928
27.690509
27.562186
27.414877
27.278869
27.164139
27.127639
27.245235
27.377496
27.498636
27.618542
27.725119
27.820775
27.885842
27.865266
27.49614
26.70077
27.658231
28.041105
28.051653
27.96645
27.84937
27.722759
27.581813
27.422988
27.265191
27.132078
27.144409
27.263775
27.409575
27.541115
27.66552
27.778394
27.88531
27.9582
27.93533
27.557434
26.732156
27.6754
28.06863
28.084675
27.995839
27.872665
27.749827
27.610999
27.44722
27.286504
27.149827
27.08367
27.205575
27.346039
27.478802
27.60305
27.710106
27.813822
27.888984
27.872353
27.515339
26.69179
27.606709
27.983752
27.996492
27.911822
27.799561
27.68401
27.547118
27.385681
27.233654
27.09924
27.165895
27.276527
27.405967
27.532524
27.655059
27.758976
27.857874
27.931448
27.9154
27.551864
26.766543
27.717952
28.091774
28.106089
28.023394
27.910302
27.791195
27.652705
27.502557
27.361616
27.241035
27.341553
27.453118
27.584753
27.705548
27.822038
27.922209
28.014173
28.081635
28.059861
27.69469
26.905599
27.848536
28.229728
28.244505
28.166221
28.059787
27.943973
27.809408
27.660219
27.511297
27.39589
27.532559
27.628719
27.747537
27.858343
27.968662
28.065131
28.152683
28.211551
28.184202
27.829546
27.089641
28.066417
28.439874
28.45992
28.394398
28.299766
28.199391
28.078953
27.945609
27.815909
27.702691
28.066155
28.16503
28.279938
28.382287
28.480389
28.563122
28.636365
28.68334
28.646986
28.297009
27.649837
28.682119
29.045116
29.071815
29.014549
28.927161
28.827814
28.714969
28.584387
28.449692
28.334187
28.843472
28.924647
29.027198
29.119895
29.208041
29.282363
29.349242
29.388047
29.344353
28.98706
28.43383
29.57731
29.945066
29.98529
29.942395
29.868461
29.784881
29.684474
29.563274
29.43985
29.342992
30.413756
30.466827
30.538834
30.606834
30.672681
30.726358
30.772155
30.793917
30.736185
30.389521
30.035985
31.3497
31.694204
31.745713
31.716176
31.658657
31.588354
31.496948
31.387497
31.278334
31.18381
32.512168
32.544347
32.598417
32.652669
32.704041
32.745654
32.774819
32.780176
32.709055
32.355761
32.110558
33.674503
34.047085
34.128487
34.121817
34.07869
34.016558
33.929084
33.821256
33.711101
33.610463
36.521617
36.530635
38.523459
38.61968
38.719142
36.531195
36.556262
36.576743
36.590596
36.589429
36.570515
36.513996
36.361915
35.935074
36.141548
38.663293
39.116376
39.106076
39.101352
39.06063
38.973533
38.900218
38.816415
41.510712
41.335154
41.18607
41.055601
44.009505
44.16637
44.318571
44.450551
44.561451
41.587647
41.651507
41.705462
41.742266
41.824215
42.057692
45.081113
44.972415
44.823582
44.735237
44.655064
45.849893
45.917795
45.962011
45.969744
45.960543
46.08113
46.172807
46.35022
45.269773
44.940538
44.637899
44.184479
43.474929
26.408743
26.610402
26.793199
26.910444
26.781309
26.755075
26.986257
27.004614
27.103687
27.08439
26.684876
26.651831
26.470594
26.457248
26.386597
26.38208
26.366329
26.362917
26.313663
26.320824
26.485771
26.50755
26.661065
26.686649
26.939962
26.993946
27.509646
27.603272
28.48717
28.658768
30.222013
30.466356
32.220985
32.596567
36.5871
37.560475
38.592991
39.910894
41.126634
43.043362
43.637092
42.6308
41.310006
40.38454
40.308873
37.798461
36.552722
32.845939
32.20924
30.647213
30.237852
28.842546
28.559945
27.789171
27.635329
27.171022
27.082176
26.861726
26.823602
26.687905
26.650369
26.503255
26.49427
26.54699
26.551209
26.561
26.570546
26.632993
26.653436
26.82011
26.87702
27.228182
27.259531
27.172708
27.1458
26.982138
27.081757
27.041168
27.006868
26.704849
26.509117
26.456757
26.654907
26.921149
27.021035
27.098217
27.016554
27.149242
27.277714
27.301968
27.176382
27.245326
27.346433
27.301853
27.203802
26.902126
27.032882
26.954825
26.828317
26.672418
26.801556
26.779297
26.645294
26.591453
26.722264
26.713667
26.577697
26.577418
26.716461
26.720473
26.571672
26.523302
26.660814
26.677818
26.532488
26.659671
26.780949
26.846323
26.707161
26.833633
26.952501
27.011488
26.878821
27.080419
27.187746
27.328135
27.191709
27.625546
27.720208
27.952991
27.819425
28.511757
28.573974
29.005575
28.873778
30.153546
30.177186
30.799074
30.67251
32.1158
32.089135
30.913363
29.488595
28.888469
27.557017
27.132807
26.486144
26.269471
25.767595
25.61991
25.414229
25.37476
25.23314
25.171856
25.081201
25.081318
25.103477
25.094855
25.069958
25.09789
25.144363
25.162427
25.300976
25.382153
25.566989
25.601769
25.598531
25.609074
25.56036
25.595735
25.802973
25.528905
25.9029
25.997251
26.181313
27.411208
27.669277
27.42591
27.219186
27.374757
27.391679
27.582354
27.6369
27.87227
27.979037
28.30525
28.453755
28.620556
28.73967
28.803253
29.001423
28.798459
28.613402
28.454257
28.14296
28.018903
27.804262
27.737474
27.575202
27.548659
27.748265
27.474927
26.288759
27.531461
27.782851
27.926126
27.6286
26.430059
27.714195
28.002097
28.211504
27.8984
26.681763
28.044312
28.350101
28.653288
28.284285
26.98192
28.458199
28.836812
29.049843
28.622321
27.144362
28.686694
29.206007
28.599747
27.170465
27.798476
28.102699
28.085961
28.006034
27.919286
27.838812
27.761339
27.689032
27.621019
27.561476
27.500376
27.446878
27.39655
27.355047
27.318317
27.291461
27.266957
27.258637
27.262662
27.302417
27.383771
27.52591
27.618905
27.685118
27.810201
27.913791
28.055475
28.212601
28.398454
28.582122
28.760199
29.06559
29.364573
29.756655
30.19349
30.691795
31.245555
31.850983
32.501359
33.207081
33.950682
34.727054
35.530224
36.369734
37.25238
38.231499
39.212434
40.521835
41.622261
42.739379
43.884738
45.047675
46.420536
48.702803
49.97997
51.479394
53.219675
57.071144
58.58489
59.365919
60.578389
54.604985
55.014692
48.081996
40.820911
41.864998
33.079775
23.443525
28.271924
28.970885
18.537751
13.41824
11.53426
10.716169
10.54855
10.448402
10.59214
10.870054
11.145852
12.443021
16.233307
22.756755
28.65122
26.24758
23.646085
22.029027
25.668355
28.859952
30.676963
34.104196
37.95525
39.981606
37.072475
42.080709
54.264534
55.173984
56.851409
55.890376
52.278169
51.063027
49.817076
48.507126
46.425605
45.254373
44.055275
42.915572
41.814014
40.745603
39.810143
38.733188
38.485777
37.469237
36.607061
35.780906
34.984039
34.21001
33.463755
32.750276
32.084188
31.458203
30.883966
30.359112
29.888319
29.46894
29.099313
28.772538
28.498001
28.264204
28.075634
27.907139
27.752172
27.569811
27.452598
27.352184
27.285226
27.243626
27.227398
27.219726
27.226358
27.239961
27.262156
27.286956
27.322912
27.362406
27.411372
27.46299
27.522606
27.581753
27.647316
27.715362
27.785877
27.844914
27.827932
27.499291
26.636136
27.47648
27.836539
27.859999
27.797313
27.722992
27.651389
27.581307
27.52167
27.462164
27.410676
27.363459
27.323064
27.28729
27.263812
27.241835
27.232992
27.230325
27.244431
27.265064
27.30894
27.36994
27.458755
27.573998
27.72329
27.88386
28.072626
28.28878
28.548903
28.848065
29.195028
29.588402
30.033326
30.52691
31.074443
31.666674
32.305777
32.986836
33.709586
34.462108
35.245068
36.052513
36.891304
37.772052
38.765101
40.088572
41.042494
42.078394
43.155191
44.29206
45.514219
47.44439
48.450534
49.55714
50.558016
50.946326
53.899048
54.091759
49.669998
48.769378
47.34642
50.433825
55.382522
47.105081
42.654394
50.447207
58.663289
60.418839
53.717981
54.076413
54.807745
54.201035
51.284022
51.044556
49.970892
48.874556
47.809308
45.828937
44.652982
43.525822
42.477223
41.440387
40.400262
39.120197
38.16441
37.215758
36.358462
35.543346
34.751886
33.992568
33.261194
32.564536
31.909889
31.302508
30.731304
30.216439
29.747363
29.330021
28.958418
28.634635
28.350656
28.110019
27.902096
27.728874
27.57807
27.457889
27.361661
27.293123
27.236715
27.203262
27.175295
27.165922
27.166907
27.184352
27.201998
27.23181
27.266373
27.306321
27.352758
27.40916
27.46509
27.531783
27.600183
27.669811
27.726288
27.69657
27.346364
26.519452
27.397351
27.75375
27.776699
27.710085
27.631928
27.558581
27.485564
27.423569
27.366747
27.31728
27.271274
27.232243
27.2025
27.185906
27.16894
27.168503
27.181881
27.211671
27.252103
27.311369
27.38829
27.491047
27.615151
27.77207
27.955128
28.17764
28.434682
28.737276
29.080696
29.473748
29.911367
30.39714
30.93267
31.524924
32.146573
32.818149
33.52679
34.268896
35.040765
35.841773
36.66554
37.533744
38.554621
39.894114
40.823438
41.872853
42.936858
44.01281
45.241657
46.324205
48.353731
49.577357
50.687521
51.635693
55.024824
55.521963
53.42602
56.703376
57.161515
62.53267
58.957731
49.816871
46.458787
37.642467
39.437086
44.748408
55.081725
51.556451
42.702488
46.631917
49.792955
53.537275
48.527904
48.323654
46.373186
39.195547
46.549697
48.761999
53.805275
53.712271
62.331496
57.003048
56.697715
56.599591
52.26275
51.522577
50.223551
48.962527
47.837443
45.996592
45.735484
44.442736
43.339062
42.240908
41.18035
40.1394
38.862176
37.933228
36.998192
36.151211
35.33672
34.554158
33.800789
33.081585
32.395537
31.758325
31.154447
30.599721
30.093337
29.634874
29.222619
28.857109
28.535213
28.257786
28.017521
27.81727
27.645779
27.50729
27.394674
27.305048
27.236504
27.185624
27.150403
27.130187
27.120035
27.129945
27.143222
27.17142
27.203229
27.244834
27.295497
27.349991
27.407157
27.476324
27.544016
27.616898
27.678187
27.649445
27.304553
26.481444
27.351738
27.697059
27.716759
27.648095
27.567142
27.492961
27.422189
27.361389
27.30308
27.251899
27.210113
27.178812
27.15461
27.142633
27.132257
27.141928
27.162388
27.200129
27.252006
27.32526
27.421544
27.54238
27.691143
27.873055
28.086017
28.339202
28.631192
28.967624
29.349399
29.776871
30.250784
30.770646
31.336548
31.951533
32.599795
33.292236
34.014956
34.771829
35.555653
36.371819
37.228084
38.227987
39.520321
40.424129
41.481817
42.564249
43.710295
44.903997
46.057258
48.080773
49.419333
50.736367
52.154058
55.651159
52.425624
49.19323
41.455721
42.128395
43.403603
43.492998
44.184728
44.810836
45.3254
45.738164
49.570838
51.0244
52.528354
53.575427
57.443869
58.235148
56.412396
62.101722
53.888333
51.755705
44.94912
34.796951
25.280931
19.973908
14.652503
11.979412
10.88394
26.197632
25.990985
25.852944
25.693781
25.59065
25.477606
25.443057
25.438747
25.415927
25.319403
25.211498
25.156584
25.09435
25.094066
25.06724
25.071466
25.059498
25.021934
24.940735
24.868862
24.831317
24.796975
24.852247
24.88808
24.855269
24.830326
24.825375
24.872657
24.912084
24.980902
25.002346
24.987208
24.976554
25.022518
25.17693
25.260414
25.280783
25.335225
25.480293
25.547015
25.575041
25.67108
25.878867
26.001291
26.058343
26.218265
26.514989
26.689191
26.793303
26.89164
26.935125
27.15319
27.306764
27.40545
27.520226
27.570959
27.229477
27.376247
27.506193
27.684677
27.865284
28.094588
28.334529
28.685813
29.014227
29.317762
29.651792
30.063334
30.539685
31.069062
31.654959
32.292546
32.986799
33.722141
34.496233
35.298651
36.136032
37.00379
37.921183
38.998449
40.380176
41.367321
42.497591
43.645224
44.808598
46.114804
47.276184
46.980935
49.172706
50.383025
51.618375
52.842406
56.350487
57.198941
56.658741
60.830005
56.412924
46.448942
37.200811
26.826135
22.005151
16.230623
12.621038
11.137752
10.76113
26.629822
26.575325
26.417062
26.370991
26.191419
26.143992
25.954659
25.90846
25.719569
25.675157
25.508512
25.468965
25.319288
25.316269
25.312568
25.396821
25.446094
25.392201
25.239972
25.203182
25.077422
25.049965
24.947338
24.930989
24.8789
24.874033
24.855675
24.90268
24.947179
25.060501
25.111283
25.083764
25.079331
25.086115
25.135547
25.206731
25.289666
25.453014
25.541636
25.53386
25.603794
25.635529
25.751018
25.85871
25.983109
26.181432
26.262775
26.30084
26.539579
26.674639
26.805321
26.986821
27.065158
27.28112
27.394818
27.644703
27.785325
28.068131
28.186261
28.683891
28.992054
29.31454
29.707884
30.110254
30.602452
31.101825
31.661559
32.289185
32.971808
33.705506
34.477793
35.288695
36.12709
36.995195
37.904422
38.908555
39.905142
41.283829
42.388635
43.496998
44.620308
45.800806
46.893076
48.988359
50.205247
51.343491
52.476245
55.764443
56.254607
55.285705
60.050625
52.297101
44.285397
36.019329
27.115648
20.582209
23.351865
27.773349
28.540177
40.857757
46.325114
51.552238
59.391577
56.772799
52.885702
43.324032
47.731608
51.199153
54.780508
49.424699
49.410358
44.301306
39.292581
42.591837
54.581204
56.823463
56.447243
52.829959
52.193188
50.987787
49.755232
48.674629
46.698551
46.545506
45.234291
44.039606
42.891786
41.75902
40.777432
39.539881
39.364479
38.291308
37.370409
36.49021
35.641423
34.815226
34.025937
33.270774
32.56405
31.905969
31.309875
30.768616
30.323814
29.939372
29.861465
29.455467
29.096494
28.776853
28.481812
28.172587
27.940003
27.705355
27.529551
27.337768
27.185128
26.942168
26.808747
26.647655
26.490156
26.302924
26.26079
26.082414
25.97365
25.813212
25.682161
25.576832
25.526953
25.481495
25.508719
25.337801
25.225889
25.139942
25.058736
25.018358
25.011437
25.037966
25.098544
24.963338
24.865575
24.84645
24.802388
24.812042
24.814504
24.844545
24.86061
24.943614
24.981979
25.085029
25.139701
25.283671
25.386429
25.238311
25.104899
25.187948
25.196767
25.307143
25.361067
25.497809
25.562704
25.715414
25.782127
25.945915
26.018687
26.189085
26.268637
26.443697
26.540045
8.88691
8.9122578
8.9413021
8.9735473
9.0086305
9.0462135
9.0859756
9.1276206
9.1708749
9.2154782
9.2611844
9.3077677
9.3550011
9.4026665
9.4505765
9.4985836
9.5466178
9.5947141
9.6430275
9.6918134
9.6912158
9.6423087
9.5938855
9.545702
9.4976089
9.449571
9.4016572
9.3540152
9.3068315
9.2603253
9.2147224
9.1702567
9.1271758
9.0857392
9.046194
9.0088507
8.9740369
8.9420795
8.9133592
8.8883353
8.8789298
8.8840649
8.8883284
8.8905653
8.9145725
8.9120708
8.9080557
8.9030604
8.8987029
8.8944376
8.890602
8.8868679
8.8837557
8.8816576
8.8798366
8.8789501
8.8787815
8.8782109
8.8757867
8.9050323
8.9069725
8.9074763
8.9077765
8.9088359
8.9106256
8.9126428
8.9155145
8.9190997
8.922679
8.9267987
8.9311726
8.935877
8.9397952
8.9425269
8.9738945
8.9709453
8.9671114
8.9626399
8.958369
8.9543552
8.950962
8.9475376
8.9448578
8.94289
8.9411549
8.9401294
8.9396356
8.9390899
8.9375124
8.9729004
8.9742343
8.9747493
8.975402
8.9763701
8.9780521
8.9799478
8.9825598
8.9857495
8.9890642
8.9928829
8.9970893
9.001365
9.0051896
9.0081319
9.0451054
9.0420908
9.0382805
9.0341362
9.0300476
9.0263462
9.0230853
9.020116
9.0176091
9.0157311
9.0140988
9.0131491
9.0124078
9.0119133
9.0108111
9.0509097
9.0518045
9.0522925
9.0530338
9.0539978
9.0555706
9.0574369
9.0598251
9.0626167
9.065829
9.0694506
9.0734233
9.0774975
9.0812784
9.0843443
9.1255629
9.1224592
9.1186973
9.1146567
9.1107645
9.1071872
9.1040604
9.1013639
9.0990802
9.09727
9.0957528
9.0947904
9.0940439
9.0935625
9.0928058
9.1362963
9.1369013
9.1373996
9.1381418
9.1391161
9.1405576
9.1423023
9.1444958
9.1470966
9.1501668
9.1536978
9.1575723
9.1615878
9.1653626
9.1684699
9.2128122
9.2096826
9.2058944
9.201882
9.198022
9.1945166
9.1915024
9.1889799
9.1868742
9.185189
9.1838248
9.1828521
9.1821266
9.1816314
9.1811229
9.2271004
9.2275281
9.2280103
9.2287191
9.2296768
9.2309779
9.2325888
9.2346088
9.2370697
9.240035
9.243506
9.2473619
9.2513688
9.2551758
9.2583184
9.3047607
9.3016076
9.2977981
9.2937964
9.2899579
9.2865265
9.283611
9.2812191
9.2792798
9.277747
9.2765106
9.2755788
9.2748883
9.2744235
9.2740574
9.3218831
9.3221977
9.3226379
9.3233007
9.3241911
9.3253586
9.3268133
9.3286651
9.3309796
9.3338267
9.337199
9.3409931
9.3449661
9.3487578
9.3519045
9.3995441
9.3964261
9.3926862
9.388785
9.3850772
9.3818005
9.3790514
9.3768369
9.3750827
9.3737125
9.3726237
9.3717834
9.3711585
9.370743
9.3704703
9.4197487
9.4199848
9.420369
9.4209523
9.4217356
9.4227394
9.4240122
9.4256512
9.4277396
9.4303499
9.4334847
9.4370465
9.4408169
9.4444466
9.44749
9.4956072
9.4926998
9.4892541
9.4856935
9.4823471
9.4794144
9.4769846
9.4750523
9.4735493
9.4723888
9.4714764
9.4707561
9.4702176
9.4698675
9.4696646
9.5201913
9.5203618
9.5206772
9.5211686
9.5218194
9.5226346
9.5236692
9.525016
9.5267609
9.5289661
9.5316369
9.5346941
9.5379585
9.5411339
9.5438316
9.5922004
9.5897876
9.5869669
9.5840787
9.5813772
9.579019
9.577076
9.575545
9.5743712
9.5734711
9.5727578
9.5721797
9.5717383
9.5714578
9.5713176
9.6230477
9.6231592
9.6234044
9.6237956
9.6243012
9.6249115
9.6256718
9.6266639
9.6279652
9.6296223
9.6316328
9.6339317
9.6363854
9.6387864
9.6408531
9.6900131
9.6883226
9.686371
9.6843758
9.6824964
9.6808441
9.6794791
9.6784106
9.6776003
9.6769785
9.6764695
9.6760338
9.6756903
9.6754789
9.6753944
57.784525
58.708426
59.282605
60.174827
60.718365
61.580159
62.09694
62.929526
63.418258
64.222945
64.685718
65.46215
65.894965
66.641526
67.045227
67.760047
68.124004
68.799358
69.12796
69.764451
70.057744
70.659463
70.909866
71.464789
71.655422
72.150243
72.286643
72.721619
72.803557
73.183923
73.203048
73.512759
73.447897
73.670082
73.532161
73.673385
73.467177
73.538417
73.267691
73.261039
72.917898
72.845373
72.457527
72.31178
71.87523
71.701447
71.285238
71.106964
70.718179
70.591001
70.312391
70.282245
70.143552
70.279167
70.362702
70.720367
71.063959
71.70394
72.360142
73.320812
74.310525
75.619758
76.946815
78.608639
80.27257
82.308568
84.300583
86.71185
89.039511
91.799677
94.402446
97.371777
100.0227
102.67798
104.57046
105.49297
104.94289
101.63587
96.60342
85.8394
63.247851
71.647496
80.940183
85.742663
85.548423
88.697979
87.69171
89.483953
87.015607
87.656588
84.729299
84.705075
81.88365
81.46737
78.922981
78.302992
76.06821
75.388034
73.446626
72.82888
71.143548
70.662945
69.218802
68.941768
67.711711
67.671377
66.619104
66.808504
65.877077
66.297206
65.441683
66.047651
65.215917
65.99417
65.154715
66.043512
65.159115
66.148679
65.207411
66.236383
65.211236
66.271924
65.174391
66.233157
65.057014
66.10528
64.86608
65.887936
64.572889
65.556263
64.172142
65.098441
63.656092
64.533568
63.053211
63.879567
62.351198
63.123507
61.556833
62.265371
60.665497
61.320484
59.702717
60.304919
58.658347
59.208605
57.542553
58.035858
56.350468
56.795956
55.101204
55.495905
53.786051
54.135287
52.419559
52.72029
50.992333
51.248581
49.51761
49.725251
47.983447
43.971068
45.344068
46.646244
47.913054
49.103316
50.252516
51.317437
52.334808
53.260257
54.13138
54.904611
55.617243
56.225142
56.775254
57.226544
57.619698
57.91715
58.171354
58.3583
58.53505
58.687849
58.883052
59.122422
59.484102
59.975972
60.676485
61.585936
62.758864
64.159261
65.809281
67.630183
69.477848
71.16888
72.450425
73.006841
72.524663
70.702616
67.189372
61.872504
51.545171
36.374891
23.272759
16.00902
12.914162
11.543434
11.077266
11.347256
11.887987
13.45572
16.796169
23.939945
32.671852
40.407961
45.342416
48.43091
50.27918
51.327768
51.966429
52.014318
51.932413
51.251849
50.751208
49.754916
49.135955
48.13155
47.569745
46.697809
46.269646
45.547495
45.238703
44.620016
44.377727
43.801494
43.568993
42.979248
42.708806
42.067582
41.729539
41.025176
40.611192
39.837131
39.338691
38.485258
37.900358
36.978689
36.31813
35.342615
34.617888
33.603475
32.830462
31.794913
22.865542
23.578701
24.245456
24.8367
25.349699
25.771565
26.127013
26.444557
26.711896
26.911863
27.023336
27.013994
26.832893
26.40184
25.657689
24.527841
22.90591
20.64076
17.463952
14.118162
11.748383
10.804639
10.382986
10.598711
10.875874
11.726736
14.226744
19.367982
17.452733
12.881275
11.027051
10.930846
10.729526
10.5962
10.473641
10.410805
10.596296
10.833824
10.994512
11.294229
11.657432
12.181713
15.307943
20.944468
25.412045
34.46877
44.811598
39.580479
52.634472
51.206172
54.681244
54.3532
51.287255
50.56356
49.340614
48.130246
47.093187
45.539614
45.16552
43.904312
42.748429
41.698731
40.669888
39.660253
38.437765
37.503663
36.576184
35.752446
34.973845
34.221434
33.50197
32.808068
32.15398
31.532591
30.955815
30.421724
29.933522
29.489524
29.091904
28.738139
28.428834
28.158043
27.928988
27.73165
27.568733
27.43432
27.327846
27.238989
27.179699
27.130847
27.099312
27.081675
27.083175
27.094657
27.109343
27.127463
27.159729
27.201225
27.254677
27.311554
27.373969
27.444405
27.529968
27.596555
27.574545
27.252279
26.436127
27.460187
27.664813
27.651303
27.548431
27.446484
27.371487
27.30474
27.24629
27.195822
27.156459
27.123847
27.104659
27.090737
27.081748
27.083739
27.105422
27.141541
27.193959
27.257696
27.352542
27.467605
27.612716
27.787481
27.996171
28.238219
28.522447
28.846459
29.214186
29.625637
30.085644
30.585166
31.132384
31.7207
32.351139
33.012076
33.704447
34.424457
35.172348
35.943083
36.758916
37.741998
38.998858
39.870514
40.851684
41.8479
42.853487
43.962577
45.155215
47.112871
48.190582
49.388215
50.744804
53.912111
54.909987
55.36539
62.576011
58.349695
49.875055
43.555905
35.179895
26.161723
24.421517
22.40995
20.999984
24.627515
27.826279
29.445623
32.038893
41.12311
49.083424
52.469691
59.325311
53.661372
54.063856
53.61976
50.649201
49.463922
48.315962
47.142334
45.214042
44.229471
43.077567
42.082891
41.103529
40.150867
39.261883
38.003954
37.050945
36.229887
35.45672
34.703446
33.974117
33.274109
32.604232
31.963729
31.360806
30.797329
30.281754
29.804297
29.37386
28.987169
28.644594
28.34081
28.080606
27.856214
27.666317
27.505996
27.376069
27.266572
27.18605
27.123597
27.076469
27.041826
27.027276
27.024207
27.033448
27.04317
27.067252
27.101321
27.147371
27.201646
27.263502
27.33634
27.44106
27.577764
27.921291
27.8883
27.951918
27.918723
28.109177
28.246694
28.626999
28.975211
29.581532
30.283326
30.645418
31.03728
32.011702
32.462533
32.001268
31.111546
31.169413
30.404768
29.716335
29.118427
28.76203
28.395439
28.253334
28.084857
28.119229
28.094441
28.192407
28.076204
28.173146
28.150659
28.414342
28.331841
28.046506
26.680208
26.389077
26.184503
26.225517
26.265491
26.350435
26.581892
26.459971
26.940723
26.808847
26.514929
26.242843
26.086201
25.969891
26.114229
26.153797
26.440216
26.717048
26.823874
26.372981
26.168959
26.257497
26.189455
26.092288
26.066578
26.153759
26.117026
26.028431
26.210401
26.308822
26.487282
26.530462
26.77833
28.021535
28.286535
28.327184
28.042744
27.408818
27.383404
27.372626
25.433825
25.456437
25.327415
25.30447
25.289796
25.298523
25.306286
25.352836
25.429061
25.576581
25.721049
28.134942
28.243953
28.178181
28.08091
27.984108
27.897587
27.812924
27.731066
27.650248
27.577049
27.503688
27.438502
27.379268
27.326535
27.279137
27.239605
27.204888
27.189264
27.184012
27.234957
27.353201
26.824706
25.496295
25.528293
26.918444
27.012334
27.111525
27.289768
27.44027
27.623853
27.804824
28.034178
28.271633
28.567864
28.889295
29.194631
29.573713
29.990297
30.413064
30.91943
31.482633
32.104604
32.784265
33.511052
34.28148
35.083853
35.92226
36.7866
37.69908
38.700087
39.693046
41.051767
42.165691
43.309782
44.470456
45.687203
41.578924
41.481975
41.266086
40.866887
44.006733
45.0993
46.356332
48.479788
49.550941
50.800152
52.236706
55.569023
56.425898
56.747843
61.797793
57.86789
48.49559
43.768014
38.624241
29.412706
22.27196
18.224176
13.571393
11.265842
11.098718
12.161847
11.099911
10.602926
10.768776
10.972523
11.273319
11.530294
10.746888
16.478403
16.720022
16.945119
17.153591
17.321321
17.418554
17.444404
17.387817
17.238005
16.990576
16.637921
16.17927
15.596752
14.86108
13.960832
12.886702
11.810912
11.006604
10.484349
10.188523
9.9429505
10.025095
10.146598
10.316774
10.567155
10.877232
11.17886
11.4545
11.695742
11.900729
12.079432
12.230928
12.3523
12.440575
12.492302
12.501947
12.465004
12.401102
12.329818
12.252993
10.277043
10.292947
10.304302
10.309412
10.30652
10.294747
10.274931
10.248506
10.21681
10.18119