/*--------------------------------*- C++ -*----------------------------------*\
| =========                 |                                                 |
| \\      /  F ield         | OpenFOAM: The Open Source CFD Toolbox           |
|  \\    /   O peration     | Version:  v2012                                 |
|   \\  /    A nd           | Website:  www.openfoam.com                      |
|    \\/     M anipulation  |                                                 |
\*---------------------------------------------------------------------------*/
FoamFile
{
    version     2.0;
    format      ascii;
    class       surfaceScalarField;
    location    "100";
    object      phi;
}
// * * * * * * * * * * * * * * * * * * * * * * * * * * * * * * * * * * * * * //

dimensions      [0 3 -1 0 0 0 0];
oriented        oriented;


internalField   nonuniform List<scalar> 
96808
(
-0.0062339894
-1.6723766e-05
3.494472e-05
-3.7704473e-06
-0.0062477651
-1.567555e-05
3.2745577e-05
-3.2944062e-06
-0.0062606563
-1.4369604e-05
3.0011095e-05
-2.750217e-06
-0.0062724736
-1.2822462e-05
2.6779602e-05
-2.1398964e-06
-0.0062830285
-1.1044427e-05
2.3073296e-05
-1.4739602e-06
-0.0062921445
-9.0370351e-06
1.8903204e-05
-7.5019745e-07
-0.0062996353
-6.8067485e-06
1.427184e-05
2.5721281e-08
-0.0063052987
-4.3595939e-06
9.1856047e-06
8.3742623e-07
-0.0063089452
-1.7018311e-06
3.6532593e-06
1.695036e-06
-0.0063103739
1.131686e-06
-2.30142e-06
2.5984931e-06
-0.0063093537
4.0102158e-06
-8.5288608e-06
3.4983768e-06
-0.0063057672
7.2703598e-06
-1.5287264e-05
4.4304643e-06
-0.0062994734
1.0667981e-05
-2.2362103e-05
5.4002445e-06
-0.0062903987
1.4013325e-05
-2.9433126e-05
6.3451321e-06
-0.0062786492
1.7198859e-05
-3.6189703e-05
7.241406e-06
-0.0062645113
2.0040979e-05
-4.2227712e-05
8.0487477e-06
-0.006248467
2.2340338e-05
-4.7104547e-05
8.7199114e-06
-0.0062312052
2.3886478e-05
-5.034802e-05
9.1997578e-06
-0.0062135416
2.4567599e-05
-5.169142e-05
9.4602117e-06
2.4424616e-05
-5.1258677e-05
9.4979384e-06
0.0058484525
-3.597484e-06
-5.4780305e-06
0.0058571721
-3.2909869e-06
-5.4285944e-06
0.005865364
-2.9072325e-06
-5.2846448e-06
0.0058728628
-2.4474369e-06
-5.0514184e-06
0.005879514
-1.9142475e-06
-4.7368757e-06
0.0058851743
-1.3155194e-06
-4.344856e-06
0.0058897156
-6.5890142e-07
-3.8823888e-06
0.0058930402
3.3211985e-08
-3.3577424e-06
0.0058950556
7.6202073e-07
-2.7774857e-06
0.0058956687
1.536178e-06
-2.1492735e-06
0.0058950831
2.1981258e-06
-1.6124934e-06
0.0058932292
2.8753961e-06
-1.021563e-06
0.0058901327
3.5345171e-06
-4.3799276e-07
0.0058858553
4.1587364e-06
1.1869144e-07
0.0058804902
4.7226711e-06
6.4243833e-07
0.0058741438
5.2188967e-06
1.1275307e-06
0.0058669361
5.6502309e-06
1.5574361e-06
0.0058589972
6.0139225e-06
1.9249578e-06
6.2927335e-06
2.2436575e-06
1.2997673e-05
-0.0062155418
2.4018342e-06
2.0241172e-05
-0.0066876076
2.678007e-06
2.7820755e-05
-0.0071067505
3.1779654e-06
3.541065e-05
-0.0073552092
3.8625129e-06
4.2783016e-05
-0.0074340626
4.6237975e-06
-0.0074137151
5.471846e-06
-6.5327594e-05
-0.0073366588
-6.7375099e-05
-0.0073327909
2.260603e-05
-6.9387958e-05
-0.0073286558
2.2264757e-05
-7.1338163e-05
-0.007324296
2.1849864e-05
-7.3169346e-05
-0.0073197685
2.1332666e-05
-7.4801013e-05
-0.0073150039
2.0677805e-05
-7.6046836e-05
-0.0073100293
1.9854792e-05
-7.6837374e-05
-0.0073047753
1.8842905e-05
-7.7005934e-05
-0.0072994304
1.7630644e-05
-7.6411456e-05
-0.0072940177
1.6231907e-05
-7.4944222e-05
-0.0072888289
1.4686098e-05
-7.2542448e-05
-0.0072845392
1.3052302e-05
-6.9205012e-05
-0.0072826484
1.1407148e-05
-6.4980138e-05
-0.0072860626
9.8201504e-06
-5.9949901e-05
-0.0072994666
8.3473864e-06
-5.4212701e-05
-0.0073282616
7.0261003e-06
-4.7879303e-05
-0.0073740789
5.8813137e-06
-4.1075845e-05
-0.007425438
4.9194653e-06
-3.3942641e-05
-0.0074453072
4.1114194e-06
-2.6631589e-05
-0.0073659111
3.3908252e-06
-1.9356722e-05
-0.0071167745
2.7490762e-06
-1.2423101e-05
-0.0066968328
2.2915436e-06
-0.0062240061
2.0550674e-06
1.1690084e-05
-0.0062317068
1.6608261e-06
1.8238181e-05
-0.0067052317
1.8508598e-06
2.5123567e-05
-0.0071259074
2.2475123e-06
3.2070654e-05
-0.0073756816
2.8233995e-06
3.8882205e-05
-0.0074556003
3.4815564e-06
4.5421017e-05
-0.0074362048
4.2279761e-06
5.1555892e-05
-0.0073853383
5.1244435e-06
5.7165072e-05
-0.0073400709
6.2001449e-06
6.2139382e-05
-0.0073118912
7.450268e-06
6.637898e-05
-0.0072991559
8.8536264e-06
6.9797503e-05
-0.0072964433
1.0376397e-05
7.2339787e-05
-0.0072990473
1.1965762e-05
7.3997743e-05
-0.0073040412
1.3554352e-05
7.4822859e-05
-0.0073099095
1.5066644e-05
7.4913776e-05
-0.0073159653
1.6443965e-05
7.4399474e-05
-0.0073219093
1.7648319e-05
7.341693e-05
-0.0073277123
1.8665509e-05
7.2092695e-05
-0.0073331841
1.9504519e-05
7.0521038e-05
-0.0073383826
2.0185722e-05
6.8857208e-05
-0.0073433695
2.0737309e-05
6.7107978e-05
-0.0073480999
2.1193298e-05
6.525535e-05
-0.0073525202
2.1581895e-05
-0.0073567098
2.192408e-05
-6.4850468e-05
-0.0073756107
2.0549922e-05
-6.6432264e-05
-0.0073710902
2.0151815e-05
-6.792885e-05
-0.007366315
1.9711662e-05
-6.9314449e-05
-0.0073611939
1.9210059e-05
-7.0541529e-05
-0.0073557755
1.8620029e-05
-7.1531817e-05
-0.0073501064
1.791252e-05
-7.2182386e-05
-0.0073441233
1.7061534e-05
-7.2374367e-05
-0.007337766
1.6048695e-05
-7.1981724e-05
-0.0073312248
1.4866877e-05
-7.0890076e-05
-0.0073245316
1.3530533e-05
-6.9016203e-05
-0.0073179922
1.2077169e-05
-6.632225e-05
-0.0073123047
1.056351e-05
-6.2827282e-05
-0.0073090009
9.0626953e-06
-5.8593798e-05
-0.0073110268
7.6374541e-06
-5.3712112e-05
-0.0073231095
6.3365796e-06
-4.828156e-05
-0.007350689
5.1875926e-06
-4.2408388e-05
-0.00739542
4.2085887e-06
-3.6206969e-05
-0.0074458069
3.4006918e-06
-2.9796633e-05
-0.0074647476
2.736887e-06
-2.3298617e-05
-0.0073843386
2.1589674e-06
-1.688452e-05
-0.0071339843
1.6628415e-06
-1.0806292e-05
-0.0067126457
1.3357759e-06
-0.0062384916
1.1974282e-06
9.7847498e-06
-0.0062442235
6.6980269e-07
1.5308966e-05
-0.0067189149
7.4496205e-07
2.1165278e-05
-0.0071408334
9.9276294e-07
2.713427e-05
-0.0073917078
1.400267e-06
3.3067109e-05
-0.0074725648
1.8843759e-06
3.8860779e-05
-0.0074540489
2.4483441e-06
4.4409907e-05
-0.0074041137
3.1445185e-06
4.9610538e-05
-0.0073598896
3.9999433e-06
5.4361867e-05
-0.0073328777
5.0168636e-06
5.8566367e-05
-0.0073214138
6.1824743e-06
6.213088e-05
-0.0073200411
7.4756162e-06
6.4984889e-05
-0.0073240135
8.8547276e-06
6.7096894e-05
-0.0073303668
1.0262547e-05
6.8487639e-05
-0.007337554
1.1631635e-05
6.9222515e-05
-0.0073448664
1.2906729e-05
6.939769e-05
-0.0073519924
1.405122e-05
6.9123846e-05
-0.0073588978
1.5048343e-05
6.8508759e-05
-0.0073653947
1.5903358e-05
6.7640163e-05
-0.007371541
1.6634078e-05
6.6584453e-05
-0.0073774013
1.7263052e-05
6.5389828e-05
-0.0073829347
1.7814332e-05
6.4086564e-05
-0.0073880974
1.8310453e-05
6.2686927e-05
-0.0073929809
1.8769892e-05
6.119052e-05
-0.0073975872
1.9207828e-05
-0.0074020116
1.9635945e-05
-6.05492e-05
-0.0074182003
1.7589818e-05
-6.1810428e-05
-0.0074134204
1.7094343e-05
-6.2939987e-05
-0.0074084415
1.6590095e-05
-6.3942592e-05
-0.0074031628
1.6067992e-05
-6.48087e-05
-0.0073975835
1.5514971e-05
-6.5505237e-05
-0.0073916187
1.4913968e-05
-6.5984047e-05
-0.0073853094
1.4247162e-05
-6.61681e-05
-0.0073787063
1.3495694e-05
-6.6047352e-05
-0.0073716583
1.2639844e-05
-6.5467492e-05
-0.0073642373
1.1665066e-05
-6.4356614e-05
-0.0073565484
1.0571139e-05
-6.2640119e-05
-0.0073486471
9.376641e-06
-6.0273235e-05
-0.0073408508
8.1171549e-06
-5.7255055e-05
-0.0073338776
6.8460196e-06
-5.3631317e-05
-0.0073292868
5.6219904e-06
-4.9481012e-05
-0.0073300595
4.4954291e-06
-4.4898666e-05
-0.007340958
3.4980184e-06
-3.9978888e-05
-0.0073674534
2.6439887e-06
-3.481423e-05
-0.0074112171
1.9388273e-06
-2.9496744e-05
-0.0074607433
1.3768952e-06
-2.4115579e-05
-0.007478879
9.3302713e-07
-1.8753487e-05
-0.0073976315
5.6157466e-07
-1.3529302e-05
-0.0071463204
2.6281423e-07
-8.6289681e-06
-0.006723923
1.077592e-07
-0.0062487947
1.0097856e-07
7.3583498e-06
-0.0062521168
-5.0169492e-07
1.157277e-05
-0.0067275658
-5.7161256e-07
1.6094873e-05
-0.0071503204
-5.2212148e-07
2.0782787e-05
-0.0074019736
-3.4580984e-07
2.5545658e-05
-0.0074835377
-1.0410467e-07
3.0323574e-05
-0.0074657212
2.0002655e-07
3.5046332e-05
-0.0074165447
6.0484273e-07
3.9636301e-05
-0.0073731768
1.1334244e-06
4.4010437e-05
-0.0073471275
1.7953075e-06
4.8079407e-05
-0.007336721
2.5924804e-06
5.1747944e-05
-0.0073364749
3.5195303e-06
5.4927882e-05
-0.0073416138
4.5562349e-06
5.7559523e-05
-0.0073491449
5.6623777e-06
5.9620805e-05
-0.0073574972
6.7887284e-06
6.1131962e-05
-0.0073659439
7.8843537e-06
6.2143652e-05
-0.0073741645
8.9154708e-06
6.2748726e-05
-0.007382124
9.8605984e-06
6.2957937e-05
-0.0073896308
1.0715251e-05
6.2914816e-05
-0.007396754
1.1487792e-05
6.2582162e-05
-0.0074034793
1.2193285e-05
6.2046952e-05
-0.0074098931
1.28448e-05
6.1385027e-05
-0.0074159551
1.3454273e-05
6.0541173e-05
-0.0074216363
1.4038743e-05
5.9532776e-05
-0.0074270212
1.4609279e-05
-0.0074321939
1.5173169e-05
-5.8102538e-05
-0.0074436691
1.24151e-05
-5.884369e-05
-0.0074380646
1.1784474e-05
-5.939033e-05
-0.007432238
1.1148253e-05
-5.9741493e-05
-0.0074261054
1.0501423e-05
-5.9886474e-05
-0.007419583
9.8348653e-06
-5.9794677e-05
-0.0074127048
9.1336713e-06
-5.9428515e-05
-0.0074055119
8.3917612e-06
-5.8727928e-05
-0.0073979318
7.6004551e-06
-5.7709102e-05
-0.0073898951
6.7522434e-06
-5.6251249e-05
-0.0073814682
5.845906e-06
-5.43271e-05
-0.0073727592
4.8910811e-06
-5.1912901e-05
-0.0073638237
3.912332e-06
-4.9016056e-05
-0.0073549847
2.9430352e-06
-4.5682418e-05
-0.0073469771
2.0295997e-06
-4.1988824e-05
-0.0073413793
1.2108446e-06
-3.8030844e-05
-0.0073411929
5.1394521e-07
-3.3903285e-05
-0.0073512017
-5.3329496e-08
-2.9689317e-05
-0.0073768936
-4.9711182e-07
-2.5460386e-05
-0.0074199475
-8.2616894e-07
-2.1277147e-05
-0.0074688497
-1.0547613e-06
-1.7189447e-05
-0.0074864208
-1.2046129e-06
-1.3234922e-05
-0.0074046222
-1.3058907e-06
-9.4730278e-06
-0.0071527315
-1.3507539e-06
-6.0017708e-06
-0.0067297476
-1.289416e-06
-0.0062541055
-1.1377436e-06
4.5850355e-06
-0.0062547039
-1.7884708e-06
7.2746975e-06
-0.0067304113
-2.0260484e-06
1.0238387e-05
-0.0071534933
-2.2018565e-06
1.3413869e-05
-0.007405503
-2.2947453e-06
1.6779258e-05
-0.007487442
-2.3441761e-06
2.0320764e-05
-0.0074700309
-2.360295e-06
2.4010788e-05
-0.007421315
-2.3225153e-06
2.7805767e-05
-0.0073784785
-2.2101267e-06
3.1647821e-05
-0.0073530389
-2.0048407e-06
3.5462189e-05
-0.0073433181
-1.6891395e-06
3.9155244e-05
-0.0073438264
-1.2459825e-06
4.262571e-05
-0.0073497768
-6.7076639e-07
4.577849e-05
-0.0073581616
2.4041713e-08
4.8540979e-05
-0.0073674002
8.1402635e-07
5.087804e-05
-0.0073767547
1.6584878e-06
5.2784968e-05
-0.007385899
2.5238332e-06
5.4285024e-05
-0.0073947757
3.3805676e-06
5.5415499e-05
-0.007403275
4.2127574e-06
5.6213665e-05
-0.0074113242
5.0141157e-06
5.6712372e-05
-0.007418989
5.785524e-06
5.6941226e-05
-0.0074263438
6.5319482e-06
5.692849e-05
-0.0074333449
7.2522133e-06
5.6687149e-05
-0.0074399552
7.9585894e-06
5.6222753e-05
-0.0074462569
8.6566885e-06
-0.0074523308
9.3501124e-06
-5.3867692e-05
-0.0074579325
6.034472e-06
-5.4052826e-05
-0.0074513598
5.2881168e-06
-5.3987013e-05
-0.0074445585
4.5374419e-06
-5.366198e-05
-0.0074374498
3.7798714e-06
-5.3063864e-05
-0.0074299574
3.0154624e-06
-5.2169618e-05
-0.0074221199
2.2366215e-06
-5.0953417e-05
-0.0074139875
1.4470279e-06
-4.9385307e-05
-0.0074054899
6.467819e-07
-4.7438527e-05
-0.0073965643
-1.5817949e-07
-4.5097034e-05
-0.0073872861
-9.544297e-07
-4.2363734e-05
-0.0073777698
-1.7181776e-06
-3.9271438e-05
-0.0073680764
-2.4161267e-06
-3.5886412e-05
-0.0073585333
-3.0132328e-06
-3.2312761e-05
-0.0073498793
-3.4711228e-06
-2.8659435e-05
-0.0073436969
-3.7828358e-06
-2.5028945e-05
-0.0073429942
-3.9544047e-06
-2.1511519e-05
-0.0073525529
-4.0034277e-06
-1.8173988e-05
-0.0073778587
-3.9573116e-06
-1.5061791e-05
-0.0074205856
-3.8415919e-06
-1.2200427e-05
-0.0074692145
-3.6777805e-06
-9.595946e-06
-0.0074865627
-3.4837702e-06
-7.2326728e-06
-0.0074045943
-3.2719308e-06
-5.097137e-06
-0.007152601
-3.0278829e-06
-3.2011686e-06
-0.0067295837
-2.723487e-06
-0.0062539791
-2.3897474e-06
1.6765818e-06
-0.0062518467
-3.0470056e-06
2.7913918e-06
-0.0067272494
-3.4491529e-06
4.1193394e-06
-0.0071500638
-3.8651047e-06
5.6876098e-06
-0.0074019123
-4.2502655e-06
7.541389e-06
-0.0074837972
-4.6192968e-06
9.725725e-06
-0.0074664098
-4.9890216e-06
1.2259788e-05
-0.0074177652
-5.3545068e-06
1.5138257e-05
-0.0073750371
-5.700093e-06
1.8330868e-05
-0.0073497458
-5.9997795e-06
2.1780728e-05
-0.007340225
-6.2190441e-06
2.5399169e-05
-0.0073409972
-6.318069e-06
2.9069192e-05
-0.0073472865
-6.2628615e-06
3.2661724e-05
-0.0073560911
-6.0348143e-06
3.6052895e-05
-0.0073658333
-5.6342337e-06
3.9147659e-05
-0.0073757747
-5.0899517e-06
4.1883445e-05
-0.007385585
-4.4368926e-06
4.423065e-05
-0.0073951992
-3.7123604e-06
4.6185819e-05
-0.0074044958
-2.949319e-06
4.7763956e-05
-0.0074133958
-2.1698206e-06
4.9001072e-05
-0.0074219648
-1.3922276e-06
4.9939723e-05
-0.0074302766
-6.1943213e-07
5.0587511e-05
-0.0074382716
1.740415e-07
5.0949433e-05
-0.0074458886
9.6819081e-07
5.1034508e-05
-0.0074532033
1.7584216e-06
2.5452066e-06
-4.7578612e-05
-0.0074517467
-1.7662269e-06
-4.6957614e-05
-0.0074439363
-2.5733036e-06
-4.6013141e-05
-0.0074358316
-3.3844495e-06
-4.4724514e-05
-0.0074273664
-4.1988436e-06
-4.3072417e-05
-0.0074186013
-5.0155788e-06
-4.1047684e-05
-0.0074096005
-5.8200097e-06
-3.8644106e-05
-0.0074003034
-6.59593e-06
-3.5863396e-05
-0.0073906575
-7.3224147e-06
-3.2726291e-05
-0.0073807527
-7.9694133e-06
-2.9284522e-05
-0.0073707152
-8.5011892e-06
-2.5626003e-05
-0.0073606142
-8.8776523e-06
-2.1871862e-05
-0.00735078
-9.0652496e-06
-1.8167569e-05
-0.0073419478
-9.042906e-06
-1.4652257e-05
-0.0073356875
-8.825045e-06
-1.1442458e-05
-0.0073349878
-8.446987e-06
-8.6218614e-06
-0.0073446102
-7.95618e-06
-6.2374398e-06
-0.0073700186
-7.4028559e-06
-4.3051874e-06
-0.0074128681
-6.8293191e-06
-2.8126554e-06
-0.0074616362
-6.2661325e-06
-1.7195669e-06
-0.0074791637
-5.7266346e-06
-9.5989342e-07
-0.0073974649
-5.2071341e-06
-4.6222224e-07
-0.0071458733
-4.6882524e-06
-1.6713428e-07
-0.0067233793
-4.1652196e-06
-0.0062482949
-3.6856893e-06
-1.2641756e-06
-0.0062434329
-4.2567729e-06
-1.7600078e-06
-0.0067180755
-4.8078794e-06
-2.0769126e-06
-0.0071401197
-5.4366642e-06
-2.1167073e-06
-0.007391338
-6.0870967e-06
-1.7764362e-06
-0.0074727538
-6.7501247e-06
-9.7260433e-07
-0.0074549916
-7.4484725e-06
3.5421834e-07
-0.0074059987
-8.1961952e-06
2.2324387e-06
-0.0073629144
-8.9824249e-06
4.6577474e-06
-0.0073372609
-9.7746242e-06
7.590499e-06
-0.0073273971
-1.0523516e-05
1.095174e-05
-0.0073278801
-1.1168614e-05
1.4622525e-05
-0.0073339684
-1.1650184e-05
1.8452716e-05
-0.0073426903
-1.191989e-05
2.2279802e-05
-0.0073524875
-1.1953718e-05
2.5959964e-05
-0.0073626313
-1.176408e-05
2.9382187e-05
-0.0073727915
-1.1383374e-05
3.247377e-05
-0.0073828961
-1.0852979e-05
3.5198144e-05
-0.0073928132
-1.0214598e-05
3.7545236e-05
-0.007402445
-9.502623e-06
3.9521433e-05
-0.0074118336
-8.7438711e-06
4.1142444e-05
-0.007421033
-7.9544022e-06
4.2427798e-05
-0.0074299731
-7.1439027e-06
4.3395367e-05
-0.0074385843
-6.3195652e-06
-0.007446924
-5.4863887e-06
-3.8587523e-05
-0.0074386331
-9.1913478e-06
-3.7372224e-05
-0.0074298158
-9.9837763e-06
-3.5828914e-05
-0.0074207532
-1.0763205e-05
-3.3938125e-05
-0.0074113986
-1.1525221e-05
-3.1682203e-05
-0.0074018296
-1.2259936e-05
-2.9053048e-05
-0.0073921222
-1.2951936e-05
-2.6054231e-05
-0.0073822329
-1.3579079e-05
-2.2706739e-05
-0.0073721316
-1.4111965e-05
-1.9062069e-05
-0.0073619246
-1.4511535e-05
-1.5212165e-05
-0.0073517487
-1.4732517e-05
-1.1288279e-05
-0.0073416783
-1.4733132e-05
-7.4519329e-06
-0.0073320428
-1.4483766e-05
-3.8776091e-06
-0.0073235629
-1.3979821e-05
-7.213283e-07
-0.0073177811
-1.3255368e-05
1.8980606e-06
-0.0073176473
-1.2369118e-05
3.9058236e-06
-0.007327879
-1.1389612e-05
5.2708773e-06
-0.0073538953
-1.0384201e-05
5.9993114e-06
-0.0073973196
-9.4075923e-06
6.1326079e-06
-0.0074466293
-8.4955404e-06
5.7451699e-06
-0.0074647112
-7.6551723e-06
4.9417091e-06
-0.007383671
-6.8634812e-06
3.851956e-06
-0.0071329357
-6.0942423e-06
2.6133278e-06
-0.006711467
-5.3699018e-06
-0.0062373782
-4.7568235e-06
-3.846873e-06
-0.0062302608
-5.1848234e-06
-5.7701854e-06
-0.0067036919
-5.8518326e-06
-7.5727149e-06
-0.00712448
-6.6531824e-06
-9.0841641e-06
-0.0073746421
-7.5174379e-06
-1.0151324e-05
-0.0074552299
-8.4141945e-06
-1.0652784e-05
-0.0074367557
-9.3721959e-06
-1.0500947e-05
-0.0073870502
-1.0421177e-05
-9.643174e-06
-0.0073431982
-1.1554881e-05
-8.0641255e-06
-0.0073167216
-1.2736423e-05
-5.7883162e-06
-0.0073060148
-1.3908324e-05
-2.8863188e-06
-0.0073056836
-1.4999493e-05
5.2471651e-07
-0.0073110392
-1.5934796e-05
4.2868174e-06
-0.0073191566
-1.6648329e-05
8.219173e-06
-0.0073285105
-1.7100114e-05
1.2147876e-05
-0.0073383894
-1.728801e-05
1.5924734e-05
-0.0073484639
-1.7237566e-05
1.944129e-05
-0.0073586602
-1.6987984e-05
2.263731e-05
-0.0073688437
-1.6585295e-05
2.5485029e-05
-0.0073788986
-1.607127e-05
2.7969812e-05
-0.0073888368
-1.5477636e-05
3.0091658e-05
-0.0073986919
-1.4828508e-05
3.1869865e-05
-0.0074083888
-1.4142537e-05
3.3326128e-05
-0.0074178412
-1.3430899e-05
-0.007427077
-1.2699416e-05
-2.7651269e-05
-0.0074125251
-1.5925996e-05
-2.5973376e-05
-0.007402957
-1.6562052e-05
-2.4027232e-05
-0.0073931638
-1.7171144e-05
-2.1747322e-05
-0.0073832232
-1.7748588e-05
-1.9072858e-05
-0.0073732293
-1.828188e-05
-1.6054292e-05
-0.0073631676
-1.8749649e-05
-1.2758716e-05
-0.0073530135
-1.9125777e-05
-9.1785629e-06
-0.0073428617
-1.9378658e-05
-5.3399243e-06
-0.007332836
-1.9466554e-05
-1.4263352e-06
-0.007322959
-1.9344011e-05
2.4246321e-06
-0.0073133865
-1.8974962e-05
6.033207e-06
-0.0073044255
-1.8339703e-05
9.2173321e-06
-0.0072967766
-1.7446751e-05
1.1820086e-05
-0.0072919462
-1.634014e-05
1.3727747e-05
-0.0072928341
-1.5088339e-05
1.4875568e-05
-0.0073041012
-1.3768237e-05
1.524346e-05
-0.0073311128
-1.2453291e-05
1.4852558e-05
-0.007375457
-1.1202295e-05
1.3764408e-05
-0.0074256151
-1.0052426e-05
1.2078338e-05
-0.0074445367
-9.0070926e-06
9.9269171e-06
-0.0073644597
-8.0309937e-06
7.4830249e-06
-0.0071149431
-7.0929901e-06
4.9464585e-06
-0.0066949229
-6.2324342e-06
-0.0062222363
-5.5254805e-06
-5.8978492e-06
-0.0062134721
-5.7735429e-06
-8.9660533e-06
-0.0066853516
-6.5030414e-06
-1.1967432e-05
-0.0071045393
-7.4024009e-06
-1.4680163e-05
-0.0073533573
-8.3897221e-06
-1.6916036e-05
-0.0074328833
-9.4175201e-06
-1.8532441e-05
-0.0074134817
-1.0516956e-05
-1.9421742e-05
-0.0073628383
-1.1729428e-05
-1.9517574e-05
-0.0073179619
-1.3055058e-05
-1.879536e-05
-0.0072903656
-1.4457797e-05
-1.7271195e-05
-0.0072784798
-1.5878475e-05
-1.5005128e-05
-0.0072769679
-1.7244302e-05
-1.2106098e-05
-0.0072811957
-1.8479934e-05
-8.7270483e-06
-0.0072882862
-1.9518312e-05
-5.0467857e-06
-0.0072967541
-2.0312731e-05
-1.2450274e-06
-0.0073059118
-2.0848927e-05
2.5180926e-06
-0.0073154573
-2.1141812e-05
6.1175722e-06
-0.0073252379
-2.1223223e-05
9.4742797e-06
-0.0073352352
-2.1135011e-05
1.2543399e-05
-0.0073453201
-2.0916617e-05
1.5296468e-05
-0.0073553825
-2.0599864e-05
1.7723131e-05
-0.0073654389
-2.0210979e-05
1.9835504e-05
-0.0073755057
-1.9770522e-05
2.1651927e-05
-0.0073854822
-1.9291225e-05
-0.007395275
-1.877933e-05
-1.5435736e-05
-2.1188646e-05
-1.3507346e-05
-2.1549777e-05
-1.1302987e-05
-2.1874079e-05
-8.8108021e-06
-2.2154218e-05
-6.026579e-06
-2.2378146e-05
-2.9618869e-06
-2.2526944e-05
3.532838e-07
-2.2575408e-05
3.8651873e-06
-2.2492117e-05
7.4857059e-06
-0.0072968365
-2.2241297e-05
1.1089467e-05
-0.0072877279
-2.1787629e-05
1.4520336e-05
-0.0072790803
-2.1104684e-05
1.7603759e-05
-0.0072711873
-2.0182346e-05
2.0168316e-05
-0.0072647225
-1.9037705e-05
2.2069501e-05
-0.0072611536
-1.7715537e-05
2.3204151e-05
-0.0072633334
-1.628111e-05
2.351481e-05
-0.0072758687
-1.4807593e-05
2.298855e-05
-0.0073040724
-1.3363271e-05
2.1652067e-05
-0.0073494974
-1.2004434e-05
1.9573575e-05
-0.0074006383
-1.0765e-05
1.6864437e-05
-0.0074205317
-9.6424819e-06
1.3675226e-05
-0.0073415774
-8.5906507e-06
1.0205401e-05
-0.0070934911
-7.5784157e-06
6.6926637e-06
-0.0066751784
-6.6604586e-06
-0.0062041474
-5.9231075e-06
-7.3240319e-06
-5.9716638e-06
-1.1193091e-05
-6.7043209e-06
-1.504255e-05
-7.6197405e-06
-1.8621836e-05
-8.6321529e-06
-2.1724359e-05
-9.6818509e-06
-2.4196032e-05
-1.0798797e-05
-2.5924941e-05
-1.203418e-05
-2.6841943e-05
-1.3393208e-05
-2.6922035e-05
-1.4837403e-05
-2.6176728e-05
-1.6319171e-05
-2.4658947e-05
-1.7775762e-05
-2.2464705e-05
-1.914034e-05
-1.9728409e-05
-2.0352978e-05
-1.6610192e-05
-2.1371119e-05
-1.3275465e-05
-2.2176223e-05
-2.2773323e-05
-0.00044396518
6.1136007e-05
1.4019054e-05
-0.00032043567
4.4126694e-05
-0.00022217677
5.4520563e-05
-0.00041554347
3.0408672e-05
6.8885652e-05
-4.1865228e-06
-0.00026988255
3.3104397e-05
-0.0002196554
4.0890086e-05
-0.00029561146
2.8962295e-05
7.2824293e-06
-1.0515812e-05
-0.00016308772
2.4065657e-05
-0.00015987497
3.2855794e-06
-2.5788599e-05
0.00012655124
-0.00042293896
0.0001590886
4.3610204e-05
0.00014642468
-0.00030791284
9.208935e-05
0.00015597384
-0.00011691059
4.5469574e-06
2.3497969e-06
0.00015747947
-3.855427e-06
-1.4417932e-06
0.00016519607
-1.4979796e-05
0.00017096977
-2.1794671e-05
0.00020312223
1.7724199e-05
-2.0914365e-05
0.00023453468
1.8846632e-05
-1.7154682e-05
0.00025178062
2.4109246e-05
-1.094652e-05
0.00026483154
4.1921345e-05
-1.0845564e-05
7.6328865e-05
-1.871082e-05
-0.00013373543
9.1564447e-05
-0.00013351642
4.3406441e-05
-1.6573284e-05
0.00013768554
-0.00042799844
0.00017315075
-3.3000503e-06
0.00020932812
-0.00043340734
0.00021080598
-1.3011178e-06
0.00022442452
-0.00044358501
0.00021716155
-9.0305718e-07
0.00022884796
-0.00044802449
0.00021877847
-7.6290267e-07
0.00023076768
-0.00045089026
0.00021998242
-4.2804722e-07
0.00023191903
-0.00045367995
0.00022142607
-8.6561684e-08
0.0002326016
-0.00045485976
0.00022191667
1.0864589e-08
0.0002329664
-0.00045463049
0.00022156667
1.1730867e-07
0.00023334799
-0.00045529692
0.00022184248
4.7702255e-07
0.00023398026
-0.00045711213
0.00022277215
8.0659418e-07
0.00023450385
-0.00045780334
0.00022296992
9.1705835e-07
0.00023456725
-0.00045727767
0.00022259995
1.1421718e-06
0.00023483665
-0.00045789048
0.00022282872
1.6605502e-06
0.00023541238
-0.00045960073
0.00022366997
2.1793209e-06
0.00023563649
-0.00046002359
0.00022386833
2.4641439e-06
0.00023569829
-0.00045942763
0.00022344452
2.8671415e-06
0.00023604923
-0.00046008971
0.00022363749
3.6107878e-06
0.00023664848
-0.00046194025
0.00022454813
4.4137405e-06
0.00023706831
-0.00046258909
0.00022471784
4.9608743e-06
0.0002373003
-0.00046202419
0.00022417675
5.5810377e-06
0.00023734397
-0.0004621861
0.00022422197
6.4380743e-06
0.00023739784
-0.00046315734
0.00022490246
7.1194209e-06
0.00023723804
-0.00046253776
0.00022461837
7.0458885e-06
0.00023664008
-0.00045992526
0.00022335871
5.2146189e-06
0.00023603133
-0.00045651436
0.0002223143
-9.5925381e-06
0.00023823509
-0.00044656095
0.00022313302
-0.00012374905
0.0002663448
-0.0004011452
0.00024895691
-0.00012599502
9.5551531e-05
-0.00014198555
4.8679991e-05
-8.1999859e-06
0.0001356608
-0.00041907358
0.00016561774
6.1310251e-06
0.00020360214
-0.00041512479
0.00019719164
9.4665915e-06
0.00021156421
-0.00041367375
0.00019877397
4.8346696e-06
0.00021201586
-0.00038853968
0.00018115574
4.2455343e-05
0.00016549048
-0.00029105889
8.7947735e-05
0.00016163987
-0.00012267433
3.4898043e-06
8.5574109e-07
0.00016571457
-4.9304476e-06
-5.9450676e-06
0.00018914655
-1.6855261e-05
-5.9670598e-06
0.00025934262
-4.7304772e-05
-8.629934e-06
0.00026836598
-5.4138893e-05
-1.8294328e-05
0.0002671108
-5.3844265e-05
0.00025747567
-4.4557667e-05
-2.3194197e-05
0.00031640004
2.0143366e-05
-5.5873539e-05
-7.6176688e-08
0.00030983505
-6.6608277e-05
-2.7797904e-06
0.00030083407
-5.9895366e-05
-4.4542271e-06
0.00029726985
-5.9564079e-05
-4.8304713e-06
0.00029667728
-5.9660961e-05
-4.6397282e-06
0.00029672984
-5.9682548e-05
-4.2177718e-06
0.00029662237
-5.964648e-05
-3.7033257e-06
0.00029638069
-5.9551167e-05
-3.2063558e-06
0.00029618337
-5.9380036e-05
-2.7237886e-06
0.00029581267
-5.9226926e-05
-2.2839019e-06
0.00029531489
-5.9106295e-05
-1.9213705e-06
0.00029472909
-5.9042393e-05
-1.6244034e-06
0.00029431805
-5.891673e-05
-1.3293573e-06
0.0002940976
-5.8756157e-05
-1.0366023e-06
0.00029376042
-5.8640792e-05
-7.9316114e-07
0.00029321071
-5.8617503e-05
-6.1872916e-07
0.00029296462
-5.8571804e-05
-4.4977043e-07
0.00029275998
-5.8425091e-05
-3.019513e-07
0.00029217118
-5.8338737e-05
-1.7029674e-07
0.00029147982
-5.8263479e-05
-4.7167001e-08
0.00029095774
-5.8114468e-05
3.0241011e-08
0.00029045804
-5.7933849e-05
2.2245338e-08
0.00028966362
-5.7736594e-05
-1.2656884e-07
0.00028837489
-5.745839e-05
-6.6351273e-07
0.00028642223
-5.7037331e-05
-2.4555082e-06
0.000282359
-5.6142487e-05
-1.2459286e-05
0.00027288198
-5.3550086e-05
0.00026041228
-4.3621577e-05
0.00031762552
1.1029497e-05
-5.475948e-05
0.00034918409
3.8519174e-06
-3.5355932e-05
0.00036986808
4.9438421e-07
-2.2193686e-05
-9.1705795e-08
-1.6882221e-05
-0.00037095607
3.5829924e-07
-1.6116158e-05
-0.00035185887
1.1971326e-06
-1.9799953e-05
-0.0003222411
3.025905e-06
-2.8791749e-05
4.7657774e-06
-4.3095401e-05
0.00032641165
1.7824539e-06
-4.1069327e-05
0.00035316752
1.6722705e-06
-2.5402228e-05
0.00037155015
1.0253761e-06
-1.8210878e-05
4.9325938e-07
-1.5544226e-05
-0.00037178012
5.0772607e-07
-1.5291974e-05
-0.00035384625
7.0327194e-07
-1.7611761e-05
-0.00032844307
8.1767392e-07
-2.4548579e-05
6.4786665e-07
-4.0886253e-05
0.00032976348
2.287618e-07
-4.0969484e-05
0.00035452086
4.3389673e-07
-2.4373607e-05
0.00037216616
5.0254893e-07
-1.7444571e-05
0.00038734381
5.1116606e-07
-1.5181092e-05
0.00040224299
5.2201866e-07
-1.5002315e-05
0.00041693951
5.8774621e-07
-1.4893472e-05
0.00043169899
6.8407115e-07
-1.4970705e-05
7.7480247e-07
-1.7663493e-05
-0.00043215004
9.9436249e-07
-1.7610291e-05
-0.00041738871
8.513553e-07
-1.4928608e-05
-0.00040273788
7.7198398e-07
-1.4835075e-05
-0.00038791646
6.3696571e-07
-1.4936365e-05
-0.00037281849
5.4351936e-07
-1.5130325e-05
-0.00035535494
4.2932412e-07
-1.7390321e-05
-0.00033085437
3.1047299e-07
-2.4377145e-05
1.0779572e-07
-4.1069791e-05
0.00033157044
1.4443822e-07
-4.1149042e-05
0.0003559938
3.5511589e-07
-2.4468008e-05
0.00037329951
5.1662929e-07
-1.7393015e-05
0.00038834702
6.4537165e-07
-1.5149362e-05
0.00040303938
8.5518102e-07
-1.4910572e-05
0.0004176735
9.8679304e-07
-1.4848932e-05
0.0004324034
1.045045e-06
-1.4923587e-05
1.239358e-06
-1.7617421e-05
-0.00043247617
1.552661e-06
-1.7622189e-05
-0.00041790725
1.3854229e-06
-1.49093e-05
-0.00040325869
1.2544892e-06
-1.4916263e-05
-0.00038852842
1.0992523e-06
-1.4974333e-05
-0.00037361032
8.6972524e-07
-1.5142454e-05
-0.00035638344
7.3809767e-07
-1.7448351e-05
-0.00033197212
5.1307704e-07
-2.4569285e-05
3.117351e-07
-4.1181675e-05
0.00033249588
5.2895648e-07
-4.1233283e-05
0.00035687062
7.3725114e-07
-2.4598917e-05
0.00037409218
1.0039129e-06
-1.7487369e-05
0.00038888321
1.1713889e-06
-1.5092697e-05
0.00040376465
1.2578636e-06
-1.5040049e-05
0.00041840403
1.5678532e-06
-1.495274e-05
0.00043282285
1.855751e-06
-1.4889153e-05
0.00044997923
1.9658026e-06
-1.7569518e-05
0.00048475807
2.0614466e-06
-3.4939078e-05
0.00060484591
2.3167661e-06
-0.00011982725
-0.00060359423
6.584767e-06
-0.0003349611
-0.00048500902
3.564431e-06
-0.00011983288
-0.00045056345
2.4353399e-06
-3.4819461e-05
-0.00043339141
2.3512621e-06
-1.7557496e-05
-0.00041884274
2.2018661e-06
-1.4894787e-05
-0.00040422798
1.84249e-06
-1.4889395e-05
-0.00038960896
1.5343951e-06
-1.489555e-05
-0.00037480393
1.4577534e-06
-1.50914e-05
-0.00035758018
1.2537362e-06
-1.7473573e-05
-0.000333255
9.7744873e-07
-2.4565379e-05
7.3857167e-07
-4.1293437e-05
0.00033386232
9.9106467e-07
-4.1354832e-05
0.00035811063
1.2761201e-06
-2.454698e-05
0.00037538984
1.4862206e-06
-1.7511701e-05
0.00039023304
1.7786667e-06
-1.5164109e-05
0.00040454036
2.0071123e-06
-1.4780032e-05
0.00041911422
2.1325492e-06
-1.4863919e-05
0.00043379776
2.4695421e-06
-1.4951216e-05
0.00045103224
2.7444894e-06
-1.7627716e-05
0.00048518019
2.9960603e-06
-3.4708663e-05
0.00060543921
3.1193546e-06
-0.00011981395
-0.00060363016
8.4889845e-06
-0.00033529435
-0.00048522434
4.7102852e-06
-0.00011999675
-0.00045111592
3.634487e-06
-3.4746839e-05
-0.00043388835
3.1810381e-06
-1.766412e-05
-0.00041925752
2.8395025e-06
-1.5000792e-05
-0.00040483556
2.5664546e-06
-1.4855867e-05
-0.00039042682
2.4770587e-06
-1.4878689e-05
-0.00037560525
2.168478e-06
-1.5211378e-05
-0.0003583727
1.7848143e-06
-1.7531146e-05
-0.00033410754
1.6397893e-06
-2.4628821e-05
1.3064691e-06
-4.1458327e-05
0.00033446385
1.6413835e-06
-4.1588054e-05
0.0003588511
2.023592e-06
-2.4771053e-05
0.00037584611
2.2414563e-06
-1.7451653e-05
0.00039067958
2.5866801e-06
-1.5251669e-05
0.00040524732
2.9325442e-06
-1.5023228e-05
0.00041954744
3.1177693e-06
-1.4851432e-05
0.00043408862
3.3368856e-06
-1.5038567e-05
0.00045128316
3.6786874e-06
-1.7692195e-05
0.00048569352
4.1112164e-06
-3.4887087e-05
0.0006062541
4.1300252e-06
-0.00011998032
-0.00060411514
1.1407102e-05
-0.00033564476
-0.00048613181
6.234533e-06
-0.00012008784
-0.00045172
4.6075101e-06
-3.4908099e-05
-0.00043458748
4.1991139e-06
-1.7652951e-05
-0.00042013426
3.8747731e-06
-1.4991112e-05
-0.00040585615
3.6619527e-06
-1.4822289e-05
-0.00039123868
3.3597704e-06
-1.5044694e-05
-0.00037643632
3.0174944e-06
-1.5233173e-05
-0.00035954209
2.7214633e-06
-1.7374236e-05
-0.0003350793
2.3903017e-06
-2.4829503e-05
1.9860977e-06
-4.1663597e-05
0.00033547674
2.3744355e-06
-4.1767486e-05
0.00035995015
2.79363e-06
-2.4876732e-05
0.00037689129
3.2151973e-06
-1.7434876e-05
0.00039159462
3.5513487e-06
-1.523719e-05
0.00040615001
3.8543221e-06
-1.5049941e-05
0.00042045468
4.2333682e-06
-1.4876086e-05
0.00043487372
4.4493261e-06
-1.4993589e-05
0.00045201037
4.7698128e-06
-1.7707353e-05
0.00048640045
5.1316735e-06
-3.4914237e-05
0.00060733231