/*--------------------------------*- C++ -*----------------------------------*\
| =========                 |                                                 |
| \\      /  F ield         | OpenFOAM: The Open Source CFD Toolbox           |
|  \\    /   O peration     | Version:  v2012                                 |
|   \\  /    A nd           | Website:  www.openfoam.com                      |
|    \\/     M anipulation  |                                                 |
\*---------------------------------------------------------------------------*/
FoamFile
{
    version     2.0;
    format      ascii;
    class       volVectorField;
    location    "100";
    object      U;
}
// * * * * * * * * * * * * * * * * * * * * * * * * * * * * * * * * * * * * * //

dimensions      [0 1 -1 0 0 0 0];


internalField   nonuniform List<vector> 
33005
(
(5.1391455 -0.001330396 0.018756141)
(5.1508385 -0.0011626287 0.017583098)
(5.1618846 -0.0009698414 0.016121627)
(5.1721213 -0.00075485661 0.01438889)
(5.1813944 -0.00051973623 0.012398089)
(5.1895521 -0.0002660476 0.010156667)
(5.1964407 4.993155e-06 0.0076669693)
(5.2019102 0.00029142125 0.0049320458)
(5.2058076 0.00059209524 0.001962956)
(5.2079389 0.00090655969 -0.0012213069)
(5.2081115 0.0012213702 -0.0045391765)
(5.2062519 0.0015502437 -0.0081600598)
(5.2021532 0.001892715 -0.011971315)
(5.1957376 0.0022323957 -0.015774659)
(5.1869628 0.0025595471 -0.019425514)
(5.1759722 0.0028589903 -0.022710173)
(5.1630269 0.0031151784 -0.025398275)
(5.148646 0.0033075423 -0.027238952)
(5.1334469 0.0034202366 -0.028074517)
(5.1182509 0.003446721 -0.027932869)
(5.1107503 0.0021321174 -0.0013412714)
(5.1185641 0.0021091677 -0.0012286199)
(5.1259948 0.002052515 -0.0010865849)
(5.1328909 0.0019616984 -0.00091585709)
(5.1391141 0.0018376992 -0.00071820007)
(5.1445252 0.0016831076 -0.00049680397)
(5.1490155 0.0015013141 -0.00025518122)
(5.1524726 0.001297021 1.7238021e-06)
(5.1548367 0.0010708428 0.00027419628)
(5.1559977 0.00080733896 0.00057889777)
(5.1559329 0.00061595355 0.00079709386)
(5.1549137 0.00038521833 0.0010528977)
(5.1527424 0.00015634256 0.0012996413)
(5.1494945 -6.4068414e-05 0.0015309727)
(5.1452569 -0.00027000432 0.0017410004)
(5.1401116 -0.00045814046 0.0019267326)
(5.134158 -0.00062635681 0.002086539)
(5.1275063 -0.00077283251 0.0022192597)
(5.1202719 -0.00089643334 0.0023243588)
(5.1207576 -0.00092757318 0.0070719246)
(5.1215714 -0.00098472392 0.012056703)
(5.1227504 -0.0010893588 0.017292842)
(5.1243278 -0.0012518255 0.022642273)
(5.1262968 -0.0014779665 0.027940675)
(5.1286149 -0.0017671164 0.033027696)
(5.1945698 -0.0074950717 0.045586271)
(5.1919068 -0.0073985464 0.047043597)
(5.18911 -0.0072849616 0.04848981)
(5.1861721 -0.0071468557 0.049905296)
(5.1830898 -0.006975182 0.051257731)
(5.1798618 -0.0067585466 0.052491957)
(5.1764929 -0.0064878077 0.053534841)
(5.1729898 -0.006156928 0.054291509)
(5.1693696 -0.0057618323 0.054659694)
(5.1656519 -0.0053075806 0.054530943)
(5.1618655 -0.0048069357 0.053815603)
(5.1580445 -0.0042781085 0.052449761)
(5.154231 -0.0037449288 0.050413711)
(5.150471 -0.0032290447 0.047728063)
(5.1468159 -0.0027471102 0.044446709)
(5.1433192 -0.0023091618 0.040637884)
(5.1400354 -0.001921105 0.036374935)
(5.1370235 -0.0015861209 0.031732611)
(5.1343498 -0.00130879 0.026797078)
(5.1320841 -0.0010939607 0.021681792)
(5.1302785 -0.00094256978 0.016538623)
(5.128942 -0.00084816966 0.011519646)
(5.128035 -0.00079911398 0.0067531586)
(5.1347291 -0.00064671722 0.0063506385)
(5.1357283 -0.00068590636 0.010840579)
(5.1372211 -0.00076733254 0.015581652)
(5.1392538 -0.00090363103 0.020457927)
(5.1418151 -0.0011019551 0.025331395)
(5.1448444 -0.0013607766 0.030061611)
(5.1482614 -0.0016750046 0.034542503)
(5.151991 -0.0020405986 0.038692129)
(5.1559649 -0.0024554243 0.042437429)
(5.1601194 -0.0029147429 0.045705803)
(5.1643909 -0.0034100462 0.048426478)
(5.1687169 -0.0039251477 0.050542909)
(5.1730402 -0.0044396244 0.052027617)
(5.1773091 -0.0049296054 0.052894409)
(5.1814817 -0.0053769895 0.053199186)
(5.1855241 -0.005769343 0.053024483)
(5.1894135 -0.0061017141 0.052470021)
(5.1931334 -0.0063772407 0.05163205)
(5.1966777 -0.006602401 0.050598506)
(5.2000446 -0.0067855196 0.049437685)
(5.2032379 -0.0069370714 0.048200783)
(5.2062647 -0.0070662845 0.046917918)
(5.2091347 -0.0071797262 0.045606746)
(5.2230155 -0.0067314044 0.045405212)
(5.219919 -0.0065997227 0.046548898)
(5.2166453 -0.0064539166 0.047645319)
(5.2131813 -0.0062878482 0.048677298)
(5.2095169 -0.0060927285 0.049617446)
(5.2056455 -0.005859811 0.050418421)
(5.2015668 -0.0055808901 0.051018462)
(5.1972853 -0.0052501583 0.051336564)
(5.1928173 -0.0048651182 0.051285757)
(5.1881882 -0.0044309987 0.050776299)
(5.1834371 -0.0039599195 0.049735903)
(5.1786131 -0.0034695699 0.048118915)
(5.1737782 -0.002982884 0.045920002)
(5.1690006 -0.0025192006 0.043172972)
(5.1643536 -0.0020930967 0.039938239)
(5.1599105 -0.0017114263 0.036287161)
(5.1557445 -0.0013774776 0.032291042)
(5.1519319 -0.0010920543 0.028019382)
(5.1485565 -0.0008585829 0.023548576)
(5.145708 -0.00068216378 0.018975187)
(5.1434553 -0.00056488468 0.014425984)
(5.1418116 -0.00049921421 0.010022349)
(5.1407235 -0.00047145895 0.005866252)
(5.1459068 -0.00027534368 0.0053037859)
(5.1470777 -0.00029005613 0.0090714887)
(5.1488628 -0.00033734826 0.013080577)
(5.1513221 -0.00043178962 0.017244963)
(5.1544408 -0.00058083916 0.021461846)
(5.158143 -0.00078215596 0.025620599)
(5.1623308 -0.0010306692 0.029635492)
(5.1669121 -0.0013237095 0.033437979)
(5.1718032 -0.0016619101 0.036963116)
(5.1769228 -0.0020438565 0.04014281)
(5.1821883 -0.0024647334 0.042905472)
(5.1875158 -0.0029121897 0.045187658)
(5.1928266 -0.0033684776 0.046948032)
(5.1980491 -0.003812417 0.048182058)
(5.203127 -0.004226748 0.048922002)
(5.2080165 -0.0045998071 0.049228283)
(5.2126898 -0.0049260597 0.049176985)
(5.2171312 -0.0052067701 0.048845285)
(5.2213371 -0.0054470896 0.048305014)
(5.2253103 -0.0056542641 0.04761156)
(5.2290597 -0.0058359188 0.046807618)
(5.2325984 -0.0059992591 0.045918621)
(5.2359412 -0.006150391 0.044960296)
(5.2391016 -0.0062945447 0.043935019)
(5.2420931 -0.0064354707 0.042838764)
(5.2542875 -0.0057682362 0.042463079)
(5.2510563 -0.0056057968 0.043403544)
(5.2476428 -0.005440352 0.04425091)
(5.2440326 -0.0052690212 0.045007902)
(5.2402114 -0.0050872654 0.045672389)
(5.2361623 -0.0048894918 0.046228442)
(5.2318708 -0.0046700527 0.046653361)
(5.2273253 -0.0044228188 0.046908743)
(5.2225217 -0.0041417598 0.04694672)
(5.2174623 -0.0038229032 0.046704819)
(5.2121629 -0.0034664232 0.046118311)
(5.2066533 -0.0030782313 0.045125793)
(5.2009812 -0.0026695933 0.043682268)
(5.1952097 -0.0022572758 0.041770363)
(5.1894191 -0.0018598026 0.039407102)
(5.1836982 -0.0014929384 0.03664118)
(5.1781401 -0.0011659443 0.033539408)
(5.1728356 -0.00088143862 0.03017181)
(5.1678732 -0.00063838098 0.026602568)
(5.1633428 -0.00043478945 0.022889866)
(5.1593434 -0.0002722433 0.019093482)
(5.15598 -0.0001556631 0.01528591)
(5.1533344 -8.779926e-05 0.011560079)
(5.1514226 -6.1211519e-05 0.0079982028)
(5.1501783 -6.0761106e-05 0.0046690653)
(5.1534539 0.00016866694 0.0039720757)
(5.1547576 0.0001835809 0.0068184136)
(5.1567756 0.00017983301 0.0098860713)
(5.1595798 0.00014190406 0.013125293)
(5.1631532 6.2598987e-05 0.016475523)
(5.1674093 -5.4952911e-05 0.019863785)
(5.1722375 -0.00020622379 0.02323166)
(5.1775336 -0.00039053577 0.026530139)
(5.1832027 -0.00061179502 0.029708967)
(5.1891509 -0.00087345146 0.032709212)
(5.1952805 -0.0011756742 0.035463517)
(5.2014906 -0.0015126804 0.037902364)
(5.2076837 -0.0018715524 0.039969216)
(5.2137723 -0.0022368719 0.041632956)
(5.2196873 -0.0025927382 0.042894076)
(5.2253772 -0.0029283816 0.043779623)
(5.2308105 -0.0032368524 0.044334226)
(5.2359715 -0.0035167246 0.044609538)
(5.2408582 -0.0037701701 0.044656752)
(5.2454764 -0.0040016173 0.044517493)
(5.2498382 -0.0042157206 0.044224294)
(5.2539602 -0.0044162015 0.043798151)
(5.2578593 -0.0046081762 0.043254964)
(5.2615509 -0.0047951709 0.042597919)
(5.2650495 -0.0049797497 0.041825712)
(5.2741343 -0.0040784099 0.040898466)
(5.2703416 -0.0038720165 0.041492792)
(5.2663476 -0.0036637205 0.04195003)
(5.2621384 -0.0034515552 0.042270147)
(5.2576994 -0.0032328448 0.042449244)
(5.2530129 -0.0030029714 0.042469821)
(5.2480622 -0.0027603098 0.042313653)
(5.2428352 -0.002502017 0.041952643)
(5.237326 -0.0022254687 0.041352709)
(5.2315365 -0.0019304494 0.040473462)
(5.2254827 -0.0016200814 0.03927828)
(5.2191983 -0.0013023401 0.037740455)
(5.2127373 -0.00098783935 0.035852479)
(5.2061742 -0.0006912051 0.033633229)
(5.1996017 -0.00042430355 0.031128491)
(5.1931242 -0.00019629021 0.028403471)
(5.1868486 -9.304916e-06 0.02552905)
(5.1808773 0.00014018106 0.022569316)
(5.1753079 0.00025810287 0.019576378)
(5.1702382 0.00035035882 0.016591454)
(5.165776 0.00041758529 0.013651907)
(5.1620353 0.00045547772 0.01080029)
(5.1591053 0.00046059673 0.0080889305)
(5.1570033 0.00043962587 0.0055557604)
(5.155652 0.00040750912 0.0032290202)
(5.1566981 0.00064931996 0.0024529596)
(5.1580876 0.00070021603 0.0042373021)
(5.1602509 0.0007474823 0.0062086016)
(5.1632704 0.00077742353 0.0083614675)
(5.1671301 0.00078423305 0.010681668)
(5.1717397 0.00077181188 0.013139386)
(5.1769842 0.00074397082 0.01570875)
(5.1827546 0.0006985283 0.018365069)
(5.1889525 0.00062771981 0.021076926)
(5.195479 0.00052290473 0.023800108)
(5.2022297 0.00037713378 0.026474928)
(5.209094 0.00018874269 0.029029872)
(5.215964 -3.7849606e-05 0.031391987)
(5.2227435 -0.00029487032 0.033499515)
(5.2293541 -0.00056904703 0.03531266)
(5.2357396 -0.00084980248 0.036818364)
(5.2418641 -0.0011279976 0.038023979)
(5.2477107 -0.0013985586 0.038950765)
(5.2532761 -0.0016595318 0.039627445)
(5.2585646 -0.0019114792 0.040081606)
(5.2635855 -0.0021553739 0.040337287)
(5.2683553 -0.002390521 0.040409605)
(5.2728932 -0.0026212002 0.04031745)
(5.2772118 -0.0028491294 0.040065956)
(5.2813238 -0.0030757897 0.039656258)
(5.2864268 -0.001989001 0.038079604)
(5.2819667 -0.0017452674 0.038301979)
(5.2772978 -0.0015009779 0.038346458)
(5.2724103 -0.0012549505 0.03821076)
(5.2672941 -0.001006907 0.03788708)
(5.26193 -0.00075367853 0.03735895)
(5.2563032 -0.00049635367 0.036614796)
(5.2504074 -0.00023577036 0.035632116)
(5.2442417 2.5819332e-05 0.034389666)
(5.2378114 0.00028396345 0.032868809)
(5.2311355 0.00053129099 0.03106482)
(5.224252 0.00075758989 0.028989262)
(5.2172187 0.00095200818 0.026677053)
(5.2101158 0.0011026248 0.024190738)
(5.2030427 0.001205191 0.021613741)
(5.1961085 0.0012622455 0.019016414)
(5.1894217 0.0012793525 0.016472197)
(5.1830859 0.0012665895 0.01403533)
(5.1771983 0.0012352601 0.011742793)
(5.1718563 0.0011948826 0.0096155472)
(5.1671683 0.0011489614 0.0076658685)
(5.1632499 0.0010941435 0.0059023966)
(5.160194 0.0010259166 0.0043311692)
(5.1580222 0.00094833485 0.0029383865)
(5.1566661 0.00087189712 0.0017060686)
(5.1555088 0.0011257457 0.00085727157)
(5.156831 0.0012093802 0.0015422135)
(5.1589719 0.0013084572 0.0023702188)
(5.1620086 0.0014107168 0.0033747513)
(5.1659191 0.0015115904 0.0045909019)
(5.17061 0.0016152041 0.0060367072)
(5.1759671 0.0017237084 0.0077220992)
(5.1818844 0.0018319649 0.009649724)
(5.1882673 0.0019282674 0.011810473)
(5.1950222 0.0019984408 0.014176814)
(5.2020486 0.002028488 0.016699325)
(5.2092409 0.0020078011 0.019304081)
(5.2164906 0.0019315757 0.021901251)
(5.2236997 0.0018003585 0.024397199)
(5.2307863 0.0016233431 0.026711539)
(5.2376907 0.0014115439 0.028787889)
(5.2443725 0.0011770537 0.030593865)
(5.2508104 0.00093034668 0.032118494)
(5.2569987 0.00067948211 0.033368854)
(5.2629418 0.00043103357 0.034360183)
(5.2686501 0.00018262151 0.035124706)
(5.2741276 -7.458638e-05 0.03569126)
(5.2793819 -0.00033241118 0.036046537)
(5.2844214 -0.0005896575 0.036202039)
(5.2892539 -0.0008466263 0.036163189)
(5.2845432 0.00053413076 0.033898154)
(5.2791753 0.00079593616 0.033570649)
(5.2735938 0.0010610657 0.033018039)
(5.2677912 0.0013278165 0.032230743)
(5.2617621 0.0015955028 0.031189518)
(5.2555057 0.0018591635 0.029886865)
(5.2490217 0.0021128943 0.02831691)
(5.2423142 0.0023496536 0.026476395)
(5.2353962 0.0025600816 0.024370806)
(5.2282946 0.0027329475 0.022025311)
(5.2210533 0.0028559119 0.019488723)
(5.2137335 0.0029185101 0.01683597)
(5.2064165 0.0029141954 0.01416552)
(5.1991961 0.0028464942 0.011583829)
(5.1921738 0.0027257358 0.009182115)
(5.1854491 0.002566625 0.0070322073)
(5.1791156 0.0023863246 0.0051769271)
(5.1732602 0.0022014008 0.0036351526)
(5.1679718 0.0020253961 0.0024054163)
(5.1633508 0.0018649276 0.0014727654)
(5.1595064 0.0017188751 0.00081172469)
(5.1565273 0.0015832633 0.00038499999)
(5.1544299 0.0014615788 0.00013966727)
(5.1531319 0.0013637666 2.7540496e-05)
(5.1496503 0.001578083 -0.00075504297)
(5.1509017 0.0016903278 -0.0011927748)
(5.1529256 0.0018342079 -0.0015174387)
(5.1558031 0.0020017174 -0.0016595271)
(5.1595217 0.0021906125 -0.0015467584)
(5.1639991 0.0024048844 -0.0011231964)
(5.1691341 0.0026447361 -0.00034928507)
(5.174834 0.0029019484 0.00080084029)
(5.1810182 0.0031615205 0.0023375116)
(5.1876088 0.0034048687 0.0042495999)
(5.1945219 0.0036121959 0.0064993597)
(5.2016678 0.0037653249 0.0090168293)
(5.2089531 0.0038500061 0.011705341)
(5.21629 0.0038595958 0.014448796)
(5.223601 0.0037981536 0.017133595)
(5.2308246 0.0036756918 0.019668662)
(5.2379146 0.003505081 0.021988459)
(5.2448405 0.0032991373 0.024055306)
(5.2515841 0.0030688762 0.025854282)
(5.2581357 0.0028226828 0.027384825)
(5.2644923 0.0025654558 0.028657094)
(5.2706527 0.002300211 0.029684369)
(5.2766152 0.0020294583 0.030480377)
(5.2823781 0.0017545246 0.031056212)
(5.2776847 0.0029749259 0.027731949)
(5.2715724 0.0032333049 0.026985161)
(5.2652773 0.0034872354 0.026009933)
(5.2588049 0.0037349027 0.024795083)
(5.252161 0.0039730843 0.023327039)
(5.2453544 0.0041968637 0.021596307)
(5.2383965 0.0043992956 0.019598351)
(5.2313042 0.0045706889 0.017340749)
(5.224102 0.0046984049 0.014848554)
(5.2168259 0.0047685506 0.012171738)
(5.2095244 0.0047684804 0.0093896531)
(5.2022582 0.0046889892 0.006607031)
(5.1951 0.0045283314 0.0039485972)
(5.1881289 0.0042961787 0.0015369214)
(5.1814259 0.004009979 -0.00052976899)
(5.1750683 0.0036906731 -0.0021835789)
(5.1691278 0.0033600553 -0.0033922563)
(5.1636708 0.0030381357 -0.0041509193)
(5.1587677 0.0027411746 -0.0044778258)
(5.1545012 0.0024786288 -0.0044079908)
(5.1509628 0.0022514422 -0.0039937876)
(5.1482276 0.0020557115 -0.0033090094)
(5.1463055 0.0018925816 -0.0024449487)
(5.1451202 0.001768294 -0.0014904761)
(5.1396599 0.0019292904 -0.0021636073)
(5.1407604 0.0020627074 -0.0035907048)
(5.1425528 0.0022412017 -0.0049503975)
(5.1451077 0.0024600611 -0.0061371618)
(5.148417 0.0027191352 -0.0070427593)
(5.1524135 0.003022053 -0.0075772141)
(5.1570164 0.0033667664 -0.0076769972)
(5.1621543 0.0037426418 -0.0072993091)
(5.1677687 0.0041326332 -0.0064201698)
(5.1738058 0.0045158937 -0.005038914)
(5.180208 0.0048694507 -0.0031836812)
(5.1869126 0.0051706014 -0.00091913515)
(5.1938518 0.0053998608 0.0016559195)
(5.200957 0.0055454822 0.0044160594)
(5.208162 0.0056068092 0.0072299232)
(5.2154078 0.0055918549 0.0099828097)
(5.2226447 0.0055128618 0.012584684)
(5.2298322 0.0053838686 0.014975977)
(5.2369394 0.0052182492 0.017122677)
(5.243943 0.0050266066 0.019011278)
(5.250826 0.0048165957 0.020642697)
(5.2575741 0.0045937551 0.022024559)
(5.2641744 0.0043619513 0.023168639)
(5.2706151 0.0041235336 0.024085731)
(5.2612889 0.0051808118 0.020133249)
(5.2545817 0.0053880755 0.019072092)
(5.2477407 0.0055867727 0.017789675)
(5.2407828 0.0057743191 0.016275966)
(5.2337266 0.0059466254 0.014520708)
(5.2265938 0.0060975273 0.012519406)
(5.2194088 0.0062186659 0.01027563)
(5.2122008 0.0062990825 0.0078087335)
(5.2050072 0.0063256113 0.0051601968)
(5.197872 0.0062845044 0.0023970935)
(5.1908457 0.0061643983 -0.00038293613)
(5.1839842 0.0059590005 -0.0030595412)
(5.177346 0.0056708515 -0.0054992497)
(5.1709878 0.0053130405 -0.0075769986)
(5.1649627 0.0049060304 -0.009196152)
(5.1593181 0.0044731607 -0.010295187)
(5.1540969 0.0040377044 -0.010849766)
(5.149339 0.0036207118 -0.010864223)
(5.1450908 0.0032395767 -0.010366932)
(5.1414111 0.0029057444 -0.0094062616)
(5.1383695 0.0026225119 -0.0080549554)
(5.1360246 0.0023865961 -0.0064165493)
(5.1343831 0.0021973045 -0.004613326)
(5.1333804 0.0020577903 -0.0027644061)
(5.1264238 0.0021510837 -0.0032834149)
(5.1273191 0.0022935241 -0.0054971713)
(5.1287945 0.002488861 -0.0076853742)
(5.130908 0.0027353376 -0.0097181354)
(5.133655 0.0030344473 -0.011462108)
(5.1369853 0.0033887991 -0.012803212)
(5.1408412 0.0037940689 -0.013661996)
(5.1451761 0.0042381891 -0.013986161)
(5.1499562 0.0047040153 -0.013745193)
(5.1551551 0.0051709227 -0.01293225)
(5.1607447 0.0056161826 -0.011568885)
(5.1666922 0.0060167597 -0.0097128195)
(5.1729593 0.0063524416 -0.0074571033)
(5.1795011 0.0066095268 -0.00492283)
(5.1862678 0.0067839076 -0.0022418786)
(5.1932079 0.0068803843 0.00046395626)
(5.2002719 0.0069087219 0.0030933591)
(5.2074134 0.0068816189 0.0055740303)
(5.2145904 0.0068116716 0.0078583082)
(5.221769 0.0067095665 0.0099222175)
(5.2289188 0.0065837526 0.011757972)
(5.2360123 0.0064404434 0.013367233)
(5.2430249 0.0062838792 0.014757962)
(5.2499348 0.0061166902 0.015939486)
(5.2368116 0.0069067968 0.011576775)
(5.2297869 0.0070252231 0.010306114)
(5.2226929 0.0071315051 0.0088426352)
(5.2155557 0.0072230042 0.0071784019)
(5.2084043 0.0072957425 0.0053075101)
(5.2012715 0.007343598 0.0032316699)
(5.1941933 0.0073585086 0.00096280612)
(5.1872081 0.0073303833 -0.0014709443)
(5.1803596 0.0072475983 -0.004019336)
(5.1736948 0.0070992638 -0.0066052228)
(5.1672604 0.0068772019 -0.0091283674)
(5.1611024 0.006578216 -0.011468278)
(5.1552618 0.0062074506 -0.013499067)
(5.1497716 0.0057782849 -0.015105524)
(5.1446571 0.0053100248 -0.01620009)
(5.1399369 0.004824574 -0.016728987)
(5.1356252 0.0043433682 -0.016673155)
(5.1317357 0.0038862838 -0.016040217)
(5.1282909 0.003469292 -0.014861052)
(5.1253257 0.0031047216 -0.013189811)
(5.1228871 0.0027979952 -0.011110454)
(5.1210159 0.0025473413 -0.0087445795)
(5.1197145 0.002350561 -0.0062335835)
(5.1189309 0.002208278 -0.0037153362)
(5.1110566 0.0022300405 -0.0040579546)
(5.1117304 0.0023694925 -0.0068186522)
(5.112859 0.0025635031 -0.0095885515)
(5.1144874 0.0028124561 -0.01222459)
(5.116615 0.0031189565 -0.014580525)
(5.1192079 0.0034840395 -0.016529837)
(5.1222316 0.0039009041 -0.017986357)
(5.1256631 0.0043575887 -0.018895392)
(5.1294924 0.0048398489 -0.019227282)
(5.1337166 0.0053291145 -0.018974845)
(5.1383332 0.0058056936 -0.018155234)
(5.143336 0.006249756 -0.016817856)
(5.1487118 0.0066435245 -0.015043514)
(5.1544384 0.0069741261 -0.012938919)
(5.1604839 0.007236033 -0.010622501)
(5.1668079 0.0074307794 -0.0082091093)
(4.9282296 -0.53762547 -0.28052784)
(4.9426889 -0.53250838 -0.27923305)
(4.943629 -0.52934378 -0.28278631)
(4.9607963 -0.52278615 -0.27980769)
(4.9533402 -0.51992576 -0.28264644)
(4.9727362 -0.51132484 -0.27934902)
(4.9520973 -0.50009515 -0.28040108)
(4.9010945 -0.49919981 -0.2636586)
(4.8816537 -0.48549281 -0.2627031)
(4.8698533 -0.48858967 -0.26430208)
(4.8821661 -0.50750706 -0.26614163)
(4.9361947 -0.50949743 -0.2816471)
(4.9203804 -0.5154196 -0.28195917)
(4.9137596 -0.51918451 -0.28686006)
(4.9009289 -0.52496615 -0.28682947)
(4.891335 -0.528783 -0.28966577)
(4.8812886 -0.53654227 -0.29081903)
(5.2874692 -0.49369366 0.017589187)
(5.2932596 -0.48819495 0.0173336)
(5.2938594 -0.48646149 0.014981788)
(5.2932453 -0.4857448 0.013217359)
(5.292834 -0.48525632 0.010918963)
(5.2926627 -0.48427702 0.0076570981)
(5.2930113 -0.48261137 0.0052252038)
(5.2931437 -0.48187881 0.0024478926)
(5.2941439 -0.48151599 -0.0008646265)
(5.2953615 -0.48095305 -0.0058509206)
(5.2951565 -0.48035379 -0.010737331)
(5.2941765 -0.48038183 -0.014228675)
(5.2949021 -0.47886397 -0.017758508)
(5.2946458 -0.47758569 -0.024228122)
(5.2946057 -0.47690076 -0.031547822)
(5.2961238 -0.47660385 -0.038403316)
(5.2989691 -0.47610713 -0.045835318)
(5.3000585 -0.47574553 -0.055138175)
(5.3006013 -0.47473196 -0.065915363)
(5.3009158 -0.4746358 -0.077614823)
(5.3036537 -0.47531788 -0.089862372)
(5.3075253 -0.47587266 -0.10401237)
(5.3106202 -0.474158 -0.12040092)
(5.3117496 -0.47315628 -0.13701949)
(5.31153 -0.47156887 -0.15442516)
(5.3081338 -0.47077452 -0.17401053)
(5.3008278 -0.46952969 -0.19402216)
(5.2872026 -0.46724958 -0.21543069)
(5.284559 -0.46470136 -0.22101985)
(5.2735326 -0.45445442 -0.22955848)
(5.2362551 -0.44523867 -0.2424539)
(5.2049438 -0.43997238 -0.24606219)
(5.156556 -0.43300753 -0.25164138)
(5.1087181 -0.43203276 -0.24162932)
(5.0917898 -0.42597771 -0.23773471)
(5.0829961 -0.43316363 -0.23848622)
(5.0927379 -0.44557237 -0.24165899)
(5.1423182 -0.44504741 -0.25465888)
(5.1923801 -0.45140302 -0.24859127)
(5.2265472 -0.45748618 -0.24399613)
(5.2632587 -0.46408796 -0.22881951)
(5.2515128 -0.47306375 -0.2295726)
(5.2723165 -0.47673092 -0.21577015)
(5.2846061 -0.48020798 -0.19498568)
(5.2917457 -0.48362319 -0.1748417)
(5.2945958 -0.48484076 -0.15634184)
(5.2951838 -0.48386188 -0.13948887)
(5.2948785 -0.48267091 -0.12306365)
(5.2920994 -0.48208082 -0.10668183)
(5.29004 -0.48037066 -0.091835588)
(5.2896295 -0.47921718 -0.078694131)
(5.289485 -0.48000461 -0.066569772)
(5.2877096 -0.48266364 -0.056138586)
(5.2862181 -0.48310524 -0.047904814)
(5.284555 -0.48190894 -0.040516459)
(5.2834309 -0.48185266 -0.032878137)
(5.2818133 -0.48448658 -0.025404682)
(5.2789262 -0.48709258 -0.019722074)
(5.2773445 -0.48749064 -0.015465121)
(5.2781045 -0.48873067 -0.011237388)
(5.278364 -0.49064631 -0.0072958277)
(5.2791582 -0.49064806 -0.0032528134)
(5.2803839 -0.4901822 0.00037226789)
(5.2809278 -0.49071449 0.0032695717)
(5.2809483 -0.49166909 0.0059414678)
(5.2811631 -0.49269989 0.0095197993)
(5.2813039 -0.49402624 0.01224428)
(5.2815404 -0.49590774 0.013723406)
(5.2813209 -0.49717252 0.016786557)
(5.267219 -0.50113233 0.014938943)
(5.2539749 -0.50675719 0.01340391)
(5.2397252 -0.51136781 0.011612624)
(5.2247123 -0.51652637 0.0097840449)
(5.2247467 -0.51561721 0.0073163468)
(5.2397319 -0.51067966 0.0086883789)
(5.2537447 -0.5061208 0.010438228)
(5.266878 -0.50121559 0.011523739)
(5.2666406 -0.50034878 0.010117081)
(5.2532889 -0.50501739 0.0089951255)
(5.239323 -0.50999936 0.007084424)
(5.2244053 -0.51465818 0.0057633053)
(5.2239235 -0.51402466 0.0028789848)
(5.2388758 -0.50964493 0.0042543855)
(5.2529169 -0.50423008 0.0061785105)
(5.2664392 -0.49979041 0.0075477685)
(5.2660961 -0.49889328 0.0044195923)
(5.2526323 -0.50320108 0.0027137945)
(5.238414 -0.50889664 0.00092302421)
(5.2234107 -0.51312866 -0.00059032331)
(5.2079697 -0.51838528 -0.0021561041)
(5.1921771 -0.52285604 -0.0036600717)
(5.1756487 -0.52804532 -0.0054658932)
(5.159079 -0.53215069 -0.0065465231)
(5.1580518 -0.53118512 -0.0096859666)
(5.1749438 -0.52719641 -0.0082249834)
(5.1917316 -0.52177204 -0.0068007639)
(5.2073792 -0.51725198 -0.0050496001)
(5.2227992 -0.51221386 -0.0035914921)
(5.2380885 -0.50787824 -0.001864237)
(5.2526098 -0.50214943 -0.00025719116)
(5.2660519 -0.49754074 0.0019777981)
(5.2660578 -0.49621866 -0.00033075662)
(5.2524858 -0.50175287 -0.0027957863)
(5.2374145 -0.507147 -0.0044272067)
(5.2220899 -0.51171556 -0.0060067016)
(5.2067292 -0.51646675 -0.0081070763)
(5.1908118 -0.52133628 -0.0097320585)
(5.1737536 -0.52651313 -0.010336816)
(5.1573936 -0.53059937 -0.012082046)
(5.1571228 -0.52957856 -0.015318966)
(5.1718909 -0.52554111 -0.013800921)
(5.1885736 -0.5217279 -0.013592946)
(5.2062073 -0.51661681 -0.01210428)
(5.2215899 -0.51081044 -0.0094189232)
(5.2360512 -0.50689618 -0.0082959891)
(5.2523402 -0.5014083 -0.0061618503)
(5.2653315 -0.49490875 -0.0038884724)
(5.2646025 -0.49383287 -0.0084205557)
(5.2524221 -0.50043893 -0.010320645)
(5.2350712 -0.50657211 -0.012925512)
(5.2210537 -0.50960757 -0.013974755)
(5.2057834 -0.51670347 -0.015165788)
(5.1868424 -0.52189257 -0.017447718)
(5.1694689 -0.52478598 -0.019270181)
(5.1566632 -0.52808038 -0.020024963)
(5.1397008 -0.53574522 -0.021551581)
(5.1193159 -0.53892172 -0.020726892)
(5.0974424 -0.53973596 -0.025499983)
(5.1192622 -0.53752892 -0.029309877)
(5.1387737 -0.53376288 -0.023860085)
(5.1545957 -0.52781245 -0.025277747)
(5.1694039 -0.52472601 -0.024574343)
(5.1885584 -0.52025449 -0.020847061)
(5.2054004 -0.5142725 -0.017967581)
(5.2194066 -0.50926574 -0.018506012)
(5.2361285 -0.50576959 -0.017127713)
(5.2534925 -0.49862655 -0.014366105)
(5.2653477 -0.49202632 -0.012620475)
(5.2658163 -0.49057904 -0.016993092)
(5.2546329 -0.49692608 -0.018595011)
(5.2376156 -0.50540224 -0.020479535)
(5.2173211 -0.50962572 -0.022540987)
(5.2051454 -0.51196077 -0.022964004)
(5.1906706 -0.51857292 -0.02445197)
(5.1714604 -0.52498358 -0.02777318)
(5.1518114 -0.52865245 -0.029220537)
(5.1375556 -0.53165256 -0.029270058)
(5.121997 -0.5366214 -0.02839993)
(5.0968458 -0.53933477 -0.033727698)
(5.1219174 -0.53659125 -0.038236288)
(5.1377238 -0.53166514 -0.035622156)
(5.1521607 -0.52867893 -0.033902446)
(5.1728114 -0.52463224 -0.031358632)
(5.1910282 -0.51765615 -0.029345456)
(5.2051285 -0.51234254 -0.029634867)
(5.2189353 -0.50935336 -0.027438861)
(5.2383395 -0.50469735 -0.024470017)
(5.2550607 -0.49681886 -0.024326818)
(5.2667998 -0.49041608 -0.022447047)
(5.2694693 -0.49000568 -0.028607445)
(5.254917 -0.49766177 -0.030654617)
(5.2386331 -0.50286512 -0.030358009)
(5.2224911 -0.50866447 -0.033231891)
(5.2044825 -0.51363059 -0.036004607)
(5.190462 -0.51700964 -0.035778777)
(5.1739839 -0.52373262 -0.036888481)
(5.1550375 -0.52816044 -0.039394402)
(5.1384883 -0.5331145 -0.04243523)
(5.1206075 -0.53727841 -0.039252524)
(5.0968934 -0.53893308 -0.044842246)
(5.1197141 -0.53731609 -0.050323325)
(5.1395129 -0.53336944 -0.046998028)
(5.157218 -0.52714197 -0.045514162)
(5.1748047 -0.52243301 -0.043445637)
(5.1903499 -0.51630719 -0.042763543)
(5.2050967 -0.5135641 -0.041737397)
(5.2245192 -0.50762001 -0.039492992)
(5.2393437 -0.50115148 -0.037626209)
(5.2547298 -0.49754522 -0.036786127)
(5.2716605 -0.48894793 -0.035178424)
(5.2723391 -0.48907371 -0.041894596)
(5.2553817 -0.49725128 -0.04262982)
(5.2398457 -0.50106864 -0.044529229)
(5.2251754 -0.50695919 -0.045971981)
(5.206443 -0.51289691 -0.047377147)
(5.1907794 -0.51626031 -0.04935625)
(5.1751509 -0.52193875 -0.05000205)
(5.157695 -0.52710978 -0.051593104)
(5.1396999 -0.53279231 -0.052406608)
(5.121072 -0.53707386 -0.050868656)
(5.0984296 -0.53904418 -0.058037522)
(5.1212282 -0.53638573 -0.062896485)
(5.1395552 -0.53206994 -0.058944665)
(5.1573953 -0.52749505 -0.058283461)
(5.1752451 -0.52187755 -0.056904529)
(5.1912437 -0.51654888 -0.056755149)
(5.2075716 -0.51211532 -0.055300264)
(5.2256151 -0.50708433 -0.053848386)
(5.2412407 -0.50101315 -0.052390289)
(5.2560147 -0.49670228 -0.049976519)
(5.2724666 -0.49006946 -0.049560622)
(5.2727093 -0.49058202 -0.058419842)
(5.2571098 -0.49570487 -0.059401439)
(5.2424472 -0.50119234 -0.062041396)
(5.2262556 -0.5070351 -0.063431259)
(5.2082573 -0.51276218 -0.065774491)
(5.1897686 -0.51729213 -0.065939135)
(5.1744891 -0.52142328 -0.06518485)
(5.15789 -0.52707403 -0.065902698)
(5.139664 -0.5319258 -0.068628961)
(5.122501 -0.53651885 -0.0667366)
(5.0990803 -0.5402826 -0.075128622)
(5.1220247 -0.53589544 -0.082267332)
(5.1415523 -0.53104754 -0.078352979)
(5.1588961 -0.52490753 -0.075721916)
(5.1731474 -0.52023518 -0.075830965)
(5.1872049 -0.51802649 -0.076501508)
(5.2087265 -0.51437832 -0.07629115)
(5.2277486 -0.50677498 -0.073754218)
(5.2441087 -0.50088789 -0.072385035)
(5.2591893 -0.49414827 -0.07024353)
(5.2747402 -0.4892859 -0.068202721)
(5.2764628 -0.4872321 -0.07875329)
(5.261193 -0.49341459 -0.081713484)
(5.2449093 -0.50064355 -0.082538357)
(5.229044 -0.50659395 -0.082932561)
(5.2097171 -0.51513181 -0.085288106)
(5.1870679 -0.51887123 -0.086958359)
(5.1715199 -0.52059674 -0.087506585)
(5.159485 -0.52339577 -0.087511827)
(5.143227 -0.53063543 -0.089592843)
(5.1233049 -0.5357891 -0.087400418)
(5.1007479 -0.54054742 -0.09525843)
(5.1242668 -0.53642319 -0.10447404)
(5.1442757 -0.53080166 -0.10097202)
(5.1602946 -0.52374764 -0.10126195)
(5.1723555 -0.5210206 -0.099910356)
(5.189235 -0.51888697 -0.09799348)
(5.2122926 -0.51425852 -0.095173112)
(5.2301174 -0.50488901 -0.093988717)
(5.2436376 -0.50111521 -0.094412644)
(5.2630593 -0.49467685 -0.094380602)
(5.2781662 -0.48573544 -0.092081493)
(5.2794103 -0.48713696 -0.10771111)
(5.2636695 -0.49645929 -0.10787278)
(5.2429734 -0.50206241 -0.10894575)
(5.2298617 -0.50454309 -0.10920731)
(5.2139733 -0.51234908 -0.10861424)
(5.1926053 -0.51808037 -0.11138708)
(5.1752091 -0.52134564 -0.11406959)
(5.1609166 -0.52578113 -0.11579788)
(5.14423 -0.531851 -0.11547813)
(5.1253484 -0.53803372 -0.11181142)
(5.0998387 -0.54226671 -0.12205708)
(5.1257624 -0.53858478 -0.13369064)
(5.143962 -0.53196845 -0.13037326)
(5.1611478 -0.52681149 -0.13048179)
(5.1775425 -0.52123487 -0.12933109)
(5.1955072 -0.51654644 -0.12773248)
(5.2142726 -0.51027884 -0.12630131)
(5.2294691 -0.50477139 -0.12638342)
(5.2448226 -0.5018078 -0.12492053)
(5.2637465 -0.49546342 -0.12284497)
(5.2789926 -0.48869201 -0.12391116)
(5.276249 -0.48974938 -0.13993703)
(5.2629614 -0.49359585 -0.1389899)
(5.2469656 -0.50047894 -0.14015212)
(5.2302214 -0.50457915 -0.14300693)
(5.214181 -0.51069812 -0.1441151)
(5.1950828 -0.51676998 -0.14479113)
(5.1773187 -0.52093191 -0.14495621)
(5.1614224 -0.52644324 -0.14472511)
(5.1438856 -0.53219201 -0.14662462)
(5.1264439 -0.53851493 -0.14177073)
(5.1005672 -0.54330208 -0.15255273)
(5.1238025 -0.53736054 -0.1643471)
(5.1431853 -0.53207257 -0.16269542)
(5.1603599 -0.52516736 -0.16165286)
(5.1743504 -0.5214016 -0.16245223)
(5.1939598 -0.51753096 -0.16189638)
(5.2133315 -0.51094748 -0.16089449)
(5.2309623 -0.50425147 -0.16053375)
(5.247101 -0.49801135 -0.15748201)
(5.2603498 -0.492686 -0.15737491)
(5.2731382 -0.49061426 -0.15735164)
(5.2707072 -0.4900448 -0.1762193)
(5.2562217 -0.49253762 -0.1778259)
(5.2446133 -0.4964947 -0.17845628)
(5.2284116 -0.50448249 -0.17979674)
(5.2103482 -0.50991347 -0.17955045)