/*--------------------------------*- C++ -*----------------------------------*\
| =========                 |                                                 |
| \\      /  F ield         | OpenFOAM: The Open Source CFD Toolbox           |
|  \\    /   O peration     | Version:  v2012                                 |
|   \\  /    A nd           | Website:  www.openfoam.com                      |
|    \\/     M anipulation  |                                                 |
\*---------------------------------------------------------------------------*/
FoamFile
{
    version     2.0;
    format      ascii;
    class       volScalarField;
    location    "238";
    object      p;
}
// * * * * * * * * * * * * * * * * * * * * * * * * * * * * * * * * * * * * * //

dimensions      [0 2 -2 0 0 0 0];


internalField   nonuniform List<scalar> 
48533
(
-1.0169165
-1.0604672
-1.0999514
-1.1347247
-1.1641118
-1.1875001
-1.2043153
-1.2136019
-1.2140875
-1.2060065
-1.1890761
-1.1627298
-1.1269781
-1.0821504
-1.0291636
-0.96943942
-0.90507884
-0.83805922
-0.77077404
-0.70557173
-0.64389804
-0.58678367
-0.53477252
-0.48803648
-0.44646641
-0.40976733
-0.3775371
-3.9208776
-3.9450142
-3.9586264
-3.9569653
-3.9588444
-3.9753574
-4.0603539
-4.0778685
-4.1083727
-4.1371715
-4.153413
-4.1849701
-4.206151
-4.2193004
-4.2191656
-4.2209618
-4.2800954
-4.2936719
-4.3035585
-4.3454021
-4.3622157
-4.3774399
-4.4679444
-4.4656892
-4.488101
-4.5287253
-4.5486908
-4.5683815
-4.6235385
-4.6618414
-4.6570674
-4.6725364
-4.7477223
-4.8000511
-4.7988634
-4.8139749
-4.8485828
-4.8601391
-4.8790416
-5.0150802
-5.0231103
-5.0431889
-5.0902
-5.1180467
-5.2438502
-5.1187643
-5.2853941
-5.2842401
-5.3239087
-5.3839478
-5.3780592
-5.3742106
-5.4785102
-5.5126033
-5.4977583
-5.4851914
-5.5445528
-5.5040723
-5.5660192
-5.5182625
-5.6241749
-5.4187796
-5.6820477
-5.5697267
-5.3733053
-5.404074
-5.4287332
-5.3842007
-5.2460735
-4.9461039
-5.2793219
-4.9973453
-4.8662408
-4.4799167
-4.4911217
-4.0926535
-3.6908029
-2.5455444
-2.572537
-1.3070648
0.43236336
2.1434183
4.6578821
7.2999036
11.408115
9.8327798
8.8592183
7.6479624
7.4975518
7.1794085
7.2887214
8.4998349
8.6227855
9.6723269
11.631949
8.1363288
7.2376485
6.6605211
3.1810432
2.3388574
0.74254635
-0.88635508
-2.385569
-2.1609508
-3.3250929
-3.97703
-4.3781496
-4.249505
-4.7710019
-5.039886
-5.079099
-5.0411532
-5.1942705
-5.2028338
-5.3554073
-5.4573839
-5.5414067
-5.6799225
-5.3203556
-5.628587
-5.4939321
-5.6057037
-5.4815232
-5.5461011
-5.526174
-5.4815812
-5.5208353
-5.5292025
-5.4019219
-5.3420545
-5.4588637
-5.2987958
-5.3340176
-5.284811
-5.1975398
-5.1934429
-5.2201835
-5.1508528
-5.0879425
-5.0451642
-5.0194881
-5.0359077
-4.9120557
-4.9001892
-4.872441
-4.8515395
-4.8631588
-4.7765786
-4.7086398
-4.7113346
-4.7417608
-4.6467057
-4.5660515
-4.5709917
-4.5597565
-4.5411219
-4.5494097
-4.4849771
-4.3588914
-4.3755933
-4.3512978
-4.3050693
-4.3298409
-4.3336941
-4.2022003
-4.2250038
-4.2280053
-4.2020605
-4.1707892
-4.1412259
-4.1241661
-4.1026285
-4.1017041
-4.0718618
-3.9488722
-3.9573361
-3.9380501
-3.9135372
-3.9203031
-3.9370784
-3.932887
-0.50426845
-0.53527227
-0.56769765
-0.60135826
-0.63602169
-0.67139749
-0.70716677
-0.74286112
-0.77804249
-0.81232583
-0.84519891
-0.87616291
-0.90472144
-0.93040117
-0.95275981
-0.97141742
-0.98603881
-0.99639466
-1.0022624
-1.0034153
-1.0010684
-0.99351621
-0.9815582
-0.96560291
-0.94581975
-0.92252104
-0.89608106
-0.96900512
-0.97120288
-0.9730613
-0.97451968
-0.97551564
-0.97598646
-0.97586917
-0.97510427
-0.97363509
-0.97141292
-0.96839779
-0.9645635
-0.95989989
-0.95441679
-0.94814757
-0.94114949
-0.93350746
-0.92532773
-0.93255879
-0.94338897
-0.95432313
-0.96517471
-0.97575414
-0.9858867
-0.99541478
-1.00421
-1.0121721
-1.0192339
-1.0253575
-1.0305341
-1.0347778
-1.0381212
-1.0406125
-1.0423088
-1.0432756
-1.0435807
-1.0432945
-1.0424862
-1.0412243
-1.0395741
-1.0375998
-1.0353617
-1.1035064
-1.1054493
-1.1071455
-1.1085355
-1.1095562
-1.1101407
-1.1102191
-1.1097183
-1.1085632
-1.1066768
-1.1039832
-1.1004095
-1.09589
-1.0903688
-1.0838069
-1.0761858
-1.0675141
-1.0578333
-1.0472198
-1.0357894
-1.0236924
-1.0111138
-0.99825905
-0.9853493
-0.97260209
-0.96022544
-0.94840905
-0.93732903
-0.92716351
-0.91812048
-0.91044179
-0.90436597
-0.90001021
-0.89733131
-0.92393211
-0.92695986
-0.93188173
-0.93875268
-0.94744846
-0.95770769
-0.96926233
-0.98188174
-0.99536887
-1.0095283
-1.0241479
-1.0389927
-1.0538157
-1.0683647
-1.0824043
-1.0957227
-1.1081485
-1.119551
-1.1298441
-1.1389835
-1.146961
-1.1537994
-1.1595435
-1.1642566
-1.1680119
-1.170889
-1.1729707
-1.1743394
-1.1750752
-1.1752549
-1.1749516
-1.1742342
-1.173168
-1.1718131
-1.236921
-1.2375943
-1.2379358
-1.2378853
-1.2373764
-1.2363391
-1.2346989
-1.2323762
-1.2292875
-1.2253463
-1.2204647
-1.2145574
-1.2075447
-1.1993574
-1.1899456
-1.1792826
-1.1673761
-1.1542739
-1.1400703
-1.1249103
-1.1089857
-1.0925335
-1.0758177
-1.0591192
-1.0427128
-1.0268585
-1.0117881
-0.99771427
-0.98485096
-0.97344886
-0.96379953
-0.95618458
-0.95073398
-0.94738056
-0.96730159
-0.97095352
-0.97688556
-0.98517645
-0.99569255
-1.0081356
-1.0221943
-1.0376009
-1.0541278
-1.0715478
-1.0896122
-1.10804
-1.1265311
-1.144779
-1.1624938
-1.1794156
-1.1953336
-1.2100897
-1.2235815
-1.2357583
-1.2466121
-1.2561724
-1.2644929
-1.2716471
-1.2777193
-1.2827989
-1.2869773
-1.2903436
-1.2929829
-1.2949761
-1.2963981
-1.2973184
-1.2978027
-1.3514703
-1.3495738
-1.3471334
-1.3440814
-1.3403442
-1.3358414
-1.3304882
-1.324195
-1.3168679
-1.3084158
-1.2987522
-1.287802
-1.275509
-1.2618431
-1.2468131
-1.2304735
-1.2129344
-1.1943656
-1.1749944
-1.1551006
-1.1349955
-1.1150081
-1.0954584
-1.0766445
-1.0588283
-1.0422476
-1.0271407
-1.0137885
-1.0025181
-0.9936405
-0.98729089
-0.98337917
-0.99541286
-0.99951008
-1.0061821
-1.0155287
-1.0274114
-1.041509
-1.057482
-1.0750401
-1.093938
-1.1139317
-1.13475
-1.1560835
-1.1775975
-1.1989464
-1.2198014
-1.2398681
-1.2589044
-1.2767303
-1.2932285
-1.3083397
-1.3220529
-1.3343973
-1.3454291
-1.3552237
-1.3638674
-1.3714503
-1.378066
-1.3838016
-1.3887399
-1.3929579
-1.3965259
-1.3995085
-1.4405758
-1.4363963
-1.4315939
-1.4261085
-1.4198743
-1.4128187
-1.404862
-1.395924
-1.3859123
-1.3747429
-1.3623327
-1.3486067
-1.3335107
-1.3170194
-1.299148
-1.2799613
-1.2595787
-1.2381896
-1.2160519
-1.1934721
-1.1707906
-1.1483629
-1.1265311
-1.1056101
-1.085874
-1.0675685
-1.0509409
-1.0362851
-1.0239453
-1.0142447
-1.0073187
-1.0030537
-1.0057061
-1.0102739
-1.0174673
-1.0274454
-1.040102
-1.0551288
-1.0721879
-1.0909907
-1.1112946
-1.1328588
-1.155413
-1.1786445
-1.2022118
-1.225758
-1.2489387
-1.2714401
-1.2929924
-1.3134012
-1.3325465
-1.350356
-1.366807
-1.3819174
-1.3957342
-1.408322
-1.4197432
-1.4300736
-1.4394237
-1.4478631
-1.4554658
-1.4623015
-1.4684314
-1.4739069
-1.4989356
-1.4920908
-1.4845322
-1.4762267
-1.467138
-1.4572073
-1.4463747
-1.4345811
-1.4216991
-1.4076483
-1.3923961
-1.3759012
-1.3581309
-1.3390781
-1.3187705
-1.2972869
-1.2747847
-1.2514598
-1.2275553
-1.2033786
-1.1792684
-1.1555749
-1.132632
-1.1107434
-1.0901705
-1.0711447
-1.0539006
-1.0387212
-1.0259435
-1.0158836
-1.0086773
-1.0042445
-0.99831797
-1.0026234
-1.0096896
-1.0196216
-1.0322793
-1.0473474
-1.0644928
-1.0834406
-1.1039673
-1.1258553
-1.1488591
-1.1726922
-1.1970373
-1.2215594
-1.2459304
-1.2698466
-1.2930481
-1.3153303
-1.3365471
-1.3566072
-1.3754683
-1.3931269
-1.4096127
-1.424982
-1.4393398
-1.4527626
-1.4652242
-1.4768023
-1.4875412
-1.4974699
-1.5065816
-1.5149031
-1.5205621
-1.5105763
-1.4999588
-1.4886361
-1.4765184
-1.4635602
-1.4497192
-1.4349528
-1.4192185
-1.4024817
-1.3847039
-1.3658565
-1.3459295
-1.3249399
-1.3029422
-1.2800373
-1.2563784
-1.2321699
-1.2076628
-1.1831467
-1.1589293
-1.1353222
-1.1126182
-1.0910803
-1.0709327
-1.0523748
-1.0356151
-1.0209149
-1.0085946
-0.99895435
-0.99211514
-0.98794038
-0.97324991
-0.97725148
-0.9837854
-0.9929995
-1.0047938
-1.0188936
-1.0350009
-1.0528749
-1.0723277
-1.0931835
-1.1152449
-1.1382795
-1.1620265
-1.186205
-1.2105338
-1.2347429
-1.2585902
-1.281874
-1.3044365
-1.3261646
-1.3469879
-1.3668708
-1.3858042
-1.4037978
-1.4208767
-1.4370635
-1.4523856
-1.4668753
-1.4805628
-1.4934761
-1.5056379
-1.517056
-1.5037206
-1.4907998
-1.4771314
-1.4627166
-1.4475444
-1.4316041
-1.4148831
-1.3973677
-1.3790463
-1.3599098
-1.3399562
-1.319196
-1.2976589
-1.2753993
-1.2525041
-1.2290973
-1.2053412
-1.1814336
-1.1576016
-1.1340902
-1.111148
-1.0890184
-1.0679246
-1.0480624
-1.0295972
-1.0126769
-0.99746387
-0.98417255
-0.97307228
-0.96440857
-0.95826415
-0.95449168
-0.93200127
-0.9354889
-0.94116098
-0.94915932
-0.95941586
-0.97171597
-0.98582282
-1.0015522
-1.0187706
-1.0373613
-1.0571948
-1.0781154
-1.0999426
-1.1224745
-1.1454998
-1.1688029
-1.1921754
-1.2154274
-1.2383947
-1.2609438
-1.2829719
-1.3044053
-1.3251935
-1.3453044
-1.3647196
-1.3834279
-1.4014233
-1.4187033
-1.4352653
-1.4511058
-1.4662196
-1.4805987
-1.4478568
-1.4321252
-1.41568
-1.3985432
-1.3807342
-1.3622721
-1.3431756
-1.3234643
-1.3031622
-1.2822984
-1.2609117
-1.2390545
-1.2167972
-1.1942311
-1.1714728
-1.1486632
-1.1259656
-1.1035588
-1.0816289
-1.0603591
-1.0399209
-1.0204717
-1.0021474
-0.98506117
-0.96930501
-0.95496248
-0.94213621
-0.93097811
-0.9216899
-0.9144541
-0.90932483
-0.90616784
-0.87743856
-0.88022987
-0.8847619
-0.89116035
-0.89938525
-0.90928712
-0.92070027
-0.93350646
-0.94763458
-0.96303461
-0.97965238
-0.99741713
-1.0162377
-1.0360016
-1.0565779
-1.0778176
-1.0995595
-1.1216393
-1.1438978
-1.1661903
-1.1883895
-1.2103885
-1.2320996
-1.2534516
-1.2743866
-1.294857
-1.3148219
-1.3342451
-1.3530935
-1.3713341
-1.3889339
-1.4058597
-1.3552351
-1.3373272
-1.3187979
-1.2996926
-1.2800571
-1.2599377
-1.2393818
-1.2184403
-1.1971695
-1.1756328
-1.1539045
-1.1320718
-1.1102374
-1.0885201
-1.0670539
-1.0459827
-1.0254576
-1.0056259
-0.9866225
-0.96856215
-0.9515358
-0.93561289
-0.92084166
-0.9072524
-0.89486272
-0.88369088
-0.87377708
-0.86520455
-0.85810435
-0.8525937
-0.84869622
-0.84629361
-0.8132338
-0.81523452
-0.81848121
-0.82308587
-0.82902972
-0.8362336
-0.84461444
-0.85411481
-0.86471883
-0.87643529
-0.88928131
-0.90326411
-0.91837499
-0.93458414
-0.95183724
-0.97005209
-0.989121
-1.0089165
-1.0293022
-1.0501441
-1.0713017
-1.0926463
-1.1140637
-1.1354563
-1.1567359
-1.1778251
-1.1986541
-1.2191594
-1.2392814
-1.2589628
-1.2781468
-1.296777
-1.2314703
-1.2124191
-1.1928933
-1.1729586
-1.1526812
-1.1321287
-1.1113712
-1.0904809
-1.0695376
-1.0486323
-1.02787
-1.0073479
-0.98718125
-0.967497
-0.94842039
-0.93009478
-0.91264942
-0.89619329
-0.88080823
-0.86654529
-0.85342444
-0.84143948
-0.83056398
-0.82075839
-0.81198411
-0.80419081
-0.79735304
-0.79150056
-0.78669495
-0.782988
-0.78037757
-0.7787669
-0.74340559
-0.74462983
-0.74661733
-0.74944164
-0.75311207
-0.75761199
-0.76292046
-0.76905834
-0.7760572
-0.7839822
-0.79290278
-0.80288672
-0.81398985
-0.82624886
-0.8396741
-0.8542434
-0.86990098
-0.88656096
-0.90411304
-0.92242231
-0.94136203
-0.96080655
-0.98063116
-1.0007122
-1.0209607
-1.041285
-1.061606
-1.081848
-1.1019271
-1.1217656
-1.1412916
-1.1604325
-1.0848989
-1.0660173
-1.046851
-1.0274798
-1.0079712
-0.9884014
-0.96883751
-0.94936888
-0.93009186
-0.91110152
-0.89249926
-0.87441357
-0.85696551
-0.84027944
-0.82448001
-0.80966824
-0.79593358
-0.78333965
-0.77191858
-0.76166852
-0.75255487
-0.74451705
-0.73747643
-0.73134445
-0.72603241
-0.72145987
-0.71757184
-0.7143343
-0.7117361
-0.70975725
-0.70838545
-0.70753773
-0.6716098
-0.67211605
-0.67293519
-0.67413932
-0.67576238
-0.67784
-0.68040643
-0.6835149
-0.68724052
-0.69167772
-0.69692991
-0.70310151
-0.7102885
-0.71856998
-0.72800009
-0.73860104
-0.75036107
-0.76323589
-0.77715288
-0.79201921
-0.80772799
-0.82416737
-0.84122654
-0.77222915
-0.75691811
-0.74229636
-0.72846739
-0.71553216
-0.70358338
-0.69269773
-0.68293013
-0.67430709
-0.66682286
-0.66043885
-0.65508621
-0.65067253
-0.64708981
-0.64422314
-0.64195931
-0.64019421
-0.63884082
-0.63782952
-0.63710273
-0.63660318
-0.63628762
-0.63609098
-0.60129961
-0.6012195
-0.6010859
-0.60095572
-0.60088177
-0.60094047
-0.60120099
-0.60175201
-0.60268872
-0.60412071
-0.60616689
-0.60894828
-0.61258012
-0.61716363
-0.62277827
-0.6294751
-0.63727417
-0.64616465
-0.65610745
-0.66704119
-0.67888783
-0.69155953
-0.70496394
-0.64017563
-0.62878001
-0.61813369
-0.60831752
-0.59940625
-0.5914636
-0.58453623
-0.57864869
-0.57379857
-0.56995442
-0.56705599
-0.56501702
-0.56373137
-0.56308046
-0.56294041
-0.56319133
-0.56372055
-0.56442665
-0.56521333
-0.56599326
-0.56667614
-0.56720353
-0.56752662
-0.53500468
-0.53447189
-0.53360438
-0.53244328
-0.53105132
-0.52952994
-0.52797908
-0.52650147
-0.52520152
-0.52419156
-0.52359072
-0.52352193
-0.52410407
-0.52544505
-0.5276348
-0.53073987
-0.53480041
-0.5398296
-0.54581572
-0.55272547
-0.56050877
-0.56910382
-0.57844172
-0.52018981
-0.5129102
-0.50634733
-0.50055843
-0.49559292
-0.49148842
-0.48826628
-0.48592749
-0.48445013
-0.48378774
-0.48387004
-0.48460584
-0.48588802
-0.48759984
-0.4896217
-0.4918375
-0.49413737
-0.49641649
-0.49856811
-0.50048308
-0.50205154
-0.50320821
-0.50391917
-1.4376144
-1.4624705
-1.473496
-1.499219
-1.5113864
-1.5368495
-1.5480213
-1.5745884
-1.5871343
-1.6137962
-1.6254788
-1.6536307
-1.6669238
-1.6954276
-1.7081355
-1.7385581
-1.7531471
-1.7843469
-1.798604
-1.8322894
-1.8488475
-1.8839135
-1.9005819
-1.9389206
-1.9584542
-1.9989536
-2.0192283
-2.0641462
-2.0882116
-2.1364822
-2.1622841
-2.216864
-2.2477669
-2.3078326
-2.3419932
-2.4110147
-2.4529102
-2.5305859
-2.579216
-2.6697321
-2.7299955
-2.8342405
-2.9061833
-3.0298722
-3.1196927
-3.2670415
-3.3799063
-3.5612045
-3.711134
-3.9410052
-4.1453086
-4.443858
-4.7328899
-5.1343092
-5.5650901
-6.1297913
-6.8048668
-7.6418666
-8.7226459
-10.166493
-12.310768
-15.079072
-21.001676
-35.83305
-8.4700103
-16.251839
-11.694907
-9.1923878
-4.460407
-0.20250446
-2.9720442
-2.6070927
-4.1052895
-7.0071062
-14.077912
-23.320884
-34.177707
-20.114634
-14.955695
-12.015886
-9.8564424
-8.4360619
-7.3916218
-6.5587661
-5.9298726
-5.3646792
-4.9655458
-4.5559604
-4.2907172
-3.9828877
-3.8030906
-3.5674504
-3.4395761
-3.2529188
-3.1582257
-3.005703
-2.9322464
-2.8045058
-2.745938
-2.6375352
-2.5886324
-2.4943858
-2.455234
-2.3736881
-2.3405151
-2.2683019
-2.2415965
-2.178333
-2.1544886
-2.0973509
-2.0776786
-2.0266069
-2.0084194
-1.9611303
-1.9458334
-1.9027584
-1.8880645
-1.847529
-1.8349142
-1.797432
-1.7848848
-1.7492057
-1.7383017
-1.7048312
-1.6936689
-1.6612999
-1.6514378
-1.6207607
-1.6103962
-1.5803662
-1.5710814
-1.5424102
-1.5324173
-1.5039635
-1.4948436
-1.4673948
-1.4574501
-1.4297335
-1.4203942
-1.4783759
-1.486757
-1.5152306
-1.5245581
-1.552934
-1.561416
-1.5909632
-1.6005893
-1.6305151
-1.6393783
-1.6707729
-1.6811553
-1.7132746
-1.722965
-1.7570358
-1.7685164
-1.8037957
-1.814787
-1.852417
-1.8654564
-1.9050364
-1.9180564
-1.9609328
-1.976317
-2.0221042
-2.0382263
-2.088386
-2.1077539
-2.162158
-2.1831548
-2.2438256
-2.2693273
-2.336684
-2.365204
-2.4417481
-2.4772381
-2.5637472
-2.6057563
-2.7054699
-2.7580704
-2.8730057
-2.9364277
-3.0714298
-3.151025
-3.3116223
-3.413486
-3.6080057
-3.7453811
-3.9908159
-4.1807864
-4.497075
-4.7735897
-5.194423
-5.6140924
-6.1947571
-6.8526126
-7.713531
-8.8281358
-10.229123
-12.189159
-14.266314
-17.798623
-13.095377
-11.488662
-10.246804
-9.0602346
-7.987569
-7.1776203
-6.3801829
-5.9041865
-5.2972861
-5.011088
-4.5214465
-4.3600766
-3.963016
-3.8864111
-3.5636828
-3.5264431
-3.254902
-3.2453258
-3.0128096
-3.0142283
-2.8140869
-2.8223211
-2.6501035
-2.659732
-2.5070056
-2.5222563
-2.3883244
-2.4035981
-2.282
-2.3013891
-2.1943291
-2.2108986
-2.1125606
-2.1314506
-2.0431729
-2.0594051
-1.9763094
-1.9945385
-1.9189767
-1.9344113
-1.8624418
-1.8795154
-1.8134618
-1.8277273
-1.7640168
-1.7798226
-1.7207401
-1.7336491
-1.6759336
-1.6903066
-1.6363844
-1.6480582
-1.5948126
-1.6079384
-1.5577746
-1.568277
-1.5183912
-1.5300546
-1.4828098
-1.4920226
-1.4444597
-1.4548851
-1.4361805
-1.4593118
-1.4713055
-1.4954831
-1.5092349
-1.5329282
-1.5451829
-1.5702177
-1.5844213
-1.6092149
-1.6221225
-1.6486523
-1.6637381
-1.6902723
-1.7042897
-1.7329982
-1.7494977
-1.778578
-1.7942545
-1.8261101
-1.8447527
-1.8774887
-1.8957435
-1.9320656
-1.9539114
-1.991779
-2.0138413
-2.0564845
-2.083174
-2.1284241
-2.1563419
-2.2083396
-2.2422946
-2.2988758
-2.335693
-2.4015565
-2.4471174
-2.5205741
-2.5725628
-2.6592092
-2.7238042
-2.8228548
-2.8991055
-3.0175386
-3.1126112
-3.253142
-3.3712379
-3.5452944
-3.7005584
-3.9219785
-4.1321835
-4.4209273
-4.7154063
-5.1054632
-5.5449068
-6.0945458
-6.7610862
-7.5775385
-8.6738213
-10.161727
-12.18906
-14.858417
-22.445961
-33.597393
-6.2409152
-1.7863159
2.2546141
2.113433
3.1789974
2.6177037
4.7626999
0.97111481
4.336069
4.4619989
4.1034464
3.3770059
3.068748
2.2478484
1.6413277
1.1968492
0.86654475
0.63331315
0.47296105
0.35389218
-1.0130069
-1.0559061
-1.0947341
-1.1288483
-1.1575784
-1.1803202
-1.1964463
-1.2048246
-1.2047935
-1.1964712
-1.1794458
-1.153141
-1.1177725
-1.0737339
-1.0220002
-0.96394837
-0.90156935
-0.83662721
-0.7712555
-0.7076601
-0.64722931
-0.5909798
-0.53948468
-0.49297286
-0.45140136
-0.41454008
-0.38204293
-0.38296887
-0.41546441
-0.45229836
-0.49381036
-0.54022381
-0.5915771
-0.64763975
-0.70783946
-0.7711707
-0.83625388
-0.90091302
-0.96303639
-1.0208649
-1.0724354
-1.1163597
-1.1516674
-1.1779533
-1.1950098
-1.2033953
-1.203437
-1.1951206
-1.1791016
-1.1564522
-1.1278131
-1.0938028
-1.0550865
-1.012302
-0.89685215
-0.89839582
-0.90100077
-0.90475838
-0.90971252
-0.91576967
-0.92277783
-0.93056421
-0.93895566
-0.94777054
-0.95681351
-0.96587297
-0.97472601
-0.98314051
-0.99087356
-0.99768249
-1.0033237
-1.0076309
-1.0105516
-1.0531026
-1.0497835
-1.0448902
-1.0384731
-1.0307165
-1.021894
-1.0122841
-1.0021656
-0.99180777
-0.98146916
-0.9713946
-0.96180963
-0.95292224
-0.94492976
-0.93802764
-0.93238678
-0.9281103
-0.92514857
-0.92339053
-0.94677829
-0.94873308
-0.95202267
-0.95677672
-0.96305077
-0.97073389
-0.97963842
-0.98954912
-1.0002473
-1.0115011
-1.0230577
-1.0346414
-1.0459603
-1.0567098
-1.0665764
-1.0752461
-1.0824151
-1.0878795
-1.0915885
-1.1253707
-1.1212801
-1.1152613
-1.1073678
-1.097827
-1.0869731
-1.0751555
-1.0627209
-1.0500069
-1.0373352
-1.025009
-1.0133044
-1.0024733
-0.9927521
-0.98437189
-0.9775337
-0.97235392
-0.96877148
-0.96664036
-0.98266566
-0.98494658
-0.98877464
-0.99431152
-1.0016246
-1.0105946
-1.0210112
-1.0326315
-1.0452062
-1.0584681
-1.0721223
-1.0858435
-1.0992839
-1.1120768
-1.1238439
-1.1342012
-1.142782
-1.1493315
-1.1537908
-1.1762293
-1.1714143
-1.1643614
-1.1551396
-1.1440359
-1.13145
-1.1178004
-1.1034933
-1.0889204
-1.0744494
-1.0604224
-1.0471469
-1.0348999
-1.0239389
-1.0145138
-1.0068409
-1.0010412
-0.99704176
-0.99466337
-1.0022441
-1.004709
-1.0088414
-1.0148273
-1.0227452
-1.0324777
-1.0438098
-1.0564916
-1.0702646
-1.084849
-1.0999321
-1.115163
-1.1301606
-1.144515
-1.1577959
-1.1695534
-1.1793536
-1.1868747
-1.1920343
-1.2002102
-1.1947932
-1.1869072
-1.1766541
-1.1643968
-1.1506049
-1.1357562
-1.1202997
-1.1046557
-1.08921
-1.0743133
-1.060275
-1.0473693
-1.0358473
-1.0259495
-1.017879
-1.011737
-1.0074288
-1.0047648
-1.0033984
-1.0058689
-1.0100515
-1.0161184
-1.0241362
-1.0339918
-1.0454802
-1.0583662
-1.072407
-1.0873382
-1.1028595
-1.1186275
-1.1342597
-1.1493335
-1.1633892
-1.1759281
-1.1864504
-1.1945549
-1.2001159
-1.1916589
-1.186001
-1.1777909
-1.1671656
-1.1545582
-1.1404935
-1.1254831
-1.1099878
-1.0944214
-1.0791531
-1.0645099
-1.0507758
-1.0382003
-1.0270136
-1.0174408
-1.0096796
-1.0038372
-0.99983792
-0.99748406
-0.98708761
-0.98932665
-0.99310286
-0.9986182
-1.0059586
-1.0150334
-1.0256614
-1.0376348
-1.0507418
-1.0647537
-1.0794098
-1.0944085
-1.1094049
-1.1240067
-1.1377675
-1.1501804
-1.160711
-1.1689009
-1.1745835
-1.1483917
-1.1428703
-1.134954
-1.1248267
-1.1129599
-1.0998839
-1.0860878
-1.0719906
-1.0579522
-1.0442834
-1.0312535
-1.019094
-1.0080079
-0.99818381
-0.98980735
-0.98303895
-0.9779539
-0.9744668
-0.97238933
-0.95363148
-0.95550025
-0.95862593
-0.96317671
-0.96923001
-0.97672258
-0.98551475
-0.99544518
-1.0063505
-1.0180565
-1.030365
-1.0430453
-1.0558285
-1.0683987
-1.0803794
-1.0913192
-1.100714
-1.1081002
-1.1132837
-1.0696818
-1.0650437
-1.05848
-1.0501778
-1.0405675
-1.0301019
-1.0191758
-1.0081093
-0.99716514
-0.98656418
-0.97649537
-0.9671216
-0.95858766
-0.95103118
-0.9445893
-0.93938188
-0.9354628
-0.93276713
-0.93115061
-0.90533353
-0.90666456
-0.9088754
-0.9120837
-0.91633899
-0.92159493
-0.92775038
-0.93469138
-0.94230511
-0.95047553
-0.95907491
-0.96795728
-0.97695328
-0.98585999
-0.99442542
-1.0023298
-1.0091969
-1.0146574
-1.01855
-0.96127453
-0.95831325
-0.95420489
-0.9490646
-0.94317507
-0.93681601
-0.93021898
-0.92356084
-0.91698135
-0.91059857
-0.90451555
-0.89882554
-0.89361713
-0.88897976
-0.88500537
-0.88177739
-0.87933584
-0.87764847
-0.87662659
-0.84550848
-0.84620886
-0.84735305
-0.84899889
-0.85116049
-0.85380387
-0.85686294
-0.86026761
-0.86394991
-0.86784761
-0.87190249
-0.87605449
-0.88023274
-0.88435987
-0.88833677
-0.89202797
-0.89526328
-0.89786429
-0.89977605
-0.83578401
-0.83498641
-0.83397133
-0.83272789
-0.83132135
-0.82980662
-0.82822037
-0.82658243
-0.82490448
-0.82319549
-0.82148387
-0.81980409
-0.81819774
-0.81671504
-0.8154025
-0.81430763
-0.81345825
-0.8128584
-0.81248073
-0.7780488
-0.77811504
-0.77819018
-0.77827235
-0.77834052
-0.77837155
-0.77833142
-0.77818182
-0.77790349
-0.77748109
-0.77691025
-0.77620021
-0.77538863
-0.77452462
-0.77366255
-0.77286039
-0.77217421
-0.77164877
-0.77135645
-0.70860954
-0.70987576
-0.71177481
-0.71418415
-0.71696258
-0.71995645
-0.72302384
-0.72604499
-0.72891992
-0.73157833
-0.73396924
-0.73606299
-0.73784896
-0.73932619
-0.74051065
-0.74141979
-0.74206977
-0.74249569
-0.74272577
-0.70690229
-0.70640034
-0.70551914
-0.70420578
-0.70241392
-0.7001362
-0.69737663
-0.69415083
-0.69047105
-0.68636803
-0.68189475
-0.67713124
-0.67219065
-0.66721947
-0.66239488
-0.65792918
-0.65405655
-0.65099576
-0.64890536
-0.59323372
-0.59597461
-0.59995288
-0.60498842
-0.61080586
-0.61710988
-0.62363357
-0.63015353
-0.63648515
-0.64248291
-0.64803759
-0.65307146
-0.65753124
-0.66138039
-0.66458752
-0.66713234
-0.66901308
-0.67028492
-0.67102164
-0.63555184
-0.63461777
-0.6330152
-0.63065553
-0.62747809
-0.62349398
-0.6187413
-0.61327066
-0.60713825
-0.60041752
-0.59320809
-0.58564407
-0.57789772
-0.5701833
-0.56275886
-0.55593016
-0.55003465
-0.54538403
-0.54216685
-0.49594186
-0.4994732
-0.50456843
-0.51104008
-0.5185582
-0.52676068
-0.53531744
-0.54394744
-0.55241541
-0.5605286
-0.56813258
-0.57510857
-0.58136471
-0.5868264
-0.59142527
-0.59510682
-0.59785032
-0.59971872
-0.60081254
-0.56709361
-0.56587723
-0.56380585
-0.56077117
-0.55671017
-0.55165315
-0.54566973
-0.53884455
-0.53126833
-0.52304875
-0.51432029
-0.50525282
-0.49605343
-0.48697047
-0.47829748
-0.47037607
-0.46357805
-0.45823723
-0.45453295
-0.41773216
-0.42149237
-0.42691303
-0.43382838
-0.44191109
-0.45079166
-0.46012746
-0.46962135
-0.479019
-0.4881048
-0.49669825
-0.50465277
-0.51184779
-0.51817895
-0.52354756
-0.52787058
-0.53110894
-0.53332352
-0.53462686
-0.50359715
-0.50223914
-0.49993578
-0.49657335
-0.49209441
-0.48654605
-0.48002249
-0.47263396
-0.46449575
-0.45573829
-0.44651652
-0.43701714
-0.42745904
-0.41809649
-0.40922305
-0.40117419
-0.39430831
-0.3889384
-0.38521435
-1.4464836
-1.4684879
-1.4801233
-1.50417
-1.5187679
-1.5412836
-1.5532734
-1.578229
-1.5934131
-1.6170009
-1.6297635
-1.6562699
-1.6724204
-1.6976867
-1.7116481
-1.7404092
-1.7580819
-1.7858094
-1.8015558
-1.8335421
-1.8535226
-1.8848255
-1.9032887
-1.9398175
-1.9632269
-1.9995691
-2.0219976
-2.0649902
-2.0935301
-2.1371744
-2.1657413
-2.2182477
-2.254388
-2.3092132
-2.3471414
-2.4132167
-2.4615567
-2.5329315
-2.5865446
-2.6735296
-2.7415845
-2.8387998
-2.9175549
-3.0367676
-3.1364587
-3.276023
-3.3982083
-3.5735561
-3.7347926
-3.9555611
-4.1721927
-4.4615768
-4.7661435
-5.1542961
-5.6064337
-6.1546351
-6.8316189
-7.6522717
-8.7926112
-10.293913
-12.268541
-15.347054
-25.583932
-27.485548
-5.7982106
-1.1482376
1.82746
2.0000827
4.188937
4.3561726
4.4680804
5.7641791
4.6872521
6.6435167
6.7431773
5.8049644
4.840096
5.4085134
6.1879188
7.2710618
7.1957667
7.39109
7.5771451
6.2784927
5.4695543
4.5260264
5.1984723
4.0424839
2.8191694
2.0192073
1.4600142
1.0565923
0.77243866
0.57855056
0.4385869
-1.4512125
-1.4850609
-1.5268081
-1.5610038
-1.604568
-1.6399045
-1.686264
-1.7246814
-1.7749906
-1.8174437
-1.8731476
-1.9216881
-1.9852076
-2.0419765
-2.1163256
-2.1847196
-2.2770256
-2.3662736
-2.4804724
-2.6029716
-2.7568809
-2.9237837
-3.1179913
-3.3449679
-3.6229744
-3.9660674
-4.3533037
-4.8348423
-5.3797138
-6.1950504
-6.6430948
-5.485192
-1.9879217
0.079725251
1.2474882
1.7338643
1.5192759
1.8812729
1.5152429
1.1772201
0.88167406
0.64658799
0.47760918
0.35668437
0.2625298
0.16935034
0.23779939
0.32186229
0.42814801
0.57124653
0.73973742
0.89302751
0.97548336
0.82265217
0.59033724
-0.26764158
-1.7258342
-3.542606
-4.4294671
-4.4945887
-4.3539364
-4.1520601
-3.8652422
-3.61639
-3.353175
-3.1384776
-2.9482334
-2.7830802
-2.6418058
-2.5112065
-2.4051429
-2.2958849
-2.221122
-2.1317027
-2.0752089
-1.9974313
-1.9518045
-1.8825242
-1.8453335
-1.7828663
-1.7516927
-1.6931027
-1.6642865
-1.6081874
-1.5827663
-1.529438
-1.5047326
-1.452947
-1.4278464
-1.3769631
-1.3475958
-1.4453907
-1.4228176
-1.5228206
-1.4984598
-1.6011764
-1.5750684
-1.680413
-1.6548387
-1.7639155
-1.7412037
-1.8556576
-1.8380776
-1.9569936
-1.9466687
-2.0698297
-2.0708596
-2.2001489
-2.2220351
-2.3563508
-2.4082736
-2.5448641
-2.6358455
-2.7666416
-2.9097362
-3.0170382
-3.2226958
-3.2532333
-3.4755275
-3.3958932
-3.5167289
-3.1180054
-2.5426736
-1.4202409
-0.61636023
-0.07532734
-0.42481537
0.14224713
0.36492209
0.41591396
0.37341249
0.29970464
0.23305614
0.17569552
0.12338824
0.078766349
-0.0058085967
0.01862083
0.044429116
0.068224053
0.08412774
0.089504302
0.067470859
-0.024077341
-0.24552313
-0.65014973
-1.25278
-1.4281175
-2.4305076
-2.769609
-2.7165562
-2.5831336
-2.447443
-2.3043474
-2.1676419
-2.0474677
-1.9418024
-1.8470428
-1.757352
-1.6725552
-1.5929881
-1.5164183
-1.439884
-1.363007
-1.3106991
-1.3860949
-1.4601651
-1.533327
-1.6073572
-1.682742
-1.7614224
-1.8427215
-1.9268818
-2.0141021
-2.1016618
-2.1808402
-2.2322606
-2.2440386
-2.1799085
-1.8752315
-1.5317452
-1.1358541
-0.75513305
-0.46908224
-0.28448184
-0.17657718
-0.11476066
-0.081662873
-0.068798231
-0.068413909
-0.074051312
-0.08221919
-0.14947771
-0.15384806
-0.16286801
-0.17978954
-0.20948852
-0.25907482
-0.336942
-0.45041017
-0.609585
-0.82355378
-1.0845024
-1.3527993
-1.5561827
-1.7918532
-1.902685
-1.9337804
-1.9248699
-1.8904609
-1.8403898
-1.7828518
-1.7218435
-1.6592085
-1.5952246
-1.53014
-1.4639182
-1.3964126
-1.3270398
-1.2552428
-1.2035401
-1.2711407
-1.3358462
-1.3977622
-1.4570577
-1.5135747
-1.5669845
-1.6163405
-1.6604029
-1.6969676
-1.7222189
-1.7295736
-1.7122686
-1.6628878
-1.477292
-1.3824199
-1.230823
-1.0413335
-0.85247231
-0.68532682
-0.54800831
-0.44161088
-0.363532
-0.30751639
-0.2680413
-0.24045515
-0.22113264
-0.20741893
-0.25617273
-0.27661958
-0.30290688
-0.33706933
-0.38165692
-0.43965739
-0.51421025
-0.60796849
-0.72252182
-0.85537072
-0.99846624
-1.1384048
-1.2566665
-1.3436639
-1.4049521
-1.5366516
-1.5690967
-1.5785274
-1.570256
-1.5492407
-1.5187226
-1.4808125
-1.437022
-1.3885488
-1.3360367
-1.2798633
-1.2201914
-1.1572343
-1.1185534
-1.176811
-1.2314642
-1.2822048
-1.3287026
-1.3703359
-1.4061268
-1.4347759
-1.4551456
-1.4652241
-1.4624504
-1.443546
-1.3456521
-1.3056739
-1.2478442
-1.1709692
-1.0741739
-0.96440205
-0.85176001
-0.74456318
-0.64792357
-0.5645464
-0.4946099
-0.43704056
-0.39016884
-0.35217509
-0.32134375
-0.2961884
-0.32783411
-0.35615512
-0.38981411
-0.42986374
-0.47742878
-0.53353534
-0.59896221
-0.67390238
-0.75758309
-0.84771294
-0.9406188
-1.0305048
-1.1113474
-1.1789287
-1.2325142
-1.2719818
-1.2978772
-1.3693776
-1.3788733
-1.3762585
-1.363376
-1.3417656
-1.3125811
-1.2768926
-1.2357464
-1.1899385
-1.139897
-1.0860284
-1.0597248
-1.1098196
-1.156007
-1.1977227
-1.2343682
-1.2651778
-1.2892694
-1.3058792
-1.3135593
-1.3112958
-1.2612154
-1.2456824
-1.2191129
-1.1810275
-1.1313414
-1.0706704
-1.0003908
-0.92343365
-0.84359799
-0.76494189
-0.69033355
-0.62171727
-0.56007942
-0.50566165
-0.45820388
-0.4171709
-0.38184677
-0.35149601
-0.36777074
-0.39933733
-0.43557359
-0.47700434
-0.52407096
-0.57703797
-0.63588223
-0.70017286
-0.76883878
-0.84024582
-0.91189034
-0.98079838
-1.0443555
-1.1002209
-1.1469215
-1.183647
-1.2102225
-1.2268089
-1.233989
-1.2665215
-1.2622757
-1.2491641
-1.2287313
-1.2015708
-1.1683207
-1.1298117
-1.0867405
-1.0396768
-1.0255757
-1.0704744
-1.1113303
-1.1475177
-1.1783369
-1.2030876
-1.2212578
-1.2319907
-1.2316836
-1.2629608
-1.307191
-1.3644371
-1.4350543
-1.5186824
-1.6167094
-1.7250726
-1.8497948
-1.9522955
-1.9966349
-1.9672434
-2.0132446
-1.9977461
-2.0199879
-2.0295957
-2.0727946
-2.1024293
-2.1455457
-2.1742398
-2.2271355
-2.264577
-2.318959
-2.3574165
-2.4240476
-2.4741262
-2.5451333
-2.5997598
-2.6876443
-2.7579713
-2.8552868
-2.9361013
-3.0567581
-3.1590347
-3.2998305
-3.4255284
-3.6034204
-3.7698017
-3.9913325
-4.2151289
-4.5070855
-4.8203873
-5.2092561
-5.671295
-6.2264067
-6.9256485
-7.7731836
-8.9940179
-10.595381
-12.682952
-17.44291
-30.88995
-19.100918
-4.7285678
-0.84065024
2.2281998
3.5546039
3.6436178
5.0677358
5.5182262
6.1097502
5.9444631
6.8415936
4.8646399
6.160207
7.6339236
8.756628
7.8016809
8.2293042
8.0021744
7.7997216
6.6622518
7.6950163
6.1096664
6.566265
5.3570676
4.0849462
3.1423821
2.256957
1.6395218
1.1987848
0.88416842
0.66810267
0.51333442
-1.1049676
-1.1084275
-1.1106088
-1.1069826
-1.0364002
-1.0388909
-1.0432826
-1.245094
-1.2393705
-1.1737694
-1.1783639
-1.1799706
-1.1752006
-1.2401233
-1.2460295
-1.25648
-1.2552194
-3.6394318
-3.7209749
-3.7030768
-3.736405
-3.7599075
-3.7816269
-3.7822773
-3.7806671
-3.8418117