/*--------------------------------*- C++ -*----------------------------------*\
| =========                 |                                                 |
| \\      /  F ield         | OpenFOAM: The Open Source CFD Toolbox           |
|  \\    /   O peration     | Version:  v2012                                 |
|   \\  /    A nd           | Website:  www.openfoam.com                      |
|    \\/     M anipulation  |                                                 |
\*---------------------------------------------------------------------------*/
FoamFile
{
    version     2.0;
    format      ascii;
    class       surfaceScalarField;
    location    "238";
    object      phi;
}
// * * * * * * * * * * * * * * * * * * * * * * * * * * * * * * * * * * * * * //

dimensions      [0 3 -1 0 0 0 0];
oriented        oriented;


internalField   nonuniform List<scalar> 
142619
(
-0.004061183
-7.2173594e-06
1.4567218e-05
-5.0592725e-07
-0.0040674504
-6.4421269e-06
1.3015339e-05
-3.0578776e-07
-0.0040730473
-5.548052e-06
1.1224065e-05
-7.9126186e-08
-0.0040778853
-4.531213e-06
9.1892383e-06
1.8005356e-07
-0.0040818633
-3.3961097e-06
6.9116805e-06
4.6238436e-07
-0.00408488
-2.1434682e-06
4.3983102e-06
7.6182564e-07
-0.0040868377
-7.73189e-07
1.6488938e-06
1.0820278e-06
-0.0040876362
6.9454686e-07
-1.3206835e-06
1.424642e-06
-0.0040871676
2.1898922e-06
-4.4346158e-06
1.7761126e-06
-0.004085365
3.8598626e-06
-7.7946203e-06
2.1321413e-06
-0.0040821648
5.621407e-06
-1.1332207e-05
2.5105725e-06
-0.0040775323
7.3742118e-06
-1.4899768e-05
2.8930674e-06
-0.0040714832
9.075151e-06
-1.8384085e-05
3.2598836e-06
-0.0040641108
1.0648733e-05
-2.1624337e-05
3.6032318e-06
-0.0040555894
1.2020884e-05
-2.4453848e-05
3.9115337e-06
-0.0040461692
1.3107168e-05
-2.6694678e-05
4.1673114e-06
-0.0040361709
1.383988e-05
-2.8194558e-05
4.356325e-06
-0.0040259529
1.4185457e-05
-2.8874161e-05
4.4707806e-06
-0.0040158467
1.4156577e-05
-2.8768881e-05
4.5060635e-06
-0.0040061181
1.3806617e-05
-2.8001028e-05
4.4658592e-06
-0.0039969693
1.3201271e-05
-2.6711204e-05
4.3610887e-06
-0.0039885278
1.2412559e-05
-2.5055082e-05
4.2010612e-06
-0.0039808569
1.1509123e-05
-2.3179309e-05
3.9992055e-06
-0.0039739688
1.0551356e-05
-2.120616e-05
3.7667047e-06
-0.003967838
9.5853451e-06
-1.9229678e-05
3.5135487e-06
-0.0039624202
8.6466709e-06
-1.7317146e-05
3.2526793e-06
7.7567186e-06
-1.5510552e-05
2.9912905e-06
-9.6281348e-06
0.00026800472
-0.0005879297
0.00031481699
-1.323256e-05
0.00026843901
-0.00057997312
0.00031513853
-1.0382962e-05
0.00026843786
-0.00058587934
0.00031459188
-1.997808e-05
0.00026741343
-0.00057101463
0.00031319632
-5.0103971e-05
0.00027049533
0.0003111487
-0.00055151814
-0.00022613258
0.00030378434
0.00033825476
-0.00046601049
-0.00023038025
0.00011413829
6.5198533e-05
-0.00017508915
-0.00025395328
3.5992699e-05
-3.9741466e-05
2.7321794e-05
-4.7604482e-05
0.00015808342
-0.00061844498
0.00025401276
-2.9399843e-05
0.00023521346
-0.00055173649
0.00029831839
-1.4538779e-05
0.00025723885
-0.00058219412
0.0003100942
-1.807106e-05
0.00026459732
-0.00057461967
0.00031355463
-1.3569205e-05
0.00026709324
-0.00058604318
0.00031444808
-2.4501931e-05
0.00026674253
-0.00056943914
0.00031362934
-5.289457e-05
0.00027000422
-0.00055336601
0.00031175443
-0.00022918066
0.00030295454
-0.00046580802
0.00033913958
-0.00023224361
0.00011099617
-0.00016975332
6.1820102e-05
-0.00025788349
3.2991046e-05
-3.1277998e-05
2.3926825e-05
-5.3299868e-05
0.00015651072
-0.0006138009
0.00025270656
-4.2244772e-05
0.00023080481
-0.00053567376
0.00029381385
-5.7703772e-05
0.00025558502
0.00030346717
-0.00054359319
-0.00023009186
0.00029615932
-0.00045841603
0.00033464481
-0.00023274124
0.0001064219
-0.00016177955
5.8007029e-05
-0.00026332774
3.0511368e-05
-2.0730988e-05
2.0806128e-05
-5.7889875e-05
0.00015616239
-0.00061452595
0.0002529257
-5.0740822e-05
0.00023010693
-0.00053153496
0.00029427898
-6.3960921e-05
0.00025494946
-0.00054561756
0.0003038882
-0.0002375754
0.00029372328
-0.0004546601
0.00033455129
-0.00023680187
9.7199878e-05
-0.00014723932
4.9265916e-05
-0.00026884538
2.1328959e-05
3.3801305e-08
1.0680743e-05
-9.7783511e-05
0.00015425084
-0.00057235445
0.00024704174
-0.00024169229
0.00025467291
-0.00042502428
0.00031426015
-0.00023796006
8.1152058e-05
-0.00012180829
3.6924008e-05
-0.00027299848
1.3101743e-05
1.9285477e-05
2.6511997e-06
-0.00011041599
0.00014993261
-0.00055445203
0.00024193692
-0.00026584153
0.0002481056
-0.00040661932
0.00031393925
-0.0002650452
5.9349514e-05
-8.5766184e-05
2.5620343e-05
-0.00025641535
-7.4590642e-05
0.00010811067
-4.2149875e-05
-0.00025439885
0.00041605347
-0.000100449
-0.00031762098
-0.00029164566
2.3108663e-05
-1.9980871e-05
3.4119022e-05
-0.00033169102
6.6411053e-06
1.0516733e-05
2.288752e-05
-0.00034333375
-1.1393793e-05
5.462835e-06
1.7573688e-05
-0.00037216222
3.3750888e-05
1.5574793e-06
-6.4798947e-06
-0.00029632891
-5.9196184e-05
-2.3103384e-05
6.4662546e-06
-0.00011808948
0.00012960526
-0.00016561741
-0.00014222729
-0.00015134788
-5.2199836e-06
1.949058e-05
1.8987803e-05
-0.00022150999
-2.4233143e-05
7.025138e-05
2.4143874e-05
-0.00024401591
-1.7590794e-05
1.1369418e-05
2.8727292e-05
-0.0002663575
-1.3383844e-05
1.4011884e-05
2.1713552e-05
-0.00028183462
-1.1939671e-05
1.1601254e-05
1.5815537e-05
-0.00029334494
-1.1568412e-05
1.1080068e-05
1.199867e-05
-0.00030307664
-1.1222774e-05
9.9955607e-06
1.0958913e-05
-0.00031243419
-1.1139147e-05
9.359084e-06
1.1137605e-05
-0.00032240694
-1.1143349e-05
1.121138e-05
9.9047211e-06
-0.00033349145
-1.104848e-05
1.1251573e-05
1.088142e-05
-0.00034531554
-1.0863108e-05
1.1007862e-05
1.1679337e-05
-0.0003573297
-1.098555e-05
1.2317148e-05
1.0682562e-05
-0.00036851826
-1.0676956e-05
9.2951071e-06
1.2570411e-05
-0.00037533591
-6.4098513e-06
4.3830232e-06
8.8444712e-06
-0.00033738856
4.7975365e-06
-2.3493324e-05
-1.9251555e-05
-9.2082013e-05
2.120265e-05
-0.00012943395
-0.00013707525
-0.0001196448
-2.8252076e-06
1.5028616e-05
1.5359381e-05
-0.00010738923
-2.8670878e-05
4.5731813e-06
1.1842124e-05
-0.00020313911
-0.00028317787
0.00020093396
0.0001779938
-0.00022160259
2.2498335e-05
-2.729519e-05
2.3260334e-05
-0.00021478761
-9.2628261e-05
0.00013473281
-4.891953e-05
-0.00028072535
0.00039145172
-1.465096e-05
-0.00031086302
-0.00033379283
-5.2999413e-07
-4.0187678e-06
5.761624e-05
-0.00038513209
1.3289302e-05
3.5715041e-06
3.4478458e-05
-0.00034344155
-0.00010845326
8.4555742e-06
5.8307143e-05
-0.00022982537
0.00011850081
-2.0634361e-05
-0.00021148263
-0.00027840324
-1.500886e-05
-2.6605488e-06
6.6247281e-05
-0.00032761664
-4.4597171e-06
3.5724917e-06
5.0100625e-05
-0.00034595457
5.438888e-06
-6.2339439e-06
1.9132987e-05
-0.00011706195
1.794955e-05
-0.00013545647
-0.00011138571
-0.00023020832
-8.3131455e-06
4.5668433e-05
7.5791084e-05
-0.00029498339
-1.1939776e-05
6.441354e-05
1.2301306e-05
-0.00032900957
-4.3480527e-06
-8.8617391e-06
4.7235976e-05
-0.00017860284
2.7716242e-05
-2.2094393e-05
-0.00015602858
-0.00025523403
1.9076349e-05
4.2498263e-06
5.3305017e-05
-0.00027129107
-7.5195004e-05
-8.0497553e-07
9.2057026e-05
-0.00018921784
0.00012430262
-2.823475e-05
-0.00017814111
-0.00018728949
-5.00071e-05
-2.7909577e-05
7.5988328e-05
-9.5077803e-05
9.7912575e-05
-5.4435856e-05
-0.0001356884
-5.5377708e-05
4.73058e-05
-4.1271971e-05
-4.5733925e-05
-8.6041757e-05
3.8401446e-05
-2.0475689e-05
1.2738293e-05
-8.931223e-05
3.5323506e-05
-4.1070196e-05
9.0171625e-06
6.7456728e-05
-5.9947959e-05
-0.00024050518
0.00014368418
6.0334589e-05
8.6380185e-05
-0.00021670421
0.00013744617
0.00016402461
6.2852752e-05
-0.00030049607
0.0001339533
-1.3868303e-05
0.00010182402
8.7149653e-05
-1.1080764e-05
-3.1249785e-05
7.0807279e-05
9.4269541e-06
8.1768028e-05
8.685879e-06
6.0779991e-05
3.7799563e-05
2.1589919e-05
0.00010897319
-5.6602413e-05
5.5715014e-05
2.4850284e-05
7.1143888e-05
3.2592074e-05
-1.9613054e-05
6.5662672e-05
7.0930869e-06
0.00017881256
4.6265751e-05
-8.8271754e-05
4.5109477e-05
9.0552003e-05
1.6621379e-05
2.6529703e-05
9.3835763e-05
3.8132805e-07
0.00025846502
2.9336042e-05
-0.0001034133
0.00021684188
7.080546e-06
5.3618948e-05
0.00031520213
-0.00018970826
0.00011906425
0.00032876713
7.7970908e-05
-9.5883955e-05
0.00025834683
9.7229667e-06
4.8757552e-05
0.00018718645
3.2977521e-06
5.9549484e-05
0.00035626582
1.879788e-05
-0.0001699277
0.00034229278
-1.1983065e-05
3.139499e-05
0.00030138251
-1.3774284e-05
5.0224839e-05
0.00023784451
-1.2924745e-05
6.1453889e-05
7.8098117e-05
0.00012279795
-6.6632558e-06
4.361169e-05
0.00011860103
-3.0455363e-05
0.00035504199
3.163798e-05
-0.00014528099
0.00035305395
-3.9931542e-06
1.9270493e-05
0.00031809228
-1.4326992e-05
4.8758672e-05
0.00020825294
-2.0331291e-05
3.7542371e-05
0.00021408332
-1.2996907e-06
1.7967644e-05
0.00016338792
9.5741802e-06
1.2450337e-05
0.00013227024
8.1657944e-07
2.7475893e-05
0.0003357322
-2.7135312e-05
-0.00015512399
0.00037401347
-2.5314784e-05
-8.1689559e-06
0.00037487871
-1.8157294e-05
1.0882211e-05
0.00036482462
-1.3728753e-05
1.3105879e-05
0.00035237898
-1.0981872e-05
1.2441966e-05
0.00034029521
-1.0406405e-05
1.1627071e-05
0.00032874878
-1.0704185e-05
1.1202126e-05
0.00031842301
-1.1055528e-05
1.0237949e-05
0.00030933501
-1.1220223e-05
9.1690783e-06
0.00030048561
-1.1331262e-05
8.9578923e-06
0.0002905993
-1.1551377e-05
9.8692769e-06
0.000280311
-1.215535e-05
1.0503974e-05
0.00026642522
-1.331337e-05
1.3815304e-05
0.0002479092
-1.4963545e-05
1.5888768e-05
0.00021940791
-1.4349743e-05
1.8617894e-05
0.00019827213
-1.1326168e-05
2.7241969e-05
4.8657132e-05
0.00012711048
-4.4995004e-06
2.7004014e-05
0.00013938775
-2.0321546e-05
0.00029231268
-0.00017039195
0.00014457751
0.00035733555
2.4387001e-06
-3.3710681e-05
0.00037635006
2.2761138e-05
-5.3169447e-05
0.00032965894
-9.4831362e-07
5.4280544e-05
0.00032608703
2.5017381e-05
1.6631868e-06
0.0002506681
1.3365681e-05
-1.2537387e-05
0.0003247748
-9.8336643e-06
-4.9235287e-06
3.8595632e-05
-2.2509126e-05
-1.9593458e-05
0.00032828176
2.8530883e-05
-3.2308856e-05
0.00029047921
0.00020702258
-1.5457341e-05
0.00031334615
-2.3769895e-05
-1.4016171e-06
2.0336222e-05
-2.9935851e-05
-7.2707422e-06
0.00033021652
1.8054798e-05
-3.7417132e-05
0.00029437146
0.00021058071
-1.694611e-05
0.0003272871
-2.7429246e-05
7.9227392e-06
1.6072619e-05
-3.20943e-05
0.00034869956
-5.3907874e-06
2.6853095e-05
-4.7401671e-05
0.00033034448
1.7269237e-05
0.0003077922
-4.3258878e-05
2.9312677e-06
0.00028092142
-3.6476527e-05
0.00020765998
-1.8054957e-05
0.00032586843
1.7137023e-05
-2.8923578e-05
8.3230634e-06
2.378164e-06
0.00034964346
-3.4476258e-05
2.2649892e-05
0.00033099145
-4.9158967e-05
1.4188275e-05
0.0003079706
-4.3923961e-05
2.939001e-07
0.00028145707
-3.6757883e-05
0.00020820572
-1.8410059e-05
0.00032950315
1.9237419e-05
-2.953868e-05
8.9824634e-06
8.3577455e-06
0.00034983708
-3.767414e-05
2.4670993e-05
0.00033644261
-4.9176601e-05
1.5103034e-05
0.00032627418
-4.6702001e-05
1.0515123e-05
0.00031923394
-4.7903495e-05
9.1125968e-06
0.00031639247
-4.7896706e-05
7.3052858e-06
0.00031318885
-4.6784219e-05
3.974091e-06
0.00030528075
-4.4710704e-05
-5.1712733e-06
0.0002826422
-3.8283378e-05
0.00020822169
-1.9316848e-05
0.00032892466
2.5153181e-05
-3.1717855e-05
7.5238017e-06
0.00034996804
9.2570413e-06
-3.7824227e-05
2.2684605e-05
-4.9625772e-05
0.00033824931
1.2724827e-05
0.00032752145
-4.7066346e-05
8.3048911e-06
0.00032022029
-4.838692e-05
7.8216497e-06
0.00031788858
-4.8967474e-05
7.6390396e-06
0.0003174272
-4.8805577e-05
0.00031685168
-4.8231129e-05
0.0038929475
-2.167264e-06
-2.4699843e-06
0.0038978042
-2.2240311e-06
-2.6326787e-06
0.0039028541
-2.2628656e-06
-2.7869589e-06
0.0039080617
-2.2781707e-06
-2.9294701e-06
0.0039133873
-2.2720256e-06
-3.0536222e-06
0.0039187851
-2.2435111e-06
-3.1542986e-06
0.0039241986
-2.1846876e-06
-3.2287758e-06
0.0039295643
-2.0932451e-06
-3.2724328e-06
0.0039348166
-1.9695369e-06
-3.2827634e-06
0.0039398858
-1.8107235e-06
-3.2584866e-06
0.0039446964
-1.6183303e-06
-3.1922843e-06
0.0039491734
-1.3929608e-06
-3.084039e-06
0.0039532474
-1.1323715e-06
-2.9416376e-06
0.0039568514
-8.4196925e-07
-2.761963e-06
0.0039599251
-5.2559066e-07
-2.5482023e-06
0.0039624184
-1.856717e-07
-2.3075834e-06
0.003964286
1.7396431e-07
-2.0415284e-06
0.0039654921
5.4905788e-07
-1.7552331e-06
0.0039659778
9.4944014e-07
-1.4350502e-06
0.0039658531
1.2920783e-06
-1.1673852e-06
0.0039650818
1.6515309e-06
-8.8023515e-07
0.0039636626
2.0096779e-06
-5.9049461e-07
0.0039616168
2.3542785e-06
-3.0854418e-07
0.0039589861
2.6738345e-06
-4.3063042e-08
0.0039558145
2.9706998e-06
2.0084678e-07
0.0039521469
3.2442688e-06
4.2338724e-07
3.4847049e-06
6.2451839e-07
-3.4160214e-05
-0.0042605575
1.2444155e-05
-3.5546737e-05
-0.0042590251
1.2368191e-05
-3.6938113e-05
-0.0042573859
1.2292686e-05
-3.8343067e-05
-0.0042556716
1.2214944e-05
-3.9761312e-05
-0.0042539096
1.2130077e-05
-4.1188493e-05
-0.0042520582
1.2032696e-05
-4.2619415e-05
-0.0042500713
1.1916449e-05
-4.4040742e-05
-0.0042480285
1.1772579e-05
-4.5428082e-05
-0.0042458838
1.159027e-05
-4.6746575e-05
-0.0042435989
1.135792e-05
-4.7951549e-05
-0.0042412068
1.10637e-05
-4.8988624e-05
-0.0042387454
1.0696678e-05
-4.9795043e-05
-0.004236177
1.0248334e-05
-5.0303133e-05
-0.0042335189
9.7144289e-06
-5.044818e-05
-0.0042307391
9.0971063e-06
-5.0176267e-05
-0.0042278892
8.4062254e-06
-4.9447421e-05
-0.0042250425
7.6591284e-06
-0.0042222417
6.8786593e-06
4.0346674e-05
-0.0042280982
3.6159314e-06
4.2908303e-05
-0.0042245984
4.260539e-06
4.5071914e-05
-0.0042249712
4.9629756e-06
4.6800678e-05
-0.0042271231
5.7083266e-06
4.8072099e-05
-0.0042299885
6.475412e-06
4.8884816e-05
-0.004233094
7.2388486e-06
4.9258204e-05
-0.0042362346
7.9720117e-06
4.9227034e-05
-0.0042393607
8.6527782e-06
4.8841425e-05
-0.004242398
9.2646381e-06
4.8162998e-05
-0.0042452963
9.79772e-06
4.7257304e-05
-0.004248089
1.024923e-05
4.6184705e-05
-0.0042507575
1.0623242e-05
4.4995396e-05
-0.004253338
1.0928372e-05
4.3730701e-05
-0.0042557941
1.1174948e-05
4.2423996e-05
-0.0042580956
1.1373832e-05
4.1098363e-05
-0.0042602817
1.1536037e-05
3.9767438e-05
-0.0042623991
1.167182e-05
3.843793e-05
-0.0042643695
1.1789463e-05
3.7110862e-05
-0.00426624
1.1895445e-05
3.5783895e-05
-0.0042680539
1.199502e-05
3.4451439e-05
-0.0042697847
1.2092023e-05
3.3105772e-05
-0.0042714009
1.2189034e-05
3.1738946e-05
-0.0042729462
1.2287574e-05
-0.0042744208
1.2388759e-05
-3.0673816e-05
-0.0042865812
1.2155526e-05
-3.2036444e-05
-0.0042850887
1.2030511e-05
-3.3358971e-05
-0.0042835312
1.1907528e-05
-3.4650618e-05
-0.0042818958
1.1786557e-05
-3.5921409e-05
-0.0042801809
1.1666997e-05
-3.7175943e-05
-0.0042783463
1.1546921e-05
-3.8416514e-05
-0.0042764234
1.1423962e-05
-3.9648202e-05
-0.0042744335
1.1295634e-05
-4.0872101e-05
-0.0042723323
1.1157041e-05
-4.2080353e-05
-0.0042700743
1.1000784e-05
-4.3258889e-05
-0.0042677361
1.081901e-05
-4.4385594e-05
-0.0042652704
1.0603061e-05
-4.5429109e-05
-0.0042626369
1.0342448e-05
-4.6339499e-05
-0.0042598737
1.0026614e-05
-4.7107057e-05
-0.0042569673
9.6459339e-06
-4.7638236e-05
-0.0042539579
9.1927763e-06
-4.789519e-05
-0.0042508052
8.6641468e-06
-4.7784032e-05
-0.0042475344
8.062537e-06
-4.7296936e-05
-0.004244119
7.3973271e-06
-4.6390809e-05
-0.0042406852
6.6850676e-06
-4.5050102e-05
-0.0042372766
5.9474123e-06
-4.3280043e-05
-0.0042341034
5.2102279e-06
-4.1105167e-05
-0.0042316439
4.4978243e-06
-3.856426e-05
-0.0042309694
3.8300791e-06
-3.5701877e-05
-0.0042341812
3.2206618e-06
-3.2562386e-05
-0.0042447425
2.677566e-06
-2.918708e-05
-0.0042669598
2.2051564e-06
-2.5614954e-05
-0.0043033151
1.806585e-06
-2.1891299e-05
-0.0043490284
1.4841519e-06
-1.8077443e-05
-0.0043863102
1.236592e-06
-1.4254176e-05
-0.0043845567
1.0553056e-06
-1.0515483e-05
-0.0043150991
9.327017e-07
-6.9377607e-06
-0.0041807949
8.5811448e-07
-0.0040352977
7.7276459e-07
6.4617937e-06
-0.0040390672
5.5189379e-07
9.8017787e-06
-0.0041847541
6.1925371e-07
1.3300987e-05
-0.0043192767
6.7836055e-07
1.6889847e-05
-0.0043889282
7.8259272e-07
2.0483076e-05
-0.0043908443
9.4092909e-07
2.4008944e-05
-0.0043537151
1.1608777e-06
2.7412175e-05
-0.004308169
1.4506e-06
3.0650639e-05
-0.0042720098
1.8115114e-06
3.3687249e-05
-0.0042500215
2.2423642e-06
3.6483055e-05
-0.0042397183
2.7413363e-06
3.8994455e-05
-0.0042367859
3.3051148e-06
4.1176456e-05
-0.0042377527
3.9268095e-06
4.2989184e-05
-0.0042405107
4.59461e-06
4.44044e-05
-0.0042439826
5.2907787e-06
4.540062e-05
-0.0042476743
5.9928843e-06
4.6024404e-05
-0.0042514194
6.6765881e-06
4.6254757e-05
-0.0042550854
7.3206915e-06
4.6182159e-05
-0.004258641
7.9084826e-06
4.5819039e-05
-0.0042620251
8.4303868e-06
4.5232209e-05
-0.0042652639
8.8833536e-06
4.4474967e-05
-0.0042683861
9.2696955e-06
4.3591128e-05
-0.0042713493
9.5962029e-06
4.2616599e-05
-0.0042741676
9.8716807e-06
4.1579126e-05
-0.0042768046
1.0105945e-05
4.0499018e-05
-0.0042793029
1.0308746e-05
3.9379603e-05
-0.0042817006
1.048775e-05
3.8266326e-05
-0.0042839701
1.0649921e-05
3.7132413e-05
-0.0042860921
1.0802625e-05
3.5946685e-05
-0.0042881111
1.0950491e-05
3.4733362e-05
-0.0042900628
1.1095179e-05
3.3514791e-05
-0.004291916
1.1238773e-05
3.2243434e-05
-0.0042936435
1.138363e-05
3.0909646e-05
-0.0042952847
1.1529796e-05
-0.0042968935
1.1676881e-05
-3.107461e-05
1.1053443e-05
-3.2347205e-05
-0.0043048948
1.0882722e-05
-3.3560626e-05
-0.0043031424
1.0712387e-05
-3.4724087e-05
-0.0043012951
1.0542618e-05
-3.5846314e-05
-0.0042993138
1.0373262e-05
-3.692967e-05
-0.0042972304
1.0202695e-05
-3.7975137e-05
-0.0042950758
1.0029174e-05
-3.8987663e-05
-0.0042928081
9.8505497e-06
-3.9968658e-05
-0.0042903823
9.6626803e-06
-4.0908752e-05
-0.0042878224
9.4595818e-06
-4.1793348e-05
-0.0042851549
9.2348865e-06
-4.2604623e-05
-0.0042823374
8.9811194e-06
-4.3316635e-05
-0.0042793272
8.6898886e-06
-4.389484e-05
-0.0042761608
8.3528235e-06
-4.4297375e-05
-0.0042728235
7.9621728e-06
-4.4477205e-05
-0.0042693573
7.5120068e-06
-4.4388334e-05
-0.0042657304
7.0005169e-06
-4.398781e-05
-0.0042619177
6.4317389e-06
-4.3251129e-05
-0.0042579719
5.8157764e-06
-4.2119235e-05
-0.0042539748
5.1686158e-06
-4.0624222e-05
-0.0042499882
4.5105661e-06
-3.8769456e-05
-0.0042462298
3.864341e-06
-3.6585615e-05
-0.0042431872
3.2506684e-06
-3.4113906e-05
-0.0042419432
2.6855794e-06
-3.1399383e-05
-0.0042446115
2.1786198e-06
-2.8483783e-05
-0.0042546718
1.7347003e-06
-2.5404351e-05
-0.0042764443
1.3551244e-06
-2.2195724e-05
-0.0043124178
1.0401789e-06
-1.8895753e-05
-0.0043578057
7.90585e-07
-1.5553614e-05
-0.0043947914
6.0493343e-07
-1.2231116e-05
-0.0043927262
4.7556378e-07
-9.0025867e-06
-0.0043229017
3.9655538e-07
-5.9267832e-06
-0.0041881895
3.5958632e-07
-0.004042335
3.1176245e-07
5.3401268e-06
-0.004045045
4.37136e-08
8.1218654e-06
-0.0041910394
6.8126237e-08
1.1050167e-05
-0.0043259117
8.1658634e-08
1.4076868e-05
-0.0043958866
1.336711e-07
1.7141003e-05
-0.0043980865
2.3098352e-07
2.0189313e-05
-0.0043612317
3.7767707e-07
2.317926e-05
-0.0043159881
5.8039674e-07
2.6077531e-05
-0.0042801841
8.4151696e-07
2.8853941e-05
-0.0042586099
1.1617214e-06
3.147347e-05
-0.0042487725
1.5415077e-06
3.3895019e-05
-0.004246346
1.9812201e-06
3.607475e-05
-0.0042478457
2.4787167e-06
3.7969917e-05
-0.004251152
3.0270339e-06
3.9546988e-05
-0.0042551781
3.6127949e-06
4.0773383e-05
-0.0042594189
4.2176331e-06
4.1683022e-05
-0.0042637018
4.8202691e-06
4.2254824e-05
-0.0042678907
5.4012341e-06
4.252921e-05
-0.0042719497
5.9448565e-06
4.254294e-05
-0.0042758123
6.441231e-06
4.2336091e-05
-0.0042795031
6.8864496e-06
4.194909e-05
-0.0042830546
7.2808206e-06
4.1420135e-05
-0.0042864264
7.6282136e-06
4.0782114e-05
-0.0042896343
7.9349414e-06
4.0059573e-05
-0.0042926407
8.2084005e-06
3.9269164e-05
-0.004295488
8.4560315e-06
3.8423544e-05
-0.0042982208
8.684127e-06
3.7530833e-05
-0.0043008137
8.8982511e-06
3.6592522e-05
-0.004303241
9.1034994e-06
3.5606548e-05
-0.004305548
9.3035691e-06
3.4570384e-05
-0.0043077786
9.5009252e-06
3.3480716e-05
-0.0043099025
9.6970326e-06
3.2331827e-05
-0.0043118861
9.8925235e-06
1.0087858e-05
-3.3258114e-05
-0.0043197402
8.9319285e-06
-3.4267854e-05
-0.0043176031
8.7103303e-06
-3.5212944e-05
-0.0043153207
8.4872606e-06
-3.6096062e-05
-0.0043129275
8.2625807e-06
-3.6920128e-05
-0.0043104522
8.0352661e-06
-3.768583e-05
-0.004307851
7.8030067e-06
-3.8389822e-05
-0.0043050792
7.5624089e-06
-3.9024199e-05
-0.0043021625
7.3088813e-06
-3.9577444e-05
-0.0042991254
7.0379235e-06
-4.0033897e-05
-0.0042959224
6.744497e-06
-4.0370813e-05
-0.0042925118
6.4222744e-06
-4.0557383e-05
-0.0042889331
6.0650832e-06
-4.0558851e-05
-0.0042851697
5.6680901e-06
-4.0341316e-05
-0.0042812592
5.2294413e-06
-3.9871708e-05
-0.0042771695
4.7502358e-06
-3.9120929e-05
-0.0042728767
4.2351999e-06
-3.8080603e-05
-0.0042684368
3.694705e-06
-3.6707017e-05
-0.0042639368
3.1443548e-06
-3.5046863e-05
-0.0042594411
2.6029389e-06
-3.311371e-05
-0.0042551742
2.0890629e-06
-3.0944995e-05
-0.0042516319
1.6174972e-06
-2.8584158e-05
-0.0042499053
1.1984433e-06
-2.6074566e-05
-0.0042521181
8.3597533e-07
-2.3455258e-05
-0.0042617591
5.2990442e-07
-2.075778e-05
-0.0042831595
2.778689e-07
-1.8008976e-05
-0.0043188145
7.7554606e-08
-1.5236955e-05
-0.0043639307
-7.2985843e-08
-1.2476483e-05
-0.0044006708
-1.7621409e-07
-9.7701035e-06
-0.0043983552
-2.3774596e-07
-7.1667391e-06
-0.0043282538
-2.6121858e-07
-4.7057884e-06
-0.0041932489
-2.5136116e-07
-0.0040471467
-2.4979529e-07
4.0282569e-06
-0.00404861
-5.5530301e-07
6.1516943e-06
-0.0041947906
-5.8174798e-07
8.4092922e-06
-0.0043298916
-6.1982463e-07
1.077302e-05
-0.004400089
-6.2992856e-07
1.3206929e-05
-0.0044024958
-6.0886195e-07
1.5680416e-05
-0.0043658494
-5.547957e-07
1.8167608e-05
-0.0043208389
-4.6275477e-07
2.0645876e-05
-0.0042853073
-3.3042206e-07
2.3091677e-05
-0.0042640497
-1.5522814e-07
2.5476535e-05
-0.0042545704
6.7475122e-08
2.7764532e-05
-0.0042525363
3.4301459e-07
2.9913644e-05
-0.0042544553
6.74313e-07
3.1879463e-05
-0.0042582005
1.0604471e-06
3.3621275e-05
-0.0042626775
1.4945531e-06
3.5106309e-05
-0.0042673869
1.9650644e-06
3.6316522e-05
-0.0042721033
2.4563358e-06
3.7250347e-05
-0.0042767619
2.9513353e-06
3.7920422e-05
-0.0042812742
3.4345787e-06
3.8348271e-05
-0.0042855815
3.8943838e-06
3.8570828e-05
-0.0042897169
4.3245895e-06
3.8578802e-05
-0.0042936638
4.7226957e-06
3.843991e-05
-0.0042974617
5.0887566e-06
3.8170403e-05
-0.0043010787
5.4258078e-06
3.7791816e-05
-0.0043044855
5.7386756e-06
3.7318139e-05
-0.0043077213
6.0324846e-06
3.6760525e-05
-0.0043108323
6.3106994e-06
3.6128126e-05
-0.004313796
6.5774369e-06
3.5424685e-05
-0.0043165856
6.8368441e-06
3.465018e-05
-0.0043192444
7.0914466e-06
3.3802097e-05
-0.0043218159
7.3432444e-06
3.2866228e-05
-0.0043242604
7.5931611e-06
-0.0043265923
7.8408963e-06
-3.2328129e-05
-0.0043322976
6.6247289e-06
-3.3158515e-05
-0.0043297813
6.3513377e-06
-3.390259e-05
-0.0043271472
6.0753619e-06
-3.4562959e-05
-0.0043243816
5.7976033e-06
-3.514115e-05
-0.0043215244
5.5170402e-06
-3.5636158e-05
-0.0043185329
5.2318924e-06
-3.604275e-05
-0.0043153657
4.940039e-06
-3.6352075e-05
-0.00431205
4.6379758e-06
-3.6541195e-05
-0.0043086187
4.3223199e-06
-3.663388e-05
-0.0043049774
3.9913917e-06
-3.6572056e-05
-0.0043011643
3.6408425e-06
-3.6342347e-05
-0.0042971613
3.2677822e-06
-3.5918992e-05
-0.0042930114
2.8711955e-06
-3.5280282e-05
-0.0042886726
2.4524733e-06
-3.4409126e-05
-0.0042841613
2.0160218e-06
-3.3292206e-05
-0.0042794486
1.5697868e-06
-3.1925202e-05
-0.0042745967
1.1263965e-06
-3.0318938e-05
-0.0042696938
7.0062345e-07
-2.8500972e-05
-0.0042648029
3.0742459e-07
-2.6510025e-05
-0.0042601518
-3.964498e-08
-2.4390274e-05
-0.0042562428
-3.3227942e-07
-2.2186828e-05
-0.0042541719
-5.6784048e-07
-1.9940368e-05
-0.0042560677
-7.4915093e-07
-1.7683698e-05
-0.0042654241
-8.8226132e-07
-1.5441904e-05
-0.0042865742
-9.7488309e-07
-1.3234252e-05
-0.0043220132
-1.0333499e-06
-1.1077154e-05
-0.0043669451
-1.0614418e-06
-8.9886341e-06
-0.0044035223
-1.0620256e-06
-6.9868343e-06
-0.0044010516
-1.0392139e-06
-5.0928062e-06
-0.0043307931
-9.9255131e-07
-3.3223787e-06
-0.0041956373
-9.2380811e-07
-0.0040494104
-8.7042633e-07
2.6035027e-06
-0.0040495316
-1.1902648e-06
4.0068619e-06
-0.0041957655
-1.2751137e-06
5.5256017e-06
-0.0043309376
-1.3742214e-06
7.1529542e-06
-0.0044012206
-1.4583794e-06
8.8824309e-06
-0.004403724
-1.527774e-06
1.0708792e-05
-0.0043671882
-1.5832338e-06
1.2622711e-05
-0.0043223054
-1.6217077e-06
1.4613405e-05
-0.0042869248
-1.6401476e-06
1.6666991e-05
-0.0042658441
-1.6335699e-06
1.8762324e-05
-0.0042565689
-1.5941802e-06
2.0869183e-05
-0.0042547665
-1.5122342e-06
2.2948443e-05
-0.0042569437
-1.3783377e-06
2.4954549e-05
-0.0042609722
-1.1857118e-06
2.6839747e-05
-0.0042657552
-9.3290109e-07
2.8558912e-05
-0.0042707888
-6.2419669e-07
3.0076798e-05
-0.0042758446
-2.7001167e-07
3.1372785e-05
-0.0042808605
1.1597055e-07
3.2441462e-05
-0.0042857494
5.1939424e-07
3.3287185e-05
-0.004290446
9.2767589e-07
3.3920725e-05
-0.0042949759
1.3309142e-06
3.435818e-05
-0.0042993213
1.7226144e-06
3.4619677e-05
-0.0043035253
2.0994676e-06
3.4727715e-05
-0.004307546
2.4606253e-06
3.470254e-05
-0.0043114008
2.8072638e-06
3.4569431e-05
-0.0043150595
3.1426222e-06
3.4315105e-05
-0.0043185774
3.4659674e-06
3.3947947e-05
-0.0043219462
3.7804735e-06
3.3497968e-05
-0.0043251633
4.0888244e-06
3.2955702e-05
-0.0043282325
4.3931411e-06
3.2321196e-05
-0.0043312074
4.6947581e-06
3.1589774e-05
-0.0043340451
4.9951366e-06
-0.0043367578
5.2926315e-06
-3.0658952e-05
-0.0043398647
3.8582065e-06
-3.1275383e-05
-0.0043369692
3.5406224e-06
-3.1798323e-05
-0.0043339044
3.2198637e-06
-3.2221074e-05
-0.0043307082
2.8984551e-06
-3.2542051e-05
-0.0043274162
2.5739122e-06
-3.2744771e-05
-0.0043239887
2.2452355e-06
-3.2848727e-05
-0.004320385
1.9115576e-06
-3.2845748e-05
-0.0043166346
1.5721472e-06
-3.2699495e-05
-0.0043127696
1.2225677e-06
-3.2408741e-05
-0.0043087014
8.6460712e-07
-3.195426e-05
-0.0043044767
4.9695666e-07
-3.1316821e-05
-0.004300079
1.2020272e-07
-3.0481293e-05
-0.0042955486
-2.6276216e-07
-2.9437181e-05
-0.0042908438
-6.4636656e-07
-2.8180153e-05
-0.0042859844
-1.0220691e-06
-2.6717288e-05
-0.0042809466
-1.3767429e-06
-2.5064824e-05
-0.0042757989
-1.6982166e-06
-2.3248718e-05
-0.0042706298
-1.9750964e-06
-2.1311596e-05
-0.0042654981
-2.1942285e-06
-1.930467e-05
-0.0042606307
-2.3483975e-06
-1.7279058e-05
-0.0042565322
-2.4371362e-06
-1.5281128e-05
-0.0042542985
-2.4659094e-06
-1.3348813e-05
-0.0042560558
-2.4454199e-06
-1.1509811e-05
-0.004265295
-2.3881649e-06
-9.780942e-06
-0.0042863475
-2.3061394e-06
-8.1716282e-06
-0.0043217059
-2.2088678e-06
-6.6868157e-06
-0.004366571
-2.1020409e-06
-5.3257291e-06
-0.0044030965
-1.9885631e-06
-4.0822806e-06
-0.0044005934
-1.8706649e-06
-2.9469823e-06
-0.0043303267
-1.7462568e-06
-1.9122093e-06
-0.0041951876
-1.6127073e-06
-0.0040490012
-1.4931407e-06
1.1445965e-06
-0.0040477667
-1.8300124e-06
1.8165418e-06
-0.0041938906
-1.968937e-06
2.5792841e-06
-0.0043289612
-2.128154e-06
3.4490688e-06
-0.0043991758
-2.2873801e-06
4.4485309e-06
-0.0044016463
-2.4496529e-06
5.5961246e-06
-0.0043651001
-2.6184531e-06
6.9018136e-06
-0.0043202191
-2.7924976e-06
8.3678996e-06
-0.0042848451
-2.9685289e-06
9.9900535e-06
-0.0042637773
-3.1398696e-06
1.1755292e-05
-0.0042545259
-3.2951266e-06
1.3639917e-05
-0.0042527639
-3.419207e-06
1.5608402e-05
-0.0042550046
-3.4961015e-06
1.7614083e-05
-0.0042591249
-3.5114591e-06
1.9603166e-05
-0.0042640316
-3.4555476e-06
2.1519254e-05
-0.0042692214
-3.3245024e-06
2.3310927e-05
-0.0042744684
-3.1221665e-06
2.4937157e-05
-0.0042797139
-2.8589219e-06
2.6370533e-05
-0.0042848687
-2.5490184e-06
2.7597948e-05
-0.004289864
-2.2071666e-06
2.8617931e-05
-0.0042947224
-1.8462438e-06
2.9436114e-05
-0.0042994204
-1.4767614e-06
3.006284e-05
-0.0043039971
-1.1064009e-06
3.05131e-05
-0.004308411
-7.4069056e-07
3.0807469e-05
-0.0043126802
-3.8375573e-07
3.0972035e-05
-0.0043167615
-3.7636801e-08
3.1012903e-05
-0.0043207374
3.1151357e-07
3.0931066e-05
-0.0043245658
6.589237e-07
3.0733787e-05
-0.0043282208
1.0019259e-06
3.0426847e-05
-0.0043317423
1.341026e-06
3.0013117e-05
-0.0043351678
1.6771785e-06
2.9489289e-05
-0.004338458
2.0125634e-06
-0.004341572
2.3441468e-06
-2.8134183e-05
-0.0043418208
7.8304677e-07
-2.8566254e-05
-0.0043384766
4.5072101e-07
-2.889554e-05
-0.0043349615
1.2296765e-07
-2.9109553e-05
-0.0043313144
-2.1389154e-07
-2.9203706e-05
-0.0043275696
-5.5707574e-07
-2.9168559e-05
-0.0043236946
-9.0632519e-07
-2.899245e-05
-0.0043196519
-1.2616099e-06
-2.8654688e-05
-0.0043154767
-1.6225913e-06
-2.8186047e-05
-0.004311159
-1.9898666e-06
-2.7537547e-05
-0.0043066989
-2.3605778e-06
-2.6707287e-05
-0.0043020958
-2.7315294e-06
-2.5688379e-05
-0.0042973417
-3.0975756e-06
-2.4476501e-05
-0.004292482
-3.452267e-06
-2.3068364e-05
-0.0042874856
-3.7866184e-06
-2.1471061e-05
-0.0042823775
-4.0884974e-06
-1.9706038e-05
-0.0042771354
-4.3435613e-06
-1.7808649e-05
-0.0042718285
-4.5372762e-06
-1.5826689e-05
-0.0042665462
-4.6570672e-06
-1.3817289e-05
-0.0042613464
-4.6946424e-06
-1.1840708e-05
-0.0042564522
-4.6493362e-06
-9.9528255e-06
-0.0042523636
-4.5288123e-06
-8.2001012e-06
-0.00425017
-4.3466585e-06
-6.6159494e-06
-0.0042519894
-4.1206824e-06
-5.2208764e-06
-0.0042613026
-3.8697795e-06
-4.0241442e-06
-0.0042824304
-3.6113896e-06
-3.0258467e-06
-0.0043178587
-3.3586828e-06
-2.2177782e-06
-0.0043627889
-3.1193121e-06
-1.5821745e-06
-0.0043993854
-2.8965255e-06
-1.0885199e-06
-0.004396979
-2.6904592e-06
-7.0305415e-07
-0.0043268503
-2.4964524e-06
-4.0186409e-07
-0.0041918819
-2.3098448e-06
-0.0040458497
-2.1449025e-06
-3.1154777e-07
-0.0040432867
-2.4371067e-06
-3.7137396e-07
-0.0041891945
-2.6276132e-06
-3.5630583e-07
-0.0043240241
-2.8412051e-06
-2.3341826e-07
-0.0043940333
-3.0685827e-06
4.4346606e-08
-0.0043963471
-3.3160859e-06
5.1695151e-07
-0.0043596716
-3.5898628e-06
1.2097444e-06
-0.0043146607
-3.8907887e-06
2.1359044e-06
-0.0042791411
-4.2154995e-06
3.2991354e-06
-0.0042579104
-4.5553638e-06
4.693905e-06
-0.0042484884
-4.8957772e-06
6.3026688e-06
-0.0042465611
-5.2177102e-06
8.0937581e-06
-0.0042486547
-5.5000194e-06
1.0021444e-05
-0.0042526581
-5.7217276e-06