/*--------------------------------*- C++ -*----------------------------------*\
| =========                 |                                                 |
| \\      /  F ield         | OpenFOAM: The Open Source CFD Toolbox           |
|  \\    /   O peration     | Version:  v2012                                 |
|   \\  /    A nd           | Website:  www.openfoam.com                      |
|    \\/     M anipulation  |                                                 |
\*---------------------------------------------------------------------------*/
FoamFile
{
    version     2.0;
    format      ascii;
    class       volScalarField;
    location    "300";
    object      omega;
}
// * * * * * * * * * * * * * * * * * * * * * * * * * * * * * * * * * * * * * //

dimensions      [0 0 -1 0 0 0 0];


internalField   nonuniform List<scalar> 
120695
(
12.365917
14.233553
18.324398
27.245992
47.170959
93.892449
177.09311
416.75718
427.9116
491.55354
435.61064
432.56088
368.95261
351.74375
297.0852
285.11775
275.97997
245.18493
235.24756
225.49278
199.07197
191.28095
185.30324
179.29637
165.62393
159.80717
155.1907
150.90963
141.05188
133.73656
131.1938
129.08424
126.5372
123.25739
120.47883
117.81625
112.35463
109.43115
107.16919
105.15934
103.35296
101.75215
98.612658
95.969714
94.869835
93.878697
92.754215
91.740209
90.139716
87.067153
85.024805
81.763558
80.52083
79.64133
78.718735
77.767934
76.801027
75.905427
75.04015
74.227255
73.454105
72.69422
71.975253
71.297714
70.646558
70.056496
69.565214
68.642045
67.540435
67.082973
66.652923
66.171038
65.542776
64.931291
64.457843
63.707229
61.959491
60.170861
59.411363
58.697403
57.960171
57.196835
56.430599
55.654466
54.889142
54.124132
53.377304
52.638854
51.924389
51.222134
50.543198
49.88171
49.255686
48.669387
48.119767
47.625635
47.504822
47.37841
47.12743
46.727325
46.442462
45.983679
45.373995
45.152675
44.971324
44.724322
44.320297
43.992258
43.700427
43.42789
43.166413
42.914218
42.676164
42.436198
42.193924
41.953645
41.717221
41.489741
41.270079
41.050645
40.832541
40.615581
40.399389
40.187399
39.938376
39.546536
38.859538
38.531418
38.270002
38.037617
37.807312
37.726182
37.648965
37.486646
37.241365
37.023614
36.90054
36.762785
36.574692
36.406059
36.258996
36.110208
35.963887
35.8186
35.67579
35.53581
35.402986
35.270155
35.128287
34.979655
34.752737
34.34982
34.118581
33.93254
33.765732
33.702438
33.638962
33.508637
33.304003
33.215892
33.11568
32.969364
32.839017
32.719038
32.604106
32.492228
32.386852
32.290476
32.19393
32.090056
32.033577
31.980111
31.919977
31.820212
31.6334
31.29741
31.130665
31.013344
30.97173
30.931298
30.841572
30.6936
30.625111
30.553806
30.454123
30.359296
30.269671
30.183015
30.09776
30.014604
29.933063
29.854929
29.777086
29.644808
29.38054
29.226818
29.115595
29.081004
29.053302
28.984395
28.865051
28.80989
28.750208
28.659423
28.577097
28.508071
28.443783
28.379296
28.316693
28.250574
28.218621
28.19045
28.160845
28.108994
27.992803
27.760046
27.682627
27.658863
27.638192
27.582562
27.487787
27.456505
27.423186
27.361196
27.304966
27.253255
27.205001
27.160465
27.128311
27.116993
27.128927
27.138308
27.133145
27.100986
27.030656
26.946929
27.560328
35.246552
36.983538
35.136151
12.942369
14.665986
14.659972
14.427312
13.805642
13.412952
12.894857
13.524796
14.330511
15.871467
16.830074
18.489852
19.531976
17.73873
32.653147
57.92289
62.023497
92.842031
164.89899
386.99252
380.94896
464.73211
433.15204
440.12273
383.16686
368.4539
310.50227
293.586
285.17001
250.11124
236.98752
229.50096
201.88565
191.43192
184.66215
179.67736
165.14222
158.1022
153.17671
149.3782
144.6471
139.90979
135.40226
130.943
139.88237
143.02101
146.00622
149.71563
152.99987
167.5535
172.11816
177.07077
180.71873
206.25507
213.26168
217.40451
251.53508
257.55816
261.06071
314.73954
314.97216
384.10979
355.34711
434.0315
489.80977
315.33281
119.77285
110.58081
49.817944
65.724541
31.401405
28.419293
49.318676
93.434164
113.23781
166.84479
230.099
400.32497
343.82175
178.45423
236.87116
287.83493
341.77401
334.92669
197.3148
304.31676
293.38443
181.32497
321.92547
335.11037
413.18417
448.0893
387.11589
382.71304
382.95193
327.61182
316.10225
310.03058
267.75642
256.34297
248.97824
243.83374
219.10014
211.57834
204.58588
199.31669
180.51806
175.29721
170.5212
166.39004
162.85832
152.32032
149.09662
144.9395
141.50921
138.09648
128.99762
126.9093
127.64233
127.07262
125.97832
123.27861
120.72919
118.62361
113.31005
110.12427
107.77342
105.6818
103.69198
102.06677
100.35324
98.789083
97.653191
96.681897
100.36655
101.94961
103.82028
105.87943
107.85376
109.91607
112.39431
119.0698
121.48645
124.43282
124.16941
121.78448
119.392
113.14368
111.29619
109.04004
107.00395
105.01718
103.09251
101.2232
97.518535
96.118074
94.704894
93.190709
92.676378
92.172701
91.468529
92.734678
91.42345
88.677572
87.714148
86.236215
86.030623
90.096353
91.617045
92.865583
94.23834
95.903625
97.760611
101.59279
102.92178
104.66031
106.51584
108.4326
110.41689
112.76158
118.9955
120.86608
123.05049
125.3674
128.21298
137.61795
140.26471
143.51639
147.0926
151.50758
165.43251
169.28612
173.73352
176.68834
198.38362
203.8429
209.30078
239.13119
244.43114
246.79209
295.69564
301.99624
355.88081
347.09302
398.09405
399.25045
400.35387
407.5989
260.06781
184.68642
349.46597
358.18941
395.58323
350.9936
331.63495
349.45537
295.16097
293.00806
288.39757
255.43631
250.80231
243.30639
211.51201
207.72798
202.20328
197.72485
179.7453
177.74828
172.59394
168.00228
154.03793
150.75887
146.80835
143.41949
140.34942
130.60172
127.81968
125.44115
123.13881
120.82375
114.66724
112.84521
110.5958
108.58833
106.69532
104.88288
103.20087
99.433645
98.011468
96.438041
94.494407
93.206846
89.276615
87.777411
84.927676
83.353858
80.288239
79.686853
79.245993
78.245797
77.255221
76.2865
75.361053
74.483994
73.628168
72.811209
72.033822
71.270832
70.526767
69.902308
69.331759
68.793252
68.344123
68.306739
69.60038
70.358752
71.250181
72.233881
73.135651
74.033666
74.961555
75.91498
76.909229
77.966623
79.080739
80.281332
81.960848
83.466482
84.207874
85.094455
87.897245
88.151022
87.756606
87.444368
86.933069
84.895787
84.282277
82.886264
81.636147
80.179572
79.11987
78.100318
77.125141
76.178127
75.2402
74.303819
73.364196
72.400649
71.472723
70.628676
69.953192
68.440964
67.614955
66.671875
66.370787
65.851269
65.213993
64.860384
64.543985
64.874319
65.767135
66.706381
67.778866
68.599086
68.81004
69.022173
70.493048
71.142814
71.943697
72.79072
73.70908
74.652663
75.59663
76.542412
77.477325
78.424959
79.392322
80.381185
81.399205
83.107583
85.148484
85.985214
86.876256
85.954712
84.248307
83.139102
81.779216
80.734579
79.730043
78.752164
77.795141
76.835829
75.889747
74.958301
74.03739
73.155309
72.324229
71.498307
70.099285
69.310961
68.00708
66.869965
65.959718
64.298062
63.329102
62.143344
60.922626
60.11236
59.316593
58.502192
57.684506
56.863647
56.052204
55.247307
54.455734
53.67936
52.920498
52.178688
51.457277
50.760713
50.097416
49.465021
48.825066
48.103261
47.814537
47.970801
48.960566
49.26742
49.742652
50.498232
51.132617
51.262784
52.283777
52.569791
53.053156
53.825883
54.355501
54.504992
55.671109
56.031441
56.649925
57.565789
58.108835
58.374138
59.000983
59.916814
60.420544
60.64878
61.200923
62.025971
62.504813
62.651204
63.027754
63.610097
63.977936
64.825547
65.333307
65.532787
65.97101
66.506318
66.637352
67.594273
68.224253
68.823039
69.461545
70.092823
70.838977
71.448457
72.268108
73.09627
73.732856
74.473881
75.215835
75.999045
76.810444
77.656478
78.527562
79.428732
80.35027
81.307102
82.285424
83.29215
84.325993
85.380768
86.449547
87.538918
88.639622
89.763843
90.921018
92.298217
93.500755
94.914813
95.928605
96.78311
98.656076
99.001429
98.454047
98.089431
97.438109
96.242068
95.252149
93.500201
93.597768
92.002107
90.827406
89.676824
88.547555
87.43042
86.335867
85.257555
84.197897
83.166101
82.165033
81.183889
80.23675
79.310789
78.41693
77.548511
76.710768
75.894773
75.113233
74.353628
73.613462
72.915028
72.045388
71.614187
71.52885
72.277132
72.745251
73.489842
74.227594
74.989454
75.782039
76.596192
77.442982
78.30767
79.201996
80.121272
81.07317
82.046263
83.052855
84.080245
85.140242
86.223538
87.329793
88.453794
89.602291
90.768498
91.967028
93.408692
94.628413
96.062491
97.17094
98.162502
98.495668
98.799234
98.05376
97.848086
97.362479
96.381158
94.664693
94.815609
93.160322
91.913329
90.708254
89.521567
88.364437
87.227744
86.11851
85.029977
83.973703
82.93968
81.938312
80.959984
80.011685
79.088713
78.195856
77.321771
76.478859
75.657514
74.863005
74.088016
73.337136
72.605122
72.039513
71.241844
70.68245
70.080406
69.482746
68.803815
68.106266
67.472728
66.587277
66.016811
65.258257
64.998575
64.446771
63.936306
63.237108
62.713663
62.281159
62.133245
61.409791
60.879647
60.290032
60.061944
59.296168
58.76526
58.033064
57.759592
56.961589
56.428322
55.654373
55.187558
54.225845
54.00506
53.281866
52.795881
52.197497
51.820476
50.967502
50.756809
50.017857
49.547389
48.908968
48.514982
47.636834
47.50115
47.331232
47.18131
46.75106
46.578404
46.357951
46.471674
46.903513
47.158185
46.807452
46.657129
47.41757
47.825323
48.369626
48.924473
49.509535
49.986743
50.689708
51.192106
51.617373
52.209316
52.753439
53.269216
54.020703
54.627731
55.130986
55.809212
56.417967
56.952907
57.674435
58.117579
58.715443
59.155599
59.77206
60.148332
60.686175
61.079209
61.653267
62.077239
62.658324
63.1509
63.796229
64.342734
64.889035
65.479371
66.17959
66.818366
67.423798
68.032709
68.644322
69.215604
69.749089
70.085186
70.76068
71.368335
70.751943
70.254957
70.055186
68.29318
67.739665
67.021114
66.579044
66.886071
67.567771
67.653227
68.828766
69.522554
70.164028
70.867001
71.601174
72.237898
73.061115
74.007206
74.664092
75.417965
76.188978
77.00218
77.854518
78.717638
79.622106
80.557247
81.518986
82.507141
83.52213
84.557374
85.619528
86.702246
87.820274
88.973867
90.198491
91.646501
92.75415
94.217611
95.015908
95.687662
96.433302
95.910802
95.600323
97.237986
99.638693
102.7347
105.69245
107.51196
109.39559
111.15037
113.73616
115.56483
117.55377
119.70901
122.01431
124.47922
127.42258
131.8676
134.1769
137.04298
140.15834
143.74785
146.78836
152.62194
156.28724
160.3807
165.23949
169.67385
178.69582
184.26983
190.31513
195.80572
209.26039
217.4529
224.43989
242.87602
252.66639
260.8835
289.30614
302.72983
337.40138
345.9446
380.97994
372.70417
383.16721
304.34299
152.27599
70.800635
31.81335
21.28743
16.378815
13.697004
13.144868
12.679796
13.136546
13.894128
15.084846
18.622245
26.006518
47.80264
116.25799
248.19201
341.31387
376.41106
410.96593
406.50488
390.27517
390.51101
343.89267
340.17958
304.26425
294.06414
283.9314
261.5119
259.59121
248.501
240.43287
224.322
222.79243
213.52779
206.92033
194.93096
193.48738
187.03482
181.51719
177.03804
169.03833
168.29148
163.16484
158.88094
155.08401
152.09278
146.57229
146.2731
142.36687
139.17487
136.24395
133.45076
129.26879
126.65899
123.86579
121.4286
119.19404
117.10354
115.18241
113.66653
111.00992
111.00709
108.95778
107.21203
105.68845
102.70383
101.81005
101.63458
104.35285
105.60837
107.11556
108.73792
110.67994
112.38635
114.87043
116.69716
118.69677
120.86109
123.16637
125.67319
128.68759
132.91571
135.25028
138.1301
141.1682
144.3891
148.17571
153.98171
157.39414
161.43161
166.23482
170.63627
179.0966
184.51335
190.56272
195.97153
208.73714
216.4633
225.45461
243.29651
252.83011
261.78357
287.33811
301.44928
336.66138
346.55709
380.36705
379.08194
387.92808
319.98672
206.68104
85.005086
106.77933
37.085597
21.883342
16.440966
14.111616
14.659241
14.297902
13.687904
13.095035
13.673555
14.663284
16.104159
17.516443
19.407973
30.543121
72.970692
183.2786
218.55325
282.57047
368.98783
399.30718
379.59973
373.74689
339.57186
334.59463
301.4535
290.3291
279.60907
260.00417
256.55319
244.96398
226.68301
219.34927
211.337
205.2933
194.92664
193.59634
187.06603
181.48659
176.98265
169.69834
168.81072
163.50417
159.19039
155.28812
149.7175
146.53942
143.07817
139.89963
136.95437
134.17684
130.25215
127.73503
124.99374
122.56951
120.32197
118.21332
116.2779
114.74788
112.21942
112.19055
110.09152
108.36419
106.78314
103.93738
102.71044
99.613649
102.00712
105.15816
107.86829
109.70274
111.61297
113.39664
115.76109
117.60277
119.60704
121.77603
124.08964
126.57997
129.50688
133.44974
135.74404
138.61047
141.66655
145.00444
148.67826
154.18216
157.30183
161.35539
166.12516
170.65486
178.41974
183.76644
189.79201
195.341
206.72264
214.06997
222.61968
239.09973
247.16255
257.804
282.92809
297.0107
328.14958
339.53961
370.83378
373.31479
392.33404
354.20536
312.2364
368.33592
360.70994
364.73046
335.69247
326.32385
296.8188
283.10566
259.27585
250.82503
241.00227
225.03909
217.40871
209.20411
203.25725
193.73501
192.12202
185.71509
180.35414
176.15763
169.45954
168.50227
163.37023
159.15428
155.45231
150.26158
147.09138
143.43897
140.29916
137.36131
134.59755
130.89892
128.29917
125.54545
123.13997
120.91597
118.83178
116.90441
115.36688
113.0486
112.93445
110.87892
109.0704
107.47904
104.85784
103.84172
103.53566
106.0871
107.03794
108.56806
110.22969
112.23362
113.9896
116.26414
118.10521
120.10159
122.25299
124.53612
126.99584
129.96658
133.72003
135.96593
138.81019
141.83391
145.01785
148.8629
154.00513
157.02348
160.90309
165.22784
170.22901
177.99965
182.63489
187.98487
194.18842
205.73068
212.6333
221.60116
237.00507
244.87555
255.50758
276.16482
286.28303
296.60261
327.81822
333.67366
370.48095
384.28405
357.23578
306.41449
151.24932
52.720316
25.31586
21.575338
39.650147
104.09206
234.81565
266.01836
342.47755
362.87592
357.46666
357.47127
331.96373
329.21024
319.51852
293.95989
290.47863
277.68848
256.34165
247.8917
239.06871
223.54325
214.74005
207.14334
196.2158
190.87089
184.97433
179.5952
172.10053
167.49892
162.66276
158.56757
154.94089
150.04721
146.84893
143.42292
140.27228
137.34883
134.66598
131.17825
128.67615
125.99171
123.6043
121.37583
119.28317
117.34377
115.794
113.59189
113.42768
111.28364
109.52379
107.91952
105.18549
104.24396
100.87949
99.5017
89.778655
87.635739
84.797758
83.437866
82.423877
81.459721
79.675395
78.176641
76.876497
75.71671
74.008043
72.510802
70.989826
69.783492
68.666903
67.80165
67.144533
66.501071
65.925137
65.42746
65.014795
64.535352
63.897133
64.039318
64.421558
65.434738
65.02344
64.31562
64.003748
64.004254
64.069893
64.378552
64.651883
65.158466
65.592358
66.428242
67.088945
68.228006
68.176923
68.037719
67.756869
71.66667
70.938119
66.089513
65.035775
49.934864
49.372324
45.408117
41.014584
36.794467
33.076195
29.597262
25.764367
21.609202
16.785179
13.974677
12.533568
9.9637491
9.9324221
9.9011699
9.8699676
9.8387988
9.8076554
9.7765373
9.7454506
9.7144077
9.6834256
9.6525253
9.6217307
9.5910676
9.5605622
9.5302411
9.5001296
9.470249
9.4406201
9.4112614
9.3821875
9.3534094
9.3249346
9.2967667
9.2689065
9.2413504
9.2140921
9.1871218
9.1604274
9.1339938
9.1078038
9.0818382
9.0560767
9.0304973
9.005078
8.9797961
8.9546295
8.9295567
8.9045571
8.8796119
8.8547042
8.8298191
8.8049444
8.7800707
8.781694
8.8065694
8.8314445
8.8563287
8.8812342
8.9061757
8.9311703
8.9562368
8.9813954
9.0066681
9.0320771
9.0576444
9.0833923
9.1093429
9.1355167
9.1619325
9.1886073
9.2155563
9.2427919
9.2703235
9.2981579
9.3262982
9.3547437
9.3834907
9.4125321
9.4418567
9.4714499
9.5012937
9.5313692
9.5616525
9.592119
9.6227422
9.6534961
9.6843549
9.7152943
9.7462934
9.7773357
9.8084089
9.8395069
9.87063
9.9017861
9.9329917
9.9642704
9.9653808
9.9342077
9.9031065
9.8720539
9.8410336
9.8100375
9.7790651
9.7481227
9.7172221
9.6863791
9.6556146
9.6249533
9.5944207
9.5640423
9.5338443
9.5038511
9.4740867
9.4445711
9.4153212
9.3863517
9.3576734
9.3292929
9.3012137
9.2734371
9.2459597
9.2187746
9.1918724
9.165241
9.138865
9.1127277
9.0868104
9.0610927
9.0355522
9.0101668
8.9849148
8.959774
8.9347224
8.9097397
8.8848072
8.8599078
8.8350269
8.8101523
8.7852748
8.7912281
8.8161077
8.8409799
8.8658542
8.8907424
8.9156594
8.9406219
8.9656487
8.9907603
9.0159783
9.0413248
9.0668217
9.0924908
9.1183542
9.1444321
9.1707434
9.1973047
9.2241308
9.2512339
9.2786234
9.3063061
9.3342851
9.3625598
9.3911265
9.4199786
9.4491055
9.478493
9.508125
9.5379805
9.5680356
9.5982659
9.6286458
9.6591503
9.6897541
9.7204332
9.7511671
9.7819402
9.8127409
9.8435636
9.8744093
9.9052863
9.9362117
9.9672103
9.9699053
9.9391616
9.9084938
9.8778757
9.8472887
9.8167233
9.7861771
9.7556549
9.7251672
9.69473
9.6643629
9.6340889
9.6039325
9.5739183
9.5440716
9.5144166
9.4849774
9.4557752
9.4268255
9.3981419
9.3697346
9.3416108
9.3137741
9.2862245
9.258959
9.2319714
9.2052523
9.1787897
9.1525691
9.126574
9.1007858
9.0751843
9.0497483
9.0244562
8.9992856
8.974215
8.9492229
8.9242888
8.8993941
8.8745218
8.8496577
8.8247895
8.799908
8.811592
8.8364759
8.8613391
8.8861907
8.9110425
8.935909
8.9608071
8.9857554
9.010774
9.0358843
9.0611078
9.0864664
9.1119816
9.1376742
9.1635637
9.1896683
9.2160041
9.2425853
9.2694234
9.2965276
9.3239037
9.3515547
9.3794803
9.4076771
9.4361381
9.464853
9.4938086
9.52299
9.5523766
9.5819443
9.6116689
9.6415249
9.6714885
9.7015361
9.731646
9.7617991
9.7919803
9.8221798
9.8523942
9.8826279
9.9128932
9.94321
9.9736061
10.008533
9.9784719
9.9485322
9.9186755
9.8888709
9.8590955
9.8293344
9.7995818
9.7698397
9.7401166
9.7104263
9.6807869
9.6512188
9.6217445
9.5923872
9.563173
9.5341259
9.5052695
9.4766237
9.4482031
9.4200206
9.3920861
9.3644067
9.336986
9.3098242
9.2829189
9.2562644
9.2298523
9.2036715
9.1777084
9.1519474
9.1263711
9.1009605
9.0756954
9.0505548
9.0255171
9.0005613
8.9756664
8.9508122
8.9259803
8.901154
8.8763189
8.8514631
8.8265779
8.8452742
8.8701565
8.8949992
8.9198111
8.9446039
8.9693916
8.9941914
9.0190213
9.0439012
9.0688518
9.0938938
9.1190479
9.1443348
9.1697737
9.1953828
9.2211787
9.2471761
9.2733878
9.2998242
9.3264929
9.353399
9.3805445
9.4079289
9.4355481
9.4633953
9.4914602
9.5197308
9.5481924
9.5768255
9.6056074
9.6345149
9.6635201
9.6926005
9.7217348
9.7509038
9.780091
9.809284
9.838476
9.8676668
9.8968641
9.9260847
9.9553544
9.9847085
10.014191
10.021364
9.9926191
9.9640055
9.9354741
9.9069853
9.8785101
9.850029
9.8215314
9.7930154
9.764486
9.7359536
9.7074333
9.6789431
9.6505031
9.6221356
9.5938713
9.5657323
9.5377403
9.5099145
9.4822697
9.4548179
9.4275691
9.4005309
9.3737074
9.3471
9.3207074
9.2945254
9.2685473
9.2427639
9.2171635
9.1917324
9.1664553
9.141315
9.1162932
9.09137
9.0665256
9.0417396
9.0169918
8.9922628
8.9675344
8.9427898
8.918015
8.8931983
8.8683312
8.8967384
8.9215668
8.9463327
8.9710452
8.9957156
9.0203581
9.0449897
9.0696285
9.0942933
9.1190038
9.1437799
9.1686408
9.1936049
9.2186892
9.2439098
9.2692806
9.2948136
9.3205191
9.3464051
9.3724768
9.3987371
9.4251864
9.4518222
9.4786395
9.5056302
9.532784
9.5600883
9.5875282
9.6150844
9.6427359
9.6704628
9.6982288
9.7260117
9.753792
9.781553
9.8092811
9.8369675
9.8646096
9.8922121
9.9197885
9.9473622
9.9749672
10.002649
10.030463
10.042079
10.015445
9.9889407
9.9625004
9.9360712
9.9096132
9.883098
9.8565083
9.8298366
9.8030833
9.7762555
9.7493652
9.7224285
9.6954645
9.668497
9.6415706
9.6147018
9.5879114
9.5612192
9.5346411
9.5081904
9.4818782
9.4557134
9.4297027
9.4038497
9.3781558
9.3526198
9.327238
9.3020044
9.2769107
9.2519464
9.2270994
9.2023557
9.1776993
9.1531131
9.1285792
9.1040788
9.0795926
9.055102
9.030589
9.0060368
8.981431
8.9567596
8.9320139
8.9764532
9.0010488
9.0255572
9.049988
9.0743536
9.0986687
9.1229505
9.147217
9.1714859
9.1957763
9.2201059
9.244491
9.2689473
9.2934884
9.3181264
9.3428717
9.367732
9.3927136
9.4178204
9.4430538
9.4684129
9.4938944
9.5194927
9.5451994
9.5710041
9.5968945
9.6228559
9.6488708
9.6749187
9.7009782
9.7270309
9.7530319
9.7789488
9.8047616
9.8304546
9.8560166
9.881442
9.9067322
9.9318978
9.9569599
9.981952
10.006922
10.031931
10.057059
10.076611
10.053422
10.030326
10.007228
9.984055
9.960752
9.9372798
9.913614
9.8897422
9.865661
9.8413751
9.8168952
9.7922369
9.767422
9.7425012
9.7175133
9.6924817
9.6674293
9.6423775
9.6173456
9.59235
9.5674048
9.5425224
9.517713
9.4929845
9.4683426
9.4437906
9.4193296
9.3949583
9.3706734
9.3464696
9.3223392
9.298273
9.2742591
9.2502845
9.2263346
9.2023931
9.1784425
9.1544652
9.1304436
9.1063605
9.0822005
9.0579502
9.0335994
9.0847331
9.1088543
9.132854
9.1567387
9.18052
9.2042116
9.2278292
9.25139
9.2749111
9.2984081
9.3218967
9.3453906
9.3689017
9.39244
9.4160134
9.439628
9.4632882
9.4869957
9.5107505
9.5345508
9.5583927
9.5822698
9.6061738
9.6300947
9.6540203
9.6779364
9.701827
9.7256739
9.7494565
9.7731522
9.7967372
9.8201871
9.8434672
9.8664972
9.8892529
9.9117202
9.9338902
9.9557601
9.9773355
9.9986308
10.019673
10.040504
10.061187
10.081807
10.102473
10.123317
10.154614
10.137146
10.119823
10.102488
10.085016
10.06731
10.049304
10.030949
10.012217
9.9930882
9.9735501
9.9535976
9.9332319
9.9124612
9.8913125
9.8699242
9.8483128
9.8265019
9.8045146
9.782373
9.760098
9.7377085
9.7152216
9.6926529
9.6700168
9.6473258
9.6245912
9.6018225
9.5790278
9.5562133
9.5333836
9.5105418
9.487689
9.4648245
9.4419455
9.4190472
9.396123
9.3731643
9.35016
9.3270969
9.3039611
9.2807373
9.2574108
9.2339671
9.2103943
9.1866849
9.3034117
9.3269042
9.3502473
9.373445
9.3965049
9.4194387
9.4422594
9.4649778
9.4876042
9.5101461
9.5326089
9.554995
9.5773033
9.5995306
9.6216715
9.643719
9.6656642
9.6874966
9.7092044
9.7307746
9.7521933
9.7734456
9.7945162
9.815389
9.8360474
9.8564741
9.8766516
9.8965619
9.9161868
9.9355071
9.9545033
9.9731559
9.9914458
10.009413
10.026808
10.043591
10.059771
10.075368
10.090415
10.104948
10.119007
10.132638
10.145904
10.158887
10.171682
10.184422
10.197283
10.210487
10.262919
10.256235
10.250026
10.244032
10.238074
10.232006
10.22569
10.218992
10.211815
10.204066
10.195636
10.186411
10.176291
10.165199
10.153105
10.140201
10.126706
10.112586
10.097849
10.082506
10.066571
10.05006
10.032992
10.015389
9.9972725
9.9786699
9.9596081
9.9401151
9.9202197
9.8999511
9.8793391
9.858413
9.8372022
9.8157354
9.7940399
9.7721415
9.7500645
9.7278302
9.7054573
9.6829612
9.6603529
9.6376377
9.6148169
9.5918883
9.5688447
9.5456774
9.5223786
9.4989431
9.7724373
9.7966048
9.8207062
9.8447508
9.8687448
9.8926907
9.9165824
9.9404047
9.9641358
9.9877439
10.011188
10.034424
10.057401
10.080065
10.10236
10.124224
10.145599
10.166421
10.186628
10.206155
10.224942
10.242929
10.260055
10.276262
10.291495
10.305699
10.318826
10.330837
10.341705
10.351409
10.359934
10.367273
10.373423
10.378394
10.382172
10.3841
10.384206
10.382661
10.379712
10.375655
10.370795
10.365421
10.359739
10.354141
10.348928
10.344252
10.340247
10.337076
10.335037
10.431682
10.449174
10.468619
10.489798
10.512674
10.537167
10.563078
10.590064
10.617667
10.644913
10.670299
10.693092
10.712694
10.728677
10.74081
10.749337
10.756
10.760255
10.762143
10.761713
10.75901
10.754076
10.746958
10.737721
10.726457
10.713284
10.698331
10.681729
10.663601
10.644066
10.623243
10.601255
10.578226
10.55428
10.529534
10.504105
10.478108
10.451655
10.424852
10.397801
10.370595
10.34332
10.316054
10.288858
10.261777
10.23484
10.208057
10.181425
10.154927
10.687398
10.719102
10.751393
10.784308
10.817847
10.851975
10.886626
10.921698
10.957067
10.992589
11.028107
11.063452
11.098447
11.132904
11.166629
11.199426
11.231097
11.26144
11.290236
11.31726
11.342288
11.365111
11.385517
11.40326
11.418049
11.429573
11.437551
11.441785
11.442157
11.438592
11.43099
11.419183
11.402938
11.382011
11.356347
11.325266
11.286067
11.23867
11.183512
11.121364
11.053334
10.983926
10.915805
10.850349
10.788586
10.731105
10.677959
10.629044
10.584384
10.751633
10.837959
10.934839
11.042133
11.16018
11.289799
11.430841
11.580201
11.73191
11.879061
12.013404
12.130997
12.231626
12.31506
12.381356
12.431862
12.47471
12.507962
12.532509
12.54937
12.559426
12.563199
12.560824
12.552245
12.537496
12.516904
12.491096
12.460825
12.426754
12.389339
12.348876
12.305659
12.260053
12.212459
12.163235
12.112687
12.061104
12.008792
11.95607
11.903245
11.850604
11.798423
11.746969
11.696489
11.647199
11.599285
11.552887
11.508087
11.46489
11.423218
12.429524
12.488609
12.551067
12.61707
12.68658
12.759406
12.835286
12.913919
12.994955
13.077992
13.162598
13.248352
13.334814
13.421476
13.507808
13.593358
13.67778
13.760712
13.841607
13.919754
13.994575
14.065911
14.133624
14.196884
14.254012
14.303044
14.342596
14.372461
14.39355
14.407009
14.413047
14.410244
14.39578
14.36642
14.319613
14.254693
14.16748
14.048322
13.895661
13.70778
13.481987
13.212208
12.905169
12.584044
12.273856
11.989857
11.733267
11.500564
11.292137
11.110598
11.456466
11.782777
12.182592
12.651919
13.163222
13.707588
14.30378
14.947748
15.570966
16.109315
16.535287
16.868857
17.128012
17.323551
17.461323
17.54472
17.595596
17.610968
17.593162
17.548736
17.488097
17.420914
17.351638
17.278359
17.195015
17.096078
16.980299
16.850927
16.71378
16.573886
16.433031
16.290011
16.143316
15.993808
15.843207
15.692694
15.542315
15.392149
15.242835
15.095379
14.950731
14.809533
14.672354
14.539881
14.412717
14.291304
14.176073
14.067517
13.966067
13.871874
13.784603
13.703469
15.441872
15.55904
15.687962
15.83034
15.98684
16.157019
16.339715
16.533981
16.739584
16.956079
17.182572
17.418083
17.662611
17.915448
18.174292
18.436772
18.702244
18.970882
19.243764
19.518906
19.791078
20.058319
20.332006
20.620271
20.9163
21.201143
21.456212
21.673926
21.86292
22.04828
22.254351
22.490083
22.738875
22.961919
23.124778
23.216178
23.238266
23.203993
23.087934
22.886709
22.588625
22.168437
21.572413
20.721335
19.626918
18.453069
17.351604
16.293958
15.18166
14.063437
13.125658
12.4034
11.853104
11.44405
11.65006
12.288972
13.1124
14.341557
16.005369
18.254846
21.042139
23.414591
25.068348
26.562992
28.259347
30.079566
31.460345
32.243936
32.707637
32.980994
33.115256
33.1421
33.079326
32.867373
32.504859
31.966988
31.195587
30.334425
29.654293
29.173089
28.813992
28.500956
28.085772
27.543437
26.896816
26.214503
25.620367
25.138248
24.696145
24.25186
23.678855
23.172308
22.688511
22.234447
21.798216
21.371847
20.9601
20.570335
20.202223
19.851089
19.519415
19.208089
18.914886
18.638897
18.383379
18.151998
17.946442
17.765278
17.604491
20.055578
20.247769
20.472778
20.738507
21.049114
21.398473
21.776529
22.178719
22.601981
23.088832
23.523018
23.97494
24.469861
25.01247
25.534953
25.987516
26.390765
26.838883
27.286861
29.066359
29.442487
29.735777
30.063255
30.288297
30.576222
30.830945
31.241227
31.651604
32.26797
32.839732
33.507644
33.997011
34.52734
34.960955
35.503282
35.875162
36.059515
36.239144
36.502644
36.730889
37.108768
37.421969
37.944561
38.520649
39.646705
40.980211
42.193997
43.18811
43.338103
43.675564
44.256046
44.720592
45.343529
45.850859
46.497401
47.053442
47.727852
48.326819
49.026315
49.662097
50.3608
51.013458
51.715287
52.36769
53.084466
53.722769
54.056606
53.416065
53.361353
52.016818
51.276214
50.845763
50.608207
50.359001
50.063774
49.985526
33.922828
34.596431
33.126344
31.203762
28.347338
25.53326
23.10421
21.020396
19.174314
17.687433
19.248376
15.110569
12.616135
11.499262
12.730174
13.349883
14.573018
16.352314
19.416693
23.145318
28.053952
33.545657
40.175768
45.345313
48.584487
52.45938
56.817479
62.688236
65.86855
83.892336
85.546599
88.142958
87.966178
87.549083
86.210922
84.961386
84.933402
88.223411
86.358535
83.407288
81.369559
79.823175
78.001773
74.689011
68.679463
65.985215
63.104708
52.502336
42.236903
35.634296
27.398517
21.662478
17.22522
14.587992
17.417588
14.71493
13.045253
12.342381
12.731507
14.567868
13.891584
16.76183
22.044572
31.376913
22.377944
32.628004
42.171162
55.954808
62.84978
66.654621
73.418919
80.187117
87.494719
92.563783
104.34054
111.43728
106.31889
98.279331
90.997314
80.069359
102.48153
77.966647
99.824293
131.6591
125.52609
112.27149
90.028903
63.712693
53.865545
85.074378
122.15958
145.77091
156.08461
155.28177
152.94077
151.79026
186.36229
142.76951
146.7066
153.13188
166.82432
150.74631
115.05455
115.66148
96.272878
85.127186
70.540485
84.004126
104.67236
138.73128
116.15837
157.48216
165.34889
150.03249
221.05928
163.30528
170.97802
158.11511
129.71186
103.42128
68.776177
36.129175
28.632292
19.166199
22.052212
15.016356
15.800222
18.381272
28.378901
39.986989
33.5821
27.303683
36.535663
53.243743
46.103171
100.86855
140.27321
165.30189
173.49857
167.35723
160.26791
280.27072
139.09349
159.20552
174.75905
217.98942
188.97783
121.09946
115.31736
92.237567
114.21887
145.60489
152.15059
70.938729
83.800046
54.918896
32.849038
21.942179
14.513289
12.453742
11.478383
8.7646491
8.7661819
8.7676663
8.769097
8.770467
8.77177
8.7729988
8.774147
8.7752085
8.7761788
8.7770543
8.7778335
8.7785121
8.7790813
8.7795249
8.7798291
8.7799994
8.8048738
8.8047045
8.8044019
8.8039605
8.803394
8.8027187
8.8019432
8.8010714
8.800105
8.7990474
8.7979032
8.7966783
8.795379
8.7940127
8.7925855
8.7911043
8.7895745
8.788002
8.7863922
8.8046402
8.8063473
8.8080361
8.809702
8.8113402
8.8129463
8.8145146
8.8160401
8.8175167
8.8189392
8.8203008
8.8215951
8.822815
8.8239543
8.8250071
8.8259685
8.8268356
8.8276068
8.8282783
8.8288414
8.8292804
8.8295811
8.8297491
8.8546349
8.8544682
8.8541696
8.8537337
8.8531746
8.8525077
8.8517417
8.8508801
8.8499244
8.8488776
8.8477444
8.8465306
8.8452425
8.8438871
8.8424708
8.8410001
8.8394804
8.8379177
8.8363171
8.834684
8.8330229
8.8313387
8.829636
8.8279185
8.8495191
8.8512488
8.8529709
8.8546822
8.8563788
8.8580564
8.8597108
8.861337
8.8629304
8.8644858
8.865998
8.8674611
8.8688698
8.8702174
8.8714979
8.8727043
8.8738301
8.8748699
8.8758186
8.8766738
8.8774338
8.8780953
8.87865
8.8790824
8.8793786
8.8795436
8.9044898
8.9043266
8.9040333
8.9036049
8.9030553
8.9024
8.901647
8.9007994
8.8998586
8.8988272
8.8977101
8.8965126
8.8952413
8.8939029
8.8925037
8.8910498
8.889547
8.8880007
8.8864164
8.884799
8.8831533
8.8814842
8.879796
8.8780928
8.8763788
8.8746572
8.8729309
8.871202
8.8913006
8.8930179
8.8947358
8.8964545
8.8981726
8.8998884
8.9015996
8.9033033
8.9049961
8.9066737
8.9083323
8.9099672
8.9115735
8.9131467
8.9146818
8.9161734
8.917616
8.9190041
8.9203315
8.9215921
8.922779
8.923886