/*--------------------------------*- C++ -*----------------------------------*\
| =========                 |                                                 |
| \\      /  F ield         | OpenFOAM: The Open Source CFD Toolbox           |
|  \\    /   O peration     | Version:  v2012                                 |
|   \\  /    A nd           | Website:  www.openfoam.com                      |
|    \\/     M anipulation  |                                                 |
\*---------------------------------------------------------------------------*/
FoamFile
{
    version     2.0;
    format      ascii;
    class       volScalarField;
    location    "0";
    object      p;
}
// * * * * * * * * * * * * * * * * * * * * * * * * * * * * * * * * * * * * * //

dimensions      [0 2 -2 0 0 0 0];


internalField   nonuniform List<scalar> 
78269
(
-0.13552753
-0.14424645
-0.093450678
-0.054613096
-0.062862031
-0.066983971
-0.085639318
-0.080906829
-0.1045572
-0.1362427
-0.16095485
-0.17034944
-0.15888652
-0.12926613
-0.095014691
-0.094158856
-0.072157739
-0.066936052
-0.057087948
-0.095856562
-0.13126009
-0.19271735
-0.21982578
-0.2521996
-0.25481426
-0.25296842
-0.24345735
-0.22993827
-0.21408703
-0.19683153
-0.17826672
-0.15837715
-0.13715931
-0.11469925
-0.091137845
-0.066629462
-0.041349804
-0.015455495
0.010809062
0.037238911
0.063549627
0.089584403
0.11524628
0.14068159
0.16682458
0.19493638
0.22497886
0.25925802
0.29196204
0.34789013
0.37284318
0.43471402
0.4593967
0.49406676
0.47484025
0.46223725
0.42753136
0.40402503
0.3779644
0.38585517
0.39408009
0.40313984
0.4107604
0.40339477
0.40050798
0.3860371
0.38769351
0.38482988
0.39614448
0.36675087
0.33717647
0.28794176
0.25041984
0.20573406
0.18119614
0.15188937
0.12743751
0.10516835
0.084405652
0.063186163
0.040755214
0.017240081
-0.0070428597
-0.031701198
-0.056381981
-0.080689154
-0.1044553
-0.12752136
-0.1496325
-0.17036542
-0.18939691
-0.20660187
-0.22210286
-0.23624863
-0.24913843
-0.25992607
-0.26586327
-0.26334128
-0.2583932
-0.22431153
-0.19362185
-0.13045198
-0.16359877
-0.21497591
-0.24042487
-0.27816169
-0.29123332
-0.29946973
-0.2965544
-0.28738905
-0.27514819
-0.26106219
-0.24524844
-0.22755872
-0.20795101
-0.18654699
-0.16363179
-0.13958741
-0.11469502
-0.089161784
-0.06321411
-0.037239436
-0.011618228
0.01326311
0.037089971
0.059627187
0.081263432
0.10361985
0.12833497
0.15916955
0.18645308
0.23284744
0.26577037
0.3162083
0.33820827
0.35991029
0.26278692
0.24284409
0.33727212
0.46415104
0.62948121
0.8650312
1.1598298
1.5023058
2.14966
3.2668413
7.4854044
8.1454237
7.3975084
6.0483906
5.0886178
3.9509711
3.0442469
2.4387621
2.1668908
1.1181659
0.40315821
0.18512784
0.20381453
-0.075845862
-0.32852358
-0.52364755
-0.66405805
-0.56142685
-0.68440327
-0.58977828
-0.25256386
0.17498517
-0.015355918
-1.4750571
-3.3009211
-2.49495
-2.4990283
-2.4858532
-2.3934371
-2.2632538
-2.2619688
-2.3452385
-2.4013332
-2.4255554
-2.4355869
-2.4471107
-2.4543756
-2.4603883
-2.4729403
-2.481588
-2.4932488
-2.4959854
-2.5061299
-2.5179794
-2.5199618
-2.5141907
-2.5069866
-2.5102862
-2.5079796
-2.4874144
-2.4708098
-2.463354
-2.4518239
-2.4228817
-2.4012947
-2.3847338
-2.3613042
-2.325149
-2.2674699
-2.189778
-2.0803167
-1.969638
-1.9283937
-1.9639313
-2.130907
-2.3107921
-2.5671355
-2.4951229
-2.2336042
-2.3291266
-2.533797
-2.9994955
-4.3881375
-3.8869994
-2.0649455
-1.2257474
-1.7222253
-1.6797686
-0.76015606
-1.036679
-1.145906
-1.2719144
-1.353365
-1.3411932
-1.2893074
-1.2412764
-1.289642
-1.4241918
-1.5318861
-1.4984339
-1.7578076
-1.6148806
-2.0306253
-3.5593909
-2.6127706
-1.0778123
-0.46468955
-0.84747981
-0.77889991
-0.032312295
-0.2330373
-0.27261633
-0.3043449
-0.30877825
-0.27296824
-0.20919409
0.0044325519
-0.21906025
-1.1560785
-1.5914613
-2.4079048
-0.72093952
-0.98722917
-2.3776008
-1.2723039
0.2456729
0.87436877
0.63789358
0.76057805
1.1330142
1.7680569
1.9428517
0.85645125
0.34265389
0.25033279
0.26008925
0.10013174
-0.064816127
-0.1232937
-0.13060358
-0.1162766
-0.098501323
-0.086897348
-0.080420985
-0.078195786
-0.078128095
-0.077358881
-0.076006627
-0.074209424
-0.0720953
-0.069778238
-0.067347994
-0.064867945
-0.062379901
-0.059911269
-0.05747306
-0.055083423
-0.052754341
-0.050485001
-0.048279822
-0.046177089
-0.043968616
-0.041297608
-0.037638138
-0.031709621
-0.021393566
-0.0043642737
0.019756189
0.045190353
0.065628473
0.067494232
0.030078656
-0.05015706
-0.13539678
-0.17492763
-0.085567247
0.0015229148
-0.010090114
-0.0097471103
-0.021334286
-0.020872191
-0.029663341
-0.028482557
-0.028028482
-0.026206189
-0.025347907
-0.025074641
-0.025210527
-0.02534637
-0.025420683
-0.025441943
-0.025420541
-0.025377606
-0.025327666
-0.025273821
-0.02521847
-0.025146099
-0.025067931
-0.024962353
-0.024804019
-0.02458499
-0.024420267
-0.02474195
-0.025589709
-0.027354468
-0.027632668
-0.028769324
-0.019983442
-0.02044412
-0.0088270648
-0.0091705859
0.0024685588
-0.0061621218
0.00027639417
-0.0057612975
-0.0023223554
-0.011900522
-0.013671064
-0.015818858
-0.015810143
-0.013657306
-0.011875525
-0.0022853563
-0.0057132476
0.00033234453
-0.0061036978
0.0025308423
-0.0091078691
-0.0087695582
-0.020387595
-0.019927541
-0.028713637
-0.027573638
-0.027291902
-0.025527909
-0.024675422
-0.024349778
-0.024512506
-0.024729488
-0.024886981
-0.024992634
-0.025069683
-0.025135042
-0.025187787
-0.025244069
-0.025293013
-0.025334087
-0.025356427
-0.025333457
-0.025257095
-0.025119827
-0.024983708
-0.025257368
-0.026118463
-0.027938592
-0.028394037
-0.029577551
-0.020786363
-0.021248218
-0.0096610635
-0.0099966022
0.0016198526
-0.0069932732
-0.00055881063
-0.0065818225
-0.0031668207
-0.012744617
-0.014520582
-0.01666913
-0.016679565
-0.01454359
-0.012786933
-0.003226246
-0.0066569511
-0.00064603425
-0.0070831655
-0.017055979
-7.0895164e-05
0.0056992068
0.0044080587
-0.003317819
-0.0062603847
-0.0078122119
-0.0078004472
-0.0062375904
-0.0032725239
0.0044670437
0.0057701145
1.0461438e-05
-0.01696721
-0.010302027
0.0077741897
0.015539867
0.014948082
0.0092270561
0.0047542362
0.0034317668
0.0034226103
0.0047310443
0.0091854085
0.014892456
0.015469004
0.0076899915
-0.010389875
-0.01477569
0.0038082084
0.017108247
0.022160431
0.01886819
0.014025415
0.011991431
0.01200251
0.014049216
0.018911712
0.022222909
0.01718369
0.0038915234
-0.014688408
-0.015627489
-0.001186253
0.012645662
0.01776448
0.016044224
0.011332141
0.0092218021
0.0092127238
0.011308135
0.016000556
0.017700084
0.01256829
-0.001269625
-0.015713726
-0.022529067
-0.0066287907
0.0081498989
0.014015783
0.011775197
0.0070152669
0.0052718798
0.0052807279
0.0070406649
0.011819522
0.014079859
0.0082262659
-0.0065456874
-0.0224431
-0.023152939
-0.0085492269
0.0056941225
0.01139194
0.0083626453
0.0030185624
-0.00060881865
-0.00061870967
0.0029911092
0.0083180634
0.011328862
0.0056177348
-0.0086329742
-0.023239765
-0.023428617
-0.008551941
0.0073893054
0.014692323
0.0079217162
0.0014390798
-0.002938473
-0.0029255871
0.0014527937
0.0079635376
0.014747531
0.0074648898
-0.0084682514
-0.023340913
-0.02182472
-0.0067571932
0.010967612
0.017672597
0.0091650104
0.0027263248
-0.00086027976
-0.00087562434
0.0026997693
0.0091220717
0.017620566
0.010888826
-0.0068421104
-0.021912524
-0.020981852
-0.0058148716
0.011235864
0.017199709
0.0097833963
0.0036877026
0.00089918812
0.00091271744
0.003716223
0.0098272197
0.017252704
0.011316573
-0.0057283276
-0.020891983
-0.020645488
-0.005580043
0.0099340211
0.016106484
0.0098883333
0.0040563366
0.0014199915
0.0014062328
0.004027379
0.0098442242
0.016051821
0.0098535909
-0.0056665857
-0.020735332
-0.020888799
-0.0059335829
0.0083521995
0.015130574
0.0097466513
0.0041302433
0.001555644
0.0015692622
0.0041589353
0.0097906678
0.015184579
0.008431057
-0.0058479721
-0.020799539
-0.02090416
-0.0060516497
0.0075681949
0.014735301
0.0097280298
0.0041965072
0.0016320295
0.0016186751
0.004168361
0.0096845915
0.014681442
0.0074901312
-0.0061359622
-0.020991931
-0.021028667
-0.0061798617
0.0072963212
0.014556523
0.0097007263
0.0042241737
0.0016820042
0.0016948618
0.0042514227
0.0097432913
0.014609401
0.0073691606
-0.006097811
-0.020942721
-0.020937736
-0.0060691925
0.0073741248
0.014585894
0.0097911938
0.0043141948
0.0017580935
0.0017459828
0.0042880006
0.0097492506
0.014531853
0.0072995357
-0.0061516077
-0.021023747
-0.020992493
-0.0061042138
0.0073448864
0.014544492
0.009806935
0.0043515273
0.0018077983
0.001818509
0.004376586
0.0098478654
0.014596786
0.0074205631
-0.0060231539
-0.020909289
-0.020866365
-0.0059705821
0.0074727357
0.01462177
0.0099043883
0.0044360361
0.0018767453
0.0018659859
0.004411077
0.0098639926
0.014570415
0.0073995679
-0.0060502818
-0.020949407
-0.020904394
-0.0059992397
0.0074517887
0.014600854
0.0099176596
0.0044668333
0.0019232315
0.00193508
0.0044923745
0.0099579173
0.01465065
0.0075226574
-0.0059211944
-0.02082151
-0.020774879
-0.0058714592
0.0075730349
0.014684632
0.010008131
0.0045478155
0.002009231
0.0019978229
0.0045226101
0.0099679523
0.014634267
0.0074998121
-0.0059535707
-0.020858947
-0.020815839
-0.0059119708
0.007545196
0.014666855
0.010014111
0.0045810598
0.0021367629
0.0021499471
0.0046061107
0.010052982
0.014714916
0.0076153843
-0.0058312694
-0.020731842
-0.020687193
-0.0057928564
0.0076571318
0.01474776
0.010086682
0.0046404839
0.0021943078
0.0021791737
0.0046137266
0.010048379
0.014704252
0.0075939839
-0.0058626898
-0.020760844
-0.020709763
-0.0058292032
0.0076348193
0.014756309
0.010079998
0.0046246901
0.0020966139
0.0021095391
0.0046503631
0.010117758
0.014800535
0.0076989591
-0.0057587616
-0.020636141
-0.020559118
-0.0056995225
0.0077931398
0.014929955
0.010162453
0.0046708845
0.0021127849
0.0021003579
0.0046458867
0.010125382
0.014885438
0.0077276009
-0.0057711582
-0.020633629
-0.020505484
-0.0056230587
0.0080739455
0.015147278
0.010210548
0.004682031
0.0021228945
0.0021349955
0.0047063895
0.010246705
0.015190531
0.0081378842
-0.0055528059
-0.020431927
-0.020232945
-0.0052388094
0.0091431907
0.015800611
0.010414013
0.0047655887
0.0021618109
0.0021500409
0.0047419192
0.010378858
0.015758614
0.0090798961
-0.0053075974
-0.020304446
-0.020101837
-0.0049989089
0.010614856
0.016767335
0.010559579
0.0047129863
0.0020447605
0.0020562281
0.0047359582
0.010593901
0.016808622
0.01067724
-0.0049317549
-0.02003257
-0.020260677
-0.0050662455
0.012018305
0.017986459
0.010528521
0.0043629129
0.0012971056
0.0012857078
0.0043409369
0.01049532
0.017946666
0.011957378
-0.0051308651
-0.020327604
-0.021235456
-0.0061334289
0.011620187
0.018357513
0.0098614934
0.0034128886
-0.00022571764
-0.00021349813
0.0034326562
0.0098933592
0.018396702
0.011677406
-0.0060731561
-0.02117321
-0.022689406
-0.0077817721
0.0081596645
0.015418943
0.0086825302
0.0021631373
-0.0023402902
-0.0023498572
0.0021541714
0.008652902
0.015379567
0.0081070935
-0.0078391521
-0.022750058
-0.022430502
-0.0078044751
0.0064705845
0.012183564
0.0091556031
0.0037788303
-6.8316389e-05
-6.2209486e-05
0.0037970215
0.0091860059
0.012226676
0.0065221799
-0.0077489424
-0.022372712
-0.021575301
-0.0056478275
0.0091558275
0.015025104
0.012750515
0.007914611
0.0058816436
0.0058768626
0.0078990052
0.012721564
0.0149827
0.009105661
-0.0057021721
-0.021631382
-0.014828775
-0.00034519368
0.013524087
0.018679703
0.016959306
0.012238644
0.010091941
0.010097059
0.012252761
0.016987075
0.018721864
0.013574853
-0.00029109886
-0.014772622
-0.013818357
0.0047991313
0.018109859
0.023158027
0.019842303
0.014965731
0.012906906
0.012899601
0.014951845
0.019815365
0.023118005
0.018060784
0.0047462219
-0.013875292
-0.0094754366
0.0086454515
0.016420883
0.01583843
0.0101219
0.0056465365
0.0043195864
0.004325748
0.0056602483
0.010146746
0.015872941
0.016467635
0.0087005666
-0.0094171471
-0.016094782
0.00089176371
0.0066490481
0.0053635009
-0.0023584355
-0.0053586088
-0.0069352869
-0.0069439059
-0.0053721455
-0.002382194
0.0053271686
0.0066026803
0.0008376881
-0.016153454
-0.067377076
-0.085780671
-0.15371077
-0.1160372
-0.038605902
0.032991105
0.068875335
0.072349061
0.057153661
0.034901875
0.013117596
-0.0027234773
-0.012136896
-0.017267367
-0.020212131
-0.022283265
-0.024118388
-0.025968483
-0.027946209
-0.030139809
-0.032571427
-0.035230537
-0.038119943
-0.041247962
-0.044622601
-0.048249336
-0.052131585
-0.056271946
-0.060676359
-0.065363662
-0.070383643
-0.075870202
-0.082146328
-0.089758717
-0.099752621
-0.11371382
-0.13359201
-0.16128519
-0.19840795
-0.24650345
-0.30715023
-0.38128806
-0.46835454
-0.56615622
-0.67167281
-0.78243913
-0.89704172
-1.0137743
-1.1294794
-1.2406445
-1.3444473
-1.4383139
-1.5197893
-1.5868186
-1.6361837
-1.66297
-1.6634713
-1.6348017
-1.5742598
-1.4818853
-1.3612951
-1.2198331
-1.0678053
-0.91748032
-0.77982511
-0.66118077
-0.56336755
-0.48485394
-0.42192104
-0.36967297
-0.32321691
-0.27813645
-0.22898438
-0.17554025
-0.13609265
-0.12540897
-0.14941401
-0.2180597
-0.27490191
-0.24038573
-0.23321455
-0.23987973
-0.25787934
-0.28227984
-0.3058414
-0.31963503
-0.32292557
-0.31842977
-0.30863401
-0.29528734
-0.27923434
-0.26086302
-0.24037722
-0.21793226
-0.19372659
-0.16812273
-0.14143846
-0.1139715
-0.086059793
-0.05802028
-0.030221994
-0.0030207045
0.023229164
0.048466114
0.072891594
0.097399351
0.12437913
0.15673461
0.19568627
0.23558916
0.2616035
0.27549524
0.27237521
0.26526337
0.34959291
0.47344057
0.63777165
0.85514696
1.1252455
1.5187061
2.2882609
3.5656162
6.6843482
7.3170188
7.6554425
7.8888579
7.5881445
8.0463952
7.2010508
6.3507779
5.6699369
3.8462669
2.7470783
1.8648396
2.1690928
1.432066
2.625187
3.8054744
5.2240266
4.6232174
3.666905
5.9770113
7.0790335
7.0374252
5.5714487
5.1104121
3.3989557
2.3690021
2.3381632
1.5055079
1.0910434
0.82904578
0.64208115
0.49598596
0.37208391
0.28411338
0.29950304
0.3890808
0.51309939
0.64023915
0.79627528
1.0238911
1.4160484
2.1291975
2.2276947
2.9814709
3.2422535
4.4156022
4.6361072
5.8366283
6.5991332
6.2786555
6.5770515
6.6072776
6.472948
5.4777815
5.1459616
5.5474795
5.5206901
5.5252192
4.916615
5.0950541
5.7757077
6.3196181
6.0967917
4.9407556
3.5262975
3.5930885
2.5918462
2.1249614
1.6472963
0.93316566
0.32433666
0.45299047
0.15101945
0.032316596
1.02514
0.052009707
-0.21431672
-0.45237435
-0.69888786
0.01591146
-0.68159146
-0.55536659
-0.21463314
0.24211986
0.4559498
-0.34851368
-0.70168094
0.082885873
-0.3447532
-0.83951617
-0.68185825
-0.39160734
-0.54490693
-0.53819242
-0.38809723
0.030795038
0.43885237
0.30463873
0.17047612
-0.085263794
0.084175177
-0.10023291
-0.28555701
-0.4536495
-0.67109588
-0.83018457
-0.69342053
-0.81610917
-0.76546426
-0.48019476
-0.34910376
-1.5898601
-2.9905789
-2.7140204
-2.3324218
-2.5317153
-2.6193371
-2.4218844
-2.2022421
-2.2474595
-2.3456071
-2.412199
-2.4336355
-2.4411261
-2.4485542
-2.4557864
-2.4616442
-2.4731395
-2.4821777
-2.4935414
-2.4968329
-2.5070673
-2.518207
-2.5203964
-2.5141223
-2.5077291
-2.5104673
-2.5080321
-2.4871196
-2.4700737
-2.4617978
-2.4504379
-2.4214862
-2.3982066
-2.3819935
-2.3576844
-2.3220406
-2.2721111
-2.212588
-2.1239753
-2.016472
-1.9273527
-2.0278985
-2.2576323
-2.2457977
-2.1760049
-1.8563375
-1.8401235
-1.7790339
-1.7650984
-1.7801433
-1.8786958
-2.0541907
-2.341787
-2.0836079
-2.1020648
-1.9593991
-1.8609494
-1.7964548
-1.7896115
-1.8372696
-1.9701132
-2.1988332
-2.477946
-2.2270163
-2.1991927
-2.3485779
-2.4594108
-2.3895298
-2.2921397
-2.2015367
-2.0904384
-2.2476753
-2.4264701
-2.1588641
-2.0270219
-2.0311356
-2.1529946
-2.2818022
-2.0378073
-1.9875538
-1.8613788
-1.9002746
-2.2498109
-1.6671338
-1.8254372
-1.6102961
-2.0664459
-2.2319855
-2.3006894
-2.3330665
-2.3262543
-2.3390533
-2.369902
-2.3994475
-2.4236004
-2.4343645
-2.441307
-2.4650793
-2.4903132
-2.5043509
-2.5134743
-2.5301182
-2.549668
-2.554693
-2.5545461
-2.5587024
-2.5653972
-2.5629541
-2.5548162
-2.5582078
-2.56151
-2.5554957
-2.5527674
-2.5353884
-2.5291404
-2.5324126
-2.570688
-2.587127
-2.145574
-2.2511042
-2.701632
-2.3780101
-2.8302464
-2.8805984
-2.3868608
-2.5972629
-1.8486094
-2.2208381
-2.6700865
-3.1364166
-2.5347236
-2.5222605
-2.1572976
-2.4949519
-2.5023648
-2.5206117
-2.5726369
-2.5867407
-2.5795617
-2.5768645
-2.5695909
-2.5650513
-2.5719378
-2.5736213
-2.5652056
-2.5627372
-2.5638753
-2.5580694
-2.5389039
-2.5219122
-2.5122359
-2.5000853
-2.4759839
-2.4510593
-2.4437917
-2.433856
-2.4109837
-2.3795131
-2.3388544
-2.3102919
-2.3183051
-2.3130423
-2.2860615
-2.1869975
-2.4170587
-2.4101925
-2.294032
-2.2794909
-2.3630631
-2.4063134
-2.4239169
-2.4415298
-2.4508083
-2.4596567
-2.4853237
-2.5084813
-2.520415
-2.5309587
-2.5479547
-2.5664413
-2.5730834
-2.5715925
-2.572992
-2.5812199
-2.5813625
-2.5759894
-2.5794544
-2.5910737
-2.6046196
-2.6218866
-2.6219017
-2.5287504
-2.4082784
-2.2640663
-2.5279406
-2.9581049
-3.3415837
-2.624164
-3.0205043
-3.6129624
-1.7986824
-1.4618857
-1.5314402
-3.2448026
-2.7286939
-2.3876364
-2.4369752
-2.496283
-2.5713226
-2.6375067
-2.6522948
-2.6266384
-2.6037399
-2.5877913
-2.5850411
-2.5907644
-2.5901271
-2.5819592
-2.5801924
-2.5823164
-2.5746336
-2.5571888
-2.5398111
-2.5293568
-2.5180125
-2.4925091
-2.4660316
-2.4534632
-2.4400554
-2.4265205
-2.4293994
-2.4142735
-2.3207286
-2.2357306
-2.2842204
-2.1672884
-2.1076354
-2.2401202
-2.643127
-2.4447624
-2.5441445
-2.6486735
-2.6188378
-2.634842
-2.6745574
-2.0556447
-2.2881569
-2.4736846
-2.6242137
-2.4630922
-2.6015165
-2.5758201
-2.8054709
-2.5844546
-2.3004556
-2.08036
-2.1271352
-2.1104789
-2.133004
-2.1281377
-2.1958926
-2.2216158
-2.2609123
-2.247054
-2.320759
-2.4322012
-2.7503889
-3.7360834
-3.080138
-3.1092017
-3.1551673
-2.1023138
-2.4014288
-2.9397888
-3.0259277
-2.8165087
-2.8459693
-2.8508248
-2.8682677
-2.884043
-2.9127272
-2.9308292
-2.9362523
-2.9456746
-2.9431207
-2.9586433
-2.9704472
-2.9791459
-3.0111649
-3.0379068
-3.0090722
-2.9874455
-3.0407132
-3.0993629
-3.1761731
-3.2142619
-3.2480073
-3.2452548
-3.1177843
-3.1224678
-3.1193178
-2.2706527
-2.3916079
-2.7853583
-3.2712557
-3.0797149
-3.2690159
-3.2028996
-3.2968125
-3.303565
-3.3791256
-3.4425343
-3.4868846
-3.5635373
-3.6233615
-3.6150171
-3.5053634
-3.5875458
-3.4637312
-3.5363485
-3.5482326
-2.5859557
-2.5621419
-2.9333395
-3.3753915
-3.4423773
-3.4364913
-3.5198803
-3.5278594
-3.6352502
-3.4430734
-3.4607298
-3.5120456
-2.7725167
-3.2965784
-3.7867707
-4.0779351
-4.0716424
-4.0268031
-4.0892658
-3.8433483
-3.9405122
-3.909823
-3.0526039
-3.0069199
-3.3659036
-3.8792506
-3.0753511
-3.1051647
-3.6827183
-4.4315026
-4.1878078
-4.2585757
-3.7763092
-2.8178468
-2.7788742
-2.6512104
-2.5446703
-2.4721675
-3.1081774
-3.6924744
-3.4654285
-3.2487866
-3.1916113
-3.1571835
-3.1211335
-3.1181871
-3.0874408
-3.1309782
-3.1372366
-2.5844196
-2.5996205
-3.1513417
-3.1492703
-2.7371802
-2.4238904
-1.8449485
-1.3906203
-1.3150927
0.14435166
2.1849792
5.1010144
5.026728
4.8511818
3.2512989
2.2748405
1.7323905
1.2181435
0.59541448
0.33652551
0.20567346
0.10831769
0.045570424
0.016824473
0.012807534
0.024859356
0.039699274
0.043009715
0.014967283
-0.073161067
-0.16768828
-0.14051039
-0.1120649
-0.082659769
-0.052599882
-0.022178614
0.0083126108
0.038618727
0.068577234
0.098238565
0.12788157
0.15789112
0.1889102
0.22148226
0.25824787
0.28475973
0.38853142
0.51482992
0.63193477
0.78015925
0.99976405
1.2999763
1.8140369
1.9882176
2.5081698
2.749052
3.4256345
3.849253
5.2619163
5.8606594
5.9351205
6.0885607
5.2844907
3.432764
2.8697486
1.6373544
1.8179314
1.4018608
1.0564124
0.24569187
-0.17102369
-0.1736209
-0.14633132
-0.51762115
-0.73406636
-0.95082509
-0.80993353
-0.70852285
-0.88240862
-1.0231634
-1.8015242
-2.3182097
-2.4382792
-3.2426168
-3.0257592
-2.6871729
-2.6266344
-2.4392839
-2.2038247
-2.238616
-2.3624982
-2.4265952
-2.4427726
-2.4456678
-2.4506263
-2.457632
-2.4636299
-2.4747531
-2.4838759
-2.4937477
-2.4986138
-2.5088113
-2.5199794
-2.5201293
-2.5143787
-2.509997
-2.511321
-2.5080595
-2.4871112
-2.4686308
-2.4597555
-2.4467176
-2.4182067
-2.3939217
-2.3774957
-2.3517384
-2.3176666
-2.2790847
-2.2394735
-2.1843313
-2.0987328
-2.0017101
-1.9759681
-1.9450121
-2.0935249
-2.2051079
-2.2487965
-2.2625172
-2.2839353
-2.3158245
-2.3479855
-2.3732837
-2.3880985
-2.4134116
-2.443035
-2.4580108
-2.4680569
-2.4873966
-2.5093969
-2.5128313
-2.5122045
-2.5153991
-2.521355
-2.5230733
-2.511353
-2.5012056
-2.4957885
-2.4872853
-2.4790024
-2.4654476
-2.458186
-2.4514282
-2.4471666
-2.450451
-2.4442977
-2.3862529
-2.2411948
-2.2371533
-2.460516
-2.6858665
-2.8278446
-3.1859022
-2.9027479
-2.3030749
-1.762955
-1.2338138
-1.0745851
-1.0288757
-1.0125167
-1.1543631
-1.0410926
-0.66885387
-0.42136656
-0.27293616
-0.41644559
-0.19627192
0.65870653
1.2750326
1.0718081
0.65055
1.4183823
2.0808964
2.4658362
3.4820613
6.4439851
6.3723952
6.2265744
6.060808
5.0700522
3.4870625
2.9116297
1.4408921
1.6450316
0.77008949
0.073716836
-0.28590538
-0.40174526
-0.23202905
-0.30899101
-0.8326074
-1.0930488
-1.2435544
-1.0207048
-0.98370424
-1.2341637
-0.83887313
-0.65973539
-2.0315776
-3.1440105
-2.8996536
-2.6418928
-2.9065938
-2.6346555
-2.40504
-2.3660548
-2.3178949
-2.3927796
-2.4575194
-2.4545002
-2.4467583
-2.4495641
-2.4563276
-2.469379
-2.4841316
-2.4922601
-2.5010999
-2.5039605
-2.5138912
-2.5271484
-2.525424
-2.5175833
-2.5135261
-2.5148751
-2.5118569
-2.4892199
-2.4693748
-2.4579491
-2.4406139
-2.4105719
-2.3835041
-2.3692555
-2.3469504
-2.317937
-2.2910073
-2.2883671
-2.3121662
-2.3033274
-2.1845378
-1.9842748
-2.0305047
-2.2711258
-2.3780494
-2.3548233
-2.3144047
-2.3028183
-2.323463
-2.3484379
-2.3683204
-2.3837784
-2.4117988
-2.4413339
-2.4597658
-2.4718761
-2.4918946
-2.5152129
-2.5178592
-2.5149112
-2.5213873
-2.5308108
-2.5308873
-2.5174101
-2.5082671
-2.507687
-2.4993175
-2.4879478
-2.4729892
-2.4586587
-2.4493772
-2.4463816
-2.458702
-2.4696303
-2.4069721
-2.2958315
-2.4621152
-3.0786602
-2.5358385
-2.6337098
-3.6640987
-0.99034449
-0.027960571
-0.63523548
-1.0640382
-1.2066628
-1.4182517
-1.2597969
-0.93347574
-0.79341567
-0.5739605
-0.54930656
-0.30447677
-0.23537669
0.33560097
0.98869813
0.8158491
0.51528473
1.3234856
1.9722413
2.8718329
5.732046
5.363531
5.5996027
4.4480462
4.8209422
6.3683043
5.2319343
5.4472026
4.6356872
4.3703056
4.5969391
4.56983
4.7582939
4.1788792
4.2828356
5.1824662
5.7138481
4.5286958
2.9652153
2.386704
1.2216959
0.81621492
0.16844991
-0.30438191
-0.57613027
-0.5946256
-0.67125109
-0.65175033
-0.93596614
-1.332494
-1.5120296
-1.0795203
-0.8139541
-0.79904152
-0.078805853
-0.83083612
-3.2782197
-1.6709641
-0.66730285
-0.80181557
-0.88002449
-1.2221763
-1.3678459
-1.2080141
-0.98436983
-0.54682665
-0.54343079
-0.57172765
-0.67900032
-0.79418343
-0.62956806
-0.65620714
0.23302522
0.9658277
1.8118061
2.928097
4.924667
5.882418
5.5817274
5.38191
3.8047289
2.9398065
2.6949341
3.4265103
4.673061
4.9454783
5.9325823
6.3493756
6.2961911
5.9162685
5.7548799
5.2092282
5.3364298
5.3649452
5.2055858
4.936142
4.792945
4.9763498
5.5825371
5.6305047
4.7818739
4.0809398
2.8283696
2.2349983
0.97769677
0.49591637
-0.31306399
-0.72932562
-0.79064111
-0.5983101
-0.6594218
-0.87712227
-1.1293734
-1.359315
-1.2272929
-0.87334133
-0.93224031
-1.3318573
-1.6826723
-2.0376177
-0.26578674
-0.22659674
0.023840901
-0.46591898
-1.081742
-1.5070221
-0.98273743
-0.86300582
-1.2523047
-1.3596226
-1.1901495
-1.0265108
-0.82137447
-0.87995094
-0.66700065
-0.73739394
-0.76819817
-0.7781198
-0.82486364
-0.81412601
-0.9096244
-0.93434492
-1.0458006
-1.0223908
-0.93377528
-0.80926353
-0.91311249
-0.83243753
-0.79523793
-0.74352365
-0.78302122
-0.53153232
-0.29917696
-0.16806098
0.05286546
0.31683266
0.67224237
1.9746978
3.0646202
3.0740563
2.5065602
1.7543888
1.2554411
0.93118614
0.71135165
0.55122728
0.41831238
0.31610923
0.31134113
0.36430503
0.36305943
0.3833986
0.3820418
0.38557616
0.37860548
0.37332337
0.37111296
0.37072775
0.39123891
0.4033865
0.42625866
0.4239929
0.43096993
0.29796162
0.2519198
0.32276274
0.39762673
0.40425431
0.34731571
0.23202001
0.088002403
-0.070816157
-0.24330396
-0.43151934
-0.63321876
-0.84267
-1.0521986
-1.2537227
-1.4396707
-1.6036782
-1.7407703
-1.8475218
-1.9221558
-1.9646941
-1.9765417
-1.9578453
-1.9105843
-1.8388505
-1.7455255
-1.6337415
-1.5068272
-1.3682966
-1.2218564
-1.0713782
-0.9209678
-0.77464468
-0.63593898
-0.5080033
-0.39344688
-0.2940174
-0.21049558
-0.14272141
-0.089746762
-0.050060382
-0.021823424
-0.0030772413
0.0081008392
0.01348019
0.014606804
0.012774035
0.0090222198
0.0041566282
-0.0012214864
-0.0066806055
-0.011924243
-0.016759829
-0.021062902
-0.024798077
-0.027975628
-0.030581943
-0.032632233
-0.034173009
-0.03524687
-0.035915527
-0.036259047
-0.036323118
-0.03607196
-0.035428368
-0.034161266
-0.031686299
-0.026753293
-0.017268483
-0.00092045401
0.022641955
0.047577969
0.067555098
0.069021207
0.031268384
-0.049256576
-0.1347471
-0.17448027
-0.085289375
-0.077644322
-0.14717463
-0.11451048
-0.038275073
0.028980296
0.061190115
0.06204664
0.044753431
0.021307806
-0.00087612163
-0.016822989
-0.026264638
-0.03129187
-0.033848874
-0.035189836
-0.035924924
-0.036267049
-0.03629061
-0.036024868
-0.035420091
-0.034407004
-0.032925549
-0.030935452
-0.028398423
-0.025285382
-0.021605248
-0.017362894
-0.012586897
-0.0073857992
-0.0019446848
0.0034511569
0.00838486
0.012272258
0.014327248
0.013523168
0.0085746488
-0.0020660809
-0.020186806
-0.047745581
-0.086741169
-0.13907895
-0.20635422
-0.28959895
-0.3890313
-0.50388065
-0.63236126
-0.77179959
-0.91893916
-1.0701781
-1.2214593
-1.3686533
-1.5078859
-1.6354685
-1.7479147
-1.8419108
-1.9143323
-1.9622142
-1.9822253
-1.9716151
-1.9295497
-1.8553204
-1.7486414
-1.6111427
-1.4461813
-1.2586446
-1.0548896
-0.84262851
-0.63024321
-0.42562762
-0.23503322
-0.061569125
0.095797197
0.23514063
0.34363291
0.39993178
0.39746286
0.33975275
0.27948658
0.31580105
0.3407927
0.30891002
0.36380158
0.41244897
0.40382078
0.34311778
0.2415507
0.11139656
-0.042675974
-0.21808988
-0.41342937
-0.62408083
-0.84285113
-1.0610785
-1.2697906
-1.4608972
-1.6279756
-1.7663156
-1.8727672
-1.9460201
-1.9863893
-1.9946314
-1.9723983
-1.9227418
-1.8486614
-1.7531328
-1.6392454
-1.510204
-1.3694463
-1.2206085
-1.067547
-0.91445489
-0.76548269
-0.62439158
-0.49464501
-0.37910055
-0.27964754
-0.19703548
-0.1309122
-0.080046085
-0.042635124
-0.016615178
0.00011295046
0.0095648894
0.013565825
0.013664696
0.011130005
0.0069477721
0.0018670163
-0.0035637991
-0.0089610754
-0.014066639
-0.018718694
-0.022829855
-0.026371247
-0.029336797
-0.03173041
-0.033583187
-0.034930452
-0.035811467
-0.036278348
-0.036386626
-0.036190949
-0.035667195
-0.034736871
-0.033216244
-0.030589619
-0.025759384
-0.017036219
-0.0030080921
0.016302456
0.037418453
0.054469774
0.057442551
0.035250129
-0.02081051
-0.08799572
-0.1108176
-0.050846181
-0.044323625
-0.082818428
-0.061346615
-0.0012055003
0.046555184
0.060059873
0.050077928
0.0300317
0.0092645055
-0.0074505578
-0.018835393
-0.025952579
-0.030147077
-0.032663218
-0.03429896
-0.035433892
-0.036186496
-0.036619977
-0.036740083
-0.036488712
-0.035823713
-0.034697415
-0.033073988
-0.03092077
-0.028203852
-0.024907162
-0.021029391
-0.016590649
-0.011653886
-0.0063444159
-0.00087345396
0.0044319869
0.0090874183
0.01240891
0.013469489
0.011042105
0.0035869692
-0.010756267
-0.034106452
-0.068737258
-0.11699392
-0.18104541
-0.26250082
-0.36197603
-0.47876407
-0.61077618
-0.75478955
-0.90692963
-1.063173
-1.2192249
-1.3708084
-1.5140715
-1.6454636
-1.7617438
-1.8598636
-1.9368341
-1.9896477
-2.0153449
-2.0107885
-1.9736499
-1.9025009
-1.7966545
-1.6570969
-1.4865311
-1.2894359
-1.0723616
-0.84397041
-0.61436467
-0.39394352
-0.19167718
-0.013166256
0.13934824
0.26354479
0.35748158
0.4182135
0.43589734
0.3965949
0.34698615
0.35958488
0.36814356
0.37513341
0.43135427
0.46434101
0.44966838
0.39526529
0.30525857
0.18376198
0.031221631
-0.15244153
-0.36548551
-0.60086538
-0.84710339
-1.0909786
-1.3204565
-1.5261433
-1.7013956
-1.8421427
-1.9464127
-2.013835
-2.0458864
-2.0451339
-2.0144207
-1.9568437
-1.8756185
-1.7738018
-1.6542238
-1.5196076
-1.3728627
-1.2173484
-1.0569202
-0.89598105
-0.73900612
-0.59044204
-0.45483381
-0.33606251
-0.23659777
-0.15706401
-0.096363054
-0.052226836
-0.021896874
-0.0025966533
0.0082115822
0.012760791
0.012933607
0.01024339
0.0058391329
0.00055917241
-0.0050134122
-0.010493822
-0.01563836
-0.020302715
-0.024410662
-0.027931365
-0.030863271
-0.033220678
-0.035028785
-0.036325844
-0.037142264
-0.037513956
-0.037483947
-0.037090388
-0.036387724
-0.035411672
-0.034150815
-0.032572728
-0.030468214
-0.027251634
-0.021869539
-0.012582668
0.0031228825
0.025455029
0.048864611
0.066499776
0.059207573
0.014226778
-0.043997252
-0.069523313
-0.036510043
-0.050403481
-0.071128293
-0.036285113
0.024730187
0.069534609
0.073110519
0.050189543
0.023689521
-0.00090515637
-0.016902881
-0.025139487
-0.029231042
-0.031470164
-0.033027447
-0.034425904
-0.03573098
-0.036896615
-0.037868254
-0.038557352
-0.038912272
-0.038891941
-0.038457305
-0.037571506
-0.036200215
-0.034306364
-0.031856998
-0.028822977
-0.025181917
-0.020925222
-0.016069158
-0.010673201
-0.0048698759
0.0010891653
0.0067669692
0.011468713
0.014156779
0.013400084
0.0073420327
-0.0063730071
-0.030610415
-0.06871954
-0.12433204
-0.20079061
-0.30009158
-0.42179618
-0.56276262
-0.71795254
-0.88173588
-1.0490165
-1.2151466
-1.3756876
-1.5267339
-1.6651675
-1.7886569
-1.8950374
-1.9817712
-2.0457428
-2.0832496
-2.0911848
-2.0665849
-2.005025
-1.903851
-1.7628304
-1.5825485
-1.3660182
-1.1197104
-0.85394158
-0.58350248
-0.32575482
-0.095991414
0.096397666
0.25010172
0.36789882
0.45254247
0.49879603
0.50421999
0.46298769
0.39348826
0.36865044
0.36345695
0.40377114
0.49115787
0.548824
0.55808044
0.52553534
0.45231864
0.34218126
0.18761579
-0.017773318
-0.2723197
-0.56254737
-0.86697527
-1.162123
-1.4294857
-1.657896
-1.8419685
-1.9810684
-2.0771848
-2.1303723
-2.1444147
-2.1273631
-2.0817229
-2.0098204
-1.916415
-1.8049446
-1.6774635
-1.5352058
-1.3794156
-1.2129662
-1.0400649
-0.86490514
-0.69209736
-0.52764927
-0.378894
-0.25293876
-0.15414274
-0.082514071
-0.03439827
-0.0046918109
0.011456732
0.018029152
0.018175196
0.014359126
0.0083990043
0.0015316032
-0.0054299467
-0.011978797
-0.017861844
-0.022999407
-0.02739362
-0.031081666
-0.034112041