/*--------------------------------*- C++ -*----------------------------------*\
| =========                 |                                                 |
| \\      /  F ield         | OpenFOAM: The Open Source CFD Toolbox           |
|  \\    /   O peration     | Version:  v2012                                 |
|   \\  /    A nd           | Website:  www.openfoam.com                      |
|    \\/     M anipulation  |                                                 |
\*---------------------------------------------------------------------------*/
FoamFile
{
    version     2.0;
    format      ascii;
    class       volVectorField;
    location    "0";
    object      U;
}
// * * * * * * * * * * * * * * * * * * * * * * * * * * * * * * * * * * * * * //

dimensions      [0 1 -1 0 0 0 0];


internalField   nonuniform List<vector> 
78269
(
(5.0205889 -0.038251047 -0.076520899)
(5.0347104 -0.016844418 -0.044742843)
(5.00526 -0.012184349 -0.0028493372)
(4.9928284 0.011645333 -0.0057192534)
(5.0042365 0.042793001 -0.023334619)
(5.0038073 0.090663243 -0.030875264)
(5.0212444 0.099252404 -0.0024141495)
(5.0164003 0.07659795 -0.013430777)
(5.0251954 0.05499482 -0.0077885845)
(5.0241106 0.028457298 -0.01703511)
(5.0255483 0.014291294 -0.017548246)
(5.0256857 -0.0011525879 -0.017583342)
(5.0243877 -0.016454249 -0.016505581)
(5.0251865 -0.043741315 -0.0079785501)
(5.0173454 -0.066726109 -0.012947515)
(5.0215508 -0.091554312 -0.0022233615)
(5.0045283 -0.085076831 -0.030053261)
(5.0048075 -0.039843683 -0.022752459)
(4.9934216 -0.010718946 -0.0052847676)
(5.0059071 0.013121676 -0.0015752274)
(5.0100355 0.029439493 0.030153652)
(5.0299792 0.0099086399 0.032583632)
(5.0263928 0.025855096 0.014132467)
(5.0366651 0.020311138 0.0011317467)
(5.0345759 0.028086345 -0.018726499)
(5.0351304 0.027282847 -0.026703992)
(5.033526 0.028106656 -0.033329547)
(5.0325703 0.027743919 -0.036137011)
(5.0319779 0.027459556 -0.037949276)
(5.03176 0.027185624 -0.039546489)
(5.0316656 0.027067427 -0.041304652)
(5.0316196 0.02704119 -0.043092)
(5.0315842 0.027075691 -0.044770607)
(5.0315525 0.027139596 -0.046234431)
(5.0315231 0.027240198 -0.047400046)
(5.0315016 0.027345126 -0.048223133)
(5.0314894 0.02746219 -0.04870187)
(5.0314867 0.027588184 -0.048830092)
(5.0314895 0.027727962 -0.048594664)
(5.0314957 0.027885487 -0.04796321)
(5.0315007 0.028072888 -0.046873095)
(5.0315138 0.028311532 -0.045221194)
(5.031577 0.02863446 -0.04289155)
(5.0317702 0.029104943 -0.039782444)
(5.0323482 0.029591079 -0.036287973)
(5.033262 0.030184048 -0.03311248)
(5.0346015 0.029801928 -0.032412064)
(5.0339235 0.031157576 -0.031241132)
(5.0370419 0.022163173 -0.04397825)
(5.0278656 0.028919475 -0.052583345)
(5.029101 0.01239202 -0.064463831)
(5.0078865 0.032760769 -0.051916591)
(5.0050236 0.015848543 -0.010517829)
(4.991446 -0.0084609056 0.0011299135)
(5.0030401 -0.031776884 0.017595498)
(5.0030938 -0.069051977 0.024502457)
(5.019114 -0.069023777 -0.0017486875)
(5.0162463 -0.037276121 0.0078897065)
(5.0220529 -0.0071352741 0.0033617887)
(5.0200011 0.023087983 0.011988995)
(5.0208729 0.039617548 0.01274498)
(5.0199699 0.055377407 0.012647565)
(5.017218 0.068174847 0.0115865)
(5.0174619 0.091525355 0.0023011309)
(5.0066748 0.10679361 0.0080613549)
(5.0124708 0.12216546 -0.0030799381)
(4.9944677 0.10654629 0.026186715)
(4.9958874 0.052427812 0.018005806)
(4.9834495 0.015345743 0.0011059313)
(4.9973147 -0.0093005812 -0.010757042)
(4.9993465 -0.026291808 -0.053458428)
(5.0203405 -0.0057391787 -0.068478111)
(5.0183368 -0.022199899 -0.060064492)
(5.0272676 -0.015988163 -0.056914381)
(5.0253136 -0.024022719 -0.048118514)
(5.0267776 -0.023099872 -0.05005979)
(5.0256913 -0.023738278 -0.051216492)
(5.0252052 -0.023458252 -0.054804261)
(5.0250958 -0.023275292 -0.058479065)
(5.0253681 -0.023112375 -0.06148602)
(5.0257517 -0.02309876 -0.063466177)
(5.0261627 -0.023168681 -0.064571753)
(5.0265587 -0.023289289 -0.064971324)
(5.0269286 -0.02343511 -0.064817996)
(5.0272815 -0.023605186 -0.064231174)
(5.0276189 -0.023776445 -0.06328452)
(5.0279429 -0.02393012 -0.061990056)
(5.0282605 -0.024090515 -0.060356418)
(5.028566 -0.024245645 -0.05840774)
(5.0288575 -0.024422523 -0.05619824)
(5.0291316 -0.024601028 -0.053797723)
(5.0294024 -0.024824873 -0.051295093)
(5.0297084 -0.02512484 -0.04881779)
(5.0301263 -0.025563168 -0.046481638)
(5.030912 -0.025992135 -0.043881055)
(5.0320648 -0.026476203 -0.04017943)
(5.0338514 -0.025803576 -0.032573406)
(5.0333708 -0.026734954 -0.023695297)
(5.0355089 -0.019118204 -0.0031874375)
(5.0253206 -0.024660644 0.010383819)
(5.0289741 -0.0088320017 0.0294101)
(5.0093374 -0.028279387 0.027853633)
(5.0381369 -0.018768047 -0.043295817)
(5.0673182 -0.0056960345 -0.038830632)
(5.0680972 -0.0095760612 -0.043939746)
(5.0833704 -0.0093164841 -0.047084088)
(5.0827648 -0.012290436 -0.044168356)
(5.0841836 -0.012795953 -0.041521564)
(5.0816562 -0.01251839 -0.040306747)
(5.0794795 -0.012026441 -0.04184703)
(5.0776864 -0.011608127 -0.044704284)
(5.0764036 -0.01124786 -0.047971112)
(5.0753274 -0.010957758 -0.05114647)
(5.0743383 -0.010711192 -0.054058725)
(5.0733632 -0.010486397 -0.05665503)
(5.0723656 -0.010268231 -0.058935041)
(5.0713417 -0.010054295 -0.060901018)
(5.0702813 -0.0098293449 -0.062550844)
(5.0691871 -0.009597452 -0.063871814)
(5.0680402 -0.0093452931 -0.064848821)
(5.066839 -0.009087359 -0.065464231)
(5.0655813 -0.0088246351 -0.065680373)
(5.0642639 -0.0085766986 -0.065448828)
(5.0629112 -0.0083479044 -0.064707516)
(5.0616066 -0.0081647002 -0.063345796)
(5.060493 -0.0080573266 -0.061133403)
(5.0599247 -0.0080203414 -0.05753156)
(5.0598462 -0.0081145964 -0.051635133)
(5.0603208 -0.0085226327 -0.041620221)
(5.0568596 -0.0078512258 -0.029426339)
(5.0555974 -0.0023724654 -0.019180497)
(5.03749 -0.0035936358 -0.0093770349)
(5.0360082 -0.0027361222 0.0061516159)
(5.0086956 -0.013518425 0.024220045)
(5.0076596 -0.012313252 0.033813775)
(4.9930894 -0.0044970713 0.017225871)
(5.0218186 0.0051422996 0.0074402678)
(5.0045314 0.010679273 -0.003689791)
(4.956179 0.013393312 -0.0081439239)
(4.8886406 0.016979861 -0.011231308)
(4.8008597 0.02333587 -0.01483894)
(4.6832068 0.035249236 -0.021421777)
(4.5553574 0.037826749 -0.015055962)
(4.4464573 0.039849586 -0.0047280407)
(4.2961294 0.050717347 -0.015977193)
(4.0206009 0.11767491 -0.0057204986)
(3.4156127 -0.016856546 -0.05040287)
(1.4428216 1.318475 -0.33130918)
(1.9895572 1.6456728 -0.2604146)
(2.5022192 1.8471722 -0.26231402)
(3.0188633 2.4648199 -0.11806926)
(3.5370866 2.3056452 -0.19737498)
(3.8746661 2.2630213 -0.074980606)
(3.9389561 2.3027226 0.042791116)
(4.5019107 1.9447792 0.14781451)
(4.790231 1.978686 -0.051634676)
(4.9430245 1.7958475 -0.084351967)
(5.0404652 1.6660711 -0.10720704)
(5.140368 1.5972229 -0.05177449)
(5.241476 1.5072713 0.0011444867)
(5.3814516 1.3825097 0.010267324)
(5.4298549 1.3118825 -0.09269077)
(5.4020319 1.2023487 -0.013860333)
(5.4684404 1.1208019 -0.037841523)
(5.5122191 1.0652325 0.018269097)
(5.5677404 0.97736193 -0.0070004963)
(5.5441075 0.90726971 -0.048079883)
(5.5656165 0.8261155 0.030578449)
(5.8323164 0.81117812 0.0088063649)
(6.1952361 0.72915412 0.002973666)
(6.0777932 0.76734523 -0.10121367)
(5.972457 0.65281418 -0.032853318)
(5.911476 0.57240432 -0.061701613)
(5.8931228 0.5271213 -0.007957332)
(5.877491 0.55805728 -0.0023084767)
(5.8291046 0.50727186 0.02274219)
(5.8219643 0.4452339 0.025291944)
(5.8230608 0.40881913 0.021104049)
(5.8287614 0.36238134 0.022137268)
(5.8300471 0.32055449 0.020059192)
(5.8301335 0.28323924 0.017880952)
(5.830272 0.24651183 0.015287023)
(5.8264176 0.20465223 0.014717738)
(5.8254775 0.18333271 0.011376569)
(5.8224991 0.13197081 0.012309209)
(5.8184887 0.11853876 0.0094671693)
(5.8165982 0.07431803 0.010143815)
(5.8121087 0.058849784 0.0077326307)
(5.8117898 0.019620752 0.0082082994)
(5.8051815 0.008428699 0.0069849036)
(5.7996257 -0.029570455 0.0068414202)
(5.7942409 -0.040672115 0.0054300164)
(5.7865645 -0.075869866 0.0044950949)
(5.7827764 -0.088500266 0.0026958364)
(5.7751942 -0.11866481 0.002462974)
(5.7682008 -0.12799531 0.00054727448)
(5.758527 -0.16020027 0.00054258371)
(5.7515274 -0.16374471 -0.0013270709)
(5.7408998 -0.1989121 -0.0012658886)
(5.7294482 -0.19914256 -0.0028759381)
(5.7184017 -0.23095712 -0.0028217458)
(5.7044189 -0.23588015 -0.004711691)
(5.6926072 -0.25609639 -0.0049917688)
(5.673718 -0.27081633 -0.0094660782)
(5.649244 -0.28118738 -0.014574751)
(5.6187539 -0.29827403 -0.01391599)
(5.5861309 -0.30976327 -0.012539606)
(5.5715981 -0.30505259 0.0041742133)
(5.5979978 -0.33384354 0.02865332)
(5.6265222 -0.32832261 0.0095456766)
(5.7620419 -0.45518115 0.01873053)
(6.0850983 -0.45164444 0.038171599)
(6.0189859 -0.35761135 -0.030370816)
(5.8310141 -0.34547574 -0.027636451)
(5.7814903 -0.3877733 0.015310495)
(5.8104856 -0.46278979 0.025742503)
(5.8447853 -0.35785561 0.065485314)
(5.8620149 -0.52329314 0.089620047)
(6.1181221 -0.47998994 0.051011952)
(6.1010823 -0.4446182 -0.053859324)
(5.5143053 -0.48459297 -0.12734452)
(5.3576431 -0.5289036 -0.029016878)
(5.3609396 -0.34512446 0.03040518)
(5.1272593 -0.42981713 0.029735553)
(5.2585181 -0.50908819 0.066411311)
(5.3448992 -0.48675062 -0.0012935258)
(5.3449084 -0.49217553 0.0028995955)
(5.3538437 -0.50231628 -0.0059424629)
(5.3476669 -0.51348204 -0.0058214635)
(5.3338866 -0.51834859 -0.0086229831)
(5.3238641 -0.5212021 -0.011852996)
(5.3284396 -0.54703031 -0.013108594)
(5.3860312 -0.57876273 -2.5756605e-05)
(5.438425 -0.55246302 -0.0020746113)
(5.5971468 -0.56606394 0.074067881)
(5.6582987 -0.51597672 0.046048013)
(5.5202269 -0.53645109 -0.026728363)
(5.4535998 -0.43615537 0.066011038)
(5.4446576 -0.67506537 0.10449985)
(5.7393322 -0.60394479 0.042379911)
(5.6848966 -0.57111056 -0.036968808)
(5.1949887 -0.57091577 -0.105475)
(5.049812 -0.62331069 -0.02180644)
(5.0474573 -0.48352585 0.015888472)
(4.865503 -0.54675858 0.015206977)
(4.9900593 -0.60740279 0.058251768)
(5.072973 -0.60179777 -0.0064738024)
(5.0733075 -0.6088921 -0.0057057034)
(5.0811689 -0.61122417 -0.0063348897)
(5.0885148 -0.61496044 0.00143704)
(5.0967853 -0.62150269 0.007126572)
(5.088052 -0.61357547 -0.0091322004)
(5.1050319 -0.59489071 0.07321972)
(4.9793408 -0.52897888 0.032504106)
(5.154812 -0.87287471 -0.069950846)
(5.4692033 -0.74228986 -0.048802963)
(5.2881125 -0.52033702 0.055725918)
(5.0829435 -0.54097503 -0.055415031)
(5.1171367 -0.69892988 0.17508867)
(5.3647793 -0.6785249 0.035061986)
(5.3139424 -0.65344582 -0.015086305)
(4.9519415 -0.65504386 -0.11185943)
(4.7790575 -0.67663964 -0.026049012)
(4.7339748 -0.5254743 0.021399978)
(4.3866047 -0.54472137 0.044365041)
(4.2730549 -0.63175369 0.076192608)
(4.0369545 -0.75740561 0.12905972)
(4.3377737 -0.046650219 0.03332872)
(4.7263958 -0.059936842 0.06147617)
(4.8633073 -0.022296698 -0.021714962)
(4.7769732 0.0043294342 -0.037807517)
(4.7860454 -0.03491716 -0.0058348758)
(4.8630424 -0.031009175 0.0067914542)
(4.9330037 -0.017045277 0.0037160895)
(4.9677573 -0.0070467176 -2.0746553e-05)
(4.9780575 -0.0029547284 -0.0023045939)
(4.9766501 -0.00016930858 -0.0020121542)
(4.9731683 -8.4931403e-05 -0.00089418511)
(4.9716307 -0.00024639415 -0.00061530747)
(4.9717403 -0.00070138318 -0.00029359351)
(4.9734247 -0.00085496276 -6.5512898e-05)
(4.9757615 -0.00073517538 0.00016199776)
(4.9782097 -0.00062512921 0.00025835944)
(4.9805226 -0.00052655169 0.00027830203)
(4.9826039 -0.00043434331 0.00028353659)
(4.9844464 -0.00035450165 0.00027828065)
(4.9860623 -0.00028757843 0.00026647116)
(4.9874723 -0.00023241883 0.00025077696)
(4.9886982 -0.0001871711 0.00023296244)
(4.9897604 -0.00014965569 0.00021402188)
(4.9906756 -0.00011851129 0.00019405941)
(4.991456 -9.2019866e-05 0.00017284489)
(4.9921085 -6.870343e-05 0.00014987009)
(4.9926349 -4.7877357e-05 0.00012403916)
(4.9930202 -1.9865013e-05 9.4832995e-05)
(4.9932433 6.7608731e-06 5.9010369e-05)
(4.9932707 3.6477941e-05 6.512886e-06)
(4.9930292 8.9894258e-05 -5.6488968e-05)
(4.9923994 0.00016512822 -0.00015125666)
(4.9912428 0.00026271437 -0.0002724008)
(4.9892245 0.00045812194 -0.00049360264)
(4.985822 0.00074386843 -0.00081064098)
(4.9805064 0.0011478512 -0.0012082958)
(4.9735122 0.00133314 -0.0014384717)
(4.9664517 0.0011282408 -0.0012473528)
(4.9641673 -0.00049857664 0.00020078152)
(4.9698041 -0.0018894113 0.0014119795)
(4.9921574 -0.0064369321 0.0056418188)
(5.0266743 -0.0070405254 0.0055197273)
(5.0596185 -0.0071371788 0.0041780175)
(5.0642245 0.0018552552 -0.0072574158)
(5.018298 0.012451494 -0.016394316)
(4.9968656 -0.0085379969 0.0032201649)
(4.9726127 0.022147265 0.0094880919)
(4.987619 0.047153387 0.052864666)
(4.9820533 0.021361397 0.068458049)
(4.9896639 0.040227511 0.056145893)
(4.9742817 0.031100714 0.045418655)
(4.9716019 0.040221748 0.018804615)
(4.9671612 0.038869612 0.0086386731)
(4.9683194 0.039662424 0.00019428195)
(4.971117 0.039180078 -0.0017332863)
(4.9735901 0.038905035 -0.00155985)
(4.9753478 0.03864968 -0.00073791233)
(4.9765393 0.038509789 -0.00016408005)
(4.9773526 0.038440911 0.00012683461)
(4.9779378 0.038405412 0.00019716929)
(4.9783875 0.038405936 0.00016652552)
(4.9787333 0.038407863 0.00012895481)
(4.9789998 0.038410586 9.625131e-05)
(4.9791928 0.038410249 6.3394283e-05)
(4.9793091 0.038417566 2.9644633e-05)
(4.9793415 0.038403468 -9.0077178e-06)
(4.9792555 0.038422173 -2.3308843e-05)
(4.9790124 0.038454852 6.2747161e-05)
(4.9785245 0.038527833 0.00034718363)
(4.9776407 0.038670769 0.00091931708)
(4.9761954 0.038930092 0.0017494688)
(4.9740491 0.039204349 0.0019362461)
(4.971625 0.039682916 -1.3351812e-05)
(4.9708366 0.038893173 -0.0085204323)
(4.9754502 0.0402495 -0.018750959)
(4.9783073 0.031132986 -0.045398507)
(4.9938468 0.04026044 -0.056138072)
(4.9863557 0.021375256 -0.068470218)
(4.9920317 0.047187533 -0.052874327)
(4.9770568 0.022162294 -0.0094765043)
(5.0013574 -0.008549539 -0.0032132552)
(4.9910592 -0.020864862 0.018511448)
(5.020259 -0.062187535 0.033787307)
(5.0302008 -0.075640132 0.00051271663)
(5.0475288 -0.062028129 0.01442262)
(5.039953 -0.052120185 0.0059252351)
(5.0387382 -0.025348386 0.015523166)
(5.0345642 -0.0098639258 0.015821592)
(5.0345614 0.0098209336 0.015811955)
(5.0387418 0.02532305 0.01552054)
(5.0399657 0.052109432 0.0059244669)
(5.0475518 0.062026826 0.014421691)
(5.0302303 0.075642655 0.00051226589)
(5.0202927 0.062187875 0.033786805)
(4.9910961 0.020863346 0.01850966)
(5.0013996 0.0085487933 -0.0032180178)
(4.9771072 -0.02216277 -0.0094904577)
(4.9920813 -0.047187859 -0.052894447)
(4.9863989 -0.021375306 -0.068489019)
(4.9938845 -0.040259916 -0.056149447)
(4.9783435 -0.031132243 -0.045398179)
(4.9754877 -0.040249089 -0.018739461)
(4.970877 -0.038895407 -0.0085098445)
(4.9716625 -0.039681218 2.4971946e-06)
(4.9740932 -0.039205122 0.0019634954)
(4.9762393 -0.038932647 0.0017736237)
(4.9776861 -0.038672442 0.00093711103)
(4.9785704 -0.038528963 0.0003600458)
(4.9790585 -0.038455888 7.1851416e-05)
(4.9793001 -0.03842357 -1.4207736e-05)
(4.9793822 -0.038411544 -2.597692e-06)
(4.9793651 -0.038412619 3.2578892e-05)
(4.9792433 -0.038407385 6.7195926e-05)
(4.9790472 -0.038415879 9.75752e-05)
(4.9787838 -0.038409858 0.00012790686)
(4.9784363 -0.038404541 0.00016711241)
(4.9779864 -0.038408861 0.00019905235)
(4.977403 -0.038442621 0.00012789709)
(4.9765905 -0.038511624 -0.00016592347)
(4.9753996 -0.038651907 -0.00074555017)
(4.9736423 -0.038907895 -0.0015763147)
(4.9711696 -0.039181323 -0.0017563269)
(4.9683681 -0.039661277 0.00017951998)
(4.9672129 -0.038871916 0.0086278822)
(4.971651 -0.040221724 0.018792336)
(4.9743301 -0.031100041 0.045416836)
(4.9897162 -0.040226929 0.056154948)
(4.9821154 -0.021360629 0.068474551)
(4.9876928 -0.047153271 0.052882687)
(4.9726864 -0.022147041 0.0094996693)
(4.9969187 0.0085377657 0.0032236086)
(4.9866142 0.02083804 -0.018485111)
(5.0157803 0.06211395 -0.033743808)
(5.0257194 0.075545166 -0.00050260228)
(5.0430313 0.06194421 -0.01439962)
(5.0354509 0.052044048 -0.0059102449)
(5.0342251 0.02529007 -0.015498683)
(5.0300466 0.0098076749 -0.015789908)
(5.0300451 -0.0098529371 -0.015801079)
(5.0342163 -0.025316134 -0.015501489)
(5.0354337 -0.052054443 -0.0059107328)
(5.0430043 -0.061942289 -0.014399324)
(5.0256883 -0.075538466 -0.00049970831)
(5.0157489 -0.062112253 -0.03374075)
(4.9865782 -0.020839336 -0.018484631)
(4.9926021 0.051636434 -0.036995751)
(5.0191948 0.051399336 -0.058116845)
(5.0281204 0.023774288 -0.0097797781)
(5.0359506 -0.0050330765 -0.02359851)
(5.0318469 -0.015848829 -0.013620959)
(5.027036 -0.014757413 -0.02819484)
(5.0229375 -0.0054443775 -0.029858806)
(5.022946 0.0054331869 -0.029839738)
(5.0270503 0.014732411 -0.028190994)
(5.0318686 0.01583157 -0.013620501)
(5.0359798 0.0050245247 -0.023598328)
(5.0281558 -0.023777419 -0.0097836187)
(5.019237 -0.051399001 -0.058121406)
(4.9926531 -0.051635062 -0.036996163)
(5.0061919 -0.099237598 -0.021730986)
(5.0285198 -0.096972491 -0.032231267)
(5.0360092 -0.064470765 -0.0087075571)
(5.0359355 -0.023930377 -0.0061163814)
(5.0315635 0.001431704 -0.0034618118)
(5.02558 0.0084665675 -0.0098890762)
(5.0214778 0.0038524356 -0.012201008)
(5.0214657 -0.0038374634 -0.012204759)
(5.0255638 -0.0084859792 -0.0098898768)
(5.0315396 -0.0014443636 -0.0034621906)
(5.0359031 0.023924893 -0.0061169972)
(5.0359699 0.064467053 -0.0087068288)
(5.0284742 0.096971439 -0.032229793)
(5.0061381 0.099238248 -0.021733276)
(4.9986729 0.06661596 0.013306356)
(5.0221137 0.08627633 0.0089619774)
(5.0307259 0.061549726 0.023204482)
(5.0311187 0.023917982 0.030226204)
(5.0272894 -0.00067695068 0.032471368)
(5.0197344 -0.0075709919 0.030049721)
(5.0147077 -0.0036927448 0.028481975)
(5.0147152 0.003676232 0.028470009)
(5.0197497 0.0075485591 0.030050266)
(5.0273146 0.00066547346 0.03247341)
(5.0311522 -0.023922619 0.030226709)
(5.0307664 -0.061552752 0.023204906)
(5.0221596 -0.086277341 0.0089624446)
(4.9987244 -0.066614882 0.013310587)
(4.9932852 -0.090297773 0.039243826)
(5.0104447 -0.090862913 0.04007951)
(5.0185662 -0.059887063 0.052712594)
(5.0185271 -0.021794568 0.060872139)
(5.0141103 0.0026380206 0.062999818)
(5.0056028 0.0090382408 0.061666913)
(5.0005507 0.0042069498 0.060693656)
(5.0005467 -0.0042395685 0.060701257)
(5.0055883 -0.0090541509 0.061664246)
(5.0140839 -0.0026456513 0.06299683)
(5.018493 0.021790695 0.060871271)
(5.0185254 0.059884538 0.05271212)
(5.0103991 0.090861866 0.040078736)
(4.9932362 0.090298321 0.039240849)
(4.9798073 0.078974668 0.042473844)
(4.9974885 0.087806001 0.048451198)
(5.004589 0.058615336 0.058211724)
(5.0033689 0.020124458 0.064063759)
(4.9983112 -0.0041282942 0.065609737)
(4.9893113 -0.0099498845 0.064975182)
(4.9843149 -0.0045516576 0.064369349)
(4.9843186 0.0045403193 0.064372771)
(4.9893261 0.0099455493 0.064978407)
(4.9983383 0.0041258955 0.065611813)
(5.0034035 -0.020126453 0.064064389)
(5.0046302 -0.058617404 0.058211843)
(4.997534 -0.087807109 0.048451098)
(4.9798552 -0.078974146 0.042473388)
(4.9747102 -0.092238713 0.03277639)
(4.9905124 -0.092792371 0.040905077)
(4.996914 -0.059225365 0.047128532)
(4.9952499 -0.019632347 0.050548382)
(4.9898422 0.0045858698 0.051419145)
(4.9805648 0.010183613 0.051027423)
(4.9755984 0.0046283939 0.050617431)
(4.9755931 -0.0046224522 0.050611562)
(4.9805494 -0.010180672 0.051025373)
(4.9898142 -0.0045855645 0.051418308)
(4.9952148 0.019631213 0.050548478)
(4.9968724 0.059223301 0.047129037)
(4.9904665 0.092790731 0.040906505)
(4.974662 0.092238203 0.032780688)
(4.97144 0.090753953 0.018511867)
(4.9877475 0.092382386 0.026036284)
(4.9942971 0.058679342 0.030049388)
(4.9926671 0.019074362 0.031723019)
(4.9872201 -0.0048255989 0.031994088)
(4.9779261 -0.010198541 0.031659585)
(4.9730103 -0.0046023937 0.031353506)
(4.9730175 0.0046209595 0.031356522)
(4.9779421 0.010205465 0.031660111)
(4.9872486 0.0048269438 0.031993806)
(4.9927027 -0.019075372 0.031722273)
(4.994339 -0.058681674 0.030048261)
(4.9877939 -0.092385134 0.026033424)
(4.9714891 -0.090757678 0.018503265)
(4.9727011 -0.091711883 0.007947478)
(4.9890023 -0.092188142 0.013533685)
(4.9957911 -0.057814941 0.015758853)
(4.9944837 -0.018345837 0.016387854)
(4.989294 0.0051959345 0.016305618)
(4.9802828 0.010327069 0.016010127)
(4.9755009 0.0046383801 0.015787117)
(4.9754928 -0.0046203657 0.015787079)
(4.9802662 -0.01031968 0.016010712)
(4.9892648 -0.005194545 0.016306601)
(4.9944478 0.018344702 0.016388956)
(4.9957488 0.057812286 0.015760267)
(4.9889554 0.092185497 0.013537058)
(4.9726518 0.091711897 0.007957739)
(4.9757038 0.09082154 0.002870111)
(4.9923714 0.091375994 0.0058686753)
(4.9995502 0.057084669 0.0071308139)
(4.9985964 0.017855203 0.0073616951)
(4.9936612 -0.0054209413 0.0072108822)
(4.9849103 -0.010381126 0.0070097762)
(4.9802286 -0.0046225164 0.0068725487)
(4.9802368 0.0046404363 0.0068722543)
(4.984927 0.010388248 0.0070087782)
(4.9936904 0.0054219036 0.0072095555)
(4.9986324 -0.017856932 0.0073605575)
(4.9995928 -0.057088245 0.0071296678)
(4.9924191 -0.091381003 0.0058658485)
(4.9757551 -0.090825718 0.0028647121)
(4.9784994 -0.090143957 0.0011869093)
(4.9955932 -0.090710133 0.0022417917)
(5.0031108 -0.056656362 0.0028834851)
(5.0024149 -0.017626807 0.003005681)
(4.997645 0.0055124003 0.0029069661)
(4.9890489 0.01040977 0.0028184168)
(4.9844153 0.0046383226 0.0027681777)
(4.984407 -0.004621252 0.0027683975)
(4.9890318 -0.010403307 0.0028190599)
(4.9976159 -0.0055119286 0.0029087182)
(5.0023791 0.017624561 0.0030066409)
(5.0030684 0.056652521 0.0028838275)
(4.9955458 0.090705872 0.0022432887)
(4.978449 0.090138984 0.0011892647)
(4.9804082 0.089548169 0.00058676835)
(4.9978525 0.090184306 0.00093419784)
(5.0056407 0.056392914 0.0011772858)
(5.0051248 0.017530745 0.0012595319)
(5.000465 -0.0055229615 0.0012352414)
(4.9919613 -0.010376614 0.0012225997)
(4.987349 -0.0046033293 0.0012210984)
(4.9873573 0.0046190905 0.0012209824)
(4.9919785 0.010381521 0.0012223397)
(5.0004943 0.0055224322 0.0012338929)
(5.0051605 -0.017533164 0.0012588672)
(5.0056825 -0.056396914 0.0011772307)
(4.9978991 -0.090189228 0.00093379728)
(4.9804581 -0.089553004 0.00058475336)
(4.9817255 -0.089307135 0.00029054792)
(4.9993296 -0.089996832 0.00053028457)
(5.0072742 -0.056280806 0.00060678753)
(5.0068453 -0.017510015 0.00065124964)
(5.0022144 0.0055044909 0.00066539578)
(4.9937211 0.010361908 0.0006718913)
(4.9891014 0.0046098922 0.00067345417)
(4.9890935 -0.0045968325 0.00067372722)
(4.9937043 -0.010359067 0.00067239047)
(5.002186 -0.0055063381 0.00066603505)
(5.0068105 0.017506635 0.00065171738)
(5.007233 0.056276243 0.0006072195)
(4.9992834 0.089992013 0.00052985755)
(4.9816761 0.089302994 0.00029052033)
(4.9825172 0.089189875 0.00021593931)
(5.0001782 0.089914307 0.00032227773)
(5.0081953 0.056229776 0.00037320759)
(5.0078254 0.017489926 0.00039555396)
(5.0032312 -0.0055096 0.00040755428)
(4.9947719 -0.010359091 0.00041454379)
(4.9901656 -0.0045977651 0.00041640777)
(4.990173 0.0046055713 0.00041594196)
(4.9947883 0.010358187 0.00041386614)
(5.0032589 0.0055058193 0.0004069881)
(5.0078596 -0.017493889 0.00039549285)
(5.0082357 -0.056234409 0.00037197719)
(5.0002235 -0.089919387 0.00032313962)
(4.9825657 -0.089194031 0.00021637184)
(4.9831654 -0.089129861 0.00019650227)
(5.0008517 -0.089880809 0.0002246168)
(5.0088908 -0.056223378 0.00025662932)
(5.0085435 -0.017488526 0.00026810804)
(5.0039605 0.0055099967 0.00027494316)
(4.9955055 0.010359045 0.00027929823)
(4.990894 0.0046032769 0.0002804294)
(4.9908871 -0.0046012244 0.00028182291)
(4.9954897 -0.010364327 0.0002801226)
(5.0039336 -0.0055162649 0.00027547497)
(5.0085094 0.017480549 0.00026870212)
(5.008852 0.056218438 0.00025627467)
(5.0008064 0.089881641 0.00022262171)
(4.983116 0.089127382 0.00019967176)
(4.9835683 0.089118849 0.00017229972)
(5.0012695 0.089862887 0.0001779439)
(5.0093299 0.056206904 0.00018725634)
(5.0090037 0.017475963 0.00019392815)
(5.0044381 -0.0055226444 0.00019778522)
(4.9960037 -0.010370722 0.00020047339)
(4.9914042 -0.0046086036 0.00020179183)
(4.9914094 0.0045989016 0.0002007923)
(4.9960188 0.010361843 0.00020013656)
(5.0044645 0.005515807 0.00019754897)
(5.0090368 -0.01747917 0.00019353533)
(5.0093716 -0.056213106 0.00018759582)
(5.0013142 -0.089874247 0.00017970249)
(4.983615 -0.089123373 0.00016986518)
(4.983966 -0.089128107 0.00013394698)
(5.0016715 -0.08986983 0.00013768963)
(5.0097339 -0.056207558 0.0001392219)
(5.009406 -0.017475589 0.00014333862)
(5.0048391 0.0055188962 0.0001456441)
(4.9963989 0.010363718 0.0001470176)
(4.9917913 0.0046005543 0.00014765438)
(4.991786 -0.0046069032 0.00014656062)
(4.9963838 -0.01037086 0.00014639816)
(5.0048128 -0.0055248522 0.00014519241)
(5.0093726 0.01747064 0.00014288791)
(5.0096937 0.056202623 0.00014074621)
(5.0016271 0.089865589 0.00013773139)
(4.9839199 0.089124101 0.00013274237)
(4.9841859 0.089133296 9.9634476e-05)
(5.0018981 0.089874498 9.9583066e-05)
(5.0099671 0.056202214 9.5081918e-05)
(5.0096479 0.017466327 0.00010402973)
(5.0050907 -0.0055264384 0.0001041975)
(4.996664 -0.010369806 0.00010446478)
(4.9920664 -0.0045991543 0.00010432397)
(4.9920731 0.0046108693 0.00010423467)
(4.9966797 0.010370687 0.00010474611)
(5.0051178 0.0055236006 0.00010504744)
(5.0096816 -0.017469006 0.00010508722)
(5.0100066 -0.056199042 9.8101468e-05)
(5.0019414 -0.089874245 8.3625889e-05)
(4.984234 -0.089142703 9.9375328e-05)
(4.9844303 -0.089128555 7.6835408e-05)
(5.002139 -0.089880147 4.7046009e-05)
(5.0102034 -0.056216493 6.0682153e-05)
(5.0098779 -0.017476657 7.2151909e-05)
(5.0053128 0.0055230057 6.6717918e-05)
(4.9968736 0.010372193 6.515372e-05)
(4.9922662 0.004608019 6.4255147e-05)
(4.9922609 -0.004603233 6.5422109e-05)
(4.9968585 -0.01036994 6.577646e-05)
(5.0052851 -0.0055255767 6.6765402e-05)
(5.0098427 0.017470479 6.8041097e-05)
(5.0101604 0.056207174 4.8211969e-05)
(5.0020906 0.089875336 6.2303517e-05)
(4.9843803 0.089132237 7.3093855e-05)
(4.9844939 0.089140042 3.1413681e-05)
(5.0022033 0.089870441 1.2205721e-05)
(5.0102734 0.056202364 1.0660531e-05)
(5.0099543 0.017471994 3.2773738e-05)
(5.0053945 -0.0055235098 3.009656e-05)
(4.9969649 -0.010365855 2.7047935e-05)
(4.9923659 -0.00459788 2.2177598e-05)
(4.9923712 0.0046102182 2.0506172e-05)
(4.996979 0.01037083 2.2417211e-05)
(5.0054214 0.005521956 2.7771239e-05)
(5.0099887 -0.017475812 4.0476926e-05)
(5.0103145 -0.056214443 2.3832312e-05)
(5.0022517 -0.089883498 3.2783842e-05)
(4.9845465 -0.089138372 6.2693634e-05)
(4.9845673 -0.08913018 3.7854588e-05)
(5.0022743 -0.089880927 2.6054966e-05)
(5.0103312 -0.056230779 -6.6716852e-06)
(5.0099949 -0.01748877 -1.6848486e-05)
(5.0054231 0.0055225313 -2.862238e-05)
(4.9969781 0.010374627 -3.5272124e-05)
(4.9923697 0.0046156764 -3.7591046e-05)
(4.9923613 -0.0045956217 -3.504202e-05)
(4.9969613 -0.010364907 -3.0331606e-05)
(5.005396 -0.0055162032 -2.6765852e-05)
(5.0099634 0.017492803 -1.9700937e-05)
(5.0102954 0.056235022 -1.0682137e-05)
(5.0022359 0.089883428 2.8353499e-06)
(4.9845278 0.089121274 5.7380619e-06)
(4.9844346 0.089160269 3.6986166e-06)
(5.0021283 0.089906857 -3.8201414e-06)
(5.0101751 0.056232138 -6.6229746e-05)
(5.0098348 0.017485067 -0.00010779614)
(5.0052606 -0.0055164617 -0.00011712675)
(4.9968177 -0.010361778 -0.00012132574)
(4.9922146 -0.0045944896 -0.0001226125)
(4.9922226 0.00461351 -0.0001235923)
(4.9968332 0.010371065 -0.00012211498)
(5.0052873 0.0055193937 -0.00011728679)
(5.0098675 -0.017484058 -0.00010962892)
(5.0102124 -0.056232179 -6.9362583e-05)
(5.002169 -0.089908857 -2.0420067e-06)
(4.9844775 -0.089163073 1.0016604e-05)
(4.9842228 -0.089225 -1.5228992e-05)
(5.0018858 -0.089950488 -0.0001216304)
(5.0099017 -0.056249287 -0.0002134319)
(5.0095325 -0.017492096 -0.00024832504)
(5.004936 0.0055148777 -0.00025958978)
(4.9964685 0.010369259 -0.00026564179)
(4.9918546 0.0046140817 -0.00026748855)
(4.9918467 -0.0045941568 -0.00026744141)
(4.9964534 -0.010360723 -0.00026546078)
(5.0049098 -0.0055128916 -0.0002592951)
(5.0095003 0.017490996 -0.00024801918)
(5.0098636 0.056247193 -0.00021010837)
(5.0018439 0.08994855 -0.00011899702)
(4.9841782 0.089222814 -1.7816708e-05)
(4.9836595 0.089347783 -0.00010139984)
(5.001264 0.09003106 -0.00036340988)
(5.0092175 0.056292736 -0.00046932391)
(5.0088043 0.017508226 -0.00051549577)
(5.0041893 -0.0055134354 -0.00053069245)
(4.9957148 -0.01036517 -0.00053514272)
(4.9911042 -0.0045967548 -0.00053664957)
(4.991112 0.0046163627 -0.00053674539)
(4.9957296 0.010373648 -0.00053535471)
(5.0042149 0.0055154292 -0.00053101341)
(5.0088357 -0.017509109 -0.00051586413)
(5.0092546 -0.056295361 -0.00046994527)
(5.0013056 -0.090034165 -0.00036481706)
(4.9837037 -0.089350435 -9.693991e-05)
(4.982736 -0.089597935 -0.00039431751)
(5.0001842 -0.090234493 -0.00079522753)
(5.0079764 -0.056424342 -0.0010661336)
(5.0074583 -0.017537906 -0.001148509)
(5.0027912 0.0055336149 -0.0011258077)
(4.9942782 0.010395036 -0.0010887755)
(4.9896583 0.0046241949 -0.0010888661)
(4.9896507 -0.0046052271 -0.0010887373)
(4.9942637 -0.010387013 -0.001088469)
(5.002766 -0.0055318426 -0.0011250041)
(5.0074273 0.017536886 -0.0011477241)
(5.0079399 0.05642159 -0.0010657968)
(5.0001433 0.090230964 -0.00079483389)
(4.9826921 0.089594366 -0.00040084857)
(4.9810563 0.09018875 -0.0010242099)
(4.9981733 0.090743651 -0.0021304641)
(5.005713 0.056672641 -0.0027962705)
(5.0050266 0.017632614 -0.0029170696)
(5.0002592 -0.0055088605 -0.002818746)
(4.9916633 -0.010402646 -0.0027046734)
(4.9870342 -0.0046226818 -0.0026556329)
(4.9870417 0.0046403772 -0.0026558944)
(4.9916776 0.010409627 -0.0027052683)
(5.0002839 0.0055099884 -0.002819974)
(5.0050568 -0.017633867 -0.002918254)
(5.0057486 -0.056675521 -0.0027965695)
(4.998213 -0.090746564 -0.0021291906)
(4.9810981 -0.090192475 -0.0010199495)
(4.9786954 -0.090871924 -0.0027494201)
(4.9953825 -0.091423397 -0.0057815886)
(5.002567 -0.057117094 -0.0070473752)
(5.0016096 -0.017865859 -0.007278647)
(4.9966662 0.0054248081 -0.0071273667)
(4.9878984 0.010393294 -0.006924254)
(4.983206 0.0046420987 -0.0067868915)
(4.9831988 -0.0046261784 -0.0067864931)
(4.9878842 -0.010387573 -0.0069234391)
(4.9966422 -0.0054244514 -0.007126179)
(5.0015802 0.017864115 -0.0072774609)
(5.0025323 0.057113945 -0.0070469983)