/*--------------------------------*- C++ -*----------------------------------*\
| =========                 |                                                 |
| \\      /  F ield         | OpenFOAM: The Open Source CFD Toolbox           |
|  \\    /   O peration     | Version:  v2012                                 |
|   \\  /    A nd           | Website:  www.openfoam.com                      |
|    \\/     M anipulation  |                                                 |
\*---------------------------------------------------------------------------*/
FoamFile
{
    version     2.0;
    format      ascii;
    class       volScalarField;
    location    "400";
    object      k;
}
// * * * * * * * * * * * * * * * * * * * * * * * * * * * * * * * * * * * * * //

dimensions      [0 2 -2 0 0 0 0];


internalField   nonuniform List<scalar> 
229778
(
0.22468437
0.21950195
0.21475922
0.21039229
0.20637103
0.20265278
0.19920267
0.19598999
0.19298849
0.19017558
0.18753171
0.18504022
0.18268597
0.18045623
0.17833919
0.17632496
0.17440448
0.17256966
0.17081328
0.16912883
0.16751016
0.16595201
0.16444996
0.1629997
0.16159704
0.16023875
0.1589213
0.15764202
0.15639785
0.15518627
0.15400492
0.15285192
0.15172504
0.15062286
0.14954344
0.14848553
0.14744738
0.14642795
0.14542556
0.14443861
0.21772475
0.21953934
0.22133078
0.22310939
0.22487072
0.22662585
0.22836447
0.2300851
0.23177892
0.23345227
0.23511149
0.23674015
0.23834117
0.23991724
0.24146349
0.24298893
0.24448825
0.24594865
0.24737296
0.24876281
0.25012259
0.25145753
0.25276195
0.25402967
0.25526369
0.25646578
0.25763445
0.25877502
0.25988538
0.2609656
0.2620157
0.26303703
0.264033
0.26500498
0.26595197
0.26687762
0.26778333
0.26867021
0.26953827
0.27038922
0.27122498
0.27204688
0.27285601
0.27365371
0.27444115
0.27521986
0.27599089
0.27675556
0.27751511
0.27827064
0.27902319
0.27977388
0.28052376
0.28127367
0.28202453
0.28277729
0.2835327
0.28429149
0.28505432
0.28582184
0.28659459
0.28737308
0.28815776
0.28894901
0.28974721
0.29055262
0.27812896
0.27734263
0.27654616
0.27573848
0.27491868
0.27408555
0.27323811
0.27237496
0.27149509
0.27059699
0.26967963
0.26874136
0.26778122
0.2667975
0.26578934
0.26475503
0.26369391
0.26260433
0.26148591
0.26033709
0.25915783
0.25794672
0.25670414
0.25542884
0.2541216
0.25278139
0.25140941
0.2500048
0.24856919
0.24710192
0.24560501
0.24407789
0.24252294
0.24093968
0.23933074
0.23769573
0.23603743
0.23435545
0.23265272
0.23092894
0.22918749
0.22742821
0.22565455
0.22386631
0.22206699
0.22025623
0.21843733
0.21660938
0.21477329
0.2129205
0.21283005
0.21468717
0.21652597
0.21835619
0.22017833
0.22199153
0.22379434
0.22558546
0.22736311
0.22912578
0.23087175
0.23259949
0.23430704
0.23599294
0.23765585
0.23929464
0.24090798
0.24249486
0.24405406
0.24558472
0.24708575
0.2485565
0.24999613
0.25140419
0.25278008
0.25412363
0.25543459
0.25671311
0.25795925
0.25917342
0.26035601
0.26150772
0.26262922
0.26372148
0.26478541
0.26582216
0.26683285
0.26781875
0.26878112
0.26972132
0.27064062
0.27154041
0.27242196
0.27328657
0.27413544
0.27496979
0.27579075
0.27659941
0.27739679
0.27818426
0.27832161
0.27753544
0.27673917
0.27593176
0.27511221
0.27427945
0.27343238
0.27256984
0.27169063
0.27079348
0.26987707
0.26894005
0.26798109
0.26699887
0.2659921
0.26495953
0.2639
0.26281239
0.26169573
0.26054906
0.25937164
0.2581628
0.25692205
0.25564903
0.25434356
0.25300554
0.25163507
0.2502324
0.24879803
0.24733252
0.24583643
0.24431052
0.24275571
0.24117297
0.23956317
0.23792751
0.23626711
0.2345837
0.23287787
0.23115219
0.22940856
0.2276486
0.22587333
0.22408472
0.22228424
0.22047334
0.21865289
0.21682411
0.2149863
0.21313288
0.21358691
0.21544346
0.21728153
0.21910968
0.22092926
0.22273806
0.22453656
0.22632129
0.22809373
0.22984903
0.23158749
0.23330776
0.23500893
0.23668859
0.23834692
0.23997953
0.24158606
0.24316358
0.2447128
0.24623272
0.24772239
0.24918094
0.25060813
0.25200348
0.25336649
0.25469689
0.25599467
0.25725995
0.258493
0.2596942
0.26086413
0.26200347
0.26311302
0.26419374
0.26524672
0.26627307
0.26727397
0.26825066
0.26920446
0.27013666
0.27104862
0.27194169
0.27281717
0.27367637
0.27452058
0.27535089
0.27616827
0.27697376
0.27776831
0.27855309
0.27966562
0.27889181
0.27810908
0.27731653
0.27651327
0.27569851
0.27487125
0.2740308
0.27317575
0.2723048
0.27141666
0.27051004
0.26958362
0.26863606
0.26766605
0.26667227
0.2656535
0.26460855
0.26353623
0.26243532
0.26130485
0.26014399
0.25895202
0.25772825
0.25647232
0.2551838
0.25386263
0.25250869
0.25112233
0.24970395
0.24825403
0.24677132
0.24525902
0.2437176
0.2421473
0.24054488
0.23891568
0.23726272
0.23559212
0.23389814
0.23218456
0.23045235
0.22870247
0.22693279
0.22515152
0.22335429
0.22154914
0.21972942
0.21790104
0.21606295
0.21421097
0.21480739
0.2166569
0.21848731
0.2203071
0.22212337
0.22393136
0.22573019
0.22751812
0.2292882
0.23103721
0.23276874
0.23448359
0.23617907
0.23784932
0.23949705
0.24112151
0.2427193
0.24428511
0.24582202
0.24733008
0.24880888
0.25025582
0.25167095
0.25305346
0.25440369
0.25572003
0.25700432
0.25825542
0.25947479
0.26066172
0.26181767
0.26294328
0.26403942
0.26510678
0.26614695
0.26716114
0.26815057
0.26911646
0.27006019
0.27098306
0.27188643
0.27277162
0.27363993
0.27449262
0.27533094
0.27615602
0.27696908
0.27777072
0.27856173
0.27934298
0.28011564
0.28068545
0.27991389
0.27913352
0.27834343
0.27754309
0.27673137
0.27590789
0.27507126
0.27422042
0.27335404
0.27247106
0.27156999
0.27064976
0.26970879
0.26874601
0.26775971
0.26674878
0.26571198
0.26464819
0.26355558
0.26243343
0.26128184
0.26009871
0.25888286
0.25763419
0.25635264
0.25504055
0.25369242
0.25231086
0.25089707
0.24945212
0.24797956
0.24647778
0.2449421
0.24337563
0.24178157
0.24016128
0.23851357
0.23684278
0.23514835
0.23343451
0.23169983
0.22994824
0.22817905
0.22640014
0.22460479
0.22280323
0.22099167
0.21917232
0.21733914
0.21549148
0.21794364
0.2197836
0.22160409
0.22342031
0.22522922
0.22702963
0.22881602
0.23059037
0.23234697
0.23408803
0.23580755
0.23750506
0.23917875
0.24083233
0.24245341
0.24404564
0.2456145
0.24715013
0.24865337
0.25013054
0.25157701
0.25299283
0.25437508
0.25572475
0.25703977
0.25832431
0.25957252
0.26078737
0.26196975
0.26312117
0.26424454
0.26533787
0.26640187
0.26743911
0.26845021
0.26943691
0.27039997
0.27134138
0.27226192
0.27316339
0.27404664
0.27491334
0.27576435
0.27660103
0.27742459
0.27823662
0.27903733
0.27982748
0.28060769
0.28137925
0.2822073
0.2814355
0.28065466
0.27986401
0.27906275
0.27825006
0.27742588
0.27658808
0.27573581
0.27486776
0.27398309
0.27308013
0.27215805
0.27121507
0.27025038
0.26926204
0.26824943
0.26721037
0.26614454
0.26505043
0.26392935
0.26277744
0.26159593
0.2603802
0.25913289
0.2578498
0.25653529
0.2551851
0.2538038
0.25238712
0.25094083
0.24946059
0.24795074
0.24640932
0.24483966
0.2432416
0.24162059
0.23996912
0.2382962
0.23659581
0.23487123
0.23312565
0.23136318
0.22958397
0.2277964
0.22599395
0.22418584
0.22236693
0.22053886
0.21869385
0.21941199
0.22126979
0.2231101
0.22493956
0.22675369
0.2285597
0.23035884
0.23214651
0.23391712
0.23566895
0.2373996
0.23910486
0.24078584
0.24244452
0.24407596
0.2456839
0.24726344
0.24880816
0.25032024
0.25180465
0.25325729
0.25467811
0.2560649
0.25741878
0.25873826
0.26002546
0.26127937
0.26249957
0.26368535
0.26484013
0.26596464
0.26706198
0.26813148
0.26917495
0.27019174
0.27118424
0.27215319
0.27310004
0.27402599
0.27493245
0.27582057
0.27669168
0.27754698
0.27838728
0.27921391
0.28002899
0.2808322
0.28162451
0.282407
0.2831804
0.28431401
0.28353856
0.2827536
0.28195838
0.28115216
0.28033412
0.27950425
0.27866041
0.27780155
0.27692667
0.27603473
0.27512435
0.27419441
0.27324345
0.27227029
0.27127361
0.2702535
0.2692063
0.26813322
0.26703229
0.26590223
0.26474128
0.26354836
0.26232379
0.26106851
0.25977913
0.25845851
0.25710176
0.25570991
0.2542841
0.2528258
0.25133534
0.24981531
0.24826433
0.24668187
0.24506914
0.24343356
0.24177025
0.24008623
0.23837307
0.23663375
0.23487472
0.23309752
0.2313027
0.22949578
0.22767676
0.22584792
0.22400682
0.22215308
0.22028071
0.22306144
0.22494077
0.22679859
0.22864119
0.23047156
0.23228797
0.23408992
0.23587217
0.23763771
0.23938921
0.24111302
0.24280813
0.24448116
0.24613267
0.24776009
0.24935322
0.250914
0.25244295
0.25394175
0.25540683
0.2568386
0.25823607
0.25959879
0.26092653
0.26222256
0.26348619
0.2647178
0.26591712
0.26708492
0.26822363
0.26933349
0.27041524
0.27147004
0.27249832
0.27350206
0.2744818
0.27543925
0.27637534
0.27729173
0.27818931
0.2790698
0.2799342
0.28078354
0.28161871
0.28244189
0.28325296
0.2840527
0.28484181
0.28562112
0.28711734
0.28633297
0.28553825
0.28473253
0.28391518
0.28308549
0.28224355
0.28138743
0.28051641
0.27962896
0.27872467
0.27780098
0.27685709
0.27589172
0.27490395
0.27389209
0.27285536
0.271792
0.27070137
0.26958225
0.26843622
0.26725912
0.26605219
0.26481088
0.26353926
0.26223427
0.26089662
0.25952452
0.2581191
0.25668036
0.25520816
0.25370187
0.25216455
0.25059372
0.24899483
0.24736006
0.24569679
0.24400675
0.24229368
0.24055556
0.23879696
0.23701796
0.2352221
0.23340787
0.23158074
0.22973942
0.22788524
0.22601087
0.22411801
0.22712197
0.22902043
0.23088659
0.23273689
0.23457351
0.23640316
0.23821622
0.24001127
0.24178631
0.24353796
0.24526502
0.2469706
0.24864975
0.25029488
0.25190535
0.25348808
0.25503896
0.25655669
0.25804036
0.25949121
0.26090922
0.26229691
0.2636511
0.26497283
0.26626156
0.26751626
0.26873606
0.26992453
0.27108268
0.27221395
0.27331656
0.27439153
0.27543995
0.27646308
0.2774621
0.27843842
0.27939349
0.28032747
0.28124201
0.28213937
0.28302093
0.28388695
0.28473857
0.28557768
0.28640406
0.28721837
0.28802127
0.28881348
0.29071978
0.28991748
0.28910387
0.28827836
0.28744042
0.28658945
0.2857256
0.28484688
0.28395268
0.28304193
0.28211382
0.28116672
0.2801993
0.27921075
0.27819973
0.27716433
0.27610348
0.27501649
0.27390209
0.27275852
0.27158612
0.2703824
0.26914744
0.26787901
0.26657734
0.2652416
0.26387284
0.26247062
0.26103672
0.25956922
0.25806994
0.25653694
0.25497575
0.25338009
0.25175319
0.2500967
0.24841233
0.24669919
0.24496551
0.24320347
0.24141596
0.23960977
0.23778626
0.23594645
0.23409324
0.2322234
0.23033812
0.22842801
0.22979068
0.231724
0.23362938
0.23552302
0.2373927
0.23924229
0.24107108
0.24288279
0.24468032
0.24645577
0.24820622
0.2499364
0.25163315
0.25330016
0.25494233
0.25655416
0.2581344
0.25968668
0.26120581
0.26269283
0.26414637
0.26556545
0.2669508
0.26830314
0.26962144
0.27090709
0.2721594
0.27338157
0.27457284
0.2757326
0.27686194
0.27796437
0.27904196
0.28009346
0.28112006
0.28212462
0.2831088
0.28407293
0.28501808
0.28594601
0.28685724
0.28775232
0.2886324
0.28949939
0.29035292
0.29119354
0.29202179
0.29283833
0.29516572
0.29433125
0.29348443
0.29262471
0.29175162
0.29086483
0.28996463
0.28904913
0.28811781
0.28716968
0.2862046
0.28522026
0.28421622
0.28319118
0.28214432
0.28107354
0.27997838
0.27885698
0.2777087
0.27653113
0.27532418
0.27408598
0.2728185
0.2715168
0.27018147
0.26881237
0.26741047
0.2659748
0.26450532
0.26300237
0.26146866
0.25990252
0.25830954
0.25668243
0.25502566
0.25334038
0.25163211
0.24989281
0.24813173
0.2463433
0.24453851
0.24271604
0.24087476
0.23901163
0.23713215
0.2352305
0.23330983
0.23491406
0.23685083
0.23876457
0.24065887
0.24253359
0.24438764
0.24622425
0.24804267
0.24984451
0.25162269
0.25337676
0.25510266
0.25680494
0.25847706
0.26011923
0.26173091
0.26331459
0.26486582
0.26638491
0.26787083
0.26932463
0.27074555
0.27213359
0.27348889
0.27481047
0.2760999
0.27735978
0.27858897
0.27978817
0.2809588
0.28210368
0.28322232
0.28431649
0.28538729
0.28643706
0.28746587
0.28847509
0.28946577
0.29043943
0.29139645
0.29233717
0.29326269
0.29417467
0.29507252
0.29595662
0.29682734
0.29768515
0.30036943
0.29948344
0.29858377
0.29767021
0.29674256
0.29580054
0.29484478
0.29387378
0.29288686
0.29188351
0.29086315
0.28982489
0.2887685
0.28769154
0.28659416
0.28547333
0.28432946
0.28315961
0.28196489
0.28074162
0.27948911
0.27820684
0.27689497
0.2755521
0.27417759
0.27277204
0.27133487
0.2698658
0.26836521
0.26683275
0.26526857
0.26367267
0.26204676
0.26039165
0.25871201
0.25700081
0.25526543
0.25349961
0.2517068
0.24988903
0.24805169
0.24619805
0.24433225
0.24244241
0.24053754
0.23860845
0.2366548
0.23835136
0.24032327
0.24226885
0.24419695
0.24610408
0.24798744
0.24985622
0.25171308
0.25354437
0.25534765
0.25712592
0.25887691
0.26060206
0.26229791
0.26396626
0.26560541
0.26721457
0.26879264
0.27033978
0.27185536
0.27334066
0.27479551
0.27622018
0.27761689
0.27898307
0.28031902
0.28162592
0.28290369
0.28415438
0.28537847
0.28657822
0.28775406
0.28890681
0.29003705
0.29114724
0.29223806
0.29331094
0.29436629
0.29540509
0.29642774
0.29743486
0.29842723
0.29940555
0.30036907
0.30131813
0.30225271
0.30317315
0.30603589
0.30507554
0.3041001
0.30310953
0.30210414
0.30108395
0.30004986
0.29900078
0.29793668
0.29685691
0.2957613
0.2946489
0.29351939
0.29237136
0.29120436
0.29001688
0.2888091
0.28757845
0.28632543
0.2850468
0.28374353
0.28241119
0.28104991
0.27965916
0.27824043
0.27679456
0.2753193
0.27381779
0.27228739
0.27072616
0.26913567
0.26751497
0.26586603
0.26418902
0.26248368
0.26074664
0.258982
0.2571901
0.25537462
0.25353413
0.25167363
0.24979293
0.24789555
0.24597893
0.24404461
0.24208992
0.24011102
0.24171099
0.24370534
0.2456697
0.24761325
0.24953663
0.25144095
0.25333023
0.25519753
0.25704328
0.25886534
0.26066669
0.26244244
0.26418743
0.26590154
0.2675882
0.26924728
0.2708823
0.27249047
0.27407297
0.27562333
0.27714662
0.27864427
0.2801128
0.28155613
0.28297306
0.2843633
0.28572455
0.28705897
0.28836964
0.28965694
0.29092321
0.29216997
0.29339721
0.29460548
0.29579662
0.29697042
0.29812818
0.29927038
0.30039683
0.30150832
0.30260537
0.30368779
0.30475621
0.30580948
0.30684749
0.30786959
0.30887572
0.31159323
0.31053755
0.30946443
0.30837437
0.30726838
0.30614677
0.30501093
0.30386054
0.30269622
0.30151795
0.30032541
0.29911836
0.29789711
0.29666017
0.29540784
0.29413756
0.29284968
0.2915434
0.29021779
0.28887086
0.28750236
0.28611032
0.28469362
0.28325138
0.28178492
0.28029277
0.27877441
0.27723449
0.27566848
0.27407324
0.27245439
0.27080959
0.26913979
0.26744094
0.265715
0.26396461
0.26219357
0.26039551
0.2585772
0.25673205
0.25486788
0.25297961
0.2510762
0.24915074
0.24720343
0.24523057
0.24639898
0.24837199
0.25031625
0.25223733
0.25413982
0.25602572
0.25789272
0.25973651
0.26155449
0.26335098
0.26512354
0.26687545
0.26860849
0.27031416
0.27199392
0.2736528
0.27528803
0.27690035
0.27848447
0.2800448
0.28158562
0.28310269
0.28459625
0.28606727
0.28751574
0.28894197
0.29034748
0.29173491
0.29310231
0.29445159
0.29578473
0.2971022
0.298404
0.29969204
0.30096704
0.30222918
0.30347767
0.30471285
0.30593502
0.30714377
0.30833824
0.30951823
0.31068202
0.31182841
0.31295617
0.31406484
0.31614658
0.31498421
0.31379989
0.31259481
0.31137064
0.31012908
0.30887244
0.30760131
0.30631704
0.30502042
0.30371232
0.30239205
0.30106002
0.29971612
0.29836033
0.29699175
0.29561027
0.2942148
0.2928054
0.2913793
0.28993742
0.28847693
0.28699682
0.28549668
0.28397734
0.28243705
0.28087562
0.27929704
0.27769582
0.27607038
0.27442298
0.27275346
0.27106415
0.26935284
0.26762036
0.26586624
0.26409222
0.26229618
0.26048039
0.25864403
0.25679234
0.25492076
0.25303493
0.25112564
0.24918946
0.24936175
0.25128551
0.25317782
0.25504868
0.25690577
0.2587511
0.26058014
0.26239093
0.26418575
0.26596014
0.26771736
0.2694517
0.27116503
0.27285987
0.2745394
0.27619937
0.27784025
0.27945883
0.28105764
0.28264203
0.28420838
0.28575659
0.28728882
0.28880312
0.29030114
0.29178442
0.29325448
0.29471152
0.29615682
0.29759104
0.29901529
0.30042909
0.30183345
0.30322711
0.30461039
0.30598314
0.30734509
0.30869529
0.31003239
0.31135453
0.3126604
0.31394693
0.3152116
0.31645215
0.31766696
0.31842946
0.31716808
0.31587502
0.31455273
0.31320454
0.31183401
0.31044511
0.30903993
0.30762107
0.30619046
0.30474979
0.30329994
0.30184211
0.30037575
0.2989019
0.29741964
0.29592918
0.29443046
0.29292308
0.2914062
0.28987999
0.28834235
0.28679363
0.28523092
0.28365589
0.28206517
0.2804588
0.27884064
0.27720573
0.27555308
0.27388381
0.27219805
0.27049728
0.26878055
0.26705026
0.26530134
0.26353746
0.26175476
0.25995807
0.25814264
0.25631179
0.25446674
0.25260907
0.25073557
0.24884191
0.24729926
0.24916826
0.25101719
0.25285269
0.25467786
0.25648978
0.25828694
0.26007024
0.26184095
0.26359778
0.2653418
0.26707215
0.26879051
0.27049551
0.27218803
0.27386694
0.27553361
0.27718497
0.27882441
0.28045564
0.28207379
0.28368127
0.28527931
0.28686758
0.28844841
0.29002281
0.29159093
0.29315154
0.29470597
0.29625535
0.29779923
0.29933747
0.30087007
0.30239627
0.30391563
0.30542667
0.30692802
0.30841739
0.30989173
0.31134786
0.31278219
0.31418952
0.31556507
0.31690454
0.31541222
0.31403664
0.31261434
0.31115226
0.30965718
0.308136
0.30659341
0.30503438
0.30346239
0.30188089
0.30029145
0.29869644
0.29709642
0.295493
0.293886
0.29227674
0.29066451
0.28904991
0.28743129
0.2858088
0.28418228
0.28255167
0.28091593
0.27927489
0.2776275
0.27597334
0.27431432
0.27264666
0.27096891
0.26928203
0.26758568
0.26588213
0.26416854
0.26244699
0.26071369
0.25897157
0.25721828
0.25545669
0.25368182
0.2518953
0.25009797
0.24829394
0.24647711
0.24464434
0.24047246
0.24226859
0.24405115
0.24582582
0.24759453
0.24935618
0.25110602
0.25284638
0.25458124
0.25631288
0.25803562
0.25975038
0.26146071
0.26316775
0.26487025
0.26656718
0.26825957
0.26994543
0.2716272
0.27330845
0.27498681
0.27666308
0.27833782
0.28001097
0.28168414
0.2833553
0.28502558
0.28669561
0.2883659
0.29003655
0.2917077
0.29337798
0.2950465
0.29671202
0.2983723
0.30002496
0.30166769
0.3032969
0.30490652
0.30649078
0.30804329
0.30955488
0.30319987
0.30159333
0.29994806
0.29827255
0.29657498
0.29486189
0.29313848
0.2914087
0.28967536
0.2879405
0.28620594
0.28447272
0.28274229
0.28101489
0.27929091
0.27756991
0.27585285
0.27413788
0.27242605
0.27071564
0.26900659
0.26729895
0.26559291
0.26389017
0.26218736
0.26048313
0.258778
0.25707126
0.25536376
0.2536549
0.25194475
0.25023197
0.24851704
0.24679945
0.24507942
0.24335574
0.2416278
0.23989533
0.23815896
0.23641756
0.23466896
0.22685925
0.22856612
0.23026854
0.23196973
0.23367052
0.23537111
0.23707143
0.23877234
0.24047517
0.24217893
0.24388373
0.24559016
0.24729957
0.24901104
0.250725
0.25244135
0.25416138
0.25588297
0.25760862
0.25934129
0.2610789
0.26282142
0.26456885
0.26632179
0.26808077
0.26984598
0.27161627
0.27339167
0.27517299
0.27696031
0.27875366
0.2805507
0.28235035
0.28414952
0.28594668
0.28773926
0.28952198
0.29128896
0.29303129
0.29474086
0.29640633
0.28592005
0.28414329
0.28233122
0.28049509
0.27864361
0.27678369
0.27491993
0.27305596
0.27119403
0.26933631
0.26748399
0.26563866
0.26380058
0.26197046
0.26014843
0.25833609
0.2565315
0.25473603
0.25294792
0.2511672
0.24939424
0.24762962
0.24587547
0.24412874
0.24238813
0.24065444
0.23892711
0.23720697
0.2354932
0.23378766
0.23208698
0.23039101
0.22870021
0.22701721
0.22533812
0.22366223
0.22199005
0.22032173
0.21865642
0.21699256
0.20477176
0.20640223
0.20803834
0.20968237
0.21133505
0.21299762
0.21466674
0.21634605
0.21803909
0.2197426
0.22145619
0.22318175
0.22491673
0.22666314
0.22842352
0.23019536
0.23197972
0.2337734
0.2355792
0.23739991
0.23923283
0.24107732
0.24293336
0.244801
0.24667981
0.24856924
0.25046914
0.25237839
0.25429715
0.25622347
0.25815707
0.2600961
0.26203893
0.2639833
0.2659266
0.26786487
0.26979344
0.27170647
0.27359307
0.2754462
0.2644254
0.26245361
0.26043397
0.25838001
0.25630257
0.2542095
0.25210699
0.25000025
0.24789295
0.24578934
0.24369199
0.24160575
0.23952989
0.23746793
0.23541918
0.2333848
0.231367
0.22936757
0.22738753
0.2254297
0.22349145
0.22157245
0.21967661
0.2178006
0.21594377
0.21410715
0.21229068
0.21049479
0.20871901
0.20696278
0.20522537
0.20350646
0.20180585
0.20012628
0.19846377
0.19681668
0.19518552
0.19356994
0.19196926
0.19038197
0.17389652
0.1753974
0.17691856
0.17846205
0.18002941
0.18162241
0.18323856
0.18488165
0.18655508
0.1882582
0.18998749
0.19174612
0.19353632
0.19535883
0.19721485
0.1991049
0.20103221
0.20299462
0.20499511
0.20703258
0.20910691
0.21121935
0.21337077
0.21556244
0.21779492
0.22006549
0.22237297
0.22471573
0.22709238
0.22950117
0.2319361
0.23439639
0.23687562
0.23936798
0.24186746
0.24436423
0.24684733
0.24930329
0.25170978
0.25404613
0.28738867
0.28654978
0.28571567
0.28488618
0.28406108
0.28324017
0.28242316
0.28160976
0.28079965
0.27999248
0.27918779
0.27838516
0.27758404
0.27678396
0.27598425
0.27518428
0.2743832
0.27358039
0.27277474
0.27196555
0.27115149
0.27033182
0.26950494
0.26867006
0.26782518
0.26696931
0.26610083
0.26521899
0.26432101
0.2634064
0.26247289
0.26152032
0.26054553
0.25954828
0.25852586
0.25747851
0.25640365
0.25530253
0.25417139
0.25301224
0.25182113
0.25060076
0.24934656
0.24806083
0.24674258
0.24539566
0.24401462
0.24260539
0.24116316
0.23969264
0.2381909
0.23666318
0.23510699
0.23352921
0.2319243
0.23030003
0.22865064
0.22698429
0.22529414
0.22358683
0.22185622
0.22010411
0.21005734
0.21015674
0.21024677
0.21033847
0.21042572
0.21051739
0.21059906
0.21065791
0.2106647
0.21065149
0.21065239
0.21262994
0.2125242
0.2125186
0.21252883
0.21252082
0.21246326
0.21238481
0.21228925
0.21220256
0.2121142
0.21202875
0.21193983
0.21186274
0.21180946
0.21176063
0.21170006
0.21337256
0.21344289
0.21350259
0.21356885
0.21362616
0.21367466
0.2137312
0.21379776
0.21388032
0.2139637
0.21405082
0.2141386
0.21423177
0.21430832
0.21436588
0.21437501
0.21436667
0.21437457
0.21449106
0.21632738
0.21621448
0.21620517
0.21621309
0.21620353
0.21614636
0.21607093
0.21598192
0.215892
0.21580598
0.21572301
0.21564484
0.21557848
0.21552082
0.21547129
0.21541686
0.21535991
0.21530325
0.21524158
0.21516448
0.21508183
0.21683697
0.21693792
0.2170133
0.21708332
0.21714288
0.21720119
0.21725533
0.21730826
0.21735903
0.21741651
0.21748202
0.21755843
0.21764151
0.21773015
0.21781657
0.2179033
0.21797838
0.2180349
0.2180448
0.21803751
0.21804837
0.21816297
0.21998358
0.21987456
0.21986429
0.21986974
0.21985894
0.21980326
0.21972991
0.21964501
0.21956201
0.21946962
0.21938809
0.21931234
0.21924689
0.21918924
0.21913877
0.21908627
0.21903391
0.21897161
0.2189114
0.21884103
0.21877169
0.21868774
0.21821576
0.21834228
0.21847605
0.21862046
0.21877614
0.21895364
0.219106
0.21923087
0.21934275
0.21944403
0.21953477
0.21961465
0.21969959
0.2197799
0.21986768
0.21995745
0.2200522
0.2201505
0.22024929
0.22034011
0.22042347
0.22051407
0.22059194
0.22065846
0.2207276
0.22078958
0.22085376
0.22090636
0.22095992
0.22101032
0.22106815
0.2211341
0.22120848
0.22129098
0.2213823
0.22146315
0.22154738
0.22161904
0.22167432
0.22168635
0.22168225
0.22169233
0.22180256
0.22360438
0.22349959
0.22348872
0.22349261
0.22347943
0.22342465
0.22335287
0.22327037
0.22319134
0.22310308
0.22301828
0.22294518
0.22287968
0.22282123
0.22277084
0.22271593
0.22266303
0.22259753
0.22253375
0.22246536
0.22240063
0.22232377
0.22224593
0.22216421
0.2220733
0.22197821
0.22187679
0.22178141
0.22169244
0.22160525
0.22152453
0.22144137
0.22136244
0.22127095
0.22116913
0.22105649
0.2209312
0.22078155
0.22061096
0.22045428
0.22031126
0.22017823
0.22006364
0.21993475
0.21984827
0.21973723
0.21961273
0.2195212
0.21941485
0.21933445
0.21922923
0.21929763
0.21942309
0.21952826
0.21965483
0.21978049
0.21992241
0.22006182
0.22021936
0.22037211
0.22050686
0.2206159
0.22069808
0.22079728
0.2208804
0.22097817
0.22106378
0.2211655
0.22124533
0.22135025
0.22144069
0.22156352
0.22167354
0.2217606
0.2218821
0.22198836
0.22213132
0.22226149
0.22242574
0.22258637
0.22273386
0.22285669
0.22297116
0.22307236
0.22316615
0.22324416
0.22332585
0.22340683
0.22349265
0.22358016
0.22367445
0.22377792
0.22387285
0.22396226
0.22404491
0.22412073
0.22419618
0.22426153
0.22432944
0.22439405
0.22445939
0.22451384
0.22456944
0.22462141
0.22467944
0.22474421
0.22481917
0.22490104
0.22498776
0.2250663
0.22514737
0.2252191
0.22527314
0.22528775
0.22528443
0.22529659
0.22540164
0.22717885
0.22708042
0.22706902
0.22707057
0.22705404
0.22700096
0.22693064
0.22684994
0.22677169
0.22668759
0.22660843
0.22653044
0.22646675
0.22640911
0.22635662
0.22629932
0.22624295
0.22617844
0.22611442
0.22604583
0.22597913
0.22590434
0.22582945
0.22574551
0.22565736
0.22556297
0.22546029
0.22536384
0.22527642
0.2251928
0.22511317
0.22503168
0.22495476
0.22485998
0.22475834
0.22464337
0.22452063
0.22437697
0.22422078
0.22405776
0.22392966
0.22378932
0.22368311
0.22356407
0.22347551
0.22336655
0.22324675
0.22315743
0.22305411
0.22297412
0.22287411
0.22279647
0.22269666
0.22261438
0.22250694
0.22241853
0.22230701
0.22216964
0.22201925
0.22186555
0.22172146
0.22158214
0.22145569
0.22132861
0.22122428
0.22110147
0.22100011
0.22089354
0.22081575
0.22072343
0.22065944
0.22058078
0.22053441
0.2204809
0.22040975
0.22031164
0.22024397
0.2201734
0.22011813
0.22008786
0.22006447
0.2200509
0.22002461
0.21998976
0.21992181
0.21984686
0.21979682
0.21986339
0.22162177
0.22156255
0.22160431
0.2216844
0.22174477
0.22178628
0.22180584
0.22182758
0.22184454
0.22188276
0.22193001
0.22200143
0.22207594
0.22217044
0.22224251
0.22229592
0.22234914
0.22242451
0.22249484
0.22258512
0.2226695
0.22277407
0.22287416
0.22299211
0.22310318
0.22322356
0.22336387
0.22350297
0.22364778
0.22378943
0.22394239
0.22408103
0.22419767
0.22429056
0.22440179
0.22448633
0.22458733
0.224665
0.22476474
0.22484562
0.22494709
0.22503555
0.2251522
0.22525897
0.22535087
0.22546304
0.22557306
0.22570753
0.22583877
0.22599482
0.22615117
0.22629354
0.22641624
0.22652972
0.22663272
0.22672725
0.22680438
0.22688552
0.22696378
0.22704729
0.22713724
0.22723409
0.22733414
0.22742806
0.22751594
0.22759846
0.22767438
0.22774854
0.22781692
0.22788545
0.2279487
0.22801249
0.22807088
0.22812912
0.22818245
0.22823989
0.22830486
0.22838114
0.22845896
0.22854169
0.22862001
0.22869958
0.22876821
0.22882054
0.22883918
0.2288388
0.22884988
0.22894782
0.23069369
0.23060252
0.23059076
0.23059128
0.23057105
0.23051975
0.23045129
0.23037416
0.23029633
0.23021524
0.23013778
0.23006481
0.22999856
0.22993989
0.22988422
0.22982653
0.22976658
0.2297038
0.2296396
0.22957246
0.22950277
0.22942948
0.22935199
0.22927075
0.22918334
0.22908865
0.22899025
0.22889581
0.22880331
0.22871923
0.22864091
0.2285608
0.22848385
0.22838985
0.22828589
0.22817464
0.22805214
0.22791156
0.22775396
0.22760721
0.22747126
0.2273437
0.22722833
0.22712366
0.22703139
0.22692418
0.22681135
0.22672317
0.22662398
0.2265414
0.22644171
0.22636277
0.22626057
0.22617318
0.22605878
0.22596138
0.22584196
0.22570034
0.22554365
0.22540936
0.22526644
0.22512517
0.22497813
0.22485854
0.22474243
0.22462929
0.22452262
0.22442176
0.22432933
0.22424279
0.22416447
0.22409264
0.22403001
0.22397769
0.2239055
0.22381603
0.22373591
0.2236665
0.22361876
0.22358095
0.22356198
0.22354034
0.22351856
0.22347948
0.22341752
0.22334064
0.22329752
0.22336229
0.22507648
0.22500874
0.22505943
0.22512779
0.22519682
0.22522774
0.22525714
0.22527384
0.22529984
0.22533233
0.22538851
0.22546028
0.2255419
0.22562542
0.2256949
0.22574595
0.22582072
0.22588751
0.22597555
0.22605674
0.22615878
0.22625455
0.22637028
0.22647757
0.22659776
0.22672174
0.2268671
0.22701412
0.22715389
0.22728611
0.22744298
0.22758618
0.22770795
0.22780885
0.22792613
0.22801635
0.22811978
0.22820021
0.22829953
0.2283846
0.22848127
0.22856978
0.22867858
0.22878721
0.22888332
0.22897856
0.22910101
0.22922042
0.22936265
0.22949913
0.22965722
0.2297955
0.22991726
0.23002591
0.23013002
0.2302232
0.23030028
0.23038054
0.23045656
0.23054165
0.2306345
0.23072875
0.23082766
0.23092089
0.23100913
0.23108936
0.23116841
0.23124094
0.23131177
0.23137753
0.23144274
0.23150447
0.23156578
0.23162274
0.23168038
0.23173899
0.23180473
0.23187694
0.23195516
0.23203475
0.23211176
0.23218645
0.23225457
0.23230462
0.23232572
0.23232517
0.23233807
0.23242769
0.2341353
0.2340535
0.23404145
0.23404108
0.23402044
0.23397066
0.23390408
0.23383079
0.23375587
0.23367675
0.23359895
0.23352619
0.23346057
0.23340183
0.23334402
0.23328687
0.23322537
0.23316356
0.23309844
0.23303295
0.23296218
0.23288917
0.23280969
0.23272929
0.23264133
0.23254823
0.23244945
0.2323535
0.23226167
0.23217696
0.23210166
0.23202115
0.23194357
0.23185162
0.23174895
0.2316421
0.23152253
0.23138658
0.23123186
0.23109954
0.23095674
0.23083951
0.2307154
0.23062094
0.23052195
0.23041503
0.23031252
0.2302228
0.23012922
0.23004057
0.22994253
0.22986042
0.22975582
0.22966276
0.22954277
0.22943684
0.22931263
0.22916885
0.22901139
0.22888201
0.2287413
0.22859044
0.22844694
0.22832215
0.22820104
0.22809261
0.22797364
0.22787705
0.22777091
0.2276892
0.22759709
0.22752988
0.22744905
0.22739475
0.22732715
0.22724493
0.22716012
0.22709059
0.22703308
0.22699976
0.22697303
0.22695465
0.22692404
0.22689534
0.22682504
0.22675976
0.22670728
0.22677614
0.22844769
0.22838545
0.22843865
0.22850331
0.22857234
0.2286012
0.22862984
0.22865483
0.22867701
0.22871581
0.22876904
0.22883339
0.22892094
0.22900401
0.22907578
0.22913393
0.22921732
0.22928674
0.22938073
0.22946526
0.22957344
0.22967313
0.22979278
0.2299066
0.23002356
0.23015429
0.23029184
0.23044216
0.23058617
0.23071761
0.23087526
0.23101978
0.23114601
0.23125613
0.23137852
0.23147438
0.23158
0.23166381
0.23175954
0.23185448
0.23194198
0.2320362
0.23213018
0.23223466
0.23233538
0.23243228
0.23255566
0.23267295
0.23281414
0.23294544
0.23309551
0.2332297
0.23334594
0.23345204
0.23355199
0.23364382
0.23372185
0.2338019
0.23387777
0.23396134
0.23405322
0.23415049
0.23424781
0.23434154
0.23442793
0.23450954
0.23458828
0.23466291
0.23473245
0.23479877
0.23486273
0.23492575
0.23498632
0.23504471
0.2351014
0.23516114
0.23522598
0.23530011
0.23537633
0.23545583
0.23552762
0.23560041
0.2356644
0.23571466
0.23573348
0.23573571
0.2357465
0.23582726
0.23749035
0.23741577
0.23740705
0.23740408
0.23738637
0.23733664
0.23727434
0.23720301
0.23713351
0.23705468
0.2369793
0.23690496
0.23684026
0.23678025
0.23672394
0.23666499
0.23660468
0.23654114
0.23647757
0.23641111
0.23634212
0.23626665
0.23618791
0.23610598
0.2360205
0.23592707
0.23583082
0.23573346
0.23564174
0.23555821
0.23548144