/*--------------------------------*- C++ -*----------------------------------*\
| =========                 |                                                 |
| \\      /  F ield         | OpenFOAM: The Open Source CFD Toolbox           |
|  \\    /   O peration     | Version:  v2012                                 |
|   \\  /    A nd           | Website:  www.openfoam.com                      |
|    \\/     M anipulation  |                                                 |
\*---------------------------------------------------------------------------*/
FoamFile
{
    version     2.0;
    format      ascii;
    class       volScalarField;
    location    "400";
    object      omega;
}
// * * * * * * * * * * * * * * * * * * * * * * * * * * * * * * * * * * * * * //

dimensions      [0 0 -1 0 0 0 0];


internalField   nonuniform List<scalar> 
229778
(
86.864097
83.089569
79.629
76.454578
73.538667
70.853422
68.37238
66.072432
63.933526
61.938502
60.072645
58.323268
56.679374
55.131382
53.670886
52.290483
50.983615
49.744451
48.567781
47.448943
46.383749
45.368414
44.399503
43.473913
42.588818
41.741627
40.929971
40.151685
39.404773
38.687397
37.997859
37.334583
36.696113
36.081104
35.488304
34.916545
34.36474
33.831872
33.316994
32.819221
7.7709513
7.7873334
7.8038373
7.8204571
7.8371898
7.8540303
7.8709782
7.8880309
7.9051873
7.9224442
7.9397995
7.9572531
7.9748029
7.9924475
8.0101859
8.0280166
8.0459389
8.0639528
8.0820569
8.1002504
8.118532
8.1369008
8.1553559
8.1738965
8.192521
8.2112281
8.2300158
8.2488821
8.2678247
8.2868409
8.3059275
8.3250812
8.3442986
8.3635753
8.3829074
8.4022907
8.4217206
8.441193
8.4607036
8.4802489
8.4998258
8.5194318
8.5390652
8.5587254
8.5784124
8.5981278
8.6178738
8.6376539
8.6574724
8.6773343
8.6972458
8.7172136
8.7372447
8.7573463
8.7775263
8.7977927
8.8181531
8.8386152
8.8591864
8.8798738
8.9006842
8.9216238
8.9426983
8.9639128
8.985272
9.0067799
8.6524536
8.6327072
8.6129645
8.5932293
8.5735059
8.5537986
8.5341122
8.5144512
8.4948204
8.4752243
8.4556674
8.4361541
8.4166883
8.3972739
8.3779146
8.3586135
8.3393738
8.3201982
8.3010892
8.2820491
8.2630799
8.2441835
8.2253615
8.2066155
8.187947
8.1693571
8.1508471
8.1324182
8.1140714
8.095808
8.077629
8.0595356
8.041529
8.0236107
8.0057818
7.988044
7.9703989
7.9528485
7.9353943
7.9180389
7.9007842
7.883633
7.8665877
7.8496513
7.8328266
7.8161172
7.7995261
7.7830575
7.7667157
7.750509
7.7513809
7.7675782
7.7839126
7.8003746
7.8169597
7.8336639
7.8504837
7.8674161
7.8844578
7.9016061
7.918858
7.9362115
7.9536642
7.9712135
7.9888576
8.006595
8.0244239
8.0423425
8.0603493
8.0784434
8.0966233
8.1148878
8.1332359
8.1516665
8.1701782
8.1887699
8.2074404
8.2261886
8.2450131
8.2639122
8.2828842
8.3019272
8.3210391
8.340218
8.3594612
8.3787658
8.3981288
8.417547
8.4370168
8.4565343
8.4760952
8.4956956
8.5153308
8.5349961
8.5546866
8.5743981
8.5941258
8.613865
8.6336115
8.6533616
8.655368
8.6356106
8.6158563
8.5961088
8.5763724
8.5566521
8.5369527
8.5172784
8.497634
8.4780245
8.4584547
8.4389285
8.4194499
8.4000234
8.3806522
8.3613396
8.3420887
8.3229024
8.3037834
8.2847336
8.2657549
8.2468494
8.2280185
8.2092643
8.1905881
8.1719907
8.1534733
8.1350373
8.1166837
8.0984137
8.0802284
8.0621288
8.0441162
8.0261918
8.0083568
7.9906133
7.9729628
7.9554066
7.9379467
7.9205857
7.9033257
7.8861687
7.8691176
7.8521751
7.8353444
7.8186285
7.8020308
7.7855551
7.7692062
7.7529917
7.7557652
7.7719975
7.7883645
7.8048574
7.8214714
7.8382029
7.8550482
7.8720047
7.8890688
7.9062381
7.9235099
7.9408819
7.9583519
7.9759178
7.9935775
8.0113299
8.0291735
8.0471066
8.0651278
8.0832358
8.1014295
8.1197079
8.13807
8.1565147
8.1750409
8.1936473
8.2123328
8.2310966
8.2499373
8.2688531
8.2878423
8.3069031
8.3260336
8.3452317
8.3644948
8.38382
8.4032042
8.422644
8.4421361
8.4616762
8.4812601
8.5008838
8.5205423
8.5402308
8.5599443
8.5796784
8.5994282
8.6191885
8.6389551
8.6587242
8.6834312
8.6636488
8.6438639
8.6240803
8.6043022
8.5845341
8.564781
8.545048
8.52534
8.5056619
8.4860186
8.4664151
8.4468559
8.4273451
8.4078869
8.3884848
8.3691421
8.3498621
8.3306477
8.3115013
8.2924253
8.2734215
8.2544917
8.2356375
8.2168606
8.1981622
8.1795433
8.1610051
8.1425486
8.1241748
8.1058848
8.0876796
8.0695601
8.0515272
8.0335823
8.0157269
7.9979623
7.9802898
7.9627101
7.9452258
7.9278385
7.9105505
7.893364
7.8762821
7.8593065
7.8424412
7.8256877
7.8090515
7.7925354
7.7761435
7.7598822
7.765639
7.7819234
7.7983386
7.8148757
7.8315292
7.8482974
7.8651774
7.8821659
7.899262
7.9164624
7.9337639
7.9511637
7.9686604
7.9862525
8.0039378
8.0217148
8.0395825
8.0575396
8.0755846
8.0937165
8.1119342
8.130237
8.1486239
8.1670939
8.1856461
8.2042795
8.2229931
8.2417857
8.2606562
8.2796031
8.2986248
8.3177194
8.3368852
8.3561197
8.3754206
8.3947849
8.4142094
8.4336907
8.4532251
8.4728085
8.4924366
8.5121046
8.5318077
8.5515407
8.5712984
8.5910756
8.6108672
8.630668
8.650473
8.6702779
8.6900789
8.6985279
8.6787046
8.6588752
8.6390441
8.6192161
8.5993962
8.5795899
8.5598027
8.54004
8.5203072
8.5006097
8.4809526
8.4613407
8.4417784
8.42227
8.4028193
8.3834298
8.3641048
8.344847
8.325659
8.3065431
8.2875011
8.2685349
8.249646
8.2308357
8.2121053
8.1934559
8.1748883
8.1564035
8.1380023
8.1196856
8.1014542
8.0833089
8.0652508
8.0472809
8.0294002
8.01161
7.9939116
7.9763064
7.958796
7.941382
7.9240666
7.9068517
7.8897399
7.8727324
7.8558333
7.8390438
7.8223679
7.8058085
7.789371
7.7730605
7.7987448
7.8151947
7.8317673
7.8484546
7.8652545
7.8821645
7.8991824
7.916305
7.9335304
7.9508563
7.9682808
7.9858019
8.0034178
8.0211268
8.0389281
8.0568201
8.0748013
8.092871
8.1110282
8.1292719
8.1476016
8.1660163
8.1845154
8.203098
8.2217633
8.2405106
8.2593386
8.2782464
8.2972326
8.3162957
8.3354342
8.3546459
8.3739286
8.3932799
8.4126968
8.4321763
8.4517146
8.4713078
8.4909516
8.5106414
8.5303722
8.5501387
8.5699352
8.5897561
8.6095958
8.6294484
8.649308
8.6691691
8.6890265
8.7088759
8.7212896
8.7014116
8.681523
8.661629
8.6417349
8.6218467
8.6019707
8.582113
8.5622796
8.5424768
8.5227102
8.5029855
8.4833078
8.463682
8.4441125
8.4246033
8.4051581
8.3857803
8.3664726
8.3472374
8.3280772
8.3089938
8.2899887
8.2710633
8.2522188
8.2334564
8.2147769
8.196181
8.1776695
8.159243
8.1409023
8.122648
8.1044808
8.0864014
8.0684106
8.0505094
8.0326985
8.0149795
7.9973534
7.979822
7.9623871
7.9450504
7.9278137
7.9106792
7.8936479
7.8767237
7.8599077
7.8432039
7.8266153
7.8101478
7.8240354
7.8405108
7.8571067
7.8738179
7.8906416
7.9075731
7.9246096
7.9417497
7.9589916
7.9763333
7.9937729
8.0113086
8.0289385
8.0466615
8.0644762
8.0823814
8.1003764
8.1184603
8.1366324
8.1548921
8.1732389
8.1916722
8.2101913
8.2287958
8.247485
8.2662584
8.2851153
8.3040545
8.3230748
8.342175
8.3613538
8.3806094
8.3999395
8.4193417
8.4388131
8.4583505
8.4779501
8.4976077
8.5173188
8.5370784
8.556881
8.5767209
8.5965919
8.6164875
8.6364011
8.6563265
8.6762566
8.696185
8.7161059
8.736014
8.7533977
8.7334616
8.7135097
8.6935482
8.6735835
8.6536226
8.633673
8.6137417
8.5938354
8.5739612
8.5541256
8.5343347
8.5145941
8.494909
8.4752843
8.4557239
8.436232
8.4168116
8.3974656
8.3781962
8.3590056
8.3398956
8.3208672
8.3019218
8.2830608
8.2642845
8.2455939
8.226989
8.2084704
8.1900383
8.1716935
8.1534361
8.1352666
8.1171854
8.0991932
8.0812905
8.0634781
8.045757
8.0281281
8.0105929
7.9931529
7.9758098
7.9585654
7.9414218
7.9243806
7.9074441
7.890615
7.8738964
7.8572919
7.8408067
7.8776765
7.8942796
7.910997
7.927824
7.9447571
7.9617939
7.9789319
7.996169
8.0135034
8.0309333
8.0484573
8.066074
8.083782
8.1015807
8.1194694
8.1374469
8.155513
8.1736673
8.1919098
8.2102399
8.2286576
8.2471627
8.265755
8.2844342
8.3032003
8.3220529
8.3409913
8.3600147
8.3791219
8.3983122
8.4175838
8.4369345
8.4563623
8.4758643
8.4954373
8.5150774
8.5347804
8.5545416
8.5743554
8.594216
8.614117
8.6340516
8.6540122
8.6739915
8.693982
8.7139755
8.7339644
8.7539416
8.7739004
8.7981551
8.7781859
8.7581954
8.7381911
8.7181809
8.6981733
8.6781772
8.6582006
8.6382516
8.618338
8.5984673
8.5786459
8.5588799
8.539175
8.5195364
8.499968
8.4804739
8.461057
8.4417202
8.4224655
8.403295
8.3842097
8.3652109
8.3462986
8.3274741
8.3087374
8.2900887
8.2715277
8.2530547
8.2346697
8.2163725
8.1981629
8.180041
8.1620066
8.1440604
8.1262019
8.1084318
8.0907507
8.0731594
8.0556591
8.0382511
8.0209365
8.003717
7.9865944
7.9695707
7.9526483
7.9358296
7.919118
7.902517
7.9495993
7.9662937
7.9830918
7.99999
8.0169861
8.0340782
8.0512641
8.0685422
8.085911
8.1033694
8.1209161
8.1385507
8.1562722
8.1740797
8.1919731
8.2099534
8.2280198
8.2461728
8.2644128
8.2827402
8.3011557
8.3196598
8.3382524
8.3569338
8.3757042
8.3945632
8.4135105
8.4325462
8.4516698
8.4708805
8.4901764
8.5095555
8.5290155
8.5485531
8.5681648
8.5878464
8.6075929
8.6273981
8.6472558
8.6671593
8.687101
8.7070721
8.7270639
8.747068
8.7670743
8.7870737
8.8070575
8.8270176
8.8616892
8.8417695
8.821823
8.801859
8.7818873
8.7619181
8.741962
8.7220285
8.7021268
8.6822661
8.6624547
8.6426998
8.6230079
8.6033853
8.5838369
8.5643665
8.5449777
8.5256735
8.5064561
8.4873267
8.4682868
8.4493368
8.430477
8.4117073
8.3930277
8.3744376
8.3559365
8.3375236
8.3191985
8.3009601
8.2828079
8.2647409
8.2467595
8.2288616
8.2110468
8.1933158
8.1756685
8.1581044
8.1406248
8.1232289
8.1059175
8.0886928
8.0715559
8.054508
8.0375506
8.0206854
8.0039149
7.9872414
8.0340024
8.0506484
8.0673818
8.0842036
8.1011085
8.1180963
8.1351657
8.1523169
8.1695502
8.186863
8.2042541
8.2217246
8.2392711
8.2568962
8.2746016
8.2923865
8.3102515
8.3281986
8.3462276
8.36434
8.3825367
8.4008188
8.4191879
8.4376453
8.456192
8.474829
8.493557
8.5123767
8.5312882
8.5502905
8.5693833
8.5885664
8.6078383
8.6271953
8.6466345
8.6661525
8.6857446
8.7054044
8.725125
8.7448992
8.7647179
8.7845714
8.8044497
8.8243426
8.8442384
8.864126
8.8839943
8.9038333
8.9557808
8.9360734
8.9163337
8.896573
8.8768035
8.8570377
8.8372882
8.8175664
8.7978832
8.7782488
8.7586727
8.7391622
8.7197241
8.7003646
8.6810884
8.6618989
8.6427993
8.6237911
8.6048758
8.5860536
8.5673247
8.5486883
8.5301447
8.5116911
8.4933265
8.4750492
8.456858
8.4387508
8.4207259
8.4027813
8.3849162
8.3671284
8.3494182
8.3317814
8.3142172
8.2967249
8.2793061
8.2619568
8.244679
8.2274702
8.2103344
8.1932707
8.1762794
8.1593598
8.1425146
8.1257437
8.1090497
8.1821621
8.198826
8.2155524
8.2323404
8.2491894
8.2660984
8.2830688
8.3001004
8.3171943
8.3343476
8.351561
8.3688343
8.3861706
8.4035689
8.4210318
8.4385609
8.4561589
8.4738265
8.4915664
8.5093807
8.5272724
8.5452434
8.5632965
8.5814333
8.5996566
8.6179685
8.6363715
8.6548665
8.6734547
8.6921374
8.7109152
8.7297869
8.7487516
8.7678071
8.7869508
8.8061777
8.8254825
8.8448584
8.8642976
8.8837906
8.903326
8.9228927
8.9424785
8.962069
8.9816507
9.0012098
9.0207339
9.1030761
9.0837765
9.064439
9.0450784
9.0257098
9.0063484
8.9870099
8.9677071
8.9484525
8.9292573
8.9101314
8.8910826
8.8721182
8.8532423
8.8344592
8.8157701
8.7971772
8.7786795
8.7602786
8.7419714
8.7237563
8.7056312
8.6875941
8.6696418
8.6517715
8.6339804
8.6162653
8.5986229
8.58105
8.5635435
8.5460996
8.5287159
8.5113896
8.4941183
8.4769032
8.4597372
8.442622
8.4255513
8.4085247
8.3915416
8.3746036
8.3577127
8.3408728
8.3240756
8.3073268
8.290621
8.2739576
8.3889018
8.4056214
8.4223626
8.4391338
8.4559282
8.4727457
8.4895944
8.5064778
8.523383
8.5403127
8.5572714
8.5742597
8.5912813
8.6083369
8.6254307
8.6425653
8.6597432
8.6769679
8.694243
8.7115724
8.7289611
8.7464129
8.763932
8.781524
8.7991898
8.8169343
8.8347615
8.8526748
8.8706785
8.8887752
8.9069684
8.9252589
8.9436468
8.9621322
8.9807149
8.999392
9.0181596
9.0370115
9.0559403
9.0749364
9.0939886
9.1130841
9.1322087
9.1513451
9.1704771
9.1895878
9.2086609
9.3452096
9.326292
9.3073425
9.2883791
9.2694209
9.2504856
9.2315916
9.2127525
9.193982
9.1752902
9.1566867
9.1381775
9.1197676
9.1014592
9.0832539
9.0651508
9.0471505
9.0292477
9.0114412
8.9937247
8.9760955
8.9585451
8.9410687
8.9236613
8.9063189
8.8890376
8.8718109
8.8546382
8.8375116
8.8204242
8.8033725
8.7863516
8.7693591
8.7523908
8.7354424
8.7185064
8.7015812
8.6846647
8.6677579
8.6508582
8.6339673
8.6170829
8.6002066
8.5833368
8.5664747
8.5496174
8.5327606
8.7117173
8.7288832
8.746015
8.763126
8.7802186
8.7972944
8.8143577
8.8314026
8.8484331
8.865449
8.8824553
8.8994511
8.9164316
8.9334032
8.9503745
8.9673504
8.9843406
9.0013453
9.0183704
9.0354122
9.052484
9.069592
9.0867392
9.1039359
9.1211859
9.1384962
9.1558686
9.1733127
9.1908377
9.2084496
9.2261562
9.2439643
9.2618769
9.2798976
9.2980303
9.3162749
9.3346318
9.3530989
9.37167
9.3903394
9.4090979
9.4279328
9.4468312
9.4657738
9.4847425
9.5037171
9.5226799
9.7537647
9.7343633
9.714992
9.6956691
9.6764143
9.6572443
9.6381766
9.619222
9.6003902
9.5816892
9.5631217
9.5446881
9.5263885
9.508218
9.490173
9.4722441
9.4544254
9.4367094
9.4190873
9.4015492
9.3840867
9.36669
9.3493503
9.3320581
9.3148071
9.297588
9.2803938
9.2632235
9.2460649
9.2289071
9.2117509
9.194588
9.1774143
9.160219
9.1429977
9.1257522
9.1084863
9.091186
9.0738562
9.056483
9.0390747
9.0216206
9.0041313
8.9865955
8.9690123
8.9513754
9.2252291
9.2437113
9.2621076
9.2804336
9.2986971
9.3169012
9.3350467
9.3531225
9.3711321
9.3890867
9.4069864
9.4248416
9.4426604
9.4604284
9.4781573
9.4958601
9.5135363
9.5311935
9.548829
9.566459
9.5840976
9.6017457
9.6194117
9.637106
9.6548382
9.6726185
9.6904589
9.7083743
9.7263701
9.7444617
9.7626645
9.7809889
9.7994461
9.8180502
9.8368122
9.8557404
9.8748393
9.8941161
9.9135743
9.9332132
9.9530279
9.9730135
9.9931566
10.013442
10.033856
10.054383
10.44437
10.421625
10.399141
10.376925
10.354981
10.333316
10.311934
10.290828
10.269994
10.249421
10.229098
10.209007
10.189132
10.169455
10.149959
10.130625
10.111436
10.092373
10.073422
10.054561
10.035778
10.017052
9.9983699
9.9797182
9.9610875
9.9424646
9.9238392
9.9052106
9.8865602
9.8678753
9.849153
9.8303859
9.8115731
9.7927068
9.7737828
9.7547943
9.7357403
9.7166133
9.6974136
9.6781378
9.6587957
9.6393746
9.6198844
9.6003037
9.5806227
9.9902493
10.011898
10.033419
10.054842
10.076189
10.097466
10.11866
10.139769
10.1608
10.181746
10.202622
10.223411
10.244129
10.264788
10.2854
10.305959
10.326475
10.346945
10.367387
10.387824
10.408255
10.428691
10.44915
10.469639
10.490178
10.510787
10.531487
10.552297
10.57324
10.594342
10.615628
10.637122
10.658855
10.680849
10.703138
10.725752
10.748722
10.772078
10.795845
10.820046
10.844704
10.869834
10.895445
10.921551
10.948165
11.595601
11.56274
11.530771
11.499645
11.469322
11.439759
11.410916
11.382743
11.355188
11.328201
11.30173
11.275724
11.250137
11.224917
11.200024
11.175412
11.151045
11.12689
11.102916
11.079092
11.055396
11.031799
11.008283
10.98482
10.9614
10.937999
10.9146
10.891207
10.867796
10.844352
10.820871
10.797345
10.773771
10.750143
10.726467
10.702722
10.678914
10.655028
10.631074
10.607035
10.582914
10.558713
10.534436
10.510079
10.48563
11.079464
11.107861
11.136184
11.164458
11.192689
11.22087
11.249001
11.277089
11.30514
11.333154
11.361136
11.389088
11.417018
11.444928
11.472824
11.500711
11.528603
11.556493
11.584409
11.612375
11.640383
11.668459
11.696622
11.724891
11.753298
11.781871
11.810636
11.839618
11.868863
11.898416
11.92832
11.958629
11.989399
12.020694
12.052586
12.085146
12.118458
12.152604
12.18767
12.223744
12.260914
12.299259
12.338864
12.379817
13.412327
13.358301
13.306271
13.2561
13.207658
13.160822
13.115459
13.071439
13.02863
12.98691
12.946153
12.906257
12.867118
12.828651
12.790773
12.753421
12.716528
12.680045
12.643915
12.608095
12.572549
12.537246
12.502156
12.467255
12.432519
12.39793
12.363484
12.329148
12.294902
12.260742
12.226654
12.192645
12.158695
12.124807
12.090958
12.057156
12.023387
11.98966
11.95595
11.922256
11.888579
11.854937
11.821303
11.787661
12.626048
12.66644
12.706922
12.747524
12.788256
12.829124
12.870103
12.911218
12.952497
12.993964
13.035582
13.077372
13.119364
13.161574
13.203997
13.246642
13.28953
13.332658
13.376062
13.419779
13.463813
13.50819
13.552939
13.598088
13.643684
13.689748
13.736339
13.783513
13.831335
13.879876
13.92922
13.97945
14.030668
14.082996
14.136561
14.191511
14.248015
14.306249
14.366378
14.428577
14.493014
14.559829
16.003567
15.917638
15.834619
15.754369
15.676713
15.601453
15.528384
15.457303
15.388024
15.320376
15.254208
15.189389
15.125806
15.063357
15.001953
14.941512
14.881973
14.823261
14.765327
14.70811
14.651564
14.595652
14.540341
14.485616
14.431425
14.377731
14.324514
14.271746
14.219412
14.167488
14.115959
14.064801
14.014002
13.963543
13.913413
13.863593
13.814071
13.76483
13.715863
13.667152
13.618677
14.79998
14.857697
14.915752
14.974185
15.033018
15.092272
15.151966
15.212128
15.272786
15.333959
15.395675
15.457966
15.520872
15.58442
15.648645
15.713587
15.779301
15.845806
15.913179
15.981494
16.050788
16.121118
16.192554
16.265169
16.339046
16.414275
16.490933
16.569128
16.648983
16.730625
16.814196
16.899837
16.987719
17.078022
17.170963
17.26677
17.365663
17.467852
17.573493
17.682691
17.795427
19.681901
19.54466
19.412036
19.284135
19.160882
19.04208
18.92746
18.816731
18.709598
18.605784
18.505026
18.407087
18.311742
18.218785
18.128027
18.039307
17.952447
17.867309
17.78374
17.701611
17.620813
17.541248
17.462845
17.385489
17.309083
17.233565
17.158866
17.084934
17.011708
16.939167
16.867228
16.795848
16.724996
16.654676
16.584819
16.515388
16.446367
16.377738
16.309477
16.241556
18.0798
18.161227
18.242737
18.324346
18.406057
18.48789
18.569783
18.651796
18.733979
18.816284
18.89872
18.981331
19.064084
19.147053
19.2303
19.313831
19.397715
19.481962
19.566696
19.652036
19.738048
19.824843
19.912563
20.001362
20.091422
20.182946
20.276175
20.371371
20.468847
20.568933
20.672021
20.778535
20.888951
21.003789
21.12361
21.248985
21.380461
21.51849
21.663309
21.814904
24.120564
24.025785
23.937456
23.854427
23.775552
23.699722
23.625904
23.553201
23.480851
23.408248
23.334907
23.260489
23.184674
23.107284
23.028145
22.94716
22.864299
22.779564
22.692979
22.604626
22.514509
22.422677
22.329281
22.234342
22.137934
22.040164
21.941129
21.840929
21.739656
21.637408
21.534268
21.430322
21.32566
21.220423
21.114638
21.008351
20.901657
20.794631
20.687336
20.57983
24.081667
24.252043
24.422945
24.594257
24.76585
24.937598
25.109265
25.280719
25.451802
25.622286
25.791816
25.960202
26.127185
26.292466
26.455704
26.616532
26.77461
26.929422
27.080555
27.227421
27.369487
27.506156
27.63677
27.760642
27.876997
27.984928
28.083507
28.171719
28.248492
28.312684
28.36297
28.39811
28.416639
28.417063
28.397824
28.357234
28.293525
28.204893
28.089471
27.94614
8.9482091
8.9263176
8.904539
8.8828713
8.8613123
8.83986
8.8185117
8.7972652
8.7761181
8.7550677
8.7341115
8.7132473
8.6924724
8.6717847
8.651182
8.630662
8.6102228
8.5898628
8.5695802
8.5493735
8.5292413
8.5091827
8.4891965
8.4692821
8.4494386
8.4296658
8.4099632
8.3903306
8.370768
8.3512754
8.3318529
8.3125007
8.2932191
8.2740086
8.2548696
8.2358023
8.2168076
8.1978858
8.1790376
8.1602635
8.1415643
8.1229405
8.1043929
8.0859224
8.0675296
8.0492154
8.0309807
8.0128264
7.9947538
7.9767638
7.958858
7.9410374
7.9233037
7.9056579
7.8881024
7.8706384
7.8532688
7.835995
7.8188206
7.8017476
7.7847805
7.7679232
7.7296659
7.7304053
7.7310932
7.7317196
7.7322896
7.7327937
7.7332456
7.7336503
7.7340287
7.7343435
7.7345579
7.7506463
7.7505922
7.7503781
7.7500639
7.7496846
7.7492743
7.7488148
7.7483067
7.7477306
7.7470969
7.7464013
7.7456499
7.7448317
7.7439463
7.7430075
7.7420314
7.7549958
7.756082
7.7571386
7.7581546
7.759134
7.760074
7.7609596
7.7617858
7.762546
7.7632475
7.763887
7.7644669
7.7649828
7.7654484
7.7658634
7.7662437
7.7665578
7.7667728
7.7668301
7.7831547
7.7830881
7.782872
7.7825572
7.7821758
7.7817565
7.7812856
7.7807624
7.7801788
7.7795341
7.7788277
7.778061
7.7772319
7.7763447
7.7754039
7.7744218
7.7734002
7.7723411
7.7712497
7.7701363
7.7689972
7.7842281
7.7853831
7.786527
7.7876451
7.7887382
7.7897971
7.7908217
7.7918058
7.7927476
7.7936369
7.7944691
7.7952406
7.7959514
7.7965989
7.797189
7.797718
7.7981934
7.7986167
7.7989993
7.7993145
7.7995318
7.7996049
7.8161814
7.8161
7.815881
7.8155656
7.8151821
7.814755
7.814275
7.8137409
7.8131453
7.812495
7.8117795
7.8110041
7.8101691
7.8092777
7.8083345
7.8073489
7.8063223
7.8052636
7.8041697
7.8030502
7.8019029
7.8007393
7.7915534
7.792844
7.7941029
7.7953387
7.7965537
7.7977486
7.7989521
7.8001685
7.8013927
7.8026247
7.8038648
7.8051143
7.8063638
7.8076164
7.8088642
7.810107
7.8113422
7.8125683
7.8137866
7.8149974
7.8161982
7.8173807
7.8185476
7.8196968
7.8208182
7.8219127
7.8229723
7.8239999
7.8249865
7.825931
7.8268243
7.827662
7.828441
7.8291594
7.8298148
7.830415
7.8309535
7.8314375
7.8318681
7.8322525
7.8325684
7.8327887
7.8328756
7.8496883
7.8495946
7.8493732
7.8490566
7.8486713
7.8482375
7.84775
7.8472073
7.8466032
7.8459428
7.8452218
7.8444392
7.8435989
7.8427037
7.841758
7.8407704
7.8397419
7.8386811
7.8375859
7.8364629
7.8353124
7.8341436
7.8329555
7.8317526
7.8305395
7.8293174
7.8280899
7.8268525
7.8256076
7.8243579
7.8231043
7.8218529
7.820602
7.8193603
7.8181257
7.8168983
7.8156776
7.8144672
7.813262
7.8120419
7.8107998
7.8095359
7.8082367
7.8069114
7.8055262
7.8041054
7.8026336
7.8010783
7.7994581
7.7977433
7.7959547
7.7783367
7.7806587
7.7830492
7.7854744
7.7879294
7.7903913
7.7928522
7.7952886
7.7976903
7.8000504
7.8023609
7.8046105
7.8067674
7.8088469
7.8108267
7.8127228
7.8145185
7.8162374
7.8178635
7.8194232
7.8209016
7.8223276
7.8237151
7.8250476
7.8263533
7.8276187
7.8288699
7.8300933
7.8313085
7.8325251
7.8337504
7.8349806
7.8362179
7.8374609
7.8387132
7.8399662
7.8412208
7.8424723
7.8437192
7.8449591
7.8461886
7.8474129
7.8486285
7.8498328
7.8510228
7.8521934
7.8533446
7.854469
7.8555652
7.8566277
7.8576568
7.8586456
7.8595921
7.8604892
7.8613323
7.8621167
7.8628421
7.8635066
7.8641141
7.8646607
7.8651513
7.8655881
7.8659743
7.8662916
7.8665139
7.8666122
7.8836478
7.8835438
7.8833202
7.8830026
7.8826155
7.8821759
7.8816821
7.8811322
7.8805217
7.8798532
7.8791241
7.8783377
7.8774921
7.8765931
7.8756454
7.8746556
7.8736258
7.8725616
7.8714642
7.8703387
7.8691869
7.8680148
7.8668234
7.8656178
7.8644
7.8631734
7.861941
7.8607
7.8594514
7.8581982
7.8569422
7.855688
7.8544344
7.8531897
7.8519502
7.8507169
7.8494879
7.8482656
7.8470437
7.8458135
7.8445579
7.8432865
7.8419779
7.8406398
7.8392503
7.8378195
7.8363345
7.8347707
7.8331388
7.8314161
7.8296141
7.8277108
7.8257251
7.8236398
7.8214778
7.8192237
7.8169058
7.8145369
7.8121238
7.8096746
7.8072056
7.8047332
7.8022708
7.799837
7.7974403
7.7951095
7.7928409
7.7906559
7.7885487
7.7865422
7.7846252
7.7828177
7.7811048
7.7795018
7.7780169
7.7766535
7.7753853
7.774224
7.7731605
7.7721904
7.7713193
7.770545
7.7698746
7.7693079
7.7688602
7.7685226
7.7682834
7.7680961
7.7849415
7.7851242
7.7853681
7.7857069
7.7861597
7.7867256
7.7873992
7.7881711
7.7890451
7.7900135
7.7910817
7.7922459
7.793514
7.7948829
7.7963703
7.7979754
7.7996867
7.8014988
7.8034161
7.8054281
7.8075368
7.8097287
7.8120028
7.8143425
7.8167435
7.8191878
7.8216543
7.8241363
7.8266145
7.829078
7.8315002
7.8338787
7.8362031
7.8384626
7.8406311
7.8427217
7.8447134
7.8466215
7.8484293
7.8501558
7.8517932
7.853361
7.8548521
7.8562879
7.8576791
7.8590233
7.8603339
7.8616117
7.86287
7.8641078
7.8653347
7.8665619
7.8677943
7.8690308
7.8702723
7.8715189
7.8727734
7.8740288
7.875286
7.8765405
7.8777899
7.8790328
7.8802682
7.8814968
7.8827164
7.8839238
7.8851161
7.8862896
7.887442
7.8885688
7.8896674
7.8907331
7.8917637
7.8927547
7.8937035
7.8946041
7.8954513
7.896241
7.8969731
7.897645
7.8982583
7.8988114
7.8993083
7.8997504
7.9001385
7.9004567
7.9006813
7.9007891
7.918036
7.9179239
7.9176983
7.9173793
7.9169902
7.9165456
7.9160462
7.91549
7.914874
7.9141989
7.9134641
7.9126713
7.9118223
7.9109203
7.9099706
7.9089781
7.9079466
7.9068796
7.9057801
7.9046519
7.9034987
7.9023238
7.9011306
7.8999216
7.8987004
7.8974701
7.8962323
7.8949872
7.8937369
7.8924814
7.8912231
7.8899665
7.888711
7.8874626
7.8862191
7.8849794
7.8837439
7.8825121
7.8812808
7.8800358
7.8787749
7.877491
7.8761787
7.8748289
7.8734348
7.8719952
7.8704981
7.8689268
7.8672839
7.8655539
7.8637404
7.8618278
7.8598299
7.8577341
7.8555586
7.8532935
7.8509614
7.8485742
7.8461429
7.8436679
7.8411795
7.8386893
7.8362154
7.8337632
7.8313566
7.8290081
7.8267305
7.8245313
7.8224209
7.8204031
7.8184853
7.8166686
7.8149585
7.8133511
7.8118611
7.8104868
7.8092176
7.8080497
7.8069804
7.8060103
7.8051365
7.8043635
7.8036902
7.8031215
7.8026674
7.8023243
7.8020798
7.8018973
7.8189609
7.8191424
7.8193862
7.8197345
7.8201887
7.8207612
7.8214334
7.8222087
7.8230812
7.8240544
7.8251231
7.8262934
7.827565
7.8289444
7.8304379
7.8320475
7.8337567
7.8355783
7.8374969
7.8395207
7.8416332
7.8438395
7.8461208
7.8484777
7.8508905
7.8533495
7.8558329
7.8583308
7.8608294
7.8633138
7.8657551
7.8681515
7.8704912
7.8727625
7.874945
7.8770462
7.8790502
7.8809674
7.8827866
7.8845201
7.8861682
7.8877431
7.8892456
7.8906891
7.8920852
7.8934404
7.8947545
7.8960441
7.8973073
7.8985588
7.8997947
7.9010306
7.9022694
7.903512
7.9047576
7.9060078
7.9072643
7.9085219
7.9097814
7.9110379
7.9122897
7.9135364
7.914776
7.9160082
7.9172308
7.9184412
7.9196354
7.9208114
7.9219655
7.9230949
7.9241953
7.9252637
7.9262962
7.9272901
7.9282409
7.9291445
7.9299955
7.9307907
7.931528
7.9322058
7.9328245
7.9333836
7.9338853
7.9343321
7.9347224
7.9350421
7.9352685
7.9353837
7.9528316
7.9527129
7.9524856
7.9521653
7.9517737
7.9513251
7.950821
7.9502595
7.9496382
7.9489579
7.9482182
7.9474208
7.9465679
7.9456629
7.9447107
7.9437156
7.9426818
7.9416123
7.9405108
7.9393804
7.9382252
7.9370483
7.9358531
7.9346415
7.9334174
7.9321837
7.9309423
7.9296943
7.9284409
7.9271831
7.9259226
7.924664
7.9234066
7.9221546
7.9209068
7.9196617
7.9184197
7.9171797
7.9159389
7.9146832
7.9134159
7.9121228
7.9108051
7.9094472
7.9080483
7.9066005
7.9050925
7.9035143
7.9018611
7.9001241
7.8982991
7.8963774
7.8943672
7.8922605
7.890071
7.8877936
7.885446
7.8830405
7.8805894
7.878096
7.8755885
7.8730819
7.870589
7.8681228
7.8657026
7.8633395
7.8610522
7.8588408
7.8567237
7.8546961
7.852774
7.8509495
7.8492383
7.8476276
7.8461311
7.8447483
7.8434743
7.8423007
7.8412299
7.8402559
7.8393821
7.8386068
7.8379332
7.8373593
7.8369028
7.8365516
7.8363064
7.8361268
7.853394
7.8535703
7.8538174
7.8541707
7.8546299
7.8552047
7.8558804
7.856655
7.8575311
7.8585052
7.859579
7.8607566
7.8620331
7.863419
7.8649172
7.8665294
7.8682435
7.8700709
7.8719971
7.8740283
7.8761507
7.8783669
7.8806609
7.8830295
7.885458
7.8879308
7.8904337
7.8929498
7.8954655
7.8979671
7.9004279
7.9028424
7.9051978
7.9074815
7.9096781
7.9117905
7.9138067
7.915733
7.9175637
7.9193041
7.9209626
7.9225438
7.924057
7.9255092
7.9269109
7.9282713
7.9295927
7.9308889
7.9321603
7.9334195
7.9346652
7.9359087
7.9371539
7.9384011
7.9396513
7.9409048
7.9421631
7.9434229
7.9446842
7.9459433
7.9471981
7.9484475
7.9496907
7.9509258
7.9521514
7.9533639
7.9545605
7.9557382
7.9568946
7.9580258
7.9591285
7.9601989
7.961234
7.9622302
7.9631839
7.9640902
7.9649451
7.9657443
7.9664865
7.967169
7.9677928
7.9683565
7.9688629
7.9693131
7.969706
7.9700268
7.9702551
7.9703761
7.9880166
7.9878932
7.9876638
7.9873422
7.9869481
7.9864963
7.9859879
7.9854221
7.9847961
7.9841114
7.983367
7.9825657
7.9817091
7.9808014
7.9798463
7.9788491
7.9778127
7.9767414
7.9756376
7.9745055
7.973348
7.9721694
7.9709717
7.969758
7.9685311
7.9672945
7.9660497
7.9647989
7.9635427
7.9622825
7.9610204
7.9597596
7.9585002
7.9572451
7.955993
7.9547435
7.9534955
7.9522486
7.9509985
7.949736
7.9484605
7.9471614
7.9458361
7.9444735
7.9430688
7.9416119
7.940095
7.9385096
7.9368473
7.935103
7.9332665
7.9313355
7.9293131
7.9271951
7.9249914
7.9227014
7.920338
7.9179147
7.9154444
7.9129347
7.9104106
7.9078842
7.9053733
7.9028922
7.9004572
7.8980822
7.8957811
7.8935599
7.891432
7.889397
7.8874663
7.885636
7.8839185
7.8823045
7.8808039
7.8794156
7.8781359
7.8769549
7.8758791
7.8749028
7.8740263
7.8732513
7.8725733
7.8719977
7.8715357
7.8711807
7.8709317
7.8707574
7.8882164
7.8883882
7.888639
7.8889957
7.8894604
7.8900366
7.8907175
7.8914937
7.8923694
7.8933488
7.8944257
7.8956093
7.8968925
7.8982842
7.8997874
7.9014039
7.9031249
7.9049584
7.9068937
7.9089328
7.9110664
7.9132926
7.9156009
7.9179833
7.9204237
7.9229137
7.9254316
7.9279684
7.9305009
7.9330189
7.9354985
7.9379307
7.9403019
7.9425984
7.9448092
7.946933
7.9489615
7.9508969
7.9527394
7.9544883
7.9561533
7.9577434
7.959263
7.9607245
7.9621324
7.9634975
7.9648265
7.9661285
7.9674079
7.9686732
7.9699277
7.9711778
7.9724285
7.9736799
7.9749341
7.9761907
7.9774511
7.978713
7.9799759
7.9812373
7.982495
7.9837471
7.9849936
7.9862314
7.9874597
7.9886743
7.9898733
7.9910528
7.9922114
7.9933443
7.9944492
7.9955214
7.996559
7.9975573
7.9985138
7.9994229
8.0002811
8.0010843
8.0018307
8.0025177
8.0031456
8.0037134
8.0042236
8.0046771
8.0050722
8.0053945
8.0056247
8.0057498
8.0235752
8.0234481
8.0232172
8.0228941
8.0224981
8.0220431
8.0215312
8.0209616
8.0203319
8.0196429
8.0188945
8.0180894
8.0172296
8.0163191
8.0153614
8.0143619
8.0133231
8.0122498
8.0111439
8.01001
8.0088505
8.00767
8.0064701
8.0052544
8.0040249
8.0027858
8.0015378
8.0002842
7.9990252
7.9977628
7.9964989
7.9952359
7.9939745
7.9927162
7.9914602
7.9902067
7.9889536
7.9877005
7.9864426
7.985174
7.9838907
7.9825859
7.981253
7.9798854
7.9784739
7.9770091
7.9754859
7.9738923
7.9722233
7.9704698
7.9686227
7.9666823
7.9646478
7.9625183
7.9603003
7.9579971
7.955618
7.9531773
7.9506885
7.948162
7.9456206
7.9430752
7.940549
7.9380513
7.9356041
7.9332146
7.9309
7.9286679
7.9265283
7.9244851
7.9225448
7.9207078
7.918983
7.9173641
7.9158578
7.9144629
7.913176
7.9119899
7.9109108
7.9099301
7.9090533
7.9082753
7.9075935
7.9070159
7.9065485
7.9061902
7.9059373
7.905767
7.9234093
7.9235775
7.9238323
7.9241921
7.9246622
7.9252418
7.9259238
7.9267037
7.9275819
7.9285642
7.9296457
7.9308342
7.9321247
7.9335232
7.9350325
7.9366543
7.9383831
7.9402238
7.9421693
7.9442167
7.9463626
7.9486013
7.9509215
7.9533176
7.9557724
7.9582779
7.9608124
7.9633663
7.9659165
7.9684514
7.9709491
7.9733982
7.9757853
7.9780949
7.98032
7.9824552
7.9844959
7.9864417
7.9882926