/*--------------------------------*- C++ -*----------------------------------*\
| =========                 |                                                 |
| \\      /  F ield         | OpenFOAM: The Open Source CFD Toolbox           |
|  \\    /   O peration     | Version:  v2012                                 |
|   \\  /    A nd           | Website:  www.openfoam.com                      |
|    \\/     M anipulation  |                                                 |
\*---------------------------------------------------------------------------*/
FoamFile
{
    version     2.0;
    format      ascii;
    class       volScalarField;
    location    "184";
    object      nut;
}
// * * * * * * * * * * * * * * * * * * * * * * * * * * * * * * * * * * * * * //

dimensions      [0 2 -1 0 0 0 0];


internalField   nonuniform List<scalar> 
24571
(
0.033475716
0.033475392
0.033515374
0.033515224
0.033515765
0.033515734
0.03351648
0.033516341
0.033516701
0.033516586
0.033516628
0.033516628
0.033516586
0.033516701
0.033516341
0.03351648
0.033515734
0.033515765
0.033515224
0.033515374
0.033515046
0.033515331
0.033515083
0.033515343
0.033515289
0.033515335
0.033515308
0.033515294
0.033515286
0.033515287
0.033515289
0.033515292
0.033515294
0.033515296
0.033515298
0.033515299
0.0335153
0.033515301
0.033515302
0.033515303
0.033515304
0.033515304
0.033515304
0.033515304
0.033515303
0.033515302
0.033515302
0.033515303
0.033515312
0.033515327
0.033515356
0.033515312
0.033515366
0.033515108
0.033515355
0.033515072
0.033515399
0.033515249
0.033515803
0.033515803
0.033516593
0.033516519
0.033516948
0.033516909
0.033517018
0.033517068
0.03351705
0.033517149
0.033516746
0.033516804
0.033515987
0.033515947
0.033515374
0.033515525
0.033515208
0.033515498
0.033515265
0.033515534
0.033515492
0.033515544
0.033515521
0.033515507
0.03351551
0.033515614
0.033516035
0.033516946
0.033518251
0.033519627
0.033520437
0.033520482
0.033520474
0.033520462
0.033520451
0.03352044
0.033520425
0.033520359
0.03351953
0.033518136
0.033516815
0.033515889
0.033515455
0.033515338
0.033515326
0.033515333
0.033515355
0.033515305
0.033515354
0.03351509
0.033515335
0.033515048
0.033475248
0.033474897
0.033474935
0.033475015
0.033475163
0.033475214
0.033475239
0.03347524
0.033475287
0.033475611
0.033476781
0.033479243
0.033482727
0.033486342
0.033488464
0.033488678
0.033488722
0.033488751
0.033488781
0.033488811
0.033488827
0.033488671
0.0334866
0.033483035
0.0334796
0.03347719
0.033476073
0.033475801
0.033475803
0.033475846
0.033475861
0.033475844
0.033475724
0.033475671
0.033475648
0.033476014
0.033476161
0.033476516
0.033436531
0.033395906
0.033357863
0.033326911
0.033310738
0.03332175
0.03337387
0.027119016
0.017919144
0.010342614
0.0076150168
0.0058051671
0.0036260707
0.0021235686
0.0014505612
0.0011268794
0.001279213
0.00063734971
0.00079911516
0.0012461458
0.0027144848
0.0025869595
0.003219412
0.0032663452
0.0033246404
0.0037434004
0.0038062203
0.0038589697
0.0039281101
0.0043033373
0.0043785286
0.004445548
0.0045102803
0.004573383
0.0046377049
0.004713485
0.0050154785
0.0050925584
0.0051559959
0.0052187579
0.0052758563
0.0054722711
0.0061044134
0.0065132418
0.0065706288
0.0066177719
0.0066661088
0.0067397336
0.0068585529
0.006941432
0.0070116377
0.0070702523
0.0071214243
0.0071700303
0.0072168895
0.007262654
0.0073075685
0.0073521037
0.0073960554
0.0074401155
0.0074835963
0.0075280134
0.0075712397
0.0076153124
0.0076586037
0.0077021492
0.0077461652
0.0077905113
0.0078374872
0.0078896272
0.0079763477
0.008196952
0.0086324571
0.0087363026
0.0087905562
0.0088399714
0.0088866145
0.008921638
0.032538728
0.032568878
0.032597226
0.032623725
0.032648928
0.032673959
0.032700005
0.032727949
0.032758272
0.032791069
0.032826177
0.032863309
0.032902143
0.032942382
0.032983779
0.033026144
0.033069341
0.033113292
0.033157966
0.03320336
0.03324944
0.033296023
0.033342734
0.033388727
0.033433276
0.033432986
0.03343215
0.0334323
0.033432207
0.033432471
0.03343253
0.033432597
0.033432619
0.033432718
0.033433281
0.033435234
0.03343929
0.033444987
0.033450797
0.033454173
0.033454606
0.033454698
0.033454757
0.033454817
0.033454879
0.033454906
0.033454587
0.033451316
0.033445612
0.033440035
0.033436111
0.0334343
0.033433886
0.033433941
0.033434077
0.033434174
0.033434282
0.033434186
0.033434438
0.033434424
0.03343536
0.033435709
0.033394959
0.033356822
0.033325703
0.033309208
0.033320264
0.033373606
0.025560176
0.016422383
0.010287668
0.010180501
0.010966016
0.011832438
0.014019021
0.008362069
0.0077115016
0.0070636247
0.0085063599
0.0050766789
0.0032229256
0.0020238151
0.0018637808
0.0021314331
0.0012387548
0.0014217413
0.0015265604
0.001029602
0.0015692999
0.00070823342
0.00078831567
0.0010632437
0.0018478447
0.0024408
0.0031806262
0.0032426026
0.0032856604
0.003708284
0.0037983196
0.0038648612
0.0039194734
0.0043118141
0.0044314644
0.0045119109
0.0045810282
0.0046447731
0.0047105523
0.004764989
0.0050728087
0.0051665229
0.0052290911
0.0052871652
0.0053098245
0.0053709479
0.0054987814
0.0054492445
0.0054191947
0.005370722
0.0053305577
0.0049442621
0.0048876692
0.0048425506
0.0047968242
0.0047533245
0.0047081373
0.0047016687
0.0041987539
0.0041517906
0.0041230668
0.0040949487
0.0035331253
0.0034978564
0.0021375371
0.002168214
0.0014290009
0.0010039227
0.00060817856
0.00076722785
0.001564086
0.0012543047
0.0012118802
0.0012345689
0.00066413934
0.00068864097
0.00055343246
0.00041896333
0.00056560011
0.00065284215
0.00061787473
0.00057704544
0.00065153609
0.00079898858
0.00099293834
0.0015482057
0.0023519909
0.0033408469
0.0034173601
0.0039740959
0.0040200258
0.0040726015
0.0041363617
0.0041997988
0.004610748
0.0046981307
0.0047646106
0.0048258258
0.004886405
0.0049475003
0.0050093437
0.0050685264
0.0053348309
0.0054525494
0.0055154714
0.0055679962
0.005638738
0.0061525553
0.006031264
0.0063939465
0.0064971147
0.006565067
0.0065723908
0.0065700395
0.0066042038
0.0065831116
0.006589036
0.0066500809
0.0066465191
0.0066735446
0.0067098782
0.0067837392
0.0069129901
0.006978947
0.007033077
0.0070839085
0.0071334413
0.0071817448
0.0072294257
0.0072763519
0.0073230519
0.0073691607
0.0074150532
0.0074605372
0.0075067971
0.0075519189
0.0075976099
0.0076424098
0.0076868659
0.0077316826
0.0077769443
0.0078271394
0.0078720634
0.007878686
0.0078651319
0.0078267279
0.0078351666
0.0078316868
0.0078075269
0.0078275529
0.0078266706
0.0078047994
0.0078034509
0.0078996179
0.0078578337
0.0078560025
0.0079046423
0.0078884031
0.0078647146
0.0079322314
0.0078997067
0.007881235
0.0079247732
0.0079128749
0.0079228311
0.0080107336
0.0080769903
0.0085295311
0.0080887661
0.0079383477
0.0079707287
0.0081320081
0.0085472183
0.0081485771
0.0079793139
0.0079386832
0.0080581369
0.0081089371
0.0084070626
0.0080602614
0.0079026385
0.0080195258
0.0082108961
0.0078446999
0.0077055099
0.0076684988
0.0076200817
0.0077063871
0.0077937048
0.0079348406
0.0076656952
0.0075540953
0.0075341859
0.0075098507
0.0074785677
0.0074488995
0.0074114747
0.0073807731
0.0073391088
0.0073146611
0.007379789
0.0074721781
0.0074823103
0.007531026
0.0075421481
0.0075749643
0.0075923399
0.0076173436
0.007720893
0.007663174
0.0076313492
0.0075863024
0.0075237742
0.0074699739
0.0074201643
0.0073730185
0.0073275798
0.0071870686
0.006967776
0.0069292168
0.0068872471
0.0068411259
0.0067997633
0.0066804344
0.0066418257
0.0065991245
0.006556524
0.0065149148
0.0064750461
0.0064404823
0.0063947479
0.0062657927
0.006227322
0.0062006078
0.006186911
0.0061424532
0.0061509505
0.0061681498
0.0061705483
0.0063556588
0.0059953886
0.0052215752
0.00430006
0.0038385898
0.0031092877
0.001929595
0.0019239855
0.0011582515
0.0017784421
0.0018879936
0.0023116229
0.0030802749
0.0048783689
0.0060392677
0.008555042
0.010807066
0.012727642
0.0070014443
0.005192895
0.0037953059
0.0025984611
0.0016607357
0.0021559254
0.0019995239
0.0023109213
0.0027554967
0.0016335295
0.0019906185
0.0020576421
0.0025788349
0.0029971421
0.0014730706
0.0034861176
0.0031844833
0.0042467419
0.005947838
0.0067544576
0.0067387967
0.0063690804
0.0065541008
0.0065221539
0.0065216257
0.0065564044
0.0065862975
0.0065926589
0.0066082354
0.0066289308
0.0065508606
0.0067050984
0.0067406364
0.0067808943
0.0068216055
0.0068620906
0.0069029762
0.0069486594
0.007043631
0.0070901674
0.007126151
0.0071572045
0.0071866959
0.0073868004
0.0076364722
0.0076113868
0.0074552561
0.0074165302
0.0073833473
0.0073525134
0.0072911643
0.0072620516
0.0072306507
0.0071997199
0.0071711984
0.0071461134
0.0071281321
0.0070903204
0.0070325639
0.0070065487
0.0069949008
0.0070024358
0.0070429861
0.0070556416
0.0070800393
0.0071443781
0.0073630162
0.0074624074
0.0048529126
0.0056010346
0.0046224527
0.0043171033
0.0052209337
0.0065651097
0.007477391
0.0076392594
0.0077463193
0.0075597239
0.007583149
0.007557473
0.0075230921
0.0075037345
0.0074832751
0.0074775288
0.0074771971
0.0074837255
0.0073059414
0.0074948211
0.0075054213
0.0075270033
0.0075499368
0.0075741314
0.0075994967
0.0076289559
0.0076789965
0.007713867
0.007735858
0.0077641333
0.0078113099
0.0077608965
0.0078305481
0.0079605508
0.0078537538
0.0080764716
0.0080576326
0.0080324055
0.0080045604
0.007989903
0.0079603568
0.0079465292
0.0079315978
0.0079182706
0.0079081465
0.0079025917
0.0079034385
0.0078938884
0.0078844493
0.0078849212
0.0078967642
0.0079192435
0.0079243873
0.0079734608
0.0080191745
0.0080958974
0.0083620722
0.0083666354
0.0077833874
0.0059320994
0.0047458675
0.0046669077
0.0039091731
0.004055655
0.0063687774
0.0071725762
0.0068928013
0.0063677674
0.0024860955
0.0042780128
0.0044355726
0.0074930734
0.0045288521
0.0055802457
0.0046229497
0.0065925315
0.0032673204
0.0021862505
0.0018782401
0.0020566509
0.0018484281
0.0018019805
0.0030945202
0.0039904316
0.0045444344
0.0054311907
0.0056723425
0.0053714976
0.0078833549
0.0091586278
0.0081859829
0.0058739765
0.0070311797
0.008701578
0.0087159925
0.0090174414
0.0089130938
0.0085707926
0.0085234026
0.0084550005
0.0084011681
0.008130702
0.0083148414
0.0082754573
0.0082588277
0.0082450613
0.0082329169
0.0080659031
0.0082202571
0.0082137948
0.0082182357
0.0082241043
0.0082311755
0.008240044
0.0082515559
0.0082781308
0.008293298
0.0083043685
0.0083132358
0.0083204076
0.0084385897
0.008207573
0.0082324179
0.0077370253
0.0077852473
0.0078339965
0.0078834058
0.0079318282
0.0079720821
0.0079960093
0.0080160071
0.0080544786
0.0078431686
0.0079071559
0.0080895604
0.0081569475
0.0083990099
0.0084782362
0.0086015298
0.008675485
0.0086480284
0.0086422658
0.0087047042
0.0087604119
0.0088121012
0.0088547714
0.013173427
0.013063406
0.012941374
0.012801093
0.012669766
0.012344507
0.012088285
0.01176355
0.011396042
0.010170039
0.0046793754
0.0031671483
0.0028730231
0.0026779339
0.0029803454
0.0026792522
0.0031958264
0.0019996502
0.0019340685
0.0026431122
0.0031482034
0.003023354
0.0042962808
0.0065246835
0.0077128459
0.0078427266
0.010089865
0.010517223
0.012885675
0.014879005
0.0078758119
0.0071259561
0.0062032268
0.0055128673
0.0048499159
0.0032911952
0.0031770175
0.0015884924
0.0026273512
0.0021099376
0.0020872148
0.0027487333
0.0020678454
0.0023709141
0.0028546412
0.0027103055
0.0029541062
0.0025985485
0.0026050018
0.0025550214
0.0036399701
0.0085731939
0.011051735
0.011524922
0.011754181
0.012137204
0.012421612
0.012630047
0.012784677
0.012928964
0.013083912
0.0099536285
0.0046835765
0.0035704179
0.002474902
0.0029338696
0.0026842121
0.0025225619
0.0022530829
0.0021704865
0.0021019027
0.0029385651
0.0051432509
0.011184012
0.011994861
0.01236821
0.012655102
0.012880126
0.013153976
0.0132795
0.010253689
0.010124949
0.010038427
0.0098899916
0.0098088242
0.0096608314
0.0087772962
0.0085095655
0.0084037276
0.0083887647
0.0083668295
0.0083413896
0.0083091488
0.0082747927
0.0082382025
0.0082014431
0.0081648963
0.0081295603
0.0080958484
0.0080644147
0.0080354319
0.0080100767
0.0079881594
0.0079711943
0.0079586777
0.0079522481
0.0079502188
0.0079525456
0.0079564128
0.0079748949
0.0080343321
0.0082226978
0.0089110894
0.0096597584
0.010000051
0.010208941
0.01171774
0.013193743
0.011588585
0.0099092564
0.0082639452
0.0079698602
0.0071152878
0.0072507644
0.007797578
0.0096847446
0.014409566
0.021394272
0.030844471
0.033339413
0.033300382
0.033299872
0.033321857
0.033355762
0.033395425
0.033436867
0.033477406
0.033477921
0.033478444
0.033478716
0.033478828
0.033478761
0.033478634
0.033478466
0.033478177
0.033477792
0.033477232
0.033476715
0.033476099
0.033475866
0.03343446
0.033390492
0.033345438
0.033300166
0.033255891
0.033213218
0.03317256
0.033134156
0.033098151
0.033064605
0.033033447
0.033004426
0.032977088
0.032950806
0.032924858
0.032898499
0.032871116
0.032842294
0.032811846
0.032779818
0.032746475
0.032712216
0.032677559
0.032643027
0.032609142
0.03257633
0.032544948
0.032515238
0.032533779
0.03256257
0.032592993
0.032624813
0.032657683
0.032691185
0.032724781
0.032757964
0.032790218
0.032821147
0.03285049
0.032878205
0.032904496
0.032929794
0.032954743
0.032980115
0.033006655
0.033035006
0.033065622
0.033098744
0.033134426
0.033172585
0.033213052
0.033255571
0.033299731
0.033344917
0.033390082
0.033434201
0.033434946
0.033390778
0.033345459
0.033300248
0.033256135
0.033213757
0.033173527
0.033135737
0.033100612
0.033068293
0.03303877
0.033011828
0.032987008
0.03296363
0.0329409
0.032917985
0.032894178
0.032869004
0.032842228
0.032813866
0.032784158
0.032753484
0.032722334
0.032691193
0.032660599
0.032630988
0.032602688
0.032575917
0.032649609
0.032673122
0.03269794
0.032723861
0.032750582
0.032777675
0.032804592
0.032830862
0.032856045
0.032879807
0.03290196
0.032922546
0.032941873
0.032960491
0.032979216
0.032998992
0.033020707
0.033045107
0.033072651
0.033103504
0.033137583
0.033174648
0.033214382
0.033256423
0.033300328
0.033345449
0.033390814
0.033435148
0.033436141
0.033391994
0.033346712
0.033301677
0.033257941
0.033216234
0.033177102
0.033141039
0.033108523
0.03307997
0.03305562
0.033035407
0.033018856
0.033005097
0.032993042
0.03298153
0.032969554
0.032956398
0.03294163
0.032925106
0.032906923
0.032887334
0.032866714
0.032845543
0.032824369
0.032803595
0.032783504
0.03276428
0.032926612
0.032941765
0.032956992
0.032972108
0.032986833
0.033000776
0.033013411
0.03302421
0.033032841
0.033039133
0.033043105
0.033045049
0.033045613
0.033045807
0.033047011
0.033050831
0.033058784
0.033072019
0.033091058
0.033115802
0.033145721
0.033180085
0.033218138
0.033259171
0.033302485
0.033347257
0.033392391
0.033436482
0.033437043
0.033393146
0.03334823
0.033303786
0.033261026
0.033220939
0.033184473
0.033152698
0.033126853
0.033108244
0.033097937
0.033096289
0.033102528
0.033114727
0.033130382
0.033146957
0.033162419
0.033175323
0.033184731
0.033190234
0.033191786
0.033189596
0.03318409
0.03317586
0.033165375
0.033153069
0.033139299
0.033124332
0.033280877
0.033307489
0.033331425
0.033352148
0.033368993
0.033381223
0.033388596
0.033390512
0.033386015
0.033374485
0.033355644
0.033329612
0.033297271
0.033260345
0.033221788
0.033185744
0.033156841
0.033139265
0.033134993
0.033143493
0.033162771
0.033190458
0.033224451
0.033263075
0.033304982
0.033348932
0.033393565
0.0334373
0.033437546
0.033394016
0.033349757
0.03330649
0.033265815
0.033229378
0.033199184
0.033177959
0.033169379
0.033177718
0.03320592
0.033252806
0.033311674
0.033373345
0.033430395
0.033477153
0.033509754
0.033527555
0.033530627
0.033520073
0.033497494
0.03346515
0.033426178
0.033381758
0.033330938
0.033275353
0.033216298
0.033154723
0.032181124
0.032301348
0.03242636
0.032556139
0.032689097
0.032821132
0.032961703
0.033102429
0.033232702
0.033346401
0.033438501
0.033504932
0.033542726
0.032516293
0.032101443
0.032767601
0.033383841
0.033306759
0.033245567
0.033210329
0.033201321
0.033212169
0.033236447
0.033269582
0.033308442
0.03335074
0.033394492
0.033437758
0.033437608
0.033394614
0.033351565
0.033310693
0.033274552
0.033246465
0.033231428
0.033237213
0.033273526
0.033342489
0.030466073
0.026840961
0.025417503
0.025344651
0.026052466
0.027747713
0.029388787
0.031342579
0.031954613
0.031581794
0.031209064
0.030839264
0.030489123
0.030210025
0.029955364
0.029744154
0.029567552
0.029417158
0.024118397
0.024112877
0.024142347
0.024235561
0.024624504
0.02519536
0.025771359
0.026349622
0.02695563
0.027619307
0.027238709
0.024448111
0.022458528
0.020917644
0.020129444
0.019701288
0.020258063
0.022749304
0.027847524
0.03335973
0.033290496
0.033259921
0.033260933
0.033281679
0.033314037
0.033352991
0.033395091
0.033437611
0.033436873
0.033394728
0.033353788
0.033317326
0.03328999
0.033279282
0.033297627
0.03335782
0.0283513
0.020984455
0.016218425
0.014448346
0.01433128
0.01503868
0.016558319
0.019149634
0.022924544
0.022176513
0.023739365
0.024173514
0.023795364
0.024012403
0.023533552
0.023643274
0.023142594
0.023214634
0.022687949
0.022681581
0.022114728
0.02216087
0.021735195
0.021584786
0.01802047
0.016185045
0.016130649
0.016197363
0.016427632
0.016749998
0.017030655
0.017282972
0.017525739
0.017802774
0.01811602
0.018482789
0.018869042
0.019245818
0.019625704
0.02007589
0.020482228
0.014681962
0.015414135
0.016066264
0.01463107
0.01384514
0.011605832
0.010887626
0.0099185976
0.0095819867
0.0092789333
0.0098338378
0.010391899
0.013521581
0.013147097
0.015457
0.022707202
0.030679711
0.033304036
0.033204262
0.033138386
0.033097579
0.033072008
0.033055756
0.033045318
0.03303894
0.033035079
0.033033324
0.033032951
0.033031808
0.033030109
0.033027925
0.033025647
0.033023228
0.03302069
0.033018033
0.033015306
0.033012569
0.033009878
0.033007274
0.033004784
0.033002426
0.033000209
0.03299814
0.032996221
0.032994451
0.032992827
0.032991344
0.032989997
0.032988781
0.032987691
0.032986722
0.032985871
0.032985134
0.032984504
0.032983969
0.032983507
0.032983097
0.032982739
0.032982487
0.032982385
0.032982561
0.032982698
0.032982753
0.032982467
0.032982279
0.033025335
0.033068969
0.0331132
0.033158066
0.033203619
0.033249858
0.033296609
0.033343512
0.033389553
0.033434069
0.033475737
0.033475392
0.033433278
0.033388735
0.033342751
0.033296052
0.033249476
0.033203389
0.033157958
0.033113186
0.033069035
0.033025468
0.033025694
0.033025531
0.033025358
0.033025142
0.033025222
0.033025418
0.033025693
0.033025992
0.033026317
0.033026691
0.033027134
0.033027657
0.033028268
0.033028968
0.033029761
0.033030653
0.033031647
0.033032748
0.033033961
0.03303529
0.033036738
0.033038308
0.033039998
0.033041805
0.033043722
0.033045738
0.033047833
0.033049975
0.033052117
0.033054207
0.033056203
0.033058113
0.033059921
0.033061737
0.033063159
0.033064192
0.033064493
0.033098032
0.033097788
0.033096839
0.033095686
0.033094218
0.033092853
0.03309141
0.033089909
0.03308833
0.033086709
0.033085092
0.033083517
0.033082009
0.033080581
0.033079241
0.033077993
0.033076839
0.033075778
0.033074809
0.033073928
0.033073132
0.033072417
0.033071779
0.033071215
0.033070719
0.033070291
0.033069926
0.03306962
0.033069364
0.033069138
0.03306892
0.033068704
0.033068546
0.03306847
0.033068714
0.03306891
0.033069193
0.033113264
0.033112845
0.033112639
0.033112373
0.03311246
0.033112591
0.033112765
0.033112923
0.033113078
0.033113249
0.033113456
0.033113705
0.033114
0.033114343
0.033114735
0.03311518
0.03311568
0.03311624
0.03311686
0.033117546
0.033118299
0.033119121
0.033120012
0.033120972
0.033121999
0.033123088
0.033124229
0.033125406
0.033126587
0.033127732
0.033128809
0.033129848
0.033130819
0.033131983
0.033132891
0.033133796
0.03313401
0.033172362
0.033172142
0.033171233
0.033170538
0.033169624
0.033168987
0.033168278
0.033167546
0.03316675
0.033165924
0.0331651
0.033164304
0.033163548
0.033162837
0.033162175
0.033161562
0.033160997
0.033160481
0.033160012
0.033159589
0.033159208
0.033158868
0.033158567
0.033158301
0.03315807
0.033157871
0.033157704
0.033157568
0.033157457
0.033157354
0.03315724
0.033157096
0.033156985
0.033156879
0.033157161
0.033157364
0.033157938
0.03320325
0.033202507
0.033202326
0.033202032
0.033202165
0.033202258
0.033202378
0.033202459
0.033202524
0.033202593
0.03320268
0.033202789
0.033202919
0.033203071
0.033203246
0.033203444
0.033203666
0.033203916
0.033204194
0.033204503
0.033204842
0.033205214
0.033205618
0.033206055
0.033206526
0.033207028
0.03320756
0.033208113
0.033208666
0.033209193
0.033209658
0.033210114
0.033210479
0.033211196
0.033211706
0.033212668
0.033212933
0.033255482
0.033255136
0.033254091
0.033253747
0.033253179
0.033253029
0.033252758
0.033252489
0.033252158
0.033251805
0.033251452
0.033251115
0.033250799
0.033250504
0.033250231
0.033249978
0.033249745
0.033249533
0.03324934
0.033249166
0.033249009
0.033248869
0.033248745
0.033248634
0.033248537
0.033248454
0.033248385
0.033248332
0.033248292
0.033248254
0.0332482
0.033248099
0.033248022
0.033247855
0.033248156
0.033248292
0.033249204
0.033295673
0.033294624
0.03329456
0.033294263
0.033294467
0.033294529
0.033294616
0.033294649
0.033294668
0.033294688
0.033294719
0.033294761
0.033294813
0.033294872
0.033294939
0.033295014
0.033295097
0.03329519
0.033295293
0.033295406
0.033295531
0.033295667
0.033295814
0.033295974
0.033296146
0.033296332
0.033296532
0.033296744
0.033296957
0.033297152
0.033297285
0.033297429
0.033297413
0.033297866
0.033298054
0.033299177
0.033299596
0.033344676
0.033344202
0.033343045
0.033343
0.033342645
0.033342782
0.033342721
0.033342678
0.033342571
0.03334245
0.033342331
0.033342222
0.033342122
0.033342031
0.033341946
0.033341868
0.033341795
0.033341728
0.033341667
0.03334161
0.03334156
0.033341513
0.033341471
0.033341432
0.033341397
0.033341367
0.033341342
0.033341325
0.033341317
0.033341311
0.033341295
0.033341218
0.033341167
0.033340927
0.033341198
0.033341175
0.033342295
0.033388363
0.033387303
0.03338741
0.033387197
0.033387462
0.033387507
0.033387572
0.033387576
0.033387574
0.033387574
0.033387583
0.033387597
0.033387615
0.033387634
0.033387655
0.033387677
0.033387701
0.033387727
0.033387755
0.033387784
0.033387816
0.033387851
0.033387887
0.033387927
0.033387969
0.033388016
0.033388069
0.03338813
0.033388194
0.033388251
0.033388243
0.033388253
0.033388038
0.033388292
0.033388218
0.033389294
0.033389674
0.033433671
0.033433374
0.033432525
0.033432651
0.033432528
0.033432755
0.033432774
0.033432797
0.033432765
0.033432732
0.033432703
0.033432682
0.033432664
0.033432649
0.033432634
0.03343262
0.033432607
0.033432594
0.033432582
0.03343257
0.033432559
0.033432547
0.033432537
0.033432526
0.033432516
0.033432506
0.033432498
0.033432493
0.033432496
0.033432503
0.03343251
0.033432463
0.033432422
0.033432174
0.03343228
0.033432141
0.033432984
0.033475245
0.033474889
0.03347492
0.033474992
0.03347513
0.03347517
0.033475183
0.033475167
0.033475158
0.033475156
0.033475159
0.033475164
0.033475169
0.033475174
0.033475179
0.033475184
0.033475188
0.033475192
0.033475196
0.0334752
0.033475204
0.033475208
0.033475211
0.033475215
0.033475218
0.033475222
0.033475227
0.033475238
0.033475255
0.033475279
0.033475274
0.033475241
0.033475109
0.033475043
0.033475015
0.033475374
0.033475521
0.033475875
0.033515575
0.033515245
0.033515232
0.033515191
0.033515371
0.033515425
0.033515464
0.03351545
0.033515434
0.033515422
0.033515416
0.033515414
0.033515413
0.033515412
0.033515411
0.033515411
0.03351541
0.033515409
0.033515408
0.033515406
0.033515405
0.033515403
0.033515402
0.0335154
0.033515398
0.033515396
0.033515394
0.033515393
0.033515396
0.033515406
0.03351542
0.033515431
0.03351539
0.033515334
0.033515153
0.033515193
0.033515205
0.033515536
0.033515639
0.033515439
0.033515363
0.033515453
0.033515639
0.033515761
0.033515805
0.0335158
0.033515783
0.033515771
0.033515766
0.033515765
0.033515766
0.033515768
0.033515771
0.033515773
0.033515776
0.033515778
0.03351578
0.033515782
0.033515784
0.033515787
0.033515789
0.03351579
0.033515793
0.033515795
0.033515799
0.033515804
0.033515814
0.033515831
0.033515852
0.033515861
0.033515821
0.033515703
0.033515521
0.033515433
0.033515509
0.033515709
0.033516267
0.033515976
0.033515921
0.033516081
0.0335163
0.033516437
0.033516476
0.03351646
0.033516433
0.033516411
0.033516397
0.033516388
0.033516382
0.033516377
0.033516373
0.033516369
0.033516365
0.033516361
0.033516358
0.033516354
0.033516351
0.033516348
0.033516344
0.033516341
0.033516338
0.033516335
0.033516334
0.033516335
0.033516341
0.033516355
0.033516375
0.033516384
0.033516338
0.033516195
0.03351597
0.033515806
0.033515859
0.033516151
0.033516286
0.03351619
0.033516227
0.033516445
0.03351669
0.033516836
0.033516875
0.033516861
0.033516838
0.033516822
0.033516815
0.033516815
0.033516817
0.03351682
0.033516824
0.033516828
0.033516833
0.033516837
0.033516842
0.033516847
0.033516852
0.033516858
0.033516864
0.03351687
0.033516878
0.033516885
0.033516895
0.033516907
0.033516926
0.033516953
0.033516988
0.033517013
0.033516984
0.033516848
0.033516612
0.033516402
0.033516368
0.033516465
0.033516789
0.033516654
0.033516701
0.033516921
0.033517152
0.033517275
0.033517291
0.033517255
0.033517213
0.03351718
0.033517157
0.033517141
0.033517128
0.033517117
0.033517107
0.033517098
0.033517089
0.033517081
0.033517074
0.033517067
0.033517061
0.033517055
0.033517049
0.033517044
0.033517039
0.033517035
0.033517032
0.033517032
0.033517038
0.033517055
0.033517081
0.033517102
0.033517072
0.033516934
0.03351669
0.03351646
0.033516406
0.033516541
0.033516521
0.033516445
0.033516509
0.033516732
0.033516965
0.033517092
0.033517114
0.033517089
0.033517061
0.033517044
0.033517038
0.033517038
0.033517042
0.033517047
0.033517053
0.03351706
0.033517067
0.033517074
0.033517082
0.033517091
0.0335171
0.03351711
0.033517122
0.033517133
0.033517147
0.033517161
0.033517177
0.033517197
0.033517224
0.033517262
0.033517312
0.033517356
0.033517353
0.033517244
0.033517028
0.033516819
0.033516764
0.033516843
0.033516921
0.033516821
0.033516864
0.03351706
0.033517264
0.033517362
0.033517357
0.033517306
0.033517252
0.03351721
0.033517179
0.033517155
0.033517136
0.033517118
0.033517103
0.033517088
0.033517075
0.033517062
0.033517051
0.033517041
0.033517032
0.033517023
0.033517015
0.033517007
0.033517
0.033516994
0.033516989
0.033516988
0.033516993
0.03351701
0.033517039
0.033517067
0.033517048
0.033516928
0.033516705
0.033516491
0.033516437
0.033516533
0.033516533
0.033516437
0.033516491
0.033516706
0.033516929
0.03351705
0.033517068
0.033517042
0.033517013
0.033516997
0.033516993
0.033516995
0.033517
0.033517007
0.033517015
0.033517023
0.033517032
0.033517042
0.033517052
0.033517064
0.033517076
0.03351709
0.033517105
0.033517122
0.03351714
0.033517159
0.033517181
0.033517207
0.03351724
0.033517285
0.033517341
0.033517395
0.033517402
0.033517306
0.033517105
0.033516909
0.033516868
0.03351697
0.03351698
0.033516897
0.033516947
0.033517152
0.033517363
0.033517466
0.033517464
0.033517413
0.033517357
0.033517314
0.033517282
0.033517256
0.033517233
0.033517212
0.033517193
0.033517176
0.03351716
0.033517145
0.033517132
0.033517119
0.033517108
0.033517098
0.033517088
0.03351708
0.033517072
0.033517064
0.033517058
0.033517055
0.033517057
0.03351707
0.033517097
0.03351712
0.033517096
0.033516968
0.033516734
0.03351651
0.033516445
0.033516521
0.033516542
0.033516407
0.033516462
0.033516693
0.033516939
0.033517079
0.033517111
0.033517093
0.03351707
0.033517064
0.033517098
0.033517114
0.033517123
0.033517132
0.03351714
0.033517149
0.033517159
0.033517169
0.033517181
0.033517193
0.033517207
0.033517221
0.033517238
0.033517255
0.033517274
0.033517294
0.033517313
0.033517326
0.033517322
0.033517356
0.033517407
0.033517452
0.033517443
0.033517327
0.033517102
0.033516888
0.033516846
0.033516987
0.033516687
0.033516586
0.033516614
0.03351682
0.033517052
0.033517183
0.033517205
0.033517172
0.033517129
0.033517102
0.033517161
0.033517343
0.033517364
0.033517351
0.033517335
0.033517318
0.033517302
0.033517288
0.033517275
0.033517262
0.033517251
0.033517241
0.033517231
0.033517222
0.033517212
0.033517198
0.03351715
0.033516942
0.033516858
0.033516858
0.033516877
0.033516888
0.033516846
0.033516697
0.033516449
0.03351623
0.033516192
0.033516287
0.033516151
0.033515861
0.033515809
0.033515976
0.033516203
0.03351635
0.033516399
0.033516395
0.033516381
0.033516384
0.033516484
0.033516858
0.0335174
0.033517488
0.033517509
0.033517519
0.033517529
0.03351754
0.033517551
0.033517563
0.033517575
0.033517589
0.033517604
0.033517618
0.033517622
0.033517558
0.033517038
0.033516686
0.033516608
0.033516626
0.03351666
0.03351668
0.033516644
0.033516508
0.03351629
0.033516131
0.033516187
0.033516479
0.033515892
0.033515694
0.033515621
0.033515713
0.0335159
0.033516022
0.033516064
0.033516054
0.03351603
0.03351602
0.03351611
0.033516506
0.033517337
0.033518182
0.033518283
0.033518284
0.033518272
0.033518259
0.033518247
0.033518235
0.033518224
0.033518214
0.033518202
0.033518178
0.033518054
0.03351719
0.033516341
0.033515926
0.033515818
0.033515812
0.033515822
0.033515823
0.033515774
0.033515649
0.033515459
0.033515367
0.033515441
0.03351564
0.033515536
0.033515207
0.033515196
0.03351516
0.033515345
0.033515404
0.033515451
0.033515445
0.033515437
0.033515447
0.033515559
0.033515989
0.033516902
0.033518159
0.033519139
0.03351927
0.033519292
0.033519303
0.033519314
0.033519325
0.033519337
0.033519349
0.033519349
0.03351924
0.033518278
0.033517039
0.033516142
0.033515728
0.033515629
0.033515632
0.033515648
0.033515659
0.033515613
0.033515551
0.033515363
0.033515394
0.0335154
0.033515723
0.033476536
0.033476762
0.033436224
0.033395225
0.033356631
0.033324799
0.033307094
0.033316016
0.033367945
0.027230586
0.018096954
0.013107194
0.009457983
0.0072158741
0.0060629923
0.0050374063
0.0052972636
0.005900546
0.0066594246
0.0070939258
0.0070067856
0.0085223863
0.0088816282
0.010458264
0.01003162
0.0090834898
0.008649391
0.0081351255
0.0079800867
0.0074307078
0.007015679
0.0066218319
0.0060013626
0.0060162936
0.0061647525
0.0063298819
0.006501118
0.0066155781
0.0069936375
0.0076000054
0.0080244248
0.0083837619
0.0087453565
0.0080192292
0.0073589953
0.0078992273
0.0057069638
0.0051932653
0.0059017765
0.0060266488
0.0042963931
0.0035984289
0.0030056229
0.0028668938
0.0028566831
0.0034335831
0.0053002506
0.0073526883
0.01179848
0.0095385313
0.0075618555
0.0058436919
0.00426727
0.0022863769
0.0021081605
0.0023303481