/*--------------------------------*- C++ -*----------------------------------*\
| =========                 |                                                 |
| \\      /  F ield         | OpenFOAM: The Open Source CFD Toolbox           |
|  \\    /   O peration     | Version:  v2012                                 |
|   \\  /    A nd           | Website:  www.openfoam.com                      |
|    \\/     M anipulation  |                                                 |
\*---------------------------------------------------------------------------*/
FoamFile
{
    version     2.0;
    format      ascii;
    class       volScalarField;
    location    "184";
    object      omega;
}
// * * * * * * * * * * * * * * * * * * * * * * * * * * * * * * * * * * * * * //

dimensions      [0 0 -1 0 0 0 0];


internalField   nonuniform List<scalar> 
24571
(
11.05521
11.054774
11.12135
11.120629
11.121906
11.121299
11.123125
11.122341
11.123232
11.122824
11.122975
11.122975
11.122824
11.123232
11.122341
11.123125
11.121299
11.121906
11.120629
11.12135
11.120417
11.121614
11.12079
11.121489
11.12121
11.121334
11.121255
11.121238
11.121225
11.121227
11.121229
11.121231
11.121233
11.121234
11.121234
11.121235
11.121235
11.121236
11.121236
11.121236
11.121236
11.121236
11.121236
11.121236
11.121235
11.121233
11.121232
11.121231
11.121243
11.121261
11.12134
11.121216
11.121496
11.120797
11.121621
11.120424
11.121357
11.120636
11.121919
11.121328
11.123173
11.12242
11.123343
11.122972
11.123156
11.123182
11.123045
11.123448
11.122541
11.123291
11.121434
11.122006
11.1207
11.121431
11.120502
11.121697
11.120874
11.121574
11.121297
11.121423
11.121345
11.121328
11.121312
11.121288
11.121195
11.120988
11.120685
11.12036
11.120165
11.120148
11.120143
11.120139
11.120135
11.120131
11.120128
11.120138
11.120325
11.120641
11.120935
11.121134
11.121221
11.121239
11.121252
11.121266
11.121343
11.121217
11.121494
11.120794
11.121616
11.120418
11.053881
11.054768
11.054014
11.054713
11.054528
11.054675
11.054614
11.054594
11.054571
11.05449
11.054172
11.053479
11.052484
11.051441
11.050832
11.050789
11.050793
11.050802
11.050811
11.050821
11.050836
11.0509
11.05153
11.052596
11.053614
11.054327
11.054665
11.054765
11.054806
11.054842
11.05492
11.054788
11.05499
11.05431
11.055084
11.054218
11.055117
11.054272
10.986267
10.913818
10.842002
10.772111
10.708838
10.658381
10.628406
10.638323
10.726119
10.95119
11.442966
12.464698
15.043382
20.190452
31.384949
61.540842
102.24988
279.81824
374.85356
303.40815
279.67837
223.24081
214.47598
206.54644
197.52717
166.37887
158.85917
153.36636
147.61063
130.42034
125.09954
120.81029
116.89007
113.31355
110.04232
106.79856
98.674297
95.698309
93.316617
91.134386
89.333367
85.236333
75.310855
69.262958
67.684659
66.43853
65.508251
64.24502
62.486579
61.150994
59.981102
58.964373
58.041221
57.168875
56.334244
55.531143
54.755036
54.004375
53.273681
52.566789
51.874884
51.208979
50.553034
49.923074
49.303347
48.701651
48.112716
47.528023
46.953519
46.34755
45.593536
44.185798
41.723815
40.869094
40.245146
39.654542
39.102228
38.601488
9.4274215
9.4816083
9.5356529
9.5895644
9.6435787
9.6981511
9.7537543
9.8107417
9.8693172
9.9295365
9.9913594
10.054696
10.119445
10.185511
10.252821
10.321327
10.391013
10.461898
10.53405
10.607543
10.682407
10.758393
10.835005
10.910815
10.9847
10.983514
10.983855
10.983229
10.983777
10.983705
10.983844
10.983807
10.983786
10.983751
10.983599
10.983039
10.981845
10.980148
10.978405
10.977403
10.977305
10.977308
10.977323
10.97734
10.977361
10.977395
10.977533
10.97858
10.980371
10.982116
10.983356
10.983964
10.984167
10.984257
10.984338
10.984439
10.984373
10.984523
10.984062
10.984774
10.984513
10.985739
10.913468
10.840975
10.770952
10.707325
10.655834
10.62592
10.64449
10.779262
10.992565
10.969365
10.936268
10.866639
10.998016
11.210124
11.421177
11.528647
11.408935
12.931353
17.42712
23.036659
21.682057
28.96852
43.384424
41.806149
43.798132
60.611713
91.547883
224.52178
354.56138
301.67967
295.56739
231.91706
219.98802
210.31018
203.43809
170.05868
160.78398
154.39338
149.45157
131.26067
124.52741
119.86299
115.85163
112.25753
108.89572
106.21713
98.063501
94.703241
92.299157
90.205381
89.316385
87.736678
85.709595
87.728957
89.571482
91.806062
93.782711
102.8497
105.64676
108.58424
111.60169
114.75004
118.33819
120.66266
140.04943
144.4602
148.66977
153.34653
189.31699
194.75988
200.78149
253.05177
252.75386
228.89802
305.6872
160.50914
72.288412
81.37741
120.47918
155.04293
261.38119
239.93937
203.66848
123.03664
159.41252
189.62235
222.10394
262.63239
252.05443
243.47935
299.30033
302.45654
217.22076
207.59543
198.78679
159.93009
154.94365
149.37601
144.00809
139.69262
122.50907
120.04413
115.7505
112.12886
108.74697
105.56083
102.5917
100.26869
93.284152
91.305001
88.708064
86.561095
84.286921
76.282859
77.104397
71.61011
69.178352
67.308072
66.920146
67.034631
66.393062
66.55923
66.349826
65.375742
65.626577
65.023608
64.528144
63.309806
61.523017
60.391763
59.406139
58.472545
57.581314
56.721245
55.894319
55.091525
54.317579
53.563511
52.833576
52.121965
51.434686
50.762589
50.113241
49.481988
48.869327
48.271639
47.678101
47.068135
46.542519
46.410586
46.611815
47.121358
47.380882
47.676824
48.271314
48.743246
49.155684
49.914985
50.755619
49.945177
49.977425
49.223761
48.670026
48.066069
47.61182
46.92287
46.749552
46.558072
46.087484
46.063803
45.948402
45.358613
45.048267
42.511505
45.26472
46.277419
46.472263
45.449356
43.140387
45.936948
46.940844
47.429643
47.070031
46.438775
45.544569
48.527982
49.471266
49.180234
49.007187
52.858183
53.888236
54.446903
55.251502
54.41446
53.745851
54.223893
58.506098
59.479142
60.058682
60.785369
61.590816
62.412023
63.230547
64.025461
64.68639
65.284819
65.027294
65.191272
64.360875
63.771234
62.811249
62.048569
60.992712
59.89025
60.661583
62.861234
64.711867
66.616186
68.42296
70.333553
72.34491
74.433662
76.644592
83.305545
89.200089
91.235492
93.435612
95.954429
98.967767
105.24246
107.81107
111.14705
114.88286
118.97755
123.47867
128.68927
133.36181
146.50196
152.78714
159.46299
167.6077
193.2063
201.77205
213.80898
223.7831
283.54852
309.21367
351.02686
311.30075
303.54474
236.99364
143.34667
128.16822
66.996207
29.703894
44.952611
48.370271
19.947404
14.048603
12.087944
11.196433
11.023624
11.195459
11.564842
12.815507
16.389638
26.702398
49.182676
36.713697
29.216942
24.367222
29.878229
48.286544
60.236164
82.229279
115.46724
168.86952
86.248469
195.81625
216.53103
326.00154
295.9549
281.27313
266.4503
225.42439
221.21323
206.59202
194.71268
169.90986
162.92677
155.35377
148.87379
143.799
132.83071
131.1606
125.53143
120.88833
116.64253
112.75733
109.25802
106.05129
100.49486
97.929628
95.051517
92.618635
90.422761
84.700062
80.604155
85.440783
90.583641
93.086806
95.591343
98.669278
103.82224
106.25622
109.43021
112.94822
116.77691
120.96313
125.7573
130.31032
141.55666
147.53914
153.93331
161.71067
181.30355
189.13383
199.1214
210.65188
251.49022
265.72199
264.68975
312.54498
267.58341
206.53677
284.32618
302.14945
264.51279
253.60867
241.22368
200.96723
193.33787
184.05506
176.50521
157.81129
151.04003
145.18997
139.75852
135.47791
127.94518
125.54573
120.65154
116.55453
112.77834
109.3079
106.14482
103.25272
98.608807
96.077845
93.415386
91.016009
88.871553
84.749156
83.215696
82.366453
86.982526
87.531538
89.454195
91.549307
93.95491
96.757904
101.2955
103.55988
106.48384
109.71193
113.21428
117.04557
121.42662
125.40447
134.90054
140.0463
145.62348
151.96202
157.60345
176.25732
185.2905
195.85544
228.60946
238.65948
243.40054
293.14671
247.4047
167.6127
131.19914
199.04637
236.96674
294.97908
277.78543
255.99631
178.8505
214.90388
235.79194
263.61866
227.54573
219.87574
162.14063
184.12829
105.2137
49.042653
66.34271
57.981786
49.80507
40.860127
71.083816
110.78565
122.037
139.64985
158.73335
221.89569
257.53003
292.49113
280.46206
255.12288
292.06425
300.46407
250.51634
249.924
233.79209
197.76494
189.00093
178.91008
171.67734
156.34747
153.78724
147.02108
141.32381
136.17644
132.10128
124.28917
122.97772
118.20816
114.27355
110.68574
107.39402
104.39708
101.64253
97.361393
95.074822
92.497447
90.266523
88.240488
83.562762
82.698715
77.051334
76.719227
74.268559
71.989454
69.845095
67.811801
65.84089
63.91118
61.96753
60.072518
58.07884
56.322623
52.10816
50.761654
47.15876
46.031378
43.956409
43.054082
42.185688
41.571487
40.874703
40.22703
39.613461
39.036557
53.683796
55.103956
56.595074
58.333765
59.940296
63.625826
65.81926
68.115509
69.899482
76.890681
78.641668
80.340488
72.278164
72.39032
62.015189
50.934174
52.561997
40.188882
26.312904
33.005398
33.622327
19.223677
13.381405
11.28049
11.196917
10.94811
10.763423
10.595897
10.501724
10.599807
10.840548
11.120682
11.481608
11.958979
12.606079
16.791618
25.33474
33.88449
30.369132
26.976649
24.509536
30.111661
35.817724
38.070958
41.709208
46.927667
49.754978
45.048851
53.549534
71.090624
72.489173
73.698106
72.204272
68.700986
67.134112
64.714544
62.656432
60.962527
58.795823
57.711292
55.913031
66.933447
66.451049
72.719487
64.547181
52.581167
60.703867
71.790615
63.908408
59.775527
61.861589
63.116605
68.750932
68.485997
64.341204
62.8008
61.16344
59.464959
56.590864
55.18093
34.1747
34.897665
35.495102
36.319032
36.942047
37.829089
41.667821
43.038069
43.765438
44.130181
44.528535
44.952072
45.413866
45.895693
46.400885
46.916553
47.446293
47.978936
48.517905
49.055624
49.592126
50.118487
50.636024
51.133827
51.61439
52.065414
52.497829
52.909467
53.322
53.634588
53.643357
52.724691
48.799895
45.507982
44.454446
43.995587
38.437359
34.069267
29.522036
25.490765
21.544633
18.622274
15.041841
13.094858
12.031787
11.308034
10.893815
10.656377
10.598483
10.606559
10.646681
10.703584
10.769829
10.841117
10.914317
10.986665
11.055909
11.057894
11.057394
11.058388
11.058064
11.058193
11.058133
11.057895
11.058132
11.057087
11.05756
11.055574
11.055744
11.053985
10.98541
10.911493
10.836782
10.760536
10.685691
10.612285
10.540921
10.471563
10.40419
10.338737
10.275126
10.213226
10.152836
10.09369
10.035487
9.9779143
9.9207109
9.8636903
9.8067524
9.749884
9.6931548
9.6366819
9.5806279
9.5251525
9.470416
9.4165409
9.3636266
9.3117298
9.3176252
9.3692979
9.4219682
9.4755817
9.5300428
9.5852319
9.6409799
9.6971315
9.7535247
9.8100415
9.8666148
9.9232605
9.9800865
10.037288
10.095142
10.153974
10.214097
10.275786
10.339247
10.404612
10.471955
10.541321
10.612716
10.686067
10.76103
10.836949
10.912364
10.985902
10.985808
10.912329
10.836813
10.760986
10.686112
10.612896
10.541637
10.472432
10.405299
10.340225
10.277153
10.215961
10.156442
10.098303
10.04121
9.9848132
9.9288091
9.8729857
9.8172217
9.7614925
9.7058586
9.6504349
9.5953769
9.5408325
9.4869694
9.4339183
9.3817696
9.3305743
9.3529393
9.403358
9.4546461
9.5067553
9.5596008
9.6130503
9.6669299
9.7210948
9.7754043
9.8297573
9.884108
9.9385006
9.9930798
10.048085
10.103862
10.160807
10.219293
10.279642
10.342069
10.406682
10.473507
10.542524
10.613688
10.686894
10.761846
10.837857
10.913664
10.987485
10.987355
10.91374
10.83807
10.762181
10.687369
10.614348
10.543445
10.47481
10.408542
10.344723
10.283383
10.224445
10.167684
10.112726
10.059119
10.006388
9.9541206
9.902023
9.8499147
9.7977258
9.7454795
9.6932556
9.6411753
9.5893918
9.5380874
9.4873919
9.4373883
9.3881231
9.4420274
9.4896158
9.5377592
9.5864095
9.6354819
9.6848454
9.7342957
9.7836472
9.8327988
9.8816985
9.9303545
9.9788728
10.027492
10.076589
10.12669
10.178415
10.232363
10.289009
10.348606
10.411182
10.476616
10.544722
10.615312
10.688168
10.762922
10.838832
10.914581
10.988303
10.988244
10.914641
10.839001
10.763231
10.688691
10.616175
10.546131
10.47889
10.414803
10.354244
10.297511
10.244671
10.195413
10.149045
10.104694
10.06148
10.018709
9.975891
9.9326906
9.8889445
9.8445997
9.7996697
9.754229
9.7085387
9.662871
9.6173567
9.5720862
9.5271162
9.6732164
9.7136291
9.7538797
9.793895
9.8335778
9.8728101
9.9111389
9.948192
9.9840416
10.018809
10.052643
10.085763
10.11861
10.151838
10.186395
10.223576
10.264741
10.311068
10.363011
10.420289
10.482244
10.548152
10.617387
10.689428
10.763701
10.839333
10.914914
10.988496
10.988605
10.915101
10.839656
10.764267
10.690422
10.619129
10.551168
10.487391
10.428932
10.377256
10.333778
10.299021
10.272094
10.251158
10.234408
10.22
10.206642
10.193224
10.178853
10.163074
10.145447
10.125398
10.102189
10.076049
10.048191
10.018657
9.98753
9.9549616
10.551708
10.574661
10.592601
10.604751
10.61061
10.610205
10.598707
10.578448
10.552308
10.521648
10.487684
10.452426
10.419107
10.391645
10.370406
10.358882
10.3591
10.372905
10.401211
10.442974
10.49546
10.555757
10.621692
10.691819
10.76499
10.839989
10.9152
10.988559
10.988802
10.915508
10.840539
10.766052
10.693853
10.625497
10.562731
10.508209
10.466053
10.441878
10.442526
10.47186
10.531017
10.622844
10.747058
10.882965
11.054863
11.222603
11.376875
11.515644
11.638722
11.747339
11.836212
11.884746
11.914956
11.920126
11.904621
11.873611
14.77083
14.931631
15.068689
15.160714
15.066075
14.8445
14.612325
14.371311
14.102927
13.787204
13.398917
12.862275
12.096737
11.706248
11.231695
10.903065
10.695862
10.572234
10.512536
10.503589
10.528025
10.573006
10.630679
10.69629
10.76696
10.840574
10.915024
10.987998
10.988255
10.915321
10.841265
10.768599
10.699858
10.638026
10.58784
10.557836
10.562278
10.627793
10.830745
11.187428
11.838675
12.934074
14.719393
16.969155
17.009768
16.465929
16.659527
16.255858
16.504468
16.264224
16.575203
16.405536
16.726046
16.575608
16.912397
16.813357
17.182237
17.036242
17.295332
17.302718
20.513597
23.139005
23.39014
23.465395
23.319425
23.045146
22.834249
22.656288
22.494767
22.28246
22.029282
21.703919
21.361281
21.019483
20.671023
20.221272
19.069579
28.837206
27.556792
26.498906
23.662042
20.979157
18.406321
16.407013
14.751878
13.52209
12.406233
11.725891
11.298222
11.035715
11.116482
10.875547
10.579003
10.44157
10.371443
10.33257
10.310209
10.29692
10.288577
10.282986
10.279143
10.276594
10.275229
10.274608
10.273666
10.272676
10.271786
10.271047
10.270243
10.269319
10.268268
10.267138
10.265978
10.264821
10.263685
10.262583
10.261525
10.260516
10.259561
10.258664
10.257825
10.257047
10.256329
10.25567
10.25507
10.254526
10.254038
10.253604
10.253224
10.252897
10.252623
10.2524
10.252223
10.252075
10.251926
10.251749
10.251575
10.251487
10.251732
10.252277
10.252956
10.25336
10.321992
10.391716
10.462585
10.534705
10.608171
10.683118
10.759035
10.835987
10.911118
10.985264
11.053941
11.054776
10.984706
10.91083
10.835038
10.758454
10.682507
10.60769
10.534247
10.462139
10.391275
10.321566
10.320834
10.320263
10.319997
10.320085
10.320242
10.320394
10.320505
10.320606
10.320726
10.320882
10.321076
10.321311
10.321587
10.321904
10.322263
10.322666
10.323113
10.323606
10.324146
10.324733
10.325369
10.326053
10.326784
10.327559
10.328377
10.329231
10.330117
10.331026
10.331942
10.332837
10.333668
10.334384
10.335002
10.335573
10.336355
10.337282
10.338223
10.403685
10.402734
10.401866
10.401182
10.400771
10.400322
10.399796
10.399166
10.398482
10.397783
10.397094
10.396426
10.395785
10.395175
10.394598
10.394056
10.393551
10.393082
10.392651
10.392256
10.391897
10.391573
10.391283
10.391025
10.390798
10.390602
10.390436
10.390301
10.390195
10.390117
10.390052
10.38997
10.389836
10.389693
10.3896
10.389888
10.390483
10.461277
10.460658
10.460342
10.460444
10.460573
10.460693
10.460752
10.460791
10.460838
10.460906
10.460998
10.461112
10.461249
10.461407
10.461588
10.461792
10.462021
10.462275
10.462555
10.462862
10.463196
10.463557
10.463945
10.46436
10.4648
10.465263
10.465749
10.466253
10.466768
10.467274
10.467734
10.468097
10.4684
10.468669
10.469276
10.470093
10.471071
10.540432
10.5394
10.538621
10.538066
10.53792
10.53773
10.5375
10.537176
10.536814
10.536447
10.536091
10.535752
10.535429
10.535124
10.534838
10.53457
10.534321
10.534091
10.533881
10.533689
10.533515
10.533359
10.53322
10.533096
10.532989
10.532896
10.532819
10.532759
10.532717
10.532693
10.532675
10.532636
10.532529
10.532415
10.532301
10.532651
10.533292
10.606617
10.605964
10.605573
10.605707
10.605801
10.605898
10.605918
10.605919
10.605925
10.605948
10.605986
10.606036
10.606097
10.606168
10.606249
10.606341
10.606444
10.606558
10.606684
10.606823
10.606974
10.607138
10.607314
10.607504
10.607705
10.607919
10.608146
10.608387
10.608641
10.608893
10.609114
10.609243
10.609351
10.609392
10.609919
10.610664
10.611785
10.685072
10.683824
10.68313
10.682611
10.682667
10.682611
10.682558
10.68241
10.682238
10.682068
10.681911
10.681767
10.681633
10.681507
10.681389
10.681279
10.681177
10.681083
10.680997
10.680918
10.680846
10.680782
10.680725
10.680673
10.680628
10.68059
10.680558
10.680536
10.680527
10.680533
10.680545
10.680542
10.680453
10.680382
10.680215
10.680649
10.681286
10.757138
10.756576
10.756101
10.756321
10.756367
10.756455
10.756443
10.756421
10.756406
10.756407
10.756419
10.756437
10.756461
10.756488
10.756519
10.756553
10.756591
10.756632
10.756679
10.756729
10.756784
10.756843
10.756906
10.756974
10.757047
10.757125
10.757211
10.757307
10.757418
10.757533
10.757633
10.757629
10.757657
10.757502
10.758026
10.758621
10.759952
10.835836
10.834399
10.833989
10.833449
10.833713
10.833693
10.833744
10.833675
10.833598
10.833527
10.833471
10.833425
10.833384
10.833346
10.833311
10.833278
10.833247
10.833218
10.833192
10.833167
10.833145
10.833124
10.833105
10.833088
10.833072
10.833059
10.833048
10.833043
10.833046
10.833066
10.833093
10.833115
10.83302
10.833001
10.832702
10.833217
10.833608
10.909582
10.909493
10.908932
10.909339
10.909322
10.909435
10.909404
10.909376
10.909356
10.909351
10.909353
10.909359
10.909367
10.909375
10.909384
10.909394
10.909404
10.909414
10.909426
10.909439
10.909452
10.909466
10.909481
10.909496
10.909513
10.909531
10.909553
10.909583
10.909628
10.909678
10.909731
10.909639
10.909674
10.909285
10.909856
10.909955
10.911205
10.984853
10.983665
10.983998
10.983365
10.9839
10.983815
10.983939
10.983887
10.983852
10.983823
10.983809
10.983801
10.983795
10.98379
10.983785
10.98378
10.983775
10.98377
10.983765
10.983761
10.983756
10.983752
10.983747
10.983743
10.983738
10.983734
10.98373
10.983729
10.983733
10.983753
10.983779
10.983822
10.98369
10.983768
10.983226
10.983856
10.983518
11.053881
11.054766
11.054008
11.054704
11.054515
11.054658
11.054591
11.054567
11.05455
11.054549
11.05455
11.054553
11.054557
11.054558
11.05456
11.054562
11.054563
11.054566
11.054566
11.054568
11.054569
11.054571
11.054571
11.054572
11.054572
11.054572
11.054573
11.054577
11.054598
11.054624
11.054693
11.054552
11.054743
11.054049
11.054808
11.053924
11.054819
11.055266
11.121598
11.12127
11.121345
11.121312
11.121607
11.12168
11.121736
11.12171
11.121686
11.121669
11.121662
11.12166
11.121659
11.121659
11.121658
11.121659
11.121659
11.121658
11.121658
11.121657
11.121657
11.121656
11.121656
11.121654
11.121654
11.121653
11.121652
11.121654
11.12166
11.121676
11.121699
11.121725
11.121668
11.121595
11.121299
11.121332
11.121256
11.121584
11.12188
11.12188
11.121841
11.122021
11.122301
11.122482
11.122534
11.122518
11.12249
11.122471
11.122462
11.122458
11.122458
11.122458
11.122459
11.122461
11.122462
11.122463
11.122463
11.122464
11.122466
11.122467
11.122467
11.122467
11.122468
11.12247
11.122472
11.122477
11.122489
11.12251
11.12254
11.122557
11.122506
11.122327
11.122048
11.121869
11.121909
11.121908
11.122822
11.122603
11.122624
11.122901
11.123235
11.123436
11.123486
11.123462
11.123426
11.1234
11.123386
11.123379
11.123375
11.123372
11.12337
11.123369
11.123367
11.123366
11.123364
11.123362
11.123361
11.123359
11.123358
11.123357
11.123355
11.123354
11.123355
11.123359
11.12337
11.123392
11.123425
11.123446
11.123394
11.12319
11.122854
11.122575
11.122553
11.122772
11.122903
11.123039
11.12317
11.123512
11.123871
11.124073
11.124115
11.124084
11.124046
11.124021
11.12401
11.124006
11.124005
11.124006
11.124008
11.12401
11.124012
11.124014
11.124016
11.124019
11.124021
11.124023
11.124026
11.124029
11.124032
11.124036
11.124041
11.124051
11.124067
11.124097
11.12414
11.124176
11.124138
11.123941
11.123586
11.123247
11.123117
11.122982
11.123411
11.123419
11.12357
11.123916
11.124261
11.124441
11.124462
11.124414
11.124364
11.12433
11.124311
11.1243
11.124293
11.124288
11.124283
11.124279
11.124275
11.124272
11.124268
11.124265
11.124262
11.12426
11.124257
11.124255
11.124252
11.124251
11.124251
11.124254
11.124266
11.124293
11.124336
11.124376
11.124349
11.124163
11.123812
11.123462
11.123307
11.123299
11.123222
11.123346
11.1235
11.123832
11.12416
11.124327
11.124341
11.124294
11.124247
11.12422
11.124208
11.124205
11.124206
11.124208
11.12421
11.124213
11.124216
11.12422
11.124224
11.124227
11.124232
11.124236
11.124242
11.124247
11.124253
11.12426
11.124268
11.124281
11.124302
11.124339
11.124395
11.124452
11.124445
11.124287
11.123966
11.123641
11.123492
11.12337
11.123422
11.123495
11.123626
11.123931
11.124233
11.124379
11.124376
11.124314
11.124254
11.124215
11.124192
11.124178
11.124168
11.12416
11.124152
11.124146
11.12414
11.124134
11.124129
11.124124
11.12412
11.124116
11.124112
11.124109
11.124106
11.124103
11.124102
11.124105
11.124116
11.124144
11.124192
11.124243
11.124236
11.124081
11.123769
11.123456
11.123318
11.123243
11.123243
11.123318
11.123456
11.12377
11.124081
11.124237
11.124244
11.124193
11.124145
11.124118
11.124107
11.124104
11.124106
11.124109
11.124112
11.124116
11.12412
11.124125
11.12413
11.124135
11.12414
11.124147
11.124154
11.124161
11.124169
11.124178
11.12419
11.124205
11.124229
11.124269
11.12433
11.124393
11.124397
11.124253
11.123951
11.123647
11.123517
11.123447
11.123438
11.123555
11.1237
11.124022
11.124341
11.124497
11.124501
11.124441
11.124382
11.124342
11.124317
11.124301
11.124289
11.124279
11.124271
11.124263
11.124256
11.124249
11.124243
11.124237
11.124232
11.124227
11.124223
11.124219
11.124215
11.124212
11.124211
11.124213
11.124225
11.124251
11.124297
11.124344
11.124329
11.124161
11.123833
11.123501
11.123346
11.123222
11.123299
11.123308
11.123463
11.123814
11.124165
11.124352
11.124381
11.124341
11.124299
11.124273
11.124256
11.124252
11.124253
11.124256
11.124259
11.124264
11.124268
11.124273
11.124278
11.124284
11.12429
11.124296
11.124304
11.124312
11.12432
11.12433
11.124342
11.12436
11.124389
11.124429
11.124483
11.124534
11.124516
11.12434
11.123997
11.123655
11.12351
11.12351
11.123094
11.12322
11.123342
11.123677
11.124031
11.124226
11.124262
11.124223
11.124175
11.124139
11.124101
11.12405
11.124032
11.124022
11.124014
11.124007
11.124
11.123993
11.123987
11.123982
11.123977
11.123972
11.123968
11.123964
11.123961
11.123959
11.123965
11.124003
11.12403
11.124055
11.124091
11.124121
11.124077
11.123874
11.123514
11.123171
11.123039
11.122903
11.122773
11.122553
11.122576
11.122856
11.123194
11.123399
11.123453
11.123434
11.123403
11.12338
11.123351
11.123272
11.123169
11.123156
11.123157
11.12316
11.123164
11.123169
11.123173
11.123178
11.123184
11.123189
11.123195
11.123202
11.123212
11.123236
11.12335
11.12344
11.123479
11.12351
11.123549
11.123576
11.123526
11.123325
11.122991
11.122717
11.122703
11.122932
11.122008
11.121999
11.121954
11.122133
11.122413
11.122594
11.122646
11.122628
11.122597
11.122571
11.122534
11.122435
11.122241
11.122051
11.122021
11.122012
11.122006
11.122001
11.121996
11.121992
11.121987
11.121983
11.12198
11.121979
11.122001
11.122181
11.122365
11.122454
11.122483
11.122503
11.122529
11.122543
11.122488
11.122306
11.122024
11.121843
11.121881
11.12188
11.121584
11.121257
11.121333
11.121302
11.121599
11.121675
11.121734
11.12171
11.121689
11.121673
11.121647
11.121557
11.121358
11.121077
11.120861
11.120838
11.120839
11.120842
11.120846
11.12085
11.120854
11.120859
11.120867
11.120899
11.121123
11.121414
11.121621
11.121719
11.121751
11.121772
11.121797
11.121822
11.121764
11.121689
11.121393
11.121425
11.121353
11.121684
11.055577
11.056064
10.986804
10.914597
10.841949
10.771626
10.707432
10.654813
10.623413
10.632537
10.745874
10.890638
11.22897
11.971366
13.559204
16.159192
21.398077
29.482265
33.527827
35.750226
36.823201
40.871929
41.351513
45.125593
46.954835
52.06935
54.391816
57.697095
58.288192
62.438284
65.718178
69.74053
77.64772
77.73633
76.32058
74.959015
73.701185
73.170745
69.646696
64.201526
60.97245
58.461415
56.052079
52.565084
45.371621
64.073865
43.826927
58.894351
89.545617
85.130077
73.172439
55.449851
43.253846
31.747145
20.067543
17.471597
13.3402
11.657361
10.976517
11.158893
11.421712
12.484076
15.207764
17.673129
22.345574
27.205399
24.556495
49.412973
67.740761
90.086284
110.52388
116.5274
115.96147
114.4235
113.19111
150.12855
107.37388
109.69044
115.78595
128.62444
114.27952
74.755308
76.667315
56.204963
45.953961
35.574783
27.239645
22.931724
28.79867
38.536589
50.566128
66.907577
104.87722
91.016106
60.989693
47.052009
71.12131
80.389326
51.611916
26.083713
34.438058
19.984902
24.181331
31.053557
62.947028
128.21167
91.00215
113.811
133.82135
119.37609
108.54286
209.72759
92.851549
114.06152
123.12857
170.65358
122.43458
72.598204
41.41595
25.425957
17.898862
13.735586
11.982005
11.295397
10.719713
10.473926
10.358093
10.29782
10.263854
10.244084
10.231964
10.224077
10.21881
10.215409
10.213547
10.212705
10.21176
10.210711
10.209712
10.208809
10.207818
10.206685
10.205406
10.204032
10.202614
10.20119
10.199783
10.19841
10.197082
10.19581
10.1946
10.193458
10.192384
10.191383
10.190453
10.189595
10.188808
10.188091
10.187442
10.186861
10.186347
10.185901
10.185523
10.18521
10.184956
10.184745
10.184546
10.184333
10.184135
10.18404
10.184264
10.184779
10.185408
10.185788
10.119255
10.053743
9.9892354
9.9257091
9.8631372
9.8014868
9.7407198
9.6807934
9.6216633
9.563287
9.5056259
9.4486484
9.3923318
9.3366631
9.2816369
9.2272547
9.1735216
9.1204388
9.0680083
9.016225
8.9650777
8.9652909
8.9657814
8.9666966
8.9681949
8.9703562
8.973153
8.9765014
8.9803039
8.9844522
8.9888137
8.9932315
8.9975445
9.0016266
9.005421
9.0089357
9.0122139
9.0153192
9.0183144
9.0212534
9.0756293
9.072796
9.0699815
9.0671652
9.0643108
9.0613677
9.058273
9.0549591
9.051373
9.0474953
9.043371
9.03912
9.0349045
9.0308854
9.0271984
9.0239529
9.0212466
9.0191633
9.0177317
9.0168711
9.016419
9.0681812
9.0685915
9.069393
9.0707522
9.0727515
9.0753626
9.0785034
9.0820787
9.0859806
9.0900718
9.094188
9.0981638
9.1018805
9.1052998
9.1084493
9.1113889
9.1141897
9.116915
9.1196138
9.1223191
9.1250489
9.1278092
9.1305975
9.1834738
9.1807707
9.1780845
9.1754257
9.172798
9.1701962
9.1676043
9.1649903
9.1623062
9.1594879
9.1564615
9.1531626
9.1495604
9.1456911
9.1416773
9.1376889
9.1338934
9.1304269
9.1273933
9.1248824
9.1229731
9.121692
9.1209541
9.1205888
9.1736464
9.1739637
9.1746338
9.1758313
9.1776441
9.1800483
9.1829701
9.1863273
9.1900229
9.1939244
9.197863
9.2016634
9.2051958
9.2084202
9.2113667
9.2141008
9.2166984
9.219224
9.2217263
9.2242367
9.226771
9.229334
9.2319219
9.234524
9.2371249
9.2397065
9.2422464
9.2447183
9.2470959
9.3114009
9.3107716
9.3098793
9.3087936
9.3075565
9.3061553
9.3045582
9.3027554
9.3007634
9.2986133
9.2963384
9.293969
9.2915304
9.2890474
9.2865416
9.2840306
9.2815294
9.2790482
9.2765909
9.2741522
9.2717161
9.2692505
9.2667062
9.2640182
9.2611109
9.2579203
9.2544218
9.2506631
9.2467835
9.2429631
9.2393694
9.2361279
9.2333262
9.2310369
9.2293273
9.2282188
9.2276207
9.2273537
9.2817098
9.2819228
9.2824438
9.2834575
9.2850562
9.2872205
9.2898899
9.2930024
9.2964825
9.3002145
9.3040358
9.3077638
9.3112504
9.3144369
9.3173396
9.3200169
9.3225413
9.324978
9.3273764
9.3297692
9.3321735
9.3345949
9.3370297
9.3394681
9.3418959
9.3442961
9.3466481
9.3489283
9.3511121
9.3531703
9.3550705
9.3567826
9.3582911
9.3596084
9.3607727
9.3618058
9.3626715
9.3632942
9.4162026
9.4155828
9.4147389
9.4137515
9.4126517
9.4114079
9.4099757
9.4083401
9.4065155
9.4045314
9.4024189
9.4002063
9.3979185
9.3955768
9.3932018
9.3908096
9.3884139
9.3860241
9.3836429
9.3812647
9.3788715
9.3764304
9.3738928
9.3711963
9.3682738
9.3650754
9.3615964
9.3579075
9.3541631
9.3505433
9.3472014
9.3442397
9.3417205
9.3396945
9.3382162
9.3373039
9.3368641
9.336708
9.3923472
9.3924441
9.392799
9.3936037
9.3949517
9.3968238
9.3991705
9.4019516
9.4051191
9.4085866
9.4122147
9.4158321
9.4192842
9.4224903
9.4254419
9.4281774
9.4307551
9.4332324
9.4356548
9.438054
9.4404467
9.4428387
9.4452284
9.4476068
9.4499606
9.4522738
9.4545275
9.4567004
9.458768
9.4607029
9.462475
9.4640552
9.46543
9.4666164
9.4676648
9.4686171
9.4694467
9.4700686
9.524793
9.524163
9.5233383
9.522407
9.5213917
9.5202418
9.5189016
9.5173515
9.5156045
9.5136889
9.5116345
9.5094683
9.5072132
9.5048905
9.5025198
9.5001175
9.4976974
9.4952686
9.4928333
9.4903863
9.4879117
9.4853802
9.4827515
9.4799757
9.4770063
9.4738178
9.4704319
9.4669355
9.4634766
9.4602111
9.4572602
9.4546924
9.4525411
9.4508375
9.4496285
9.4489358
9.4486686
9.4486329
9.5055782
9.505551
9.505729
9.5063066
9.5073708
9.5088937
9.5108295
9.5131541
9.5158472
9.5188579
9.5220875
9.5254023
9.5286669
9.5317942
9.5347514
9.5375506
9.5402252
9.5428149
9.5453533
9.5478653
9.5503641
9.5528534
9.5553296
9.5577835
9.5602006
9.562564
9.5648544
9.5670505
9.5691289
9.5710621
9.57282
9.5743735
9.5757095
9.5768486
9.5778515
9.578777
9.5796077
9.5802528
9.6362869
9.6356179
9.6347678
9.6338287
9.6328154
9.6316608
9.6303006
9.6287134
9.6269139
9.6249323
9.6227997
9.6205442
9.6181902
9.6157597
9.613273
9.6107482
9.6082009
9.6056416
9.603075
9.6005001
9.5979072
9.5952766
9.5925832
9.5897981
9.5869013
9.5838924
9.5808118
9.5777414
9.5747956
9.5720843
9.5696831
9.5676251
9.565919
9.5645836
9.5636665
9.5632041
9.5631153
9.5632061
9.6215496
9.621396
9.6213969
9.6217465
9.6225189
9.6236665
9.6251378
9.6269169
9.6290051
9.6313855
9.6340053
9.6367803
9.6396179
9.6424448
9.6452219
9.6479392
9.6506052
9.6532382
9.6558549
9.6584689
9.6610858
9.6637039
9.6663165
9.6689119
9.671473
9.6739803
9.6764126
9.6787465
9.6809562
9.6830121
9.6848808
9.6865298
9.687942
9.6891377
9.6901839
9.6911549
9.6920373
9.6927377
9.7494431
9.7487049
9.747779