/*--------------------------------*- C++ -*----------------------------------*\
| =========                 |                                                 |
| \\      /  F ield         | OpenFOAM: The Open Source CFD Toolbox           |
|  \\    /   O peration     | Version:  v2012                                 |
|   \\  /    A nd           | Website:  www.openfoam.com                      |
|    \\/     M anipulation  |                                                 |
\*---------------------------------------------------------------------------*/
FoamFile
{
    version     2.0;
    format      ascii;
    class       volScalarField;
    location    "184";
    object      p;
}
// * * * * * * * * * * * * * * * * * * * * * * * * * * * * * * * * * * * * * //

dimensions      [0 2 -2 0 0 0 0];


internalField   nonuniform List<scalar> 
24571
(
-0.17096402
-0.17011394
-0.16962619
-0.17108383
-0.17187029
-0.17349703
-0.17606846
-0.1795908
-0.18387477
-0.18873505
-0.19385837
-0.1990651
-0.20412236
-0.20885386
-0.21298512
-0.21634204
-0.21880115
-0.22035062
-0.22114635
-0.22027068
-0.21852051
-0.21563837
-0.21147044
-0.20597715
-0.19917544
-0.19123619
-0.18226225
-0.17238903
-0.16170996
-0.15031704
-0.13829828
-0.12574086
-0.11272787
-0.099337155
-0.085640312
-0.071702778
-0.057584696
-0.043342117
-0.029028704
-0.014697625
-0.00040352961
0.013795684
0.027837213
0.041651606
0.055162272
0.068285178
0.08092929
0.092997323
0.10438888
0.11499601
0.12470764
0.13335939
0.14083363
0.14690393
0.1515629
0.15478669
0.15677119
0.15773793
0.16435757
0.17752728
0.1987361
0.22849809
0.26626141
0.31127687
0.36165668
0.41630906
0.47304692
0.52990774
0.58284731
0.62847885
0.66335171
0.68593009
0.69716962
0.69310558
0.68515024
0.67223454
0.65406737
0.63093794
0.6035337
0.57308267
0.54043562
0.50642562
0.47161662
0.43646908
0.40134804
0.36654794
0.33229628
0.29876241
0.26606538
0.23428313
0.20346088
0.17361877
0.1447591
0.11687361
0.089950556
0.063981431
0.038967107
0.014923266
-0.0081151704
-0.030091829
-0.050929631
-0.070533283
-0.08879588
-0.10559715
-0.12079903
-0.13420019
-0.14565055
-0.15487324
-0.16186544
-0.16669017
-0.16714795
-0.16226339
-0.15521524
-0.14589956
-0.13440266
-0.12091453
-0.10562896
-0.088720669
-0.070341803
-0.050618305
-0.029662917
-0.0075722507
0.015576399
0.03972763
0.064848472
0.09092571
0.11796125
0.14596692
0.17495833
0.20494767
0.23593648
0.26790832
0.30082171
0.33460304
0.36913778
0.40426118
0.43974952
0.47531154
0.51057763
0.54508008
0.57821977
0.60921553
0.63710512
0.66082156
0.67948932
0.69285559
0.70112739
0.70516621
0.72960402
0.77344378
0.84207421
0.9416832
1.0809882
1.2664878
1.5135876
1.8583113
2.302609
2.9097208
3.552258
4.4525415
5.3671119
6.5990266
7.9137849
9.5876682
10.908347
12.50724
9.6549713
6.2321872
4.2203647
2.291668
1.083459
-0.37130188
-0.97478586
-1.1213255
-1.5529735
-2.2049912
-2.628833
-2.7134479
-2.9210068
-3.3023845
-3.5249801
-3.6743773
-3.8521917
-3.9420658
-3.9172181
-4.0419622
-4.2366881
-4.2891659
-4.4662454
-4.3772828
-4.3292618
-4.3343884
-4.4500902
-4.5693873
-4.6890869
-4.657953
-4.5926325
-4.6908166
-4.6289138
-4.6569433
-4.6291299
-4.6328656
-4.6083311
-4.60025
-4.5676058
-4.5627252
-4.5076369
-4.5141524
-4.432242
-4.489723
-4.3669803
-4.4030891
-4.316262
-4.2832286
-4.2709677
-4.17071
-4.228614
-4.0875148
-4.0826831
-4.0194854
-3.9223045
-3.8445755
-3.7726703
-3.6868765
-3.6285895
-3.5220551
-1.1377319
-1.0802228
-1.0080224
-0.92488104
-0.83564305
-0.74630853
-0.66200879
-0.585342
-0.51763055
-0.45903963
-0.40905363
-0.36678812
-0.33122604
-0.30136173
-0.27627959
-0.25518824
-0.23742752
-0.22246194
-0.20987019
-0.19933387
-0.19062949
-0.18361323
-0.17819786
-0.17426066
-0.17161897
-0.1685997
-0.16361068
-0.15638929
-0.14684674
-0.13509134
-0.1213117
-0.10571286
-0.088472878
-0.069746599
-0.049670652
-0.028365561
-0.0059327958
0.017548719
0.042025215
0.067468661
0.093873161
0.12124953
0.14961995
0.17901115
0.20944694
0.2409406
0.27348729
0.30705721
0.34158905
0.37698058
0.4130796
0.44967323
0.48647798
0.52312529
0.55914111
0.59390784
0.62662176
0.65625254
0.6816412
0.70180365
0.71633077
0.72543095
0.76895062
0.83668831
0.93537428
1.0730259
1.2586977
1.5116036
1.8885024
2.4265256
3.0845097
3.168629
3.1087481
3.0567738
3.0579285
3.4850204
3.5959003
3.6787848
3.6962821
4.6582247
5.89606
7.6730446
7.7555572
7.934941
9.0173348
9.1800666
9.1788848
10.061326
11.03589
12.533408
10.014763
6.8697659
4.4629155
2.1793023
1.2857376
-0.3336123
-1.280562
-1.3433699
-1.5674871
-2.2991352
-2.8519756
-2.8367996
-2.8902125
-3.3178226
-3.5640599
-3.7086402
-3.8874569
-4.0116577
-3.9778142
-4.0339617
-4.2342185
-4.3557728
-4.5219312
-4.4141249
-4.4055756
-4.350106
-4.2254584
-4.0150944
-4.0455207
-3.9891884
-3.9036096
-3.7364394
-3.5931707
-3.3161614
-2.8730156
-2.9161924
-2.8504706
-2.2892907
-1.5044043
-1.4519258
-1.1412502
-0.13807212
0.70578324
2.9106427
5.3881525
7.9121085
10.422235
12.290002
10.829959
10.808725
12.120524
12.095191
13.069995
12.774272
11.750473
10.949613
11.394354
11.406622
11.908374
11.167846
11.394026
9.5341666
6.7492028
3.8277875
0.87132874
0.070102504
-1.182167
-1.65108
-1.533852
-2.3228121
-2.9513897
-3.1063277
-2.9239679
-3.2112215
-3.3092392
-3.5901673
-3.7879922
-3.9608192
-4.035055
-4.1459573
-4.0397926
-4.2048583
-4.2214237
-4.3466918
-4.4209505
-4.4357803
-4.3825186
-4.3474615
-4.4655128
-4.6359784
-4.7532119
-4.7726866
-4.7379622
-4.8295099
-4.7859248
-4.7845639
-4.7385974
-4.7302439
-4.7115413
-4.589429
-4.665995
-4.632754
-4.6498899
-4.622941
-4.6314853
-4.601527
-4.6003933
-4.5626898
-4.5609589
-4.5111138
-4.4989527
-4.4385237
-4.4763475
-4.3767656
-4.3845611
-4.3235892
-4.2784392
-4.2646175
-4.178225
-4.2061584
-4.1039058
-4.0813482
-4.1136725
-4.1418168
-4.1599107
-4.2355152
-4.2216025
-4.2150047
-4.2282743
-4.2713441
-4.2794837
-4.2291254
-4.2588166
-4.244975
-4.2184426
-4.2434775
-4.2441579
-4.0909697
-4.1050886
-4.1248238
-4.0749075
-4.0908333
-4.0962312
-4.1124861
-4.0728358
-3.9475813
-4.0661867
-4.0828236
-4.0743658
-4.0892115
-3.9713522
-4.090607
-4.0744206
-4.1191675
-4.1105262
-4.0879987
-4.0968182
-4.1838399
-4.241995
-4.2108212
-4.2302085
-4.3388619
-4.3717983
-4.3440327
-4.4014115
-4.3569192
-4.3454997
-4.3523168
-4.4460986
-4.5277136
-4.4946958
-4.5519644
-4.6073806
-4.6709512
-4.6330029
-4.6923571
-4.8797506
-4.7241333
-4.765508
-4.7566121
-4.6856169
-4.6835975
-4.6182327
-4.593752
-4.5117542
-4.5043468
-4.4719952
-4.5645951
-4.6433466
-4.7223304
-4.7673243
-4.8095393
-4.8252213
-4.8301038
-4.7766796
-4.8966664
-4.9339183
-4.8849596
-4.9004983
-4.8066372
-4.82007
-4.8619253
-4.7960636
-4.7240655
-4.6844666
-4.6039631
-4.4021048
-4.151441
-4.2143792
-4.2056926
-3.9004813
-3.4970533
-3.2896843
-3.2447212
-2.6366759
-1.3687886
-1.1144572
0.30383599
4.7963307
9.7923712
11.243454
11.08576
10.55021
9.6133343
9.8427707
9.0280309
7.8434093
8.0822233
7.5955072
5.8996307
4.7743177
3.9625995
3.4494736
3.2036533
3.2112913
3.7201009
4.343719
5.153088
6.3329203
8.5805971
7.6304239
7.3591302
6.8489904
6.9351132
7.8419483
8.2522753
8.7110532
9.234286
10.09514
9.5772298
11.050161
9.9995002
10.945234
6.4365629
1.4928299
-0.59507318
-0.68789982
-1.4730093
-2.2393191
-3.0433236
-3.2678183
-3.2759008
-3.7827048
-4.2234147
-4.3595968
-4.1443939
-4.3199986
-4.3777444
-4.5662
-4.7052083
-4.7426778
-4.8142686
-4.87824
-4.8407713
-4.8028778
-4.8807611
-4.9402129
-4.9688916
-4.9001378
-4.8002979
-4.929967
-5.0014042
-4.9422939
-4.8873383
-4.9493595
-4.8717907
-4.9223666
-4.861904
-4.7300899
-4.693604
-4.5242167
-4.3237166
-4.3371008
-4.3081082
-4.122324
-3.6849222
-3.4870149
-3.4401722
-2.9094525
-1.7697163
-1.1264675
0.58327184
2.6593221
5.9413099
10.301445
8.5830759
9.5107266
11.662146
6.4174486
5.8531873
3.4897342
0.75554417
-0.93918937
-1.3501361
-2.5561257
-3.3219215
-3.428211
-3.4989543
-4.0516341
-4.3183227
-4.4211684
-4.3375109
-4.5251127
-4.5202677
-4.6402181
-4.7731974
-4.8511301
-4.9391665
-4.9115262
-4.9605607
-4.8953141
-4.9278463
-5.0349536
-4.9958632
-4.8863069
-4.9663583
-5.0137386
-5.0664196
-5.0351754
-5.0194627
-5.0225874
-4.9317679
-5.0023761
-5.0198904
-4.9795669
-4.9250736
-4.8433452
-4.8319086
-4.5857856
-4.4609575
-4.5106722
-4.4006076
-4.30668
-3.9429611
-3.4029639
-3.4366794
-3.1380627
-2.2424028
-1.539977
-0.22013004
1.60175
4.6750423
7.1143464
11.156717
9.1912457
9.190447
9.0313311
8.6385886
11.650998
11.586374
10.6764
10.107469
8.9691552
8.378997
11.193628
8.1030867
9.60424
9.1488771
9.1241539
8.8149832
8.0248558
8.6814322
7.8408706
7.8070655
7.5831411
7.7336192
8.6968786
8.8377841
8.6077364
9.3468776
8.9291676
8.0771807
11.386346
11.97087
11.405091
6.8060503
5.2427338
4.9103075
2.847623
0.10643136
-1.3385895
-1.7210666
-2.9217903
-3.5891241
-3.3137685
-3.5896128
-3.8175682
-4.1974687
-4.4585443
-4.6614353
-4.4566201
-4.5203217
-4.6064353
-4.8278997
-4.84351
-4.920969
-5.0153728
-5.0384978
-5.0075246
-4.9264167
-4.9906756
-5.0545414
-5.0427167
-5.0348093
-5.0190117
-4.8594809
-4.8495615
-4.8726139
-4.8508067
-4.7961373
-4.7502867
-4.6805553
-4.5972542
-4.5162757
-4.4323685
-4.3875354
-4.2819785
-4.2651083
-4.1621965
-4.1328609
-4.0322936
-4.006862
-3.9167687
-3.8822842
-3.8649908
-3.7831635
-3.7002411
-3.6220722
-3.5257999
-5.2931251
-5.2072841
-4.9034068
-4.4989451
-4.6531941
-4.505014
-3.9024602
-2.6818654
-2.7967366
-1.5099456
3.3039151
9.3081983
10.783545
10.967262
10.473112
9.4642543
9.5682785
9.0151939
7.520286
7.7798048
7.3086949
5.304092
4.0665117
3.4172096
3.028855
2.9060948
2.630346
2.5268633
2.2958766
2.3150448
2.7361285
2.9487897
3.1732972
3.4477785
3.696505
4.8496858
6.1816477
9.5095671
7.7380349
7.5905947
7.1928734
7.4560114
8.6700348
8.977724
8.9663983
10.200407
10.272546
9.0705444
10.162655
11.160992
4.6293771
-0.497141
-2.1230906
-2.1601733
-2.9975963
-3.5438163
-4.3883292
-4.5303959
-4.4441863
-4.7838681
-4.7691459
-0.14049237
3.1429877
7.2469849
11.054518
9.6179848
9.949589
10.937485
13.060983
12.465775
10.606357
5.4978991
0.69554795
-1.1592829
-2.639118
-3.0714181
-4.1270492
-4.4973556
-4.6979627
-4.6101302
-3.3485102
-3.4356753
-3.5253457
-3.5991841
-3.684671
-3.7820188
-3.946216
-3.9876674
-4.0135185
-4.0797891
-4.0809355
-4.1432473
-4.1596479
-4.1997743
-4.238835
-4.2551951
-4.3081799
-4.3077917
-4.346238
-4.3587846
-4.3840803
-4.3965371
-4.4095483
-4.4197343
-4.4247623
-4.4275114
-4.4277413
-4.4213718
-4.4367048
-4.3969418
-4.3458891
-4.2979528
-4.0051079
-3.8627269
-3.7637312
-3.5035722
-3.094637
-2.6226495
-2.0685724
-1.4385581
-0.60168151
0.27737921
1.2416866
2.0516117
2.5631335
2.6437675
2.1502124
1.833365
1.5394029
1.3041413
1.1222074
0.97773165
0.86683531
0.78502088
0.72782212
0.69057747
0.66988882
0.63354996
0.58655213
0.53222197
0.47445337
0.41672481
0.3613988
0.3104014
0.26514583
0.22696507
0.19693566
0.17532963
0.16189986
0.15533881
0.14782069
0.13428625
0.11369995
0.085047805
0.047309105
0.00023356014
-0.056774624
-0.12408646
-0.20210875
-0.2909303
-0.39018885
-0.49890878
-0.6154405
-0.73746569
-0.86207808
-0.98549692
-1.104531
-1.2164302
-1.3181781
-1.4072141
-1.481708
-1.5400563
-1.5816636
-1.6058569
-1.6131271
-1.6061414
-1.5810084
-1.5410392
-1.5515772
-1.5926242
-1.6189233
-1.6280208
-1.6203769
-1.5961906
-1.5546643
-1.4960238
-1.4208458
-1.3306233
-1.2272296
-1.1132647
-0.9918388
-0.86576646
-0.7384617
-0.61391295
-0.49515355
-0.38462656
-0.28403139
-0.19433935
-0.11588257
-0.048517473
0.0082110657
0.054879681
0.09208102
0.12041599
0.14075938
0.1542592
0.16812495
0.15512392
0.13544086
0.10791237
0.071576587
0.025652248
-0.03062499
-0.098049565
-0.17729103
-0.26867473
-0.37199022
-0.48634147
-0.60992242
-0.74000588
-0.87324218
-1.0051896
-1.1319214
-1.2504466
-1.3574501
-1.45034
-1.5272267
-1.5867151
-1.6283787
-1.6520786
-1.658345
-1.6465577
-1.6180084
-1.5745418
-1.6123876
-1.6600347
-1.69237
-1.7077142
-1.7040918
-1.6818316
-1.6402817
-1.5795357
-1.4999604
-1.4027783
-1.2897993
-1.1637809
-1.0281358
-0.88620851
-0.74274274
-0.60310805
-0.47126743
-0.35039977
-0.24248394
-0.14838581
-0.068035584
-0.00072240692
0.054585273
0.0990549
0.13378468
0.15979844
0.17824363
0.19038121
0.22137793
0.2107115
0.1942527
0.17068941
0.13862432
0.09665079
0.043192195
-0.023492793
-0.10506147
-0.20284809
-0.31739112
-0.44800156
-0.59242989
-0.74672239
-0.90569171
-1.062643
-1.2116493
-1.3487868
-1.4703783
-1.5735697
-1.6566329
-1.7186233
-1.7594083
-1.7791715
-1.7787841
-1.7584658
-1.7204702
-1.666647
-1.7378044
-1.7999959
-1.8458362
-1.8729151
-1.8790515
-1.8632405
-1.8242861
-1.7614123
-1.6743402
-1.5636645
-1.4308876
-1.2787789
-1.1112809
-0.93317225
-0.75200284
-0.57650369
-0.41398283
-0.26979748
-0.14655391
-0.044493334
0.037818482
0.10272012
0.15286938
0.19082368
0.21880369
0.23871534
0.25226304
0.26083971
0.30761295
0.30192527
0.29243198
0.27769405
0.25570504
0.2239324
0.17931049
0.11816572
0.036405675
-0.069972315
-0.20395688
-0.36626046
-0.55392504
-0.75924148
-0.97118416
-1.1777611
-1.3692152
-1.5403622
-1.6864515
-1.8053973
-1.8961857
-1.9588879
-1.9944245
-2.0043718
-1.9903807
-1.9543368
-1.8984757
-1.8254528
-1.9294212
-2.0154586
-2.0834957
-2.1311402
-2.1556391
-2.154105
-2.1243524
-2.063804
-1.9705392
-1.8434076
-1.6822518
-1.4880985
-1.2667907
-1.0232483
-0.7693162
-0.52257656
-0.30037198
-0.11435222
0.032258338
0.14201886
0.22057737
0.27463012
0.31036332
0.33302746
0.34664813
0.354353
0.35845441
0.36050127
0.41825747
0.42084974
0.42371449
0.42535125
0.42325701
0.41368727
0.39147379
0.3494571
0.27870381
0.16846623
0.0077530945
-0.21046762
-0.48171814
-0.78683554
-1.0980284
-1.389075
-1.6451543
-1.8642593
-2.0400364
-2.1740798
-2.2676317
-2.3232409
-2.3440949
-2.3343275
-2.2964265
-2.2342028
-2.1510268
-2.0493552
-2.1871426
-2.3063343
-2.4058532
-2.4844042
-2.5399724
-2.5655008
-2.5574995
-2.5116217
-2.4227478
-2.2871218
-2.1000518
-1.8525992
-1.5532246
-1.1994858
-0.80943174
-0.42069984
-0.081856882
0.17603356
0.3507408
0.45600735
0.51087969
0.5331215
0.53462631
0.52595975
0.51265838
0.49899207
0.4874028
0.47908017
0.54052581
0.55569668
0.57780681
0.60642229
0.63961933
0.67341153
0.70084525
0.71168656
0.685881
0.60166728
0.42609122
0.11936536
-0.32353686
-0.83715953
-1.3326584
-1.7627811
-2.105201
-2.3877604
-2.5891513
-2.7244351
-2.803555
-2.8348188
-2.8249444
-2.7836827
-2.7064741
-2.6033291
-2.4819279
-2.3405639
-2.520151
-2.6874651
-2.8302809
-2.9330765
-3.0371284
-3.1118197
-3.1453294
-3.1375844
-3.0777526
-2.9532337
-2.7528275
-2.4620453
-2.0872363
-1.5684964
-0.92376827
-0.21366233
0.40050903
0.7918557
0.9590771
0.98473056
0.95313411
0.89432223
0.82561034
0.7595221
0.70200971
0.65592494
0.62190631
0.59910144
0.65045464
0.68098879
0.72727097
0.79198226
0.87669039
0.98148192
1.1033613
1.2368064
1.3743042
1.4770194
1.3925867
0.82221713
-0.086153444
-1.0742
-1.9158975
-2.5520522
-2.6385227
-2.9979825
-3.0423713
-3.2495059
-3.239713
-3.3957573
-3.3565496
-3.4664515
-3.4048582
-3.4764728
-3.3990569
-3.4408788
-3.3536864
-3.3728251
-3.2761641
-3.3028158
-3.2153831
-3.4055828
-3.4682005
-3.5450083
-3.5757519
-3.6284561
-3.6467238
-3.6823397
-3.6795258
-3.6906297
-3.6601034
-3.6377754
-3.5729238
-3.5072466
-3.4035604
-3.2828146
-3.1488508
-3.4570227
-3.3261771
-2.9296082
-2.6727011
-2.1398754
-1.7268915
-1.1007878
-0.47425399
0.25410977
0.95855699
1.4761396
1.9177443
1.8781383
1.9086697
1.403389
0.79346179
0.42445533
0.17676006
0.0093647126
-0.11173493
-0.20068893
-0.26606845
-0.31384735
-0.34785868
-0.37040624
-0.38360723
-0.38945091
-0.3882835
-0.38626612
-0.38354275
-0.38005788
-0.37594142
-0.37135114
-0.36645842
-0.36140341
-0.35630629
-0.35127193
-0.34639305
-0.3417527
-0.33742528
-0.33347881
-0.32997685
-0.32698095
-0.32455277
-0.32275533
-0.32165294
-0.32130963
-0.32178511
-0.32312887
-0.32537198
-0.32851789
-0.33253344
-0.33734216
-0.34282196
-0.34880894
-0.35510624
-0.36149669
-0.36775152
-0.37363519
-0.37890732
-0.38334578
-0.38678794
-0.38920785
-0.39065598
-0.39138619
-0.36218948
-0.33594668
-0.31258516
-0.29201564
-0.27414701
-0.25896966
-0.24644766
-0.23668872
-0.22951961
-0.22472266
-0.22201824
-0.22116817
-0.22391525
-0.22875192
-0.2359354
-0.24571734
-0.25819725
-0.27335373
-0.29119294
-0.31176109
-0.33513928
-0.36141441
-0.35986882
-0.35728628
-0.35359819
-0.34881912
-0.34310098
-0.33665538
-0.32970838
-0.32247774
-0.31517222
-0.30798992
-0.30111149
-0.2946909
-0.28884782
-0.28366411
-0.279185
-0.27542398
-0.27236986
-0.26999416
-0.26825804
-0.26711774
-0.2665284
-0.26644612
-0.26682844
-0.26763386
-0.26882039
-0.27034372
-0.27215553
-0.27420164
-0.27642076
-0.27874242
-0.2810863
-0.28335789
-0.2854403
-0.28723183
-0.28865493
-0.28977549
-0.2904078
-0.20179795
-0.20167183
-0.20140317
-0.20119482
-0.20098329
-0.20079679
-0.20068523
-0.20070663
-0.2009162
-0.2013561
-0.20206348
-0.20306962
-0.20440138
-0.20608245
-0.20813481
-0.21058023
-0.21344145
-0.21674303
-0.22051127
-0.22477322
-0.22955457
-0.23487589
-0.24074781
-0.24716526
-0.25410152
-0.2615027
-0.26928428
-0.27733067
-0.28549834
-0.29362231
-0.30152294
-0.30901071
-0.31588564
-0.32193684
-0.32696464
-0.33082897
-0.33352523
-0.31010161
-0.3073299
-0.3033435
-0.29813905
-0.29184451
-0.28464707
-0.27674251
-0.26831387
-0.25953281
-0.25056175
-0.24155125
-0.23263444
-0.22392206
-0.21549943
-0.20742649
-0.19974021
-0.1924589
-0.18558692
-0.17911947
-0.17304691
-0.16735816
-0.16204308
-0.15709357
-0.15250423
-0.14827195
-0.14439529
-0.14087322
-0.13770393
-0.13488354
-0.13240533
-0.1302604
-0.12843631
-0.12692126
-0.12571707
-0.12483762
-0.1243304
-0.12399415
-0.056916796
-0.057651606
-0.058829705
-0.060651355
-0.063081409
-0.066073102
-0.069579903
-0.073571426
-0.078023659
-0.082915693
-0.088227526
-0.093938689
-0.10002861
-0.10647788
-0.11326939
-0.12038925
-0.12782712
-0.13557606
-0.1436317
-0.15199086
-0.16064914
-0.16959779
-0.17881991
-0.18828652
-0.19795273
-0.20775446
-0.21760675
-0.22740406
-0.23702282
-0.24632569
-0.25516566
-0.2633872
-0.2708228
-0.27729112
-0.28261749
-0.28668565
-0.28950492
-0.2716479
-0.268798
-0.26467613
-0.25926786
-0.25267826
-0.24506973
-0.23661036
-0.22745381
-0.21774149
-0.20760685
-0.19717562
-0.18656266
-0.17586849
-0.16517705
-0.1545552
-0.14405387
-0.13371066
-0.12355285
-0.11360069
-0.10387074
-0.094378761
-0.085142029
-0.07618092
-0.067519885
-0.059187965
-0.051218723
-0.043649525
-0.036520458
-0.029873095
-0.023750406
-0.018198872
-0.013273338
-0.0090407012
-0.0055854307
-0.0029813772
-0.0012481872
-0.00018659431
0.04668015
0.045380409
0.043213886
0.039985102
0.035701931
0.030460815
0.024377188
0.017548114
0.010053546
0.0019612727
-0.0066664916
-0.015770319
-0.025293514
-0.035183317
-0.045391931
-0.055877117
-0.066602071
-0.077534676
-0.088646403
-0.099910635
-0.11130045
-0.12278596
-0.1343314
-0.1458923
-0.1574131
-0.16882514
-0.18004583
-0.19097924
-0.20151813
-0.21154683
-0.22094341
-0.2295785
-0.23731031
-0.24398247
-0.24944414
-0.253601
-0.25647344
-0.24397674
-0.24108489
-0.23690588
-0.23141088
-0.22468396
-0.2168661
-0.20810386
-0.19852935
-0.18826203
-0.17741427
-0.16609336
-0.1544001
-0.14242638
-0.13025342
-0.11795103
-0.10557823
-0.093184847
-0.080813478
-0.068501856
-0.056285459
-0.044200025
-0.032283548
-0.020578068
-0.009130839
0.0020048121
0.012769211
0.023096838
0.032917299
0.042156511
0.050736516
0.05857235
0.065564582
0.071593169
0.076519447
0.080227735
0.082713393
0.084184079
0.11280852
0.11123977
0.10852306
0.10446034
0.099057893
0.092445504
0.08477674
0.076187169
0.066790442
0.056684812
0.045960662
0.034703632
0.02299489
0.010910012
-0.0014819231
-0.014118748
-0.026944847
-0.039910238
-0.05296927
-0.066078992
-0.07919719
-0.092280033
-0.10527968
-0.11814222
-0.13080614
-0.14320089
-0.15524651
-0.16685436
-0.1779288
-0.18836916
-0.1980706
-0.2069215
-0.21479743
-0.2215598
-0.22707461
-0.23126663
-0.23417338
-0.22697859
-0.22406476
-0.21986667
-0.21434243
-0.20756086
-0.19965016
-0.19074245
-0.18095619
-0.1703976
-0.15916631
-0.1473583
-0.1350655
-0.12237408
-0.10936298
-0.096103166
-0.082657944
-0.069084077
-0.055433309
-0.041753813
-0.028092722
-0.014498434
-0.0010222438
0.012279942
0.025346281
0.038108069
0.050489345
0.062407194
0.073772556
0.08449114
0.09446301
0.10357968
0.11171786
0.1187325
0.12446644
0.12878497
0.13168516
0.13335129
0.14688534
0.14509043
0.14202199
0.1375225
0.13157772
0.12431424
0.11588026
0.10642685
0.096084489
0.084969912
0.073189809
0.060844091
0.048026819
0.034825627
0.021320997
0.0075860862
-0.0063130823
-0.02031676
-0.034369809
-0.048420077
-0.062417122
-0.076309807
-0.090043743
-0.10356034
-0.11679509
-0.1296768
-0.14212742
-0.15406244
-0.16539254
-0.17602474
-0.18586237
-0.19480142
-0.20272724
-0.20951062
-0.2150323
-0.21922647
-0.22213988
-0.21940558
-0.21650417
-0.21232859
-0.20681967
-0.20003807
-0.19210525
-0.18314799
-0.1732839
-0.16261492
-0.15123521
-0.1392352
-0.12670251
-0.11372054
-0.10036705
-0.086713357
-0.072824654
-0.058760676
-0.044577095
-0.030326945
-0.016062614
-0.0018382621
0.012288859
0.026256699
0.039996843
0.053433622
0.066483998
0.079057832
0.091058702
0.10238497
0.11292762
0.12256709
0.13116146
0.13856296
0.14461355
0.14922745
0.15242715
0.15436828
0.16107227
0.16337532
0.16130435
0.15796569
0.15318424
0.14695023
0.13932321
0.13047341
0.12055071
0.1097055
0.09806364
0.085739724
0.072840103
0.059464986
0.045707653
0.03165357
0.017380066
0.0029575146
-0.011550082
-0.026084714
-0.04059186
-0.05501872
-0.069312163
-0.083416557
-0.097271998
-0.11081334
-0.12396947
-0.13666277
-0.14881012
-0.16032412
-0.17111437
-0.18108638
-0.19013709
-0.19814822
-0.20499167
-0.21054797
-0.21476045
-0.21768265
-0.21946434
-0.2178856
-0.21607908
-0.21310891
-0.20880849
-0.20312957
-0.19614081
-0.1879643
-0.17873055
-0.16855658
-0.15754583
-0.14579384
-0.13339212
-0.12042874
-0.10698706
-0.093144563
-0.078971995
-0.064533845
-0.049889304
-0.035093142
-0.02019768
-0.0052550918
0.0096801672
0.02454914
0.039287246
0.053823699
0.068078586
0.081962415
0.095377
0.10821588
0.12036478
0.13170014
0.14208507
0.15136172
0.15936711
0.16592922
0.17096194
0.1744872
0.17663752
0.19785109
0.19564368
0.19190244
0.18648962
0.17939943
0.17076696
0.16078749
0.14964401
0.13750761
0.12453154
0.11085388
0.096601467
0.081890906
0.06682822
0.051508489
0.036015964
0.020424679
0.0047999837
-0.010799397
-0.026319631
-0.041709543
-0.056918134
-0.071892131
-0.086573979
-0.10090043
-0.11480133
-0.12819889
-0.14100913
-0.15314281
-0.16450683
-0.17500432
-0.18453141
-0.19297111
-0.20019113
-0.20605523
-0.21049191
-0.21354498
-0.2153951
-0.21200479
-0.21007689
-0.20689566
-0.20227289
-0.19614831
-0.18862054
-0.17982382
-0.16989456
-0.15895298
-0.14710509
-0.13444954
-0.12108092
-0.10708971
-0.092560538
-0.077570384
-0.062188176
-0.04647593
-0.030489238
-0.014279017
0.0021059116
0.018616039
0.03519848
0.051794452
0.068336927
0.084748545
0.10093981
0.11680798
0.13223661
0.1470957
0.16124188
0.17451736
0.18674596
0.1977318
0.20725764
0.21509765
0.22107735
0.225183
0.22754552
0.26523014
0.26260367
0.2579873
0.25123876
0.24239789
0.23168404
0.21937322
0.20572462
0.19096912
0.17531119
0.15893285
0.14199769
0.12465209
0.1070251
0.089228675
0.071358501
0.053495599
0.035708461
0.018055503
0.00058796782
-0.016647074
-0.033603624
-0.050233901
-0.066485697
-0.082299705
-0.097608144
-0.11233449
-0.12639384
-0.13969447
-0.15213965
-0.1636283
-0.1740513
-0.18328416
-0.19118472
-0.19761139
-0.20246283
-0.20580157
-0.20782705
-0.20307036
-0.200942
-0.19742467
-0.19231349
-0.18555481
-0.17723216
-0.16750394
-0.15651853
-0.14440514
-0.13127646
-0.1172367
-0.10238477
-0.086813777
-0.070608946
-0.053845978
-0.036590417
-0.018898293
-0.00081812048
0.017606605
0.036333822
0.055319929
0.074516245
0.093865369
0.11329775
0.13272886
0.15205644
0.1711585
0.18989248
0.20809302
0.22557345
0.24212379
0.25750586
0.27144507
0.28362629
0.29371697
0.3014533
0.30676999
0.30985821
0.35992722
0.35623981
0.35004234
0.34111539
0.32954483
0.31563441
0.29979136
0.28239648
0.26377445
0.2442024
0.22392173
0.20314508
0.18205981
0.16082023
0.13955814
0.11838216
0.097379791
0.076620853
0.05616085
0.036044972
0.016312397
-0.0029988564
-0.021851998
-0.040202979
-0.057999479
-0.07517864
-0.091665393
-0.10737548
-0.12221489
-0.13608345
-0.14887407
-0.16046955
-0.17073362
-0.17950767
-0.18663469
-0.19202391
-0.19572924
-0.19796626
-0.19272313
-0.19037716
-0.18647899
-0.18080377
-0.17329595
-0.16405043
-0.15323051
-0.14100134
-0.12750628
-0.1128666
-0.097193176
-0.080586336
-0.0631405
-0.044935843
-0.02605004
-0.0065431719
0.013537491
0.034154189
0.055274859
0.076867319
0.098899011
0.12132968
0.14410688
0.16716158
0.19040442
0.21372088
0.23696895
0.25997603
0.28253577
0.30441023
0.32532626
0.34496665
0.36295024
0.37881367
0.39207559
0.40236235
0.40958454
0.41402321
0.47031289
0.46511589
0.45680562
0.44504463
0.42993589
0.41192588
0.39160601
0.3695211
0.34611342
0.32175203
0.29675279
0.27138066
0.2458556
0.22036395
0.19505612
0.17005246
0.14544197
0.12129092
0.097647495
0.074546559
0.052015086
0.030077482
0.0087585624
-0.011911079
-0.031890193
-0.051123869
-0.069539634
-0.087054349
-0.10357269
-0.11898671
-0.13318055
-0.14604414
-0.15742229
-0.16714063
-0.17503013
-0.18099276
-0.18508669
-0.18754798
-0.18265476
-0.18007887
-0.17579286
-0.16955253
-0.16129599
-0.15112299
-0.13921032
-0.12574475
-0.11087376
-0.094710444
-0.077379633
-0.058992205
-0.039642122
-0.019410164
0.0016347326
0.02344275
0.045976098
0.069210462
0.093128223
0.11771359
0.14294748
0.16880188
0.19523402
0.22218087
0.24955665
0.27724186
0.3050754
0.33285762
0.36034428
0.38724214
0.41320184
0.43780512
0.46054298
0.480772
0.49779348
0.51109557
0.5205191
0.5264794
0.57913402
0.57258322
0.56209857
0.54728599
0.52837547
0.50598787
0.48090625
0.45386502
0.42544323
0.39611048
0.36625084
0.33618133
0.30616263
0.27640609
0.24707729
0.21829872
0.19015708
0.16271047
0.13599528
0.11003199
0.084831435
0.060400956
0.036753555
0.013904608
-0.0081173956
-0.029266427
-0.04947705
-0.068667579
-0.086735073
-0.10357833
-0.11907956
-0.13309537
-0.14548278
-0.15606519
-0.16465419
-0.17114821
-0.17561513
-0.17830919
-0.17473586
-0.17193763
-0.16731683
-0.16061152
-0.15174903
-0.14082864
-0.12803695
-0.11355034
-0.097527049
-0.080110871
-0.061415099
-0.041552108
-0.020614318
0.0013133783
0.02416485
0.047897031
0.072488394
0.097928522
0.12421481
0.15134743
0.17932265
0.20812682
0.23772982
0.26807787
0.29908599
0.33063272
0.36255165
0.39462497
0.42657679
0.45806578
0.48867393
0.51788439
0.54505215
0.56937087
0.58997316
0.60612503
0.61746258
0.62445263
0.65926088
0.65177863
0.63967672
0.62254559
0.60067736
0.57487226
0.54607294
0.51516107
0.48284356
0.44967614
0.41610309
0.38248187
0.34909796
0.31617446
0.28387865
0.25232801
0.22160776
0.19176799
0.16283395
0.13481341
0.10770428
0.081500852
0.056199638
0.031806612
0.008341421
-0.014158028
-0.03563303
-0.056004906
-0.075181069
-0.093034356
-0.10944893
-0.12429171
-0.13738659
-0.14855687
-0.15761688
-0.16447636
-0.16921637
-0.1721025
-0.17042397
-0.16747894
-0.16266347
-0.15571337
-0.14654016
-0.13521478
-0.12192531
-0.10685667
-0.090180011
-0.072047029
-0.052582631
-0.031896659
-0.010083857
0.012778144
0.036632195
0.061442876
0.087193217
0.11388035
0.14151115
0.17009527
0.19963899
0.23013809
0.26157068
0.29389
0.32701656
0.36083142
0.39516637
0.4297955
0.46442769
0.49869671
0.53214409
0.56418338
0.59406091
0.62085353
0.64357472
0.66140031
0.67408702
0.68192164
0.6894037
0.69366002
0.71715629
0.75912857
0.82413027
0.91843517
1.0495476
1.2265839
1.4672072
1.8123473
2.3513406
2.5902725
3.1795079
3.3186725
3.3744125
2.8552071
1.51939
0.21706464
-0.78460832
-0.58544226
-1.2138536
-1.5962405
-2.0301557
-2.2669688
-2.6623359
-2.8725612
-3.2090559
-3.3553626
-3.6506624
-3.7743645
-4.0535179
-4.1828573
-4.2106964
-4.1127475
-3.9538906
-3.8200032
-3.6613432
-3.482844
-3.2140736
-2.9370986
-2.6567297
-2.3157293
-1.9505399
-1.5040503
-0.9950313
-1.1195318
-0.79006772
-0.22371345
-0.72078127
-0.099733289
0.91719616
2.0175477
3.2441047
3.9510943
3.6440323
4.8062629
4.2876784
3.8139945
3.1822777
3.2377584
3.7390806
4.333154
5.3326003
5.9124761
5.5440571
6.1060374
5.1703526
4.8825365
3.5485773
2.2467229
0.86298576
0.2244186
-0.032984859
-0.083999008
0.14635727
-0.0042069636
0.041782903
0.090065231
-0.0026126423
-0.50283022
0.0061744816
0.09097093
-0.01825158
0.41527841
1.1633496
2.0315511
3.0503481
3.3865637
3.7685673
3.1862981
2.0849821
0.95344317
0.94552318
2.3136791
3.6459431
4.8247012
6.0256088
6.1530528
6.9436655
6.7881341
7.9748886
7.0934452
7.1669133
8.0727228
8.9476324
10.100135
8.617443
8.596792
7.0241456
6.9728844
8.3156383
9.1322495
8.6527044
7.0783636
7.7886884
7.2853732
8.2454304
6.0074998
4.9462284
3.7715587
2.9571451
2.0842137
1.5211012
0.87194168
0.41741709
0.12619668
-0.076612478
-0.20643468
-0.29667869
-0.36249221
-0.41017698
-0.44464405
-0.46887828
-0.48479208
-0.49400418
-0.49796203
-0.49625361
-0.49332912
-0.48928012
-0.48406456
-0.47786105
-0.47088377
-0.46335623
-0.45546345
-0.44736431
-0.43919802
-0.43108907
-0.42314989
-0.4154819
-0.40817778
-0.40132361
-0.39500193
-0.38929474
-0.38428543
-0.38005937
-0.37670287
-0.37429924
-0.37292239
-0.37262734
-0.37343893
-0.37534049
-0.37826469
-0.38208976
-0.38664323
-0.39171293
-0.39706231
-0.40244326
-0.40760353
-0.41229051
-0.41627419
-0.41938329
-0.42157981
-0.42289423
-0.42356427
-0.45869305
-0.49666655
-0.53728557
-0.58023892
-0.62508637
-0.67124945
-0.7179809
-0.76426432
-0.80913005
-0.85163562
-0.8906309
-0.92505352
-0.95390231
-0.97635904
-0.99175757
-0.99967083
-0.99973866
-0.99349593
-0.97894866
-0.95736207
-0.92963684
-0.93150739
-0.93547483
-0.942108
-0.95168168
-0.96422024
-0.9794151
-0.99678757
-1.0158043
-1.0359016
-1.0565035
-1.0769985
-1.0968014
-1.1153566
-1.1322541
-1.1472427
-1.1601767
-1.1710547
-1.1799467
-1.1869895
-1.2697197
-1.2640376
-1.2567362
-1.2476174
-1.236496
-1.2232203
-1.207708
-1.1899549
-1.170124
-1.1484878
-1.1255268
-1.1018633
-1.0781784
-1.0551593
-1.033456
-1.0136918
-0.99645318
-0.98226102
-0.97144206
-0.96395317
-0.95947148
-0.98122926
-0.98611262
-0.99430655
-1.0061746
-1.021774
-1.0407658
-1.0625977
-1.0866437
-1.1122337
-1.13866
-1.1651748
-1.1910134
-1.2155002
-1.2380896
-1.2584909
-1.276525
-1.2921973
-1.3055987
-1.3168907
-1.3262695