/*--------------------------------*- C++ -*----------------------------------*\
| =========                 |                                                 |
| \\      /  F ield         | OpenFOAM: The Open Source CFD Toolbox           |
|  \\    /   O peration     | Version:  v2012                                 |
|   \\  /    A nd           | Website:  www.openfoam.com                      |
|    \\/     M anipulation  |                                                 |
\*---------------------------------------------------------------------------*/
FoamFile
{
    version     2.0;
    format      ascii;
    class       surfaceScalarField;
    location    "184";
    object      phi;
}
// * * * * * * * * * * * * * * * * * * * * * * * * * * * * * * * * * * * * * //

dimensions      [0 3 -1 0 0 0 0];
oriented        oriented;


internalField   nonuniform List<scalar> 
70636
(
8.2830834e-06
-0.0071318877
-0.00010075088
0.00015614049
0.0071161594
-4.7944462e-05
-0.0068486076
6.5251946e-05
0.0068224172
-3.0778505e-05
7.7543335e-05
1.7363209e-05
-2.9519619e-05
-9.7976158e-05
0.0065181006
-1.9566746e-07
0.00010704329
0.0067441749
-0.00022705482
0.00016574233
0.0069868617
-4.1729404e-05
0.00018978435
0.0073464948
-0.00014863277
0.00019755345
0.0074772732
-2.0682272e-05
0.00020109574
0.0075880214
-3.0837302e-05
0.00019951219
0.0075534266
4.3899135e-07
0.00019810005
0.0075363195
3.1700771e-05
0.00019811043
0.007536354
2.1490625e-05
0.00019953967
0.0075534743
0.00014934607
0.00020113686
0.0075880839
4.23192e-05
0.00019761143
0.0074773474
0.00022750832
0.00018986036
0.0073465793
5.0558751e-07
0.0001658322
0.0069869552
9.8136749e-05
0.00010713602
0.0067442716
-7.7462131e-05
0.0065182062
1.7515102e-05
0.0068487337
-2.9684855e-05
-0.00017872476
0.0072922788
-5.4755955e-05
-2.6439558e-05
0.0078587289
-0.00010130139
-0.00012787604
0.0082225179
-0.00012689774
-2.5626976e-05
0.0085020238
-0.00013204427
-3.0111651e-05
0.0085903587
-0.00012697587
-2.658391e-07
0.0086232291
-0.00012365892
3.1596964e-06
0.0086129447
-0.00012223059
3.5797756e-06
0.008598127
-0.00012198233
1.3165593e-06
0.0085864556
-0.00012200778
-3.2077753e-08
0.0085801583
-0.00012210845
-8.7694246e-07
0.0085771462
-0.00012218715
-1.2640201e-06
0.0085759133
-0.00012224213
-1.4046371e-06
0.00857547
-0.00012227677
-1.4195363e-06
0.0085753402
-0.00012229797
-1.4538656e-06
0.0085753759
-0.00012231533
-1.4977228e-06
0.0085754146
-0.00012233516
-1.5087844e-06
0.0085753776
-0.00012235884
-1.4835562e-06
0.0085753763
-0.00012238399
-1.4831908e-06
0.0085754318
-0.00012240544
-1.5022988e-06
0.0085754921
-0.0001224294
-1.489965e-06
0.0085755129
-0.00012246026
-1.4759105e-06
0.0085755136
-0.00012249158
-1.4605354e-06
0.0085755319
-0.00012251976
-1.5325016e-06
0.008575715
-0.00012254384
-1.8148975e-06
0.0085761971
-0.00012255912
-2.539469e-06
0.0085774667
-0.00012255557
-3.7550704e-06
0.008580516
-0.00012252591
-5.8680129e-06
0.0085868476
-0.00012247296
-5.2761728e-06
0.0085985491
-0.00012249414
-1.6572198e-06
0.0086133955
-0.00012278719
2.840075e-05
0.0086237075
-0.00012425658
2.4147279e-05
0.0085908579
-0.00012760936
0.00012664095
0.0085025376
-0.00013270207
2.546084e-05
0.0082230276
-0.00012756472
0.00017799876
0.0078592306
-0.000101955
-1.7995127e-05
0.0072927517
-5.538154e-05
7.7219047e-05
0.0068491825
-3.027801e-05
-9.8703209e-05
0.0065186051
-1.6108258e-06
0.0067445933
0.00010738592
-0.00022916933
0.0069872768
0.00016609947
-4.4553019e-05
0.0073468824
0.00019015726
-0.00015213271
0.0074775994
0.00019793203
-2.4738508e-05
0.0075882152
0.00020147115
-3.5273985e-05
0.0075534386
0.00019988309
-4.1357314e-06
0.0075360866
0.00019845172
2.7255146e-05
0.0075357898
0.000198437
1.744532e-05
0.0075526403
0.0001998326
0.00014587561
0.0075870656
0.00020139797
3.9576027e-05
0.0074761807
0.00019782366
0.00022541059
0.0073454771
0.00019002625
-8.5164834e-07
0.0069857189
0.00016600163
9.7384205e-05
0.00010740717
0.0067430506
-7.7001414e-05
0.0065166472
1.8272896e-05
0.0068475324
-2.9066811e-05
-0.00017755407
0.0072909744
-5.4154903e-05
-2.4895356e-05
0.0078573698
-0.00010061661
-0.00012577129
0.00822085
-0.00012607942
-2.2947245e-05
0.0085002457
-0.00013111685
-2.685567e-05
0.0085885336
-0.00012597487
3.4869757e-06
0.0086214672
-0.00012261753
7.3152599e-06
0.0086112841
-0.00012117608
8.0362981e-06
0.0085965905
-0.00012093412
5.9826221e-06
0.0085850466
-0.00012097915
4.766489e-06
0.0085788697
-0.00012110761
3.9952869e-06
0.0085759619
-0.00012121817
3.6448201e-06
0.0085748099
-0.00012130388
3.5032027e-06
0.0085744384
-0.00012136834
3.4358558e-06
0.008574373
-0.00012142
3.3347484e-06
0.00857445
-0.00012146432
3.2195926e-06
0.0085745123
-0.00012150553
3.1151131e-06
0.0085745551
-0.00012154581
3.0249885e-06
0.0085745891
-0.00012158506
2.9328616e-06
0.0085746292
-0.0001216208
2.8250137e-06
0.0085746762
-0.00012165185
2.7049838e-06
0.0085747166
-0.00012168183
2.5969102e-06
0.0085747328
-0.00012171208
2.4786294e-06
0.0085747627
-0.00012173838
2.2959334e-06
0.0085749291
-0.00012175701
1.8634893e-06
0.0085754279
-0.00012176308
9.6625072e-07
0.0085767054
-0.00012174823
-4.3421511e-07
0.0085797543
-0.00012170559
-2.7523855e-06
0.0085860908
-0.00012163802
-2.3984043e-06
0.0085978078
-0.00012164261
9.4451355e-07
0.0086126746
-0.0001219175
3.0690872e-05
0.0086230063
-0.00012337036
2.6101986e-05
0.008590166
-0.00012671167
0.00012825997
0.0085018426
-0.00013180577
2.6741538e-05
0.0082223527
-0.00012668446
0.00017894833
0.0078585815
-0.00010111353
0.0072921444
-5.4584086e-05
3.0924658e-05
0.0073693578
-4.2886094e-05
2.9272746e-05
0.007943638
-8.3404571e-05
-1.5054782e-05
0.0083733209
-0.00010664068
-1.1706571e-05
0.0086104962
-0.00011200184
-1.6336851e-05
0.0087045413
-0.000109745
-1.0023907e-05
0.0087232294
-0.00010653612
-7.0839842e-06
0.0087146652
-0.00010493054
-5.966671e-06
0.0087007629
-0.00010407234
-6.2819916e-06
0.0086901733
-0.00010376716
-6.8391582e-06
0.0086839681
-0.00010365665
-7.3898378e-06
0.0086808633
-0.0001036072
-7.8364683e-06
0.0086794318
-0.00010355724
-8.1923545e-06
0.0086787833
-0.00010349827
-8.3720342e-06
0.0086783672
-0.0001034248
-8.8252105e-06
0.0086785221
-0.00010333614
-9.1621073e-06
0.0086782957
-0.00010324213
-9.4975799e-06
0.0086781562
-0.00010314459
-9.6887058e-06
0.0086778591
-0.00010303876
-1.0012938e-05
0.0086778364
-0.00010292312
-1.034709e-05
0.0086776862
-0.00010279694
-1.0814636e-05
0.008677642
-0.00010266212
-1.1119168e-05
0.0086772748
-0.00010252029
-1.1397189e-05
0.0086770197
-0.00010236874
-1.1487658e-05
0.0086767315
-0.00010220267
-1.1699792e-05
0.0086770387
-0.00010201666
-1.1892624e-05
0.008677969
-0.00010181426
-1.1926519e-05
0.0086805157
-0.0001016121
-1.149983e-05
0.008686096
-0.00010147604
-9.3700824e-06
0.0086960048
-0.00010154405
-5.1071791e-06
0.0087092009
-0.00010217967
2.8569099e-06
0.0087170879
-0.00010358482
1.5963167e-07
0.0086978564
-0.00010662558
5.6284401e-06
0.0086035514
-0.00010877454
-3.6603169e-05
0.0083665082
-0.00010342659
-3.6202279e-05
0.0079373514
-8.0382441e-05
-6.8761208e-05
0.0073637084
-4.0175066e-05
-3.2597302e-05
0.0068172094
-5.8409038e-06
0.0064811765
2.8733742e-06
0.0064284638
3.8319923e-05
1.4392861e-05
0.0064017602
2.085947e-05
5.8440807e-06
0.0063875629
1.0373862e-05
3.8234654e-06
0.0063716603
1.1110902e-05
4.7916755e-06
0.0063569792
1.185037e-05
2.8307526e-06
0.0063059119
3.9012102e-05
1.2055226e-05
0.006122703
0.00012727243
5.5936396e-05
0.0054546622
0.00040734196
0.00026069883
0.0030984124
0.001226019
0.0011302308
0.0014432532
0.00047244682
0.0011827123
0.0012394461
6.352246e-05
0.00014028463
0.0011184335
0.00012352822
-2.5156028e-06
0.00054856099
0.00030630405
0.00026356849
0.0002011674
0.00012792627
0.00021946733
9.90622e-05
6.9810029e-05
3.2295171e-05
8.7061721e-05
1.0544901e-05
1.4555777e-06
6.1340015e-05
1.2571147e-05
1.3150559e-05
0.00010653035
1.2757065e-05
-5.79474e-05
0.00012492073
6.4588522e-06
-2.4849232e-05
0.00021274869
-7.905733e-06
-7.9922224e-05
0.00021552303
7.8822396e-06
-1.0656581e-05
0.0003012807
1.3016343e-05
-9.8774013e-05
0.00028280676
-1.7493872e-05
3.5967815e-05
0.00024538833
-1.2982696e-05
5.0401118e-05
0.00023775969
6.211147e-06
1.4174994e-06
0.00035631104
-2.8784718e-06
-0.00011567288
0.00033684585
3.6547894e-06
1.5810408e-05
0.00028710796
-8.556496e-06
5.829438e-05
0.00026791869
7.7218469e-06
1.1467421e-05
0.00039284162
-5.2509571e-06
-0.00011967196
0.00038360973
-7.1953748e-06
1.6427261e-05
0.0003699365
-1.2358799e-05
2.6032033e-05
0.00034814138
-6.1093279e-06
2.7904445e-05
0.00031265099
-3.8844985e-07
3.5878836e-05
0.00026700224
-5.5570486e-07
4.6204456e-05
0.00025195428
1.3666897e-05
1.3810587e-06
0.00036820755
4.8771658e-06
-0.00012113043
0.00033760066
1.2769534e-05
1.7837358e-05
0.00028660219
1.4525486e-05
3.6472977e-05
0.00021539856
3.0030642e-05
4.1172993e-05
0.00018167707
-1.3510216e-06
3.5072512e-05
0.00036000556
-0.00011851862
-5.9809872e-05
0.0010640123
-0.00016905622
-0.00053495049
0.0016432181
-0.00038365973
-0.00019554613
0.0015585178
-4.2831482e-05
0.00012753185
0.00086285993
0.00025140637
0.00044425147
0.00031730397
0.00034538061
0.00020017535
0.0003112131
-1.8581253e-05
2.4672124e-05
0.00033829143
-1.2792426e-05
-1.4285901e-05
0.00037566867
-3.2362145e-05
-5.0150977e-06
0.00039698722
-1.6714989e-05
-4.6035551e-06
0.0004086486
-9.5731464e-06
-2.0882375e-06
0.00041359478
-4.7813571e-06
-1.6482244e-07
0.00041521882
-2.3426173e-06
7.1858005e-07
0.00041535771
-1.5149902e-06
1.3760947e-06
0.00041517575
-1.1754553e-06
1.3574201e-06
0.00041479911
-1.0761816e-06
1.4528143e-06
0.00041476262
-9.5898767e-07
9.9547856e-07
0.00041450171
-7.7144536e-07
1.0323553e-06
0.00041491096
-7.7740868e-07
3.68166e-07
0.00041481165
-5.4569624e-07
6.4500137e-07
0.00041537607
-4.3422702e-07
-1.3019426e-07
0.00041504021
-7.2822425e-09
3.4314234e-07
0.00041456307
3.2049662e-07
1.5664796e-07
0.00041250614
1.1782168e-06
8.7870765e-07
0.00040787574
2.5362609e-06
2.0941459e-06
0.00039953606
4.5777991e-06
3.7618737e-06
0.00038511192
6.7974565e-06
7.6266849e-06
0.00035978986
1.713322e-05
8.1888373e-06
0.00034571038
-5.2864063e-06
1.9365894e-05
0.00035416247
1.5406261e-05
-2.3858352e-05
0.00093857452
-0.00037003132
-0.00021438074
0.0016580813
-0.00026038923
-0.00045911756
0.0018771702
-8.2456294e-05
-0.00013663264
0.0019465853
-1.9164639e-05
-5.0250387e-05
0.0019763112
4.9166412e-06
-3.4642589e-05
0.0019752617
2.8977836e-05
-2.7928339e-05
0.00010355747
1.1091338e-05
-0.0070871968
1.8580706e-05
-3.9144057e-05
8.3314435e-06
-0.0070713227
2.2965093e-05
-4.8393262e-05
9.5540637e-06
-0.0070525093
2.6565261e-05
-5.5979268e-05
1.0600556e-05
-0.007031883
2.8998195e-05
-6.0998542e-05
1.1374043e-05
-0.0070108037
2.9982274e-05
-6.2853466e-05
1.1791903e-05
-0.006990368
2.9649712e-05
-6.1924091e-05
1.1838704e-05
-0.0069712781
2.8331979e-05
-5.8984084e-05
1.15622e-05
-0.0069539094
2.6348006e-05
-5.4744546e-05
1.1027833e-05
-0.006938394
2.3993562e-05
-4.9814485e-05
1.0305564e-05
-0.0069247332
2.1496262e-05
-4.4627836e-05
9.470745e-06
-0.0069128437
1.9015787e-05
-3.9488534e-05
8.5832418e-06
-0.006902586
1.6654994e-05
-3.4597993e-05
7.6852784e-06
-0.0068937797
1.4474706e-05
-3.0081274e-05
6.8002618e-06
-0.0068862104
1.2505753e-05
-2.6004665e-05
5.9296773e-06
-0.0068796361
1.0762488e-05
-2.2386747e-05
5.0499275e-06
-0.0068737727
9.2259503e-06
-1.92002e-05
4.1108236e-06
-0.0068683554
7.9029115e-06
-1.6348036e-05
3.0278235e-06
-0.006863183
6.5870578e-06
-1.3615805e-05
1.8563882e-06
-0.0068585504
5.2978088e-06
-1.0676964e-05
7.465128e-07
-0.0068546766
2.6646597e-06
-7.3659861e-06
8.2749205e-07
-0.0068533184
1.4783322e-06
-4.1271857e-06
1.2907222e-06
-0.0068520334
-3.5754723e-06
3.0467746e-07
1.9858156e-06
-0.0068449958
-5.7080312e-06
7.1461284e-06
-8.4757223e-06
-0.006830495
-1.6226818e-05
2.6301899e-05
-2.4575901e-05
5.5945571e-05
-3.5512277e-05
-2.8511067e-05
5.5419194e-05
0.007438796
-6.8911773e-05
3.7915428e-05
0.0080636718
-0.00010252999
1.4696394e-05
0.008516456
-0.00011991611
-2.7848687e-06
0.0087519715
-0.00012399402
-1.1081708e-05
0.0088354786
-0.00012264044
-1.3473749e-05
0.0088462864
-0.00012066487
-1.3232211e-05
0.0088338428
-0.00011941914
-1.2862165e-05
0.0088191031
-0.00011871032
-1.2942903e-05
0.0088085859
-0.00011833187
-1.3386834e-05
0.0088025268
-0.00011811476
-1.3990509e-05
0.0087994273
-0.00011796039
-1.4635398e-05
0.008797897
-0.00011782033
-1.5268229e-05
0.0087970928
-0.00011767669
-1.5873811e-05
0.0087964969
-0.00011752412
-1.6338308e-05
0.008796346
-0.0001173594
-1.6945593e-05
0.008796083
-0.00011718003
-1.7565981e-05
0.008795763
-0.0001169864
-1.8325582e-05
0.0087953977
-0.00011677902
-1.8949956e-05
0.0087950182
-0.00011655736
-1.9566843e-05
0.0087946216
-0.00011631849
-2.0168339e-05
0.0087943033
-0.0001160598
-2.0727883e-05
0.0087936148
-0.00011578046
-2.1224625e-05
0.0087929961
-0.00011547961
-2.1751531e-05
0.0087924176
-0.00011515922
-2.1835189e-05
0.0087919441
-0.00011482174
-2.1772185e-05
0.0087923779
-0.00011447197
-2.1229512e-05
0.0087941058
-0.00011413274
-1.9906871e-05
0.0087986335
-0.00011386011
-1.7619395e-05
0.0088074761
-0.00011375878
-1.4864764e-05
0.0088204489
-0.00011400269
-1.4251536e-05
0.0088312801
-0.00011480548
-1.8713453e-05
0.0088186923
-0.00011637392
-3.2167074e-05
0.0087344313
-0.00011742626
-5.1338604e-05
0.0084989998
-0.00011332006
-6.503008e-05
0.0080473952
-9.6352322e-05
-6.2108167e-05
0.0074243356
-6.3549115e-05
0.0068174871
-2.4065976e-05
0.0068209909
3.5207925e-05
-1.7852309e-05
0.0068133534
1.8409401e-05
-3.979525e-07
0.0067973369
1.5302339e-05
1.1825013e-05
0.0067739186
2.2383522e-05
1.288521e-05
0.0067276804
6.0470664e-05
2.4779557e-05
0.0066065265
0.00017696347
7.1462845e-05
0.0062412412
0.00047256039
0.00030006693
0.0020453325
0.0028834966
0.00085905346
0.0016793777
0.0003499014
0.0012358905
0.00093198742
0.00040778042
0.0012903101
0.0015353074
0.00035413885
0.0011383061
-0.0024870151
0.0014023505
0.0014544823
0.00080502527
-0.0032301014
0.0013247327
0.00014143321
-1.4483279e-05
0.0012218646
0.00010566775
-3.4879675e-05
0.0010478462
-6.6508032e-05
-0.00010045865
0.0013474609
-0.00014357582
-9.5651028e-05
0.0014318782
-0.00014637573
0.0012226243
-1.886237e-05
0.0012527921
5.8243988e-05
3.5116433e-05
0.00041752954
0.00055079708
0.00016563733
0.00042513216
9.4262883e-05
0.00019724118
0.00025395174
0.00028567545
0.00012101332
0.00023837119
-8.9733566e-06
0.00011612776
0.00017971962
-1.1985731e-06
-2.0942945e-05
0.00012092181
1.2061101e-05
1.6266413e-05
0.00013614473
2.3887091e-05
7.7266614e-05
8.8098274e-06
8.8412339e-05
-6.0082396e-07
7.2152262e-05
1.0952612e-05
1.7878613e-05
0.00012582524
2.7937676e-05
-6.885359e-05
0.00012383326
8.9399899e-07
7.5568304e-06
0.00022597517
-1.5331368e-05
-9.4716273e-05
0.00023901683
-1.7145911e-05
1.1986487e-05
0.00029541773
0.00010168624
-0.00014507079
0.00034429442
6.9606488e-05
-0.00013597705
0.00026984576
2.6507637e-05
3.4958323e-05
0.00023472376
1.1178943e-05
3.015421e-05
0.00037964617
-9.7912468e-06
-0.00013800964
0.00038070188
-1.9714046e-05
2.2313127e-05
0.00030950278
1.0099276e-05
5.2543328e-05
0.00026418085
1.1214499e-05
4.1829284e-05
0.00040337296
4.3893942e-06
-0.00014883246
0.00043695408
-5.6961217e-05
1.6184716e-05
0.00042158957
-2.8769611e-05
3.1775328e-05
0.00039453038
-1.1265275e-05
3.2215131e-05
0.00035351088
-1.1188042e-06
4.1749859e-05
0.0002866881
2.5343968e-05
4.0923107e-05
0.00024880076
2.1078222e-05
3.0476012e-05
0.00038473764
2.0043865e-05
-0.00015110357
0.00040786494
-2.1848959e-05
1.1491193e-05
0.00035887118
2.0500229e-05
4.3019012e-05
0.00023675656
0.00010384615
4.8299111e-05
0.00021632111
1.9084431e-05
0.00010655704
-8.7545569e-06
-0.00044780155
4.141648e-05
0.00046486636
4.8075744e-05
-0.00047208167
5.0016741e-05
7.8109539e-05
-0.00053600572
5.1944342e-05
3.2479938e-05
-0.00047763375
-0.00014289112
6.2670187e-05
-0.00033500242
0.00018428715
-0.00030687462
-0.00038815837
-7.6884313e-06
8.1922605e-05
-0.00042095421
-5.9044396e-08
5.8198853e-05
-0.00046168395
-7.0229967e-06
4.6633929e-05
-0.00049320653
-1.5432887e-05
3.569019e-05
-0.00053374546
-4.2476242e-06
1.6016947e-05
-0.00048678953
-0.00017652241
7.260527e-05
-0.00035878658
0.00017468647
-0.00029830004
-0.00042402463
-2.8834829e-05
0.00010528738
-0.00047272978
-2.4882636e-05
8.3687063e-05
-0.00050719111
-2.8060818e-05
4.2808101e-05
-0.0002940191
2.8059336e-05
-0.00025102259
-0.0003698191
9.1398846e-06
7.783906e-05
-0.000403813
1.947282e-05
4.1028713e-05
-0.00014663289
3.1848846e-05
-0.00016999613
-0.00011903282
-0.00029844852
-1.6319891e-05
6.214609e-05
0.00010598943
-0.00033576012
-2.3262144e-05
4.3427835e-05
-0.00015406863
4.6630253e-05
-0.00024365312
-0.00016985527
-4.7454997e-05
6.4135635e-05
-8.9326137e-05
5.332438e-05
-0.00010591583
2.3631532e-05
3.4139676e-05
8.6593166e-05
2.6282772e-05
3.1677401e-05
4.4188656e-05
3.5375695e-05
7.0288158e-06
2.0531638e-05
4.3383589e-07
2.3223182e-05
-3.997178e-05
-7.9991882e-06
6.8502606e-05
1.2732988e-06
-1.9966691e-05
-6.8658745e-06
1.3664578e-05
1.4441287e-05
7.2037334e-06
7.8294435e-05
2.0020095e-05
-0.00012548495
7.3666747e-06
4.4898862e-06
3.3106244e-06
1.0155276e-05
2.8035806e-05
-6.6738465e-06
-1.1206684e-05
0.00016223167
-6.5693254e-05
0.00033987347
0.00010954909
-0.00024056064
0.00035038197
-0.00010631919
7.2548547e-05
0.00025101175
3.8821884e-05
4.4228445e-05
0.00047232351
5.3377878e-05
-0.00024284079
0.00042787166
-6.9991526e-06
7.0923823e-05
0.00035306228
-2.7806799e-05
0.00011175607
0.00052337655
0.00018429918
-0.00032655412
0.0005645186
-0.00017656869
0.00010736583
0.00047627263
-3.9745802e-06
6.7337912e-05
0.0003717843
-2.6456296e-05
0.0001021098
0.00012377547
0.00019613958
-1.5686223e-05
6.7555473e-05
0.00017694293
-5.5003401e-05
0.00055436074
4.7778002e-05
-0.00022905623
0.00056065812
-1.7686615e-05
7.1416066e-06
0.00052743721
-2.2497093e-05
4.0285125e-05
0.00048692904
-1.3203041e-05
4.6688209e-05
0.00043534671
-9.4732517e-06
6.099654e-05
0.00035582777
-9.776162e-06
8.1606671e-05
0.0001078332
0.00018975456
-1.4103819e-06
5.9650382e-05
0.00019148076
-4.2251527e-05
0.00054995761
6.7415866e-05
-0.00023613815
0.00056661371
2.3202885e-05
1.2085354e-05
0.00052564836
2.0233487e-05
7.0748608e-05
0.00047396597
3.3950543e-06
8.9703811e-05
-3.0726233e-05
0.00072493945
0.00033686981
-0.00055711706
0.00080037655
-0.00053529264
0.0018217702
-0.00031566923
-0.00011895015
-0.00024549449
0.0018573628
-5.0931397e-05
-2.7492701e-05
0.00064245239
0.00077063656
8.033799e-05
0.0006153422
4.0155642e-05
0.00017818848
0.00010646299
0.00031764528
0.00033361447
0.00015728893
0.0003198888
1.2398556e-05
5.6589683e-05
0.00024193279
2.2693447e-05
5.7030215e-06
0.00016312431
8.6016041e-07
1.0376544e-05
0.00017052799
2.9869668e-06
-0.00010200567
1.0616465e-06
0.00010681642
4.5041483e-06
0.00015522492
0.00019461301
0.00013956546
-1.8601404e-06
0.00029189073
0.00011596444
-0.00016147329
0.00039254057
-0.00011314158
-3.0068927e-07
0.00042874484
-4.0250719e-05
-2.8315691e-05
0.00045044117
-3.3204529e-05
-5.2067877e-06
0.00046091331
-1.9374932e-05
-6.7035523e-07
0.00046380772
-8.7470157e-06
1.0712428e-06
0.00046420193
-4.3950845e-06
1.6582599e-06
0.00046334919
-2.8969334e-06
2.2346837e-06
0.00046268718
-2.4563626e-06
1.9429163e-06
0.00046179491
-2.1178328e-06
1.9339204e-06
0.00046153785
-1.998513e-06
1.2965851e-06
0.00046111861
-1.5097486e-06
1.157545e-06
0.00046142406
-1.478932e-06
3.9607233e-07
0.00046149025
-1.1092652e-06
4.9738113e-07
0.00046225284
-8.0062137e-07
-3.9620084e-07
0.00046251248
-1.1276961e-07
-1.5414841e-07
0.00046258429
7.3178261e-07
-4.8310157e-07
0.00046158148
2.3152413e-06
-1.3421411e-07
0.00045838215
4.871972e-06
8.6362362e-07
0.00045104674
9.3788216e-06
2.5343882e-06
0.00043516223
1.3922032e-05
8.7599348e-06
0.00042356963
-4.4076157e-06
3.3133435e-05
0.00031758785
9.4842114e-05
5.8532578e-06
-0.00014668742
0.00012336243
0.00016094422
0.00017996863
-0.00015184634
6.1113014e-05
3.8888016e-05
-4.9689023e-05
0.00014108793
-0.00044208257
0.00019883733
-0.00015711689
0.00025957099
-0.00044498202
0.0002928389
-0.00017653895
0.00010135816
-0.00014603524
6.4099135e-05
-4.2711176e-05
0.00016541796
-0.00053718373
0.000237938
-0.0001478369
0.00026827403
-0.00047250443
0.00030935613
-0.00015915709
9.4743682e-05
-0.00014797077
6.454727e-05
2.7710895e-05
0.00014170882
0.00022484895
-0.00055342575
0.00026679713
0.00014388392
0.00025333146
-0.00063630161
8.5231287e-06
0.00024883723
7.4216525e-05
-6.4779756e-05
-1.6270527e-05
0.00018795525
-1.9277676e-05
0.00024716077
-2.6978792e-05
-6.7313333e-06
-1.9901302e-05
-4.946303e-06
0.00027873971
-1.5759319e-05
0.00030748661
-3.0184597e-05
0.00028484682
-3.3830026e-05
-2.2181422e-05
0.00030148752
3.7452332e-05
-3.1911612e-05
-3.6620739e-06
0.00028033518
-3.9283534e-05
0.00022255115
-2.4012281e-05
-7.7122085e-06
0.0002187486
1.1630598e-05
-1.1584178e-07
1.9106801e-07
0.0001197154
-4.2562426e-06
0.00017574391
7.9763464e-07
0.00014098638
-0.00021555839
0.00069742986
1.793823e-05
-0.0003556331
-0.00069726333
-0.00010399895
0.0018590997
-0.00062079676
-0.0002750636
-2.2171427e-05
-0.00038209007
5.4593432e-06
1.1442834e-05
0.0002832257
8.9237785e-06
1.4797393e-05
0.00070173979
-5.7707913e-05
-0.00038297761
-0.00086119625
-1.0329739e-05
0.0020587368
-0.00058946994
-0.00020322701
-0.00035369868
-0.00036197848
-0.00024187048
4.0936832e-05
6.6304167e-06
0.00011431514
-1.124667e-05
0.00029294006
0.00017961451
-0.0001164337
-0.00024180572
1.4988133e-05
-3.4809928e-05
-0.0007449673
-3.1572089e-05
0.0018970593
-0.00042922954
-0.00049668775
-0.00016903839
-0.0003603163
0.00011014109
-0.0003257537
-1.5477641e-06
5.6332501e-07
-0.00010743739
-5.5894457e-06
-0.00075502604
-1.166672e-05
0.0018429397
-0.00047870966
-0.00063075818
-0.0001453903
-0.00031530065
7.2673697e-06
-0.00030160246
-0.00015644296
5.4951287e-06
3.669816e-06
1.8877082e-06
-0.00013147763
-1.0162212e-05
1.8289495e-06
-1.6632065e-05
0.00024532141
-0.00063861517
1.687909e-05
0.00024493705
0.00022542796
6.7721293e-05
-5.7990053e-05
-7.4918153e-05
-9.4594098e-06
-0.00081499725
6.259675e-05
0.0018716
-0.00046070451
-0.00066569188
-0.00017061652
-0.00031893092
2.1173286e-06
-0.00032756714
-0.00021273624
3.0993633e-05
-2.1967078e-07
1.1345758e-05
-0.00024098921
2.9427562e-05
-3.3139358e-06
2.1393483e-06
-0.00024940462
1.0251693e-05
4.6277476e-07
-2.299061e-06
-0.00025525114
5.9306126e-06
-8.6869616e-08
2.7771966e-09
-0.00024924617
-7.4628253e-06
1.6264775e-06
-1.6862414e-07
-0.00024110931
-1.0931442e-05
2.6809857e-06
1.1359878e-07
-0.00021201784
-2.9151492e-05
1.206181e-06
-1.1461623e-06
-0.0001682787
-3.0385448e-05
-2.6101505e-06
-1.0743537e-05
0.00031403067
-0.00080211822
-3.3829265e-06
0.00032319177
0.00030289867
-4.1271237e-05
2.2017787e-05
0.0005046431
-0.00028823723
5.7341315e-05
0.00035737506
0.00015362403
-1.7287437e-05
0.00052341653
-0.0002120741
3.8569809e-05
0.00035717123
0.00020616941
-3.3993509e-05
0.00050484977
-0.00015809871
2.0671866e-05
0.00030267822
0.00028642735
-5.4828243e-05
3.5704808e-05
-2.0963876e-05
-0.0016343901
0.00013087118
0.0019065209
-8.0869891e-05
-0.0016313781
4.1841373e-05
3.2174196e-06
-0.001638216
-7.9128025e-05
2.7515806e-05
-0.0019059992
-0.00017032651
0.0001086013
-0.0020864526
-0.00013656071
5.8958727e-05
0.00025805532
-0.0021815671
-0.00011577323
0.00011753001
9.3357784e-05
-0.0022534774
-0.00011194086
0.00012647284
5.737828e-05
-0.0022581196
-0.00010614134
0.00010852731
2.256249e-06
-0.00088228779
-3.4404039e-05
3.5649005e-05
-0.00038679722
-0.00099027958
-0.00037497228
3.865959e-05
-6.948195e-05
-0.00047649315
-0.0004584793
6.425134e-06
1.2750376e-05
6.433151e-05
-0.00055102929
-1.2164897e-05
5.4459781e-05
5.0255113e-05
-0.00060628323
-1.816548e-05
2.7093934e-05
4.6325485e-05
-0.00058264806
-4.2288692e-06
-2.0467138e-05
1.0608335e-06
-0.00019539268
5.3356764e-05
-0.00024403482
-0.00019657732
-0.00036810036
-8.376285e-06
6.1644562e-05
0.00011943941
-0.00045431929
-1.8430856e-05
2.2005143e-05
8.2644639e-05
-0.00051227745
-1.7245143e-05
1.5327067e-05
5.9876231e-05
-0.00055656702
-1.7573133e-05
1.6681469e-05
4.518124e-05
-0.00059548022
-1.6699374e-05
1.7794077e-05
3.7818497e-05
-0.00064376438
9.2430445e-06
2.2675576e-05
1.6365538e-05
-0.00056598875
-0.0001833326
2.1014324e-05
8.4542639e-05
-0.00038497794
0.00019583371
-3.2202699e-05
-0.00034464181
-0.00045863732
-2.5261911e-05
-2.8169975e-06
0.00010173829
-0.00053699115
-1.199524e-05
8.2279589e-05
8.069485e-06
-0.00055582643
-3.0482153e-06
-1.3965758e-05
3.5849251e-05
-0.00019223993
5.3169565e-05
-0.00022863557
-0.00018812049
-0.00037715871
-8.1338511e-08
6.8337645e-05
0.00011666247
-0.00050052447
1.9517143e-05
1.5320738e-05
8.8527885e-05
-0.00047261358
-0.00013733599
0.00012464991
-1.5224816e-05
-0.00029634508
0.00019510904
-7.4368521e-05
-0.00029700902
-0.00033675834
4.0334643e-05
-3.7322266e-05
3.7400881e-05
-0.00011238522
5.5003908e-05
-0.00015277459
-0.00012660244
-0.00027502762
4.5956853e-05
5.8753324e-05
5.7932221e-05
-0.00022723425
3.2385406e-05
-8.0178773e-05
-0.0002051301
-3.4172173e-05
1.2068026e-05
-6.9750087e-05
-8.1672437e-05
-5.3707581e-05
-6.5130712e-05
-0.00013585735
0.00014393598
-1.2698007e-05
-0.0001128262
-7.3876658e-05
1.9765961e-05
0.00010180619
-0.00010113821
4.5228333e-05
-6.6909402e-05
9.9930799e-06
0.00030412716
-0.00011404463
-0.00051821211
0.00022699137
0.00026120605
-4.7707897e-05
-0.0013174141
0.00023699162
0.0005316136
0.00044006571
0.00051388517
-0.0015051066
0.0001931682
-0.00029109716
0.00028562149
-0.0013834502
3.4559051e-05
-0.00015814277
1.9273184e-06
-0.0011819174
5.7986792e-05
-0.00013202688
-0.00012749271
0.00032312537
-0.0026776033
-0.00029954065
0.0014721011
0.0014297577
0.00081286545
-0.0032797011
0.0013602034
0.00012586032
-3.0729158e-05
0.0012306952
0.00010393129
0.0010546034
-5.7890848e-05
0.0015907162
-0.0004458403
-5.5713443e-05
0.0015280474
0.00022161583
3.4221172e-05
0.00048525718
0.00054345383
0.00048533754
0.00025099047
4.923813e-05
0.00019124495
-2.4235938e-05
0.00026901004
9.5415231e-05
0.00020844522
0.00028883151
9.7300384e-05
0.00020476554
-0.00048318817
0.00027653747
0.00030604914
0.00014812617
-0.00062326819
0.00026639327
-5.8178281e-06
0.00023434428
0.00010197464
-2.4451952e-05
-4.7883689e-05
0.00018448764
5.704388e-06
-6.0638422e-05
0.00021585891
1.6613641e-06
-5.0907619e-05
0.00019890065
-1.8623162e-07
-4.5993508e-05
0.00018335763
2.9732152e-06
-0.00012095867
-5.7716211e-05
0.00013095546
1.7259134e-06
0.00013488421
0.00025153479
-7.0060587e-05
0.00011167878
3.5549806e-05
0.00024523817
-0.0003490557
3.3756946e-05
0.00019688399
0.00010627949
-1.1968459e-05
0.00037840213
0.00014910715
-0.00027562137
0.00033389813
4.1355544e-05
4.3483093e-05
9.1933816e-05
0.00016976819
1.0298607e-05
6.1897522e-05
0.00016985806
-2.0151189e-05
0.00049069288
4.8767023e-05
-0.00019983366
0.00042456724
2.6845309e-05
5.8797479e-05
0.00033567578
-1.2896872e-05
0.00010170699
0.00052155327
0.00018740172
-0.00032010965
0.00057794728
-0.0001635273
0.00010408508
0.00049964175
1.1806421e-05
5.4503869e-05
0.00039607658
-1.4236057e-05
9.2539313e-05
0.00012951932
0.00020345306
-9.9877959e-06
7.3091994e-05
0.00019547069
-5.3450266e-05
0.00059297572
4.9999066e-05
-0.00024405103
0.00060993293
-1.0049156e-05
2.3349914e-06
0.00057494359
-1.9902232e-05
3.8192199e-05
0.00053514925
-1.8042527e-05
4.0263732e-05
0.00048429426
-1.7101651e-05
5.0711504e-05
0.00041312987
-1.5497981e-05
6.8231515e-05
0.00033874245
-2.2251971e-05
8.8263099e-05
0.00053820043
-0.00033594081
0.0001898396
0.00063549939
6.4709617e-05
-0.00016623744
0.00057976087
2.2394957e-05
1.5178079e-05
0.00050758137
3.0667118e-06
5.6947897e-05
0.00041811112
1.9415491e-05
7.6479886e-05
0.000876951
7.4649455e-05
-0.00049482974
-0.00076059577
-0.00030335534
-8.38678e-05
0.0021669514
-0.00017658554
-0.00049241307
0.00035906902
-0.00055260226
-0.00054954552
-1.1107923e-05
8.7655864e-05
-0.00060099703
-4.3667771e-06
5.8885e-05
-0.00057967095
2.0307953e-06
-9.619135e-07
-0.0001948559
5.5062211e-05
-0.00024377551
-0.00019610176
-0.00036785822
-8.0121128e-06
6.1476269e-05
0.00011953816
-0.0004531563
-1.8193597e-05
8.1239709e-05
-0.00051070574
-1.7007192e-05
5.9058647e-05
-0.00055521947
-1.7095436e-05
4.450752e-05
-0.00059321349
-1.5690715e-05
3.5642208e-05
-0.00063843387
1.2583997e-05
1.2734144e-05
-0.00054865764
-0.00017420268
7.4377295e-05
-0.00035385953
0.00019282024
-0.00033761928
-0.00044344905
-2.5349935e-05
0.00010495166
-0.00052720366
-8.5708262e-06
7.8089379e-05
-0.00055692222
1.1927472e-05
2.9597514e-05
-0.00018692799
3.3012499e-05
-0.00022140281
-0.00018160392
-0.00036489972
-8.5104558e-06
6.932323e-05
0.00011715895
-0.00047146351
-1.1676924e-05
0.00010534384
-0.00052025137
5.0932233e-06
7.0539942e-05
-0.00027294668
6.0431927e-05
-0.00025896959
-0.00038718293
5.9079163e-05
6.5455694e-05
-0.00036992795
-6.1639854e-05
8.5740424e-05
-0.00012134381
0.00019600816
-0.00029548516
-5.8622988e-05
8.6597378e-05
-9.4073206e-05
-5.524499e-05
3.1921506e-05
-9.2317265e-05
1.772771e-06
0.00012044077
7.4368345e-05
2.0470017e-05
0.00021905667
8.9678456e-05
-0.00010169698
2.6468081e-05
0.0001205029
4.9453753e-05
2.2631938e-05
0.00015355166
7.2847257e-06
0.0003624903
7.9668802e-05
-0.00016810454
0.000331173
2.7125823e-05
6.3270645e-05
0.00050296115
-0.00031492949
0.00020357327
0.00052969747
0.00012524687
-0.00014688996
0.00040827442
2.9346553e-05
8.0399576e-05
0.00029842162
1.1906865e-05
8.9435481e-05
0.0005741565
3.6150649e-05
-0.00027887304
0.000554327
-1.3011494e-05
4.4768473e-05
0.00048954095
-1.8854618e-05
7.5069835e-05
0.00038409262
-1.9620748e-05
9.9719152e-05
0.00012424345
0.0002006826
-9.5390562e-06
6.870563e-05
0.0001956651
-5.2804098e-05
0.00058828662
5.2099406e-05
-0.00024403833
0.00060722992
-7.1281717e-06
7.6887227e-07
0.00057351394
-1.85421e-05
3.6567364e-05
0.00053389362
-1.6770435e-05
3.9295326e-05
0.00048311856
-1.6264721e-05
5.0032583e-05
0.00041305868
-1.5000951e-05
6.6867235e-05
0.00033789321
-2.0996844e-05
8.8150205e-05
0.00053688308
-0.00033529665
0.00019136898
0.00063593208
6.6046871e-05
-0.00016306507
0.00058377655
2.1763427e-05
2.6025324e-05
0.00053307567
-2.8212257e-05
6.7805221e-05
0.00019432569
0.00033426234
-5.2178776e-05
5.6666411e-05
0.00036797279
-0.00011793342
0.00039953082