/*--------------------------------*- C++ -*----------------------------------*\
| =========                 |                                                 |
| \\      /  F ield         | OpenFOAM: The Open Source CFD Toolbox           |
|  \\    /   O peration     | Version:  v2012                                 |
|   \\  /    A nd           | Website:  www.openfoam.com                      |
|    \\/     M anipulation  |                                                 |
\*---------------------------------------------------------------------------*/
FoamFile
{
    version     2.0;
    format      ascii;
    class       volScalarField;
    location    "0";
    object      p;
}
// * * * * * * * * * * * * * * * * * * * * * * * * * * * * * * * * * * * * * //

dimensions      [0 2 -2 0 0 0 0];


internalField   nonuniform List<scalar> 
74500
(
-0.50998807
-0.49621221
-0.48227228
-0.46821297
-0.45408937
-0.43995145
-0.42583316
-0.41177995
-0.39784566
-0.38407455
-0.37049663
-0.35714805
-0.3440639
-0.33127936
-0.31880521
-0.30664294
-0.29479133
-0.28324511
-0.27197814
-0.26081722
-0.24918319
-0.23618166
-0.22243952
-0.20420354
-0.18140862
-0.13897468
-0.11750651
-0.061927424
-0.039295579
-0.0049748651
-0.015315532
-0.020566691
-0.040675097
-0.038000081
-0.081317508
-0.090511901
-0.085671578
-0.082670114
-0.080624189
-0.080002035
-0.081182287
-0.084026373
-0.088448559
-0.094501862
-0.10190151
-0.11039871
-0.11979509
-0.13033591
-0.14252659
-0.15887714
-0.17800223
-0.20653977
-0.25125521
-0.29880264
-0.30203876
-0.28057183
-0.28671868
-0.2943712
-0.30769727
-0.31685805
-0.32572446
-0.33479336
-0.34523993
-0.35347305
-0.36102798
-0.36849582
-0.37623477
-0.38442196
-0.3931468
-0.4024448
-0.41233741
-0.42281402
-0.43384272
-0.4453816
-0.45735951
-0.46966597
-0.4822239
-0.49498413
-0.50788322
-0.52081734
-0.53371143
-0.54651638
-0.5591855
-0.59491188
-0.58187079
-0.56866978
-0.55536558
-0.54200614
-0.52866514
-0.51545316
-0.50241015
-0.48960371
-0.4771101
-0.46502737
-0.45343274
-0.44237831
-0.43190822
-0.42205649
-0.41283579
-0.40422085
-0.39614262
-0.38845754
-0.38085135
-0.37277058
-0.36278998
-0.35221119
-0.33983823
-0.32635353
-0.3101027
-0.29946823
-0.29805853
-0.33063126
-0.32769854
-0.27513328
-0.2292426
-0.20253276
-0.18684622
-0.17406286
-0.16425583
-0.15497226
-0.14620978
-0.13821394
-0.1313586
-0.12588919
-0.12199189
-0.11961421
-0.11869273
-0.11908961
-0.12010497
-0.12059662
-0.1192997
-0.10880888
-0.075585754
-0.074956191
-0.062890703
-0.070557861
-0.067688478
-0.18835486
-0.20646846
-0.10210929
0.008455448
0.056145003
0.063880959
0.034086728
-0.020449639
-0.070145746
-0.11309601
-0.15555158
-0.20184987
-0.25477512
-0.31584066
-0.38590577
-0.46517788
-0.55337109
-0.64987588
-0.75378931
-0.86395109
-0.97897583
-1.0972813
-1.2170672
-1.3365591
-1.4540763
-1.5679144
-1.6764676
-1.7783153
-1.872272
-1.9573348
-2.0326379
-2.0974898
-2.1514173
-2.1941439
-2.2255459
-2.2456462
-2.2549449
-2.2534396
-2.241004
-2.218427
-2.1864212
-2.145539
-2.0963904
-2.0396263
-1.975927
-1.905992
-1.8305393
-1.7503058
-1.6660435
-1.5785186
-1.4885109
-1.3968122
-1.4958885
-1.4914158
-1.4866864
-1.4817422
-1.4766258
-1.4713804
-1.4660489
-1.4606739
-1.4552973
-1.4499599
-1.4447018
-1.4395612
-1.4345751
-1.4297788
-1.4252052
-1.4208853
-1.4168475
-1.4131174
-1.4097186
-1.4066739
-1.4040086
-1.4017516
-1.3999316
-1.398562
-1.3976255
-1.3970667
-1.4887668
-1.4893348
-1.4902877
-1.4916797
-1.4935284
-1.4958197
-1.4985211
-1.5016036
-1.5050402
-1.5088058
-1.5128746
-1.5172185
-1.5218063
-1.5266045
-1.5315769
-1.5366849
-1.5418883
-1.5471449
-1.5524109
-1.5576415
-1.5627903
-1.5678101
-1.5726528
-1.5772701
-1.5816136
-1.5856356
-1.6726059
-1.669097
-1.6652028
-1.6609768
-1.6564724
-1.6517427
-1.6468402
-1.6418165
-1.6367218
-1.6316051
-1.6265133
-1.6214922
-1.6165853
-1.6118339
-1.6072772
-1.6029518
-1.5988911
-1.5951255
-1.5916829
-1.5885901
-1.585876
-1.5835728
-1.5817124
-1.5803108
-1.5793493
-1.5787774
-1.6663036
-1.6668758
-1.6678329
-1.6692288
-1.671081
-1.6733716
-1.6760681
-1.6791365
-1.6825463
-1.6862686
-1.690274
-1.6945297
-1.6989999
-1.7036456
-1.708425
-1.7132941
-1.7182064
-1.7231132
-1.7279643
-1.7327073
-1.7372886
-1.7416528
-1.7457436
-1.7495037
-1.7528753
-1.7558002
-1.8342167
-1.8319566
-1.8291915
-1.825983
-1.8223928
-1.8184815
-1.8143087
-1.8099325
-1.8054095
-1.8007949
-1.7961419
-1.7915015
-1.7869228
-1.782452
-1.7781333
-1.774008
-1.7701141
-1.766486
-1.7631553
-1.7601524
-1.7575094
-1.755261
-1.7534411
-1.7520681
-1.7511264
-1.7505628
-1.830788
-1.8313346
-1.8322468
-1.833576
-1.8353358
-1.8375068
-1.8400549
-1.8429443
-1.8461421
-1.8496164
-1.853334
-1.8572585
-1.8613502
-1.8655659
-1.8698597
-1.8741831
-1.878485
-1.8827124
-1.88681
-1.8907205
-1.8943853
-1.8977438
-1.9007342
-1.9032934
-1.9053574
-1.9068614
-1.9727593
-1.9721127
-1.9708559
-1.969055
-1.9667754
-1.9640818
-1.9610372
-1.9577036
-1.9541409
-1.9504078
-1.9465606
-1.9426542
-1.938741
-1.9348711
-1.931092
-1.9274483
-1.9239812
-1.9207286
-1.917725
-1.9150035
-1.9125978
-1.910544
-1.9088765
-1.9076153
-1.9067482
-1.9062279
-1.9761487
-1.9766322
-1.9774359
-1.9786023
-1.9801415
-1.9820333
-1.9842437
-1.9867366
-1.9894776
-1.992433
-1.9955671
-1.998841
-2.0022122
-2.0056353
-2.0090617
-2.0124402
-2.0157175
-2.0188381
-2.0217449
-2.0243791
-2.02668
-2.0285855
-2.0300321
-2.0309551
-2.0312889
-2.0309672
-2.0805899
-2.0819978
-2.0827109
-2.082794
-2.0823114
-2.0813266
-2.0799023
-2.0780999
-2.0759793
-2.0735992
-2.0710164
-2.0682863
-2.0654623
-2.0625959
-2.0597361
-2.0569291
-2.0542178
-2.051642
-2.0492381
-2.0470402
-2.0450831
-2.0434022
-2.0420307
-2.0409887
-2.0402681
-2.039832
-2.0965764
-2.0969557
-2.0975723
-2.0984585
-2.0996199
-2.1010375
-2.1026795
-2.1045114
-2.1064988
-2.1086074
-2.1108001
-2.113037
-2.1152749
-2.1174678
-2.1195669
-2.1215212
-2.1232777
-2.124782
-2.1259784
-2.1268098
-2.1272181
-2.1271435
-2.1265255
-2.1253029
-2.1234145
-2.1207988
-2.150854
-2.1547974
-2.1579894
-2.160486
-2.1623422
-2.1636163
-2.1643657
-2.1646472
-2.1645165
-2.1640275
-2.1632332
-2.1621864
-2.1609387
-2.15954
-2.1580382
-2.1564787
-2.1549041
-2.1533541
-2.1518658
-2.1504736
-2.1492112
-2.1481116
-2.1472045
-2.1465078
-2.146017
-2.1457019
-2.1865563
-2.1867985
-2.1871423
-2.1876151
-2.1882226
-2.1889488
-2.1897665
-2.1906445
-2.19155
-2.1924488
-2.1933044
-2.1940778
-2.1947284
-2.1952117
-2.1954808
-2.1954892
-2.1951859
-2.1945207
-2.1934452
-2.1919115
-2.1898669
-2.1872579
-2.1840314
-2.1801349
-2.1755122
-2.1701094
-2.1778199
-2.184804
-2.1910041
-2.1964649
-2.2012327
-2.2053496
-2.2088579
-2.2118004
-2.2142215
-2.2161721
-2.2177025
-2.2188595
-2.2196887
-2.2202368
-2.2205494
-2.2206692
-2.2206323
-2.2204758
-2.2202355
-2.219945
-2.2196357
-2.2193369
-2.2190735
-2.2188597
-2.2186814
-2.2185269
-2.2410643
-2.2411137
-2.2410979
-2.2410191
-2.2408979
-2.2407186
-2.2404586
-2.2400913
-2.2395871
-2.2389139
-2.2380368
-2.2369172
-2.2355113
-2.233781
-2.2316904
-2.2291974
-2.2262673
-2.2228606
-2.218934
-2.2144437
-2.2093523
-2.2036246
-2.1972262
-2.1901228
-2.1822837
-2.1736784
-2.1578339
-2.1680734
-2.1775581
-2.1863099
-2.1943528
-2.2017139
-2.2084225
-2.2145099
-2.2200078
-2.2249444
-2.2293494
-2.233255
-2.236695
-2.2397001
-2.2423024
-2.2445358
-2.2464404
-2.2480514
-2.2494004
-2.2505167
-2.2514255
-2.2521483
-2.252702
-2.2531004
-2.2533521
-2.2534512
-2.2548741
-2.2546152
-2.2541348
-2.2534065
-2.2524053
-2.2511188
-2.2495352
-2.2476383
-2.2454066
-2.2428149
-2.2398355
-2.2364405
-2.2326051
-2.2282994
-2.2234917
-2.2181563
-2.212262
-2.2057823
-2.1986935
-2.1909735
-2.1826008
-2.1735551
-2.1638188
-2.1533765
-2.1422155
-2.1303262
-2.0913364
-2.1048343
-2.1176463
-2.129769
-2.1412025
-2.1519497
-2.1620168
-2.1714122
-2.1801471
-2.188234
-2.1956883
-2.2025271
-2.2087697
-2.2144375
-2.2195525
-2.2241377
-2.2282159
-2.2318105
-2.2349458
-2.2376435
-2.239921
-2.2417897
-2.2432577
-2.2443396
-2.2450675
-2.2454859
-2.2253024
-2.2247153
-2.223719
-2.2222523
-2.2202767
-2.2177774
-2.2147518
-2.2111958
-2.2070979
-2.2024413
-2.1972076
-2.1913782
-2.1849364
-2.1778664
-2.1701547
-2.1617884
-2.1527584
-2.1430572
-2.1326802
-2.1216251
-2.1098925
-2.0974856
-2.084411
-2.0706783
-2.0563008
-2.0412955
-1.980872
-1.9972224
-2.0130186
-2.0282298
-2.0428297
-2.0567951
-2.0701069
-2.0827493
-2.0947098
-2.1059788
-2.1165496
-2.1264188
-2.1355855
-2.1440516
-2.1518217
-2.1589029
-2.1653043
-2.1710375
-2.1761146
-2.1805457
-2.1843349
-2.1874779
-2.189969
-2.1918189
-2.1930766
-2.1938277
-2.1510369
-2.1501346
-2.1486155
-2.1463785
-2.143368
-2.1395777
-2.1350234
-2.1297193
-2.12367
-2.1168728
-2.1093233
-2.1010181
-2.0919569
-2.0821425
-2.0715807
-2.0602806
-2.0482544
-2.0355172
-2.0220878
-2.0079879
-1.9932425
-1.9778799
-1.9619321
-1.9454352
-1.9284284
-1.9109558
-1.8326382
-1.8509535
-1.8689043
-1.8864347
-1.903493
-1.9200313
-1.9360054
-1.9513746
-1.9661016
-1.9801521
-1.9934953
-2.0061038
-2.0179536
-2.0290238
-2.0392973
-2.0487607
-2.0574043
-2.0652221
-2.0722101
-2.0783623
-2.0836645
-2.0880908
-2.091613
-2.0942312
-2.096004
-2.0970392
-2.0321181
-2.0309615
-2.0289573
-2.0259752
-2.0219621
-2.0169284
-2.0109181
-2.0039701
-1.9961082
-1.9873476
-1.9777017
-1.9671869
-1.9558239
-1.9436374
-1.9306564
-1.9169137
-1.9024456
-1.8872916
-1.8714946
-1.855101
-1.8381597
-1.8207232
-1.8028468
-1.7845891
-1.7660126
-1.7471837
-1.6559942
-1.6749694
-1.6938114
-1.7124458
-1.730801
-1.7488091
-1.7664052
-1.7835267
-1.8001138
-1.8161091
-1.8314584
-1.8461104
-1.8600168
-1.8731329
-1.8854176
-1.8968342
-1.9073505
-1.916939
-1.9255757
-1.9332357
-1.9398862
-1.9454787
-1.9499526
-1.9532671
-1.9554692
-1.9567531
-1.8716256
-1.870211
-1.8678076
-1.8641923
-1.8593164
-1.8532492
-1.8460602
-1.8378052
-1.8285276
-1.8182637
-1.8070488
-1.7949223
-1.7819281
-1.7681148
-1.7535352
-1.7382458
-1.7223058
-1.7057773
-1.6887249
-1.6712154
-1.6533179
-1.6351034
-1.6166443
-1.5980161
-1.5792967
-1.5605666
-1.462443
-1.4805285
-1.4987253
-1.516948
-1.5351146
-1.5531453
-1.5709625
-1.5884886
-1.6056473
-1.6223641
-1.6385657
-1.654181
-1.6691407
-1.6833779
-1.6968289
-1.709434
-1.7211377
-1.7318894
-1.7416419
-1.7503464
-1.7579454
-1.7643673
-1.7695385
-1.7734219
-1.7760644
-1.7776098
-1.6757183
-1.6740375
-1.6712014
-1.6671276
-1.6617613
-1.6551079
-1.647246
-1.6382632
-1.6282314
-1.6172112
-1.605261
-1.5924423
-1.5788208
-1.564466
-1.5494508
-1.533851
-1.5177442
-1.5012088
-1.4843239
-1.4671698
-1.4498279
-1.4323813
-1.4149083
-1.3974898
-1.3802064
-1.3631385
-1.2640892
-1.2797775
-1.2957845
-1.312032
-1.3284404
-1.3449273
-1.3614069
-1.3777994
-1.3940239
-1.4099978
-1.4256394
-1.440866
-1.4555924
-1.4697364
-1.4832182
-1.4959605
-1.5078893
-1.5189336
-1.5290248
-1.5380925
-1.5460553
-1.5528192
-1.558297
-1.5624549
-1.565356
-1.5671264
-1.4532594
-1.4514911
-1.4486166
-1.4444674
-1.4389962
-1.4322666
-1.4243796
-1.4154347
-1.4055194
-1.3947116
-1.3830873
-1.3707257
-1.3577062
-1.3441106
-1.3300232
-1.3155289
-1.3007107
-1.2856553
-1.2704502
-1.2551798
-1.2399252
-1.2247651
-1.2097838
-1.1950613
-1.1806765
-1.1667079
-1.0722906
-1.0842695
-1.0967316
-1.1096074
-1.122825
-1.1363114
-1.1499939
-1.1637924
-1.1776254
-1.1914098
-1.2050587
-1.218486
-1.231608
-1.2443382
-1.2565898
-1.2682754
-1.2793098
-1.2896144
-1.2991104
-1.3077151
-1.3153347
-1.3218654
-1.3271927
-1.3312412
-1.3340399
-1.335751
-1.2163113
-1.2146853
-1.2120161
-1.20816
-1.2030928
-1.1969081
-1.1897454
-1.1816872
-1.1728393
-1.1632879
-1.1531132
-1.1423946
-1.1312173
-1.119668
-1.107833
-1.0957984
-1.0836503
-1.0714707
-1.0593381
-1.0473302
-1.0355223
-1.0239872
-1.0127932
-1.0020064
-0.99169046
-0.98190619
-0.97271154
-0.96416178
-0.88339825
-0.8895896
-0.89643402
-0.90388654
-0.91189911
-0.92042016
-0.92939515
-0.93876623
-0.94847233
-0.9584487
-0.96862723
-0.9789368
-0.98930399
-0.99965201
-1.0099015
-1.0199716
-1.0297812
-1.0392503
-1.0483001
-1.0568498
-1.06482
-1.0721268
-1.0786733
-1.0843488
-1.0890259
-1.092608
-1.0950949
-1.0965968
-0.97836148
-0.97700723
-0.97475188
-0.97152091
-0.96734188
-0.96231757
-0.95657284
-0.95021812
-0.94334432
-0.93602877
-0.92834392
-0.92036199
-0.91215562
-0.903798
-0.89536278
-0.88692313
-0.8785506
-0.87031426
-0.86228029
-0.8545117
-0.84706801
-0.8400052
-0.83337555
-0.82722802
-0.82160755
-0.81655564
-0.81211041
-0.80830629
-0.73843249
-0.73924908
-0.74069743
-0.74275744
-0.74540498
-0.74861174
-0.75234635
-0.75657332
-0.76125337
-0.76634347
-0.77179715
-0.77756424
-0.78359089
-0.78981984
-0.79619124
-0.80264289
-0.80911109
-0.81553185
-0.82184166
-0.82797813
-0.83388011
-0.83948644
-0.84473116
-0.84953454
-0.85379441
-0.85738901
-0.86020583
-0.86219429
-0.86340012
-0.75328961
-0.75222749
-0.75051581
-0.74814673
-0.74519775
-0.74178981
-0.7380373
-0.73402688
-0.72982055
-0.72546768
-0.72101411
-0.7165069
-0.71199547
-0.70753166
-0.70316842
-0.69895861
-0.69495404
-0.6912046
-0.68775741
-0.68465663
-0.68194273
-0.6796527
-0.67781982
-0.67647375
-0.67564039
-0.67534193
-0.6755969
-0.67641993
-0.67782155
-0.62334655
-0.61986447
-0.6168983
-0.61444603
-0.6125017
-0.61105563
-0.61009449
-0.60960151
-0.60955626
-0.60993489
-0.61070997
-0.61185052
-0.61332268
-0.61508942
-0.61711126
-0.61934722
-0.62175559
-0.62429522
-0.62692729
-0.62961657
-0.63233231
-0.63504747
-0.63773468
-0.64035672
-0.64285147
-0.64511948
-0.64703245
-0.64847756
-0.64941171
-0.55292432
-0.55208197
-0.55086844
-0.54939631
-0.54782388
-0.54628245
-0.54484449
-0.54353621
-0.54236202
-0.54132288
-0.54042497
-0.53968218
-0.53911538
-0.53875057
-0.53861721
-0.53874603
-0.53916748
-0.53991075
-0.54100278
-0.54246784
-0.54432736
-0.54659959
-0.54929949
-0.5524387
-0.5560256
-0.56006534
-0.56455965
-0.56950669
-0.574901
-0.53229691
-0.52517937
-0.51843793
-0.51208454
-0.5061277
-0.50057281
-0.49542211
-0.49067486
-0.4863276
-0.48237365
-0.47880337
-0.47560436
-0.47276148
-0.47025724
-0.46807228
-0.46618602
-0.46457807
-0.46322955
-0.46212571
-0.46125844
-0.46062919
-0.46025223
-0.46015522
-0.46037368
-0.46093146
-0.46180213
-0.46286498
-0.46390701
-0.46471736
-0.3853983
-0.38452937
-0.38357659
-0.38289426
-0.38274593
-0.38320897
-0.38423561
-0.38573791
-0.38763727
-0.38987973
-0.39243478
-0.39528965
-0.39844314
-0.40190124
-0.4056738
-0.4097722
-0.41420784
-0.41899103
-0.42413044
-0.42963256
-0.43550159
-0.44173911
-0.44834421
-0.45531303
-0.46263936
-0.47031427
-0.4783262
-0.48666079
-0.49530081
-0.46368687
-0.45372895
-0.44400806
-0.43454632
-0.42536311
-0.41647536
-0.40789774
-0.39964278
-0.39172099
-0.38414021
-0.37690615
-0.37002223
-0.36348988
-0.3573087
-0.35147664
-0.34599061
-0.34084715
-0.33604365
-0.33158028
-0.32746329
-0.32371039
-0.32035946
-0.31748094
-0.31519049
-0.31364625
-0.31300189
-0.31328741
-0.31423676
-0.31527753
-0.25414173
-0.25302181
-0.25210255
-0.25237179
-0.25395395
-0.25665068
-0.26019004
-0.26435948
-0.26902846
-0.27412836
-0.27962584
-0.28550519
-0.29175868
-0.29838169
-0.30537057
-0.31272145
-0.32042977
-0.32848976
-0.33689416
-0.34563409
-0.35469908
-0.36407638
-0.37375095
-0.3837072
-0.39392762
-0.40439275
-0.41508112
-0.42596924
-0.43703106
-0.4147663
-0.40280062
-0.39095213
-0.37924961
-0.36772012
-0.35638892
-0.34527967
-0.33441449
-0.32381392
-0.3134982
-0.30348588
-0.29379411
-0.28443886
-0.27543457
-0.26679433
-0.25853014
-0.25065311
-0.24317334
-0.23609975
-0.22944012
-0.22320342
-0.21740671
-0.21209285
-0.20736747
-0.20345429
-0.20072937
-0.19962391
-0.20019988
-0.20114559
-0.15487334
-0.15425493
-0.15471857
-0.15704488
-0.16118105
-0.16635953
-0.17215628
-0.17841523
-0.18510994
-0.19224717
-0.19983445
-0.20787106
-0.21634808
-0.22525082
-0.2345618
-0.24426237
-0.2543333
-0.2647547
-0.27550558
-0.28656365
-0.29790446
-0.30950506
-0.32134248
-0.33339125
-0.34562491
-0.35801619
-0.3705365
-0.38315565
-0.39584208
-0.37758694
-0.3643582
-0.35115411
-0.33800866
-0.32495477
-0.3120239
-0.29924623
-0.28665149
-0.27426912
-0.26212763
-0.25025519
-0.23867943
-0.22742724
-0.21652536
-0.2059997
-0.19587638
-0.1861816
-0.17694107
-0.16817739
-0.15990384
-0.15211631
-0.14478358
-0.13784273
-0.13121633
-0.12489368
-0.11914284
-0.11486948
-0.11240258
-0.11261607
-0.069582994
-0.071407952
-0.076899501
-0.083810224
-0.090882519
-0.097801011
-0.10474084
-0.11195656
-0.11962148
-0.12782382
-0.13658789
-0.14590039
-0.15573018
-0.16604173
-0.17679995
-0.18797076
-0.19952161
-0.21142131
-0.22363839
-0.23614237
-0.24890455
-0.26189224
-0.27507213
-0.28841108
-0.30187685
-0.31543716
-0.32905785
-0.34270356
-0.35633835
-0.32727518
-0.31332582
-0.29933697
-0.2853456
-0.27138953
-0.25750584
-0.24372734
-0.23008763
-0.21662274
-0.20336701
-0.19035351
-0.17761536
-0.16518607
-0.15309915
-0.14139094
-0.1301001
-0.11926856
-0.10894294
-0.099175389
-0.090023841
-0.081540349
-0.073749215
-0.066604947
-0.059917894
-0.053279572
-0.04604945
-0.036814402
-0.027447015
-0.020893443
0.028916998
0.018245634
0.008127223
0.0011226669
-0.0037758783
-0.0086071664
-0.014181287
-0.020855454
-0.028658828
-0.03745936
-0.047091823
-0.057414833
-0.068324026
-0.079744935
-0.091622102
-0.10391162
-0.11657493
-0.12957506
-0.14287671
-0.15644396
-0.17023993
-0.18422989
-0.19837788
-0.21264919
-0.22700837
-0.24141698
-0.25583373
-0.27021898
-0.28453477
-0.25796196
-0.2433966
-0.22873632
-0.21401905
-0.19928339
-0.18456819
-0.16991793
-0.155375
-0.14097666
-0.12676107
-0.11276714
-0.099033055
-0.085594862
-0.072487037
-0.059740454
-0.047384558
-0.035452226
-0.023989681
-0.013074647
-0.0028431374
0.0064738426
0.014533504
0.02094233
0.025480395
0.028515573
0.031277642
0.035585813
0.043871399
0.054999354
0.046272156
0.036558623
0.030737222
0.027477162
0.025180982
0.022520889
0.017644903
0.010357532
0.0013067887
-0.0088499856
-0.019694251
-0.03102219
-0.042752382
-0.054857851
-0.0673303
-0.0801613
-0.093335903
-0.10683079
-0.12061611
-0.13465717
-0.14891541
-0.16334957
-0.17791835
-0.1925779
-0.20728538
-0.22199976
-0.2366815
-0.2512917
-0.26579127
-0.31030442
-0.29601274
-0.28160037
-0.26710688
-0.25257142
-0.23803455
-0.22354016
-0.20913055
-0.19484921
-0.18073917
-0.1668428
-0.15319839
-0.13984253
-0.12680183
-0.11409405
-0.10171906
-0.08965507
-0.077853718
-0.066246479
-0.054762118
-0.043401883
-0.032450474
-0.022676202
-0.01531238
-0.010345168
-0.0068009847
-0.0051244824
-0.004507166
-0.00068318255
-0.097817478
-0.093476784
-0.091786519
-0.096561636
-0.10639689
-0.12021344
-0.13459915
-0.14914456
-0.16274726
-0.17536993
-0.18735119
-0.19903972
-0.21072261
-0.22259666
-0.23476661
-0.24727342
-0.26012169
-0.27329298
-0.28675412
-0.3004707
-0.31440039
-0.32849739
-0.34271936
-0.35702517
-0.37136802
-0.38570473
-0.39999413
-0.41419634
-0.42827408
-0.54984682
-0.53600951
-0.52204534
-0.50799009
-0.49388386
-0.47976748
-0.46568294
-0.45167834
-0.43779758
-0.42408021
-0.4105734
-0.39732373
-0.38436373
-0.37173062
-0.35945587
-0.34754961
-0.33599435
-0.32470676
-0.31348146
-0.30193187
-0.28937291
-0.27476328
-0.25657935
-0.23398748
-0.20890721
-0.19157845
-0.17853182
-0.18095429
-0.1882669
-0.17482894
-0.17065004
-0.17966458
-0.21023393
-0.24242222
-0.27371519
-0.29887925
-0.31637253
-0.32926662
-0.34042773
-0.35108714
-0.36180268
-0.37282663
-0.38423771
-0.39604623
-0.40823869
-0.42077985
-0.43363998
-0.44678739
-0.46017319
-0.47376376
-0.48752266
-0.50139762
-0.51534045
-0.52931475
-0.5432775
-0.55718708
-0.57100381
-0.58468373
-0.551986
-0.53826345
-0.52438121
-0.51038801
-0.49633233
-0.48226192
-0.46821394
-0.45422583
-0.44035047
-0.42664253
-0.41312973
-0.39984222
-0.38682804
-0.37412131
-0.36173535
-0.34969204
-0.33799766
-0.326659
-0.31566631
-0.30488076
-0.2938434
-0.28141933
-0.26662055
-0.24506259
-0.21782648
-0.17206134
-0.14365881
-0.097425609
-0.086796064
-0.074926478
-0.031940735
-0.04992154
-0.084865345
-0.11069692
-0.14258035
-0.16171498
-0.17614575
-0.1897327
-0.2028393
-0.21452652
-0.2256966
-0.23691876
-0.24841698
-0.26024515
-0.2724086
-0.28490605
-0.29770845
-0.31080517
-0.32416921
-0.33774783
-0.35151641
-0.36545179
-0.37949594
-0.39359602
-0.40772047
-0.42182994
-0.43587701
-0.44981329
-0.46358862
-0.39892739
-0.3851867
-0.37129181
-0.35729203
-0.34323254
-0.32916229
-0.31511619
-0.30111814
-0.28723121
-0.27351155
-0.25997998
-0.24665844
-0.23360377
-0.22084452
-0.2084015
-0.19632618
-0.18463647
-0.17334026
-0.16236749
-0.15142466
-0.13979933
-0.12646875
-0.11322289
-0.10064131
-0.083808856
-0.059686188
-0.039762825
-0.028581767
-0.026494565
-0.029722362
-0.0078715161
0.0038633096
-0.015157358
-0.033590209
-0.048483796
-0.059773334
-0.072659841
-0.086046426
-0.097448796
-0.10803128
-0.11865761
-0.12968609
-0.14119176
-0.15314488
-0.16549766
-0.17818502
-0.19116814
-0.20440913
-0.21786745
-0.23151346
-0.2453192
-0.25924643
-0.27322059
-0.2872127
-0.3011958
-0.31512238
-0.32894772
-0.34262969
-0.30564083
-0.29207139
-0.27836421
-0.26455675
-0.25068251
-0.23678223
-0.22289409
-0.20905964
-0.19534514
-0.18178399
-0.16841429
-0.15527576
-0.1423889
-0.12978411
-0.1175177
-0.1056963
-0.094410662
-0.08373008
-0.073615826
-0.063704404
-0.053022225
-0.040148888
-0.027626632
-0.01642358
-0.0013352557
0.014005721
0.026123492
0.003407495
-0.028936946
-0.05084909
-0.00656533
0.022885445
0.018269658
0.004001307
-0.010479976
-0.020836797
-0.033226551
-0.046081269
-0.056487261
-0.066071935
-0.075892916
-0.086327337
-0.097406027
-0.10904756
-0.12114529
-0.13359166
-0.14634786
-0.15937313
-0.17263728
-0.18610126
-0.19972326
-0.21346155
-0.22726542
-0.24107616
-0.25485008
-0.26855038
-0.28213864
-0.29557304
-0.28939092
-0.27560676
-0.26166449
-0.24760831
-0.23346927
-0.21927775
-0.20508498
-0.190944
-0.17690739
-0.16302286
-0.14933037
-0.1358715
-0.1226957
-0.10985277
-0.097402061
-0.085428169
-0.07402441
-0.063261032
-0.053096898
-0.043106314
-0.032281981
-0.019414802
-0.0069962652
0.0027870584
0.015012591
0.028253383
0.031070888
-0.0045421924
-0.053602211
-0.05238275
-0.0022322863
0.036652028
0.033926695
0.021637306
0.010334101
0.0011194066
-0.010985556
-0.023704862
-0.034629856
-0.044768075
-0.055088289
-0.065977858
-0.077468495
-0.089510754
-0.10202869
-0.11495078
-0.12821564
-0.14177306
-0.15558322
-0.16959719
-0.18375844
-0.19802108
-0.21233814
-0.22665464
-0.24091783
-0.25510025
-0.26916488
-0.28305958
-0.28039754
-0.26646346
-0.25234988
-0.23811073
-0.22378377
-0.20940484
-0.195029
-0.18071356
-0.16650197
-0.15244077
-0.13858692
-0.12499532
-0.11170905
-0.098780939
-0.086268347
-0.074224408
-0.062712032
-0.051790285
-0.041414438
-0.031190069
-0.020166282
-0.0075347731
0.0044230767
0.01325121
0.023965008
0.035776303
0.038640833
-0.0015224048
-0.050781969
-0.049486094
-0.001363183
0.038887161
0.03566972
0.023866793
0.013326306
0.0046015172
-0.0074178422
-0.019944308
-0.030920222
-0.041224564
-0.051616867
-0.062491827
-0.073943858
-0.085925486
-0.098380034
-0.11126285
-0.12451912
-0.13809324
-0.15193939
-0.16599541
-0.18019946
-0.19450597
-0.2088731
-0.22324271
-0.23756116
-0.25179027
-0.26588836
-0.27979909
-0.2806526
-0.2668277
-0.25281125
-0.23865654
-0.22439933
-0.21007959
-0.19575947
-0.18150296
-0.16735514
-0.15336005
-0.13957983
-0.12607808
-0.11290185
-0.10009934
-0.087737529
-0.075864535
-0.064531016
-0.053757564
-0.043433089
-0.033182566
-0.022288528
-0.0098438462
0.0023553021
0.011218574
0.021957288
0.034172417
0.038086394
-0.0019213757
-0.049392142
-0.050979338
-0.0036813683
0.036175811
0.031256654
0.01828396
0.0070943872
-0.0020468386
-0.014469769
-0.026840127
-0.037618773
-0.047695741
-0.057832689
-0.068430234
-0.079598175
-0.091321295
-0.10355046
-0.11623418
-0.12930242
-0.14270532
-0.15639281
-0.17029793
-0.18435562
-0.19852098
-0.21274975
-0.22697977
-0.24114998
-0.25521959
-0.26915057
-0.28288832
-0.28629382
-0.27266308
-0.2588366
-0.24486933
-0.23080076
-0.21667327
-0.20254824
-0.18848824
-0.17453872
-0.16074649
-0.14717889
-0.1339062
-0.12098172
-0.10845848
-0.096409092
-0.084888709
-0.073950316
-0.063613265
-0.053770111
-0.043984097
-0.033384586
-0.021096542
-0.0084556305
0.00096409517
0.012599877
0.026541797
0.032559727
-0.0070924528
-0.054337195
-0.059528806
-0.012427301
0.026905317
0.019772114
0.0048913485
-0.0071101075
-0.016752836
-0.029585934
-0.041756819
-0.052049261
-0.061439467
-0.070898172
-0.080899636
-0.091546138
-0.10280968
-0.11463058
-0.12694916
-0.13969106
-0.15279842
-0.16621411
-0.17986451
-0.1936798
-0.20761021
-0.22160831
-0.2356113
-0.24955767
-0.26340183
-0.27710268
-0.29060535
-0.29564845
-0.28229458
-0.26874056
-0.25504015
-0.24123653
-0.2273811
-0.21353477
-0.19975912
-0.18610427
-0.17262539
-0.15939458
-0.14648858
-0.13396922
-0.12190063
-0.11035681
-0.099402807
-0.089106721
-0.079508103
-0.070515223
-0.061640743
-0.051786423
-0.039806925
-0.02682311
-0.017030824
-0.0047479501
0.011046145
0.019328298
-0.019637517
-0.066529993
-0.07520028
-0.028791264
0.0095920462
0.00020275249
-0.016243289
-0.028636605
-0.038501721
-0.051574849
-0.063260499
-0.072570386
-0.080842438
-0.08931061
-0.098453401
-0.10834844
-0.1189444
-0.13016489
-0.14193896
-0.15419607
-0.16686508
-0.17987874
-0.19315855
-0.20663058
-0.2202295
-0.23390134
-0.24758816
-0.26122837
-0.27476601
-0.28815245
-0.30133954
-0.3075952
-0.29459424
-0.28139712
-0.26804574
-0.25459299
-0.24109685
-0.22761742
-0.21421095
-0.20094064
-0.18788543
-0.1751217
-0.16272656
-0.15077227
-0.13933298
-0.1284767
-0.11827812
-0.10881899
-0.10015863
-0.09222552
-0.084539093
-0.075806866
-0.064560721
-0.051487123
-0.041605917
-0.029354773
-0.012678645
-0.0023401699
-0.039840035
-0.085349932
-0.096691242
-0.052411992
-0.016066936
-0.027128724
-0.043585609
-0.055433677
-0.065250827
-0.078217567
-0.088899486
-0.097042534
-0.10423138
-0.11165697
-0.1198388
-0.12885109
-0.13862703
-0.14908665
-0.16015849
-0.17177633
-0.1838688
-0.19635516
-0.20916513
-0.22222241
-0.23542959
-0.24870049
-0.26197083
-0.27519435
-0.28832626
-0.30130732
-0.31409617
-0.31975358
-0.30730816
-0.29467556
-0.28188107
-0.2689832
-0.25599215
-0.24291776
-0.22986645
-0.21696637
-0.20435747
-0.19216058
-0.18043116
-0.16922794
-0.15860818
-0.14862832
-0.13934419
-0.13079759
-0.12308379
-0.1161228
-0.10941067
-0.1019569
-0.09197937
-0.079259021
-0.069556852
-0.058364219
-0.042644008
-0.031424001
-0.065880452
-0.10891856
-0.12191523
-0.079489883
-0.048225476
-0.058804805
-0.073219632
-0.08353067
-0.093118198
-0.10519513
-0.11407227
-0.12040546
-0.12625476
-0.13252185
-0.13955197
-0.14740016
-0.15602057
-0.16535765
-0.1753616
-0.18598712
-0.19719242
-0.20894775
-0.22125502
-0.23393322
-0.24678152
-0.25956867
-0.27201937
-0.28430006
-0.29646738
-0.30842055
-0.32019621
-0.31812972
-0.30572046
-0.2931631
-0.28045336
-0.26760068
-0.25463762
-0.24160474
-0.22867648
-0.21608018
-0.20397784
-0.19271173
-0.18204319
-0.1720019
-0.16261836
-0.15391848
-0.14593604
-0.13872613
-0.13234597
-0.12679792
-0.12197824
-0.11773303
-0.11086862
-0.099932429
-0.090667108
-0.082234189
-0.071092583
-0.061292946
-0.091842912
-0.13702091
-0.15366502
-0.10787976
-0.084698638
-0.09586538
-0.10343091
-0.10953344
-0.11861258
-0.13016519
-0.13738289
-0.14208767
-0.14718133
-0.1530088
-0.15968929
-0.16721275
-0.17552125
-0.18455143
-0.19425694
-0.20459694
-0.21552279
-0.22697979
-0.23890337
-0.25126569
-0.26395599
-0.27680693
-0.2896856
-0.30251121
-0.31523774
-0.32787458
-0.34042877
-0.38947351
-0.37715616
-0.36474763
-0.35227768
-0.33970671
-0.3270945
-0.31457517
-0.30225268
-0.29024153
-0.27863382
-0.2675064
-0.25691249
-0.24689991
-0.23751438
-0.22878545
-0.22074128
-0.21343459
-0.20686927
-0.20098388
-0.19550769
-0.18965789
-0.18155257
-0.170776
-0.16366184
-0.15864131
-0.15235657
-0.14158606
-0.15099454
-0.1845333
-0.23095279
-0.21034318
-0.21077719
-0.21439702
-0.21916129
-0.22352387
-0.23017952
-0.24055054
-0.24902653
-0.25565251
-0.26175474
-0.26806345
-0.27489076
-0.28235128
-0.29047496
-0.29917818
-0.3084874
-0.31841042
-0.32891132
-0.33994778
-0.35148842
-0.3634398
-0.3756912
-0.38814871
-0.40073378
-0.41334127
-0.42591361
-0.43842085
-0.45080844
-0.5163158
-0.5038296
-0.49121303
-0.47852307
-0.46580281
-0.45312438
-0.44059589
-0.4282687
-0.41621979
-0.40453922
-0.39332031
-0.38262174
-0.37248672
-0.36294806
-0.35401539
-0.34568355
-0.33794225
-0.33072263
-0.32386965
-0.31705208
-0.30964916
-0.30062566
-0.29090131
-0.28331187
-0.27744723
-0.26842153
-0.2619938
-0.25748429
-0.27165229
-0.28857419
-0.23543227
-0.18189433
-0.14813012
-0.13175673
-0.12039715
-0.11092352
-0.10112642
-0.091524468
-0.08277987
-0.075274115
-0.06925033
-0.064867158
-0.062116089
-0.060826553
-0.060705629
-0.060968753
-0.060288285
-0.057318047
-0.051963734
-0.033794065
-0.040930636
-0.052382478
-0.10450655
-0.14949504
-0.17151631
-0.18063968
-0.089261027
0.00341934
0.048893259
0.056603287
0.030023879
-0.019816209
-0.067668701
-0.10966105
-0.1518382
-0.19829687
-0.25149132
-0.31275742
-0.38298931
-0.46245875
-0.55090932
-0.64773716
-0.75203823
-0.8626522
-0.97818209
-1.0970172
-1.2173258
-1.3373168
-1.4553004
-1.569555
-1.6784497
-1.7805472
-1.8746738
-1.95985
-2.0352134
-2.1000621
-2.1539384
-2.1965805
-2.2278764
-2.247909
-2.2570619
-2.2552503
-2.2425892
-2.2198898
-2.187739
-2.1467086
-2.097414
-2.0405077
-1.9766709
-1.9066001
-1.8310121
-1.7506437
-1.666246
-1.5785823
-1.488431
-1.3965816
-1.3960694
-1.4882512
-1.5787239
-1.6666986
-1.7513993
-1.832064
-1.9079433
-1.9783157
-2.0424697
-2.0997052
-2.1493408
-2.190724
-2.2232346
-2.2463029
-2.259356
-2.2616803
-2.2529541
-2.2331575
-2.202069
-2.1595968
-2.1058195
-2.040964
-1.9654838
-1.8800704
-1.7855492
-1.6828692
-1.5732135
-1.4580492
-1.3390314
-1.2179151
-1.0964288
-0.97641024
-0.85975651
-0.74812594
-0.64293562
-0.54537532
-0.4563544
-0.37647165
-0.30593524
-0.24440603
-0.19095999
-0.14447597
-0.10308303
-0.063825285
-0.022256279
0.020993268
0.048241342
0.045188861
0.0087772407
-0.07074405
-0.15856037
-0.13515354
-0.13678073
-0.13917734
-0.11944336
-0.024115653
-0.046776462
0.022369798
0.048328454
0.04385288
0.01374884
-0.023913472
-0.058711039
-0.094440076
-0.13410581
-0.17972893
-0.23285582
-0.2944491
-0.36531654
-0.44582944
-0.53580089
-0.63462678
-0.74136899
-0.85478834
-0.97339454
-1.095448
-1.2189707
-1.3420311
-1.4628211
-1.5795266
-1.6904544
-1.7941204
-1.8893435
-1.9751924
-2.0508674
-2.1157224