/*--------------------------------*- C++ -*----------------------------------*\
| =========                 |                                                 |
| \\      /  F ield         | OpenFOAM: The Open Source CFD Toolbox           |
|  \\    /   O peration     | Version:  v2012                                 |
|   \\  /    A nd           | Website:  www.openfoam.com                      |
|    \\/     M anipulation  |                                                 |
\*---------------------------------------------------------------------------*/
FoamFile
{
    version     2.0;
    format      ascii;
    class       volVectorField;
    location    "0";
    object      U;
}
// * * * * * * * * * * * * * * * * * * * * * * * * * * * * * * * * * * * * * //

dimensions      [0 1 -1 0 0 0 0];


internalField   nonuniform List<vector> 
74500
(
(5.0378074 0.031661874 -0.048773915)
(5.0378147 0.031718794 -0.048864609)
(5.0378162 0.031761925 -0.048826632)
(5.0378203 0.031811464 -0.048666245)
(5.0378278 0.031860809 -0.048381947)
(5.0378377 0.031910094 -0.04798105)
(5.03785 0.031975492 -0.047446772)
(5.0378617 0.032032775 -0.046769894)
(5.0378717 0.032077361 -0.045976769)
(5.0378909 0.032145146 -0.045061719)
(5.037912 0.03221458 -0.044003171)
(5.0379281 0.032261962 -0.042825831)
(5.0379496 0.032332233 -0.041528587)
(5.0379781 0.032402552 -0.040094322)
(5.0380033 0.032462461 -0.038542021)
(5.0380329 0.032556018 -0.03684026)
(5.0380648 0.032671906 -0.034919077)
(5.0381101 0.032839847 -0.032693351)
(5.0382104 0.033089686 -0.030056572)
(5.0384391 0.033476281 -0.026919394)
(5.0390015 0.033857704 -0.023641812)
(5.0398008 0.034268861 -0.020870547)
(5.040784 0.033458892 -0.020823815)
(5.0403852 0.033831046 -0.022183523)
(5.0424122 0.02570099 -0.036727151)
(5.033509 0.032140874 -0.045704867)
(5.0341273 0.017370144 -0.056004205)
(5.0148813 0.037360988 -0.042203112)
(5.0091236 0.018477065 -0.0021660299)
(4.9954844 -0.0085138693 0.0050763843)
(5.0073006 -0.035032965 0.024503801)
(5.0083161 -0.076904871 0.030559207)
(5.0211161 -0.081944867 0.0024316969)
(5.0187625 -0.055938649 0.011246946)
(5.026136 -0.027194092 0.0058082011)
(5.0243881 0.0046253414 0.014469659)
(5.024746 0.021538747 0.016004492)
(5.0235907 0.033252204 0.017790379)
(5.0226325 0.039394241 0.018344644)
(5.0219587 0.042796307 0.018427984)
(5.0214717 0.044830809 0.018359436)
(5.0210359 0.046000958 0.018272198)
(5.0206022 0.046340513 0.018226304)
(5.0201576 0.045747071 0.01821042)
(5.0197097 0.044089077 0.018253644)
(5.019298 0.041262122 0.018347878)
(5.0188581 0.037073397 0.018546602)
(5.0183474 0.031697849 0.018412181)
(5.0173337 0.025715043 0.01762536)
(5.0164368 0.021754221 0.015056188)
(5.0132945 0.020507388 0.011718559)
(5.0090305 0.018390255 0.0087436447)
(5.0078742 0.015627633 0.0066736955)
(5.0198994 0.0073396699 0.015394189)
(5.0212876 -0.013980682 0.034968457)
(5.0145608 -0.011752499 0.030433584)
(5.0242248 -0.020113738 0.027696822)
(5.0282818 -0.026398807 0.021471996)
(5.0310911 -0.029325568 0.01174347)
(5.0316405 -0.032684547 -0.001917571)
(5.0322535 -0.031502993 -0.016872286)
(5.0321723 -0.030504268 -0.027986724)
(5.0321883 -0.02937661 -0.036168834)
(5.032152 -0.028842063 -0.042057464)
(5.032283 -0.02850067 -0.046617)
(5.0324652 -0.028359312 -0.050140617)
(5.0326696 -0.028319636 -0.052961767)
(5.0328748 -0.028338123 -0.055275843)
(5.0330758 -0.02838668 -0.057209395)
(5.0332728 -0.028466955 -0.058858004)
(5.0334621 -0.028548062 -0.060280711)
(5.033641 -0.028619364 -0.061486067)
(5.0338132 -0.028690151 -0.062479837)
(5.0339827 -0.028759713 -0.063270507)
(5.0341503 -0.028827316 -0.063858476)
(5.0343085 -0.028902267 -0.064264576)
(5.034462 -0.028978028 -0.064517185)
(5.0346141 -0.02904784 -0.06461599)
(5.0347635 -0.029116285 -0.064554986)
(5.0349002 -0.029184276 -0.064350138)
(5.0350357 -0.029254343 -0.064020457)
(5.0351724 -0.029327199 -0.063572233)
(5.0353016 -0.029385212 -0.062995731)
(5.0912706 -0.013929973 -0.063219865)
(5.0908516 -0.013852493 -0.063808938)
(5.0904145 -0.01377052 -0.064277609)
(5.0899683 -0.013685115 -0.064621147)
(5.0895093 -0.013595893 -0.064825592)
(5.089022 -0.013501893 -0.064888554)
(5.0885188 -0.013403839 -0.06480787)
(5.088001 -0.013301839 -0.064570435)
(5.0874644 -0.013196585 -0.064163642)
(5.086904 -0.013088483 -0.063579622)
(5.0863274 -0.012977582 -0.062807227)
(5.0857361 -0.012863446 -0.061831135)
(5.0851253 -0.012748138 -0.060640363)
(5.084492 -0.012634359 -0.059227097)
(5.0838431 -0.012524347 -0.05758314)
(5.0831915 -0.01242352 -0.055694839)
(5.0825448 -0.012340013 -0.053543281)
(5.0819236 -0.01228518 -0.051101889)
(5.0813769 -0.012279784 -0.048311253)
(5.0809701 -0.012358713 -0.045038801)
(5.080869 -0.012578299 -0.040926925)
(5.0807726 -0.01312258 -0.035335684)
(5.0806308 -0.014514431 -0.026312002)
(5.0783569 -0.014491526 -0.0134768)
(5.0740405 -0.010766311 -0.0010807)
(5.0639526 -0.006856032 0.008755102)
(5.0496876 7.0962703e-05 0.013471993)
(5.034662 -0.0048405694 0.017558976)
(5.05134 -0.0069267393 0.027178426)
(5.0511062 0.021923856 0.0076566698)
(5.0288973 0.021313644 0.0067243681)
(5.0332304 0.017729346 0.01248761)
(5.0438842 0.020647883 0.015208778)
(5.0519238 0.024926745 0.017193392)
(5.0569605 0.029391471 0.019719487)
(5.0602438 0.033996206 0.021141458)
(5.062196 0.038755442 0.021699707)
(5.0637818 0.042621157 0.021859133)
(5.0652273 0.045279153 0.021905904)
(5.0666601 0.046756311 0.021934496)
(5.0680365 0.047197998 0.021972848)
(5.0693395 0.046745499 0.022021959)
(5.0705842 0.045555276 0.02208104)
(5.0718225 0.043813917 0.022125226)
(5.073195 0.041787204 0.022088763)
(5.0747434 0.039790469 0.021836008)
(5.0762054 0.037881105 0.021086499)
(5.0752849 0.033606663 0.019283692)
(5.0766966 0.023953786 0.014867817)
(5.0632855 0.010830297 0.016218312)
(5.0617859 0.007141569 0.018496866)
(5.0404844 0.0075464778 0.016548786)
(5.0390315 0.012647071 0.028087029)
(5.0261172 0.010024758 0.018183075)
(5.0736081 0.0017057558 0.00794285)
(5.0681949 -0.0074184497 -0.004782681)
(5.031369 -0.0069433432 -0.0066551966)
(4.9943836 -0.0057430141 -0.0063408938)
(4.9734055 -0.00047023548 -0.0014668101)
(4.9729993 0.0013630787 0.00024319381)
(4.9837059 0.0038063944 0.0020942946)
(5.0006206 0.0039120177 0.0022018435)
(5.0166542 0.0035504586 0.0018010698)
(5.0304814 0.0036304919 0.0009082442)
(5.0425842 0.0037873798 0.00028198862)
(5.053786 0.0040639031 -0.00021438263)
(5.0647368 0.0043019121 -0.00044590752)
(5.0758745 0.0045127676 -0.00054795177)
(5.0874039 0.004712823 -0.00058719257)
(5.0994295 0.0048987757 -0.00058526516)
(5.1119902 0.0050622488 -0.00055708779)
(5.1250695 0.005193887 -0.00051025004)
(5.1386092 0.0052858599 -0.00045000411)
(5.1525204 0.0053319328 -0.00037930753)
(5.16669 0.0053254466 -0.00029961478)
(5.1809867 0.0052614716 -0.00021059954)
(5.1952603 0.0051429422 -0.0001248016)
(5.2093393 0.0049758921 -5.4813031e-05)
(5.2230514 0.0047527752 1.2914101e-05)
(5.2362489 0.0044658137 9.9333168e-05)
(5.2487928 0.0041239844 0.00018855089)
(5.2605541 0.0037519749 0.00026865103)
(5.271419 0.0033618495 0.00032400214)
(5.2812831 0.0029498489 0.00036853025)
(5.2900473 0.0025120445 0.00040044113)
(5.2976212 0.0020519546 0.00042833067)
(5.3039408 0.0015765595 0.00045223328)
(5.3089602 0.0010855461 0.00047840026)
(5.312647 0.00058026173 0.0005097874)
(5.3149772 7.0536872e-05 0.00053781428)
(5.3159656 -0.00042353602 0.00056823814)
(5.3156394 -0.00090935026 0.00059154464)
(5.31402 -0.0013765782 0.00060957617)
(5.3111509 -0.0018226441 0.00062336548)
(5.307085 -0.0022443839 0.00063280387)
(5.3018827 -0.0026391559 0.00063764467)
(5.2956118 -0.0030048875 0.00063851981)
(5.2883472 -0.0033391469 0.00063538954)
(5.2801696 -0.0036406133 0.00062857096)
(5.2711632 -0.0039083985 0.00061815355)
(5.2614166 -0.004139544 0.00060319763)
(5.2510221 -0.0043343631 0.0005846046)
(5.2400734 -0.004494764 0.00056486885)
(5.2286656 -0.0046211302 0.00054503345)
(5.2168936 -0.0047143326 0.00052509167)
(5.2048529 -0.0047736325 0.00050568538)
(5.2097711 -0.0037260807 0.035116006)
(5.209821 -0.0037636301 0.034285761)
(5.2098111 -0.003800909 0.033442663)
(5.2097471 -0.0038381263 0.032580737)
(5.2096347 -0.003875533 0.031693546)
(5.2094795 -0.0039132247 0.030774709)
(5.2092871 -0.0039511407 0.029818095)
(5.2090627 -0.0039891622 0.02881803)
(5.2088115 -0.004027162 0.027769433)
(5.2085388 -0.0040649826 0.026667914)
(5.2082495 -0.004102399 0.025509916)
(5.2079484 -0.004139145 0.024292659)
(5.2076403 -0.0041750051 0.023014225)
(5.2073299 -0.0042097216 0.021673602)
(5.2070217 -0.0042429841 0.020270591)
(5.20672 -0.0042744478 0.018805812)
(5.206429 -0.0043035006 0.017280499)
(5.2061526 -0.0043293298 0.015696394)
(5.2058945 -0.0043510728 0.01405573)
(5.2056584 -0.0043693476 0.012361823)
(5.2054478 -0.0043889542 0.010620927)
(5.2052669 -0.0044195776 0.008845847)
(5.2051193 -0.0044696311 0.0070596093)
(5.2050071 -0.0045383777 0.0052931842)
(5.2049297 -0.0046212006 0.0035762718)
(5.204882 -0.0047338146 0.0019285499)
(5.2169207 -0.0046683829 0.0019763582)
(5.2169642 -0.0045589174 0.0036474143)
(5.2170342 -0.0044765381 0.0053920943)
(5.2171353 -0.0044076732 0.0071878742)
(5.2172678 -0.0043564555 0.009003657)
(5.2174297 -0.0043240491 0.010806641)
(5.2176174 -0.0043021733 0.012572852)
(5.2178269 -0.0042812807 0.014288911)
(5.2180545 -0.0042565984 0.015948245)
(5.2182964 -0.004227589 0.017547255)
(5.218549 -0.0041951044 0.019083495)
(5.2188081 -0.0041600025 0.020555026)
(5.2190696 -0.0041228463 0.021960424)
(5.2193289 -0.0040840548 0.023298962)
(5.2195817 -0.0040439589 0.024570649)
(5.219823 -0.004002821 0.025776403)
(5.220048 -0.0039608645 0.026918012)
(5.2202518 -0.0039183701 0.027998141)
(5.2204292 -0.0038755849 0.029020229)
(5.2205751 -0.0038326702 0.029988519)
(5.2206839 -0.003789781 0.03090796)
(5.2207503 -0.0037470546 0.031784092)
(5.2207683 -0.0037045894 0.032622847)
(5.2207322 -0.0036622711 0.033430492)
(5.2206357 -0.0036199598 0.034213304)
(5.2204726 -0.0035773641 0.034977174)
(5.2307205 -0.0033913664 0.034716937)
(5.2310065 -0.0034392668 0.034026238)
(5.2312196 -0.0034869965 0.033310037)
(5.2313663 -0.0035346896 0.032562634)
(5.2314532 -0.0035825492 0.031777917)
(5.2314863 -0.0036306087 0.030949883)
(5.2314716 -0.0036787767 0.030072806)
(5.2314147 -0.0037268667 0.029141344)
(5.2313212 -0.0037747361 0.028150667)
(5.2311964 -0.0038222026 0.027096749)
(5.2310454 -0.00386896 0.025976268)
(5.2308733 -0.0039147521 0.02478667)
(5.2306849 -0.0039593345 0.023526318)
(5.230485 -0.0040024232 0.022194424)
(5.2302783 -0.0040436687 0.020791099)
(5.2300693 -0.0040826493 0.019317229)
(5.2298621 -0.0041187722 0.017774419)
(5.229661 -0.0041511681 0.016164812)
(5.2294697 -0.0041789719 0.01449104)
(5.229292 -0.0042027049 0.012756975)
(5.2291317 -0.0042270004 0.01096955)
(5.2289925 -0.0042612228 0.0091427275)
(5.2288782 -0.0043135193 0.0073014282)
(5.2287908 -0.0043823167 0.0054804541)
(5.2287299 -0.0044635316 0.0037131457)
(5.2286915 -0.0045698355 0.0020232417)
(5.2400977 -0.0044346257 0.0020641601)
(5.2401299 -0.0043351905 0.0037668025)
(5.2401798 -0.0042554785 0.0055545528)
(5.240251 -0.0041868748 0.0073972755)
(5.2403439 -0.0041336384 0.0092596231)
(5.2404562 -0.0040975642 0.011105458)
(5.2405844 -0.0040707115 0.012909228)
(5.2407248 -0.0040439546 0.014656428)
(5.2408735 -0.0040127978 0.016339727)
(5.2410269 -0.0039767886 0.017955051)
(5.2411811 -0.0039368425 0.019499486)
(5.241332 -0.0038937863 0.020970717)
(5.2414752 -0.0038482572 0.022366969)
(5.2416063 -0.003800685 0.023687201)
(5.2417207 -0.0037514197 0.024931166)
(5.2418136 -0.0037007288 0.026099538)
(5.2418801 -0.0036489159 0.027193867)
(5.2419152 -0.0035962535 0.028216484)
(5.2419137 -0.0035430451 0.029170606)
(5.2418704 -0.0034895112 0.030060082)
(5.2417797 -0.0034358307 0.030889545)
(5.2416358 -0.0033821843 0.031664084)
(5.2414328 -0.0033286813 0.03238921)
(5.2411643 -0.0032752997 0.033070701)
(5.240824 -0.0032219391 0.033714274)
(5.2404047 -0.0031684032 0.034325416)
(5.2494166 -0.0029094983 0.033792276)
(5.24998 -0.0029688091 0.03326659)
(5.250459 -0.0030280369 0.032701263)
(5.2508606 -0.0030872884 0.032091178)
(5.2511916 -0.0031466521 0.031430985)
(5.2514582 -0.0032060748 0.030715272)
(5.2516663 -0.0032654801 0.029938755)
(5.2518217 -0.0033246129 0.02909657)
(5.2519298 -0.0033833103 0.02818434)
(5.2519958 -0.0034413316 0.02719836)
(5.252025 -0.0034983768 0.026135641)
(5.2520221 -0.0035541059 0.024993901)
(5.2519921 -0.0036082864 0.023771789)
(5.2519396 -0.0036605523 0.022468755)
(5.2518691 -0.0037105649 0.021085145)
(5.2517852 -0.0037578615 0.019622137)
(5.251692 -0.0038018413 0.01808166)
(5.2515937 -0.003841587 0.016466245)
(5.2514942 -0.0038762494 0.014778982)
(5.2513972 -0.0039061855 0.013024245)
(5.2513064 -0.0039356854 0.011209683)
(5.2512253 -0.0039736321 0.0093502735)
(5.2511573 -0.0040276335 0.0074723874)
(5.2511046 -0.0040956577 0.0056135391)
(5.2510674 -0.0041727277 0.0038117507)
(5.251043 -0.0042652131 0.0021017985)
(5.2614319 -0.0040626846 0.0021345003)
(5.2614475 -0.0039767982 0.0038459555)
(5.2614701 -0.0039030598 0.0056550017)
(5.2615015 -0.0038359756 0.0075234836)
(5.2615409 -0.0037814183 0.0094105405)
(5.2615861 -0.0037416191 0.011277159)
(5.261634 -0.0037093358 0.013096185)
(5.2616813 -0.0036760739 0.014852169)
(5.2617244 -0.0036378104 0.016537053)
(5.2617597 -0.0035941574 0.018146273)
(5.2617833 -0.0035460503 0.019676535)
(5.2617912 -0.0034943752 0.021125113)
(5.2617791 -0.0034397704 0.022489955)
(5.2617427 -0.0033826762 0.023769739)
(5.2616775 -0.0033234649 0.024964035)
(5.261579 -0.0032625299 0.026073241)
(5.2614424 -0.0032001401 0.027098629)
(5.2612632 -0.0031366409 0.028042293)
(5.2610361 -0.0030723342 0.028907108)
(5.2607563 -0.0030074719 0.029696605)
(5.2604184 -0.0029422644 0.030414869)
(5.2600167 -0.002876926 0.031066532)
(5.2595456 -0.0028116157 0.031656595)
(5.2589987 -0.0027463902 0.032190075)
(5.2583695 -0.0026812093 0.032671906)
(5.2576509 -0.0026159661 0.033106875)
(5.2650069 -0.0022898342 0.032258407)
(5.2658918 -0.002360955 0.031918832)
(5.266683 -0.0024320946 0.031525179)
(5.2673873 -0.0025032915 0.031073127)
(5.2680111 -0.0025745622 0.030558197)
(5.2685605 -0.0026457779 0.029975713)
(5.269041 -0.0027168171 0.029320983)
(5.2694581 -0.0027874202 0.028589685)
(5.2698166 -0.0028573523 0.027778)
(5.2701216 -0.0029263418 0.026882549)
(5.2703776 -0.0029941283 0.025900601)
(5.2705892 -0.0030603241 0.024830209)
(5.2707609 -0.0031245961 0.023670186)
(5.270897 -0.0031865813 0.022420217)
(5.2710019 -0.0032458709 0.021080875)
(5.2710798 -0.0033019908 0.019653566)
(5.2711347 -0.0033542914 0.018140479)
(5.2711706 -0.0034019033 0.016544467)
(5.2711913 -0.0034439238 0.014869015)
(5.2712004 -0.0034806214 0.013118987)
(5.2712012 -0.0035157428 0.011302739)
(5.2711968 -0.0035573585 0.0094361628)
(5.2711899 -0.0036122942 0.0075471299)
(5.2711828 -0.0036781051 0.0056759406)
(5.2711765 -0.0037485778 0.0038655628)
(5.2711709 -0.003827624 0.0021570166)
(5.2801694 -0.0035614277 0.0021677134)
(5.2801635 -0.0034889018 0.0038685928)
(5.2801512 -0.0034214091 0.0056736302)
(5.280131 -0.0033571693 0.0075397063)
(5.2801013 -0.0033020703 0.0094226437)
(5.2800599 -0.003258701 0.01128101)
(5.2800044 -0.0032207039 0.013086322)
(5.2799322 -0.0031805274 0.014822371)
(5.27984 -0.0031347332 0.016480487)
(5.2797244 -0.0030831254 0.018055509)
(5.2795818 -0.0030265896 0.019543795)
(5.2794083 -0.0029660177 0.020942346)
(5.2792001 -0.00290206 0.022248874)
(5.2789532 -0.0028351997 0.023461892)
(5.2786634 -0.0027658722 0.024580735)
(5.2783268 -0.0026945013 0.025605642)
(5.277939 -0.0026214066 0.026537686)
(5.2774958 -0.0025469288 0.027378775)
(5.2769929 -0.0024714311 0.02813151)
(5.2764259 -0.0023951854 0.028799036)
(5.2757899 -0.0023184475 0.029384943)
(5.27508 -0.002241447 0.029893303)
(5.274291 -0.0021643872 0.030328443)
(5.2734172 -0.0020873753 0.030694606)
(5.2724524 -0.0020104491 0.030995886)
(5.2713903 -0.0019336075 0.031236119)
(5.2767148 -0.0015504465 0.030029653)
(5.2779646 -0.0016326644 0.02989196)
(5.279114 -0.0017150468 0.029686617)
(5.2801691 -0.001797551 0.029410289)
(5.2811354 -0.0018801155 0.02905932)
(5.2820182 -0.0019625966 0.028629859)
(5.2828222 -0.0020447889 0.028117927)
(5.283552 -0.0021264319 0.02751975)
(5.2842118 -0.0022072904 0.026831974)
(5.2848056 -0.0022870021 0.026051594)
(5.2853375 -0.0023652956 0.025176114)
(5.2858112 -0.0024417201 0.024203779)
(5.2862306 -0.0025159342 0.023133504)
(5.2865994 -0.0025875329 0.021965087)
(5.2869214 -0.0026560629 0.020699278)
(5.2872004 -0.0027210102 0.019337627)
(5.2874399 -0.0027817237 0.017882502)
(5.2876437 -0.0028373131 0.016337004)
(5.2878152 -0.0028868925 0.014704969)
(5.2879576 -0.0029305019 0.0129918)
(5.2880737 -0.0029713566 0.011206416)
(5.2881661 -0.0030163569 0.0093653289)
(5.2882366 -0.0030713856 0.0074975235)
(5.2882871 -0.0031337347 0.0056453085)
(5.2883203 -0.0031977774 0.0038537304)
(5.2883393 -0.0032633017 0.0021672555)
(5.2955957 -0.0029352483 0.002155695)
(5.2955623 -0.0028760284 0.0038198915)
(5.2955062 -0.0028160852 0.0055883153)
(5.2954221 -0.0027560035 0.0074168523)
(5.2953068 -0.0027013174 0.0092595171)
(5.2951584 -0.0026548013 0.011073296)
(5.2949754 -0.0026112079 0.012828895)
(5.294756 -0.0025641864 0.014509498)
(5.2944976 -0.0025109298 0.016105917)
(5.2941972 -0.0024514556 0.017612583)
(5.2938515 -0.0023867367 0.019025491)
(5.2934573 -0.0023175839 0.020341462)
(5.2930111 -0.0022446894 0.021558066)
(5.2925095 -0.0021685513 0.022673714)
(5.2919492 -0.0020896779 0.023687644)
(5.2913268 -0.0020084782 0.024600063)
(5.2906391 -0.0019253632 0.025411992)
(5.2898825 -0.0018407062 0.026125158)
(5.2890536 -0.0017548932 0.026741961)
(5.2881491 -0.0016682427 0.027265218)
(5.287165 -0.0015810278 0.027698137)
(5.2860976 -0.0014935242 0.028044218)
(5.2849426 -0.0014059393 0.028307047)
(5.2836954 -0.0013184321 0.028490114)
(5.282351 -0.0012311365 0.028596615)
(5.280904 -0.0011440946 0.028629405)
(5.2838933 -0.00071884473 0.027027021)
(5.2855455 -0.00080996317 0.027100568)
(5.2870937 -0.00090144799 0.027095065)
(5.2885426 -0.00099323287 0.027008089)
(5.2898964 -0.0010851611 0.026836881)
(5.2911591 -0.0011770545 0.026578356)
(5.2923341 -0.0012686761 0.02622926)
(5.2934247 -0.0013597562 0.025786347)
(5.2944338 -0.0014499907 0.025246577)
(5.2953644 -0.0015390425 0.024607206)
(5.2962193 -0.0016265556 0.023865952)
(5.2970013 -0.0017120852 0.023021114)
(5.2977132 -0.0017952397 0.022071655)
(5.2983578 -0.001875544 0.021017365)
(5.2989381 -0.0019525204 0.019858971)
(5.299457 -0.0020255922 0.018598069)
(5.2999175 -0.0020941164 0.017237076)
(5.3003227 -0.0021572013 0.015779256)
(5.3006755 -0.0022139639 0.014228728)
(5.3009787 -0.0022642696 0.012591211)
(5.3012343 -0.0023104821 0.010876125)
(5.3014438 -0.002358265 0.0091005268)
(5.301608 -0.0024123187 0.0072939508)
(5.3017286 -0.0024697606 0.0054998409)
(5.3018098 -0.0025248337 0.0037652562)
(5.3018586 -0.0025784801 0.0021319918)
(5.3070531 -0.0021936566 0.0020947924)
(5.3069883 -0.0021462737 0.0036869376)
(5.3068801 -0.0020964172 0.0053768803)
(5.3067199 -0.0020420241 0.0071251959)
(5.306503 -0.0019889664 0.0088840624)
(5.3062277 -0.0019401693 0.010609817)
(5.3058939 -0.0018914931 0.012272823)
(5.3055007 -0.0018381371 0.013855872)
(5.3050465 -0.0017781282 0.015349466)
(5.3045289 -0.0017117016 0.016747745)
(5.3039454 -0.0016397651 0.018046512)
(5.3032931 -0.0015631555 0.019242466)
(5.3025696 -0.0014825692 0.020333202)
(5.3017725 -0.0013985891 0.021317191)
(5.3008992 -0.0013117193 0.022193745)
(5.2999477 -0.0012224262 0.022963162)
(5.2989156 -0.001131153 0.023626512)
(5.297801 -0.0010383508 0.024185482)
(5.2966017 -0.00094440878 0.024642313)
(5.2953155 -0.00084967532 0.024999643)
(5.2939402 -0.00075443793 0.025260419)
(5.2924733 -0.00065901636 0.025427668)
(5.2909122 -0.00056363349 0.02550431)
(5.2892538 -0.00046851837 0.025493044)
(5.2874949 -0.00037380354 0.02539626)
(5.2856316 -0.00027964412 0.02521592)
(5.2860827 0.00016811389 0.023191851)
(5.2881605 7.2149932e-05 0.02347836)
(5.2901346 -2.4564533e-05 0.023677788)
(5.2920078 -0.00012187677 0.023788614)
(5.2937824 -0.00021958178 0.023808845)
(5.2954602 -0.00031747887 0.023736104)
(5.2970432 -0.00041527863 0.023567729)
(5.2985328 -0.00051270885 0.023300858)
(5.2999304 -0.00060944568 0.022932681)
(5.3012373 -0.00070513999 0.022460599)
(5.3024549 -0.00079937754 0.021882347)
(5.3035847 -0.00089173789 0.02119632)
(5.3046274 -0.0009815829 0.020401296)
(5.3055853 -0.0010685971 0.019496799)
(5.30646 -0.0011522063 0.018483474)
(5.3072533 -0.0012317821 0.017362762)
(5.3079673 -0.0013066514 0.01613702)
(5.3086041 -0.0013760026 0.014809516)
(5.309166 -0.0014389092 0.013384508)
(5.3096548 -0.0014950261 0.011867968)
(5.3100718 -0.0015458748 0.010269457)
(5.3104171 -0.0015954556 0.0086060745)
(5.3106902 -0.0016471314 0.0069072861)
(5.3108924 -0.0016983204 0.0052162172)
(5.3110293 -0.0017423601 0.0035814167)
(5.3111111 -0.0017821192 0.0020415943)
(5.313972 -0.001347062 0.0019736453)
(5.3138719 -0.0013151909 0.0034495903)
(5.3137051 -0.0012774406 0.0050166695)
(5.3134589 -0.0012300537 0.0066373207)
(5.3131268 -0.0011801751 0.0082627169)
(5.3127079 -0.0011301824 0.0098504593)
(5.3122034 -0.00107753 0.011371495)
(5.311614 -0.0010190579 0.012808963)
(5.3109391 -0.00095369955 0.014153237)
(5.3101772 -0.00088194305 0.015398295)
(5.3093267 -0.00080470577 0.016539864)
(5.3083859 -0.00072278195 0.017574743)
(5.3073535 -0.000636902 0.018500737)
(5.3062284 -0.00054775087 0.019316572)
(5.3050108 -0.00045616244 0.020021211)
(5.3036949 -0.00036129518 0.020615776)
(5.3022852 -0.00026498782 0.021102006)
(5.3007799 -0.00016745932 0.021480996)
(5.2991784 -6.902302e-05 0.021755163)
(5.2974802 2.9919889e-05 0.021927126)
(5.2956849 0.00012907428 0.021999589)
(5.2937921 0.00022813514 0.021975262)
(5.2918009 0.00032684427 0.02185661)
(5.2897106 0.00042495189 0.021645739)
(5.2875198 0.00052226246 0.021344293)
(5.2852272 0.00061856209 0.020953425)
(5.2830635 0.0010654398 0.018502726)
(5.2855676 0.00097048149 0.018994971)
(5.2879726 0.00087422748 0.019396694)
(5.2902789 0.00077689714 0.019707113)
(5.2924864 0.00067874089 0.019924852)
(5.2945949 0.00057999172 0.020048007)
(5.296604 0.00048092387 0.020074285)
(5.298513 0.00038181004 0.020001108)
(5.3003213 0.0002830093 0.019825809)
(5.3020284 0.00018484995 0.019545587)
(5.3036335 8.7321649e-05 0.019156795)
(5.3051363 -2.7124861e-06 0.018662901)
(5.3065365 -0.00010126209 0.018058626)
(5.307834 -0.00019126246 0.017339334)
(5.3090289 -0.00027852263 0.016510601)
(5.3101219 -0.00036195991 0.015572305)
(5.3111134 -0.00044082351 0.01452627)
(5.3120049 -0.00051438129 0.013375615)
(5.3127971 -0.00058165546 0.012124589)
(5.313491 -0.00064204632 0.010779201)
(5.3140864 -0.00069606334 0.0093490687)
(5.3145819 -0.00074603992 0.0078507781)
(5.3149752 -0.00079355106 0.0063129053)
(5.3152666 -0.00083630176 0.0047772191)
(5.315464 -0.00086769899 0.0032915294)
(5.3155829 -0.0008911043 0.0018911656)
(5.3158989 -0.00041587235 0.0017910305)
(5.3157595 -0.00040182783 0.0031041643)
(5.3155343 -0.00037766346 0.0044965223)
(5.3151988 -0.00034092543 0.0059327753)
(5.3147426 -0.00029642208 0.0073682671)
(5.3141684 -0.00024698341 0.0087627293)
(5.3134795 -0.00019207373 0.010088094)
(5.3126785 -0.00013035857 0.011328061)
(5.3117662 -6.1802793e-05 0.012472967)
(5.3107425 1.2415088e-05 0.013517185)
(5.3096069 9.2451215e-05 0.014456319)
(5.3083591 0.00017648771 0.015287205)
(5.3069991 0.00026420995 0.016008397)
(5.305527 0.00035483941 0.016618952)
(5.3039424 0.00044754885 0.017118268)
(5.3022513 0.00054308598 0.017507848)
(5.3004499 0.00063963135 0.017789821)
(5.298541 0.00073690256 0.017965609)
(5.2965264 0.00083460782 0.018037798)
(5.2944078 0.00093230072 0.018009056)
(5.2921872 0.0010296947 0.017882021)
(5.2898662 0.001126472 0.017659207)
(5.2874464 0.0012223676 0.017342749)
(5.2849294 0.0013171342 0.016934376)
(5.2823165 0.0014105226 0.016435237)
(5.2796088 0.0015022968 0.01584586)
(5.2748994 0.0019225962 0.012993398)
(5.2777985 0.0018359658 0.013674367)
(5.2806083 0.001747369 0.014266798)
(5.2833263 0.0016570583 0.014770362)
(5.2859497 0.0015652741 0.015184062)
(5.2884758 0.0014722766 0.015506341)
(5.2909017 0.0013783465 0.015735133)
(5.2932244 0.0012837093 0.015867993)
(5.2954409 0.0011887864 0.015902274)
(5.2975484 0.0010939174 0.01583525)
(5.2995439 0.00099955312 0.015664286)
(5.3014248 0.00090613595 0.015387174)
(5.3031894 0.00081436502 0.015001976)
(5.304835 0.00072466572 0.014507387)
(5.30636 0.00063767593 0.013903166)
(5.3077631 0.00055406449 0.013189897)
(5.3090435 0.00047454284 0.012369138)
(5.3102004 0.00039979715 0.011443644)
(5.3112339 0.00033077823 0.01041743)
(5.3121433 0.00026837119 0.0092963316)
(5.3129269 0.00021314057 0.0080897685)
(5.3135813 0.00016483237 0.0068138908)
(5.3141024 0.00012440973 0.005498156)
(5.3144894 8.6636649e-05 0.0041798174)
(5.314751 5.5490025e-05 0.0028910238)
(5.3149062 5.8933877e-05 0.0016713182)
(5.3125749 0.00056549202 0.0015479212)
(5.3124057 0.00055958308 0.0026450107)
(5.3121081 0.00057057908 0.0038046546)
(5.3116692 0.00059554576 0.0049979047)
(5.3110829 0.00063306357 0.0061854477)
(5.3103482 0.00067986876 0.007329226)
(5.3094698 0.00073481902 0.0084032744)
(5.3084524 0.00079716091 0.0093922874)
(5.3072984 0.00086579269 0.010287202)
(5.3060093 0.00093969269 0.011082365)
(5.3045859 0.0010180009 0.011773997)
(5.3030299 0.0010999882 0.012359629)
(5.3013429 0.0011849663 0.012837978)
(5.2995273 0.0012722636 0.013208794)
(5.2975858 0.001361258 0.013472758)
(5.2955219 0.0014513806 0.013631401)
(5.2933387 0.0015420682 0.013686862)
(5.2910402 0.0016328298 0.013641651)
(5.2886302 0.0017232764 0.013498585)
(5.286113 0.0018129897 0.013260485)
(5.2834926 0.0019016369 0.012930024)
(5.2807734 0.0019889388 0.012509657)
(5.2779595 0.0020746529 0.01200136)
(5.275055 0.0021585499 0.01140663)
(5.272064 0.002240359 0.010726302)
(5.2689904 0.002319848 0.0099605842)
(5.2619558 0.0026879765 0.0067674156)
(5.2651822 0.0026175671 0.0076097743)
(5.2683338 0.0025445086 0.0083713371)
(5.2714055 0.0024689748 0.0090519625)
(5.274392 0.0023912644 0.0096509289)
(5.2772876 0.0023115696 0.010166771)
(5.2800871 0.0022301186 0.010597536)
(5.2827847 0.0021471447 0.010940796)
(5.2853752 0.0020630126 0.011193802)
(5.2878532 0.001978093 0.011353592)
(5.2902135 0.0018927797 0.011417187)
(5.2924511 0.0018075361 0.011381806)
(5.2945614 0.001722922 0.011245028)
(5.2965399 0.0016395147 0.01100499)
(5.2983828 0.0015579426 0.010660642)
(5.3000867 0.001478885 0.010211832)
(5.3016487 0.0014030007 0.0096594779)
(5.3030664 0.0013310148 0.0090057152)
(5.304338 0.001263725 0.0082540301)
(5.3054613 0.0012023013 0.0074098179)
(5.3064327 0.0011483728 0.0064817558)
(5.3072466 0.0011038092 0.0054844692)
(5.3078966 0.0010703985 0.0044424574)
(5.3083803 0.0010509339 0.0033925082)
(5.3087049 0.0010473711 0.0023736344)
(5.3088898 0.0010639205 0.0014100399)
(5.3038768 0.0015710168 0.0012699651)
(5.3036824 0.0015384021 0.0020780842)
(5.3033292 0.0015316137 0.0029394175)
(5.3027994 0.0015435524 0.0038302437)
(5.3020871 0.0015718565 0.0047120202)
(5.3011964 0.0016134221 0.0055492679)
(5.3001353 0.0016654693 0.0063186611)
(5.2989105 0.0017250467 0.007006197)
(5.2975265 0.0017899218 0.0076035829)
(5.2959864 0.0018588364 0.0081057658)
(5.2942931 0.0019309947 0.0085096232)
(5.2924498 0.0020057532 0.0088134358)
(5.2904605 0.0020824388 0.0090167287)
(5.2883297 0.0021604012 0.0091200815)
(5.2860626 0.002238997 0.0091249374)
(5.2836647 0.0023176925 0.0090335299)
(5.2811419 0.0023959039 0.0088485921)
(5.2785004 0.002473206 0.0085731646)
(5.2757467 0.0025492223 0.0082104108)
(5.2728873 0.0026235949 0.007763374)
(5.2699288 0.0026960228 0.0072349466)
(5.2668781 0.0027662508 0.0066275657)
(5.2637418 0.0028341397 0.0059431926)
(5.2605268 0.0028994241 0.0051832088)
(5.2572395 0.0029619162 0.0043482867)
(5.2538867 0.0030214091 0.0034385775)
(5.2448895 0.0033152357 2.8738775e-06)
(5.2483386 0.0032682516 0.00096970788)
(5.2517322 0.0032179901 0.0018690043)
(5.2550625 0.0031646087 0.0027006251)
(5.2583215 0.0031082952 0.0034639257)
(5.2615015 0.0030492393 0.0041576027)
(5.2645944 0.0029876024 0.00477968)
(5.2675925 0.0029235864 0.0053276644)
(5.2704877 0.002857447 0.0057986293)
(5.2732724 0.0027895031 0.0061893306)
(5.2759389 0.0027200759 0.0064964806)
(5.2784798 0.0026496269 0.0067167898)
(5.2808879 0.002578633 0.0068471783)
(5.2831565 0.0025076718 0.0068850928)
(5.2852792 0.002437353 0.006828635)
(5.2872502 0.0023683486 0.0066767411)
(5.2890646 0.0023012369 0.0064294093)
(5.2907179 0.0022366645 0.0060878616)
(5.2922064 0.002175321 0.0056547455)
(5.293526 0.0021186362 0.005134672)
(5.2946715 0.0020693877 0.0045354908)
(5.2956349 0.0020316673 0.0038705907)
(5.2964069 0.0020094905 0.0031625901)
(5.2969811 0.0020068384 0.0024469766)
(5.2973609 0.0020270647 0.0017641591)
(5.2975565 0.0020715675 0.0011293082)
(5.2899775 0.0025458244 0.00098679877)
(5.2897824 0.002512477 0.0014380495)
(5.2893805 0.0024712578 0.0019174498)
(5.288765 0.0024624704 0.0024425367)
(5.2879373 0.0024774235 0.0029645017)
(5.286907 0.0025104008 0.0034462342)
(5.2856849 0.0025558796 0.0038651161)
(5.2842797 0.0026086119 0.0042082728)
(5.2826974 0.0026652111 0.0044684495)
(5.2809429 0.0027241782 0.0046416542)
(5.279021 0.0027848523 0.0047258298)
(5.2769371 0.0028466782 0.0047203275)
(5.2746976 0.0029090912 0.0046256933)
(5.2723094 0.0029714655 0.004443459)
(5.26978 0.0030332279 0.0041759661)
(5.2671175 0.0030938639 0.0038261728)
(5.2643302 0.0031528549 0.0033974335)
(5.2614266 0.0032098636 0.0028932528)
(5.2584155 0.0032645628 0.0023171367)
(5.2553061 0.0033166494 0.0016724083)
(5.2521071 0.0033659212 0.00096201951)
(5.2488276 0.0034122636 0.00018852238)
(5.2454766 0.0034555275 -0.00064611324)
(5.242063 0.0034955911 -0.00154063)
(5.2385958 0.0035322867 -0.0024943929)
(5.2350838 0.0035654813 -0.0035072352)
(5.2245992 0.0037693564 -0.0070566515)
(5.2281381 0.0037508328 -0.0060094397)
(5.2316436 0.0037286996 -0.0050118349)
(5.2351059 0.0037030381 -0.0040640133)
(5.2385151 0.0036739605 -0.0031666101)
(5.2418611 0.0036415698 -0.0023208734)
(5.2451343 0.0036058881 -0.0015287747)
(5.2483246 0.0035670286 -0.00079280198)
(5.251422 0.0035251837 -0.00011595024)