/*--------------------------------*- C++ -*----------------------------------*\
| =========                 |                                                 |
| \\      /  F ield         | OpenFOAM: The Open Source CFD Toolbox           |
|  \\    /   O peration     | Version:  v2012                                 |
|   \\  /    A nd           | Website:  www.openfoam.com                      |
|    \\/     M anipulation  |                                                 |
\*---------------------------------------------------------------------------*/
FoamFile
{
    version     2.0;
    format      ascii;
    class       volScalarField;
    location    "0";
    object      p;
}
// * * * * * * * * * * * * * * * * * * * * * * * * * * * * * * * * * * * * * //

dimensions      [0 2 -2 0 0 0 0];


internalField   nonuniform List<scalar> 
60182
(
0.24149015
0.29240691
0.3219079
0.3344887
0.29740071
0.26560348
0.20565898
0.17392144
0.13253868
0.11696261
0.11858747
0.13768412
0.18294168
0.21575092
0.27546851
0.30773619
0.34566242
0.33148361
0.30066467
0.22751044
0.16826857
0.076998328
0.052804668
0.040903809
0.064400517
0.095806257
0.12934843
0.16216986
0.19387941
0.22435786
0.25371733
0.28198271
0.30901679
0.33456124
0.3583516
0.38009837
0.39962428
0.41735628
0.43515042
0.45819754
0.48532359
0.5200951
0.57247301
0.66642429
0.74181107
0.83482626
0.88842487
0.90728165
0.86989957
0.83775384
0.7888636
0.77816213
0.7210826
0.6711172
0.64232696
0.63321479
0.64293152
0.64373583
0.68437395
0.70677764
0.74441595
0.73139005
0.69961212
0.59071038
0.52188917
0.45399849
0.42917454
0.40975165
0.39043631
0.37197051
0.35544581
0.33855809
0.31995235
0.29882611
0.27596584
0.25220082
0.22768826
0.20206293
0.17559016
0.14863252
0.12153396
0.094099607
0.067071755
0.042721578
0.025130707
0.03945153
0.068645067
0.15899802
0.21972263
0.29017481
0.26716492
0.18884248
0.1212406
0.030739397
-0.0049975466
-0.020509385
-0.0059758206
0.018146001
0.046208405
0.074906899
0.1032787
0.1313303
0.15890991
0.18581015
0.21184909
0.23715382
0.26149676
0.28413054
0.30427588
0.32218804
0.33882709
0.35702718
0.37829762
0.4040782
0.43605301
0.51516394
0.58070228
0.6824514
0.7103267
0.73837756
0.63031188
0.49804591
0.45997025
0.49646244
0.64010378
0.90555732
1.2445961
1.5764785
1.9843897
3.2131042
4.9330912
6.3386681
4.4583206
2.4285247
1.8732092
1.3348528
0.93514236
0.26457381
-0.14592529
-0.46441553
-0.64662894
-1.031474
-1.0753521
-0.95513376
-0.65125574
-0.72944596
-2.637491
-2.6330102
-2.3965592
-2.4988921
-2.4080039
-2.3031077
-2.3279254
-2.3725814
-2.3926654
-2.408925
-2.4425057
-2.4720122
-2.4668412
-2.4641432
-2.5033717
-2.5306434
-2.5089406
-2.5045627
-2.5264061
-2.5353375
-2.5098308
-2.4897608
-2.507383
-2.5100087
-2.4736025
-2.4488078
-2.4552612
-2.4471246
-2.4024877
-2.3701999
-2.3651878
-2.3449564
-2.2830554
-2.2057395
-2.1257849
-2.037545
-1.948111
-1.954301
-2.1480571
-2.3515251
-2.362761
-2.27248
-2.1143095
-2.3713077
-3.0199947
-4.4421069
-2.8484425
-1.4536757
-1.5366685
-1.6343321
-1.5909304
-1.1403966
-1.1573858
-1.2452549
-1.2902104
-1.297286
-1.2770505
-1.3025733
-1.4533314
-1.6056744
-1.5323676
-1.3371016
-1.3736197
-1.7731877
-2.9099485
-1.6994166
-0.59795821
-0.47117004
-0.38247213
0.072687254
-0.011521215
0.037402376
0.12312318
0.20646797
0.28549297
0.2325025
0.13566627
0.36348886
0.97175796
1.5630747
1.7390869
0.89961345
0.45917932
0.029005331
0.23885942
0.022472996
-0.1584505
-0.19484833
-0.16599752
-0.115187
-0.075207324
-0.05455236
-0.045173791
-0.041646042
-0.040733361
-0.041255135
-0.041963648
-0.041774825
-0.040911588
-0.039533596
-0.037796331
-0.035759961
-0.033463906
-0.030924784
-0.028138602
-0.025081882
-0.02171191
-0.017968954
-0.013772486
-0.0090184911
-0.0036262491
0.0024263353
0.0089507003
0.015131414
0.018648213
0.015051831
0.0015385782
-0.021052283
-0.049467074
-0.068764295
-0.044072489
0.028207069
0.0343783
0.024155351
0.027023217
0.005525141
0.0064332336
-0.012774638
-0.010244597
-0.011270373
-0.0072502389
-0.0043951548
-0.0024617221
-0.0014170587
-0.00078785096
-0.00039149867
-0.00014385592
-8.7304547e-06
3.7347238e-05
-2.6023271e-05
-0.00019689584
-0.00050766659
-0.001074726
-0.0020304986
-0.0039157099
-0.0068343641
-0.010744346
-0.0096350727
-0.012093871
0.0072246352
0.0063364024
0.02787658
0.025012445
0.03524997
0.028138442
0.032888099
0.01730457
0.025360025
0.011017887
0.01049474
0.010491528
0.011041573
0.025399793
0.017351483
0.032943985
0.028200746
0.035314813
0.02507847
0.027936364
0.0063854519
0.0072681861
-0.012048055
-0.0095818629
-0.010687796
-0.0067742163
-0.0038520867
-0.001963076
-0.0010053662
-0.00043593372
-0.00012382988
4.7969312e-05
0.000113278
6.7035632e-05
-6.4437121e-05
-0.00030946385
-0.00070546452
-0.0013352745
-0.0023817996
-0.0043157899
-0.0071736783
-0.011196128
-0.010171777
-0.012708491
0.0064981991
0.0055951053
0.027103163
0.024244206
0.034466162
0.027359368
0.032097683
0.016552341
0.02456797
0.010253563
0.0097034
0.0097080677
0.01022572
0.024518128
0.01648942
0.0320203
0.027273424
0.019495058
0.030517391
0.026756398
0.02980867
0.017768563
0.013333641
0.013329186
0.017790238
0.029853318
0.026816966
0.030591192
0.019578752
0.025417014
0.038681645
0.046719772
0.050200598
0.039216406
0.032319829
0.03233234
0.039198578
0.050160162
0.046663094
0.038612901
0.025339768
0.012714066
0.030682964
0.03749704
0.032399318
0.017447047
0.0084715338
0.0084654264
0.017466288
0.032439782
0.037550278
0.030748278
0.012784578
0.0058663979
0.01648112
0.021294381
0.0099610947
-0.0077332804
-0.01815935
-0.018163337
-0.0077563416
0.0099204495
0.021240535
0.01641865
0.0057988583
-0.0092973423
0.0019382316
0.007689315
-0.0077091705
-0.026868748
-0.03759973
-0.037588134
-0.026842024
-0.0076671237
0.0077431971
0.0019994419
-0.0092329407
-0.010998934
-0.0024575315
0.0031445987
-0.014186859
-0.03371905
-0.043319787
-0.043332883
-0.033747795
-0.014230196
0.0030910613
-0.0025195306
-0.011068818
-0.013763496
-0.00083921644
0.0057039523
-0.012126995
-0.031061362
-0.040694962
-0.040681254
-0.03103148
-0.012081345
0.005760226
-0.0007748261
-0.013690961
-0.010377434
0.0016737333
0.011218453
-0.0065005821
-0.025196006
-0.035263919
-0.035278338
-0.025226732
-0.0065459087
0.011161267
0.0016075181
-0.010452826
-0.0070902464
0.0048440083
0.014430664
-0.0024396857
-0.020783139
-0.030670237
-0.030655284
-0.020751583
-0.0023925948
0.014486695
0.004913453
-0.0070119166
-0.0042995654
0.0072574368
0.016796205
0.00017661147
-0.018004978
-0.02759676
-0.02761222
-0.018036864
0.00013027653
0.016738618
0.007189409
-0.0043740505
-0.0025572286
0.0085524273
0.018261366
0.0015718321
-0.016512748
-0.025880929
-0.025864566
-0.01648046
0.0016183841
0.01831962
0.0086213346
-0.002480039
-0.0013917582
0.0092898291
0.019148967
0.0023871983
-0.01570934
-0.025305472
-0.025326813
-0.01574209
0.0023410538
0.019091659
0.0092232554
-0.0014695073
-0.00081753044
0.0096806797
0.019595783
0.0028185478
-0.015316091
-0.025701768
-0.025680003
-0.015283382
0.0028645251
0.019652644
0.0097467905
-0.00074058852
-0.00037269663
0.010074722
0.020009428
0.0031847327
-0.014997879
-0.025757772
-0.02577959
-0.015030327
0.0031391239
0.019953015
0.010009788
-0.00044673742
-0.00026111638
0.010192028
0.020154356
0.0033148088
-0.014873192
-0.025728348
-0.025706595
-0.0148411
0.0033598284
0.020209814
0.010255522
-0.00019040262
-0.00014184054
0.01030818
0.020258781
0.0034035239
-0.014802512
-0.025608215
-0.025629703
-0.014834087
0.0033592706
0.02020409
0.010245325
-0.00021469799
-0.00033936184
0.010113624
0.020054871
0.0032291093
-0.014951145
-0.025567444
-0.025546193
-0.014920044
0.0032725866
0.020108517
0.010175472
-0.00026905488
-0.00056306895
0.0099423898
0.01984224
0.0030422716
-0.015116775
-0.025306681
-0.025329088
-0.015147499
0.0029994809
0.019789707
0.0098814778
-0.00063220958
-0.0011837826
0.0095521493
0.019394219
0.0026405483
-0.015459457
-0.024882194
-0.024865892
-0.015430048
0.0026821771
0.019445563
0.0096119489
-0.0011158949
-0.0021538398
0.008965851
0.018631313
0.001929497
-0.016185064
-0.025583578
-0.025597929
-0.016213097
0.0018893843
0.018581297
0.0089064039
-0.0022195686
-0.0039865222
0.0075839297
0.017083068
0.00047630106
-0.017709937
-0.027328368
-0.027314793
-0.017682979
0.0005151219
0.017131489
0.0076407273
-0.0039248497
-0.0066265268
0.0053390812
0.014991051
-0.001985527
-0.020375046
-0.030286668
-0.030299495
-0.020400723
-0.0020230021
0.01494184
0.0052826504
-0.006689873
-0.010048022
0.0020422803
0.01165755
-0.0060697535
-0.024785386
-0.03486727
-0.034855371
-0.024761328
-0.0060345218
0.011701934
0.002092288
-0.0099885816
-0.013192294
-0.0002210819
0.0062395709
-0.011642317
-0.030619581
-0.040270914
-0.040281919
-0.030642026
-0.011675813
0.0061970728
-0.00027013227
-0.013248019
-0.01046206
-0.0019170572
0.0036614714
-0.013686139
-0.033249322
-0.042876333
-0.04286544
-0.033227572
-0.013653739
0.0037014563
-0.0018709597
-0.01041098
-0.0086042432
0.0026408324
0.0083833451
-0.0070550928
-0.02624924
-0.037007546
-0.037021061
-0.026272143
-0.0070879308
0.0083427102
0.0025960266
-0.0086489494
0.0065632571
0.017155995
0.021965911
0.01061395
-0.0070905319
-0.017437995
-0.017426656
-0.0070662989
0.010648519
0.022007738
0.017201956
0.0066105138
0.013566983
0.031534393
0.038312325
0.03320233
0.018212162
0.0092042274
0.0092027656
0.018188483
0.033166504
0.038269864
0.031486095
0.013517813
0.026200389
0.039456862
0.047486064
0.050988052
0.040006908
0.033130271
0.033123368
0.040029483
0.051024821
0.047531119
0.03950845
0.026257494
0.020386994
0.031425216
0.027637205
0.030668907
0.018583163
0.014118873
0.014119862
0.018559881
0.030630481
0.027590829
0.031370425
0.020325018
0.039814014
0.01190155
-0.042031463
-0.047511539
-0.029219729
-0.0076039372
0.010905699
0.024887197
0.029688159
0.027969409
0.02305097
0.017398829
0.012027587
0.0072055257
0.0028858049
-0.0011177535
-0.0049178006
-0.0086143943
-0.012295084
-0.016035543
-0.019902
-0.023951051
-0.0282298
-0.032776083
-0.037618345
-0.042774573
-0.048252117
-0.054054377
-0.060203246
-0.066797318
-0.074218365
-0.083137539
-0.095350615
-0.11350104
-0.13999729
-0.17714575
-0.22715361
-0.29176083
-0.37162274
-0.46668333
-0.57588513
-0.69609382
-0.82299045
-0.95212277
-1.0794221
-1.2014371
-1.3150767
-1.4174552
-1.505566
-1.5760988
-1.6247992
-1.6464607
-1.636256
-1.5894421
-1.5023792
-1.3762071
-1.2192902
-1.0460748
-0.87410992
-0.71877477
-0.58857689
-0.48481238
-0.40368075
-0.33941806
-0.28656603
-0.24065657
-0.19906035
-0.16254038
-0.13366756
-0.1139793
-0.090278072
-0.046153508
0.018897006
0.15680643
0.13265662
0.072454518
0.0015824174
-0.067704424
-0.11306181
-0.12980322
-0.12497519
-0.1056269
-0.079588904
-0.051093553
-0.021863435
0.0074167418
0.036574717
0.065439313
0.093873247
0.12166588
0.1485013
0.17387653
0.19732324
0.21861578
0.23858608
0.2596473
0.28694907
0.32503196
0.37431882
0.44698802
0.51288204
0.5696118
0.59821548
0.48798262
0.46631319
0.51422879
0.64454931
0.87377197
1.1766735
1.7626791
3.4216488
3.5023377
3.4072765
3.7584368
4.7096405
6.6083703
6.9057171
5.3671434
5.4128576
6.1354789
6.3140029
5.8324024
5.3168394
5.4472431
5.7415932
6.3555913
7.4964303
7.9205317
6.2251761
5.9847406
4.7331135
4.3730013
5.5539215
6.8352387
4.5621619
3.2269211
1.8235434
1.2754516
1.5043809
0.37441677
-0.072844751
-0.64803945
-0.22306613
-1.0068463
-1.0533577
-0.89708112
-0.52740268
-0.57904731
-2.9666581
-1.6279848
-2.4394728
-2.4029913
-2.2836313
-2.2525119
-2.3348246
-2.3906029
-2.4049561
-2.4158963
-2.4474806
-2.47483
-2.4682777
-2.4661964
-2.5050508
-2.5324573
-2.5099241
-2.5032695
-2.52793
-2.5361787
-2.5093305
-2.4897638
-2.5074952
-2.5099519
-2.4725514
-2.4466156
-2.4540471
-2.4446596
-2.3985544
-2.3655427
-2.3617455
-2.3392295
-2.271428
-2.204694
-2.1566788
-2.0983466
-2.0342982
-2.0392127
-2.1942504
-2.4376179
-2.3239644
-2.2643059
-1.9122718
-1.8218567
-1.7404472
-1.7094196
-1.7289601
-1.7629559
-1.8732469
-2.03238
-2.3048185
-2.0819223
-2.1334914
-1.9956992
-1.8656987
-1.7987145
-1.7586702
-1.7318504
-1.7538732
-1.8697259
-2.1250405
-2.3371043
-2.2968697
-2.296573
-2.3046122
-2.069592
-2.1833517
-2.1504631
-2.0836369
-1.9500473
-2.0452158
-2.2696325
-2.2961811
-2.2270122
-2.4634389
-3.1213427
-4.7306576
-3.3706641
-3.0296551
-3.0709142
-2.9859852
-2.8773027
-2.9104176
-2.8200486
-2.8754843
-2.853061
-2.8893557
-2.8837523
-2.9006318
-2.9300748
-2.9393616
-2.8885546
-2.8670506
-2.9026847
-2.9621646
-3.0176518
-3.0530267
-3.0686938
-3.0876285
-3.09024
-3.1133333
-3.07329
-3.1011447
-2.9067808
-2.939658
-2.9251152
-2.053542
-2.1569307
-2.5949736
-3.1188214
-3.0523945
-3.17267
-3.1552929
-3.2204336
-3.2301384
-3.2663095
-3.2897391
-3.3073146
-3.3296948
-3.3430104
-3.3682577
-3.3903882
-3.3559621
-3.2956278
-3.362679
-3.3886454
-3.4673438
-3.2861344
-3.3438569
-3.3144184
-2.3956697
-2.448406
-2.8840082
-3.4440528
-3.4586467
-3.5024843
-3.51954
-3.5395684
-3.6031371
-3.6186906
-3.6798588
-3.4539385
-3.4716607
-3.516416
-2.7068552
-3.0524177
-3.5540142
-4.0073163
-4.0755118
-4.0212752
-4.12703
-3.8960397
-4.0246485
-4.0351353
-3.2505861
-4.2706628
-4.8415736
-4.0585673
-4.2956097
-4.4504318
-3.7873477
-3.3939282
-3.7573803
-4.4087516
-3.992272
-2.903529
-2.7438676
-2.724357
-2.4887077
-3.0922472
-3.8508301
-3.8177172
-3.67217
-3.6985927
-3.7842808
-3.8382523
-3.7918659
-3.8228387
-3.8085045
-3.1729621
-3.0530057
-2.9614607
-2.6695909
-2.6265575
-1.203451
0.040494609
-0.10054194
4.9541266
6.8375378
7.5138125
5.6307464
4.6008504
3.7287922
4.0190657
5.4628663
7.3693671
5.7841456
3.4658885
2.2477668
1.5118711
0.93237379
0.45861241
0.20429433
0.082549406
0.0038345227
-0.040699931
-0.058581933
-0.061221229
-0.059213882
-0.062882629
-0.081993008
-0.10753621
-0.11219203
-0.099220356
-0.070767081
-0.041479998
-0.011808993
0.017922536
0.047349813
0.0761397
0.10401379
0.13082642
0.15661652
0.18277703
0.21069381
0.24601111
0.2959151
0.35392623
0.40211213
0.44467258
0.46802227
0.47146196
0.54373144
0.65938486
0.84462636
1.1427764
1.6527547
2.7148355
2.9309494
4.1688321
3.7370509
5.0899585
5.3432606
5.2415934
6.2831503
5.0870278
5.5408371
6.0723257
5.0049108
5.7910908
4.4228168
5.2381655
4.07903
2.905442
2.2343828
3.6540814
3.4792413
2.1256576
3.0326908
2.9520771
5.4340414
2.9674474
3.2886078
2.4600075
2.7608206
3.5902661
4.3745739
4.9920078
4.8491768
5.707642
4.2113192
1.8729145
2.8820652
2.6522286
2.4514248
3.1670627
1.7790846
1.2663823
0.92461218
0.26161791
-0.35239584
-0.73632569
-1.0213569
-0.95883785
-0.99562901
-0.92996278
-0.95264833
-0.78641715
-1.1227478
-2.5667838
-2.8315427
-2.5163902
-2.5572442
-2.1783821
-2.2128051
-2.2700794
-2.3627698
-2.3982497
-2.4149536
-2.4269668
-2.4536332
-2.4776747
-2.4726826
-2.4724612
-2.5070408
-2.5319559
-2.5121611
-2.5070258
-2.5293452
-2.5335683
-2.511311
-2.4950746
-2.5057027
-2.5050411
-2.4720862
-2.4471556
-2.4491564
-2.4365982
-2.3955235
-2.3632151
-2.3540758
-2.3286905
-2.2691141
-2.2203485
-2.2067391
-2.1897201
-2.1500318
-2.1105705
-2.0517466
-2.0243805
-2.1882386
-2.2616713
-2.258678
-2.247179
-2.2525803
-2.2801584
-2.3162877
-2.3453332
-2.3681377
-2.3938027
-2.4206447
-2.4416135
-2.454589
-2.4737477
-2.4938315
-2.5033694
-2.5079247
-2.5153746
-2.5243125
-2.5298187
-2.5207562
-2.5157947
-2.5226237
-2.5090849
-2.4880806
-2.4807903
-2.4756639
-2.4581264
-2.4401123
-2.4189885
-2.3909468
-2.3405489
-2.2975296
-2.322983
-2.3880018
-2.5157767
-2.6109218
-2.2483726
-1.2200598
-0.95889705
-1.1678448
-0.93466486
-0.90726869
-0.90143025
-0.6400053
-0.503882
0.1105194
0.57046535
0.42814626
1.8162881
1.8313393
0.49872734
0.29661416
-0.045473033
-0.43458747
-0.67169892
-0.9163532
-1.0956037
-0.98556677
-1.0353589
-0.95377129
-0.81041947
-1.1200422
-2.3667865
-2.3403284
-2.4087599
-3.0011427
-2.383974
-2.2855296
-2.3516124
-2.3805989
-2.4187063
-2.4506133
-2.4643728
-2.4771359
-2.4890478
-2.5034575
-2.5133955
-2.5166213
-2.5210437
-2.5320004
-2.5309589
-2.5210637
-2.520318
-2.5164832
-2.5022385
-2.4883763
-2.4766569
-2.4612989
-2.4373026
-2.4112451
-2.3923563
-2.3688344
-2.3417749
-2.3162719
-2.2966738
-2.280327
-2.2810619
-2.3086511
-2.3376722
-2.2410414
-1.9979454
-1.9957643
-2.2740193
-2.3805732
-2.342459
-2.3031799
-2.293151
-2.3086555
-2.3242679
-2.343872
-2.3681004
-2.3934718
-2.4130595
-2.4381231
-2.464025
-2.4787689
-2.4896301
-2.5044641
-2.5199285
-2.5249408
-2.5257488
-2.5350668
-2.5363197
-2.5260578
-2.5216227
-2.5203604
-2.5135168
-2.4979448
-2.4852991
-2.4776072
-2.4655953
-2.4206508
-2.3465768
-2.2886997
-2.3578372
-2.6360797
-3.0063212
-3.0938275
-1.6468973
-0.44840316
-0.66438501
-0.78913466
-1.0815719
-1.1160976
-0.82880438
-0.61842195
-0.12616738
0.079392184
-0.98566739
0.19408257
1.9213506
1.4566293
1.7273137
3.7131355
4.6813392
4.8969766
4.7203342
5.0824083
5.1710807
5.0291583
4.9215795
4.7126646
4.5437613
4.2733999
4.4396588
3.7886693
3.1633712
2.9571014
3.8369365
2.2130916
3.1819352
3.1307995
2.9248708
3.5478313
5.1733834
4.8262133
3.3705586
0.95291337
1.4482877
1.2246552
0.91038095
0.6725493
0.54389366
0.50806141
0.53415063
0.62956727
0.70144032
0.68899977
0.64863607
0.66240563
0.64493384
0.65432605
0.67878405
0.71893583
0.77504179
0.77974912
0.83064317
0.85541006
0.89149167
0.75198206
0.59384915
0.53073514
0.48134968
0.43355642
0.36205386
0.25512595
0.11662213
-0.053034455
-0.24979391
-0.46956045
-0.70439742
-0.9435
-1.1756452
-1.3907183
-1.5796655
-1.735475
-1.8534422
-1.9312285
-1.9700591
-1.9705173
-1.9339834
-1.8654212
-1.7692391
-1.6496289
-1.5109647
-1.3578597
-1.1952397
-1.0282948
-0.86254
-0.70306496
-0.55410593
-0.41940205
-0.30190381
-0.20344435
-0.12452935
-0.064333116
-0.020956292
0.0081620257
0.025831442
0.03478528
0.037462771
0.035898355
0.031695705
0.026056176
0.019837387
0.013622289
0.0077864311
0.0025644521
-0.0019295962
-0.0056911161
-0.0086948594
-0.010914324
-0.01238411
-0.013136318
-0.013197665
-0.012585415
-0.011298847
-0.0093181678
-0.0066015943
-0.0030915678
0.0012545111
0.0064348898
0.01222755
0.017789355
0.020790038
0.016769183
0.0029054942
-0.019987466
-0.048657411
-0.068154416
-0.043632207
0.028474223
0.030122971
-0.011707008
-0.024324669
-0.017371031
-0.0067140115
0.0050820792
0.015559046
0.019322218
0.016913303
0.011631757
0.0058838361
0.00073701454
-0.00353756
-0.0069810182
-0.0096565052
-0.011617318
-0.0129057
-0.013539513
-0.013515279
-0.012815994
-0.011414463
-0.0092780325
-0.0063743057
-0.0027065394
0.0016960337
0.006811767
0.012554886
0.01871614
0.02494448
0.030691181
0.035139662
0.037130727
0.035095123
0.027013622
0.010425425
-0.017476344
-0.059631279
-0.11878422
-0.19702951
-0.29531718
-0.41313701
-0.54855029
-0.69850108
-0.85916539
-1.0262375
-1.1945341
-1.3584254
-1.5126713
-1.6523786
-1.7730333
-1.8703543
-1.9400791
-1.9780769
-1.9797402
-1.9424966
-1.8652683
-1.7473379
-1.5908226
-1.4002234
-1.1824741
-0.94673159
-0.7035729
-0.46488874
-0.24201566
-0.043024641
0.12675533
0.26381138
0.36551956
0.43560535
0.4925724
0.55178212
0.6200112
0.7500788
0.74959651
0.64648998
0.58119352
0.51407779
0.45060812
0.3814247
0.28393519
0.14921714
-0.021261658
-0.22433417
-0.4543078
-0.70176583
-0.95401929
-1.197721
-1.4213677
-1.6155016
-1.7733935
-1.8911636
-1.9665479
-2.0000446
-1.994418
-1.9533643
-1.8809188
-1.7811248
-1.6582874
-1.5163961
-1.359709
-1.1930421
-1.0217642
-0.85177954
-0.68849555
-0.5363649
-0.39936694
-0.28080484
-0.18290192
-0.10619144
-0.049415518
-0.010008524
0.015195777
0.029416522
0.035613915
0.036283728
0.033400014
0.02845099
0.02249983
0.016272142
0.01024099
0.0046976853
-0.00019713163
-0.0043776486
-0.0078233331
-0.010522619
-0.012483688
-0.013738634
-0.014322371
-0.01426287
-0.013579264
-0.012278347
-0.010347833
-0.0077523858
-0.0044485148
-0.00038913719
0.0044425016
0.009803379
0.014905008
0.018126053
0.017240717
0.014721328
0.01754363
0.027490263
0.036130248
0.042710132
0.056857769
0.042320749
0.067360769
0.081774031
0.064221373
0.041307835
0.028659809
0.023853209
0.019543088
0.013949903
0.0081601579
0.0028243584
-0.0018072605
-0.0056813961
-0.0088455171
-0.011362755
-0.013281029
-0.014623752
-0.015399296
-0.015599525
-0.015204685
-0.014185612
-0.012507929
-0.01013978
-0.007060185
-0.0032604302
0.0012549793
0.006451436
0.012231974
0.018398353
0.024599703
0.030266025
0.034506053
0.035981042
0.03283206
0.02254329
0.0019357277
-0.032654208
-0.085160662
-0.15907831
-0.25631807
-0.37625309
-0.51598593
-0.67176266
-0.83946646
-1.0144077
-1.1907316
-1.3620031
-1.5225764
-1.6677774
-1.7938771
-1.8975379
-1.974563
-2.0208245
-2.0326422
-2.0053056
-1.9336446
-1.8167193
-1.6571303
-1.4575128
-1.2241371
-0.96685529
-0.69870909
-0.43568855
-0.192862
0.018248647
0.1915619
0.32464954
0.41590235
0.47861667
0.54127639
0.61231905
0.67579135
0.73651555
0.72493187
0.67427848
0.63026896
0.5726299
0.5237997
0.47364538
0.38997904
0.259535
0.081708994
-0.14314013
-0.40675155
-0.69446973
-0.98751845
-1.2652252
-1.5123929
-1.7188935
-1.8794406
-1.9935877
-2.0590278
-2.077616
-2.0571967
-2.0030426
-1.9193946
-1.8108276
-1.6809231
-1.5316829
-1.3658397
-1.1878433
-1.0039025
-0.82140673
-0.64711104
-0.48608626
-0.34221618
-0.21988937
-0.12361994
-0.054370377
-0.0088741953
0.018118264
0.031795274
0.036418508
0.035377038
0.031099517
0.025200386
0.018749844
0.012379214
0.0064329379
0.0010929023
-0.0035606442
-0.0075063571
-0.010751691
-0.013315982
-0.015224547
-0.016506886
-0.017195231
-0.017321691
-0.016913691
-0.015989595
-0.014554678
-0.012597584
-0.010094057
-0.0069676742
-0.0030825905
0.0017412461
0.0077426824
0.015120444
0.02359591
0.031782716
0.039944998
0.055522947
0.080144524
0.093976121
0.077143185
0.055734813
0.02797909
0.057915024
0.088561696
0.084015175
0.062690315
0.046971286
0.037695206
0.027663898
0.017118379
0.0081605251
0.0012361347
-0.0040284392
-0.0080984555
-0.011320925
-0.01390887
-0.01597187
-0.017560998
-0.018696875
-0.019379485
-0.019594948
-0.01932057
-0.018528767
-0.017189728
-0.015272058
-0.012741539
-0.009558315
-0.0056739257
-0.0010335698
0.0044169356
0.010674142
0.017669745
0.025151531
0.032525384
0.038657598
0.041223929
0.036868832
0.02095213
-0.0134874
-0.074942279
-0.1698794
-0.29664655
-0.44641843
-0.61387789
-0.79687832
-0.99026366
-1.1851491
-1.372218
-1.5443896
-1.6974614
-1.8304053
-1.9438807
-2.0365079
-2.1017307
-2.1327039
-2.1244744
-2.0685001
-1.9609997
-1.8021451
-1.5891944
-1.3251193
-1.019406
-0.68997982
-0.36583098
-0.071076461
0.17459963
0.35833444
0.48196908
0.55153358
0.58266567
0.61063898
0.64835857
0.67573291
0.69651112
0.67448004
0.66948854
0.6639148
0.65039513
0.6492516
0.64493558
0.60163387
0.4941319
0.30394215
0.027920532
-0.31257005
-0.69013636
-1.0681079
-1.4082978
-1.6902323
-1.9064322
-2.058141
-2.1530719
-2.1953484
-2.1914136
-2.1500079
-2.0728043
-1.9672751
-1.8499924
-1.7173603
-1.5619801
-1.3828901
-1.1841386
-0.97389909
-0.7654325
-0.57189507
-0.39706241
-0.23837617
-0.10365639
-0.011035843
0.036399111
0.053584352
0.054586357
0.047809753
0.037399841
0.026146631
0.01597374
0.0073726568
0.00032950301
-0.005261506
-0.0097779702
-0.01341854
-0.016319421
-0.018586685
-0.020290198
-0.021475705
-0.022175762
-0.022416579
-0.022221212
-0.021610038
-0.020598901
-0.019195126
-0.017391235
-0.015155208
-0.012414243
-0.009025639
-0.0047308535
0.00091316988
0.0084545597
0.01826787
0.029823509
0.04075119
0.05010791
0.064882533
0.081884672
0.079304787
0.045361845
0.021443702
0.021401688
0.045271072
0.079233198
0.081801249
0.06475765
0.04994139
0.040530827
0.029551975
0.017940518
0.0080455177
0.00040688306
-0.005337338
-0.0097568638
-0.013306343
-0.016235116
-0.018691919
-0.020756771
-0.022468098
-0.023839858
-0.024871841
-0.025556041
-0.025880618
-0.025831935
-0.025394568
-0.024548534
-0.0232639
-0.021494166
-0.019151625
-0.016021065
-0.011699005
-0.0053395233
0.0039412976
0.01613568
0.030422685
0.046589808
0.06432555
0.081081016
0.088667848
0.067039604
-0.013495228
-0.15806554
-0.33559236
-0.52199473
-0.72808077
-0.95625461
-1.1873003
-1.3999556
-1.585977
-1.7404723
-1.871588
-1.9866341
-2.1049621
-2.1930249
-2.2466445
-2.2650055
-2.2408823
-2.1655428
-2.0288334
-1.8162568
-1.519737
-1.1411393
-0.69883527
-0.2480451
0.16331353
0.48538778
0.67567947
0.74588099
0.74430196
0.71496374
0.68661335
0.67660108
0.66631213
0.66024668
0.65667597
0.6677449
0.68146869
0.70585097
0.76465072
0.84133766
0.90913396
0.90988437
0.74058435
0.35216322
-0.17396676
-0.72176691
-1.2492654
-1.6633876
-1.9652073
-2.1624272
-2.2760424
-2.3252395
-2.328421
-2.2938065
-2.2221965
-2.116727
-1.9811049
-1.9179809
-1.7734868
-1.6155614
-1.4251585
-1.1982048
-0.94132648
-0.68724647
-0.45983462
-0.25014608
-0.045789713
0.098642001
0.1526233
0.13437778
0.096011209
0.061034879
0.034389834
0.014440469
-0.00033926842
-0.011078137
-0.018665372
-0.023727164
-0.026619453
-0.028133998
-0.029095226
-0.029727824
-0.030088476
-0.030154842
-0.029911434
-0.029360683
-0.028506781
-0.027355006
-0.025909861
-0.024172236
-0.022135802
-0.019781895
-0.017071529
-0.013933527
-0.010248662
-0.0058069382
-0.00023480168
0.0069468574
0.016127584
0.026887157
0.037085576
0.04648211
0.062308142
0.083730363
0.088344782
0.057742988
0.027878024
0.055583711
0.076896346
0.093635136
0.079680762
0.05491511
0.039178785
0.030799005
0.022338122
0.013559048
0.0058314925
-0.00059013985
-0.0059165537
-0.010395557
-0.014246262
-0.017621973
-0.02060562
-0.023254834
-0.025607592
-0.027686752
-0.029504187
-0.031063848
-0.03236477
-0.0334043
-0.034182237
-0.034707805
-0.035047971
-0.035282482
-0.035418517
-0.035111983
-0.033892356
-0.032190017
-0.029546273
-0.023828129
-0.012088752
0.0083786117
0.040875306
0.094012054
0.16520566
0.22830501
0.21526119
0.12865256
-0.12945009
-0.39061347
-0.6474665
-0.93053142
-1.218271
-1.4557149
-1.6460136
-1.8266715
-2.0873208
-1.849498
-2.0835243
-2.2362316
-2.3331348
-2.3849164
-2.4018797
-2.3813187
-2.2995823
-2.1359873
-1.8433731
-1.4013601
-0.75964541
-0.12551025
0.62229749
1.1129014
1.1943611
1.0782381
0.91728666
0.78593431
0.70121924
0.66689973
0.65667671
0.66652045
0.65219444
0.63915718
0.634019
0.66828007
0.77222329
0.95747968
1.2218912
1.5000086
1.669945
0.9750161
-0.19433095
-0.67949911
-0.57080344
-0.84262596
-1.2764503
-1.7868053
-1.9768838
-2.1384591
-2.2553119
-2.3282183
-2.3990765
-2.4219026
-2.4574695
-2.4516707
-2.4576871
-2.4364738
-2.4267937
-2.3947431
-2.3707042
-2.3248306
-2.2912625
-2.2314888
-2.1763908
-1.9493645
-1.570504
-0.85121503
-0.9711059
-2.0597323
-2.5316106
-2.6965804
-1.9314172
-1.6793213
-1.4691245
-1.2455372
-0.92481193
-0.62385867
-0.33767892
0.045734466
0.48632362
0.23463002
0.26384435
0.18553428
0.075991649
0.0025025378
-0.034312645
-0.050574649
-0.052836186
-0.048998611
-0.0447009
-0.041566329
-0.040181214
-0.039731785
-0.039308722
-0.038743556
-0.038081275
-0.037222317
-0.036100051
-0.034716036
-0.033079972
-0.031200272
-0.029079364
-0.026711308
-0.02407971
-0.021156383
-0.017900537
-0.014259698
-0.010159006
-0.0054997079
-0.00020843426
0.0056782889
0.011932686
0.017916591
0.022553016
0.027636186
0.040521061
0.063623499
0.081326742
0.06703866
0.042125217
0.056627815
0.042333789
0.035605534
0.026787517
0.01660953
0.013513385
0.015722103
0.01623278
0.012554486
0.0069061399
0.00090000421
-0.0047031404
-0.0096883917
-0.014085839
-0.017985853
-0.021479005
-0.024625419
-0.027473423
-0.030057555
-0.032397811
-0.034500029
-0.036356639
-0.037947307
-0.039243194
-0.040198969
-0.040792906
-0.041031095
-0.041026344
-0.042058261
-0.045674899
-0.053339144
-0.065931993
-0.083294575
-0.097709586
-0.092670592
-0.053770445
0.037878181
0.20016563
0.23802129
-0.22394464
0.81747704
0.30385329
0.56271147
0.75837323
1.1667823
0.81609145
1.370684
1.3031509
0.97371234
0.45005135
0.21871845
0.20154611
0.23720741
0.18075822
0.1232972
0.1021984
-0.0033050612
0.0054294523
-0.51321631
-0.54804932
-0.52285744
-0.34274264
-0.91619459
-1.4765072
-0.47591597
-1.125251
-1.2752487
-1.3209051
-1.4777096
-1.5204112
-1.4567057
-1.3582364
-1.3206873
-1.2961048
-1.2821447
-1.1908412
-1.1154338
-1.253033
-1.6803928
-1.6210508
-1.5636531
-1.605406
-1.2083615
-2.0314515
-2.8190139
-1.6526004
-2.3455005
-2.3046909
-2.1130555
-2.0739552
-2.2298702
-2.3065407
-2.2152584
-2.0430899
-1.995429
-2.0565216
-2.1357919
-2.1858577
-2.2678591
-2.3541293
-2.3676707
-2.3577781
-2.3993028
-2.4623194
-2.4588141
-2.4358919
-2.4687291
-2.5225452
-2.5109054
-2.4815558
-2.5041093
-2.5492617
-2.5277319
-2.4876854
-2.506074
-2.5434861
-2.5081739
-2.4555581
-2.464262
-2.4894464
-2.4507945
-2.4028935
-2.3946543
-2.3882226
-2.3490503
-2.3548766
-2.3540046
-2.3582967
-2.39288
-2.7226442
-1.2463607
-1.1848412
-0.76242889
0.074813649
1.2667351
2.4223459
3.2287424
2.7081983
1.8920913
1.6322739
1.2710183
0.93983165
0.72365718
0.61010014
0.57397259
0.58142167
0.64308315
0.62070653
0.64127912
0.65478364
0.64514788
0.64358621
0.65550381
0.6800109
0.71190113
0.72579785
0.72385394
0.71950672
0.71959843
0.68219942
0.60778209
0.52480061
0.43149748
0.36126765
0.31193385
0.28097094
0.25947409
0.24134962
0.22313607
0.20321199
0.18113799
0.15702754
0.13117
0.10383955
0.075259237
0.045557346
0.014790405
-0.016900555
-0.04888035
-0.079173383
-0.10315733
-0.1128674
-0.10124852
-0.059084857
0.0061775696
0.074549757
0.13198441
0.15794797
0.18221297
0.32500275
0.2983225
0.27087814
0.19317044
0.12783551
0.038546314
0.0067971274
-0.0051711021
0.014983685
0.045092916
0.078576988
0.11174967
0.14376593
0.17445004
0.20392408
0.23223875
0.2592856
0.2848039
0.30852621
0.33011313
0.34931021
0.36641583
0.38306945
0.40419116
0.43088802
0.46896877
0.52872721
0.63347124
0.71230435
0.80938515
0.8557681
0.80726774
0.83410015
0.77250929
0.68078762
0.59213254
0.5049036
0.4417063
0.40776494
0.37588652
0.34854887
0.33117472
0.31507955
0.29682116
0.2757999
0.25233128
0.2268727
0.19971328
0.1711519
0.14123178
0.10979803
0.076608452
0.042065157
0.0079724637
-0.023047296
-0.045913132
-0.040239274
-0.0086052387
0.076880798
0.160325
0.23888164
0.27777532
0.22675735
0.18275914
0.09066003
0.0014819442
-0.068235996
-0.1055148
-0.10841459
-0.084905903
-0.053223449
-0.020618679
0.013554817
0.04712516
0.079003345
0.10943864
0.13850209
0.16616389
0.19209648
0.21598311
0.2373297
0.25592346
0.27254941
0.29189112
0.316401
0.34259922
0.37532338
0.43251484
0.51389628
0.61062826
0.70649716
0.78382853
0.73124514
0.66657556
0.56654871