/*--------------------------------*- C++ -*----------------------------------*\
| =========                 |                                                 |
| \\      /  F ield         | OpenFOAM: The Open Source CFD Toolbox           |
|  \\    /   O peration     | Version:  v2012                                 |
|   \\  /    A nd           | Website:  www.openfoam.com                      |
|    \\/     M anipulation  |                                                 |
\*---------------------------------------------------------------------------*/
FoamFile
{
    version     2.0;
    format      ascii;
    class       volVectorField;
    location    "0";
    object      U;
}
// * * * * * * * * * * * * * * * * * * * * * * * * * * * * * * * * * * * * * //

dimensions      [0 1 -1 0 0 0 0];


internalField   nonuniform List<vector> 
60182
(
(4.9955936 -0.02237564 -0.045971923)
(4.9892175 -0.0098882311 -0.051381242)
(4.9856825 0.017935412 -0.0081772703)
(4.9780875 0.027020116 -0.0028977834)
(4.9865925 0.065559894 0.0034670414)
(4.9733805 0.10226358 0.0064394826)
(4.9919564 0.095386791 0.036558179)
(4.9828436 0.062457452 0.019296389)
(4.9943229 0.042562977 0.022632316)
(4.9931524 0.013769375 0.014214012)
(4.9932118 -0.0023914509 0.014238132)
(4.9945319 -0.031892253 0.022850437)
(4.9831326 -0.052745705 0.019284519)
(4.9922732 -0.086610095 0.036656564)
(4.9740177 -0.095893361 0.0074905154)
(4.9869934 -0.062190248 0.0041799316)
(4.9785113 -0.025916671 -0.0022278394)
(4.9861103 -0.016931071 -0.0062557591)
(4.9736702 -0.0084756586 0.014143084)
(4.9904356 -0.029636394 0.012786744)
(4.9813617 -0.012937844 -0.0036724861)
(4.9961276 -0.017391757 -0.011905252)
(4.9924906 -0.0084737303 -0.030473564)
(4.9939561 -0.010239131 -0.035609895)
(4.9908552 -0.010297414 -0.040783159)
(4.9892087 -0.012066253 -0.041434467)
(4.9879765 -0.013358776 -0.04195555)
(4.9874736 -0.014209397 -0.042786036)
(4.9872472 -0.014583562 -0.04416659)
(4.9871716 -0.014694982 -0.045746925)
(4.987157 -0.014646383 -0.047280772)
(4.9871763 -0.014501671 -0.048571364)
(4.9872236 -0.014298341 -0.049506082)
(4.9873061 -0.014006151 -0.049983624)
(4.9874187 -0.013630938 -0.049874329)
(4.9875902 -0.013106471 -0.049003773)
(4.9879135 -0.012331223 -0.047152409)
(4.9885219 -0.011097394 -0.04401974)
(4.9898882 -0.0093349502 -0.039798125)
(4.9914715 -0.0064446284 -0.033700197)
(4.993331 -0.0048333058 -0.02657557)
(4.9941004 -0.003601611 -0.019464426)
(4.9981118 -0.013279618 -0.031224108)
(4.9839869 -0.008230072 -0.034454374)
(4.9913216 -0.026648869 -0.045895497)
(4.9740742 -0.0048224265 -0.040952616)
(4.9842474 -0.014081281 -0.011385445)
(4.9768508 -0.021932615 -0.0039245647)
(4.9850098 -0.050882838 -0.0098796885)
(4.9741751 -0.074349492 -0.014029144)
(4.9887725 -0.057278838 -0.041339457)
(4.9775435 -0.021644139 -0.026527125)
(4.9896617 0.0013103325 -0.029320156)
(4.9877914 0.033082736 -0.021368971)
(4.9869757 0.049799701 -0.020859427)
(4.9865706 0.075205851 -0.029363962)
(4.9735667 0.08806492 -0.026384761)
(4.9852912 0.11306117 -0.041172877)
(4.9670758 0.11247446 -0.010090716)
(4.9821792 0.070080605 -0.0067179981)
(4.9735419 0.028310423 -0.0010977205)
(4.9808371 0.0192001 -0.0043579353)
(4.967184 0.010259159 -0.034836422)
(4.9848647 0.032802369 -0.043531219)
(4.9769681 0.014974111 -0.034588336)
(4.9897916 0.020910847 -0.034631106)
(4.9836778 0.010861766 -0.030457324)
(4.9844556 0.013746924 -0.044222959)
(4.9833387 0.015194191 -0.052678476)
(4.9823839 0.017596713 -0.058970933)
(4.9816497 0.018800043 -0.062946193)
(4.9816585 0.019464497 -0.065516648)
(4.9818742 0.019708289 -0.066587235)
(4.9821794 0.019738583 -0.066561445)
(4.9824934 0.019652272 -0.065728033)
(4.9828027 0.019505931 -0.064310153)
(4.9831324 0.019300336 -0.062440656)
(4.9834569 0.019059562 -0.06022053)
(4.9837871 0.018753344 -0.057779228)
(4.9841603 0.018318821 -0.055298342)
(4.9846726 0.017623646 -0.053022311)
(4.9854507 0.016483329 -0.051289328)
(4.9869631 0.014960761 -0.04974635)
(4.9888563 0.012834767 -0.048079292)
(4.9922158 0.012447146 -0.042051268)
(4.9910267 0.010435256 -0.036038757)
(4.9947047 0.019110132 -0.016773027)
(4.9802249 0.014521174 -0.0078833393)
(4.9894797 0.030868992 0.0092540535)
(4.9728116 0.0097522195 0.011238339)
(4.9758899 -0.025383714 -0.065021309)
(4.9999936 -0.022224665 -0.066005139)
(4.9941111 -0.02924088 -0.068186358)
(5.0176093 -0.031810197 -0.066589404)
(5.0144863 -0.034461272 -0.056681993)
(5.0157113 -0.034006912 -0.0487316)
(5.0102935 -0.032852229 -0.043455522)
(5.0061598 -0.031086333 -0.043726904)
(5.0027824 -0.030120868 -0.046815745)
(5.0006657 -0.029561905 -0.050741982)
(4.9991576 -0.029221103 -0.054474363)
(4.9979929 -0.028998919 -0.057753416)
(4.9969669 -0.028807708 -0.060540549)
(4.995992 -0.028647377 -0.062879106)
(4.9950289 -0.02850756 -0.064785213)
(4.9940821 -0.028319691 -0.066294773)
(4.9931536 -0.028155851 -0.067447245)
(4.9923183 -0.028082143 -0.068230633)
(4.9917649 -0.02818385 -0.068529273)
(4.9917675 -0.028656401 -0.06793359)
(4.9929634 -0.029459817 -0.065282333)
(4.9946675 -0.031327964 -0.058332908)
(4.9961052 -0.032721629 -0.045514443)
(4.9930736 -0.032683596 -0.02753249)
(4.9985385 -0.028696189 -0.0030739033)
(4.9764496 -0.028267785 0.020289147)
(4.9814193 -0.016719975 0.036140976)
(4.956733 -0.022472886 0.046086176)
(4.974459 -0.007963026 0.042144601)
(4.9652148 -0.0014775188 0.017736213)
(4.9943697 0.0058700252 0.018567822)
(5.0086092 0.0069057498 0.0096608518)
(5.0034951 0.0086775015 0.0016320021)
(4.9703498 0.014642904 -0.0071752907)
(4.9019114 0.025473104 -0.015350975)
(4.79438 0.035289852 -0.025569314)
(4.6889323 0.017957706 -0.025757781)
(4.6313668 0.049429355 0.080666789)
(4.6858848 0.031293936 0.0052988391)
(4.35241 0.080214194 -0.092164885)
(3.6896096 0.25943779 0.095569604)
(2.3856066 1.9885482 -0.44884697)
(3.0567508 2.9950378 -0.2310907)
(3.8390012 2.5019293 -0.14211973)
(4.2265219 2.2245072 -0.073152279)
(4.453981 1.915483 -0.014476772)
(4.796655 1.7755491 0.0068999576)
(5.046956 1.6298849 0.0529049)
(5.2031234 1.4447702 -0.065480692)
(5.2869106 1.3359189 -0.033389687)
(5.3819514 1.292716 0.023687964)
(5.4575422 1.2629933 0.081930278)
(5.5422653 1.1187597 0.042708038)
(5.5528383 1.0667673 0.046038107)
(5.5292936 0.92569138 0.0074099927)
(5.5878712 0.69482421 -0.075168908)
(5.7845654 0.68884927 -0.052269842)
(5.7768695 0.75836285 -0.0063166017)
(5.8935644 0.62137692 0.030470282)
(5.9575886 0.639124 0.011458008)
(5.919889 0.59226357 0.002294378)
(5.8840084 0.51033112 0.012581358)
(5.8674508 0.47867454 0.023368724)
(5.8560475 0.42218251 0.025899515)
(5.8455068 0.38576662 0.027838041)
(5.8379549 0.31812082 0.025101343)
(5.8310926 0.29205078 0.024044217)
(5.8286786 0.23982359 0.019298586)
(5.8212243 0.20601698 0.01997693)
(5.8161231 0.15461622 0.01541944)
(5.8170357 0.14032638 0.01571551)
(5.8128045 0.082311638 0.012156499)
(5.8057512 0.076832295 0.011605646)
(5.804266 0.01762614 0.0099010745)
(5.797218 0.017571169 0.010183837)
(5.7919226 -0.033096857 0.0075897307)
(5.7819361 -0.035332831 0.0093973308)
(5.7737205 -0.08320425 0.004403923)
(5.7699875 -0.092258129 0.0062722179)
(5.7620568 -0.12720848 0.00024934778)
(5.7517479 -0.13958498 0.0012993752)
(5.7423598 -0.17127799 -0.0018611212)
(5.7347066 -0.18305701 -0.001570031)
(5.7235195 -0.20975385 -0.0040779659)
(5.7105725 -0.21743966 -0.0036521413)
(5.6964325 -0.24855687 -0.0063767087)
(5.6857878 -0.25207973 -0.0060779015)
(5.6689586 -0.28258164 -0.0094432274)
(5.6489156 -0.27897447 -0.011435534)
(5.6149933 -0.31454168 -0.020489622)
(5.5774342 -0.30229929 -0.018400946)
(5.545254 -0.33430834 -0.0059026585)
(5.5346715 -0.31963132 0.011300919)
(5.5809792 -0.35565479 0.039429469)
(5.7031668 -0.34901859 0.076723007)
(5.9299134 -0.48137682 0.034245391)
(5.9602673 -0.35699769 0.0028149987)
(5.7375796 -0.4443791 -0.12205866)
(5.670678 -0.50559426 -0.057042676)
(5.6904758 -0.43222122 0.031497881)
(5.7516396 -0.53814748 0.059951259)
(5.993346 -0.38031058 0.083113988)
(5.6900847 -0.38100835 -0.017551821)
(5.4370612 -0.48058819 -0.0090571465)
(5.3548764 -0.46653892 -0.071980996)
(5.2644418 -0.45110801 0.032255344)
(5.1918256 -0.4324448 0.020933635)
(5.2223831 -0.50062116 0.058208315)
(5.2927144 -0.50912836 -0.0057204167)
(5.2992493 -0.52564349 -0.0083811612)
(5.2965571 -0.51153245 -0.010019655)
(5.289903 -0.53662608 -0.0089749194)
(5.281838 -0.531679 -0.0088761021)
(5.3117595 -0.5661842 0.0016408447)
(5.4006696 -0.58471903 0.009492886)
(5.5118106 -0.62251775 0.0021411553)
(5.460744 -0.53558485 -0.026242775)
(5.3613089 -0.56745432 -0.019472119)
(5.3461895 -0.57299232 0.022916375)
(5.3844009 -0.64900331 0.031404829)
(5.5409733 -0.53478944 0.083939009)
(5.3610915 -0.49010149 0.015886103)
(5.0633656 -0.54585218 -0.039692944)
(4.9248067 -0.54049303 -0.0067992099)
(4.7674372 -0.53896815 0.0031143918)
(4.815367 -0.61122463 0.039799318)
(4.8776433 -0.60723445 -0.022356805)
(4.8435672 -0.59358993 -0.020311878)
(4.8105479 -0.6073798 -0.019272607)
(4.7679505 -0.59873211 -0.019647829)
(4.7555772 -0.62876547 -0.011148809)
(4.8138843 -0.6532665 0.0015836128)
(4.9365588 -0.70340213 -0.0024381817)
(4.8393511 -0.62405879 -0.062845802)
(4.598303 -0.59241915 -0.067933617)
(4.3368 -0.75824634 -0.031166803)
(4.3804079 -0.13368937 -0.050287806)
(4.8376859 -0.051144154 0.095747268)
(5.0755542 0.024205217 0.017416141)
(4.8417466 0.016782013 -0.094208996)
(4.8585521 -0.020149155 0.028024318)
(4.9488557 -0.02764117 0.018769516)
(5.0203008 -0.015485687 0.0065430259)
(5.0425482 -0.0057147877 -0.006983353)
(5.0347057 -0.0013304799 -0.0072693563)
(5.0172385 0.0019485011 -0.007003251)
(5.0005529 0.0013411234 -0.0035465945)
(4.9913707 0.00067597784 -0.0020211811)
(4.9865415 0.00019855969 -0.0010785726)
(4.9844145 -1.3141128e-05 -0.00049747093)
(4.9840289 -0.00033491611 -0.00019009939)
(4.984685 -0.00036779681 -4.1687749e-06)
(4.9857359 -0.0003409222 0.00013197542)
(4.9869353 -0.00029710369 0.00019376097)
(4.98813 -0.00024976828 0.00022396567)
(4.9892582 -0.00020566383 0.00023466841)
(4.9902937 -0.00016736435 0.0002336836)
(4.9912298 -0.00013541195 0.00022580974)
(4.9920688 -0.00010959884 0.00021381371)
(4.992818 -8.9395181e-05 0.00019951385)
(4.9934869 -7.428944e-05 0.00018423497)
(4.9940867 -6.4202087e-05 0.00016854222)
(4.99463 -5.9505681e-05 0.00015285104)
(4.9951327 -6.1061991e-05 0.00013812049)
(4.9956166 -7.0859283e-05 0.00012538604)
(4.9961133 -9.2487109e-05 0.00011572712)
(4.9966669 -0.00013086466 0.00010962599)
(4.9973202 -0.00018876917 9.7489749e-05)
(4.9981318 -0.00024025726 0.00012617751)
(4.9992786 -0.00035104732 0.00020529317)
(5.0013396 -0.0006386881 0.00046571801)
(5.0061565 -0.0014876832 0.0012899751)
(5.0133158 -0.0016549154 0.0013875183)
(5.0237895 -0.0031111713 0.0023831272)
(5.0284866 -0.0013752677 -0.0031960116)
(5.0202413 -0.00059803327 -0.0063554751)
(4.9908071 0.0076229224 -0.016405258)
(4.9382099 0.013905986 -0.017769861)
(4.9166989 -0.0080796814 0.0010964569)
(4.8762897 0.025827558 -0.0049012156)
(4.8908736 0.05781236 0.037251343)
(4.8545142 0.039240149 0.058528914)
(4.8577487 0.059664292 0.053250951)
(4.8289205 0.051600953 0.047008334)
(4.8292709 0.057187371 0.015829349)
(4.8249455 0.054573425 0.0043899195)
(4.829033 0.053865208 -0.0057422712)
(4.8335037 0.052745866 -0.006616412)
(4.8372013 0.052075834 -0.0049022125)
(4.8394874 0.051666701 -0.0025893759)
(4.8409415 0.05144561 -0.001070336)
(4.8418258 0.05134368 -0.00027633385)
(4.8423865 0.051303619 2.9688461e-05)
(4.8427441 0.051289852 8.5245015e-05)
(4.8429506 0.051289868 7.2254887e-05)
(4.842997 0.051311936 0.000146147)
(4.8428261 0.051356 0.00046171172)
(4.8423255 0.051463505 0.0012590265)
(4.8412687 0.051687203 0.0027830645)
(4.8393872 0.052100851 0.0051010663)
(4.8361088 0.052774299 0.0068113837)
(4.832039 0.053897129 0.0058908042)
(4.8281479 0.054604234 -0.0042983804)
(4.8326516 0.057223389 -0.015777904)
(4.8324767 0.051639207 -0.046985015)
(4.861466 0.059704111 -0.053230096)
(4.8583877 0.039268758 -0.058506744)
(4.8949058 0.057849016 -0.037201661)
(4.8804188 0.025833899 0.0049642551)
(4.9209018 -0.0081061563 -0.0010770302)
(4.9125465 -0.01309581 0.016912885)
(4.9604215 -0.0468544 0.026778105)
(4.9541697 -0.058141845 0.0081957996)
(4.9695376 -0.0519036 0.019438239)
(4.946427 -0.047342933 0.015538857)
(4.9442114 -0.011299168 0.019781584)
(4.9442267 0.011326676 0.019785422)
(4.9464472 0.04736031 0.015539146)
(4.9695608 0.051907939 0.01943783)
(4.9541989 0.058139672 0.0081954147)
(4.9604564 0.046848993 0.026776806)
(4.9125856 0.013088117 0.016907491)
(4.9209477 0.0081018687 -0.0010925132)
(4.8804642 -0.025839525 0.0049183166)
(4.8949427 -0.057852585 -0.037272778)
(4.8584249 -0.03927054 -0.058579315)
(4.8615007 -0.059702507 -0.053276267)
(4.8325072 -0.051635548 -0.046988675)
(4.8326822 -0.057222973 -0.01575288)
(4.8281796 -0.054604054 -0.0042605122)
(4.8320734 -0.053897373 0.0059388872)
(4.8361504 -0.052774465 0.0068663353)
(4.8394263 -0.052102374 0.0051579969)
(4.8413087 -0.051688015 0.0028372075)
(4.8423675 -0.051464131 0.0013102724)
(4.8428692 -0.051356948 0.00050851987)
(4.8430412 -0.051313451 0.00018378772)
(4.843001 -0.051292202 9.0214768e-05)
(4.8427889 -0.051290686 8.9929138e-05)
(4.8424345 -0.051305659 2.6166167e-05)
(4.8418747 -0.051345982 -0.00029804642)
(4.8409891 -0.051447108 -0.0011077996)
(4.8395332 -0.051667855 -0.0026361716)
(4.8372455 -0.052077502 -0.0049548163)
(4.833551 -0.052746143 -0.0066692329)
(4.8290745 -0.053865627 -0.0057901508)
(4.8249848 -0.054573563 0.0043497958)
(4.8293093 -0.057187529 0.015798287)
(4.828959 -0.051598349 0.047000553)
(4.8577915 -0.059663194 0.053279186)
(4.8545614 -0.039241356 0.058579782)
(4.8909251 -0.057813701 0.037301858)
(4.8763501 -0.025828382 -0.0048713441)
(4.9167562 0.0080836201 0.0011051572)
(4.9083921 0.013046467 -0.016882951)
(4.9562266 0.046766366 -0.026743147)
(4.9499815 0.05804203 -0.0081708833)
(4.9653307 0.05182041 -0.019411989)
(4.942236 0.047295559 -0.015518853)
(4.9400164 0.011316545 -0.019763671)
(4.9400021 -0.011263886 -0.019757932)
(4.9422176 -0.04725245 -0.015514954)
(4.9653096 -0.051789428 -0.019410224)
(4.9499545 -0.058017239 -0.0081694847)
(4.9561936 -0.046745866 -0.026742702)
(4.9083522 -0.013033716 -0.01688475)
(4.9793268 0.058166019 -0.023911962)
(5.0654651 0.034403341 -0.025361979)
(5.0817298 -0.016094661 0.0063339205)
(5.0713993 -0.050445538 -0.0082574615)
(5.0528647 -0.051922805 -0.0049899209)
(5.0424941 -0.020250529 -0.011732918)
(5.0424919 0.020208872 -0.011743488)
(5.052874 0.051918591 -0.0049976783)
(5.0714182 0.050450895 -0.0082600079)
(5.08176 0.016102542 0.0063320619)
(5.0655048 -0.034396904 -0.025361553)
(4.9793742 -0.058164796 -0.023903854)
(5.0281633 -0.11725089 0.024381946)
(5.1250269 -0.074376328 0.054438201)
(5.1382398 0.009561117 0.093822427)
(5.11328 0.065621396 0.10233842)
(5.0889349 0.069347684 0.10449402)
(5.0718097 0.028142285 0.10106834)
(5.0718242 -0.028264655 0.1010667)
(5.0889304 -0.069377618 0.10449684)
(5.1132638 -0.065628079 0.1023386)
(5.1382103 -0.0095618348 0.093822255)
(5.1249867 0.074375956 0.05443506)
(5.028117 0.11724895 0.024366327)
(5.0189845 0.097183242 0.091159155)
(5.1324656 0.062740939 0.14809529)
(5.1456819 -0.029064349 0.20183964)
(5.1172022 -0.08947681 0.22936646)
(5.0857869 -0.088924231 0.23508549)
(5.0649713 -0.035476142 0.23380144)
(5.0649621 0.035402858 0.23381624)
(5.0857934 0.088903837 0.23508911)
(5.1172199 0.089470642 0.22936864)
(5.1457114 0.029061775 0.2018412)
(5.1325056 -0.062743193 0.14809975)
(5.0190303 -0.097186041 0.091175233)
(5.0082639 -0.12021347 0.12536676)
(5.1044664 -0.061180459 0.19227123)
(5.1017776 0.042022778 0.24653605)
(5.0691413 0.10534425 0.27338513)
(5.0308283 0.099926423 0.27926368)
(5.0070141 0.039305824 0.27852731)
(5.0070139 -0.039320652 0.27851478)
(5.0308175 -0.099929807 0.27925917)
(5.0691214 -0.10534571 0.27338253)
(5.101748 -0.042025089 0.24653428)
(5.1044277 0.061178729 0.19226768)
(5.0082214 0.12021396 0.12535732)
(4.9816777 0.1103453 0.11267175)
(5.0690539 0.059050581 0.17265905)
(5.0572549 -0.044841012 0.21679923)
(5.0217603 -0.11168543 0.23587383)
(4.9794353 -0.1036311 0.23954042)
(4.9540634 -0.040475214 0.23866011)
(4.9540689 0.040483886 0.23866692)
(4.9794494 0.1036361 0.23954314)
(5.0217823 0.11168658 0.23587534)
(5.0572846 0.044839569 0.21680009)
(5.0690917 -0.059051672 0.17266008)
(4.9817176 -0.11034259 0.11267225)
(4.9712056 -0.1150001 0.077119874)
(5.0495948 -0.058478386 0.12303001)
(5.0343421 0.046603603 0.15192493)
(4.9984175 0.1142784 0.16259333)
(4.9547774 0.10434848 0.16366267)
(4.9289874 0.040534574 0.16251388)
(4.9289783 -0.040509557 0.16251096)
(4.9547609 -0.10434002 0.16366175)
(4.998394 -0.11427633 0.16259298)
(5.0343121 -0.046604725 0.15192513)
(5.049557 0.058477064 0.12303211)
(4.9711657 0.11499948 0.077128185)
(4.9674573 0.11006418 0.042438918)
(5.0444758 0.055454478 0.072283134)
(5.0295981 -0.04855751 0.088537522)
(4.9946183 -0.11608401 0.093076354)
(4.9511884 -0.10458729 0.092515353)
(4.9256404 -0.040400377 0.091333242)
(4.9256502 0.040424891 0.091333409)
(4.951206 0.10459652 0.092515262)
(4.9946428 0.11608681 0.093075946)
(5.0296285 0.048556777 0.088536201)
(5.0445139 -0.055455985 0.072278055)
(4.967498 -0.11006493 0.042423203)
(4.970612 -0.10735262 0.017953486)
(5.0478869 -0.052842647 0.035847226)
(5.0355597 0.050597157 0.043804568)
(5.0025834 0.11764614 0.045231083)
(4.9601339 0.10488361 0.044289929)
(4.9351532 0.040382294 0.043395682)
(4.9351429 -0.040355324 0.043395642)
(4.9601156 -0.10487289 0.044290333)
(5.0025579 -0.11764236 0.045231946)
(5.0355286 -0.050597577 0.043806887)
(5.0478479 0.052840839 0.035854509)
(4.9705694 0.10735133 0.017973327)
(4.9761469 0.10478736 0.0059634149)
(5.055255 0.05051092 0.015314431)
(5.0451306 -0.05227033 0.019089591)
(5.0135621 -0.11856087 0.019413313)
(4.971834 -0.10501717 0.018638642)
(4.9472442 -0.04031854 0.018059745)
(4.9472548 0.040348475 0.018059705)
(4.9718529 0.10502955 0.018638012)
(5.0135883 0.11856571 0.019412066)
(5.045162 0.05227024 0.019086597)
(5.0552949 -0.050513654 0.015305763)
(4.9761932 -0.10478943 0.005950626)
(4.9811953 -0.10329722 0.0015665079)
(5.0618781 -0.048956266 0.0055762883)
(5.0530995 0.053421651 0.0073186419)
(5.0223595 0.11899884 0.0073841458)
(4.981038 0.10505663 0.0069275378)
(4.9566481 0.040314746 0.0066123076)
(4.9566371 -0.040282496 0.0066124187)
(4.9810187 -0.10504302 0.0069282264)
(5.0223328 -0.11899326 0.0073854698)
(5.0530678 -0.053421149 0.00732174)
(5.0618383 0.048955232 0.0055850755)
(4.9811537 0.10329534 0.0015785646)
(4.9843335 0.10237926 0.00046102492)
(5.0663434 0.048087056 0.0018250399)
(5.0583819 -0.053937426 0.0024753343)
(5.0280518 -0.11915438 0.0025235343)
(4.9869473 -0.10503803 0.0023688653)
(4.9626672 -0.040261769 0.002258441)
(4.9626784 0.040295377 0.0022583922)
(4.9869671 0.1050523 0.0023685162)
(5.0280791 0.11916014 0.0025228592)
(5.0584145 0.053937456 0.002473717)
(5.066385 -0.04808905 0.0018204244)
(4.9843784 -0.1023812 0.00044201193)
(4.9864141 -0.10196295 1.3759927e-05)
(5.0690379 -0.047666281 0.00069150268)
(5.0615887 0.054223186 0.0008676383)
(5.0314436 0.11920486 0.00091471686)
(4.9903962 0.10501313 0.00091583311)
(4.9661239 0.040272104 0.00090917358)
(4.9661126 -0.040237469 0.00090914008)
(4.9903764 -0.10499819 0.00091585458)
(5.0314162 -0.11919851 0.00091476318)
(5.0615562 -0.054222468 0.00086774865)
(5.0689965 0.047663778 0.00069425678)
(4.9863663 0.10195974 2.9967459e-05)
(4.9874892 0.10177701 -2.894672e-05)
(5.0704649 0.047501703 0.00025491158)
(5.0632546 -0.054331474 0.00040154597)
(5.0332018 -0.11923416 0.00044964621)
(4.9922038 -0.10500128 0.00045627081)
(4.9679564 -0.04023544 0.000457271)
(4.9679677 0.040270811 0.00045728686)
(4.9922236 0.10501677 0.00045626384)
(5.0332292 0.11924086 0.0004496446)
(5.0632871 0.054331708 0.00040122935)
(5.0705072 -0.047504896 0.00025126007)
(4.9875367 -0.10178117 -3.9387182e-05)
(4.9881889 -0.10170491 4.7142463e-06)
(5.0713046 -0.047437753 5.7323359e-05)
(5.0641901 0.054371582 0.00017245577)
(5.0341657 0.1192566 0.00023376464)
(4.9931765 0.10502408 0.00023613761)
(4.9689255 0.04027291 0.00023658369)
(4.9689142 -0.040236913 0.00023658608)
(4.9931568 -0.10500808 0.00023615435)
(5.0341384 -0.11924966 0.00023378561)
(5.0641576 -0.054371316 0.00017271797)
(5.0712626 0.047434716 5.8104902e-05)
(4.988142 0.10170114 8.7326039e-06)
(4.9885379 0.10167642 5.2673141e-05)
(5.0717112 0.047409557 2.3570907e-05)
(5.0646459 -0.054387766 8.8020378e-05)
(5.0346342 -0.11925676 0.00011605077)
(4.9936595 -0.10501408 0.00011512539)
(4.9694197 -0.040238904 0.00011497673)
(4.969431 0.040275312 0.00011495801)
(4.9936791 0.10503042 0.00011506694)
(5.0346614 0.11926401 0.00011599504)
(5.0646779 0.054388187 8.8170691e-05)
(5.0717528 -0.047411944 2.7259069e-05)
(4.9885832 -0.10167821 5.2303752e-05)
(4.9888009 -0.10168013 0.0001257961)
(5.0719753 -0.047421019 0.00010623538)
(5.0648929 0.054377719 8.5550309e-05)
(5.0348723 0.11926433 4.7158502e-05)
(4.9938866 0.10503548 3.9169869e-05)
(4.9696381 0.040277907 4.0726992e-05)
(4.969627 -0.04024139 4.0837346e-05)
(4.9938672 -0.10501911 3.952919e-05)
(5.0348453 -0.11925719 4.7524195e-05)
(5.0648607 -0.054377193 8.4782186e-05)
(5.0719335 0.047417591 9.927912e-05)
(4.9887524 0.10167549 0.00011858905)
(4.9887637 0.10171699 0.00018129779)
(5.0718907 0.047443834 0.00012489134)
(5.0647815 -0.054375423 1.4332919e-05)
(5.0347556 -0.11926413 -6.6246169e-05)
(4.99377 -0.10502169 -7.8796727e-05)
(4.9695259 -0.040241976 -7.4540111e-05)
(4.969537 0.0402781 -7.4820917e-05)
(4.9937891 0.10503783 -7.9645404e-05)
(5.0347818 0.11927152 -6.72103e-05)
(5.0648121 0.054376797 1.5568207e-05)
(5.0719294 -0.047445829 0.00013308952)
(4.9888071 -0.10171986 0.00019931176)
(4.988547 -0.10180393 0.00023687371)
(5.0715073 -0.047519034 -6.3390645e-05)
(5.0642821 0.054341398 -0.00024517567)
(5.0342223 0.11926672 -0.00030930979)
(4.993209 0.10503691 -0.00032110041)
(4.9689471 0.040277712 -0.00031885519)
(4.9689362 -0.040242747 -0.00031859991)
(4.9931902 -0.10502166 -0.00032040258)
(5.0341966 -0.11925972 -0.00030847184)
(5.0642522 -0.054339892 -0.00024555955)
(5.0714686 0.047517768 -7.1055136e-05)
(4.9885045 0.10180221 0.00021410321)
(4.9877529 0.10199313 0.00016423087)
(5.0704106 0.04767479 -0.00053035433)
(5.0629736 -0.054242253 -0.0007334413)
(5.0328265 -0.11923307 -0.00078455687)
(4.9917758 -0.10502831 -0.00078868682)
(4.9675059 -0.04024949 -0.00078324234)
(4.9675167 0.04028271 -0.00078341919)
(4.991794 0.10504206 -0.00078907018)
(5.0328513 0.11923882 -0.0007850324)
(5.0630026 0.054243507 -0.00073368557)
(5.070447 -0.047675874 -0.0005266687)
(4.9877956 -0.10199466 0.00018721655)
(4.9861959 -0.10242115 -0.00023636041)
(5.0682301 -0.048107525 -0.0017076713)
(5.060258 0.053956896 -0.0023676522)
(5.0299097 0.11920188 -0.0024214217)
(4.9887803 0.10508815 -0.0022701286)
(4.9644804 0.040307935 -0.0021613368)
(4.96447 -0.040277396 -0.0021608505)
(4.9887629 -0.10507651 -0.0022689841)
(5.029886 -0.11919805 -0.0024199917)
(5.0602295 -0.05395773 -0.0023672451)
(5.0681938 0.048105747 -0.001711144)
(4.9861568 0.10241988 -0.00025792375)
(4.9834099 0.10334221 -0.0014058933)
(5.0641287 0.048978915 -0.0055013182)
(5.055337 -0.05344101 -0.0072420131)
(5.0245784 -0.11904515 -0.0073098545)
(4.9832396 -0.10509065 -0.0068559542)
(4.9588432 -0.040302777 -0.0065422968)
(4.9588534 0.040329174 -0.0065430951)
(4.9832566 0.10509931 -0.0068578101)
(5.0246014 0.11904708 -0.0073121236)
(5.0553649 0.053439626 -0.0072425194)
(5.0641635 -0.048980359 -0.0054948745)
(4.9834462 -0.10334394 -0.0013932682)
(4.9788857 -0.10484494 -0.0058438516)
(5.0580235 -0.050545458 -0.015237574)
(5.0478579 0.052288132 -0.019022942)
(5.0162513 0.11862093 -0.019350691)
(4.9744859 0.10507891 -0.018577641)
(4.9498709 0.040364623 -0.017999265)
(4.9498611 -0.040343235 -0.017998404)
(4.9744696 -0.10507368 -0.018575815)
(5.0162293 -0.11862129 -0.01934857)
(5.0478304 -0.052291044 -0.019022519)
(5.057989 0.050541818 -0.015243873)
(4.9788451 0.10484282 -0.0058562053)
(4.9736545 0.10741671 -0.017922522)
(5.0509774 0.052876548 -0.035813941)
(5.0386263 -0.050624331 -0.043768384)
(5.0056243 -0.11771374 -0.045194648)
(4.9631479 -0.10493934 -0.044252896)
(4.9381543 -0.040384954 -0.043358338)
(4.9381635 0.040400175 -0.043359246)
(4.9631633 0.10494064 -0.044254702)
(5.0056453 0.11771122 -0.045196562)
(5.0386529 0.050621562 -0.043768857)
(5.0510107 -0.052878443 -0.035808775)
(4.9736903 -0.1074179 -0.017903731)
(4.9708245 -0.11013068 -0.042393206)
(5.0479075 -0.05548844 -0.072267914)
(5.0330329 0.048590169 -0.088534425)
(4.9980259 0.1161614 -0.093096234)
(4.9545637 0.10466246 -0.092534565)
(4.9289941 0.040444649 -0.091351151)
(4.9289854 -0.040436489 -0.091350372)
(4.9545493 -0.10466548 -0.092532884)
(4.9980059 -0.11616585 -0.093094542)
(5.033007 -0.048593354 -0.088533774)
(5.0478753 0.055487063 -0.072270964)
(4.9707908 0.11013039 -0.042406959)
(4.9746642 0.11507412 -0.077108101)
(5.0531231 0.058513045 -0.12304848)
(5.0378829 -0.046646417 -0.15196281)
(5.0019497 -0.11436743 -0.16266002)
(4.9582898 -0.10442357 -0.16373062)
(4.9324908 -0.040549222 -0.16258042)
(4.9324996 0.040554237 -0.16258084)
(4.9583041 0.1044183 -0.16373129)
(5.0019698 0.11436242 -0.16266103)
(5.0379087 0.046643442 -0.15196383)
(5.0531547 -0.058513765 -0.12304841)
(4.9746969 -0.11507371 -0.077103261)
(4.9853849 -0.11041933 -0.11268744)
(5.0728337 -0.059088665 -0.1727222)
(5.0610321 0.044878537 -0.21689361)
(5.0255116 0.11177261 -0.23598463)
(4.9831525 0.10371251 -0.23965482)
(4.9577573 0.04051642 -0.23877633)
(4.9577485 -0.040503563 -0.23877588)
(4.9831372 -0.10371236 -0.23965625)
(5.0254906 -0.11177469 -0.23598493)
(5.061006 -0.044880405 -0.21689226)
(5.0728018 0.059088615 -0.17271904)
(4.9853525 0.11042383 -0.1126818)
(5.0120693 0.12029396 -0.1253855)
(5.108355 0.061216802 -0.19235349)
(5.105683 -0.042063393 -0.24666339)
(5.0730337 -0.10542812 -0.27353345)
(5.0347026 -0.099994347 -0.27941589)
(5.0108838 -0.03932034 -0.27866828)
(5.0108913 0.039361962 -0.27867728)
(5.0347193 0.10001148 -0.27941364)
(5.0730565 0.10543326 -0.27353228)
(5.10571 0.042063257 -0.24666497)
(5.1083881 -0.061217567 -0.19235963)
(5.0121045 -0.12029266 -0.12540184)
(5.0230123 -0.097249936 -0.09118861)
(5.1365777 -0.062768518 -0.14815929)
(5.1498049 0.029108425 -0.20194467)
(5.1212995 0.089558881 -0.22949188)
(5.0898534 0.088994099 -0.23521568)
(5.0690088 0.035472017 -0.23394679)
(5.0690107 -0.035453157 -0.23393016)
(5.0898374 -0.088964432 -0.23521618)
(5.1212755 -0.089546812 -0.22949238)
(5.1497767 -0.029107628 -0.2019431)
(5.1365428 0.062765101 -0.14815125)
(5.0229736 0.097245688 -0.091163712)
(5.0322395 0.11731443 -0.024329664)
(5.1291801 0.074395911 -0.054426077)
(5.1424051 -0.0096037557 -0.093845874)
(5.1174363 -0.065691423 -0.10237133)
(5.0930866 -0.069407065 -0.10452068)
(5.0759718 -0.02823664 -0.10110187)
(5.0759627 0.028208886 -0.10110626)
(5.0931011 0.069435172 -0.10452103)
(5.1174598 0.065705091 -0.10237152)
(5.1424346 0.0096043364 -0.093846714)
(5.1292148 -0.07440136 -0.054433621)
(5.0322769 -0.11732168 -0.02435473)
(4.9835714 -0.058184358 0.023952709)
(5.0697705 -0.034384261 0.025413577)
(5.0860384 0.016158246 -0.0062953069)
(5.0756879 0.050527363 0.0082979047)
(5.0571285 0.051993651 0.0050376737)
(5.0467392 0.020258985 0.011777137)
(5.0467389 -0.020244866 0.01176942)
(5.0571122 -0.051967256 0.005037331)
(5.0756647 -0.050516171 0.0082984271)
(5.0860088 -0.016158745 -0.0062947928)
(5.0697349 0.034377621 0.025418123)
(4.9835312 0.058173974 0.023969192)
(4.9867771 0.07530488 0.045871888)
(4.9464556 0.031640665 0.042938879)
(5.0010506 0.013487501 0.036911724)
(5.0269153 0.0022237854 0.018458772)
(5.0354186 -0.00098546456 0.0083436607)
(5.0332869 -0.0045782793 -0.0023626288)
(5.0247257 -0.0043455951 -0.002804864)
(5.0156461 -0.0020814253 -0.0030867569)
(5.0099149 -0.0011162734 -0.0013320381)
(5.006463 -0.00056735896 -0.00034767863)
(5.0048688 -0.0003032521 0.00021634235)
(5.0042798 -0.000209958 0.00038821148)
(5.0041465 -0.0001382445 0.00045552729)
(5.0042406 -9.4557625e-05 0.00052895581)
(5.0044826 -7.0088949e-05 0.00060251621)
(5.0048295 -5.8099354e-05 0.00067957547)
(5.0052592 -5.4836011e-05 0.00076525973)
(5.0057622 -5.7958536e-05 0.00086329699)
(5.0063346 -6.4907313e-05 0.00097246422)
(5.0069764 -7.5789313e-05 0.0010982298)
(5.0076918 -9.0844188e-05 0.001244459)
(5.0084871 -0.0001106202 0.0014156818)
(5.0093712 -0.00013591206 0.0016174551)
(5.010355 -0.00016790373 0.0018568068)
(5.0114526 -0.00020814327 0.0021432256)
(5.012682 -0.00025812362 0.0024877096)
(5.0140661 -0.00031981107 0.0029055883)
(5.0156356 -0.00039593756 0.0034191238)
(5.0174351 -0.00048988957 0.0040605847)
(5.0195314 -0.00060303148 0.0048680802)
(5.0220319 -0.00073259279 0.0058841048)
(5.025101 -0.00087199567 0.0072475892)
(5.0290035 -0.001186445 0.009652664)
(5.0341162 -0.0015783266 0.012636184)
(5.0407277 -0.0019868969 0.015832565)
(5.0489699 -0.0023271084 0.018920783)
(5.0588909 -0.0025294592 0.021538436)
(5.0703518 -0.0025722046 0.023328025)
(5.0830559 -0.0025045908 0.024292846)
(5.0973029 -0.0025045324 0.025804785)
(5.1132149 -0.0023936224 0.027586096)
(5.1301339 -0.0024340927 0.028504321)
(5.1474519 -0.0023315863 0.028343289)
(5.1646431 -0.0021222624 0.027271573)
(5.1812269 -0.0018371778 0.025358874)
(5.1967204 -0.0014850445 0.022649616)
(5.2106692 -0.0010752576 0.019213805)
(5.2226456 -0.00060377958 0.015069849)
(5.2322168 -7.001028e-05 0.010227603)
(5.2389482 0.0004951431 0.0047694273)
(5.2424473 0.0010645256 -0.0011907276)
(5.2423313 0.001642285 -0.0076416889)
(5.2382241 0.0022205714 -0.014438174)
(5.229879 0.0027758944 -0.021261381)
(5.2173151 0.0032632475 -0.027584389)
(5.2009743 0.0036042762 -0.032680944)
(5.1818249 0.0037297863 -0.035828365)
(5.1613135 0.0039285626 -0.036958317)
(5.1408465 0.0039213428 -0.03619957)
(5.121517 0.0037187659 -0.033867796)
(5.1041484 0.003365341 -0.030515537)
(5.0890623 0.0029378 -0.02685965)
(5.0762563 0.0027294396 -0.023425396)
(5.0655271 0.0025071236 -0.020351734)
(5.0565571 0.0023067068 -0.017690506)
(5.0491667 0.0022056994 -0.015509942)
(5.0434734 0.0022993743 -0.013850974)
(5.0403344 0.0028146218 -0.012743584)
(5.040045 0.0044013771 -0.0099675633)