/*--------------------------------*- C++ -*----------------------------------*\
| =========                 |                                                 |
| \\      /  F ield         | OpenFOAM: The Open Source CFD Toolbox           |
|  \\    /   O peration     | Version:  v2012                                 |
|   \\  /    A nd           | Website:  www.openfoam.com                      |
|    \\/     M anipulation  |                                                 |
\*---------------------------------------------------------------------------*/
FoamFile
{
    version     2.0;
    format      ascii;
    class       volScalarField;
    location    "174";
    object      p;
}
// * * * * * * * * * * * * * * * * * * * * * * * * * * * * * * * * * * * * * //

dimensions      [0 2 -2 0 0 0 0];


internalField   nonuniform List<scalar> 
19523
(
-0.17426773
-0.17351108
-0.17280702
-0.17462351
-0.17531803
-0.17677435
-0.17914939
-0.18252876
-0.18680558
-0.1918214
-0.19724341
-0.20279158
-0.20813816
-0.21301491
-0.21713475
-0.22034832
-0.22260967
-0.22398795
-0.22467605
-0.22358791
-0.22139188
-0.21777078
-0.21255612
-0.20571966
-0.19731298
-0.18757389
-0.17664921
-0.16472459
-0.15192934
-0.13838835
-0.12421764
-0.10952844
-0.094423505
-0.078996449
-0.063332132
0.10950001
0.079757975
0.051180784
0.023775493
-0.0024258176
-0.027359683
-0.050928934
-0.073009229
-0.093442133
-0.11206682
-0.12858925
-0.1427966
-0.1542997
-0.16306257
-0.16912288
-0.16975705
-0.16358611
-0.15472369
-0.1430735
-0.12878015
-0.11210763
-0.093315919
-0.072683622
-0.050398401
-0.026625696
-0.0014954639
0.024895583
0.052486174
0.081248537
0.11118224
-1.0275175
-1.0891669
-1.1415991
-1.1831574
-1.2117956
-1.2241511
-1.2181693
-1.1936515
-1.1489475
-1.0840417
-0.99973008
-0.90172181
-0.79913106
-0.70054319
-0.61104707
-0.53279109
-0.46616163
-0.41038748
-0.36417109
-0.32605556
-0.2946499
-0.26873135
-0.24728211
-0.22949201
-0.21474554
-0.20260843
-0.19280028
-0.18516875
-0.17954992
-0.17572268
-0.17185655
-0.16548231
-0.15630119
-0.14423979
-0.12946856
-0.11226303
-0.092920203
-0.071693204
-0.048803793
-0.024432557
0.0012800765
0.028235647
0.056379101
0.085695629
0.1162033
-4.2153487
-4.3036355
-4.3303628
-4.3872592
-4.4072482
-4.4396596
-4.4709251
-4.5188829
-4.5348202
-4.5585901
-4.6491748
-4.7097021
-4.7411142
-4.8006512
-4.935809
-4.9620549
-4.9905269
-5.0307049
-5.0781767
-5.1472868
-5.1872346
-5.2893991
-5.3669404
-5.4458398
-5.448505
-5.5332296
-5.6209813
-5.509828
-5.7817568
-5.6495486
-5.7926269
-5.7822344
-5.7714764
-5.7566807
-5.7412103
-5.6918371
-5.6091708
-5.3367085
-5.4516446
-5.3942438
-5.2144171
-4.8552222
-4.0208544
-3.8063052
-3.3527026
-1.8093062
0.5852926
4.6062753
11.07036
9.361762
8.6101789
5.84087
4.1239739
3.1180458
2.3528028
1.6402078
1.1706575
0.86567274
0.66256976
0.51609752
0.40785052
0.32692132
0.26583353
0.21946935
0.18428129
0.1578429
0.13850648
0.12501904
-0.36520088
-0.36172042
-0.35928252
-0.35799008
-0.35792943
-0.35915389
-0.3616651
-0.36539594
-0.37020032
-0.37585505
-0.38207499
-0.38853475
-0.39488509
-0.40076722
-0.40584255
-0.4098488
-0.41268423
-0.41439436
-0.41520045
-0.38068129
-0.34977811
-0.3224001
-0.2984247
-0.2778605
-0.26066523
-0.24706879
-0.23690191
-0.2299791
-0.22597875
-0.22493409
-0.22902512
-0.23603589
-0.24623752
-0.25985182
-0.27695263
-0.2974769
-0.32142264
-0.34882373
-0.37978451
-0.37791189
-0.37480275
-0.3703834
-0.36473818
-0.35811171
-0.35082413
-0.34320988
-0.33558918
-0.32825766
-0.32147633
-0.31545607
-0.31034572
-0.30622932
-0.30313267
-0.30103591
-0.29988827
-0.29962152
-0.24618135
-0.25049258
-0.25555398
-0.26138673
-0.26798402
-0.27529967
-0.28323901
-0.29165484
-0.30035046
-0.30908928
-0.31760435
-0.32560479
-0.33278239
-0.3388385
-0.34354695
-0.3468411
-0.31936588
-0.31595357
-0.31105514
-0.30471509
-0.29714035
-0.28860824
-0.27940117
-0.26978227
-0.25999114
-0.25024217
-0.24071754
-0.23156025
-0.2228712
-0.21471146
-0.20710875
-0.20006635
-0.16094717
-0.17029935
-0.18003848
-0.19014133
-0.20056381
-0.21123412
-0.22204825
-0.23286873
-0.2435271
-0.25382842
-0.26355827
-0.2724785
-0.28032934
-0.2868566
-0.29189317
-0.29538757
-0.27485119
-0.27131237
-0.2661863
-0.25951249
-0.25145605
-0.24224681
-0.23211855
-0.22128809
-0.20995431
-0.19828846
-0.18644546
-0.17455633
-0.16272616
-0.15103431
-0.13953766
-0.11448097
-0.12738706
-0.14034879
-0.15329978
-0.16615533
-0.17881014
-0.19113836
-0.20299531
-0.21422055
-0.22463646
-0.23404611
-0.24223499
-0.2489923
-0.25416882
-0.25773648
-0.24409291
-0.24050079
-0.23529183
-0.22848033
-0.22020203
-0.2106533
-0.20003295
-0.18852246
-0.1762841
-0.16346624
-0.15020499
-0.13662156
-0.12282075
-0.10889096
-0.094905724
-0.08049191
-0.095252096
-0.10987391
-0.12427868
-0.13837568
-0.15206101
-0.16521799
-0.17771954
-0.18942655
-0.20018458
-0.20982495
-0.21816275
-0.225013
-0.23024845
-0.23386411
-0.22680891
-0.22316711
-0.21793143
-0.21108118
-0.20272617
-0.19303737
-0.18219648
-0.17036665
-0.15769495
-0.14431456
-0.13034873
-0.11591118
-0.1011051
-0.086022762
-0.070745923
-0.065166046
-0.080734603
-0.096076535
-0.11110796
-0.12573576
-0.13985728
-0.15336083
-0.16612703
-0.17802735
-0.1889195
-0.19863924
-0.20700795
-0.21385427
-0.21907539
-0.22271752
-0.22212647
-0.22069481
-0.22290946
-0.22152202
-0.21929698
-0.21560248
-0.2170439
-0.21178291
-0.20487575
-0.1964259
-0.18661206
-0.17561129
-0.16358729
-0.15068046
-0.13701798
-0.12271844
-0.10789324
-0.092645009
-0.077066983
-0.06124335
-0.056878209
-0.073034246
-0.088926861
-0.10447275
-0.11957928
-0.13414402
-0.14805509
-0.1611921
-0.17342648
-0.18461729
-0.19460508
-0.20320799
-0.21024728
-0.20768391
-0.21318843
-0.21697091
-0.21923746
-0.2159801
-0.21362281
-0.20969261
-0.20397056
-0.19643529
-0.20043896
-0.19158343
-0.18130603
-0.16979231
-0.15720394
-0.14368268
-0.12935843
-0.11435251
-0.098777319
-0.082735027
-0.066317152
-0.049605513
-0.039077323
-0.056598179
-0.073780057
-0.09054363
-0.10679911
-0.122445
-0.13736848
-0.15144697
-0.16454868
-0.1765292
-0.18722233
-0.1815903
-0.19126344
-0.19917341
-0.20518089
-0.2093114
-0.21179499
-0.20686425
-0.20423379
-0.19986314
-0.19351446
-0.18515823
-0.17493793
-0.16306853
-0.17036003
-0.15777393
-0.14400445
-0.12920022
-0.1134957
-0.097015044
-0.079871291
-0.062164664
-0.043982311
-0.025399841
-0.0091008267
-0.028964574
-0.048351756
-0.067191837
-0.085401478
-0.10288243
-0.1195218
-0.13519378
-0.14976058
-0.14091952
-0.15503228
-0.1676135
-0.17844282
-0.18729557
-0.19402293
-0.19865732
-0.20144743
-0.19583597
-0.19288157
-0.18797215
-0.18084816
-0.17147381
-0.16000375
-0.14667286
-0.13171163
-0.11531553
-0.12546265
-0.1088209
-0.091135516
-0.07253395
-0.053128778
-0.033014956
-0.0122707
0.0090400201
0.028111536
0.0052556967
-0.016933386
-0.038399422
-0.059071188
-0.078858916
-0.097649635
-0.086601389
-0.10529088
-0.12262627
-0.13843554
-0.15251496
-0.16462405
-0.17451779
-0.18203617
-0.1872194
-0.19033999
-0.18526559
-0.18198799
-0.17654709
-0.16865876
-0.15827773
-0.14556823
-0.13078483
-0.11417724
-0.095957723
-0.076301389
-0.055349679
-0.06670536
-0.045726495
-0.023773802
-0.00093866676
0.022717122
0.047145006
0.065012877
0.039091351
0.01404717
-0.010082805
-0.033241872
-0.022401458
-0.045497043
-0.067363153
-0.087863545
-0.10685786
-0.12416526
-0.13956507
-0.1528011
-0.16360644
-0.17181764
-0.17748618
-0.18090947
-0.17747014
-0.1739297
-0.16808026
-0.15961432
-0.14847171
-0.13482095
-0.11893594
-0.10108465
-0.081480368
-0.060304462
-0.037707008
-0.013821695
0.011249098
0.0018198869
0.027091125
0.053363189
0.080609071
0.093001734
0.064690961
0.037433974
0.044719025
0.017886863
-0.0077841183
-0.03222699
-0.055342223
-0.076996493
-0.097037573
-0.11527186
-0.13149058
-0.14542
-0.15678345
-0.16542182
-0.17140098
-0.17503282
-0.1735251
-0.1698363
-0.16378455
-0.15505736
-0.14358457
-0.12949399
-0.11307463
-0.094598382
-0.074292974
-0.052346455
-0.028918579
-0.0041387383
0.021896109
0.049120903
0.077501304
0.072675196
0.10174344
0.1070293
0.10884558
-0.43961807
-0.43203592
-0.42563453
-0.42055615
-0.41692884
-0.4148472
-0.41434904
-0.41539261
-0.41784131
-0.42146374
-0.42595301
-0.43095512
-0.43609487
-0.44099353
-0.44530009
-0.44873963
-0.45119195
-0.45267428
-0.45336399
-0.49508171
-0.54011887
-0.58807113
-0.63831616
-0.69006147
-0.74212707
-0.79306681
-0.84162685
-0.886275
-0.92554168
-0.95792062
-0.98236923
-0.9978115
-1.0035695
-1.0014812
-0.98910415
-0.96744884
-0.937889
-0.90129974
-0.97279236
-0.95474874
-0.9386858
-0.92522428
-0.91483958
-0.90760762
-0.90326611
-0.94020852
-0.94533421
-0.95387544
-0.96615596
-0.98211358
-1.0012232
-1.0227788
-1.04592
-1.0698119
-1.0935512
-1.1163029
-1.13727
-1.1559627
-1.1721029
-1.1855887
-1.1965156
-1.2050503
-1.2114358
-1.2159384
-1.2188201
-1.3013039
-1.2962716
-1.2894744
-1.2806377
-1.2694743
-1.2557189
-1.2391832
-1.2197479
-1.1975337
-1.1728285
-1.1462238
-1.1186042
-1.090954
-1.0642954
-1.0395689
-1.0177289
-0.99954947
-0.98558988
-0.97589471
-0.97008461
-0.99202548
-0.99836855
-1.0089697
-1.0242745
-1.044258
-1.0683449
-1.0957169
-1.1253513
-1.1562307
-1.1872418
-1.2172786
-1.2453927
-1.2708942
-1.293488
-1.3130325
-1.3296639
-1.3435816
-1.355054
-1.3643809
-1.3718316
-1.4279221
-1.4178165
-1.4057593
-1.3915012
-1.3746956
-1.3550974
-1.332551
-1.3069408
-1.2784409
-1.2473551
-1.2144606
-1.1807351
-1.1473527
-1.115474
-1.0861495
-1.0604289
-1.0391412
-1.0228514
-1.0115553
-1.0047261
-1.0068412
-1.0141251
-1.0259749
-1.0429108
-1.0649763
-1.0916408
-1.1220921
-1.15531
-1.1902705
-1.2258232
-1.2607979
-1.2942343
-1.3252963
-1.3536683
-1.3791311
-1.4017344
-1.4215546
-1.4388286
-1.4539267
-1.467076
-1.4862195
-1.4695605
-1.4510395
-1.4304215
-1.4076976
-1.3826043
-1.35491
-1.3245412
-1.291748
-1.2568792
-1.2208143
-1.1844844
-1.1490094
-1.1154878
-1.0848898
-1.0581896
-1.0361661
-1.0193399
-1.0077066
-1.0008026
-0.98523414
-0.99175231
-1.0027958
-1.0188888
-1.0400673
-1.0658596
-1.0955498
-1.1282631
-1.1631412
-1.1992089
-1.2354809
-1.2711128
-1.3052299
-1.337443
-1.3674446
-1.3951904
-1.4207232
-1.4441222
-1.4655102
-1.4850021
-1.463975
-1.4412163
-1.4167407
-1.3904857
-1.3624056
-1.3324937
-1.3007905
-1.2674433
-1.2328181
-1.1973631
-1.1619143
-1.1272024
-1.0940292
-1.0631925
-1.0353965
-1.011373
-0.9917323
-0.9768578
-0.96666599
-0.96062122
-0.92795442
-0.93334146
-0.9424025
-0.95563406
-0.97315171
-0.99467334
-1.0197231
-1.0477471
-1.0782292
-1.1105892
-1.1442394
-1.1785877
-1.212879
-1.2466124
-1.279366
-1.3108865
-1.341031
-1.369724
-1.3969287
-1.4226257
-1.3339765
-1.3046321
-1.2741415
-1.242627
-1.2102629
-1.1772897
-1.1440506
-1.1110051
-1.0786769
-1.0477066
-1.0185331
-0.9915237
-0.96702781
-0.94535916
-0.92687949
-0.91191599
-0.90064609
-0.89293359
-0.88833926
-0.8432952
-0.8470026
-0.85322141
-0.86233529
-0.87449734
-0.88963124
-0.90755176
-0.92808115
-0.95109852
-0.97647154
-1.0040336
-1.0334976
-1.0643572
-1.0961157
-1.1283205
-1.1605627
-1.1925139
-1.2239211
-1.2545931
-1.1619885
-1.1310336
-1.0998007
-1.0685092
-1.0374514
-1.0069789
-0.9775052
-0.94953262
-0.92352095
-0.89984577
-0.87864887
-0.85991937
-0.84360059
-0.82962842
-0.81800166
-0.80874013
-0.8018307
-0.79711476
-0.7943184
-0.74297395
-0.74486494
-0.74805357
-0.75277825
-0.75919832
-0.76740747
-0.77751136
-0.78965892
-0.80405651
-0.82090987
-0.84036611
-0.86241284
-0.88680983
-0.91319007
-0.94109149
-0.97008394
-0.99979144
-1.0298735
-1.0599971
-0.9522178
-0.92389291
-0.89600462
-0.86890762
-0.84294468
-0.81849847
-0.79596132
-0.77566529
-0.75788108
-0.74273245
-0.73013615
-0.7198545
-0.71158541
-0.70502696
-0.69992917
-0.69610759
-0.69338677
-0.69159091
-0.6905338
-0.63846471
-0.63880599
-0.63940336
-0.64039276
-0.64194157
-0.64427031
-0.64764589
-0.65239303
-0.65887695
-0.66745847
-0.67843255
-0.69195199
-0.70798344
-0.72634242
-0.74674741
-0.76887054
-0.79238209
-0.81697534
-0.84240029
-0.73463448
-0.71297542
-0.69230335
-0.67287478
-0.65496459
-0.63885496
-0.62480985
-0.61303571
-0.6036391
-0.5965839
-0.59167234
-0.58858084
-0.5869224
-0.58630018
-0.58634499
-0.58674262
-0.58723669
-0.5876655
-0.58793765
-0.53975975
-0.53898364
-0.53771452
-0.53600171
-0.53399663
-0.5319733
-0.53027586
-0.52929238
-0.52942806
-0.53107284
-0.53455776
-0.54010557
-0.54780133
-0.55760157
-0.56936514
-0.58289083
-0.59795103
-0.61431571
-0.63176546
-0.52282899
-0.51089836
-0.50024313
-0.49104868
-0.48349086
-0.47771378
-0.47380147
-0.47174829
-0.47143681
-0.47263455
-0.47501787
-0.47820971
-0.48181464
-0.48544258
-0.48873938
-0.49142531
-0.493363
-0.49453863
-0.49335263
-0.49383739
-0.49119511
-0.48670999
-0.48013235
-0.47138351
-0.46064742
-0.44828464
-0.43479258
-0.42081976
-0.40719068
-0.39488276
-0.38484415
-0.3776413
-0.37321513
-0.37103563
-0.33216364
-0.29998542
-0.27334642
-0.25125348
-0.23290204
-0.21765981
-0.20512235
-0.19497136
-0.18713513
-0.18137972
-0.17750997
-0.17531838
-0.17604462
-0.17828867
-0.18223736
-0.18807476
-0.1960187
-0.20623587
-0.21888072
-0.2342405
-0.25275193
-0.27502729
-0.3018566
-0.33420929
-0.33839736
-0.34522742
-0.35478206
-0.36656927
-0.37972138
-0.39331717
-0.40655481
-0.41878262
-0.42947933
-0.43825103
-0.44487977
-0.44941697
-0.45209698
-0.41394589
-0.41131373
-0.40686722
-0.40039214
-0.39186264
-0.38151896
-0.36977115
-0.35714407
-0.34427162
-0.33191136
-0.32090925
-0.31204073
-0.30572265
-0.27853558
-0.28428016
-0.29236636
-0.30244775
-0.31384266
-0.32578844
-0.33758442
-0.34862889
-0.35840929
-0.36651417
-0.37269139
-0.37694322
-0.37946483
-0.3486277
-0.34625767
-0.34226905
-0.33648335
-0.32891531
-0.31982109
-0.30960326
-0.2987509
-0.28782478
-0.27746332
-0.26834522
-0.2610633
-0.2559002
-0.23704673
-0.24165413
-0.24815851
-0.2563337
-0.26566778
-0.27556166
-0.28543957
-0.29478499
-0.30313671
-0.31010875
-0.31545083
-0.3191418
-0.32134286
-0.29750835
-0.29550427
-0.29211594
-0.28720154
-0.28082977
-0.27322659
-0.26474466
-0.25581472
-0.24690978
-0.23854713
-0.23125388
-0.22547036
-0.22137498
-0.20844778
-0.21208498
-0.21722347
-0.22372279
-0.23120421
-0.23920248
-0.24725101
-0.25492239
-0.26184169
-0.2676645
-0.27215601
-0.27525292
-0.27706879
-0.26003412
-0.25837745
-0.25553963
-0.25142924
-0.24611289
-0.23981053
-0.23283624
-0.22554896
-0.21834179
-0.21162506
-0.20581073
-0.2012268
-0.19798803
-0.18983681
-0.19274862
-0.1968821
-0.20213746
-0.20822602
-0.21478043
-0.22143449
-0.22782322
-0.23361231
-0.23850575
-0.24229759
-0.24492112
-0.24646808
-0.2363295
-0.23483523
-0.2323695
-0.22881985
-0.22425064
-0.21887095
-0.21295116
-0.20680019
-0.20075045
-0.19514487
-0.19031499
-0.18651989
-0.18385101
-0.17981464
-0.18232669
-0.18588774
-0.19041748
-0.19567926
-0.20137167
-0.20717147
-0.21276454
-0.21785251
-0.2221751
-0.22554771
-0.22791726
-0.22936803
-0.22531898
-0.223914
-0.22161766
-0.21836175
-0.21418658
-0.20926915
-0.2038657
-0.19826683
-0.19278251
-0.18772086
-0.18337434
-0.17995315
-0.17752911
-0.17579583
-0.17213994
-0.16603937
-0.15720814
-0.1456655
-0.13160109
-0.1152403
-0.096807915
-0.076566257
-0.054707634
-0.031386586
-0.0067402796
0.019130244
0.046159121
0.074313247
0.10358622
-3.9685622
-4.0830005
-4.0881931
-4.1308057
-4.163407
-4.1874826
-4.2903376
-4.2952114
-4.3668041
-4.4033092
-4.5348857
-4.5326983
-4.5659738
-4.7395403
-4.6933599
-4.8921099
-4.8551336
-4.9692425
-5.013129
-5.171816
-5.2248739
-5.3212546
-5.472971
-5.4806221
-5.5756038
-5.5253605
-5.6724358
-5.7043376
-5.7415495
-5.8186205
-5.898346
-5.867255
-5.9289018
-5.8970656
-5.8912723
-5.8388548
-5.8489541
-5.6462634
-5.4230989
-5.5651909
-5.4523879
-5.3065318
-4.8662288
-3.9555703
-3.910139
-3.3426881
-1.4381056
0.64214842
5.7103098
10.940042
8.9787536
7.2433735
5.0061693
3.619513
2.8422607
2.0991736
2.1448235
1.4780637
1.0536227
0.77749588
0.58955092
0.4526784
0.35213162
0.27724492
0.2210565
0.17867583
0.1467254
0.12287822
0.10554548
0.093521369
0.063248983
0.073860034
0.089259309
0.11061255
0.13946629
0.17808269
0.22974621
0.29924588
0.39337662
0.52274622
0.70102868
0.96071218
1.3586242
1.9569133
2.8210953
2.9697123
3.310736
4.5218909
6.3455883
6.6254503
8.6636947
11.008729
6.2951756
1.8338741
-0.63062751
-2.9307928
-3.9149771
-3.7097729
-4.6596943
-5.2457135
-5.4883688
-5.4667906
-5.4469092
-5.7171506
-5.6333743
-5.7823151
-5.8707475
-5.9670656
-5.9147982
-5.943941
-5.9555079
-5.926788
-5.8627203
-5.8420565
-5.7380906
-5.7271875
-5.6162974
-5.5351727
-5.5255673
-5.342925
-5.2795905
-5.201413
-5.0516225
-5.0451358
-4.8974049
-4.9113149
-4.7157921
-4.7213988
-4.5848961
-4.5484413
-4.5456236
-4.3850425
-4.3766395
-4.3397858
-4.3115927
-4.1582417
-4.1748542
-4.1505523
-4.1105843
-4.0662225
-3.9468081
-3.945298
-2.6404378
-2.7491298
-2.8678465
-2.9349215
-3.0999433
-3.1894498
-3.2166175
-3.2552312
-3.2135206
-3.1659445
-3.2024159
-3.1678719
-3.0684548
-2.9483808
-2.8725832
-2.7502383
-2.6333898
-1.0212858
-1.0815047
-1.1325154
-1.1727423
-1.199852
-1.2096044
-1.2032967
-1.1785184
-1.1340689
-1.0705295
-0.98967358
-0.89676842
-0.79910371
-0.70429127
-0.61726163
-0.54024322
-0.47392964
-0.41786978
-0.42010934
-0.47611298
-0.54220407
-0.61878157
-0.70511901
-0.79898134
-0.89552312
-0.9873823
-1.0675102
-1.1307013
-1.1749918
-1.199903
-1.2063436
-1.1967558
-1.1700546
-1.1302201
-1.0795405
-1.0196077
-1.0161385
-1.0103724
-1.0020632
-0.99132003
-0.97888254
-0.96551483
-0.95205412
-0.93925658
-0.92777684
-0.91817782
-0.91080969
-0.90570883
-0.90267315
-0.93952287
-0.94314272
-0.94922601
-0.95802144
-0.96949535
-0.98323948
-0.99858743
-1.0147495
-1.0308019
-1.0457278
-1.058586
-1.068505
-1.075384
-1.125415
-1.1174602
-1.1059978
-1.0911551
-1.0739274
-1.0554306
-1.0368419
-1.0192298
-1.0034972
-0.99039097
-0.98036115
-0.97343304
-0.96931301
-0.99117279
-0.99567857
-1.0032454
-1.0142243
-1.0286099
-1.0459333
-1.065399
-1.0860249
-1.1066374
-1.1259259
-1.1426112
-1.1555727
-1.1646105
-1.1906296
-1.1805382
-1.1662058
-1.1479432
-1.126995
-1.1047684
-1.0826624
-1.0618994
-1.0434934
-1.0282464
-1.0166192
-1.0085895
-1.0037549
-1.0057771
-1.0108078
-1.0191358
-1.0311017
-1.0467331
-1.0655979
-1.0869332
-1.1097405
-1.1328011
-1.1546856
-1.1739149
-1.18912
-1.1998552
-1.1931586
-1.1819665
-1.1662297
-1.1465507
-1.1244137
-1.1013236
-1.0786869
-1.0576519
-1.0391578
-1.0239237
-1.0123624
-1.0044507
-0.9998112
-0.984221
-0.98845645
-0.99568674
-1.0063156
-1.0204043
-1.0376031
-1.0572814
-1.078609
-1.1005678
-1.1218691
-1.1410883
-1.1567253
-1.1680621
-1.1240793
-1.1133137
-1.0987165
-1.0810967
-1.0618714
-1.0422911
-1.0234417
-1.006156
-0.99111359
-0.97882937
-0.96957648
-0.96327487
-0.95955874
-0.92686014
-0.92987035
-0.93495657
-0.94240736
-0.95228648
-0.96438227
-0.97829674
-0.99351462
-1.0094184
-1.025193
-1.0398649
-1.0522703
-1.0616361
-0.98294954
-0.97604521
-0.96709984
-0.95668446
-0.94558294
-0.93443665
-0.9237694
-0.91397851
-0.90542061
-0.89839206
-0.89305996
-0.88939894
-0.88721979
-0.84215959
-0.84343377
-0.8455553
-0.84860653
-0.85256902
-0.85731266
-0.86261993
-0.86826048
-0.87400561
-0.87962321
-0.88488219
-0.8894596
-0.89310713
-0.79872146
-0.79847334
-0.79838892
-0.79837356
-0.79829538
-0.79801432
-0.79748134
-0.79673153
-0.7958582
-0.79496723
-0.79417982
-0.79358343
-0.79320314
-0.7418693
-0.74139286
-0.74053695
-0.73918806
-0.73721585
-0.73453792
-0.73113888
-0.72706478
-0.72248772
-0.71771383
-0.71317928
-0.70938844
-0.70671724
-0.62176912
-0.62663925
-0.63338663
-0.6414493
-0.65004929
-0.65848268
-0.6662395
-0.67299909
-0.67859592
-0.6829736
-0.68614091
-0.68824487
-0.68946496
-0.6374607
-0.63567915
-0.63261306
-0.62801796
-0.62178346
-0.6139289
-0.6046113
-0.59411213
-0.5828865
-0.57159799
-0.56112501
-0.55240689
-0.54609517
-0.48048119
-0.48756535
-0.49736869
-0.50922516
-0.52212837
-0.53510493
-0.54739043
-0.55843128
-0.56785025
-0.57540815
-0.58101925
-0.58481644
-0.58702893
-0.53894437
-0.53645063
-0.53220145
-0.52594347
-0.51757104
-0.50722296
-0.49520821
-0.48197674
-0.46814622
-0.45453206
-0.44213462
-0.43195516
-0.42462364
-0.41783907
-0.40244154
-0.37492246
-0.33185486
-0.26995971
-0.18602661
-0.077148523
0.057820824
0.21446701
0.37817201
0.52223415
0.62523384
0.69273948
0.74640723
0.80368515
0.873875
0.96308583
1.072602
1.1958723
1.3231878
1.4920134
1.3210594
-1.5367537
-1.5860185
-1.6553403
-1.7117836
-1.7901559
-1.8589742
-1.9537647
-2.0433039
-2.1647406
-2.2918143
-2.455776
-2.6453184
-2.8928578
-3.2126841
-3.635415
-4.2199564
-4.9902764
-6.3819019
-9.1876408
-10.902991
-11.579372
-8.5119226
-1.3499501
0.72883567
1.4541416
1.0873083
0.90500166
0.64584685
0.43757936
0.29297628
0.18909294
0.11267945
0.057575383
0.017899621
-0.010529795
-0.030822745
-0.045214818
-0.055313904
-0.062270993
-0.066918199
-0.069886602
-0.045931236
-0.02051167
0.0062157988
0.034150364
0.043343484
0.056792431
0.075614468
0.10130551
0.13605688
0.1830708
0.24706389
0.33484482
0.45707226
0.62825688
0.87918651
1.2663756
1.8505789
2.6012516
2.6452233
3.5783113
3.8189916
4.1420579
5.8467118
5.6527891
7.4499776
8.4511035
9.9134789
9.9249271
11.402415
11.568227
9.5767949
8.6755441
8.7479645
8.3157847
10.011452
6.7578883
8.2040367
7.3784799
8.7152927
10.972463
5.808377
3.4707875
1.7948615
-0.58716267
-2.6045288
-3.8161387
-3.5427986
-4.1245238
-4.3304914
-5.049585
-5.4397254
-5.505166
-5.7275632
-5.5541386
-5.7493418
-5.9216633
-6.013716
-5.9778869
-6.0118975
-6.0339358
-6.0021064
-5.9415752
-5.9214537
-5.8131711
-5.8129501
-5.6842643
-5.6248072
-5.5566231
-5.4019297
-5.3465698
-5.2486525
-5.0968655
-4.9992858
-4.9262887
-4.8877365
-4.8185161
-4.6478713
-4.6516755
-4.4765784
-4.4496984
-4.430576
-4.3464751
-4.2959714
-4.2411226
-4.1952654
-4.1087554
-4.07768
-4.0410645
-3.9958827
-3.9695303
-3.8804828
-3.8511225
-3.8291153
-1.6135394
-1.6677961
-1.7335059
-1.7969499
-1.8712921
-1.9471257
-2.0393024
-2.1382115
-2.2577166
-2.393325
-2.5585501
-2.7589668
-3.0107882
-3.3458556
-3.7624611
-4.3033012
-5.1002749
-6.6893402
-7.8857585
-8.8859242
-9.8747879
-10.076027
-14.91342
-27.800271
-7.7964674
-13.465873
-8.7480474
-7.6505466
-2.1890558
2.4382799
2.7609118
2.7355583
1.8707823
1.733625
1.1390677
0.74025541
0.48576229
0.32405978
0.21182013
0.13347777
0.078088967
0.038664985
0.010460769
-0.0097454376
-0.024169393
-0.03434112
-0.041329465
-0.014314155
0.013944799
0.025358989
0.041503365
0.063787832
0.094279519
0.13601981
0.19353824
0.27351445
0.38657376
0.54795107
0.78963148
1.172752
1.7804064
2.7983665
2.533063
3.3824228
3.451546
4.5090634
4.7323244
5.1383848
7.2410114
7.9687716
8.3867509
11.026521
6.4197355
1.8326256
0.61235027
-1.5385283
-3.4357077
-4.0318953
-3.935034
-4.8379057
-5.3668754
-5.6161313
-5.6670231
-5.5856258
-5.8688928
-5.7268259
-5.9557013
-6.0335686
-6.0663535
-6.1029925
-6.0709054
-6.0939685
-6.0526037
-5.9749501
-5.9027129
-5.9112475
-5.7536378
-5.7018194
-5.6141289
-5.4797883
-5.4036249
-5.3129632
-5.164247
-5.0576859
-4.9567732
-4.9080722
-4.7643537
-4.6796151
-4.5605122
-4.5285294
-4.4954029
-4.4614387
-4.4043098
-4.2172241
-4.1819351
-4.1608425
-4.1393009
-4.0477051
-4.0077794
-3.9643634
-3.9356743
-3.9097981
-3.8138308
-3.7800461
-3.7496716
-3.7228612
-1.5064574
-1.6206099
-1.74062
-1.8699034
-2.0106305
-2.1745845
-2.3737399
-2.592375
-2.877897
-2.9114677
-1.4236278
-0.18504221
0.25401436
0.29679126
0.24384894
0.17485914
0.11330854
0.059008333
0.016056256
-0.016621455
-0.040746306
-0.058168797
-0.070498344
-0.079034766
-0.084786387
-0.088521275
-0.090831558
-0.092173278
-0.1125404
-0.11276882
-0.11270054
-0.11206012
-0.11046583
-0.10748866
-0.10262915
-0.095342249
-0.085127981
-0.07175872
-0.05575766
-0.039401669
-0.028667229
-0.036964388
-0.081975301
-0.21016998
-0.52639551
-1.1351352
-1.9549989
-2.1375378
-2.0940145
-2.0240097
-1.9328332
-1.8259622
-1.7165704
-1.609594
-1.5046639
-1.3993916
-1.2914206
-1.2164768
-1.3126562
-1.4029303
-1.4874301
-1.5653097
-1.6352752
-1.6931238
-1.727655
-1.730848
-1.6933049
-1.496198
-1.052735
-0.6877289
-0.45005594
-0.30742296
-0.22448615
-0.18150703
-0.16064057
-0.15122988
-0.1471555
-0.14524054
-0.14390981
-0.14248838
-0.14076382
-0.13875069
-0.13656667
-0.13437864
-0.13237453
-0.13070077
-0.14632112
-0.14926437
-0.15307794
-0.15772769
-0.16316402
-0.16940815
-0.17660022
-0.18505528
-0.19537362
-0.20862889
-0.22666948
-0.25255726
-0.2911897
-0.34999118
-0.43936149
-0.57272262
-0.76070536
-1.0021545
-1.2681201
-1.4313556
-1.4990544
-1.5277498
-1.5246311
-1.4950426
-1.4469908
-1.3859545
-1.3149594
-1.2357003
-1.1492366
-1.1000005
-1.1766882
-1.2450726
-1.3037801
-1.3508288
-1.3828191
-1.3952667
-1.3831072
-1.3417519
-1.2670689
-1.1359662
-0.95810697
-0.78447301
-0.63617077
-0.5200767
-0.43222465
-0.36717272
-0.31911145
-0.28327111
-0.25603744
-0.23484871
-0.21794602
-0.20415327
-0.1926985
-0.18308802
-0.17502563
-0.16836658
-0.1630673
-0.15907968
-0.16878392
-0.17356049
-0.17998348
-0.18815536
-0.19817786
-0.21026947
-0.22481122
-0.24237981
-0.26379895
-0.29021191
-0.3231699
-0.36471496
-0.41742257
-0.48428884
-0.56836604
-0.6717485
-0.79409194
-0.92923818
-1.063092
-1.1710824
-1.2433003
-1.2883687
-1.3081891
-1.3057796
-1.2834805
-1.2455817
-1.1953592
-1.1345764
-1.0648705
-1.0412427
-1.1058946
-1.1614163
-1.2060341
-1.2378851
-1.2541839
-1.2510353
-1.22773
-1.1823741
-1.11439
-1.0217991
-0.91168129
-0.79778138
-0.69084084
-0.59621222
-0.51562275
-0.44867266
-0.39382254
-0.34917322
-0.31285573
-0.28322896
-0.25893703
-0.23890557
-0.22231125
-0.20854725
-0.19719361
-0.18799188
-0.18080587
-0.17549633
-0.17651368
-0.16978024
-0.15997877
-0.14715536
-0.13156228
-0.11349763
-0.093248953
-0.071078878
-0.047235384
-0.021929285
0.004676768
0.032477375
0.061426553
0.091532488
0.12284526
-1.4517949
-1.5980134
-1.5614631
-1.7180296
-1.678822
-1.8509666
-1.8158803
-2.008523
-1.9870964
-2.2031667
-2.2019114
-2.4535801
-2.5039223
-2.7988058
-2.9259111
-3.275393
-3.5473603
-3.9400357
-4.3560587
-4.618074
-4.3585007
-1.3560416
-0.089748998
0.38518311
0.40146333
1.3897905
2.620678
4.7279666
5.0297042
3.9539648
2.8994053
3.4578364
2.4890851
1.5798062
1.008601
0.66156491
0.44768764
0.30518392
0.20649484
0.13721478
0.087854446
0.052374941
0.026731056
0.00820391
-0.0050550771
-0.0069596697
0.023280556
0.054519827
0.08676748
0.12013919
0.15482526
-1.6302719
-1.6823717
-1.7457817
-1.8114441
-1.8796164
-1.9571397
-2.0447883
-2.1445074
-2.2601615
-2.3977371
-2.5642607
-2.7762788
-3.0359964
-3.3764045
-3.8222141
-4.4577872
-5.406173
-7.2852807
-7.7998415
-7.5303247
-10.4144
-13.306179
-21.647501
-18.908957
-4.3851737
-6.6968747
-0.075638147
-1.1355824
2.6584869
4.888353
4.0832638
6.0817152
7.2203684
6.7175227
5.0280918
5.8379521
4.0639648
4.2454257
4.4261448
4.3603226
5.9184284
6.254634
5.914298
6.5121941
6.7608443
8.7839357
9.0525126
10.18552
11.581609
11.889952
10.204907
8.9493718
8.5317851
10.129808
9.7650202
8.718066
6.828304
8.3353231
7.6565342
11.015469
5.8000049
3.5616201
1.8321005
-0.70038702
-2.9942176
-4.0877434
-3.7245744
-4.2648309
-4.5499781
-5.1928877
-5.5973601
-5.6906709
-5.8646262
-5.704791
-5.9938348
-6.1126544
-6.1782563
-6.152323
-6.1780105
-6.190416
-6.1389895
-6.0778101
-6.0027506
-5.9879366
-5.8665187
-5.7751518
-5.6752808
-5.5682551
-5.4576399
-5.3939839
-5.2214905
-5.1114605
-5.0286057
-4.8596451
-4.8284276
-4.6864405
-4.6098122
-4.5666476
-4.5278032
-4.4337181
-4.3564371
-4.2656621
-4.2160008
-4.1886301
-4.1437835
-4.101534
-3.9584474
-3.9350856
-3.9053479
-3.8794347
-3.8530235
-3.7446315
-3.719896
-3.6947721
-3.6674189
-3.6439181
-1.6775874
-1.7252883
-1.7995765
-1.8558111
-1.9303265
-2.0073416
-2.0926795
-2.1926234
-2.3073255
-2.4488967
-2.6213101
-2.840756
-3.1064031
-3.4731032
-3.9893938
-4.8528069
-5.4170179
-5.7053429
-5.8556793
-6.7476218
-7.9368507
-8.1853493
-13.109673
-19.994239
-9.3805933
-9.9208565
-7.7008029
-6.5538239
-3.2769178
0.69875994
0.070449312
3.5096805
4.7107614
5.6191451
5.7528852
7.2914505
6.7121537
7.0439773
8.6769647
9.4907061
10.394484
9.5343897
8.7975329
9.3886362
8.0320547
8.6264884
6.1615574
6.1159006
7.8308625
7.7446673
7.9119004
8.4807383
8.6813874
8.9414873
7.6367545
8.5921408
10.057189
10.079366
11.471521
11.645218
11.117822
6.4152216
1.9077468
0.67030089
-0.58446581
-2.4365456
-3.7943433
-4.1511766
-4.2094302
-5.1520813
-5.5978786
-5.7102495
-5.9356652
-5.7276554
-5.9725206
-6.2083271
-6.2817803
-6.2149191
-6.3047941
-6.293055
-6.2013052
-6.1825196
-6.1236457
-6.0497144
-5.9596938
-5.8796487
-5.7276254
-5.6557013
-5.5292405
-5.4673637
-5.2716253
-5.1895515
-5.0613461
-4.9293919
-4.8223869
-4.7647656
-4.6275559
-4.598405
-4.4994389
-4.4635704
-4.2880729
-4.2241692
-4.206026
-4.0854695
-4.0436006
-4.0130805
-3.9855434
-3.9104375
-3.8811926
-3.843917
-3.8119591
-3.7752198
-3.6837557
-3.6623506
-3.6330287
-3.5994752
-3.569715
-3.5467591
-3.4604506
-1.2238313
-1.3076316
-1.3504855
-1.3227696
-1.2358794
-1.2539754
-1.2567883
-1.2579105
-1.2919001
-1.3426704
-1.3415894
-1.3387671
-1.4527473
-1.3933705
-1.3919275
-1.3473172
-1.3185368
-1.3028332
-1.2211701
-1.2168766
-1.2962581
-1.3125043
-1.2299741
-1.2337543
-1.2242393
-1.2106777
-1.2022926
-1.2766137
-1.2876194
-1.3043553
-1.3351131
-1.342315
-1.4173428
-1.4248524
-1.4304212
-1.4365576
-1.3793916
-1.3974028
-1.4570678
-1.4947516
-1.5407542
-1.4968247
-1.4766628
-1.4992539
-1.5212143
-1.5656316
-1.5502627
-1.505157
-1.4803682
-1.4637054
-1.4266663
-1.3721781
-1.3630778
-1.4148162
-1.4487751
-1.4619842
-1.4871037
-1.4722622
-1.4867626
-1.4476984
-1.3907568
-1.3822028
-1.4363512
-1.4760235
-1.4863938
-1.5291491
-1.5154918
-1.532857
-1.6045774
-1.6208722
-1.635073
-1.5528154
-1.4816417
-1.5533948
-1.6352393
-1.6964824
-1.605553
-1.5954625
-1.54674
-1.4778432
-1.5516696
-1.4538409
-1.4530809
-1.3886229
-1.2911477
-1.292387
-1.2877696
-1.2491267
-1.2418522
-1.2162321
-1.293745
-1.3252842
-1.3123748
-1.2803258
-1.262952
-1.1914589
-1.1779903
-1.2464213
-1.26382
-1.1922269
-1.2056414
-1.3987734
-1.5291248
-1.4724781
-1.6234342
-1.632723
-1.5337186
-1.4047546
-1.4090426
-1.5365607
-1.6404919
-1.4911812
-1.482589
-1.5760454
-1.560779
-1.7892057
-1.3174454
-1.3296806
-1.337436
-1.3415103
-1.4499402
-1.3830193
-1.3745578
-1.281748
-1.2725335
-1.2317501
-1.2184754
-1.2959778
-1.3596102
-1.3791293
-1.3949502
-1.4075242
-1.3714201
-1.3518051
-1.4007336
-1.3840855
-1.3380464
-1.3580542
-1.4064323
-1.4227118