/*--------------------------------*- C++ -*----------------------------------*\
| =========                 |                                                 |
| \\      /  F ield         | OpenFOAM: The Open Source CFD Toolbox           |
|  \\    /   O peration     | Version:  v2012                                 |
|   \\  /    A nd           | Website:  www.openfoam.com                      |
|    \\/     M anipulation  |                                                 |
\*---------------------------------------------------------------------------*/
FoamFile
{
    version     2.0;
    format      ascii;
    class       surfaceScalarField;
    location    "174";
    object      phi;
}
// * * * * * * * * * * * * * * * * * * * * * * * * * * * * * * * * * * * * * //

dimensions      [0 3 -1 0 0 0 0];
oriented        oriented;


internalField   nonuniform List<scalar> 
56892
(
-0.00015488679
-0.0074290699
-0.00011427255
0.0002405615
0.0072958683
0.00016179953
-0.0070449014
6.3626997e-05
0.0068639099
-3.7522195e-05
0.00010245729
-2.2556934e-06
0.00013316577
-9.8142803e-05
0.0068190382
-3.0235695e-06
8.3515985e-05
0.0070840273
-0.00022198369
0.00013225167
0.007524547
-5.1749239e-05
0.00013791462
0.0080925056
-0.00015621884
0.00014060971
0.0085122933
-4.2307431e-05
0.00015009432
0.0088353978
-3.9595113e-05
0.00015984361
0.0089779408
7.2218907e-07
0.00016491079
0.0090435858
4.1029177e-05
0.00016492897
0.0090436055
4.3615469e-05
0.00015989599
0.0089780268
0.00015735751
0.00015017501
0.0088354971
5.2682385e-05
0.00014071364
0.0085124103
0.00022269548
0.00013803207
0.0080926365
3.5073441e-06
0.00013237441
0.0075246823
9.839087e-05
8.3640301e-05
0.0070841605
-0.00010233601
0.0068191784
-2.0227251e-06
0.0070450617
0.00013289341
-0.00023262145
0.0074096564
0.00021506285
-4.754667e-05
0.0078944854
0.00025068169
-0.00015502676
0.0082179475
0.00026870235
-2.8206402e-05
0.0084632563
0.00028330386
-3.1011856e-05
0.0085377515
0.00029052176
3.3471405e-06
0.0085574469
0.00029309713
5.8459382e-06
0.0085398359
0.00029214422
5.2164838e-06
0.0085201017
0.00029098562
1.8580777e-06
0.0085058464
0.00029002862
-7.3639179e-08
0.0084982536
0.00028948334
-1.2151756e-06
0.0084946949
0.00028919494
-1.7141489e-06
0.008493258
0.00028905404
-1.9016275e-06
0.0084927499
0.00028897869
-1.9204057e-06
0.0084925935
0.00028893385
0.008492616
0.00028889757
3.6729484e-06
0.0084915588
0.00028991629
3.5364718e-06
0.0084916235
0.00028987091
3.2447787e-06
0.0084918667
0.0002898403
2.6375916e-06
0.0084924496
0.00028984338
1.4059402e-06
0.0084939554
0.00028991648
-6.0587537e-07
0.0084975814
0.00029014043
-4.0420739e-06
0.0085052442
0.00029062615
-4.753058e-06
0.0085195724
0.0002915292
-2.3454661e-06
0.0085393815
0.00029263857
3.1899841e-05
0.0085570635
0.00029354565
2.8952276e-05
0.0085374335
0.0002909321
0.00015562371
0.0084629898
0.00028368073
4.8010309e-05
0.0082177234
0.00026905039
0.00023296527
0.0078942892
0.00025100297
0.0074094825
0.00021535851
2.6512375e-05
0.0072160271
0.00023057002
1.7085806e-05
0.0076342762
0.00026943965
-2.1962205e-05
0.0079667706
0.00029000072
-1.7549207e-05
0.0081565091
0.00030206779
-1.8637301e-05
0.0082301191
0.00030840253
-1.1792935e-05
0.0082393395
0.00031087965
-8.6307507e-06
0.0082254036
0.0003108157
-7.7814383e-06
0.0082085313
0.00031019177
-8.3894697e-06
0.0081962886
0.00030956364
-9.2051096e-06
0.0081892094
0.00030918766
-9.9450019e-06
0.0081856622
0.00030903304
-1.0546779e-05
0.0081840258
0.00030902564
-1.1048502e-05
0.0081832713
0.00030909713
-1.1392343e-05
0.0081827543
0.00030921303
0.0081826393
0.00030935844
-0.006878919
-1.753513e-05
3.5659309e-05
-1.062151e-06
-0.0068936579
-1.4582281e-05
2.9668503e-05
-3.4726125e-07
-0.0069056704
-1.1093105e-05
2.2623102e-05
4.824445e-07
-0.0069144971
-7.0308439e-06
1.4436861e-05
1.4207203e-06
-0.0069196218
-2.4003141e-06
5.0595944e-06
2.4654159e-06
-0.0069204877
2.7217878e-06
-5.4686547e-06
3.6128166e-06
-0.0069164932
8.1483771e-06
-1.6908758e-05
4.7658199e-06
-0.0069072771
1.461577e-05
-2.9910162e-05
6.0783077e-06
-0.0068925404
2.0947359e-05
-4.3081813e-05
7.3977634e-06
-0.0068724768
2.692296e-05
-5.5641556e-05
8.6549788e-06
-0.0068479281
3.1847546e-05
-6.6157921e-05
9.761676e-06
-0.006820959
3.4813944e-05
-7.2353243e-05
1.0570231e-05
-0.006794047
3.538685e-05
-7.3226532e-05
1.0927682e-05
-0.00676902
3.4000994e-05
-6.9862246e-05
1.0834257e-05
-0.0067469465
3.1294789e-05
-6.3738342e-05
1.0370064e-05
-0.0067281505
2.790906e-05
-5.6352675e-05
9.6475296e-06
-0.0067124455
2.4368998e-05
-4.8850476e-05
8.7765305e-06
-0.0066993846
2.1001618e-05
-4.1899018e-05
7.8364956e-06
-0.0066884634
1.7966961e-05
-3.5761867e-05
6.8736658e-06
-0.006679215
1.5313565e-05
-3.0457455e-05
5.8954864e-06
-0.0066712457
1.3009144e-05
-2.5883433e-05
4.9050185e-06
-0.0066643687
1.105075e-05
-2.184473e-05
3.9170364e-06
-0.0066586906
9.1327114e-06
-1.8011204e-05
3.200363e-06
-0.0066551607
7.3496656e-06
-1.3959707e-05
3.0801434e-06
-0.0066544299
3.9778794e-06
-9.4899357e-06
4.7812834e-06
-0.0066591318
2.5550661e-06
-5.1706136e-06
7.3173985e-06
-0.006669484
-3.9988537e-06
4.4179533e-07
1.3909267e-05
-0.0066929888
-7.2964571e-06
8.8837635e-06
2.191746e-05
-0.0067483246
-2.2134173e-05
3.0407314e-05
4.7062706e-05
6.1374871e-05
-4.3894347e-05
9.8104715e-05
5.4115814e-05
0.0070877819
0.00013550432
3.1883091e-05
0.0074969063
0.00015960262
8.1269716e-06
0.0078168968
0.00017362992
-7.9030933e-06
0.0079912016
0.00018133754
-1.4906786e-05
0.0080521081
0.00018501467
-1.6811106e-05
0.0080549698
0.00018627399
-1.6566575e-05
0.008038851
0.00018630808
-1.6336646e-05
0.0080222764
0.00018602494
-1.6591194e-05
0.0080107519
0.00018579126
-1.7195635e-05
0.0080041051
0.00018570873
-1.7947074e-05
0.0080006529
0.00018576075
-1.87386e-05
0.0079989124
0.00018590489
-1.9533375e-05
0.0079979589
0.00018610713
-2.0450274e-05
0.0079973236
0.00018634765
0.0079968108
0.00018661638
-0.00047671707
0.00023347977
0.00013170385
-0.00052635932
7.2907382e-05
5.366223e-05
-0.00010374818
0.00032614862
-0.001271993
0.00052323329
-6.8281381e-05
0.00048627967
-0.0011455033
0.00062375684
-3.2885176e-05
0.00053169642
-0.0012154991
0.00064840651
-4.8510134e-05
0.00054509415
-0.0011747509
0.00064528174
-3.8729115e-05
0.00055002037
-0.0012068604
0.00064705906
-6.7702529e-05
0.00055063156
-0.001176353
0.00065469481
-0.00011906192
0.00055769672
-0.0011571034
0.00065076611
-0.00048955032
0.00062071707
-0.00094730498
0.00069707631
-0.00048885693
0.00021017466
0.0001079897
-0.00031885776
-0.00054245206
4.8654388e-05
-2.1768189e-05
2.6708936e-05
-0.00019910242
0.0003189519
-0.0011698557
0.00050755413
-0.00049880089
0.00052963053
-0.00088778054
0.00065784847
-0.00049273474
0.00017166019
-0.00025786028
8.0133945e-05
-0.00056001845
2.9257768e-05
3.0721007e-05
7.3049358e-06
-0.000222982
0.00031114365
-0.001152449
0.00050426885
-0.00054783367
0.00051504903
-0.00083215244
0.00064195508
-0.0005480358
0.00012509404
-0.00017796391
5.3072002e-05
-0.00052894601
-0.00015444662
0.00022145861
-8.610177e-05
-0.00052873887
0.0008541863
-0.00020210698
-0.00065228647
-0.00060868737
4.3758832e-05
-3.7854404e-05
7.4044077e-05
-0.00069385006
1.1602783e-05
2.4905025e-05
4.8654883e-05
-0.00074147842
-3.083277e-06
1.652792e-05
3.4183719e-05
-0.00079019513
4.3912024e-05
1.3130143e-05
-8.325455e-06
-0.00062917483
-0.00015557424
-3.1761612e-05
2.6315554e-05
-0.00026600988
0.00025440407
-0.00034882708
-0.00026874194
-0.00042953479
-2.6506805e-05
6.7116315e-05
0.0001229154
-0.00049870115
-3.2510639e-05
3.0599754e-05
7.1077244e-05
-0.00055696993
-3.0517405e-05
3.5264149e-05
5.3522032e-05
-0.00059729343
-3.0241286e-05
3.1026148e-05
3.9538636e-05
-0.00062910336
-3.0232046e-05
2.9589714e-05
3.2452267e-05
-0.00065786473
-3.0554425e-05
2.9772113e-05
2.9543682e-05
-0.00068689762
-3.098554e-05
3.038582e-05
2.9632607e-05
-0.00071867572
-3.0380788e-05
3.0477572e-05
3.1681316e-05
-0.00075518956
-2.5102689e-05
3.1153567e-05
3.0462963e-05
-0.00079764785
4.6978663e-06
3.4348739e-05
3.4116824e-06
-0.00067559015
-0.00022890301
2.412709e-05
8.2718222e-05
-0.00043119613
0.00022755383
-5.4931286e-05
-0.00041701656
-0.00053213114
-3.9884872e-05
1.7463891e-05
0.00012335599
-0.00063009024
-2.7609205e-05
3.0874449e-05
9.4693863e-05
-0.00070067994
-3.2004455e-05
2.1515871e-05
8.1078282e-05
-0.00072297387
-2.7090843e-05
-5.6946174e-06
5.5079384e-05
-0.00037177639
3.9872467e-05
-3.4386358e-05
-0.00035668358
-0.00049921225
5.3595705e-06
1.3158678e-05
0.00010891761
-0.00056121167
8.0607087e-06
-1.0596931e-05
6.4535637e-05
-0.00018134598
6.4165472e-05
-0.00025029271
-0.00019373845
-0.0003212614
2.8341489e-05
3.7388583e-05
7.4185347e-05
-0.00012888485
8.5328411e-05
-0.00018518384
-9.2521123e-05
5.8167628e-05
-0.00020114465
1.4092174e-05
-0.00036420725
7.8937276e-05
0.00011947919
0.0002239584
-0.001383894
0.00024266448
0.00050168525
-4.1093307e-05
-0.00029815785
0.00061458814
-0.0018322451
0.00022093116
-0.00012063809
0.00034805811
-0.0020767726
0.00015018092
-0.00017508151
0.00026942807
-0.0026680482
0.00019099204
-0.00020927844
0.00060956203
-0.0070346504
0.0032721207
-0.00013574649
-0.00037539573
0.0016056237
-0.0074228729
0.00011971288
-0.00020297883
0.00047148846
-0.0076276954
0.00011959983
-0.00011329982
0.00019852245
-0.0077292895
0.0001068983
-0.00010600816
0.00010070396
-0.0077849317
0.00010180346
-0.00010413876
5.797748e-05
-0.0078198499
9.6614642e-05
-9.888051e-05
3.7184093e-05
-0.0078423638
9.0211631e-05
-9.2340677e-05
2.4642894e-05
-0.0078557091
8.2308939e-05
-8.4481579e-05
1.5518023e-05
-0.0078627213
7.3194194e-05
-7.5388045e-05
9.2060463e-06
-0.0078680887
6.3188472e-05
7.465065e-06
-0.0078799722
5.2511064e-05
1.3756368e-05
-0.0079128758
4.1470182e-05
3.4452533e-05
3.0445193e-05
8.5106169e-05
3.5661508e-05
-0.0080114497
0.0080346163
-2.4299026e-05
3.6732618e-05
-0.0080057563
0.0080277112
-2.3025977e-05
3.7727494e-05
-0.0080003976
0.0080211803
-2.1777611e-05
3.860711e-05
-0.0079954968
0.0080151621
-2.0544926e-05
3.9310234e-05
-0.0079910624
0.0080096763
-1.9317034e-05
3.9755435e-05
-0.0079872645
0.0080049035
-1.8084258e-05
3.984668e-05
-0.0079844462
0.0080011955
-1.6840591e-05
3.9483374e-05
-0.0079833335
0.0079992835
-1.5586707e-05
3.8573573e-05
-0.0079852784
0.0080005201
-1.4331857e-05
3.7044129e-05
-0.0079921974
0.0080068211
-1.3094197e-05
3.4841073e-05
-0.0080051446
0.0080192466
-1.1898947e-05
3.1925283e-05
-0.0080198866
0.0080335758
-1.0773394e-05
2.8281293e-05
-0.0080186126
0.0080319939
-9.7373365e-06
2.3961015e-05
-0.0079606079
0.0079737178
-8.7895957e-06
1.916021e-05
-0.007786938
0.0077996505
-7.9117215e-06
1.4238992e-05
-0.0074628198
0.0074748361
-7.0950207e-06
9.4860977e-06
-0.0070444851
0.0070555543
-6.3162807e-06
4.8079675e-06
-0.0066889822
0.0066991644
-5.5040544e-06
-0.0065604279
0.0065699382
-4.702274e-06
-0.0065518594
-4.4948833e-06
-4.0736165e-06
-0.0065448663
-3.9192442e-06
-3.0739431e-06
-0.0065398477
-3.2264993e-06
-1.7920746e-06
-0.0065408494
-7.3582006e-07
1.7375768e-06
-0.0065441116
-4.0860373e-08
3.3030729e-06
-0.0065605417
5.9183087e-06
1.0511738e-05
-0.0065829077
8.6963547e-06
1.3669633e-05
-0.00663605
2.31156e-05
3.0026688e-05
-0.006734036
4.4520532e-05
5.3465526e-05
3.7876423e-05
4.7265904e-05
0.0068644986
6.4326915e-05
0.00015411259
0.0067496462
6.2638693e-05
9.6734297e-05
0.0066954063
3.2374433e-05
4.4981048e-05
0.006673353
1.1704055e-05
1.9045535e-05
0.0066648078
4.2787463e-06
1.0184786e-05
0.0066622132
-1.3012655e-07
2.6838971e-06
0.0066653027
-3.0072997e-06
-8.180218e-07
0.0066713539
-5.7115351e-06
-3.5661728e-06
0.0066796116
-7.5842005e-06
-4.592778e-06
-8.7338641e-06
-5.1315553e-06
-1.3176181e-05
-0.0070339476
-6.0952402e-06
-1.7951604e-05
-0.0074511135
-6.9308519e-06
-2.2667985e-05
-0.0077744851
-7.7364707e-06
-2.6850482e-05
-0.0079478493
-8.5761149e-06
-3.0299881e-05
-0.0080056989
-9.4643653e-06
-3.3040398e-05
-0.0080067381
-1.040801e-05
-3.5162568e-05
-0.0079916189
-1.1403531e-05
-3.6737019e-05
-0.0079781844
-1.2438556e-05
-3.7810785e-05
-0.0079707038
-1.3500867e-05
-3.8430523e-05
-0.0079681329
-1.458088e-05
-3.8656585e-05
-0.0079685484
-1.5671737e-05
-3.8560389e-05
-0.0079705911
-1.6769607e-05
-3.8213964e-05
-0.0079735342
-1.7874623e-05
-3.768098e-05
-0.0079770389
-1.8990859e-05
-3.7011575e-05
-0.0079809418
-2.0125185e-05
-3.6242437e-05
-0.00798524
-2.1285459e-05
-2.2478754e-05
3.6274762e-05
-0.0079654055
-2.0351018e-05
3.6678193e-05
-0.0079620443
-1.9300977e-05
3.6935267e-05
-0.0079590134
-1.8282549e-05
3.7005825e-05
-0.0079563146
-1.7290145e-05
3.6842928e-05
-0.007954109
-1.6319162e-05
3.6398028e-05
-0.0079527365
-1.5366953e-05
3.5629306e-05
-0.0079529317
-1.4432426e-05
3.450934e-05
-0.007956071
-1.3512813e-05
3.301787e-05
-0.007964094
-1.2598995e-05
3.1106858e-05
-0.007978034
-1.1673857e-05
2.86487e-05
-0.0079935604
-1.071946e-05
2.5431227e-05
-0.0079927504
-9.7310232e-06
2.1311771e-05
-0.0079350057
-8.7241148e-06
1.6505823e-05
-0.0077619449
-7.7343009e-06
1.1708435e-05
-0.0074395285
-6.78769e-06
-0.0070240224
-5.801003e-06
-9.6649654e-06
-0.007015201
-4.8679555e-06
-1.4759601e-05
-0.0074283316
-6.1022295e-06
-1.9870774e-05
-0.0077493945
-7.4391842e-06
-2.4024807e-05
-0.0079219828
-8.8689067e-06
-2.6998333e-05
-0.0079795439
-1.023295e-05
-2.9093592e-05
-0.0079800447
-1.1420489e-05
-3.0684885e-05
-0.007964026
-1.2416699e-05
-3.1981652e-05
-0.0079495244
-1.3272765e-05
-3.3042349e-05
-0.0079409498
-1.4060533e-05
-3.3862486e-05
-0.0079372765
-1.4835139e-05
-3.4435916e-05
-0.0079365389
-1.5624204e-05
-3.477461e-05
-0.0079373336
-1.6436668e-05
-3.4904483e-05
-0.0079389102
-1.7274538e-05
-3.4856491e-05
-0.0079409219
-1.8139469e-05
-3.4660617e-05
-0.007943206
-1.9034135e-05
-0.0079457585
-1.9962321e-05
3.2260326e-05
-1.89234e-05
3.2317987e-05
-0.0079251425
-1.8121149e-05
3.2216332e-05
-0.0079234685
-1.7351798e-05
3.1952796e-05
-0.0079220338
-1.6612846e-05
3.1511366e-05
-0.0079209894
-1.5902796e-05
3.0886253e-05
-0.0079206935
-1.5220244e-05
3.009258e-05
-0.0079219206
-1.4562169e-05
2.9165332e-05
-0.0079261076
-1.3914939e-05
2.8125257e-05
-0.0079352485
-1.3235843e-05
2.6892594e-05
-0.00795036
-1.2433365e-05
2.5169059e-05
-0.0079669514
-1.1369756e-05
2.2424619e-05
-0.0079668859
-9.9135391e-06
1.8209598e-05
-0.0079097342
-8.0335712e-06
1.272992e-05
-0.0077380022
-5.9126498e-06
7.1418127e-06
-0.0074187947
-3.948824e-06
-0.007008675
-2.3914212e-06
-4.3771027e-06
-0.007006775
2.3469597e-06
-1.024906e-05
-0.0074138382
9.1547826e-07
-1.5853848e-05
-0.007730865
-1.5324015e-06
-2.0074133e-05
-0.0079012706
-4.2433535e-06
-2.2704425e-05
-0.0079577346
-6.5209682e-06
-2.4206859e-05
-0.0079573013
-8.1476201e-06
-2.5174408e-05
-0.0079401607
-9.2317308e-06
-2.5979422e-05
-0.0079244648
-9.978681e-06
-2.6745772e-05
-0.0079147751
-1.0566155e-05
-2.7460894e-05
-0.0079100993
-1.1106158e-05
-2.8076637e-05
-0.0079084288
-1.1648997e-05
-2.8559028e-05
-0.0079082946
-1.2212365e-05
-2.8898231e-05
-0.0079088934
-1.280127e-05
-2.9097408e-05
-0.0079098515
-1.3417794e-05
-0.0079110124
-1.4063589e-05
2.5195845e-05
-0.007907933
-2.9486547e-06
2.4927405e-05
-0.0079071605
-2.4225932e-06
2.4563084e-05
-0.0079066066
-1.9224172e-06
2.4092431e-05
-0.0079063781
-1.4459401e-06
2.353651e-05
-0.007906883
-9.898788e-07
2.2937259e-05
-0.0079089541
-5.4601322e-07
2.2331261e-05
-0.0079140769
-9.2192387e-08
2.1675642e-05
-0.0079242329
4.2368337e-07
2.0745384e-05
-0.0079403351
1.1046619e-06
1.9101181e-05
-0.0079577747
2.1176023e-06
1.6147156e-05
-0.0079584396
3.6589373e-06
1.1717003e-05
-0.0079026555
5.81505e-06
6.1804057e-06
-0.0077335883
8.2599393e-06
3.9312472e-07
-0.0074181071
1.0056145e-05
-0.0070125242
1.0421025e-05
8.5537148e-06
-0.0070336745
2.4300676e-05
2.4798539e-06
-0.0074398271
2.7793869e-05
-4.3586083e-06
-0.0077556739
2.8924022e-05
-1.0306688e-05
-0.0079250424
2.8335061e-05
-1.4455183e-05
-0.0079814425
2.7151465e-05
-1.6739933e-05
-0.0079815443
2.6054296e-05
-1.7780584e-05
-0.0079645187
2.5224307e-05
-1.8285005e-05
-0.0079483512
2.4622737e-05
-1.8684725e-05
-0.0079378439
2.416666e-05
-1.9117337e-05
-0.0079323055
2.3784023e-05
-1.9565273e-05
-0.0079298615
2.3426479e-05
-1.9978591e-05
-0.0079290327
2.3067945e-05
-2.0323093e-05
-0.0079289585
2.269638e-05
-2.0560523e-05
-0.0079292298
2.2306712e-05
-0.0079296582
2.1896649e-05
1.5488618e-05
-0.0080057243
7.6185868e-05
1.5271277e-05
-0.0080054999
7.6487465e-05
1.4985811e-05
-0.0080054481
7.67751e-05
1.4662471e-05
-0.0080057631
7.7053807e-05
1.4353261e-05
-0.0080068873
7.7334943e-05
1.4140954e-05
-0.0080097297
7.7636543e-05
1.408233e-05
-0.0080157735
7.7988305e-05
1.4015773e-05
-0.0080267099
7.8425281e-05
1.3263869e-05
-0.0080427219
7.8955041e-05
1.0543325e-05
-0.008058305
7.9481282e-05
4.3504185e-06
-0.0080549506
7.9701018e-05
-6.0057625e-06
-0.0079936187
7.8932395e-05
-1.8704448e-05
-0.0078189536
7.5978331e-05
-2.9315935e-05
-0.0074986547
6.9439134e-05
-0.0070892812
5.8665177e-05
5.6051176e-05
-0.0072166857
0.00013399207
3.4524663e-05
-0.0076350323
0.00015790416
1.1480029e-05
-0.0079676478
0.00017173891
-3.8582128e-06
-0.008157533
0.00017925262
-1.0200961e-05
-0.008231328
0.00018272007
-1.1480376e-05
-0.0082407731
0.00018374748
-1.0649372e-05
-0.0082270787
0.00018352584
-9.8694245e-06
-0.0082104519
0.00018296198
-9.6009328e-06
-0.0081984631
0.00018242104
-9.6954563e-06
-0.0081916408
0.00018200563
-9.9326661e-06
-0.0081883497
0.00018169958
-1.0183856e-05
-0.0081869723
0.00018146037
-1.0393728e-05
-0.0081864908
0.00018125255
-1.0669642e-05
-0.0081862773
0.00018105329
-0.0081866086
0.00018085087
5.9457077e-06
0.00030618774
5.9614783e-06
0.00030630043
5.7958164e-06
0.00030642478
5.5029699e-06
0.00030657848
5.0515975e-06
0.00030679662
4.5162013e-06
0.00030714822
4.1925109e-06
0.00030770699
5.3390974e-06
0.00030850322
8.8176638e-06
0.0003092786
1.6010935e-05
0.00030948051
1.5303925e-05
0.00030713051
2.0115154e-05
0.00030091208
-1.8534652e-05
0.00028894945
-2.7575687e-05
0.0002684941
0.00022972188
-0.0079463917
0.0078536718
0.00012032491
0.00036463677
-0.00016251992
-9.9364455e-05
0.00029703334
-9.4808615e-06
0.0001798581
0.0074292211
0.00014912815
9.3653553e-05
0.0080217223
4.9073112e-05
0.00022261048
0.0087012263
-0.00034804163
-6.0654755e-05
0.00026390002
0.0093191752
-5.0611539e-05
0.008458265
-0.00010262655
0.0003699727
0.0088323994
-6.7902433e-05
0.00038297382
0.0090462645
-4.4664111e-05
0.00038932234
0.0091360273
-1.755572e-05
0.00039015003
0.0091527491
-5.7023719e-06
0.00038853442
0.0091425942
-1.1841058e-06
0.00038683709
0.0091257731
-6.457318e-07
0.00038572431
0.0091131188
-1.0143138e-06
0.00038509773
0.0091056974
-1.4831772e-06
0.00038476777
0.0091020638
-1.7845062e-06
0.0003845872
0.0091004908
-1.9441664e-06
0.00038447438
0.0090998888
-2.1203572e-06
0.0003843845
0.0090997008
0.0003843171
0.0090996829
2.3333267e-06
0.0002742508
0.010013987
2.1316472e-06
0.00027436509
0.010014021
2.0245506e-06
0.00027448143
0.010014219
1.8802947e-06
0.0002746055
0.010014831
1.8711809e-06
0.00027475514
0.010016394
2.5439614e-06
0.00027498448
0.010019934
5.3808554e-06
0.00027542116
0.010026963
1.3458833e-05
0.00027630859
0.010038742
3.1611187e-05
0.00027791215
0.010053904
6.2165092e-05
0.0002800395
0.010064038
9.8245076e-05
0.00028127592
0.010047983
0.00010959353
0.00027982386
0.0099621533
0.00027534844
0.0097404598
9.2003634e-05
0.00010554033
-0.00014413277
0.010598041
-3.4462165e-05
0.00010801737
0.010131177
-0.00015047582
9.1195438e-05
0.009422651
3.1422564e-05
0.0086312298
0.00014550676
-4.3763087e-05
0.0091026196
1.5891335e-05
-4.3527629e-06
0.0099463144
-0.00012017837
-5.6005014e-06
0.01070237
-0.00017110034
-1.5145685e-05
0.011197219
-0.00010233772
-0.00014324634
-2.1117656e-05
0.011441101
-0.00012464393
0.010831581
-7.8379672e-05
0.00010076575
0.010915684
-3.9783294e-05
9.9286665e-05
0.01092866
-1.7513617e-05
9.7903146e-05
0.010916807
-7.3656856e-06
9.7019162e-05
0.010901395
-3.5959984e-06
9.6599353e-05
0.010889857
-2.514833e-06
9.6406542e-05
0.010883078
-2.3611038e-06
9.6278871e-05
0.010879681
-2.4510168e-06
9.6152862e-05
0.010878184
-2.5568243e-06
9.6014198e-05
0.010877601
-2.616112e-06
9.5863181e-05
0.010877413
9.5701703e-05
0.010877377
3.072166e-06
-2.4674713e-05
0.01148309
2.9891205e-06
-2.4470812e-05
0.011483123
2.8640749e-06
-2.4282718e-05
0.011483299
2.7579623e-06
-2.4117012e-05
0.011483857
2.8972804e-06
-2.3985264e-05
0.011485305
3.9996059e-06
-2.3903812e-05
0.011488629
7.983886e-06
-2.3878612e-05
0.011495381
1.9043972e-05
-2.3875367e-05
0.011507148
4.3962332e-05
-2.3808366e-05
0.011523445
8.8357661e-05
-2.3598041e-05
0.011537069
-2.3071559e-05
0.011526066
0.00015122866
-5.7389599e-05
-9.221816e-05
0.011860576
0.00018279854
-5.617132e-05
0.011774087
0.00013131395
-5.1358188e-05
0.011524351
-1.1803679e-05
-4.2565486e-05
0.011018894
-0.00015129829
-3.6073451e-05
0.010250281
-3.8902885e-05
0.0093976025
0.0001600464
-2.7583874e-05
0.0095496912
1.513822e-05
-2.5542956e-05
0.010396723
-0.00013218206
-3.0033585e-05
0.011163229
-0.00018492263
-3.4664673e-05
0.011669867
-0.00015269786
-3.7100225e-05
0.011921481
-9.2625528e-05
-3.7620081e-05
0.012008747
5.7204999e-05
-4.5010337e-05
-3.7389732e-05
0.012018769
-4.521886e-05
0.011870874
-1.9181971e-05
-5.6806896e-05
0.011856108
-7.9435814e-06
-5.6512337e-05
0.011839026
-4.0562552e-06
-5.6368559e-05
0.011826918
-3.0646733e-06
-5.6362599e-05
0.011820085
-2.9933191e-06
-5.6459115e-05
0.01181677
-3.1343424e-06
-5.6620228e-05
0.011815342
-3.2791766e-06
-5.6819152e-05
0.011814795
-3.408282e-06
-5.7041747e-05
0.011814621
-5.7281269e-05
0.011814593
3.6889987e-06
-3.8043514e-05
0.011961065
3.5414096e-06
-3.7777325e-05
0.011961097
3.3508886e-06
-3.7526494e-05
0.011961274
3.1813997e-06
-3.7294625e-05
0.01196182
3.1905309e-06
-3.709177e-05
0.011963241
4.0654293e-06
-3.693908e-05
0.011966564
7.7803292e-06
-3.6865383e-05
0.011973474
1.8871161e-05
-3.6903928e-05
0.011985825
-3.7083832e-05
0.01200339
4.4650557e-05
-1.6396118e-06
-1.8658407e-05
0.012054626
9.2215829e-05
-1.4901864e-06
0.012070275
0.00015234161
-1.3888725e-06
0.012060409
0.00018450239
-1.3039561e-06
0.011973008
0.00013115499
-1.1950287e-06
0.011721277
-1.7791459e-05
-1.1386833e-06
0.011215731
-0.00016489017
-8.9622025e-07
0.010452389
-7.053495e-07
0.009608587
0.00016485244
2.6047304e-05
0.0096085539
1.7738121e-05
2.3793891e-05
0.010452365
-0.00013122979
2.801282e-05
0.011215711
-0.0001846005
3.2388765e-05
0.011721253
-0.00015245929
3.4604433e-05
0.01197297
-9.2352005e-05
3.489958e-05
0.012060356
-4.4805231e-05
3.4412304e-05
0.012070209
-1.8830074e-05
3.3814922e-05
0.012054547
1.8050623e-06
-7.9215841e-06
3.3309371e-05
0.012036759
-7.7340126e-06
0.012036848
-4.1464625e-06
-1.9871536e-06
0.012024386
-3.3488575e-06
-2.2209288e-06
0.012017439
-3.3804455e-06
-2.475652e-06
0.012014111
-3.5703028e-06
-2.7163897e-06
0.01201269
-3.773426e-06
-2.9720942e-06
0.01201214
-3.9457781e-06
-3.2409015e-06
0.012011955
-3.523791e-06
0.012011914
4.2216624e-06
3.1225622e-05
0.012011762
4.0349213e-06
3.1513327e-05
0.01201182
3.817927e-06
3.1787213e-05
0.012012017
3.6133399e-06
3.2052259e-05
0.012012575
3.5669714e-06
3.2316634e-05
0.012014003
4.3494942e-06
3.2594074e-05
0.012017336
3.2912277e-05
0.012024289
8.3312426e-06
5.2680999e-05
-4.6614814e-06
0.011973198
1.9375527e-05
5.3160116e-05
0.011985578
4.5465167e-05
5.3759126e-05
0.012003173
9.3026911e-05
5.4429934e-05
0.012018584
0.00015304264
5.4856035e-05
0.012008594
0.00018520788
5.3854953e-05
0.011921361
0.00013240241
4.9255262e-05
0.011669779
-1.498057e-05
4.069767e-05
0.011163158
-0.00015994403
3.4451646e-05
0.010396652
3.7480477e-05
0.0095496123
0.00015113658
4.25182e-05
0.0093974976
1.1553138e-05
2.9357401e-06
0.010250168
-0.00013166073
3.9727328e-06
0.011018762
-0.00018324324
1.3308566e-05
0.011524186
-0.00015177342
1.9085105e-05
0.011773882
-9.2857286e-05
2.08435e-05
0.01186033
-4.5942254e-05
2.1156428e-05
0.011870587
-1.9982657e-05
2.1125982e-05
0.011855777
-8.8174672e-06
2.0924526e-05
0.011838646
-5.0022737e-06
2.0632653e-05
0.011826486
-5.230814e-05
-4.0811715e-06
2.0337032e-05
0.011819607
-3.8311623e-06
0.011966262
-3.8663119e-06
5.2007434e-05
0.011962917
-4.0782197e-06
5.1741672e-05
0.011961473
-4.3099377e-06
5.1484536e-05
0.011960902
-4.4776131e-06
5.1221863e-05
0.011960691
5.0945008e-05
0.011960616
4.673375e-06
1.9109754e-05
0.011813851
4.4936035e-06
1.9362307e-05
0.011813946
4.2849699e-06
1.9600636e-05
0.011814176
4.0790914e-06
1.9832829e-05
0.011814772
2.0072441e-05
0.011816246
4.1942674e-06
-9.9465754e-05
-4.1419291e-06
0.011484603
5.2065452e-06
-9.9311435e-05
0.011487996
9.0993358e-06
-9.9242562e-05
0.011494815
2.0068561e-05
-9.9420963e-05
0.011506647
4.4892276e-05
-0.00010008685
0.011523009
8.9179622e-05
-0.00010127649
0.011536689
0.00014393716
-0.00010258327
0.011525733
0.00017165235
-0.00010399768
0.011440818
0.00012060856
-0.00010704086
0.011196988
-1.5574161e-05
-0.00010934521
0.010702185
-0.00014529911
-9.235151e-05
0.0099461604
-3.2440525e-05
0.0091024844
0.0001502431
-9.4427829e-05
0.0086310723
3.411066e-05
-0.00022348136
0.0094224678
-9.2473766e-05
-0.00026489118
0.010130957
-0.00014473742
-0.00027646049
0.010597767
-0.0001254093
-0.00028104507
0.010831243
-7.9295959e-05
-0.00028260883
0.01091529
-4.0820305e-05
-0.00028150054
0.010928219
-1.8653574e-05
-0.0002795163
0.010916308
-8.6038543e-06
-0.00027807304
0.010900825
-4.9334015e-06
-0.00027736267
0.010889203
-3.9506747e-06
-0.00027711843
0.010882342
-3.8946952e-06
-0.00027709697
0.010878863
9.9641996e-05
-4.0786581e-06
-0.0002771711
0.010877271
-4.3277293e-06
0.011483081
-4.5316734e-06
-9.9827082e-05
0.011482448
-4.7149817e-06
-0.00010002346
0.0114822
-0.00010023478
0.011482094
4.6375659e-06
-0.00027757567
0.010876216
4.4579296e-06
-0.00027742204
0.010876325
-0.00027728132
0.010876592
3.6753646e-06
-0.00038626321
-4.0568629e-06
0.010013203
3.4216749e-06
-0.00038622378
0.010013911
3.3108581e-06
-0.00038626099
0.010015569
3.8859174e-06
-0.00038645806
0.010019194
6.6255967e-06
-0.00038696172
0.010026305
1.4608397e-05
-0.00038796208
0.010038169
3.2655363e-05
-0.00038955777
0.010053415
6.3246309e-05
-0.00039108567
0.010063604
9.9022433e-05
-0.00039016303
0.010047587
0.00011021432
-0.00038375104
0.0099618152
6.11434e-05
-0.0003706884
0.0097401902
-4.8703279e-05
-0.0003486905
0.0093189565
-0.00014888326
-0.00029761716
0.0087010421
-0.00018038459
0.0080215607
9.9119006e-05
-9.8484058e-06
0.0079462254
-5.1097988e-05
0.008458071
-0.00010323876
0.0088321639
-6.8657319e-05
0.0090459709
-4.5688078e-05
0.0091356801
-1.8558628e-05
0.009152359
-6.8050092e-06
0.0091421473
-2.3749074e-06
0.009125245
-1.9250063e-06
0.0091125144
-2.383676e-06
0.0091050178
-2.9494332e-06
0.0091013087
-3.3661261e-06
0.0090996551
-3.6376202e-06
0.0090989697
0.00038633199
-3.945155e-06
0.0090986997
-4.3913448e-06
0.010012924
-0.00038643178
0.010012817
0.0090986046
0.00047523665
0.0089332209
1.259555e-05
3.3907963e-05
0.0080598285
-2.6678068e-05
3.5301457e-05
0.0080516833
-2.5365614e-05
3.6677363e-05
0.0080438693
-2.4064823e-05
3.797313e-05
0.0080366306
-2.2764247e-05
3.9114633e-05
0.0080299834
-2.1448524e-05
4.0000729e-05
0.0080241217
-2.0104254e-05
4.0510794e-05
0.0080194084
-1.8722958e-05
4.0514251e-05
0.0080165851
-1.7305037e-05
3.9887353e-05
0.0080170109
-1.5863854e-05
3.8529809e-05
0.0080226049
-1.4426238e-05
3.6375415e-05
0.0080344296
-1.3028639e-05
3.3398603e-05
0.0080482623
-1.1709764e-05
2.9625424e-05
0.0080462653
-1.0498155e-05
2.5155655e-05
0.007987584
-9.3964247e-06
2.0197799e-05
0.0078129969
-8.3885678e-06
1.5076316e-05
0.00748744
-7.4825055e-06
1.0061042e-05
0.007067261
-6.6913665e-06
5.1143802e-06
0.0067100757
-5.9646375e-06
0.0065803696
-5.3170805e-06
0.0065916356
-5.3675677e-06
-5.898373e-06
0.0066036633
-5.5662104e-06
-6.4614946e-06
0.0066163238
-5.6846885e-06
-6.9757967e-06
0.0066294283
-5.6891088e-06
-7.415467e-06
0.0066427272
-5.5561053e-06
-7.7427172e-06
0.0066559088
-5.2712667e-06
-7.9103768e-06
0.006668621
-4.8110324e-06
-7.9011586e-06
0.0066805
-4.1664413e-06
-7.7125339e-06
0.006691162
-3.342762e-06
-7.3192086e-06
0.0067002498
-2.3554621e-06
-6.7323373e-06
0.0067074252
-1.2076505e-06
-5.9677647e-06
0.0067124593
4.1209857e-08
-5.0753215e-06
0.0067149764
1.4699736e-06
-3.9870549e-06
0.006715218
2.7558101e-06
-2.9974553e-06
0.0067132437
4.0056095e-06
-2.031258e-06
0.0067090128
5.2665741e-06
-1.0356984e-06
0.0067026667
6.4451581e-06
-9.9047099e-08
0.006694427
7.4926542e-06
7.4700602e-07
8.3964227e-06
1.4722794e-06
-6.4022587e-05
-0.0082177872
7.6115651e-06
-5.4592405e-05
-0.0082086549
5.7650399e-06
-4.4778032e-05
-0.0081424145
4.3206522e-06
-3.4937207e-05
-0.0079591516
3.2245894e-06
-2.547372e-05
-0.0076235003
2.5050181e-06
-1.6680966e-05
-0.0071929163
2.1471732e-06
-0.0068275714
1.8938301e-06
1.4909887e-05
-0.0068360711
1.0824167e-06
2.2816814e-05
-0.0072020622
1.2389264e-06
3.1379193e-05
-0.0076335358
1.4730537e-06
4.0358609e-05
-0.0079701554
2.0243565e-06
4.9415461e-05
-0.0081543843
2.9130185e-06
5.8242562e-05
-0.008221599
4.1170224e-06
6.6517256e-05
-0.0082317544
5.6924866e-06
7.3910506e-05
-0.0082261244
7.6674309e-06
8.008026e-05
-0.0082225338
1.004754e-05
8.4745126e-05
-0.0082249215
1.2740984e-05
8.7750876e-05
-0.0082318548
1.5575624e-05
8.9155097e-05
-0.0082410637
1.830163e-05
8.9180745e-05
-0.0082509858
2.0729709e-05
8.8123423e-05
-0.0082607631
2.2777403e-05
8.6271646e-05
-0.0082700093
2.4426268e-05
8.3957751e-05
-0.0082786783
2.5734049e-05
8.1299794e-05
-0.0082867006
2.6780916e-05
7.8446594e-05
-0.0082940498
2.7642803e-05
7.5461656e-05
-0.0083008389
2.8388049e-05
-0.0083072008
2.9069975e-05
-7.4247081e-05
-0.0083299839
2.5451595e-05
-7.6723733e-05
-0.0083229774
2.4615176e-05
-7.8989236e-05
-0.0083155063
2.3722018e-05
-8.0980407e-05
-0.0083074347
2.2725281e-05
-8.2583834e-05
-0.0082986408
2.1565936e-05
-8.3633386e-05
-0.008289146
2.0186274e-05
-8.3897171e-05
-0.008279022
1.8522732e-05
-8.3106981e-05
-0.0082683081
1.6532193e-05
-8.1029486e-05
-0.0082573902
1.4249022e-05
-7.7505544e-05
-0.008247132
1.1753251e-05
-7.2550242e-05
-0.0082391196
9.2427811e-06
-6.6355682e-05
-0.0082356544
6.9261078e-06
-5.9212671e-05
-0.0082382094
4.9419522e-06
-5.1448452e-05
-0.0082428704
3.3518035e-06
-4.3354748e-05
-0.0082318199
2.1271658e-06
-3.5201938e-05
-0.0081637686
1.2314255e-06
-2.7237892e-05
-0.0079787246