/*--------------------------------*- C++ -*----------------------------------*\
| =========                 |                                                 |
| \\      /  F ield         | OpenFOAM: The Open Source CFD Toolbox           |
|  \\    /   O peration     | Version:  v2012                                 |
|   \\  /    A nd           | Website:  www.openfoam.com                      |
|    \\/     M anipulation  |                                                 |
\*---------------------------------------------------------------------------*/
FoamFile
{
    version     2.0;
    format      ascii;
    class       volVectorField;
    location    "174";
    object      U;
}
// * * * * * * * * * * * * * * * * * * * * * * * * * * * * * * * * * * * * * //

dimensions      [0 1 -1 0 0 0 0];


internalField   nonuniform List<vector> 
19523
(
(5.0002416 0.00035574303 -0.00085143244)
(5.0002382 0.00011627082 -0.00086527768)
(5.0000333 4.0069181e-05 -0.00028462016)
(5.0000454 3.9692712e-05 -9.8373942e-05)
(5.0000441 0.00011621402 -9.518976e-05)
(5.0000433 0.00019507722 -9.6561681e-05)
(5.0000434 0.00027113588 -9.2163898e-05)
(5.0000452 0.00034451628 -9.1263721e-05)
(5.000047 0.00040188058 -8.6474241e-05)
(5.0000507 0.00044377941 -8.1893121e-05)
(5.0000537 0.0004628272 -7.688341e-05)
(5.0000573 0.00045967091 -7.1598148e-05)
(5.0000603 0.00043475561 -6.7166069e-05)
(5.0000632 0.00038920071 -6.2097844e-05)
(5.0000659 0.00033016548 -5.9788609e-05)
(5.000066 0.00025833949 -5.6711151e-05)
(5.0000682 0.00018592339 -5.7144026e-05)
(5.0000668 0.00011206489 -5.7123802e-05)
(5.0000732 3.8760406e-05 -5.8920573e-05)
(5.000065 3.7428426e-05 -0.00017059318)
(5.0000678 3.6315955e-05 -0.00028574969)
(5.0000663 3.6264339e-05 -0.00040287621)
(5.0000681 3.8734135e-05 -0.00052818094)
(5.000067 4.1560818e-05 -0.00064613918)
(5.0000662 4.7524113e-05 -0.00076159995)
(5.0000661 5.2768321e-05 -0.00086524751)
(5.0000666 5.9006046e-05 -0.00095892474)
(5.0000682 6.4928066e-05 -0.0010405417)
(5.0000704 7.1134592e-05 -0.0011107913)
(5.0000732 7.7721601e-05 -0.0011700595)
(5.0000764 8.4804439e-05 -0.0012191704)
(5.0000801 9.2360746e-05 -0.0012589567)
(5.0000843 0.00010038606 -0.0012903144)
(5.0000891 0.00010887632 -0.001314076)
(5.0000944 0.00011784894 -0.0013309402)
(4.9999308 0.00014016221 -0.0025600018)
(4.9999388 0.0001279937 -0.0024612221)
(4.9999465 0.0001167847 -0.0023624708)
(4.9999542 0.0001064359 -0.0022618314)
(4.9999619 9.676602e-05 -0.0021565687)
(4.9999699 8.7696342e-05 -0.0020440928)
(4.999978 7.9200812e-05 -0.0019214289)
(4.9999865 7.1409031e-05 -0.0017857419)
(4.9999967 6.4620189e-05 -0.0016352901)
(5.000005 5.9332734e-05 -0.0014682307)
(5.0000141 5.5457429e-05 -0.0012871801)
(5.0000236 5.3927697e-05 -0.001088175)
(5.0000302 5.1705374e-05 -0.00088681766)
(5.0000327 4.7113722e-05 -0.00067464903)
(5.000036 4.5813642e-05 -0.00047741518)
(5.0002255 0.00012234931 -0.0014561273)
(5.0002023 0.00013037367 -0.0020796514)
(5.0001745 0.00014289026 -0.0027190071)
(5.0001327 0.00015439322 -0.0033501781)
(5.0000833 0.00016529119 -0.0039530115)
(5.0000271 0.00017869046 -0.0045135144)
(4.9999646 0.00019447056 -0.0050240334)
(4.9999011 0.00021427743 -0.0054840823)
(4.9998373 0.00023716176 -0.0058985972)
(4.9997748 0.00026231658 -0.0062732834)
(4.9997141 0.00028946916 -0.0066165458)
(4.9996551 0.00031859818 -0.0069376707)
(4.9995974 0.00034989902 -0.007245483)
(4.9995394 0.00038377009 -0.0075480363)
(4.9994794 0.00042051404 -0.0078512456)
(5.1687328 -0.00049149504 0.01568241)
(5.1805663 -0.0002658464 0.013107364)
(5.1906146 -2.344762e-06 0.010020023)
(5.1985386 0.00029611351 0.0064055376)
(5.2039507 0.00063124256 0.0022691928)
(5.206388 0.0010032615 -0.0023539679)
(5.2055711 0.0013791617 -0.0072905422)
(5.2010352 0.0018086161 -0.01297469)
(5.1926345 0.0022374855 -0.018640674)
(5.1801834 0.0026417707 -0.024006994)
(5.1640086 0.0029909621 -0.028483094)
(5.1450573 0.0032327398 -0.031237067)
(5.1252934 0.0033255537 -0.03187683)
(5.106127 0.0032804339 -0.03080288)
(5.0885352 0.0031278319 -0.028560092)
(5.0730333 0.0029028791 -0.025670194)
(5.0597418 0.0026364974 -0.022554929)
(5.0485545 0.0023536601 -0.019499499)
(5.0392418 0.0020720845 -0.016669397)
(5.0315331 0.0018032658 -0.014140978)
(5.0251619 0.0015535917 -0.011931828)
(5.01989 0.0013256398 -0.010025059)
(5.0155165 0.0011192331 -0.0083861919)
(5.0118801 0.00093289022 -0.0069749784)
(5.0088568 0.00076475936 -0.0057514077)
(5.0063592 0.00061493361 -0.0046823676)
(5.0043294 0.00048269722 -0.0037366551)
(5.0027353 0.00037072197 -0.0029001533)
(5.0015476 0.00027491632 -0.0021492048)
(5.0007287 0.00019237078 -0.0014800647)
(5.0006826 0.00019756696 -0.0025091045)
(5.0006149 0.00021140571 -0.0035937737)
(5.000521 0.00023198383 -0.0047029626)
(5.0003944 0.00025383876 -0.005797683)
(5.0002423 0.00027605719 -0.0068403158)
(5.0000692 0.00030160141 -0.0078079762)
(4.9998814 0.0003316013 -0.0086877086)
(4.9996862 0.00036728449 -0.009478877)
(4.9994891 0.00040779034 -0.010188851)
(4.999295 0.00045217153 -0.010828944)
(4.9991066 0.00050003376 -0.011414454)
(4.998924 0.00055133909 -0.011962325)
(4.9987454 0.00060641183 -0.012488984)
(4.9985664 0.0006658767 -0.013008874)
(4.9983809 0.0007303387 -0.013532622)
(5.6709302 -0.21626533 0.10838716)
(5.687758 -0.19826358 0.10869013)
(5.6956438 -0.18402711 0.11171614)
(5.6971238 -0.17927714 0.11192512)
(5.7015574 -0.17269313 0.112013)
(5.7053 -0.16737491 0.11213161)
(5.708828 -0.16055887 0.11279187)
(5.7133735 -0.1556035 0.11353537)
(5.7185401 -0.15016452 0.11308744)
(5.7236239 -0.14475291 0.11356509)
(5.7372316 -0.13324074 0.11758429)
(5.7513185 -0.10986813 0.11932265)
(5.7582295 -0.092412002 0.12256991)
(5.760698 -0.085844987 0.12218374)
(5.7766717 -0.070632698 0.12596386)
(5.7916518 -0.047408052 0.1268198)
(5.7976999 -0.034155201 0.1267727)
(5.8013141 -0.025176771 0.12666276)
(5.8125148 -0.0065643891 0.130524)
(5.8227351 0.018168691 0.13748548)
(5.8294545 0.034197182 0.14515421)
(5.8325848 0.056018921 0.14494805)
(5.844373 0.088571314 0.15125729)
(5.8545678 0.12965573 0.15722444)
(5.8604107 0.17272208 0.16334343)
(5.8669202 0.21451402 0.16675444)
(5.8763367 0.25220754 0.17321158)
(5.8680756 0.28480464 0.17228338)
(5.8703857 0.31576279 0.17639482)
(5.8713613 0.38782913 0.18365748)
(5.8680091 0.43699208 0.18607809)
(5.8666751 0.50955171 0.18955106)
(5.8558807 0.58133168 0.19068263)
(5.8427829 0.65599003 0.18924048)
(5.826732 0.73982315 0.18621271)
(5.8061622 0.83167235 0.18268635)
(5.7770965 0.93367795 0.17447632)
(5.7335699 1.0378846 0.16109589)
(5.7083492 1.1165385 0.1484031)
(5.6383931 1.2250465 0.12391512)
(5.5679045 1.3803827 0.10357822)
(5.4751271 1.5500319 0.07278548)
(5.3248604 1.7395739 0.018435136)
(5.2033936 1.8777588 -0.043442581)
(4.8745762 2.1969985 -0.15292174)
(4.5293812 2.3975307 -0.30287836)
(4.0405884 2.4235935 -0.54447079)
(3.0244056 2.263732 -0.9187482)
(2.1622615 0.95463301 -1.2427772)
(2.4803177 0.11045451 -1.0190279)
(2.7127042 0.027926815 -1.0005493)
(3.6579556 0.097682305 -0.55704876)
(4.1505711 0.11355736 -0.37746778)
(4.3887726 0.068565494 -0.29057159)
(4.5434026 0.045335555 -0.24144486)
(4.682881 0.03772071 -0.18217005)
(4.7789902 0.032329907 -0.14846435)
(4.8407917 0.021480456 -0.12525991)
(4.8842377 0.015197638 -0.10725326)
(4.9151803 0.01093833 -0.092329635)
(4.9377958 0.0080495813 -0.079563108)
(4.9546201 0.0060311062 -0.068422164)
(4.9672703 0.0045770647 -0.05849095)
(4.9768542 0.0035020764 -0.049494311)
(4.9841285 0.0026858575 -0.04122555)
(4.9896096 0.0020464718 -0.033545318)
(4.9936478 0.0015275668 -0.026378259)
(4.9964985 0.0010947363 -0.019704461)
(5.0684629 0.0048600658 -0.022157223)
(5.0645227 0.0045959878 -0.022853801)
(5.0608064 0.0043366785 -0.023510954)
(5.0573499 0.0040802877 -0.024110857)
(5.0541869 0.0038246352 -0.024621617)
(5.0513456 0.003567658 -0.024996671)
(5.0488461 0.0033080429 -0.025176604)
(5.0466964 0.0030458234 -0.025093944)
(5.0448905 0.0027827659 -0.024680607)
(5.0434087 0.002522361 -0.023876617)
(5.0422202 0.0022695153 -0.022638179)
(5.0412878 0.0020303323 -0.020943648)
(5.0405729 0.001812247 -0.018798641)
(5.0400394 0.0016239419 -0.016244958)
(5.0396561 0.0014734689 -0.01337062)
(5.0393975 0.001365951 -0.010311875)
(5.0392451 0.0013034541 -0.0072254658)
(5.0391853 0.0012849152 -0.0042431963)
(5.039207 0.0012965979 -0.001390926)
(5.03226 0.0011371685 -0.0012827764)
(5.0260198 0.00098566361 -0.0011671955)
(5.0204733 0.00084525548 -0.0010481185)
(5.0155986 0.00071755365 -0.00092774793)
(5.0113973 0.0006012666 -0.00080565053)
(5.0078604 0.00049317268 -0.00068014605)
(5.0050275 0.00039186755 -0.00055451135)
(5.0028784 0.00029012656 -0.00042097159)
(5.0013807 0.00020276844 -0.0002997707)
(5.0004737 0.00011421898 -0.00017284653)
(5.0004544 0.0001146376 -0.0005151143)
(5.0013647 0.0002005301 -0.00087157501)
(5.0028645 0.00029506562 -0.001239218)
(5.0050105 0.0004005827 -0.0016265022)
(5.0078385 0.00050593191 -0.0020207965)
(5.0113557 0.00060971268 -0.0024217789)
(5.0155494 0.00071909382 -0.0028173592)
(5.0204177 0.00084146878 -0.0032027755)
(5.0259688 0.00097816126 -0.0035719846)
(5.0322203 0.0011270102 -0.0039210269)
(5.0322496 0.0011419321 -0.006680554)
(5.0323474 0.0011923096 -0.0095432065)
(5.0325218 0.0012800128 -0.012392763)
(5.0327876 0.0014041984 -0.015089646)
(5.0331678 0.0015607426 -0.017513358)
(5.0336903 0.0017427554 -0.019586251)
(5.0343867 0.0019430248 -0.021271699)
(5.0352901 0.0021558303 -0.022564103)
(5.0364325 0.0023768535 -0.0234805)
(5.0378401 0.0026026888 -0.024055222)
(5.0395308 0.0028309215 -0.024335466)
(5.0415114 0.0030602949 -0.024375125)
(5.0437774 0.0032907519 -0.024228223)
(5.0463146 0.003523211 -0.023943088)
(5.0491015 0.0037591757 -0.023558325)
(5.0521115 0.0040002903 -0.023100964)
(5.0553156 0.004248005 -0.022586439)
(5.0412802 0.0034365256 -0.022659528)
(5.038899 0.003218347 -0.022951728)
(5.0367029 0.0030065801 -0.023162465)
(5.0347124 0.0027999848 -0.023269364)
(5.0329435 0.0025974555 -0.023240974)
(5.0314064 0.0023983324 -0.023038513)
(5.0301031 0.0022026493 -0.022619206)
(5.0290268 0.00201126 -0.021940768)
(5.0281624 0.0018257949 -0.020966455)
(5.0274877 0.0016485344 -0.019669515)
(5.0269766 0.0014824956 -0.018036857)
(5.0266014 0.001332091 -0.016074102)
(5.0263357 0.0012033379 -0.013813279)
(5.0261554 0.0011020467 -0.011322426)
(5.0260404 0.0010314427 -0.0087069448)
(5.0259793 0.00099101717 -0.006090048)
(5.020418 0.00085397981 -0.0054659596)
(5.0204561 0.000886562 -0.0078210533)
(5.0205312 0.00094235607 -0.010182913)
(5.0206513 0.0010238913 -0.012444319)
(5.0208336 0.0011285573 -0.014514612)
(5.0210979 0.0012515402 -0.016334551)
(5.0214657 0.00138779 -0.017876199)
(5.0219592 0.001533879 -0.019133941)
(5.0225992 0.0016877384 -0.020117547)
(5.0234036 0.0018478881 -0.020847713)
(5.024385 0.0020132796 -0.021352758)
(5.0255494 0.0021833564 -0.021665516)
(5.0268961 0.0023581193 -0.021819483)
(5.0284183 0.0025380556 -0.021845346)
(5.0301041 0.0027239804 -0.021768282)
(5.031938 0.002916826 -0.021606394)
(5.0239766 0.002446579 -0.020017318)
(5.0226093 0.0022797669 -0.020082032)
(5.0213558 0.0021198381 -0.020063192)
(5.0202275 0.0019660969 -0.019946498)
(5.019233 0.0018179467 -0.019712164)
(5.0183769 0.0016750227 -0.019336272)
(5.0176592 0.0015372917 -0.018792935)
(5.0170747 0.0014050992 -0.018056982)
(5.0166135 0.0012790643 -0.017106801)
(5.0162616 0.0011602362 -0.015926564)
(5.0160031 0.0010498794 -0.014509124)
(5.0158208 0.00095071028 -0.012860144)
(5.0156978 0.00086711198 -0.011003946)
(5.0156186 0.00080309615 -0.0089914486)
(5.0155704 0.00076059641 -0.0068983869)
(5.0155466 0.0007337011 -0.0048161821)
(5.0113538 0.00062718765 -0.0041475306)
(5.011369 0.00065128548 -0.0059464683)
(5.0113987 0.00068403446 -0.0077595371)
(5.0114491 0.00073210639 -0.0095085086)
(5.0115294 0.00079695664 -0.01113068)
(5.0116512 0.00087540342 -0.012584541)
(5.0118268 0.00096323046 -0.013849216)
(5.0120691 0.0010581409 -0.014918895)
(5.0123899 0.0011596274 -0.015798682)
(5.0127993 0.0012667986 -0.016500588)
(5.0133048 0.0013793351 -0.017040795)
(5.0139104 0.0014970811 -0.017438352)
(5.0146165 0.0016200999 -0.017712952)
(5.0154199 0.0017486674 -0.017882918)
(5.0163148 0.0018832129 -0.01796349)
(5.0111483 0.0015258362 -0.015486594)
(5.0105433 0.0014158632 -0.015374249)
(5.0100014 0.0013113832 -0.015183678)
(5.0095264 0.001212105 -0.014903414)
(5.0091203 0.0011178206 -0.0145197)
(5.0087825 0.0010284219 -0.014017814)
(5.0085102 0.00094385848 -0.013383514)
(5.0082981 0.00086410078 -0.012604654)
(5.0081393 0.00078923112 -0.011672618)
(5.0080254 0.00071984022 -0.010584301)
(5.0079476 0.00065809887 -0.0093448766)
(5.0078974 0.00060774465 -0.0079716731)
(5.0078672 0.00057103709 -0.0064984428)
(5.0078491 0.00054534311 -0.0049759022)
(5.007839 0.00052383326 -0.0034683995)
(5.0050094 0.00041584413 -0.0027888197)
(5.0050155 0.00043344176 -0.004001143)
(5.0050262 0.00045270985 -0.0052280651)
(5.0050435 0.00047986656 -0.006418429)
(5.0050732 0.00051803505 -0.007532246)
(5.0051201 0.00056557631 -0.0085431026)
(5.0051895 0.00061918543 -0.0094370873)
(5.0052869 0.00067692665 -0.010209699)
(5.0054175 0.00073846473 -0.010862843)
(5.0055858 0.00080390913 -0.011402728)
(5.0057955 0.00087336846 -0.011838134)
(5.0060484 0.00094695124 -0.012179364)
(5.0063451 0.0010247697 -0.012437145)
(5.0066843 0.0011069793 -0.012621496)
(5.0070637 0.0011937923 -0.012740791)
(5.004009 0.00088198122 -0.0098401427)
(5.0037952 0.00081688511 -0.0097330002)
(5.0036042 0.00075529145 -0.0095752251)
(5.0034374 0.00069703972 -0.0093609658)
(5.0032953 0.00064201756 -0.0090832002)
(5.0031777 0.00059014714 -0.008734442)
(5.0030834 0.00054135748 -0.008307559)
(5.0030105 0.00049563751 -0.0077964216)
(5.0029564 0.0004528131 -0.0071965986)
(5.002918 0.00041288129 -0.0065069923)
(5.0028925 0.00037751027 -0.0057312364)
(5.002877 0.00034935455 -0.0048800289)
(5.0028691 0.00032995208 -0.0039730937)
(5.0028638 0.00031664013 -0.0030408411)
(5.0028615 0.00030478721 -0.0021210561)
(5.0013605 0.00020226326 -0.0014792166)
(5.0013593 0.0002080381 -0.0021150448)
(5.0013619 0.00021702232 -0.0027608736)
(5.0013645 0.0002310365 -0.003391751)
(5.0013717 0.00025159879 -0.0039855295)
(5.0013835 0.00027654768 -0.0045283243)
(5.0014017 0.00030459991 -0.0050122859)
(5.0014275 0.00033440492 -0.005435071)
(5.0014622 0.00036600922 -0.0057973465)
(5.0015071 0.00039959311 -0.0061018692)
(5.001563 0.00043530433 -0.006352627)
(5.0016304 0.0004732085 -0.0065543169)
(5.0017095 0.00051336181 -0.0067118409)
(5.0018001 0.00055583171 -0.0068298055)
(5.0019014 0.00060073547 -0.0069120255)
(5.0006359 0.0003512012 -0.0040622003)
(5.0006016 0.00032462837 -0.0040115624)
(5.000571 0.000299496 -0.0039398805)
(5.0005441 0.0002757256 -0.0038449815)
(5.0005211 0.0002532945 -0.0037242793)
(5.0005019 0.0002321798 -0.0035750132)
(5.0004862 0.00021235992 -0.0033945501)
(5.000474 0.00019366881 -0.0031806346)
(5.0004649 0.00017593366 -0.002931756)
(5.0004587 0.00015874082 -0.0026474802)
(5.000455 0.00014359716 -0.0023293585)
(5.0004526 0.00013010679 -0.0019817742)
(5.0004527 0.00012184073 -0.0016135127)
(5.0004501 0.00011663644 -0.0012370092)
(5.0004526 0.00011459249 -0.00086748943)
(5.000439 0.00034205926 -0.00087275125)
(5.0000597 0.00011537347 -0.00028789597)
(5.0000592 0.00011274189 -0.00017131284)
(5.0000589 0.00018807677 -0.00017419599)
(5.0000592 0.00019320494 -0.0002939182)
(5.0000612 0.00020196752 -0.00042291298)
(5.0000605 0.00011973456 -0.0004111448)
(5.0000619 0.00012666989 -0.0005373353)
(5.0000617 0.00013583425 -0.00065928436)
(5.0000608 0.00014683258 -0.00077484514)
(5.0000601 0.00016046018 -0.00088052936)
(5.0000599 0.00017591525 -0.00097544358)
(5.0000604 0.0001932832 -0.0010587234)
(5.0000615 0.00021215695 -0.0011304828)
(5.0000631 0.00023238483 -0.0011910919)
(5.0000653 0.00025388556 -0.001241349)
(5.0000679 0.00027666687 -0.0012821782)
(5.000071 0.00030075734 -0.001314508)
(5.0000746 0.00032622009 -0.0013392065)
(5.0000786 0.00035312655 -0.0013569797)
(5.000077 0.00060150668 -0.0014049833)
(5.0000731 0.0005556246 -0.0013853718)
(5.0000696 0.00051223465 -0.0013588209)
(5.0000666 0.00047120504 -0.0013245982)
(5.0000642 0.00043244553 -0.0012817943)
(5.0000623 0.0003959097 -0.0012294334)
(5.000061 0.00036162054 -0.0011666004)
(5.0000602 0.00032969429 -0.001092523)
(5.0000601 0.00030029312 -0.0010065651)
(5.0000607 0.00027375931 -0.0009086685)
(5.0000619 0.00025034438 -0.00079941629)
(5.0000629 0.00023067132 -0.00068051273)
(5.0000628 0.00021457056 -0.00055381343)
(5.0000642 0.00030708823 -0.00057586131)
(5.0000624 0.00028847129 -0.00043890174)
(5.0000598 0.00027450215 -0.00030374101)
(5.0000586 0.00026505012 -0.00017869787)
(5.0000581 0.00033809757 -0.00018600214)
(5.0000596 0.00035126038 -0.00031662844)
(5.0000624 0.0003701398 -0.00045805013)
(5.0000642 0.00039445308 -0.00060129902)
(5.000064 0.00042481275 -0.00073946875)
(5.0000642 0.00033050334 -0.00070800551)
(5.0000629 0.00035912818 -0.00083188717)
(5.0000613 0.00039282364 -0.00094558399)
(5.0000603 0.0004310722 -0.0010476411)
(5.0000601 0.00047333804 -0.0011374338)
(5.0000607 0.00051924157 -0.0012150802)
(5.0000618 0.00056854864 -0.0012811672)
(5.0000636 0.00062114383 -0.0013365615)
(5.0000659 0.00067700418 -0.0013822837)
(5.0000688 0.00073619585 -0.001419386)
(5.0000722 0.0007988671 -0.0014488374)
(5.0000761 0.00086521537 -0.0014714207)
(5.0000725 0.0011189833 -0.0015514721)
(5.0000688 0.0010324651 -0.0015246829)
(5.0000656 0.00095086967 -0.0014912273)
(5.0000629 0.00087390716 -0.0014502704)
(5.0000608 0.00080136499 -0.0014007602)
(5.0000593 0.00073313608 -0.0013415406)
(5.0000585 0.00066923321 -0.0012714798)
(5.0000582 0.00060979034 -0.0011896034)
(5.0000588 0.00055507877 -0.0010952353)
(5.0000602 0.00050554988 -0.00098818932)
(5.0000622 0.00046189044 -0.00086910055)
(5.0000592 0.00054862945 -0.00091186173)
(5.0000615 0.00050420773 -0.00077560114)
(5.0000621 0.00046787055 -0.00063056064)
(5.0000604 0.00043873147 -0.0004802677)
(5.0000577 0.00041592966 -0.00033183821)
(5.0000559 0.00039967296 -0.0001945742)
(5.0000529 0.00044523686 -0.00020487855)
(5.0000545 0.00046327748 -0.00034967012)
(5.000057 0.00048898122 -0.0005061923)
(5.0000584 0.00052183635 -0.00066467635)
(5.0000572 0.00056283428 -0.00081777031)
(5.0000543 0.00061299545 -0.00096179187)
(5.0000508 0.00067216225 -0.0010945256)
(5.0000566 0.00060098156 -0.0010372353)
(5.0000546 0.00066040612 -0.0011501326)
(5.0000534 0.00072607736 -0.0012499148)
(5.000053 0.00079746148 -0.0013368373)
(5.0000533 0.00087426173 -0.0014116996)
(5.0000543 0.000956346 -0.0014756157)
(5.0000558 0.0010437309 -0.0015298614)
(5.0000579 0.0011365797 -0.0015757266)
(5.0000606 0.0012351918 -0.0016143708)
(5.0000638 0.0013399598 -0.0016466935)
(5.00005 0.0015121874 -0.001759723)
(5.0000477 0.0013923595 -0.0017205088)
(5.0000459 0.0012798423 -0.0016754549)
(5.0000447 0.0011741227 -0.0016235745)
(5.0000441 0.0010748008 -0.0015635759)
(5.0000441 0.00098162643 -0.0014940006)
(5.0000447 0.00089455253 -0.0014133952)
(5.0000459 0.00081369791 -0.0013204759)
(5.000048 0.00073937213 -0.0012143002)
(5.0000398 0.00078641295 -0.0012868348)
(5.0000438 0.00071413228 -0.0011592652)
(5.0000482 0.00065055311 -0.0010182032)
(5.000052 0.00059668779 -0.00086539309)
(5.0000538 0.0005526912 -0.00070316038)
(5.0000529 0.00051747815 -0.00053537874)
(5.0000506 0.00049002057 -0.0003698057)
(5.0000493 0.00047083295 -0.00021665496)
(5.0000455 0.00047420292 -0.0002290364)
(5.0000466 0.0004937641 -0.00039120012)
(5.0000485 0.00052177433 -0.00056649041)
(5.0000489 0.00055775398 -0.00074421085)
(5.0000464 0.00060276039 -0.00091622123)
(5.0000417 0.00065790087 -0.0010784328)
(5.0000361 0.00072302594 -0.0012284091)
(5.000031 0.00079712494 -0.0013643376)
(5.0000265 0.00087920533 -0.0014856002)
(5.0000367 0.00086641521 -0.001400283)
(5.0000343 0.00095351799 -0.0015000533)
(5.0000325 0.0010474098 -0.0015872496)
(5.0000314 0.0011480312 -0.0016633348)
(5.0000307 0.0012554805 -0.0017299913)
(5.0000307 0.0013700646 -0.0017888951)
(5.0000312 0.0014923172 -0.0018414855)
(5.0000321 0.0016228654 -0.0018888466)
(5.000009 0.0016610425 -0.0020285151)
(5.0000102 0.0015252279 -0.0019720149)
(5.0000119 0.001398385 -0.0019110153)
(5.0000142 0.0012798366 -0.0018443357)
(5.000017 0.0011688798 -0.0017703392)
(5.0000196 0.0010651987 -0.0016870968)
(5.0000228 0.00096863107 -0.0015927464)
(5.0000106 0.00093706362 -0.0016868599)
(5.0000163 0.00084957096 -0.0015721068)
(5.0000221 0.00076941917 -0.0014429044)
(5.0000286 0.00069711239 -0.0012984865)
(5.0000353 0.00063360983 -0.0011394672)
(5.0000411 0.00057986899 -0.00096772034)
(5.0000442 0.00053604734 -0.00078579061)
(5.0000443 0.00050105111 -0.00059798242)
(5.0000428 0.00047382772 -0.00041286374)
(5.0000419 0.00045480509 -0.00024177241)
(5.0000387 0.00041335938 -0.00025305242)
(5.0000396 0.00043122619 -0.00043330691)
(5.000041 0.00045636723 -0.00062803568)
(5.0000404 0.00048864867 -0.00082557794)
(5.0000365 0.00052909554 -0.0010170489)
(5.00003 0.00057886544 -0.0011979349)
(5.0000221 0.00063760989 -0.001365592)
(5.0000144 0.00070448438 -0.0015181273)
(5.0000068 0.00077857446 -0.0016550562)
(4.999999 0.00085927728 -0.0017772531)
(4.9999944 0.00094707246 -0.0018863329)
(5.0000045 0.0010317034 -0.0017886622)
(5.0000002 0.0011334108 -0.0018793927)
(4.9999975 0.0012424648 -0.0019611039)
(4.9999952 0.0013592704 -0.0020360077)
(4.9999933 0.0014844782 -0.0021059517)
(4.9999916 0.0016189328 -0.0021721594)
(4.9999716 0.0014945616 -0.0023111891)
(4.9999757 0.0013686854 -0.0022351901)
(4.9999798 0.0012518032 -0.0021564561)
(4.9999843 0.0011429641 -0.0020734926)
(4.9999892 0.001041578 -0.0019842571)
(4.9999789 0.00089672367 -0.0020746023)
(4.9999855 0.00081469308 -0.0019702658)
(4.9999928 0.00073862827 -0.0018545965)
(5.0000006 0.00066845227 -0.0017258418)
(5.0000096 0.00060478185 -0.0015826471)
(5.0000182 0.00054743748 -0.0014232774)
(5.0000266 0.00049666059 -0.0012483319)
(5.0000334 0.00045344165 -0.0010595265)
(5.0000376 0.00041827244 -0.00085969843)
(5.0000385 0.00039036868 -0.00065385941)
(5.0000374 0.00036873371 -0.00045120986)
(5.0000365 0.00035363669 -0.00026416007)
(5.0000349 0.00027931776 -0.00027114932)
(5.0000357 0.00029094517 -0.00046362005)
(5.0000365 0.0003077384 -0.00067132108)
(5.0000354 0.00032974273 -0.0008826922)
(5.0000316 0.00035752949 -0.001088212)
(5.000025 0.00039170875 -0.0012822879)
(5.0000163 0.00043175919 -0.0014617267)
(5.0000064 0.00047672732 -0.0016254992)
(4.9999981 0.00052745909 -0.0017740076)
(4.9999875 0.00058350189 -0.0019076245)
(4.9999794 0.00064397441 -0.002027491)
(4.999972 0.00070922747 -0.0021363618)
(4.9999651 0.00077950924 -0.0022372748)
(4.9999728 0.0009849396 -0.0021705958)
(4.999967 0.001079788 -0.0022608517)
(4.9999614 0.0011819227 -0.0023476179)
(4.9999558 0.0012921938 -0.0024325513)
(4.9999452 0.0010253342 -0.0025177777)
(4.9999519 0.00093694975 -0.0024259202)
(4.9999584 0.00085524319 -0.0023330146)
(4.9999527 0.00060291827 -0.002365996)
(4.9999599 0.00054934979 -0.0022673209)
(4.9999674 0.00049964272 -0.0021637287)
(4.9999752 0.00045349446 -0.0020522008)
(4.9999836 0.00041072984 -0.0019299121)
(4.9999939 0.00037128656 -0.0017941864)
(5.0000039 0.00033497364 -0.0016430124)
(5.0000133 0.00030278687 -0.0014766849)
(5.0000221 0.00027465654 -0.001295365)
(5.0000286 0.00025057619 -0.0010991852)
(5.0000326 0.00023162869 -0.0008917327)
(5.000034 0.00021623323 -0.00067896405)
(5.0000337 0.00020524659 -0.0004707686)
(5.0000335 0.00019844212 -0.00027799093)
(5.0000328 0.00011784495 -0.00028197886)
(5.0000327 0.00012101824 -0.0004745629)
(5.0000315 0.00012573785 -0.0006790061)
(5.0000295 0.00013539692 -0.00088917945)
(5.0000245 0.0001454422 -0.0010941923)
(5.0000175 0.00016022408 -0.0012907501)
(5.000009 0.00017654626 -0.001471973)
(5.0000003 0.00019650327 -0.0016384579)
(4.9999893 0.0002176364 -0.0017896077)
(4.9999803 0.00024063389 -0.0019253412)
(4.9999719 0.00026553669 -0.0020478964)
(4.9999639 0.00029247874 -0.0021599799)
(4.9999562 0.00032155047 -0.0022646277)
(4.9999486 0.00035296396 -0.002365056)
(4.9999411 0.00038697295 -0.0024636001)
(4.9999456 0.00066079313 -0.00246229)
(4.9999383 0.00072348957 -0.0025580497)
(4.9999333 0.00042387854 -0.0025620838)
(4.9994856 0.0012718874 -0.0078692077)
(5.0833025 0.0054763023 -0.020943715)
(5.0785651 0.0052045147 -0.02184682)
(5.0740757 0.0049346321 -0.022735318)
(5.0698783 0.0046642863 -0.023589423)
(5.0660146 0.0043905766 -0.024372447)
(5.0625213 0.004110646 -0.025029259)
(5.0594256 0.0038225717 -0.02548785)
(5.0567409 0.0035262565 -0.025664892)
(5.0544638 0.0032240801 -0.025475145)
(5.0525732 0.0029209602 -0.024843106)
(5.0510347 0.0026238263 -0.023713542)
(5.0498065 0.0023411153 -0.022059226)
(5.0488449 0.0020825049 -0.019886071)
(5.0481105 0.0018584722 -0.017241677)
(5.0475701 0.0016783618 -0.01422523)
(5.0471964 0.0015483524 -0.010989229)
(5.0469676 0.0014716591 -0.0077083084)
(5.0468634 0.0014479054 -0.0045293616)
(5.0468609 0.0014599795 -0.0014873706)
(5.0551973 0.001622574 -0.0015676615)
(5.0641642 0.001778447 -0.0016267763)
(5.0736736 0.0019201321 -0.0016593908)
(5.0836027 0.0020401007 -0.001658658)
(5.0937756 0.0021295804 -0.0016191079)
(5.1040028 0.0021785876 -0.0015337953)
(5.1140157 0.0021782729 -0.0013973118)
(5.1235201 0.0021261713 -0.0012077698)
(5.1322565 0.0020188728 -0.0009651293)
(5.139886 0.0018596972 -0.00067476106)
(5.1462138 0.0016514056 -0.00033857487)
(5.1508979 0.0014091106 2.5076326e-05)
(5.1539512 0.0011105859 0.00045143698)
(5.1548185 0.00083015697 0.00084421495)
(5.1542361 0.00058624104 0.0011774964)
(5.1518527 0.00031228946 0.0015480067)
(5.1477462 5.466671e-05 0.0018951585)
(5.1421023 -0.00017516594 0.0022044892)
(5.1351008 -0.00037198528 0.0024700062)
(5.1560939 -0.0015764136 0.043363313)
(5.1508163 -0.0011787626 0.037589541)
(5.1461626 -0.00086987687 0.031442964)
(5.1422878 -0.00064703691 0.025156288)
(5.1392925 -0.00050404007 0.018960815)
(5.1371746 -0.00042435737 0.013060531)
(5.1358243 -0.00038842055 0.0075748631)
(5.1429035 -0.0001912792 0.0067664457)
(5.1444029 -0.00021932755 0.011684014)
(5.1467695 -0.0002792199 0.017000198)
(5.1501294 -0.00039167075 0.022622463)
(5.154486 -0.00057510341 0.028385288)
(5.1597267 -0.00083653282 0.034093649)
(5.1656781 -0.0011795212 0.039543797)
(5.1721501 -0.0016010542 0.0445348)
(5.1789506 -0.0021000834 0.04886136)
(5.18589 -0.0026591982 0.052313578)
(5.192794 -0.0032449515 0.054745289)
(5.1994994 -0.0038081561 0.056113414)
(5.2059074 -0.004310728 0.056522316)
(5.2119403 -0.0047356785 0.056148273)
(5.2175671 -0.0050790625 0.055189261)
(5.2227802 -0.0053523724 0.053838224)
(5.2275948 -0.0055715367 0.052235385)
(5.2320395 -0.0057518521 0.050479289)
(5.2361455 -0.0059074495 0.04862945)
(5.2399454 -0.0060495201 0.046707274)
(5.2554693 -0.0053016656 0.046088738)
(5.2512863 -0.0051279127 0.047715268)
(5.2467704 -0.0049421219 0.049219907)
(5.241886 -0.00473452 0.050581346)
(5.2365982 -0.0044929021 0.05174004)
(5.2308726 -0.0042055628 0.052607815)
(5.22469 -0.0038597933 0.053061523)
(5.2180532 -0.0034470954 0.052932073)
(5.2109938 -0.002974634 0.052058923)
(5.2035936 -0.0024589056 0.050302818)
(5.1959649 -0.0019395375 0.047605439)
(5.1882916 -0.001457566 0.044049926)
(5.1807757 -0.0010396674 0.039793339)
(5.17363 -0.00069680826 0.035044672)
(5.1670684 -0.00042485378 0.029992665)
(5.1613 -0.00022431366 0.024811352)
(5.1565129 -9.0487964e-05 0.019669478)
(5.152829 -1.5590504e-05 0.0147201)
(5.1502432 2.0341563e-05 0.010085665)
(5.1486146 3.8718888e-05 0.0058289427)
(5.1527777 0.00029568932 0.0047834127)
(5.1545074 0.00028918298 0.0083012636)
(5.1572687 0.00028078599 0.012169035)
(5.1612163 0.00024959723 0.016358011)
(5.1663576 0.00017463528 0.020792119)
(5.1725645 4.7392332e-05 0.025365023)
(5.1796394 -0.00013821856 0.029948281)
(5.1873586 -0.00038487799 0.034399953)
(5.1954926 -0.0007028261 0.038551754)
(5.2038101 -0.0010889013 0.042199535)
(5.2120865 -0.0015256769 0.045174118)
(5.2201216 -0.0019819168 0.047345908)
(5.2277898 -0.0024162671 0.048719258)
(5.2350071 -0.0028120709 0.049390205)
(5.2417395 -0.0031581012 0.049478114)
(5.2479878 -0.0034589073 0.049126085)
(5.2537728 -0.0037234283 0.048440476)
(5.2591315 -0.0039588712 0.047499018)
(5.2641013 -0.0041756956 0.046363297)
(5.2687176 -0.0043820172 0.045055146)
(5.2792232 -0.0033062512 0.043558256)
(5.2741242 -0.0030685295 0.044531239)
(5.2686582 -0.0028216804 0.04528269)
(5.2627934 -0.0025599521 0.045789067)
(5.2564878 -0.0022738348 0.045986987)
(5.2497061 -0.0019616068 0.045808877)
(5.2424321 -0.0016185588 0.045163221)
(5.2346662 -0.0012448659 0.043934189)
(5.2264462 -0.00085643544 0.042045787)
(5.2178582 -0.00047102358 0.03945058)
(5.2090403 -0.0001313181 0.036204134)
(5.2002025 0.00014236558 0.032486037)
(5.1915835 0.0003440695 0.028478521)
(5.1834255 0.00047952941 0.024376911)
(5.1759663 0.0005657696 0.020325731)
(5.1694364 0.00060918342 0.016430772)
(5.1640373 0.00061739016 0.012776704)
(5.1598987 0.00059964864 0.0094192409)
(5.1570108 0.00057712679 0.0063848887)
(5.1552066 0.00056871606 0.0036609135)
(5.1557761 0.00083956876 0.0025191375)
(5.1576133 0.00086826703 0.004414721)
(5.1605695 0.00092615478 0.0065724729)
(5.1648144 0.00099745699 0.009049293)
(5.170359 0.0010621943 0.011870915)
(5.1770749 0.0011101621 0.015038157)
(5.1847625 0.0011326339 0.018507875)
(5.1931926 0.0011190947 0.022212558)
(5.2021297 0.001045491 0.02603381)
(5.2113303 0.0008963765 0.029788359)
(5.2205519 0.00066477791 0.03328003)
(5.2295832 0.00035966984 0.036279347)
(5.2382751 2.3881458e-05 0.03866801)
(5.2465398 -0.00032266573 0.040441019)
(5.2543325 -0.0006589192 0.041631611)
(5.261648 -0.00097847785 0.042329705)
(5.2684938 -0.0012805133 0.042615838)
(5.2749004 -0.0015633612 0.042551322)
(5.2809101 -0.0018360104 0.042189364)
(5.2865499 -0.0021005797 0.041560378)
(5.2902904 -0.00080575172 0.039049175)
(5.2840597 -0.00051937915 0.039342506)
(5.2774652 -0.00022682357 0.039327051)
(5.2704839 7.0711846e-05 0.038961586)
(5.2631034 0.00036397945 0.038263311)
(5.2553095 0.00067244651 0.03712054)
(5.2470808 0.0009915142 0.035450053)
(5.2384199 0.0013048277 0.033189392)
(5.2293781 0.0015843787 0.030348078)
(5.2200471 0.0018057874 0.026987402)