/*--------------------------------*- C++ -*----------------------------------*\
| =========                 |                                                 |
| \\      /  F ield         | OpenFOAM: The Open Source CFD Toolbox           |
|  \\    /   O peration     | Version:  v2012                                 |
|   \\  /    A nd           | Website:  www.openfoam.com                      |
|    \\/     M anipulation  |                                                 |
\*---------------------------------------------------------------------------*/
FoamFile
{
    version     2.0;
    format      ascii;
    class       volVectorField;
    location    "206";
    object      U;
}
// * * * * * * * * * * * * * * * * * * * * * * * * * * * * * * * * * * * * * //

dimensions      [0 1 -1 0 0 0 0];


internalField   nonuniform List<vector> 
33005
(
(5.1293932 -0.000831345 0.017407187)
(5.1412166 -0.00074473618 0.016634596)
(5.1525396 -0.00063106572 0.015558596)
(5.1631892 -0.00049115014 0.014184904)
(5.1729948 -0.00032460893 0.012515734)
(5.1817827 -0.00013092815 0.010550346)
(5.1893729 8.8220631e-05 0.0082861882)
(5.1955854 0.00032966144 0.0057216202)
(5.2002447 0.00059296014 0.0028582486)
(5.2031482 0.00087749022 -0.00027717702)
(5.2040511 0.0011777189 -0.003623672)
(5.202881 0.0014848783 -0.0071822644)
(5.1993534 0.0018228704 -0.011106412)
(5.1934721 0.0021622084 -0.015009172)
(5.1851018 0.0024945997 -0.018795498)
(5.1744388 0.0028025976 -0.022207027)
(5.1617196 0.0030690091 -0.025015536)
(5.1475052 0.0032717774 -0.026951937)
(5.1324172 0.0033940354 -0.027860773)
(5.1173101 0.0034286902 -0.027769126)
(5.1097348 0.0021505698 -0.0012836264)
(5.1174534 0.002130919 -0.0011663214)
(5.1247849 0.002078118 -0.0010191665)
(5.1315784 0.0019918644 -0.00084285913)
(5.1376961 0.001873277 -0.00063908442)
(5.1429993 0.0017250984 -0.00041097585)
(5.147381 0.0015508132 -0.00016183209)
(5.1507262 0.0013555264 0.00010316638)
(5.152985 0.0011386996 0.00038683901)
(5.1540248 0.00089039341 0.0007013232)
(5.1538853 0.00071338399 0.00092495525)
(5.1527707 0.00049805426 0.001193112)
(5.1505174 0.00028672427 0.0014528354)
(5.1472033 8.6309374e-05 0.0016971188)
(5.1429152 -9.7632948e-05 0.0019203217)
(5.1377388 -0.00026208083 0.0021196038)
(5.1317766 -0.00040512553 0.0022933487)
(5.1251411 -0.00052530028 0.0024403191)
(5.117949 -0.0006217302 0.0025599053)
(5.1183849 -0.00065764959 0.0077756611)
(5.1191921 -0.00071622018 0.013255999)
(5.120409 -0.00081856265 0.019020714)
(5.1220669 -0.00097650139 0.024932102)
(5.1241556 -0.001197173 0.030816816)
(5.1266268 -0.0014818738 0.036504028)
(5.1963261 -0.0076902151 0.049264197)
(5.1935839 -0.007598487 0.051193019)
(5.1906829 -0.0074842711 0.053117456)
(5.1876151 -0.0073379439 0.055004342)
(5.1843743 -0.0071485376 0.056800991)
(5.1809589 -0.0069047918 0.058431863)
(5.1773724 -0.0065968635 0.059799434)
(5.1736252 -0.0062186442 0.060787896)
(5.1697355 -0.0057699319 0.061273039)
(5.16573 -0.0052589753 0.06113627)
(5.1616442 -0.00470243 0.060283998)
(5.1575208 -0.004123401 0.058660642)
(5.1534107 -0.0035493335 0.056262963)
(5.1493686 -0.0030030127 0.053135621)
(5.1454519 -0.0025011555 0.049354683)
(5.1417179 -0.0020526097 0.045009929)
(5.1382235 -0.0016611918 0.040191157)
(5.1350291 -0.0013281462 0.034985647)
(5.1322031 -0.0010556314 0.029489792)
(5.1298178 -0.00084616278 0.023827111)
(5.1279292 -0.00069907125 0.018158509)
(5.1265485 -0.0006067784 0.012644709)
(5.1256366 -0.00055630725 0.0074136215)
(5.1323299 -0.00043001579 0.0069685322)
(5.1333442 -0.00047056901 0.011892583)
(5.1348864 -0.00054995978 0.017095405)
(5.1370035 -0.00068217767 0.022461224)
(5.1396834 -0.0008751415 0.027844234)
(5.1428627 -0.0011288617 0.033095797)
(5.1464595 -0.0014402919 0.038101032)
(5.1503963 -0.0018075105 0.042769193)
(5.1546036 -0.0022302183 0.047016575)
(5.1590152 -0.00270584 0.050755485)
(5.1635638 -0.0032268723 0.053896281)
(5.1681809 -0.0037779144 0.056360529)
(5.1728012 -0.0043371358 0.058098721)
(5.177364 -0.0048780077 0.059107247)
(5.1818192 -0.005377824 0.059433143)
(5.1861263 -0.0058203416 0.059161057)
(5.1902565 -0.0061972694 0.058399897)
(5.1941911 -0.0065085445 0.057265212)
(5.1979211 -0.0067598269 0.055864909)
(5.2014452 -0.0069603163 0.0542902)
(5.2047681 -0.0071205379 0.05261169)
(5.2078987 -0.0072507273 0.050878801)
(5.2108482 -0.0073598633 0.049122864)
(5.2246798 -0.0068968888 0.04876273)
(5.2215041 -0.0067689458 0.050325627)
(5.2181266 -0.0066215601 0.051844344)
(5.2145339 -0.0064465277 0.053288952)
(5.2107141 -0.0062346203 0.054613467)
(5.2066597 -0.0059762576 0.055752468)
(5.2023698 -0.0056631189 0.056621899)
(5.1978521 -0.0052903387 0.057122808)
(5.1931255 -0.0048584793 0.057150284)
(5.1882207 -0.0043760142 0.056607258)
(5.1831832 -0.0038587303 0.055420622)
(5.1780701 -0.0033287153 0.053554339)
(5.1729517 -0.002811022 0.051020789)
(5.1679042 -0.0023260041 0.047874926)
(5.1630067 -0.001887196 0.044197551)
(5.1583363 -0.0015003368 0.040077269)
(5.1539681 -0.0011664705 0.035598654)
(5.1499799 -0.00088472294 0.0308403)
(5.1464578 -0.00065662118 0.025885857)
(5.143493 -0.00048559446 0.020839673)
(5.1411555 -0.00037229185 0.01583586)
(5.1394584 -0.00030858865 0.011002843)
(5.1383467 -0.0002796781 0.0064424365)
(5.1435731 -0.00010692045 0.0058395053)
(5.1447747 -0.00012259802 0.0099824829)
(5.1466159 -0.00016794578 0.014389536)
(5.1491593 -0.00025839229 0.018974697)
(5.1523914 -0.00040206739 0.023628897)
(5.1562356 -0.00059770794 0.028234822)
(5.1605931 -0.00084162758 0.032700366)
(5.1653697 -0.0011329045 0.036950686)
(5.1704803 -0.0014737668 0.040913482)
(5.1758417 -0.0018650051 0.044508758)
(5.1813676 -0.0023030749 0.047649704)
(5.1869688 -0.0027768719 0.050253439)
(5.192559 -0.0032681035 0.052258794)
(5.1980587 -0.0037537937 0.053642893)
(5.2034038 -0.0042126886 0.054428203)
(5.2085449 -0.0046294871 0.054673884)
(5.2134488 -0.0049953363 0.054462799)
(5.2180969 -0.0053088642 0.053887664)
(5.2224829 -0.005573886 0.05303727)
(5.2266094 -0.0057975167 0.051987951)
(5.2304865 -0.0059881985 0.050799787)
(5.2341283 -0.0061539006 0.049515295)
(5.2375505 -0.0063018878 0.048163307)
(5.2407691 -0.0064385323 0.046757888)
(5.2437995 -0.0065686191 0.045303032)
(5.2559364 -0.0058900455 0.044821704)
(5.2526648 -0.0057373319 0.046099302)
(5.2491921 -0.0055785907 0.04730346)
(5.2455024 -0.0054096971 0.048429263)
(5.2415783 -0.0052249069 0.049462808)
(5.237403 -0.005017958 0.050375615)
(5.2329601 -0.0047824261 0.051128896)
(5.2282381 -0.0045112401 0.051667896)
(5.2232325 -0.0041987669 0.051924567)
(5.2179488 -0.0038425568 0.051821101)
(5.2124058 -0.0034451325 0.051278568)
(5.2066383 -0.0030158828 0.050230219)
(5.2006996 -0.0025696936 0.048633348)
(5.1946602 -0.0021267333 0.046481361)
(5.1886077 -0.0017072871 0.043809305)
(5.1826377 -0.0013269833 0.040685173)
(5.1768484 -0.00099390097 0.037193656)
(5.171334 -0.00070899459 0.033418631)
(5.1661847 -0.00046936136 0.02943444)
(5.161492 -0.00027123107 0.025305591)
(5.1573564 -0.00011471815 0.021096706)
(5.1538836 -3.604635e-06 0.016885902)
(5.1511556 6.0223379e-05 0.012771737)
(5.149186 8.4769859e-05 0.0088421058)
(5.1479054 8.5953579e-05 0.0051658074)
(5.151256 0.00029562271 0.0044314069)
(5.1526002 0.00031008536 0.0075977955)
(5.1546768 0.00030847472 0.011004446)
(5.157561 0.00027464166 0.014601176)
(5.1612389 0.00020089686 0.018322423)
(5.1656242 8.9718897e-05 0.02209019)
(5.1706061 -5.5191725e-05 0.025841738)
(5.1760792 -0.00023468106 0.029524024)
(5.181947 -0.00045426273 0.033081551)
(5.188114 -0.00071918258 0.036446891)
(5.1944795 -0.0010314483 0.03953993)
(5.2009384 -0.0013865395 0.042274894)
(5.2073868 -0.0017721209 0.044576272)
(5.2137304 -0.0021711925 0.046395629)
(5.2198931 -0.0025649082 0.047721541)
(5.2258182 -0.0029387538 0.048578106)
(5.2314692 -0.0032825534 0.049014211)
(5.2368271 -0.003592385 0.049093847)
(5.2418869 -0.0038689574 0.048883013)
(5.246654 -0.0041162146 0.048441359)
(5.251141 -0.0043396524 0.047818219)
(5.2553652 -0.0045437325 0.047048383)
(5.2593443 -0.0047338352 0.046160796)
(5.263096 -0.0049150352 0.045169435)
(5.2666363 -0.005090796 0.044080478)
(5.2756553 -0.0041792754 0.043051638)
(5.2718197 -0.0039808376 0.043942764)
(5.2677648 -0.0037775783 0.044712667)
(5.2634753 -0.003566751 0.045353662)
(5.2589343 -0.0033440467 0.045851894)
(5.254124 -0.0031046311 0.04617668)
(5.2490267 -0.0028466078 0.046297896)
(5.2436302 -0.0025660417 0.046170982)
(5.2379291 -0.0022609629 0.045745032)
(5.2319286 -0.0019325977 0.044966248)
(5.2256483 -0.0015865761 0.043786702)
(5.2191265 -0.0012340087 0.042176619)
(5.2124227 -0.00088916266 0.040132196)
(5.2056178 -0.00056935877 0.037684668)
(5.198811 -0.00028773275 0.034896718)
(5.1921119 -5.2689827e-05 0.031851702)
(5.1856312 0.00013517875 0.028635761)
(5.1794739 0.00028118478 0.025324316)
(5.173739 0.00039308959 0.021976804)
(5.1685256 0.00047826824 0.018638672)
(5.1639423 0.00053872433 0.01535036)
(5.1601032 0.00057097479 0.012158067)
(5.157097 0.00057198179 0.009118087)
(5.1549375 0.00054880919 0.0062731794)
(5.1535439 0.00051692238 0.0036523142)
(5.1546915 0.00074330036 0.0028412524)
(5.1561239 0.00079441034 0.0048958146)
(5.158342 0.00084388185 0.0071527629)
(5.1614326 0.00087792974 0.0096068044)
(5.1653834 0.00089047832 0.012239392)
(5.1701048 0.00088506651 0.01501716)
(5.1754819 0.00086478835 0.0179114)
(5.1814053 0.00082634728 0.020895044)
(5.1877754 0.00076045827 0.023933403)
(5.1944922 0.00065674569 0.026975817)
(5.2014491 0.00050644878 0.029952559)
(5.2085325 0.000306133 0.03277766)
(5.2156301 5.9421596e-05 0.035360987)
(5.2226396 -0.00022487241 0.037624248)
(5.2294768 -0.00053104348 0.03951542)
(5.2360799 -0.00084497398 0.041016929)
(5.2424084 -0.001154525 0.042138523)
(5.2484416 -0.0014521439 0.042911482)
(5.2541728 -0.0017344391 0.043376892)
(5.2596061 -0.0020012555 0.043577352)
(5.26475 -0.0022549178 0.043553498)
(5.2696215 -0.0024941354 0.043330199)
(5.27424 -0.0027240272 0.042940103)
(5.2786204 -0.0029476449 0.042397104)
(5.2827765 -0.0031671308 0.041710264)
(5.2878083 -0.0020715197 0.040037019)
(5.2833031 -0.001834162 0.040517063)
(5.278572 -0.0015934249 0.040832093)
(5.2736037 -0.0013475844 0.040972041)
(5.2683865 -0.0010958445 0.040920898)
(5.2629006 -0.00083275063 0.040650086)
(5.2571308 -0.00056069199 0.040136919)
(5.2510731 -0.0002797482 0.039344361)
(5.2447263 7.3446426e-06 0.038236633)
(5.2380992 0.00029473173 0.036784973)
(5.231215 0.00057272215 0.034975084)
(5.2241159 0.00082815103 0.032817453)
(5.2168656 0.0010470464 0.030351529)
(5.20955 0.0012153994 0.027650746)
(5.2022732 0.0013279129 0.02481514)
(5.1951479 0.0013877884 0.021932459)
(5.1882856 0.0014023324 0.019089044)
(5.1817913 0.0013836498 0.016348704)
(5.175763 0.0013446489 0.013753408)
(5.170299 0.001296426 0.011327129)
(5.1655076 0.0012435231 0.0090836324)
(5.1615035 0.0011831967 0.0070339153)
(5.1583781 0.0011111671 0.0051873097)
(5.1561478 0.0010317955 0.0035341296)
(5.1547384 0.00095530196 0.0020549535)
(5.1536975 0.0011925493 0.0011916705)
(5.1550634 0.0012776556 0.002104885)
(5.1572562 0.0013797761 0.0031710865)
(5.1603559 0.0014865325 0.0044257152)
(5.164344 0.001593344 0.0059015943)
(5.1691286 0.0017042525 0.0076142368)
(5.1745959 0.0018210326 0.0095720925)
(5.1806405 0.001937558 0.011776531)
(5.1871674 0.0020407095 0.014215838)
(5.1940824 0.0021148049 0.01685811)
(5.2012843 0.0021440098 0.019645213)
(5.2086654 0.0021160898 0.02249187)
(5.2161145 0.002025108 0.025292958)
(5.2235289 0.0018722688 0.027939745)
(5.2308216 0.0016688679 0.030339694)
(5.2379272 0.0014288714 0.032431362)
(5.2448005 0.0011670145 0.034183412)
(5.2514157 0.00089581965 0.035592615)
(5.2577627 0.00062453985 0.036674942)
(5.2638439 0.00035960664 0.037459692)
(5.2696698 0.00010403093 0.037980328)
(5.2752472 -0.00015653777 0.038297514)
(5.2805818 -0.00041477202 0.038398872)
(5.2856839 -0.00066908936 0.038304541)
(5.2905616 -0.00092054482 0.03802608)
(5.2857392 0.00046440183 0.035895223)
(5.2803062 0.00072484925 0.035796305)
(5.2746417 0.00099127731 0.035475386)
(5.2687372 0.0012629787 0.034913786)
(5.2625875 0.0015399818 0.034082095)
(5.2561942 0.0018164999 0.032966953)
(5.2495549 0.0020874515 0.031548527)
(5.242676 0.0023453549 0.029811314)
(5.2355748 0.0025799571 0.027751641)
(5.2282821 0.0027778329 0.02538758)
(5.2208466 0.0029241371 0.022767482)
(5.213335 0.0030057238 0.019971302)
(5.2058333 0.0030141284 0.017108746)
(5.1984396 0.0029523677 0.014300257)
(5.1912574 0.0028316401 0.011651762)
(5.1843879 0.0026681617 0.0092455806)
(5.1779248 0.0024808625 0.0071326487)
(5.1719555 0.0022877041 0.0053354774)
(5.1665684 0.0021035073 0.0038549166)
(5.1618636 0.0019358866 0.0026767417)
(5.1579497 0.0017840835 0.001776418)
(5.1549138 0.0016441779 0.0011186598)
(5.1527692 0.001519795 0.00065276315)
(5.1514293 0.0014210732 0.0003303044)
(5.1480602 0.0016267009 -0.00047694791)
(5.1493511 0.0017398244 -0.00072188538)
(5.1514173 0.0018862316 -0.00084378649)
(5.1543446 0.0020577838 -0.00077332685)
(5.1581241 0.002252176 -0.00044041016)
(5.1626752 0.0024733207 0.00020901313)
(5.1678972 0.0027209677 0.001213729)
(5.1736981 0.0029861129 0.0025990581)
(5.1799979 0.0032525149 0.0043734401)
(5.1867187 0.0035003314 0.0065224999)
(5.1937769 0.0037081277 0.0090012325)
(5.2010817 0.0038563177 0.01173006)
(5.2085382 0.0039299433 0.014599302)
(5.2160551 0.0039226018 0.01747967)
(5.2235498 0.0038400637 0.020247436)
(5.2309556 0.0036947491 0.022805872)
(5.2382217 0.0035018842 0.02509025)
(5.2453128 0.0032762794 0.027068276)
(5.2522068 0.0030298586 0.028733032)
(5.2588922 0.0027714014 0.030094594)
(5.265364 0.0025065502 0.031172194)
(5.2716222 0.0022377862 0.031990357)
(5.2776651 0.0019668748 0.032571088)
(5.2834922 0.0016945838 0.032933326)
(5.2787278 0.0029199782 0.029505182)
(5.2725513 0.0031765954 0.028952777)
(5.2661762 0.0034313372 0.028172823)
(5.2596067 0.0036829109 0.027146294)
(5.2528488 0.0039285903 0.02585237)
(5.2459124 0.0041635359 0.024272434)
(5.2388095 0.0043805721 0.022392687)
(5.2315589 0.0045694303 0.020211665)
(5.2241893 0.0047168489 0.01774722)
(5.2167408 0.0048072613 0.015044776)
(5.2092668 0.0048256831 0.012182993)
(5.2018331 0.0047608795 0.0092721078)
(5.1945172 0.0046097812 0.006445965)
(5.1874008 0.0043817853 0.0038388865)
(5.1805665 0.0040949568 0.001561061)
(5.1740923 0.0037714331 -0.00031127563)
(5.1680489 0.0034344515 -0.0017389194)
(5.1625029 0.003105199 -0.0027143592)
(5.1575235 0.002800997 -0.0032537959)
(5.1531926 0.0025320798 -0.0033919115)
(5.1496012 0.0022997672 -0.0031802889)
(5.1468219 0.0021002981 -0.0026908438)
(5.1448614 0.0019348064 -0.0020128659)
(5.1436384 0.0018096297 -0.001235097)
(5.138285 0.0019644186 -0.001928432)
(5.1394209 0.0020987499 -0.0031931697)
(5.1412479 0.0022794043 -0.0043819334)
(5.1438414 0.002501682 -0.0053892333)
(5.1471967 0.0027654436 -0.0061085233)
(5.151249 0.0030741422 -0.0064516609)
(5.1559183 0.0034253615 -0.0063559269)
(5.1611343 0.0038078229 -0.0057789817)
(5.1668396 0.0042035205 -0.0046986482)
(5.172981 0.0045905406 -0.0031169101)
(5.1795018 0.0049446868 -0.0010679475)
(5.1863389 0.0052422768 0.0013758151)
(5.1934234 0.0054633012 0.0041052823)
(5.2006842 0.0055961882 0.0069844799)
(5.2080508 0.0056414921 0.0098738532)
(5.2154595 0.0056088877 0.012653717)
(5.2228554 0.005512618 0.015234592)
(5.2301938 0.0053682573 0.017560241)
(5.23744 0.0051897059 0.019603238)
(5.2445688 0.0049880605 0.021357862)
(5.2515612 0.0047713762 0.022832763)
(5.2584026 0.0045450684 0.024044176)
(5.2650805 0.0043125279 0.025010884)
(5.2715839 0.0040756514 0.025750635)
(5.2621887 0.0051392497 0.021693319)
(5.2554197 0.0053452662 0.020792694)
(5.2485028 0.0055447705 0.019670125)
(5.241454 0.0057355403 0.018309036)
(5.2342921 0.0059137583 0.016693155)
(5.2270397 0.0060733664 0.014810302)
(5.2197224 0.0062057705 0.012657111)
(5.2123719 0.0062995436 0.010246195)
(5.2050286 0.0063408491 0.0076132765)
(5.1977412 0.0063147712 0.0048231376)
(5.1905647 0.0062083379 0.0019727461)
(5.1835596 0.0060137818 -0.00081304002)
(5.1767881 0.005732688 -0.0033934304)
(5.1703094 0.0053780018 -0.0056343508)
(5.1641774 0.0049705644 -0.007430071)
(5.1584396 0.0045345367 -0.0087123027)
(5.1531379 0.0040941781 -0.0094511196)
(5.1483117 0.0036714687 -0.0096485175)
(5.1440056 0.0032846433 -0.0093308539)
(5.1402776 0.0029457424 -0.0085462244)
(5.1371962 0.0026583009 -0.0073663483)
(5.1348175 0.0024192989 -0.0058930282)
(5.1331449 0.0022280379 -0.0042470475)
(5.1321094 0.0020876624 -0.0025475776)
(5.1252533 0.0021765201 -0.0030832392)
(5.126179 0.0023197482 -0.0051592078)
(5.1276823 0.0025168515 -0.0072025286)
(5.1298253 0.002766084 -0.0090832348)
(5.1326066 0.0030688274 -0.010669446)
(5.1359787 0.0034275645 -0.011848692)
(5.139885 0.0038376153 -0.012542602)
(5.14428 0.0042865432 -0.012699296)
(5.1491315 0.0047564379 -0.012290149)
(5.1544137 0.0052258865 -0.011310648)
(5.1600996 0.0056713677 -0.0097872102)
(5.1661567 0.0060692125 -0.0077836234)
(5.1725454 0.0063987896 -0.0054006813)
(5.1792192 0.0066466667 -0.0027673786)
(5.1861249 0.0068095993 -2.1652362e-05)
(5.1932068 0.0068933845 0.0027107027)
(5.2004106 0.0069092344 0.0053287668)
(5.2076859 0.0068707879 0.0077618085)
(5.2149878 0.0067912047 0.0099673993)
(5.2222798 0.0066816389 0.011927115)
(5.22953 0.0065507156 0.013639182)
(5.2367102 0.0064046496 0.015112004)
(5.2437957 0.0062473898 0.01635916)
(5.2507652 0.0060813191 0.017395627)
(5.2375761 0.0068770072 0.012931604)
(5.2304937 0.0069944683 0.011791053)
(5.2233297 0.0071013202 0.010455746)
(5.2161098 0.0071951963 0.0089125221)
(5.2088633 0.0072722415 0.0071507291)
(5.201624 0.0073263656 0.0051661477)
(5.1944291 0.0073493833 0.0029655648)
(5.1873195 0.0073307005 0.00057210293)
(5.1803419 0.0072583396 -0.0019675428)
(5.1735464 0.0071204986 -0.0045789369)
(5.1669844 0.0069079243 -0.0071607018)
(5.1607057 0.0066167129 -0.009589789)
(5.1547541 0.0062512024 -0.011734609)
(5.1491646 0.0058244985 -0.013473659)
(5.1439632 0.0053562205 -0.014712553)
(5.1391684 0.0048687565 -0.015392228)
(5.1347936 0.0043842991 -0.015489302)
(5.1308511 0.003923268 -0.015009425)
(5.1273619 0.0035025395 -0.013981405)
(5.1243604 0.0031342518 -0.012458849)
(5.1218918 0.0028244453 -0.010524613)
(5.1199947 0.0025713287 -0.0082988834)
(5.1186685 0.0023730071 -0.0059215035)
(5.1178571 0.0022299743 -0.0035304318)
(5.1100759 0.0022485137 -0.0038870248)
(5.1107753 0.0023886586 -0.0065303952)
(5.1119261 0.0025840237 -0.0091770911)
(5.1135771 0.0028351891 -0.011684023)
(5.1157309 0.0031442949 -0.013906521)
(5.1183554 0.0035123564 -0.015719667)
(5.1214176 0.0039318381 -0.017037982)
(5.1248959 0.0043916114 -0.017807513)
(5.1287816 0.0048763825 -0.018000849)
(5.1330726 0.005366981 -0.017612602)
(5.1377674 0.0058433284 -0.016663675)
(5.1428598 0.0062851856 -0.015207986)
(5.1483361 0.006674553 -0.013332086)
(5.1541725 0.0069988189 -0.011147977)
(5.1603343 0.0072529599 -0.0087786341)
(5.1667779 0.0074391689 -0.006341417)
(4.9827466 -0.55132503 -0.24565347)
(4.9971395 -0.54592086 -0.24385901)
(5.0109404 -0.54345697 -0.24644198)
(5.0254375 -0.53663866 -0.24470743)
(5.0347017 -0.53472167 -0.24716562)
(5.0510833 -0.52996606 -0.24544754)
(5.0533075 -0.52262285 -0.25214288)
(5.0477814 -0.52352786 -0.26127177)
(5.0448759 -0.52358534 -0.26341639)
(5.0369982 -0.52666434 -0.26597098)
(5.0356269 -0.52915955 -0.26243051)
(5.0413734 -0.53112361 -0.253906)
(5.0268666 -0.53498451 -0.25533128)
(5.014874 -0.53728839 -0.25742181)
(4.9994384 -0.54439209 -0.25673112)
(4.985148 -0.54666682 -0.2569114)
(4.96965 -0.55337474 -0.25709732)
(5.3167382 -0.49895403 0.029809557)
(5.3238387 -0.49448098 0.030022293)
(5.3239089 -0.49318676 0.026721172)
(5.3242784 -0.49257436 0.024175175)
(5.3249797 -0.4920723 0.021379545)
(5.325943 -0.4912287 0.01810732)
(5.3270803 -0.49004391 0.01468652)
(5.3284948 -0.48930299 0.010736996)
(5.3308214 -0.48911001 0.0065351398)
(5.3330595 -0.48888874 0.0014756064)
(5.332952 -0.4890801 -0.004035757)
(5.3323824 -0.48951193 -0.0087548434)
(5.333692 -0.48754347 -0.013524349)
(5.334437 -0.48526011 -0.020689297)
(5.3345615 -0.48463994 -0.029009598)
(5.3362387 -0.48438633 -0.037076548)
(5.3388494 -0.4837388 -0.04551618)
(5.3396678 -0.48290409 -0.055130134)
(5.3389095 -0.48197017 -0.066097971)
(5.3378745 -0.48153047 -0.077827461)
(5.3367739 -0.48195029 -0.089989798)
(5.3351379 -0.48111886 -0.10261108)
(5.3320258 -0.47888622 -0.11695702)
(5.3262309 -0.47710492 -0.13118384)
(5.3184635 -0.47462737 -0.1457898)
(5.3070021 -0.47235599 -0.16093326)
(5.2931352 -0.47077071 -0.17605703)
(5.2768388 -0.46852922 -0.19262259)
(5.2741376 -0.4648904 -0.19686318)
(5.2695342 -0.45688093 -0.20385789)
(5.2524302 -0.45235282 -0.21665718)
(5.2383826 -0.45017412 -0.22598841)
(5.2269352 -0.44961631 -0.23464378)
(5.2200337 -0.45031129 -0.23878423)
(5.2184999 -0.45205983 -0.23831461)
(5.2121951 -0.45858161 -0.24103206)
(5.2107118 -0.46136574 -0.23941583)
(5.2166591 -0.45915682 -0.23621023)
(5.2287025 -0.45962455 -0.22644356)
(5.2431092 -0.46262912 -0.21652532)
(5.2591069 -0.46600114 -0.20289625)
(5.2469232 -0.47474326 -0.20303299)
(5.2630635 -0.47777669 -0.19164822)
(5.2785528 -0.48132616 -0.17579529)
(5.2921948 -0.4856632 -0.16079428)
(5.3031599 -0.48808714 -0.14696227)
(5.311403 -0.48747995 -0.13302283)
(5.3182065 -0.48665562 -0.11897254)
(5.3222341 -0.48606945 -0.1047128)
(5.325278 -0.48506761 -0.091445623)
(5.3281225 -0.48452047 -0.078591776)
(5.3294257 -0.48587987 -0.066465865)
(5.3288423 -0.48885171 -0.055844771)
(5.3276581 -0.48941921 -0.04718222)
(5.3262208 -0.48802237 -0.038807259)
(5.3248712 -0.48787444 -0.029948071)
(5.3231317 -0.49078557 -0.021583207)
(5.3204357 -0.49368715 -0.015230199)
(5.3186599 -0.49389454 -0.0097312127)
(5.3182538 -0.49522798 -0.0041204873)
(5.3177449 -0.4970376 0.00054346291)
(5.3171989 -0.49691588 0.0047528445)
(5.3168365 -0.49647925 0.0090572297)
(5.3160515 -0.49699626 0.01303931)
(5.3151945 -0.4975744 0.016614023)
(5.3142644 -0.49849356 0.020224556)
(5.3132088 -0.49997352 0.023379346)
(5.3122127 -0.50176487 0.025809387)
(5.3113757 -0.50285375 0.028671091)
(5.2987436 -0.50593361 0.026772828)
(5.2855513 -0.51203349 0.025309572)
(5.2714268 -0.51631207 0.023712953)
(5.256492 -0.52187361 0.022113785)
(5.256895 -0.52104634 0.019845465)
(5.2718285 -0.51566427 0.021088139)
(5.285735 -0.51117977 0.022869329)
(5.2987223 -0.50616042 0.023801264)
(5.2995357 -0.50589131 0.021327381)
(5.2863933 -0.51025477 0.020338289)
(5.2724778 -0.51533935 0.018388106)
(5.2575598 -0.52014263 0.017235416)
(5.2582642 -0.5193088 0.014247416)
(5.2732102 -0.51506048 0.015448003)
(5.2872148 -0.50932313 0.017306039)
(5.300404 -0.50554206 0.018478091)
(5.3012078 -0.50480284 0.015331219)
(5.2880865 -0.50842382 0.013725366)
(5.2738906 -0.51458829 0.012102139)
(5.2589329 -0.51856344 0.010717544)
(5.2436454 -0.52447274 0.0092133206)
(5.2280957 -0.52903578 0.0078144494)
(5.2118831 -0.53475702 0.0060978407)
(5.1955902 -0.53889147 0.0050696139)
(5.195999 -0.53825455 0.0014641286)
(5.2122474 -0.53448058 0.0028182209)
(5.228826 -0.52835165 0.0041089561)
(5.2442843 -0.52359066 0.0057642357)
(5.259474 -0.51805732 0.0070927547)
(5.2745435 -0.51396935 0.008685336)
(5.2890476 -0.50782977 0.0099830838)
(5.3021804 -0.50362519 0.012093095)
(5.3035037 -0.50215228 0.0086237903)
(5.2901168 -0.50780006 0.0061417727)
(5.2751794 -0.51318573 0.0048756777)
(5.2601987 -0.51770465 0.0034404326)
(5.2450879 -0.52280946 0.0015015501)
(5.2293039 -0.52820818 5.4657797e-05)
(5.2127347 -0.53376838 -0.00045994268)
(5.1967884 -0.53780792 -0.0022283556)
(5.1985421 -0.53654886 -0.0059860531)
(5.2131716 -0.53209919 -0.0044152609)
(5.2288143 -0.52881363 -0.0042065174)
(5.2461494 -0.52351428 -0.0030118644)
(5.2614538 -0.51653205 -0.00046695234)
(5.2755293 -0.5127909 0.0004663682)
(5.2914951 -0.50776255 0.0021893163)
(5.304588 -0.50029356 0.0044415883)
(5.3054779 -0.49898515 -0.00039425091)
(5.2930037 -0.50702937 -0.0021757855)
(5.276049 -0.5128335 -0.0044673239)
(5.2625875 -0.51530857 -0.0053317515)
(5.2472738 -0.52443529 -0.0064651247)
(5.2286799 -0.52938254 -0.0086398746)
(5.2132201 -0.53102682 -0.010132197)
(5.2001298 -0.53484346 -0.010897058)
(5.1826102 -0.54457265 -0.012036646)
(5.1624916 -0.54691093 -0.012879797)
(5.1400788 -0.54802844 -0.017914621)
(5.1643568 -0.5460901 -0.020190937)
(5.1833456 -0.54220707 -0.015965827)
(5.1993618 -0.53515702 -0.016620857)
(5.2136525 -0.53233517 -0.016203696)
(5.2313549 -0.52842087 -0.013065209)
(5.2482963 -0.52140864 -0.010083259)
(5.2621734 -0.51545552 -0.010613502)
(5.277308 -0.51307651 -0.0094912265)
(5.2947412 -0.50552626 -0.0069281209)
(5.3067346 -0.49756942 -0.0054208356)
(5.3079579 -0.49612815 -0.011113573)
(5.2966222 -0.50376782 -0.012555218)
(5.2789844 -0.5135676 -0.014318045)
(5.2612541 -0.51610763 -0.01611768)
(5.2492657 -0.5179298 -0.016444216)
(5.2344153 -0.52672531 -0.017959746)
(5.2150788 -0.53397719 -0.021106874)
(5.1978035 -0.53645918 -0.0221124)
(5.1840716 -0.53901961 -0.021728585)
(5.16707 -0.54525282 -0.022748607)
(5.1406467 -0.54846232 -0.028337626)
(5.1676757 -0.54512604 -0.031425966)
(5.1845572 -0.53904824 -0.029745388)
(5.1983654 -0.53655925 -0.027766293)
(5.2168826 -0.5336045 -0.025804097)
(5.2353941 -0.52499261 -0.023555405)
(5.2494216 -0.51846253 -0.023925058)
(5.2628885 -0.51599284 -0.022042123)
(5.2803939 -0.51239392 -0.019159833)
(5.2973853 -0.50350625 -0.019152595)
(5.3092091 -0.49593103 -0.017569069)
(5.3114965 -0.49619842 -0.024486858)
(5.297107 -0.50468616 -0.026122334)
(5.2816609 -0.50932245 -0.025675435)
(5.2658905 -0.51591105 -0.028651477)
(5.2488954 -0.52048995 -0.030904344)
(5.2354151 -0.52361485 -0.03053832)
(5.2187834 -0.53209213 -0.031862326)
(5.2007294 -0.53611927 -0.034097102)
(5.184993 -0.54142735 -0.036351203)
(5.1668913 -0.54582079 -0.035032556)
(5.1416582 -0.54750707 -0.041115902)
(5.1663396 -0.54639177 -0.045045314)
(5.1855476 -0.54263636 -0.04282276)
(5.2027334 -0.53538029 -0.041139563)
(5.2200024 -0.5305754 -0.039136066)
(5.2355502 -0.52298837 -0.038442466)
(5.2493462 -0.52110987 -0.037582818)
(5.2679761 -0.51526766 -0.035678973)
(5.2827691 -0.50727944 -0.03392165)
(5.2970848 -0.50500675 -0.033221855)
(5.313526 -0.49585326 -0.031994341)
(5.3144543 -0.49596064 -0.039987965)
(5.297968 -0.50454794 -0.040559387)
(5.283589 -0.50711871 -0.042367733)
(5.2689411 -0.51419115 -0.043522769)
(5.2507033 -0.52037268 -0.044763987)
(5.236013 -0.52315099 -0.046596044)
(5.2206077 -0.52991581 -0.04700659)
(5.2033914 -0.53547654 -0.04871201)
(5.1861068 -0.54181648 -0.048937155)
(5.167539 -0.54599458 -0.049105638)
(5.1430224 -0.54762703 -0.056644644)
(5.1682783 -0.54475574 -0.060220046)
(5.1861644 -0.54025163 -0.05738565)
(5.2032193 -0.53582485 -0.056408249)
(5.2207085 -0.52962038 -0.054877645)
(5.2363628 -0.5235768 -0.054854615)
(5.2518343 -0.51897278 -0.053514267)
(5.2693257 -0.51396269 -0.052127935)
(5.2847829 -0.50695909 -0.05109527)
(5.2989355 -0.50317051 -0.048712061)
(5.3145467 -0.49668897 -0.048577998)
(5.3146847 -0.49714952 -0.05784685)
(5.3000204 -0.50148776 -0.058423388)
(5.2856757 -0.50724195 -0.060919243)
(5.2697903 -0.51358644 -0.061830949)
(5.2520782 -0.519901 -0.064113302)
(5.2350566 -0.52414725 -0.064082658)
(5.2203036 -0.52838051 -0.063467436)
(5.2037928 -0.53494001 -0.06452272)
(5.1865505 -0.53953611 -0.066603903)
(5.1689448 -0.54444688 -0.066293875)
(5.1430075 -0.54817167 -0.074442844)
(5.1678648 -0.54372274 -0.07948298)
(5.1870142 -0.53889624 -0.077189311)
(5.2044139 -0.53182355 -0.074097055)
(5.2187813 -0.52624049 -0.074021395)
(5.2321204 -0.52476394 -0.074506371)
(5.251211 -0.52261423 -0.07455084)
(5.2701234 -0.51351733 -0.072219594)
(5.2860004 -0.50733801 -0.071226711)
(5.3007364 -0.49985026 -0.069413461)
(5.3153199 -0.49610517 -0.067754903)
(5.3152965 -0.49326822 -0.078376779)
(5.3006198 -0.4991322 -0.081235434)
(5.2848469 -0.50690034 -0.08159669)
(5.269552 -0.51306793 -0.081939672)
(5.2503698 -0.52346451 -0.084103088)
(5.2298613 -0.52566378 -0.085334673)
(5.2160918 -0.52599655 -0.085797847)
(5.2036591 -0.52882852 -0.085847331)
(5.1867516 -0.53809019 -0.087399309)
(5.1671721 -0.54300658 -0.086855639)
(5.1407681 -0.54754298 -0.094521882)
(5.1645503 -0.54294995 -0.10146141)
(5.1847779 -0.5375371 -0.098945148)
(5.2012501 -0.5285769 -0.098884785)
(5.2137043 -0.52602999 -0.097717154)
(5.228171 -0.5253213 -0.096263643)
(5.249751 -0.52193846 -0.093868492)
(5.2678144 -0.5098282 -0.092696653)
(5.2807746 -0.50630174 -0.093036441)
(5.2988612 -0.50080684 -0.09337842)
(5.3139052 -0.49052501 -0.091240841)
(5.3102957 -0.49112051 -0.10530104)
(5.294837 -0.5019809 -0.10521077)
(5.2759322 -0.5061617 -0.10614009)
(5.2634296 -0.50798218 -0.10627711)
(5.2473173 -0.51789018 -0.10563537)
(5.2267576 -0.52346717 -0.10831012)
(5.2114781 -0.52589017 -0.11031489)
(5.19714 -0.53067896 -0.11179791)
(5.1804281 -0.53741349 -0.11074366)
(5.1616938 -0.54357533 -0.10989383)
(5.1324522 -0.54685651 -0.11860784)
(5.1561027 -0.54361791 -0.12616045)
(5.1752369 -0.53683665 -0.12428119)
(5.1915587 -0.53173423 -0.12398758)
(5.2075685 -0.52566509 -0.1231056)
(5.2239269 -0.52119772 -0.12191806)
(5.242441 -0.51410403 -0.12050545)
(5.257264 -0.50757974 -0.12092417)
(5.271629 -0.50569516 -0.11989886)
(5.2893783 -0.49961454 -0.11798027)
(5.3039074 -0.49229237 -0.11931318)
(5.2947803 -0.49223908 -0.13293477)
(5.2823876 -0.49575353 -0.13185199)
(5.2665845 -0.50353679 -0.13284102)
(5.2510174 -0.50680239 -0.13514591)
(5.2355389 -0.5139808 -0.13556486)
(5.2170641 -0.52043889 -0.1361251)
(5.2008629 -0.52413488 -0.13613481)
(5.1853929 -0.53028013 -0.13594228)
(5.1684263 -0.53617309 -0.13718338)
(5.1509458 -0.54224917 -0.13465212)
(5.1205632 -0.54607458 -0.14456065)
(5.1409071 -0.53939824 -0.15164146)
(5.1606797 -0.53515539 -0.15108164)
(5.1774403 -0.52699415 -0.1494874)
(5.1909958 -0.52328287 -0.15035244)
(5.2082635 -0.52066758 -0.15006288)
(5.2269335 -0.51351204 -0.14912003)
(5.2436541 -0.50600225 -0.14945125)
(5.2595706 -0.49912895 -0.14681953)
(5.2726937 -0.49306148 -0.1470558)
(5.2843636 -0.49207177 -0.14730871)
(5.2733327 -0.4906301 -0.16155187)
(5.2608953 -0.49165244 -0.16261331)
(5.2491936 -0.4958495 -0.1627197)
(5.2327985 -0.50543344 -0.16372632)
(5.2161309 -0.51067967 -0.16313714)
(5.1986671 -0.51942451 -0.16379147)