/*--------------------------------*- C++ -*----------------------------------*\
| =========                 |                                                 |
| \\      /  F ield         | OpenFOAM: The Open Source CFD Toolbox           |
|  \\    /   O peration     | Version:  v2012                                 |
|   \\  /    A nd           | Website:  www.openfoam.com                      |
|    \\/     M anipulation  |                                                 |
\*---------------------------------------------------------------------------*/
FoamFile
{
    version     2.0;
    format      ascii;
    class       volScalarField;
    location    "200";
    object      k;
}
// * * * * * * * * * * * * * * * * * * * * * * * * * * * * * * * * * * * * * //

dimensions      [0 2 -2 0 0 0 0];


internalField   nonuniform List<scalar> 
120695
(
0.37598605
0.38582743
0.40151739
0.42683396
0.46143397
0.52466511
0.62892754
0.79638071
0.82231178
0.88983903
0.8601396
0.86401694
0.81499218
0.79479089
0.75023642
0.73277022
0.72209484
0.69488563
0.67907452
0.6650153
0.6411109
0.6282936
0.61863661
0.60984546
0.59749397
0.58772962
0.58069312
0.57480611
0.56661434
0.55932587
0.55438361
0.55045572
0.54593049
0.54053863
0.53566374
0.53128051
0.52584123
0.52049246
0.51621156
0.51235209
0.50912703
0.50662993
0.5034708
0.50027291
0.49735
0.4952984
0.49300557
0.49095978
0.48826955
0.48549168
0.48228426
0.47901016
0.47501699
0.47267776
0.47022945
0.46718506
0.4640842
0.46124331
0.45816956
0.45528431
0.45252478
0.44967226
0.44702342
0.44451107
0.4419741
0.43975516
0.43800688
0.43585981
0.43367365
0.43136981
0.42957931
0.42757891
0.42510031
0.4226212
0.42025671
0.41770434
0.41613288
0.41414359
0.41094365
0.40755792
0.40415052
0.40059924
0.39710015
0.39351959
0.39003272
0.38652688
0.38312144
0.37974115
0.37647883
0.3732452
0.37017971
0.36714589
0.36431403
0.36152461
0.35879474
0.35623939
0.35398925
0.35126268
0.3478057
0.34517957
0.34262164
0.34054294
0.33936593
0.3373564
0.33453253
0.33140946
0.32946832
0.32761906
0.32555173
0.32329896
0.32094138
0.31850797
0.31613387
0.3136192
0.3109982
0.30831375
0.30560844
0.30292226
0.30024561
0.29745461
0.29460849
0.29170984
0.28875067
0.285659
0.28230177
0.2797724
0.28167473
0.28028824
0.27836703
0.27608402
0.27361086
0.27038371
0.26636659
0.26162784
0.25900754
0.25627515
0.25285661
0.249049
0.24640368
0.24397621
0.24161884
0.23913763
0.23657422
0.23396194
0.23129677
0.22860056
0.22591998
0.22320114
0.22043365
0.21738143
0.21601091
0.22053351
0.22025132
0.21883702
0.21694384
0.21392267
0.21012107
0.20588894
0.2037789
0.20054038
0.19697583
0.19492943
0.19294138
0.19090457
0.18877972
0.18660197
0.18438576
0.18218092
0.17987916
0.17720941
0.17355419
0.16908768
0.16465425
0.16203558
0.16474768
0.17362145
0.17406039
0.17279494
0.17011863
0.16680808
0.16328402
0.16187789
0.15908587
0.15610653
0.15467223
0.15316725
0.15154574
0.14980724
0.14798165
0.1460666
0.14410519
0.14222523
0.14025008
0.14005744
0.14622812
0.14648541
0.145267
0.14281865
0.13984804
0.13665406
0.1354095
0.13292182
0.13026529
0.12898287
0.1276623
0.1263004
0.12483791
0.12326743
0.12157631
0.11966407
0.11692038
0.11358868
0.11022223
0.10822701
0.1109858
0.11941184
0.11873349
0.11661305
0.11409625
0.11172619
0.1112584
0.10933309
0.10731867
0.10655496
0.10565067
0.10458964
0.10339927
0.10212233
0.1008127
0.099497044
0.097455026
0.095011459
0.092293001
0.090513543
0.093044484
0.10147113
0.1033992
0.10891248
0.11556549
0.12633585
0.37995381
0.38881004
0.38878209
0.38818632
0.38577101
0.38338305
0.38068094
0.38573662
0.3891708
0.39548624
0.39981148
0.40488103
0.4068103
0.40156143
0.44172799
0.48949145
0.49024387
0.52831495
0.62232538
0.78663742
0.79731161
0.87760082
0.85790825
0.87339083
0.82378661
0.80933223
0.75660462
0.73531251
0.72614886
0.69716634
0.68048297
0.66968757
0.64493106
0.63115947
0.62096621
0.61330146
0.60030551
0.58978745
0.58200662
0.57559812
0.57087683
0.56640714
0.56115733
0.56060516
0.57081349
0.57647429
0.58423799
0.59343482
0.6010955
0.6146402
0.62230566
0.63219826
0.64052393
0.66510435
0.6757815
0.68406192
0.71435433
0.72087899
0.72740022
0.77523987
0.77391199
0.82866203
0.79183486
0.83862027
0.84836447
0.73098372
0.57812552
0.56500286
0.47779892
0.50844318
0.43987937
0.43485326
0.48326488
0.54818203
0.56787716
0.60247756
0.65844635
0.80563399
0.76480568
0.6148524
0.64860238
0.6876528
0.73412024
0.7230283
0.60926146
0.68679249
0.68350162
0.62232603
0.75016321
0.77517856
0.8309139
0.87308889
0.83123228
0.82944534
0.83550529
0.78948073
0.78160157
0.77694297
0.73511261
0.72858223
0.71990347
0.71481731
0.68481951
0.68377709
0.67083508
0.66397199
0.63957071
0.63926021
0.62952114
0.62146727
0.61557089
0.60018265
0.60066978
0.59069826
0.58296618
0.57613218
0.56681754
0.56143611
0.55399301
0.54905637
0.5466255
0.54247902
0.53772259
0.53370147
0.52824963
0.52269936
0.5181282
0.51398693
0.51017426
0.50695037
0.50490381
0.50306612
0.50031668
0.50023684
0.50478607
0.5081864
0.51252903
0.51731795
0.52199884
0.52681055
0.53204688
0.53811476
0.54258945
0.54815916
0.55487578
0.5492473
0.54439651
0.53803043
0.53332357
0.5276874
0.52247802
0.51750744
0.51278443
0.50843059
0.50413658
0.50044654
0.49603943
0.49381871
0.49267274
0.49146754
0.48997533
0.49175283
0.48891472
0.48644164
0.48463444
0.4824637
0.48267685
0.48643594
0.48975782
0.49251835
0.49589607
0.50112761
0.50596231
0.51125167
0.51423631
0.51880809
0.52360123
0.52857226
0.53382055
0.53981178
0.54740151
0.5513247
0.55650364
0.56227339
0.56934275
0.58013494
0.58545964
0.59251364
0.60038223
0.61043566
0.62564257
0.63335934
0.64269277
0.65022391
0.67282744
0.68123557
0.69108955
0.72011545
0.72597428
0.72894917
0.77575127
0.780396
0.82602139
0.80869791
0.84444088
0.84884654
0.86283648
0.8414054
0.68919292
0.63851453
0.8087868
0.83891123
0.89503799
0.84510943
0.80654806
0.8376882
0.78720542
0.78799989
0.78439983
0.74218647
0.74573948
0.73637184
0.7024542
0.69529412
0.68473329
0.67882882
0.65332917
0.65563231
0.6443687
0.63585899
0.62061723
0.61262981
0.60353455
0.59603927
0.58942515
0.57856597
0.57170262
0.56566425
0.55997799
0.55483071
0.54758881
0.54254145
0.5364996
0.53114183
0.52620375
0.52135151
0.51750064
0.5127713
0.50869894
0.50425933
0.4973735
0.49433589
0.49078181
0.48614474
0.4787587
0.4749002
0.47197576
0.47057536
0.46817868
0.46513036
0.46218391
0.45908658
0.45609008
0.45325397
0.45037081
0.44762125
0.44501345
0.44235081
0.43981004
0.43736894
0.43572294
0.43439249
0.43248025
0.43249531
0.43495316
0.43757713
0.44041777
0.44339653
0.44623724
0.44902776
0.45194812
0.45485456
0.45786712
0.46108235
0.46431782
0.46767866
0.47138233
0.47354844
0.4758729
0.47867988
0.48594316
0.48698985
0.48642231
0.48485964
0.48300413
0.4776707
0.47574595
0.47320152
0.47002802
0.46659593
0.46350349
0.46030061
0.45724893
0.45432274
0.45134722
0.44838625
0.44545429
0.44243138
0.43949502
0.43675452
0.43446468
0.43158222
0.43003494
0.42836187
0.42711466
0.4252549
0.42288785
0.42081965
0.41941036
0.42094433
0.42424264
0.42739845
0.42941111
0.43203276
0.43143134
0.43215017
0.43492619
0.43712529
0.43977022
0.44252356
0.44551823
0.44853444
0.45156294
0.45464024
0.45761951
0.46065997
0.4638361
0.46702331
0.47016273
0.47399
0.47761146
0.4800589
0.48341471
0.48069798
0.47772444
0.47477238
0.47134305
0.46808087
0.46482839
0.4616908
0.45864458
0.45552038
0.4524337
0.44945225
0.44640029
0.44350289
0.44082304
0.43814212
0.43558069
0.43302234
0.42914387
0.42655303
0.42365578
0.42205675
0.41936686
0.41746445
0.4137947
0.41001783
0.4062459
0.40245605
0.3987159
0.3949813
0.39132694
0.38771263
0.38415381
0.38066925
0.37729474
0.37397655
0.37079618
0.36766774
0.3646992
0.36173
0.35878945
0.35567653
0.35331661
0.35358113
0.35436784
0.35460352
0.35556999
0.35770437
0.36051416
0.36107205
0.36397789
0.36469894
0.36639613
0.36947636
0.37284224
0.3736256
0.37762547
0.37851583
0.38056413
0.38423066
0.38801452
0.38858412
0.39059141
0.39448983
0.39850324
0.39876119
0.40033441
0.40395825
0.40800331
0.4079078
0.40896223
0.4117841
0.41511362
0.41881911
0.4230127
0.42421043
0.42749493
0.43138759
0.43356952
0.4367401
0.4415869
0.44625341
0.45092308
0.45563606
0.46031354
0.46477063
0.46994025
0.47601254
0.48164632
0.48769519
0.49352441
0.49941502
0.50538351
0.51151203
0.51774042
0.5240415
0.5303583
0.53684694
0.54341825
0.55009339
0.55691851
0.56374967
0.570602
0.57749211
0.58439209
0.59134347
0.59833985
0.60583172
0.61236312
0.62031938
0.62583631
0.62963947
0.65500826
0.65958094
0.65984769
0.6535611
0.64572602
0.63767672
0.63099703
0.61645824
0.62096172
0.61209762
0.60485841
0.59759696
0.59029317
0.58299905
0.57575836
0.56855359
0.56131015
0.55422998
0.54727474
0.54037008
0.53361949
0.52692619
0.520345
0.5138968
0.50756799
0.5013021
0.49513718
0.48902149
0.48278749
0.47672573
0.46872353
0.46478741
0.46503854
0.47085582
0.47665778
0.48319553
0.4894558
0.49583233
0.50227524
0.50880281
0.51544556
0.52213561
0.52895128
0.53592475
0.54302926
0.55019612
0.55751672
0.56493213
0.5725059
0.58016954
0.58785419
0.59557591
0.60334898
0.61111356
0.61878918
0.62701814
0.63406045
0.64277457
0.64961288
0.66243276
0.67020144
0.67533782
0.67154479
0.66686382
0.66019727
0.65252092
0.63799836
0.64281316
0.63366563
0.62553838
0.61729713
0.60896087
0.60069199
0.59247662
0.58433746
0.57626881
0.5683458
0.56056021
0.55293121
0.54543874
0.53802918
0.53078094
0.52369349
0.5166791
0.50979449
0.5030548
0.49635341
0.4897959
0.48328499
0.47686351
0.47049337
0.46311844
0.45991024
0.45548287
0.450878
0.44593476
0.44051405
0.43575231
0.43024482
0.42586801
0.42084923
0.41876085
0.41512017
0.41147366
0.40788074
0.40418443
0.40369938
0.40353405
0.3994066
0.39561633
0.39491929
0.39444798
0.39038838
0.38685089
0.3853479
0.38451114
0.3806642
0.37739011
0.37555507
0.37435779
0.37115682
0.36987927
0.36667958
0.3640783
0.36225854
0.36123945
0.35879306
0.35785196
0.3552265
0.35294547
0.35219297
0.35183361
0.35112986
0.35050451
0.34864046
0.34670464
0.34501797
0.34270452
0.34137307
0.34451626
0.34784031
0.34887541
0.34632569
0.34406702
0.34475316
0.34549379
0.3476281
0.34848758
0.34952699
0.35090259
0.35365397
0.35478193
0.35615506
0.3590399
0.36058757
0.3622694
0.36551415
0.36667843
0.36804079
0.37118553
0.37200285
0.37312312
0.37606973
0.37700452
0.37994965
0.38089065
0.38371667
0.38448914
0.38747784
0.3887298
0.39202715
0.39349583
0.39718594
0.39935441
0.40362665
0.40645915
0.41104567
0.41576302
0.42096308
0.42517132
0.43032983
0.43555939
0.44069866
0.44569207
0.45041766
0.45320645
0.45861051
0.46444043
0.4587875
0.45422137
0.45828192
0.46049564
0.45547756
0.44947982
0.44476543
0.43672345
0.44064917
0.44211745
0.44570314
0.45049299
0.4549606
0.45944139
0.46392049
0.46813705
0.47328209
0.47929855
0.4842079
0.48956042
0.49483634
0.50027802
0.50584121
0.5112605
0.5168941
0.52268149
0.52853426
0.53451767
0.54056016
0.54668293
0.55287431
0.55913772
0.56555232
0.57213156
0.57907053
0.58638477
0.5913141
0.59707088
0.59673694
0.59926317
0.60352476
0.60411147
0.60773033
0.63029366
0.6436016
0.66494216
0.67855925
0.68871948
0.69919074
0.70837126
0.72235541
0.73204532
0.7427155
0.75423599
0.76646698
0.77951575
0.79556173
0.81915549
0.8311764
0.84649835
0.86354668
0.88366395
0.89971525
0.93169143
0.95081024
0.97307645
1.0005621
1.0246698
1.0756477
1.1073023
1.1425527
1.1740281
1.2538522
1.3032828
1.345823
1.4658681
1.5238941
1.5728193
1.7666208
1.8566732
2.1071621
2.1331765
2.3374508
2.1784666
2.1364077
1.5606345
0.77272251
0.52766136
0.45108784
0.41947485
0.39893265
0.38594467
0.38193119
0.37921371
0.3832355
0.38689758
0.39260494
0.40943296
0.43561903
0.48603879
0.65850182
1.2659978
1.8554388
2.2600221
2.637843
2.4388645
2.4483415
2.5708794
2.2328783
2.2449041
1.9695845
1.9024209
1.8373983
1.6239218
1.6541921
1.5747712
1.5209112
1.3765416
1.3968129
1.3347949
1.2929119
1.1930433
1.2074629
1.1664152
1.13297
1.1063493
1.0400996
1.0530195
1.0221503
0.99722006
0.9755367
0.95882522
0.91319795
0.92434278
0.90094458
0.88251161
0.86612178
0.85072117
0.82692258
0.8128093
0.79685863
0.78277021
0.76985337
0.75767458
0.74642266
0.73758591
0.71505667
0.72197282
0.70979784
0.69980729
0.69170027
0.66992419
0.66623036
0.67035281
0.68451063
0.70202807
0.71174917
0.72204846
0.7341104
0.74452403
0.76003735
0.77128408
0.78367762
0.79694297
0.81088573
0.82604979
0.8445434
0.87061803
0.88481386
0.90252009
0.92130504
0.94134759
0.96493126
0.99972666
1.0219551
1.0475484
1.0784863
1.1059621
1.1624488
1.1976518
1.2380022
1.2735732
1.3626725
1.4152449
1.4799525
1.6116478
1.6826951
1.7474891
1.9562123
2.068509
2.3737084
2.4274131
2.6786238
2.5909404
2.5453056
1.8941574
1.0682101
0.57357797
0.64910523
0.46032935
0.4222227
0.40008361
0.38927345
0.39111937
0.38916114
0.38489204
0.38168473
0.38626171
0.39099459
0.39780191
0.4045727
0.41179635
0.44445641
0.55098325
1.0810285
1.2753753
1.7052014
2.418035
2.7814427
2.689026
2.7297663
2.4751723
2.4708344
2.1719777
2.0835792
1.9999796
1.7823919
1.800437
1.7015373
1.5536548
1.4988768
1.4391564
1.3952225
1.2929024
1.3075074
1.2600714
1.2206766
1.1893742
1.1198887
1.1319608
1.0951669
1.066428
1.0410186
1.0043173
0.98340812
0.96013203
0.93893534
0.91961585
0.90158247
0.87577358
0.85977765
0.84180068
0.82572435
0.81083932
0.79675467
0.78372397
0.77319604
0.75008613
0.75613609
0.74248334
0.73099096
0.72039863
0.70585006
0.68736358
0.66420473
0.6988489
0.72265308
0.73841151
0.75124205
0.76457476
0.77696093
0.79369998
0.80694551
0.82116945
0.83639706
0.85240951
0.86959456
0.88995999
0.91722688
0.93331114
0.95331233
0.97456353
0.99797449
1.0243173
1.0638006
1.0860043
1.1153794
1.1500444
1.1828418
1.2422737
1.2824601
1.3283081
1.3698589
1.4609612
1.5178862
1.5876639
1.728917
1.7968183
1.8910484
2.1178801
2.2546443
2.5695336
2.655466
2.9317124
2.8586697
2.877971
2.4261379
2.1382981
2.7460331
2.8219243
2.9748837
2.7384344
2.6705594
2.3603273
2.2196294
1.9870093
1.9106314
1.822865
1.6740307
1.6077731
1.53774
1.4881149
1.3840333
1.394342
1.3403756
1.2969137
1.2639148
1.1930176
1.2024643
1.1621025
1.1299902
1.1024334
1.0626578
1.0389796
1.0116109
0.98809042
0.96622062
0.94570741
0.91843841
0.89977152
0.87973892
0.86193131
0.84529129
0.82950338
0.81462774
0.80230541
0.7797354
0.78411597
0.76914466
0.75607411
0.7447514
0.72391681
0.7172876
0.71871501
0.73461312
0.74826632
0.76041779
0.77343072
0.78845138
0.80212499
0.81995607
0.8350075
0.85097684
0.86789267
0.88557339
0.90444733
0.92726711
0.95646283
0.97441002
0.99709933
1.020969
1.0459886
1.076779
1.1185111
1.1429785
1.1745324
1.2097831
1.2513456
1.3151749
1.3557311
1.4018596
1.4568784
1.5569616
1.6208758
1.7053955
1.8561013
1.9328433
2.0411517
2.2573018
2.3562924
2.4610021
2.8026333
2.8327279
3.19158
3.2097491
2.8016968
2.3596215
0.95462864
0.495948
0.43055409
0.41890542
0.4648297
0.7164746
1.7084517
1.9856304
2.7905962
3.0446654
3.1417803
3.2145293
2.8922359
2.9395096
2.8544674
2.49135
2.5096247
2.3657859
2.1255879
2.0357734
1.9435726
1.7840872
1.6949769
1.6215481
1.5195016
1.4697616
1.4164632
1.3677334
1.3007899
1.2605644
1.2190425
1.1838388
1.1526945
1.1107908
1.0835117
1.0548403
1.0283535
1.003724
0.98123382
0.95271456
0.93226593
0.9106093
0.8910119
0.87261952
0.85511543
0.83850464
0.8245464
0.80257155
0.80528323
0.78887729
0.77485215
0.76189532
0.74517368
0.7313822
0.70579414
0.68239639
0.64839803
0.63332674
0.6113815
0.59807291
0.58289255
0.57220668
0.55723643
0.54425522
0.53123749
0.5210443
0.50963839
0.49982709
0.49034922
0.48246138
0.47506064
0.4690091
0.46320634
0.45829688
0.45342703
0.44941441
0.44537553
0.44208862
0.43903975
0.43706132
0.43675577
0.43674726
0.43894289
0.44139232
0.44378911
0.4462645
0.44866725
0.45125979
0.4537366
0.45639572
0.45898826
0.46177042
0.46447736
0.46743511
0.46950707
0.47095224
0.4753003
0.47763459
0.47868823
0.4785316
0.47536988
0.46369083
0.46591924
0.46572262
0.46375033
0.45951345
0.45368009
0.44613851
0.43647169
0.42406872
0.4069881
0.39176257
0.38015944
0.32765733
0.32647457
0.32529116
0.32410572
0.32291733
0.32172553
0.32053026
0.31933174
0.3181305
0.31692719
0.31572258
0.31451742
0.3133124
0.31210794
0.31090429
0.30970121
0.30849804
0.30729353
0.30608611
0.30487331
0.30365231
0.30241933
0.30117042
0.29990049
0.2986046
0.2972765
0.2959106
0.29449986
0.2930383
0.29151849
0.28993504
0.28828099
0.28655232
0.28474333
0.28285174
0.28087247
0.27880461
0.2766447
0.27439382
0.27204972
0.26961592
0.26708986
0.26446722
0.26424495
0.26688897
0.26943123
0.27188476
0.2742473
0.27651773
0.27869483
0.28078145
0.282777
0.28468492
0.28650875
0.28825289
0.28992079
0.29151771
0.29304923
0.29452181
0.29594158
0.29731558
0.29865024
0.29995175
0.30122601
0.30247846
0.30371399
0.30493684
0.30615069
0.30735858
0.30856295
0.30976557
0.31096775
0.31217015
0.31337306
0.31457629
0.31577944
0.31698188
0.31818287
0.31938167
0.32057765
0.32177033
0.32295948
0.32414519
0.32532793
0.32650862
0.32768859
0.32775639
0.32658273
0.3254083
0.32423181
0.32305235
0.32186943
0.32068295
0.31949314
0.31830047
0.31710554
0.3159091
0.3147119
0.31351454
0.31231744
0.31112081
0.30992436
0.30872745
0.30752883
0.3063267
0.30511863
0.30390143
0.30267161
0.30142489
0.3001564
0.2988603
0.29753088
0.29616183
0.29474695
0.29327952
0.29175318
0.29016153
0.28849886
0.28675983
0.28494174
0.28303842
0.28104695
0.27896458
0.2767925
0.27452717
0.27216913
0.26972016
0.26718397
0.26454801
0.26503351
0.26766703
0.27019624
0.27263818
0.27499074
0.2772506
0.27941721
0.28149418
0.28347886
0.28537542
0.28718608
0.28891695
0.29056985
0.29215255
0.29366929
0.29512769
0.29653312
0.29789325
0.29921366
0.30050063
0.30175976
0.30299702
0.30421731
0.30542505
0.3066235
0.307816
0.30900496
0.3101922
0.31137885
0.31256565
0.31375292
0.31494026
0.31612729
0.31731345
0.318498
0.31968021
0.32085946
0.3220353
0.32320754
0.3243763
0.32554208
0.32670582
0.3278689
0.32803497
0.32688755
0.32573968
0.32458986
0.3234371
0.32228082
0.32112084
0.31995732
0.31879067
0.31762151
0.31645055
0.31527849
0.31410591
0.31293325
0.31176094
0.31058852
0.3094152
0.30824014
0.3070615
0.30587685
0.30468265
0.30347595
0.30225219
0.3010063
0.29973251
0.29842591
0.29707988
0.29568993
0.29424652
0.29274575
0.29117839
0.28954176
0.28782449
0.28602633
0.28414313
0.28217276
0.28010721
0.27795192
0.27570525
0.27336337
0.2709388
0.26842478
0.26580764
0.26655475
0.2691938
0.27171823
0.27415209
0.27649739
0.27874002
0.28089218
0.28295286
0.28491296
0.28678203
0.28856788
0.29027741
0.29190789
0.29346683
0.29496038
0.29639538
0.29777693
0.29911289
0.30040835
0.30167056
0.30290305
0.3041121
0.30530402
0.30648289
0.30765148
0.30881342
0.30997133
0.31112704
0.31228133
0.3134352
0.31458892
0.31574197
0.31689398
0.31804447
0.31919281
0.32033831
0.32148037
0.32261863
0.32375301
0.32488379
0.32601168
0.32713778
0.32826367
0.32966557
0.32856586
0.32746841
0.32637103
0.32527197
0.32416996
0.32306415
0.32195413
0.32083994
0.31972187
0.31860044
0.31747624
0.31634986
0.31522176
0.31409232
0.31296198
0.31183034
0.3106966
0.30955983
0.30841798
0.30726874
0.30610874
0.30493474
0.30374249
0.30252691
0.30128204
0.30000246
0.29868214
0.29731687
0.29589665
0.29441804
0.29287101
0.29125269
0.28955171
0.28776712
0.28589663
0.28393498
0.28187805
0.27972971
0.27748587
0.27514432
0.27271902
0.27019075
0.26755499
0.26857521
0.27123752
0.27378015
0.27622359
0.27857624
0.28082434
0.28297869
0.28504384
0.2870136
0.28889053
0.2906789
0.29238141
0.29400243
0.29554659
0.29701934
0.29843086
0.29978647
0.30109377
0.30235886
0.30358806
0.30478659
0.30596094
0.30711632
0.30825594
0.30938341
0.31050209
0.31161428
0.31272221
0.31382673
0.31492885
0.31602901
0.31712657
0.31822128
0.3193128
0.32040065
0.32148431
0.32256335
0.3236376
0.32470715
0.32577253
0.32683471
0.32789516
0.32895589
0.33001936
0.33047156
0.32945456
0.3284407
0.32742715
0.32641163
0.32539245
0.32436844
0.32333889
0.32230353
0.32126241
0.32021583
0.31916417
0.31810785
0.31704715
0.31598238
0.31491423
0.3138421
0.31276509
0.31168235
0.31059135
0.30949003
0.30837441
0.30724127
0.30608677
0.30490604
0.30369286
0.3024426
0.30114836
0.29980321
0.2983998
0.29693373
0.29539588
0.29378435
0.29208595
0.29029891
0.28842038
0.2864453
0.28437158
0.28220401
0.27994044
0.27757493
0.27512445
0.27257236
0.26990506
0.27131732
0.27403032
0.27661863
0.27910652
0.28150041
0.28378414
0.28596875
0.28806518
0.29005276
0.29193606
0.29372643
0.29543255
0.29705265
0.29859055
0.3000533
0.30145469
0.30279298
0.304076
0.3053131
0.30651166
0.30767508
0.30880928
0.30991917
0.31100925
0.31208296
0.31314377
0.31419411
0.31523628
0.31627124
0.31730015
0.31832378
0.31934106
0.32035173
0.32135558
0.3223523
0.32334165
0.32432341
0.32529773
0.3262651
0.32722645
0.32818322
0.32913744
0.33009176
0.3310495
0.33179219
0.33091006
0.33003124
0.32915179
0.32826853
0.32737902
0.32648142
0.32557455
0.32465771
0.32373059
0.32279323
0.32184578
0.32088853
0.31992169
0.3189457
0.3179619
0.31696926
0.31596676
0.31495343
0.31392675
0.31288458
0.31182292
0.3107383
0.30962647
0.3084825
0.30730083
0.30607674
0.30480385
0.30347475
0.30208182
0.30062167
0.29908488
0.29746908
0.29576136
0.2939604
0.29206366
0.29006539
0.28796031
0.28575388
0.28344203
0.281025
0.27851967
0.2759096
0.27317964
0.27524393
0.27802781
0.28067865
0.28322355
0.28567796
0.28802156
0.29025752
0.29239086
0.29440904
0.29632114
0.29813949
0.29986087
0.30149055
0.30303349
0.30449503
0.30588847
0.30721363
0.30847887
0.30969336
0.31086169
0.31198865
0.31307948
0.31413968
0.31517351
0.31618452
0.31717629
0.31815114
0.31911147
0.32005808
0.32099225
0.32191506
0.32282501
0.32372137
0.32460379
0.32547202
0.32632594
0.32716562
0.32799149
0.32880443
0.32960594
0.3303982
0.33118419
0.33196776
0.33275371
0.33400662
0.33334193
0.33267703
0.33200611
0.33132455
0.33062886
0.32991654
0.32918591
0.328436
0.32766632
0.3268768
0.32606761
0.32523906
0.32439166
0.3235271
0.32264624
0.32174838
0.32083242
0.31989741
0.31894101
0.31796132
0.31695442
0.31591717
0.31484549
0.31373427
0.31257767
0.31137177
0.31011073
0.30878682
0.30739268
0.30592471
0.30437364
0.30273774
0.30100344
0.29917077
0.29723839
0.29519884
0.29304641
0.2907862
0.2884174
0.28593521
0.28335826
0.28066641
0.27784641
0.27772493
0.28073409
0.28360664
0.28635154
0.28898519
0.29151341
0.29391834
0.29621149
0.29840514
0.30047738
0.30243523
0.30429069
0.30605034
0.30771418
0.30928451
0.31076761
0.31217728
0.31351095
0.31477657
0.31598326
0.31713806
0.31824272
0.31930265
0.32032371
0.32131046
0.32226509
0.32319075
0.32408957
0.32496348
0.32581331
0.32664005
0.32744429
0.32822571
0.3289814
0.32971059
0.3304129
0.33108813
0.33173619
0.33235758
0.33295326
0.33352489
0.33407515
0.33460784
0.33512819
0.33564306
0.33616069
0.33809863
0.33776782
0.33743253
0.33708317
0.33671214
0.3363139
0.33588452
0.3354214
0.33492299
0.33438843
0.3338172
0.33320931
0.33256505
0.33188503
0.33117049
0.33042582
0.32965056
0.32884438
0.32800677
0.32713718
0.32623377
0.32529522
0.32431835
0.32330076
0.32223916
0.32112926
0.3199661
0.31874566
0.31746216
0.31610935
0.31468031
0.3131715
0.31157564
0.30989056
0.30810263
0.30621105
0.30421429
0.30210726
0.29988249
0.29754584
0.29509283
0.29252249
0.28985259
0.28706342
0.28414904
0.28110832
0.28148744
0.28471558
0.28780772
0.29078321
0.29362856
0.29635307
0.29897944
0.30148618
0.30387839
0.30615021
0.30830322
0.31035161
0.31229534
0.31413183
0.31586475
0.31750482
0.31905697
0.32052707
0.32192024
0.32324233
0.32449782
0.3256919
0.32682868
0.32791306
0.32894869
0.32993716
0.33088076
0.3317811
0.33263917
0.33345613
0.33423189
0.33496623
0.33565889
0.33631139
0.33691751
0.33747511
0.33798326
0.33844162
0.33885047
0.33921069
0.33952348
0.33979064
0.34001517
0.34020128
0.34035435
0.34048185
0.34059401
0.34070401
0.34354647
0.3436962
0.34383498
0.34394758
0.34402412
0.3440567
0.34403783
0.34396098
0.34382247
0.34361972
0.34335026
0.34301203
0.34260443
0.34212811
0.34158517
0.34098146
0.34032147
0.3396052
0.33883411
0.3380096
0.33713311
0.33620512
0.33522625
0.33419509
0.33311105
0.331973
0.33077867
0.32952452
0.32820704
0.32682388
0.32536896
0.32383523
0.32221981
0.32051736
0.31872291
0.31682872
0.31483333
0.31273451
0.31052918
0.30820784
0.30577264
0.30322363
0.30055557
0.2977874
0.29489677
0.29188003
0.28874335
0.28548543
0.28943789
0.29275073
0.29593586
0.29900394
0.30194328
0.30476881
0.30748763
0.31008397
0.31257312
0.31495534
0.31722354
0.31938759
0.32145426
0.32342585
0.32530039
0.32708649
0.32879039
0.33041905
0.33197297
0.33345535
0.33487135
0.3362259
0.33751956
0.33875468
0.33993229
0.34105273
0.34211532
0.34311865
0.34406093
0.34494012
0.34575215
0.34649364
0.34716088
0.3477493
0.34825889
0.34867654
0.34899669
0.34921644
0.34933541
0.34935622
0.3492829
0.34912089
0.34887594
0.34856483
0.34820472
0.34780548
0.34737534
0.34693118
0.34649412
0.35005289
0.35084195
0.35163739
0.35242251
0.3531838
0.3539055
0.35456934
0.3551456
0.35561054
0.35594471
0.3561233
0.35614494
0.35601233
0.35573277
0.35531655
0.35477729
0.35413673
0.35339379
0.35255732
0.35163483
0.35063307
0.3495584
0.34841574
0.34720972
0.34594248
0.34461662
0.34323359
0.34179366
0.34029553
0.33873889
0.33712168
0.33544254
0.33369379
0.33187357
0.32997861
0.32800509
0.32594609
0.32380016
0.32156227
0.31922984
0.31679421
0.31425903
0.31161926
0.30886899
0.30602279
0.30305932
0.29997205
0.29676452
0.29343347
0.29680266
0.30014881
0.30336586
0.30646881
0.30944816
0.31231926
0.31509704
0.31777094
0.32035605
0.3228516
0.32525531
0.32757606
0.32981756
0.33198429
0.33407817
0.33610652
0.33807512
0.33998148
0.34182953
0.34362555
0.34537222
0.34706715
0.34871072
0.35030325
0.35184352
0.35332867
0.35475471
0.3561176
0.35741082
0.35862697
0.35975717
0.36079145
0.36171809
0.36252302
0.36319418
0.36372097
0.36407084
0.36422005
0.36414604
0.36382949
0.36325239
0.36247936
0.3615681
0.36054297
0.35942529
0.35823908
0.35700583
0.35574625
0.35448373
0.35828662
0.36018243
0.36209361
0.36397517
0.36579503
0.36752686
0.36913603
0.37057108
0.37177471
0.37269753
0.3732826
0.37349712
0.37339467
0.37301723
0.37240347
0.37158932
0.37061995
0.36949842
0.36824617
0.36688233
0.36542287
0.36388125
0.36226891
0.36059387
0.35886365
0.35708265
0.35525576
0.35338671
0.35147819
0.34953148
0.34754862
0.34553033
0.34347515
0.34137851
0.33923944
0.33705536
0.33482193
0.33253319
0.33018817
0.32778111
0.32530812
0.32276287
0.32014601
0.31745364
0.3146763
0.31182415
0.30887277
0.30581115
0.30263665
0.29933934
0.30001732
0.30323194
0.30632492
0.30931916
0.31221529
0.31503632
0.31779418
0.32048435
0.32312322
0.32571253
0.32825008
0.33074372
0.33319935
0.33562664
0.33801841
0.34038083
0.34272154
0.34504151
0.34734261
0.34962993
0.35190469
0.3541646
0.35640499
0.35862198
0.36081332
0.36297574
0.36510554
0.36719948
0.36925036
0.37124876
0.37318234
0.37503525
0.3767883
0.37841889
0.37990205
0.38121679
0.3823472
0.38324408
0.38385875
0.38413184
0.38398754
0.38329614
0.38205046
0.38031199
0.37819779
0.37582945
0.37328006
0.37057889
0.36776896
0.36493306
0.36985516
0.37400932
0.37822252
0.38227953
0.38597902
0.3892649
0.39213119
0.39443138
0.3958988
0.3964777
0.39625293
0.39547361
0.39428402
0.39277847
0.39102472
0.38907709
0.38697583
0.38472856
0.38236279
0.3799064
0.37738464
0.37481707
0.37221943
0.36960284
0.36697518
0.36434662
0.36171885
0.35909062
0.35645845
0.35382281
0.35119149
0.34857496
0.34598063
0.34340841
0.34085104
0.33830188
0.33575976
0.33322135
0.3306813
0.32813471
0.32557484
0.323001
0.32040708
0.31779211
0.31514872
0.31246866
0.30975448
0.30698196
0.30413414
0.30120185
0.29816713
0.29500534
0.28923106
0.29212829
0.29490515
0.29759549
0.30022341
0.30279278
0.30533273
0.30786157
0.31037813
0.31289919
0.31543072
0.31797579
0.32053875
0.32311105
0.32570753
0.32834065
0.33102248
0.33374652
0.33650028
0.33931313
0.34225226
0.34527194
0.34833297
0.35140893
0.35449382
0.35761587
0.36080502
0.36408242
0.36743026
0.3707929
0.37414935
0.37749718
0.38084052
0.38418961
0.38752462
0.39081207
0.39402897
0.39714994
0.40015925
0.40299374
0.40558197
0.40783307
0.4096046
0.41064484
0.41058436
0.40917561
0.4066837
0.40319235
0.39856684
0.39280532
0.3865417
0.38032619
0.37444088
0.36921772
0.37141738
0.37853334
0.38590989
0.39506998
0.40430146
0.41348007
0.42136434
0.42600626
0.42782726
0.42774686
0.42640091
0.423873
0.4202993
0.41618273
0.41175132
0.40707811
0.40224717
0.39734038
0.39243546
0.3876265
0.3829748
0.3784473
0.37418964
0.3702177
0.36614274
0.36185229
0.3573578
0.35271016
0.348405
0.34455536
0.34107972
0.3378223
0.33441457
0.3307772
0.32717255
0.32357404
0.32110647
0.31843622
0.31574704
0.31307296
0.31050319
0.30804594
0.30563611
0.30322646
0.30083799
0.29850192
0.29625104
0.29402778
0.29181856
0.28963875
0.28744684
0.2852055
0.28290442
0.28053726
0.27805643
0.25903156
0.26091063
0.26275187
0.26453437
0.26618747
0.26772184
0.26924511
0.27079469
0.27231361
0.27338068
0.27565625
0.27784084
0.27987425
0.28160812
0.28362962
0.28645191
0.28993882
0.29314328
0.29624275
0.28895825
0.29016407
0.29221914
0.29422444
0.2970974
0.29972943
0.30254286
0.30453607
0.30654756
0.30756981
0.30885618
0.30975946
0.31160965
0.31330728
0.3154908
0.31740318
0.32020198
0.32507139
0.32964298
0.33376517
0.33788121
0.34156309
0.34536682
0.34870986
0.3518974
0.35399555
0.35568841
0.35854061
0.36122138
0.36471904
0.36768096
0.370363
0.37320069
0.37601941
0.37901756
0.38203397
0.3851804
0.38837205
0.39165918
0.39501189
0.39842296
0.40193309
0.40545928
0.40908611
0.41271102
0.41647524
0.42038847
0.42471625
0.42993739
0.43428939
0.43876203
0.44270238
0.44634029
0.45006556
0.45361759
0.45722795
0.4605096
0.44393809
0.4466829
0.44611622
0.44515609
0.4411502
0.43595386
0.42984964
0.42366878
0.41725669
0.41138136
0.41632304
0.39840062
0.38132278
0.37000988
0.38048477
0.38570478
0.39396239
0.40361302
0.41706732
0.43013677
0.44507736
0.45796535
0.47013074
0.4777797
0.48111311
0.48277323
0.48301252
0.48239921
0.47965259
0.48661175
0.48655555
0.48818948
0.48947535
0.4912661
0.49266043
0.49367489
0.49726112
0.50039464
0.50180793
0.50318113
0.5048711
0.50688354
0.50852074
0.50925915
0.5072222
0.5058076
0.50533097
0.49379904
0.47765971
0.46243376
0.44189555
0.42315158
0.4060826
0.39232241
0.40590432
0.39244374
0.38216168
0.37636549
0.3790965
0.38994735
0.3864514
0.40097131
0.42147995
0.44913256
0.42526051
0.45253216