/*--------------------------------*- C++ -*----------------------------------*\
| =========                 |                                                 |
| \\      /  F ield         | OpenFOAM: The Open Source CFD Toolbox           |
|  \\    /   O peration     | Version:  v2012                                 |
|   \\  /    A nd           | Website:  www.openfoam.com                      |
|    \\/     M anipulation  |                                                 |
\*---------------------------------------------------------------------------*/
FoamFile
{
    version     2.0;
    format      ascii;
    class       volScalarField;
    location    "200";
    object      omega;
}
// * * * * * * * * * * * * * * * * * * * * * * * * * * * * * * * * * * * * * //

dimensions      [0 0 -1 0 0 0 0];


internalField   nonuniform List<scalar> 
120695
(
12.366247
14.234149
18.325275
27.247513
47.172063
93.893365
177.0926
416.7181
427.86965
491.4988
435.56332
432.51449
368.91218
351.70096
297.04781
285.07895
275.93948
245.14752
235.20831
225.45167
199.03578
191.24407
185.26557
179.2582
165.58813
159.77079
155.15373
150.87231
141.01687
133.70239
131.15911
129.04918
126.50181
123.22183
120.44316
117.78058
112.32048
109.39708
107.13515
105.12539
103.3191
101.7186
98.580286
95.938157
94.838468
93.847746
92.724024
91.711277
90.113009
87.041666
85.000834
81.740113
80.498289
79.619939
78.698878
77.749732
76.784489
75.890799
75.027471
74.216751
73.446192
72.689168
71.973565
71.299994
70.653363
70.068855
69.584698
68.668243
67.572146
67.122098
66.699844
66.228422
65.611901
65.012627
64.554
63.819274
62.051718
60.243164
59.486013
58.776454
58.044528
57.286912
56.527054
55.757727
54.999796
54.2426
53.504104
52.774396
52.069447
51.376958
50.708106
50.056863
49.441504
48.866699
48.329062
47.849029
47.746725
47.650626
47.44692
47.087814
46.844212
46.415181
45.808321
45.614847
45.474231
45.271691
44.882443
44.570387
44.297626
44.046718
43.809159
43.582817
43.373116
43.163013
42.951691
42.743347
42.540062
42.347234
42.164009
41.981804
41.801628
41.623263
41.446806
41.279409
41.074793
40.69189
39.855954
39.512933
39.25955
39.046395
38.83891
38.797827
38.781802
38.697007
38.487198
38.300935
38.228915
38.144173
37.979926
37.835072
37.715317
37.594148
37.476101
37.359483
37.245688
37.135162
37.032798
36.931087
36.815803
36.694217
36.442246
35.837175
35.568196
35.379905
35.222075
35.184533
35.159904
35.068462
34.861308
34.799647
34.720702
34.564855
34.42935
34.308765
34.195043
34.085303
33.982931
33.892365
33.80251
33.703567
33.660096
33.617266
33.567778
33.459564
33.191402
32.661222
32.460024
32.33709
32.297824
32.264073
32.172001
31.998384
31.926729
31.845201
31.720508
31.606746
31.503158
31.40498
31.309901
31.218058
31.12803
31.039315
30.950198
30.778989
30.396303
30.215482
30.097473
30.059963
30.035068
29.96289
29.825781
29.770236
29.706298
29.59835
29.504334
29.43041
29.365223
29.302055
29.243059
29.180732
29.157082
29.137407
29.122093
29.086881
28.937153
28.586782
28.515465
28.499954
28.496348
28.457155
28.361302
28.348888
28.336112
28.277964
28.229086
28.188623
28.153996
28.124632
28.109784
28.122735
28.171003
28.224118
28.263694
28.279782
28.159422
27.898034
28.460816
36.36795
38.014721
36.095552
12.942727
14.666674
14.660531
14.427871
13.80617
13.413484
12.895333
13.525308
14.331086
15.872039
16.830343
18.490056
19.532272
17.739826
32.652941
57.921609
62.023396
92.842709
164.89843
386.9564
380.91233
464.68497
433.10486
440.07334
383.12055
368.4053
310.45916
293.54265
285.12548
250.07048
236.9463
229.45851
201.84795
191.39365
184.62338
179.63779
165.10574
158.06575
153.13989
149.34092
144.61045
139.87415
135.36741
130.90994
139.84751
142.98665
145.97263
149.68277
152.96782
167.51841
172.08382
177.03762
180.68717
206.21929
213.22742
217.37194
251.4982
257.52256
261.02701
314.70051
314.93453
384.06589
355.30987
433.98769
489.75393
315.30846
119.77221
110.57667
49.816135
65.721983
31.401073
28.419048
49.317121
93.431825
113.23374
166.83704
230.08259
400.28161
343.80026
178.44751
236.84944
287.79996
341.73398
334.89584
197.29661
304.27708
293.33707
181.30862
321.89251
335.0729
413.13236
448.02998
387.06872
382.66219
382.90094
327.57158
316.05949
309.98581
267.72061
256.30629
248.94052
243.79453
219.06568
211.54378
204.55009
199.27937
180.48459
175.2638
170.48667
166.35471
162.82226
152.28708
149.06356
144.90596
141.47516
138.06193
128.96554
126.8764
127.60898
127.03795
125.94331
123.24372
120.69413
118.58834
113.27605
110.0904
107.73957
105.64799
103.65825
102.03325
100.32023
98.756616
97.620999
96.650147
100.33346
101.9164
103.78704
105.84631
107.82082
109.88336
112.36189
119.03539
121.45234
124.39908
124.13609
121.75069
119.35774
113.11119
111.26315
109.00682
106.97054
104.98363
103.05894
101.18969
97.486451
96.085893
94.673692
93.160331
92.646677
92.143989
91.440816
92.704458
91.394223
88.650713
87.688771
86.211085
86.004362
90.06813
91.586011
92.834095
94.206526
95.870478
97.727272
101.55787
102.88705
104.62563
106.48124
108.39821
110.38276
112.72769
118.9597
120.83072
123.01557
125.33292
128.17884
137.58081
140.22794
143.48006
147.0568
151.47229
165.39416
169.24825
173.69617
176.65216
198.34345
203.80442
209.26357
239.08974
244.39071
246.75416
295.65153
301.95447
355.8344
347.04817
398.04248
399.19521
400.29516
407.5345
260.03434
184.67248
349.41393
358.13664
395.52052
350.93836
331.58734
349.40488
295.11647
292.95977
288.34782
255.39403
250.75773
243.2603
211.47137
207.68647
202.16097
197.6818
179.70663
177.70911
172.55434
167.96213
154.00094
150.72127
146.77044
143.38123
140.31088
130.56607
127.78364
125.4047
123.10197
120.78652
114.63191
112.80938
110.55983
108.55217
106.65905
104.8465
103.16425
99.398681
97.976256
96.402844
94.461359
93.173922
89.245322
87.748082
84.900613
83.328502
80.266645
79.666868
79.226825
78.228299
77.23969
76.273116
75.350009
74.475687
73.622916
72.809387
72.036063
71.277724
70.539482
69.925347
69.365021
68.83242
68.383822
68.340542
69.626933
70.376531
71.259785
72.237368
73.134364
74.02834
74.952753
75.903021
76.894549
77.949479
79.061232
80.259732
81.937345
83.441283
84.181629
85.067005
87.865108
88.11841
87.722964
87.411562
86.901478
84.868325
84.255377
82.860909
81.612049
80.156755
79.098677
78.080907
77.107693
76.163093
75.227968
74.294902
73.359392
72.400858
71.478719
70.641137
69.972514
68.473205
67.656856
66.724843
66.433469
65.920276
65.293945
64.957904
64.650662
64.956311
65.831226
66.757133
67.812203
68.62463
68.833368
69.037952
70.503155
71.146694
71.942091
72.784625
73.698861
74.63874
75.579675
76.522929
77.455709
78.401674
79.367628
80.35518
81.37204
83.079099
85.118002
85.954049
86.842656
85.921292
84.216004
83.107285
81.748285
80.704547
79.700974
78.724126
77.768485
76.810807
75.866649
74.937664
74.019497
73.140374
72.312897
71.491395
70.096136
69.312842
68.030415
66.911658
66.011341
64.34246
63.398983
62.196982
60.976417
60.171191
59.38175
58.574248
57.763989
56.950947
56.147749
55.351463
54.56886
53.801826
53.052938
52.32131
51.610277
50.92425
50.272088
49.651581
49.024938
48.320082
48.056258
48.202705
49.157614
49.448399
49.895863
50.617635
51.216677
51.323757
52.235572
52.475453
52.892191
53.60638
54.106955
54.208803
55.114701
55.339909
55.761091
56.516688
57.02245
57.096891
57.401858
58.067896
58.541082
58.492004
58.581768
59.065822
59.504269
59.351809
59.287177
59.694887
60.169448
60.572872
61.012997
60.990977
61.183706
61.731968
62.25972
63.029292
63.743705
64.458658
65.234672
66.009864
66.849675
67.61657
68.504659
69.375196
70.220427
71.149759
72.074187
73.027734
73.999116
74.998292
76.016723
77.05823
78.11241
79.195367
80.296521
81.420049
82.566019
83.726425
84.896085
86.081303
87.273773
88.484581
89.719908
91.159615
92.453856
93.901562
95.022542
96.001135
97.458667
97.725365
96.940401
96.677923
96.176745
94.88082
93.790286
92.178611
92.099816
90.452284
89.192803
87.949819
86.722336
85.502121
84.299009
83.107343
81.926908
80.768766
79.634267
78.515359
77.423439
76.345985
75.293367
74.260775
73.253838
72.263368
71.299171
70.350424
69.401861
68.456303
67.868131
67.213445
66.806656
67.575695
67.519438
68.489717
69.441768
70.414115
71.405717
72.410854
73.440046
74.483996
75.553612
76.643908
77.760097
78.889902
80.046396
81.220138
82.41907
83.634307
84.864926
86.10719
87.368064
88.64298
89.947574
91.477925
92.830681
94.325305
95.560533
96.389157
96.488576
96.680856
95.671858
95.581587
95.266394
94.134084
92.524124
92.460267
90.734331
89.385959
88.072788
86.770433
85.487889
84.217224
82.964159
81.724319
80.507634
79.309005
78.136802
76.982846
75.850954
74.738551
73.653872
72.584335
71.539368
70.513767
69.506374
68.516593
67.541114
66.581184
66.564214
66.092894
65.935096
65.196238
64.437958
63.666684
62.895755
62.132423
61.213502
60.472113
60.383717
60.425302
59.840548
59.304375
58.747135
58.141433
58.685715
58.938246
58.2762
57.66968
57.923185
58.044971
57.324989
56.736104
56.622268
56.593622
55.82967
55.254742
54.881357
54.595554
53.880593
53.745087
53.039625
52.543559
52.086527
51.775324
51.026939
50.859323
50.144115
49.682838
49.100458
48.732277
47.88627
47.772148
47.637015
47.522457
47.113454
46.981621
46.780663
46.809088
47.200541
47.422493
47.092848
46.966383
47.69321
48.075695
48.586687
49.07699
49.57584
49.995898
50.640994
51.029293
51.376004
51.903355
52.256959
52.645988
53.292118
53.605707
53.906709
54.43344
54.560828
54.755115
55.217915
55.311346
55.673875
55.676903
55.985847
55.939339
56.212972
56.140366
56.409701
56.396337
56.725345
56.791347
57.214869
57.424255
58.009591
58.625923
59.215758
59.596884
60.323291
61.087493
61.861924
62.623334
63.377329
64.139598
64.788327
65.628312
65.37878
64.6714
64.322818
63.282843
63.326288
63.300454
63.310045
63.779175
64.490296
64.949042
65.987853
66.760127
67.509264
68.315393
69.144748
69.920817
70.818714
71.786014
72.5936
73.486013
74.388472
75.32477
76.2892
77.255703
78.256966
79.28386
80.332497
81.403636
82.495772
83.603703
84.733539
85.87941
87.054805
88.259967
89.529598
91.015877
92.181945
93.683093
94.545153
95.265113
96.05272
95.461682
95.050434
96.585306
99.024953
102.10039
105.06695
106.92772
108.84723
110.64991
113.26235
115.13516
117.16013
119.34532
121.67685
124.16474
127.12537
131.58514
133.91493
136.7966
139.92469
143.5231
146.57736
152.41627
156.09217
160.19353
165.05717
169.49849
178.52062
184.09943
190.14721
195.64191
209.09286
217.28601
224.27617
242.70731
252.49807
260.71805
289.13373
302.55625
337.22071
345.76122
380.78649
372.51422
382.97497
304.16053
152.182
70.774629
31.814101
21.289345
16.37992
13.697824
13.145635
12.680288
13.137054
13.894638
15.085899
18.624018
26.008258
47.792744
116.18976
248.01826
341.07946
376.16672
410.73161
406.28495
390.06613
390.28891
343.68708
339.973
304.06977
293.86795
283.73588
261.33388
259.40135
248.3106
240.23984
224.14397
222.60255
213.3369
206.72579
194.75086
193.29375
186.83735
181.31332
176.82546
168.83955
168.07431
162.9401
158.64576
154.83536
151.82697
146.32232
145.99433
142.07705
138.86729
135.91378
133.09358
128.89472
126.25046
123.42982
120.95888
118.68523
116.54968
114.57537
112.9997
110.38749
110.29567
108.20227
106.39287
104.78425
101.91175
100.92326
100.6282
103.36287
104.3838
105.96512
107.66581
109.6725
111.46672
113.99911
115.90659
117.97353
120.19506
122.55139
125.10331
128.15269
132.4108
134.7872
137.70221
140.76897
144.01511
147.82477
153.65242
157.08287
161.13724
165.95326
170.37103
178.83733
184.26616
190.32318
195.74219
208.50802
216.24067
225.23551
243.07566
252.61049
261.56805
287.11599
301.22654
336.4309
346.32548
380.12853
378.8495
387.70044
319.76236
206.5175
84.949858
106.68433
37.075584
21.88462
16.442396
14.112378
14.660057
14.298756
13.688948
13.094441
13.67187
14.661419
16.105176
17.516433
19.409634
30.536554
72.883536
183.03316
218.32458
282.36064
368.74168
399.03362
379.35253
373.47815
339.31489
334.32913
301.19949
290.06966
279.34573
259.76729
256.29361
244.70354
226.42514
219.08155
211.06222
205.00664
194.66203
193.30214
186.76092
181.16604
176.64219
169.38279
168.45453
163.13041
158.7931
154.85931
149.26475
146.04757
142.55586
139.33864
136.34812
133.51382
129.55567
126.97178
124.17968
121.69439
119.37681
117.18807
115.15951
113.52468
111.07811
110.89077
108.71852
106.90778
105.24444
102.34235
101.45095
98.442645
100.09317
103.1463
105.87502
107.8207
109.82852
111.74553
114.18687
116.16023
118.27495
120.54106
122.94089
125.50823
128.49601
132.49611
134.87044
137.80525
140.91979
144.30724
148.0229
153.56794
156.73701
160.82897
165.62781
170.19391
177.97658
183.35064
189.39533
194.96942
206.35989
213.724
222.28361
238.7682
246.84172
257.48857
282.61005
296.68907
327.81756
339.20827
370.4837
372.98795
391.99859
353.84695
311.84166
367.90369
360.32335
364.33489
335.30523
325.93771
296.43651
282.71899
258.8878
250.42021
240.58371
224.61481
216.96081
208.73815
202.76254
193.28199
191.60056
185.17164
179.77651
175.53387
168.88702
167.84011
162.67287
158.40644
154.63604
149.40034
146.15299
142.44444
139.23312
136.21115
133.34904
129.59508
126.88437
124.04806
121.54374
119.20805
116.99761
114.92566
113.22779
111.04885
110.68625
108.52617
106.57303
104.78997
102.45724
101.23342
100.65676
103.21323
103.6313
105.3043
107.12003
109.25102
111.19467
113.56969
115.60088
117.76088
120.0567
122.47191
125.04938
128.11149
131.94986
134.32889
137.28727
140.40771
143.67853
147.59391
152.81184
155.92762
159.88973
164.28268
169.34174
177.17258
181.85496
187.25155
193.4954
205.0825
212.0136
221.002
236.4278
244.325
254.97487
275.64601
285.78738
296.12641
327.33454
333.19106
369.95172
383.68094
356.59027
305.73519
150.75922
52.598303
25.306948
21.565485
39.493951
103.3495
233.40793
265.04396
341.2927
362.14258
356.82636
356.82136
331.41326
328.56201
318.84117
293.39025
289.80299
276.9923
255.63643
247.14795
238.3025
222.74144
213.90486
206.25827
195.28218
189.86589
183.91277
178.45887
170.90914
166.21093
161.29877
157.10479
153.354
148.38142
145.05406
141.53596
138.27503
135.22446
132.38201
128.80852
126.14066
123.34162
120.8169
118.43518
116.17026
114.03342
112.26385
110.28023
109.7571
107.49208
105.59092
103.84948
101.04418
100.80071
97.737512
97.53051
88.222879
86.060108
83.559081
82.42809
81.688828
80.875826
79.212204
77.816395
76.617717
75.523027
73.862628
72.395832
70.899356
69.709531
68.606444
67.749762
67.099363
66.461135
65.890681
65.397429
64.989475
64.515205
63.8828
64.033742
64.42276
65.441556
65.02078
64.305465
63.989544
63.987311
64.051249
64.358583
64.631065
65.136945
65.57045
66.405855
67.06629
68.204889
68.153727
68.014569
67.733997
71.642826
70.915049
66.068181
65.014219
49.919207
49.357188
45.395522
41.004475
36.786794
33.07031
29.592746
25.760833
21.606652
16.783598
13.974105
12.533518
9.9635582
9.9322197
9.9009561
9.8697428
9.8385631
9.8074089
9.7762797
9.7451817
9.7141273
9.6831333
9.6522209
9.6214137
9.5907378
9.5602194
9.5298853
9.4997612
9.4698686
9.440229
9.4108616
9.381782
9.3530022
9.3245315
9.2963757
9.268538
9.2410184
9.2138147
9.1869227
9.1603369
9.1340504
9.1080565
9.0823482
9.0569201
9.0317675
9.0068888
8.9822844
8.9579598
8.9339232
8.9101896
8.886777
8.8637126
8.8410258
8.818759
8.79697
8.7993573
8.8210227
8.8431892
8.8657836
8.888768
8.9121097
8.935783
8.9597654
8.9840432
9.008606
9.0334478
9.0585664
9.0839633
9.1096425
9.1356093
9.1618694
9.1884292
9.2152952
9.2424724
9.2699649
9.2977746
9.3259014
9.3543416
9.3830893
9.4121358
9.4414687
9.4710721
9.5009275
9.5310153
9.5613113
9.5917906
9.6224264
9.6531927
9.6840635
9.7150146
9.746025
9.7770784
9.8081627
9.8392716
9.8704055
9.9015725
9.9327892
9.9640791
9.9651889
9.9340049
9.902893
9.8718298
9.8407989
9.8097922
9.7788091
9.7478558
9.7169442
9.68609
9.6553139
9.6246407
9.594096
9.5637054
9.5334952
9.5034901
9.4737145
9.4441889
9.414931
9.3859564
9.3572772
9.3289016
9.3008353
9.2730823
9.2456428
9.2185143
9.191693
9.1651737
9.1389499
9.1130152
9.0873639
9.0619905
9.0368909
9.0120627
8.9875093
8.9632361
8.9392528
8.9155722
8.8922162
8.8692111
8.8465882
8.8243835
8.8026648
8.808363
8.8301145
8.8523506
8.8749951
8.8980116
8.9213713
8.9450489
8.9690226
8.9932806
9.0178123
9.0426127
9.0676784
9.0930119
9.1186164
9.1444975
9.1706614
9.1971143
9.2238626
9.2509116
9.2782651
9.3059257
9.3338928
9.3621634
9.3907315
9.4195889
9.4487239
9.4781213
9.5077642
9.5376314
9.5676984
9.5979407
9.6283324
9.6588484
9.6894634
9.7201535
9.7508983
9.7816819
9.8124933
9.8433265
9.8741827
9.9050703
9.9360065
9.967016
9.9697067
9.9389516
9.9082727
9.8776437
9.8470459
9.8164698
9.785913
9.7553801
9.7248816
9.6944334
9.6640551
9.6337697
9.6036017
9.5735757
9.5437171
9.5140505
9.4846002
9.4553879
9.4264297
9.3977401
9.3693305
9.3412096
9.3133828
9.285853
9.2586205
9.231683
9.2050366
9.1786754
9.1525937
9.1267844
9.1012418
9.0759593
9.0509354
9.0261678
9.0016574
8.9774085
8.9534337
8.9297424
8.9063539
8.8832957
8.8605819
8.8382583
8.8163935
8.827929
8.8497685
8.8720887
8.8947936
8.9178478
8.9412306
8.9649028
8.9888505
9.0130649
9.0375312
9.0622414
9.0871939
9.1123944
9.1378456
9.1635526
9.1895214
9.2157585
9.2422696
9.2690601
9.2961335
9.3234917
9.3511342
9.3790582
9.4072583
9.4357261
9.46445
9.4934163
9.5226092
9.5520078
9.5815878
9.6113246
9.6411926
9.6711679
9.701227
9.7313482
9.7615125
9.7917048
9.8219154
9.852141
9.8823862
9.9126633
9.942992
9.9734002
10.008331
9.9782561
9.9483031
9.9184334
9.888616
9.8588283
9.8290552
9.7992907
9.7695367
9.7398017
9.7100994
9.6804477
9.6508673
9.6213804
9.5920103
9.5627832
9.5337234
9.5048546
9.4761973
9.4477666
9.4195761
9.391637
9.3639575
9.3365432
9.309397
9.2825192
9.2559085
9.2295614
9.2034727
9.1776374
9.1520488
9.1267022
9.1015921
9.0767176
9.0520768
9.0276701
9.0035038
8.9795881
8.9559329
8.9325588
8.9094925
8.8867471
8.8643853
8.8424721
8.8611495
8.8830258
8.9053652
8.9280726
8.9511041
8.9744393
8.9980413
9.0218898
9.0459789
9.0702988
9.0948429
9.1196092
9.1445975
9.1698106
9.1952517
9.220924
9.2468329
9.2729832
9.2993788
9.3260225
9.3529152
9.3800561
9.4074421
9.4350675
9.462924
9.4910003
9.5192837
9.5477588
9.5764057
9.6052017
9.6341231
9.6631419
9.6922358
9.7213834
9.7505656
9.7797659
9.8089721
9.8381773
9.8673813
9.8965922
9.9258266
9.9551106
9.9844793
10.013976
10.021135
9.9923737
9.9637441
9.935197
9.906693
9.8782027
9.8497067
9.8211944
9.7926637
9.7641196
9.7355725
9.7070374
9.6785322
9.6500772
9.6216945
9.5934146
9.5652603
9.5372531
9.509413
9.4817551
9.454292
9.427035
9.3999926
9.3731711
9.3465739
9.3202028
9.2940573
9.2681359
9.2424354
9.2169522
9.1916819
9.1666213
9.1417662
9.1171178
9.0926766
9.0684452
9.0444313
9.0206454
8.9970972
8.9738057
8.9508003
8.9280913
8.9057354
8.8838078
8.9121238
8.9339634
8.9562464
8.9788741
9.0018052
9.0250201
9.048481
9.0721617
9.0960659
9.1201774
9.1444828
9.1689768
9.1936611
9.2185367
9.2436037
9.2688629
9.2943187
9.3199731
9.3458272
9.3718814
9.3981351
9.4245856
9.4512283
9.4780565
9.5050608
9.53223
9.5595508
9.5870079
9.6145814
9.6422505
9.6699945
9.6977774
9.7255771
9.753374
9.7811516
9.8088963
9.8365994
9.8642582
9.8918775
9.9194709
9.947062
9.9746846
10.002384
10.030216
10.041812
10.015158
9.9886333
9.962173
9.9357242
9.9092467
9.8827123
9.8561037
9.8294131
9.802641
9.7757943
9.7488851
9.7219295
9.6949465
9.6679596
9.6410131
9.6141243
9.5873141
9.5606025
9.534006
9.5075382
9.4812111
9.4550348
9.4290174
9.4031648
9.377481
9.3519683
9.3266277
9.3014592
9.2764622
9.2516351
9.2269776
9.2024881
9.1781704
9.1540267
9.1300612
9.1062834
9.0827068
9.0593433
9.0362154
9.0133489
8.9907545
8.9684881
8.9466253
8.990217
9.0119761
9.0341451
9.0566254
9.0793643
9.1023532
9.1255635
9.148971
9.1725686
9.1963371
9.2202635
9.2443451
9.2685772
9.2929576
9.3174837
9.3421534
9.3669671
9.3919234
9.4170201
9.4422546
9.4676229
9.493119
9.5187357
9.544463
9.5702898
9.5962029
9.6221873
9.6482253
9.6742961
9.7003782
9.7264549
9.7524776
9.7784159
9.80425
9.8299644
9.8555478
9.8809946
9.9063065
9.9314939
9.9565781
9.9815926
10.006585
10.031618
10.056769
10.076293
10.053079
10.029956
10.006833
9.9836344
9.9603065
9.9368097
9.9131196
9.8892237
9.8651186
9.8408089
9.8163053
9.791623
9.7667839
9.7418366
9.7168218
9.6917627
9.666682
9.6416012
9.6165395
9.5915135
9.5665378
9.5416252
9.5167868
9.492032
9.4673683
9.4428018
9.418337
9.3939779
9.3697277
9.3455888
9.3215644
9.2976567
9.2738724
9.2502167
9.2266955
9.20332
9.1801046
9.1570628
9.1342142
9.1115868
9.0891909
9.0670857
9.0453445
9.0965131
9.1177675
9.1394318
9.1614264
9.1836748
9.2061388
9.2287993
9.2516206
9.2745773
9.2976668
9.3208711
9.3441744
9.3675675
9.3910443
9.4145991
9.4382251
9.4619163
9.4856683
9.5094754
9.5333314
9.5572297
9.5811621
9.6051193
9.6290903
9.6530629
9.6770228
9.7009543
9.7248394
9.7486579
9.7723874
9.7960045
9.8194851
9.8427923
9.8658485
9.8886301
9.9111233
9.9333194
9.9552157
9.9768177
9.9981402
10.01921
10.04007
10.060782
10.08143
10.102126
10.122999
10.154269
10.136769
10.119413
10.102046
10.084542
10.066806
10.048769
10.030386
10.011625
9.992469
9.9729039
9.9529246
9.9325319
9.9117335
9.890555
9.8691298
9.8474787
9.8256244
9.8035892
9.7813945
9.7590599
9.7366036
9.7140415
9.6913882
9.6686575
9.6458617
9.6230119
9.6001182
9.57719
9.5542364
9.5312661
9.5082876
9.4853098
9.4623424
9.4393955
9.4164807
9.3936106
9.3708018
9.3480719
9.3254369
9.3029202
9.2805493
9.2583396
9.2363411
9.2146106
9.1932116
9.3048422
9.3261885
9.3478971
9.3698699
9.3920641
9.4144194
9.4368904
9.4594573
9.4820881
9.5047565
9.527435
9.5500991
9.572726
9.5952939
9.6177817
9.6401715
9.662446
9.6845889
9.7065844
9.7284177
9.7500735
9.7715371
9.7927942
9.8138307
9.8346317
9.8551815
9.8754651
9.8954667
9.9151698
9.9345579
9.953613
9.9723176
9.9906541
10.008655
10.026078
10.042887
10.059091
10.074714
10.089786
10.104345
10.118433
10.132094
10.145393
10.158409
10.17124
10.184017
10.196914
10.210152
10.262569
10.255846
10.249595
10.243561
10.237566
10.231466
10.22512
10.218395
10.211196
10.203427
10.19498
10.185738
10.175601
10.16449
10.152369
10.139402
10.125854
10.111667
10.096849
10.081406
10.065352
10.048698
10.031459
10.013654
9.9953013
9.9764238
9.9570452
9.9371899
9.9168842
9.8961564
9.8750339
9.8535446
9.8317211
9.809596
9.787203
9.7645759
9.741754
9.7187744
9.6956748
9.6724933
9.6492726
9.6260505
9.6028657
9.5797515
9.556752
9.5339163
9.5112937
9.4889478
9.7475686
9.7718801
9.7964633
9.8212628
9.8462295
9.8713148
9.896469
9.9216346
9.9467607
9.9717812
9.9966229
10.021223
10.045519
10.06944
10.092911
10.115872
10.138257
10.160008
10.181056
10.201337
10.220794
10.239374
10.25702
10.273678
10.2893
10.303836
10.317243
10.329489
10.340551
10.350415
10.359069
10.366512
10.372745
10.377782
10.38158
10.383515
10.383621
10.382076
10.379125
10.375068
10.370213
10.36485
10.359191
10.353611
10.348426
10.343783
10.33982
10.336697
10.334706
10.431309
10.448743
10.468132
10.489269
10.51212
10.536603
10.562525
10.589544
10.617205
10.644477
10.669892
10.692715
10.712347
10.728354
10.740498
10.748998
10.755557
10.759681
10.761405
10.760769
10.757809
10.752562
10.745066
10.73538
10.723587
10.709797
10.694133
10.676717
10.657663
10.637084
10.615098
10.591827
10.56738
10.54188
10.51545
10.48821
10.460277
10.431774
10.402816
10.373523
10.343999
10.314364
10.284719
10.255156
10.225772
10.196614
10.167735
10.139187
10.111005
10.619465
10.654602
10.69045
10.727017
10.764231
10.802046
10.840366
10.879041
10.917947
10.956895
10.995698
11.034182
11.072157
11.109426
11.145784
11.181041
11.215006
11.247449
11.27816
11.306931
11.333546
11.357784
11.379443
11.398291
11.414047
11.426408
11.435102
11.439942
11.440819
11.437664
11.430387
11.418831
11.402775
11.381978
11.356515
11.325416
11.286162
11.238701
11.18348
11.121277
11.053138
10.983558
10.91529
10.849756
10.787962
10.730491
10.677388
10.628534
10.583948
10.7512
10.837425
10.934216
11.041453
11.159493
11.289172
11.430346
11.57991
11.731856
11.879253
12.013718
12.131411
12.232169
12.315732
12.382134
12.432654
12.475285
12.50826
12.532455
12.548872
12.558373
12.561462
12.558266
12.548713
12.532831
12.510928
12.483623
12.451658
12.415688
12.376159
12.333364
12.287595
12.239217
12.188614
12.136156
12.082151
12.026888
11.970668
11.91383
11.856683
11.799526
11.74264
11.686326
11.630852
11.576447
11.523364
11.471717
11.421602
11.373072
11.326081
12.295562
12.361937
12.431577
12.504668
12.581093
12.660719
12.743263
12.828372
12.915744
13.004923
13.095441
13.186886
13.278824
13.37078
13.462121
13.552415
13.641352
13.728533
13.8134
13.895252
13.973509
14.048004
14.118587
14.184434
14.243887
14.294985
14.336355
14.367809
14.390259
14.40485
14.411803
14.409725
14.395816
14.366853
14.320303
14.25591
14.168561
14.049173
13.896253
13.708111
13.482247
13.21237
12.905229
12.583799
12.273349
11.989155
11.73248
11.49979
11.291452
11.110045
11.45592
11.782027
12.181678
12.650944
13.162326
13.706882
14.303349
14.947334
15.57055
16.108751
16.534694
16.868592
17.128069
17.323889
17.461867
17.545336
17.595672
17.610328
17.591607
17.546047
17.484034
17.415197
17.343954
17.268393
17.182437
17.080586
16.961576
16.828646
16.687594
16.543431
16.397957
16.250001
16.098081
15.943092
15.786772
15.630303
15.473752
15.317193
15.161262
15.006968
14.85525
14.706779
14.562111
14.421963
14.286941
14.157486
14.034099
13.91718
13.807116
13.704089
13.607787
13.517469
15.205374
15.333548
15.473207
15.625968
15.792536
15.97238
16.164519
16.368038
16.582666
16.808054
17.043213
17.287147
17.539909
17.800696
18.067266
18.337203
18.609948
18.885687
19.165461
19.447522
19.726623
20.000424
20.2803
20.574331
20.875681
21.165505
21.425265
21.647434
21.840543
22.02952
22.238672
22.476971
22.727926
22.952873
23.117455
23.210373
23.2338
23.200179
23.084558
22.883598
22.585644
22.165503
21.569505
20.718469
19.624565
18.451332
17.350103
16.292633
15.180294
14.062142
13.124567
12.402615
11.852623
11.443795
11.649963
12.288629
13.111672
14.34032
16.003612
18.252692
21.039268
23.410356
25.062929
26.556557
28.252116
30.071053
31.450561
32.232851
32.695094
32.966829
33.099297
33.124188
33.059538
32.847499
32.484599
31.94624
31.174215
30.312182
29.630425
29.146857
28.784857
28.469072
28.050904
27.505115
26.854296
26.166867
25.566821
25.078051
24.628642
24.174856
23.594858
23.080499
22.588513
22.125968
21.680936
21.245327
20.823826
20.423821
20.045144
19.682909
19.340006
19.017666
18.713327
18.426166
18.159244
17.916065
17.69828
17.504382
17.330585
19.780775
19.990154
20.232935
20.515747
20.843501
21.210076
21.60568
22.025973
22.467996
22.974674
23.429979
23.899253
24.411245
24.970709
25.506975
25.967102
26.370856
26.81723
27.261824
29.143198
29.533392
29.835394
30.170488
30.396185
30.687798
30.945922
31.367379
31.790697
32.429291
33.022031
33.7116
34.209458
34.746209
35.177853
35.720359
36.080221
36.231924
36.386632
36.630762
36.842082
37.208811
37.511069
38.028043
38.601556
39.73612
41.084381
42.293847
43.290843
43.419946
43.74914
44.325204
44.784617
45.403216
45.905692
46.547621
47.099131
47.768326
48.362474
49.056346
49.687186
50.379856
51.027462
51.724144
52.371737
53.083945
53.718443
54.048877
53.400296
53.34325
51.996824
51.256585
50.826912
50.590112
50.341646
50.047122
49.96949
33.91491
34.58819
33.119274
31.197654
28.342806
25.529739
23.101257
21.017732
19.172016
17.685531
19.245878
15.109007
12.615241
11.49869
12.730316
13.349819
14.572676
16.351431
19.414855
23.142522
28.050141
33.540545
40.168767
45.336036
48.573155
52.44568
56.801769
62.669518
65.847687
83.865925
85.520531
88.116276
87.938215
87.520414
86.182679
84.933822
84.906472
88.195522
86.331981
83.382563
81.346189
79.800959
77.980776
74.669887
68.6629
65.969727
63.09115
52.493485
42.230818
35.629651
27.395615
21.660944
17.224675
14.587941
17.417342
14.715081
13.045462
12.342674
12.731977
14.568334
13.891968
16.762092
22.044316
31.374968
22.376873
32.624975
42.165976
55.946978
62.841245
66.644408
73.405883
80.170948
87.474485
92.541445
104.31586
111.41128
106.29496
98.258625
90.979474
80.055725
102.46227
77.954386
99.807499
131.6366
125.5066
112.25559
90.017678
63.705643
53.859846
85.064025
122.1443
145.75003
156.06274
155.2583
152.91781
151.76841
186.32733
142.74943
146.68401
153.10802
166.79655
150.72134
115.03552
115.64377
96.258205
85.115225
70.531739
83.993161
104.65726
138.71079
116.14285
157.4619
165.32714
150.01502
221.0227
163.28576
170.95863
158.09765
129.69907
103.41138
68.770336
36.127336
28.63182
19.166522
22.052785
15.017001
15.800663
18.381976
28.37989
39.988536
33.58312
27.304314
36.534122
53.238911
46.100022
100.86065
140.26094
165.28658
173.48242
167.34028
160.25095
280.22766
139.07976
159.18864
174.73912
217.96084
188.953
121.08344
115.3046
92.22707
114.20458
145.58747
152.1291
70.928849
83.787767
54.910339
32.844374
21.939691
14.512663
12.453357
11.478115
8.7796366
8.7811104
8.7825539
8.7838197
8.7851084
8.7862809
8.7874909
8.7886784
8.7898247
8.7908808
8.7919707
8.7930198
8.7942119
8.7954514
8.7967303
8.7976021
8.7977452
8.819402
8.8192435
8.8184379
8.8172974
8.8161487
8.8150485
8.8140414
8.8129942
8.8119473
8.8108279
8.8096523
8.8084443
8.8072431
8.8059509
8.8046488
8.803189
8.8017053
8.8001814
8.798625
8.8144784
8.8161585
8.8178236
8.81948
8.8211488
8.8227096
8.8242745
8.8257453
8.8272151
8.8285498
8.8298346
8.8310559
8.8322683
8.8334351
8.8345188
8.8355476
8.8365646
8.8375246
8.8385547
8.8396318
8.8406401
8.8413856
8.841543
8.8641313
8.8639547
8.8632853
8.8623728
8.8613828
8.8604201
8.8595012
8.8585137
8.8575002
8.856432
8.8552741
8.8540629
8.8528366
8.851544
8.8501916
8.8487303
8.8472546
8.8456949
8.8441207
8.8424522
8.8407985
8.839129
8.8374401
8.8357754
8.8557172
8.8574311
8.8591405
8.8608263
8.8625072
8.8641825
8.8658337
8.867483
8.8690662
8.8706094
8.8720955
8.8735382
8.8748895
8.8761994
8.8774318
8.8786335
8.879783
8.8808371
8.881841
8.8828002
8.8836837
8.8845804
8.885484
8.8863221
8.8869189
8.8871012
8.9104441
8.910256
8.9097084
8.9089428
8.9081161
8.9072672
8.9064149
8.9054843
8.9044978
8.9034563
8.9023175
8.9011228
8.8998874
8.8985818
8.8972261
8.8957976
8.8943157
8.892783
8.8911968
8.8895637
8.8879164
8.8862528
8.8845728
8.8828888
8.8811804
8.8794619
8.8777265
8.8760105
8.8950409
8.8967422
8.8984436
8.9001311
8.9018476
8.9035724
8.9052876
8.9069811
8.9086556
8.9103338
8.9119788
8.9136139
8.9152348
8.9168182
8.9183402
8.9198092