/*--------------------------------*- C++ -*----------------------------------*\
| =========                 |                                                 |
| \\      /  F ield         | OpenFOAM: The Open Source CFD Toolbox           |
|  \\    /   O peration     | Version:  v2012                                 |
|   \\  /    A nd           | Website:  www.openfoam.com                      |
|    \\/     M anipulation  |                                                 |
\*---------------------------------------------------------------------------*/
FoamFile
{
    version     2.0;
    format      ascii;
    class       volScalarField;
    location    "200";
    object      p;
}
// * * * * * * * * * * * * * * * * * * * * * * * * * * * * * * * * * * * * * //

dimensions      [0 2 -2 0 0 0 0];


internalField   nonuniform List<scalar> 
120695
(
4.4182264
5.3126217
6.2735948
7.6067784
8.9867334
10.464321
11.860696
12.964259
11.454788
10.215203
8.6126248
6.9250372
5.3874623
4.2956132
3.2309505
2.5714313
1.5843292
1.0989541
0.59022702
-0.094870417
-0.32562595
-0.53005273
-1.1065126
-1.3925408
-1.4882803
-1.8298414
-1.9456714
-2.3665058
-2.211979
-2.4060112
-2.4453889
-2.7956578
-2.9085977
-2.9184706
-3.2354
-3.1309178
-3.4127819
-3.3124415
-3.4852939
-3.6230385
-3.5709143
-3.8983248
-3.7223639
-3.714598
-3.852777
-4.0044566
-3.8923724
-3.9080257
-4.151603
-4.0491013
-3.9867089
-4.124828
-4.1943776
-4.2366937
-4.399634
-4.3218324
-4.3251269
-4.502137
-4.3630717
-4.4283939
-4.5344262
-4.4484258
-4.5439806
-4.5992616
-4.5053254
-4.5063305
-4.7662751
-4.5703377
-4.5431578
-4.5292911
-4.6313253
-4.7111912
-4.6113428
-4.5685947
-4.6449262
-4.7231726
-4.5775427
-4.5594825
-4.6027985
-4.5651012
-4.631741
-4.5578307
-4.5952625
-4.5294053
-4.5455557
-4.4849044
-4.4815387
-4.4208737
-4.428194
-4.3468462
-4.3648217
-4.2660058
-4.29258
-4.2016767
-4.1583
-4.1850892
-4.1540173
-4.101084
-4.0366856
-4.1876218
-4.1003241
-4.0271769
-3.9791889
-3.951116
-3.9423518
-3.9347584
-3.9841226
-4.0082051
-3.8834698
-3.8298228
-3.807442
-3.7873647
-3.8862029
-3.7798411
-3.7122796
-3.6802829
-3.6561649
-3.6757315
-3.6599833
-3.5857731
-3.5436732
-3.51304
-3.4868958
-3.5471516
-3.4456767
-3.387256
-3.3483284
-3.3113757
-3.2934365
-3.2236215
-3.1712783
-3.1617867
-3.2183583
-3.163816
-3.0770018
-3.0307112
-3.002848
-2.9840801
-2.9669598
-2.9669871
-2.9664328
-2.8699639
-2.8372777
-2.805529
-2.7780953
-2.7607804
-2.7670375
-2.7198242
-2.647763
-2.6161834
-2.5835208
-2.545403
-2.5192109
-2.4676811
-2.3924124
-2.3725001
-2.3648739
-2.3338473
-2.3046092
-2.3334291
-2.2416028
-2.1977843
-2.163808
-2.1312689
-2.0996301
-2.0790267
-2.0557203
-2.0693695
-1.991351
-1.9418734
-1.9157556
-1.8890704
-1.8521273
-1.8267454
-1.8087931
-1.7886973
-1.7643063
-1.6827579
-1.6499833
-1.6381307
-1.5781189
-1.5479308
-1.524689
-1.5042319
-1.5199355
-1.4309503
-1.3814732
-1.3443114
-1.3045593
-1.2710326
-1.241859
-1.2288752
-1.1677864
-1.0924713
-1.0394525
-0.98363145
-0.92574602
-0.90946509
-0.91721002
-0.80943705
-0.75379499
-0.70687707
-0.66903965
-0.63226161
-0.58728462
-0.58088463
-0.51899602
-0.44884161
-0.39089619
-0.33554679
-0.29138706
-0.25960477
-0.20674682
-0.20328933
-0.13631122
-0.0633787
0.024788733
0.095355425
0.12336482
0.17885516
0.24170186
0.27266104
0.33337816
0.42728665
0.51657663
0.60212811
0.68416027
0.76462328
0.83693683
0.92174633
1.0349507
1.1390253
1.2659934
1.3729006
1.4604579
1.5655302
1.7575496
2.2010333
4.8615782
2.5609215
4.6153064
5.5796969
5.7246406
5.5959134
5.416457
5.2782313
5.0851865
5.0791123
5.6124259
5.8479353
6.1240397
6.361412
6.5362594
6.6154341
8.318461
10.211391
10.093465
11.049805
11.986266
13.027472
11.476566
10.245508
8.8642206
7.0501064
5.4133895
4.2762586
3.1452257
2.5859437
1.3645462
0.95524327
0.59487826
-0.2441473
-0.47361663
-0.557593
-1.1595486
-1.5230906
-1.6216646
-1.8134353
-2.0269887
-2.4566019
-2.4035803
-2.5462695
-2.4302108
-2.7646696
-2.4777049
-2.4068046
-2.0802231
-1.7491343
-1.7878385
-1.5428436
-1.055753
-0.51789136
-0.59877161
-0.15561166
0.67587634
0.77606188
1.4787468
2.7252645
3.2118491
4.4618925
5.5490741
7.1531741
8.8293799
10.616233
11.610064
12.928921
11.737874
11.587331
9.8295711
9.7953996
7.9880212
7.6822204
9.1008558
10.82151
11.234432
11.722098
12.074272
12.718927
13.052163
12.337376
11.588049
11.373169
12.286642
12.171531
11.624435
10.997277
11.295463
11.150236
12.583173
10.678387
10.601636
9.0601713
8.4645101
7.481965
5.6641724
5.2705039
4.3227474
3.4028589
3.1308386
2.2192414
1.5943524
0.67572222
0.66156776
0.17970696
-0.11049574
-0.62472011
-0.63397789
-1.0061122
-1.03183
-1.602726
-1.8992661
-1.7794984
-1.9885691
-2.1503531
-2.3530782
-2.6896389
-2.6734964
-2.7814654
-2.821586
-2.7649956
-2.939865
-2.9521098
-3.2088274
-3.2319258
-3.3888462
-3.3334368
-3.4892947
-3.6038695
-3.6567201
-3.8733949
-3.7598335
-3.7535849
-3.7951105
-3.924511
-3.7999924
-3.8519005
-3.7317293
-3.5785222
-3.5273942
-3.3236634
-3.3822991
-3.2571827
-3.1685674
-2.9674742
-3.0207095
-3.1766179
-3.2713895
-3.4531225
-3.3241206
-3.5573258
-3.5899615
-3.7365252
-3.8861656
-3.8603974
-3.8841219
-3.8626851
-3.9586465
-3.9220977
-3.9297783
-3.9590855
-3.9918985
-4.0013773
-4.1093075
-4.0790817
-4.0811881
-4.1118398
-4.1453836
-4.195676
-4.1390431
-4.0689897
-4.0604309
-4.0719041
-4.131621
-3.7814625
-3.8779539
-3.9409761
-3.7406735
-3.6226827
-3.5673888
-3.4964794
-3.4610849
-3.3581768
-3.2011203
-3.0648524
-2.8501433
-2.7976548
-2.8092569
-2.4100722
-2.1778625
-2.0040811
-1.9157573
-1.5445297
-1.0173708
-1.0294686
-0.72108977
0.057871122
0.11687451
0.84401134
1.8989517
2.2805588
3.6602336
4.675136
6.3150199
8.3350881
9.4282833
10.733628
10.356597
12.664109
12.222948
11.723916
12.352685
10.261457
8.691433
8.2633069
8.5072753
6.6312772
5.0701368
3.8982392
2.5942564
2.1951484
1.4958207
1.0721428
0.13517657
0.16972369
-0.62169758
-1.0873766
-1.0322274
-1.4235077
-1.5125982
-1.8944221
-2.1306121
-2.1605331
-2.4590629
-2.7729127
-2.9388077
-2.8562746
-3.0153141
-3.2272531
-3.4091641
-3.4747999
-3.5510087
-3.5564673
-3.664188
-3.7472954
-3.9710287
-3.893796
-3.8080292
-4.2069525
-4.0379681
-4.030098
-4.0561109
-4.1776031
-4.2830513
-4.2432264
-4.1574631
-4.2933453
-4.2682331
-4.3960475
-4.3548753
-4.3429227
-4.4616658
-4.3960968
-4.3985656
-4.5127138
-4.4844292
-4.5156193
-4.6002252
-4.5282576
-4.5292125
-4.7108134
-4.5875538
-4.5661988
-4.5207966
-4.6013616
-4.5856117
-4.6403121
-4.5442147
-4.5647525
-4.5823483
-4.5075973
-4.5505243
-4.4573506
-4.3873579
-4.4559583
-4.4164312
-4.3814672
-4.3461243
-4.3297724
-4.383067
-4.3172614
-4.318171
-4.3426847
-4.3089474
-4.4414275
-4.4673649
-4.4838835
-4.2873543
-4.4496404
-4.3835805
-4.3749272
-4.5128656
-4.4055542
-4.3994103
-4.5680607
-4.5505362
-4.5449248
-4.5927052
-4.5771632
-4.5821157
-4.6417618
-4.5865285
-4.5797128
-4.6128128
-4.6151681
-4.7067671
-4.6498296
-4.5817933
-4.6526234
-4.6979787
-4.6161444
-4.6047884
-4.6477749
-4.607438
-4.6347748
-4.5830916
-4.6138034
-4.6100082
-4.6589127
-4.6253936
-4.5801407
-4.6261921
-4.5769191
-4.5560981
-4.6177621
-4.5071729
-4.3918729
-4.4656147
-4.5164151
-4.3801794
-4.4587096
-4.4262743
-4.3555028
-4.4476268
-4.4794276
-4.4200157
-4.4046132
-4.5120305
-4.4932199
-4.4619116
-4.4633019
-4.6206004
-4.5936155
-4.543438
-4.6672614
-4.6052206
-4.5767534
-4.707252
-4.6276924
-4.6009468
-4.6126769
-4.645493
-4.6345425
-4.6054524
-4.6262542
-4.6225555
-4.571306
-4.5849674
-4.5863795
-4.6190244
-4.5773429
-4.5831688
-4.5445445
-4.5383274
-4.4998569
-4.4688203
-4.4292176
-4.4269047
-4.357531
-4.3549454
-4.2766956
-4.2855662
-4.205774
-4.1687408
-4.1558026
-4.1130394
-4.108849
-4.1113025
-4.0966291
-4.1051925
-4.153217
-4.1788376
-4.1970502
-4.2016567
-4.2020941
-4.2041604
-4.2085883
-4.2186878
-4.2247965
-4.2318161
-4.2324905
-4.2757437
-4.320067
-4.3199709
-4.3273951
-4.3473733
-4.3088004
-4.3390992
-4.3630298
-4.3812706
-4.3784105
-4.4043694
-4.4176506
-4.4928071
-4.5019784
-4.4641795
-4.4884249
-4.5149065
-4.5324607
-4.5479433
-4.5601363
-4.5548497
-4.5987369
-4.6015635
-4.6285311
-4.6200334
-4.6728006
-4.6669915
-4.7009791
-4.7521862
-4.6921709
-4.7303183
-4.7626724
-4.7434031
-4.828276
-4.7587259
-4.7655888
-4.8140258
-4.8601447
-4.7890548
-4.9064794
-4.8088487
-4.8011943
-4.9013135
-4.887579
-4.8988996
-4.804079
-4.842861
-4.8771905
-4.8516227
-4.8645445
-4.8898077
-4.7919067
-4.7879319
-4.8843085
-4.9233047
-4.9382098
-4.9001286
-4.8826743
-4.8101294
-4.7679298
-4.8837403
-4.9284637
-4.9877597
-4.8482343
-4.9006638
-4.8825854
-4.8065709
-4.8826996
-4.9216218
-4.9260758
-4.8235932
-4.8019051
-4.9256066
-4.8208662
-4.8438599
-4.8281575
-4.7750474
-4.8268079
-4.8356573
-4.7309424
-4.7422663
-4.7801516
-4.7295834
-4.7581723
-4.7176356
-4.6461581
-4.6602109
-4.6535718
-4.6947288
-4.7468337
-4.709319
-4.7990703
-4.752345
-4.755185
-4.8448868
-4.8530105
-4.758369
-4.8626176
-4.8317293
-4.8567142
-4.8999761
-4.8252506
-4.8724058
-4.9228306
-4.930589
-4.8568152
-4.8622249
-4.9199514
-4.8733872
-4.8374916
-5.0070985
-4.8700339
-4.8088367
-4.8700901
-4.9345021
-4.9315942
-4.951314
-5.0165856
-4.94841
-4.9789448
-4.9348629
-4.9366715
-4.8579606
-4.9214072
-4.9193414
-4.8657991
-4.936349
-4.9183511
-4.9007155
-4.8673896
-4.884448
-4.8880306
-4.8252809
-4.8963342
-4.7769854
-4.852039
-4.8508324
-4.7813889
-4.7824788
-4.8092138
-4.717637
-4.7342902
-4.7363608
-4.7150001
-4.695309
-4.7030449
-4.6828038
-4.661408
-4.6252695
-4.5759507
-4.6202293
-4.599367
-4.572591
-4.5184471
-4.5243023
-4.509515
-4.4680901
-4.5280732
-4.5133332
-4.3930004
-4.3904816
-4.3991514
-4.3761604
-4.3963305
-4.3639407
-4.3504882
-4.3735524
-4.3369639
-4.3603488
-4.3905986
-4.2717707
-4.2022533
-4.2348753
-4.2590925
-4.2487044
-4.2630743
-4.2092125
-4.1918312
-4.1928629
-4.1785195
-4.1598276
-4.1661937
-4.0934078
-4.0623412
-4.0921794
-4.0945818
-4.0805635
-4.072661
-4.0556597
-4.0381696
-4.1546426
-4.1195029
-4.0765509
-4.0837346
-4.0898959
-4.0801394
-4.0671831
-4.0378195
-4.0563468
-4.0458817
-4.0626733
-4.0815929
-4.0978564
-4.1186342
-4.0881845
-4.0824706
-4.0667901
-4.0897931
-4.1044538
-4.1337149
-4.1742223
-4.1839349
-4.1740215
-4.202347
-4.2343864
-4.2164399
-4.206664
-4.2119047
-4.2536353
-4.3378383
-4.303221
-4.2831155
-4.3183491
-4.3761381
-4.3956532
-4.425221
-4.3695847
-4.3831625
-4.4361584
-4.420582
-4.4787173
-4.5360807
-4.5246629
-4.5123815
-4.4970048
-4.593214
-4.6670679
-4.5864983
-4.569451
-4.5882507
-4.6908809
-4.7304848
-4.7186865
-4.6543114
-4.6203046
-4.5435043
-4.543094
-4.5313783
-4.5548698
-4.6213917
-4.5651969
-4.5803915
-4.5978188
-4.6916458
-4.7859442
-4.6459133
-4.6305707
-4.6320729
-4.6886835
-4.8874189
-4.8363921
-4.6947459
-4.6813997
-4.7528189
-4.9080142
-4.7909467
-4.8197963
-4.8423892
-4.7946915
-4.8721466
-4.7980446
-4.8829182
-4.8082695
-4.8446093
-4.8409494
-4.7841896
-4.8816589
-4.7597323
-4.7850847
-4.9192657
-4.7752584
-4.8268963
-4.8614014
-4.8450757
-4.7922652
-4.8192045
-4.7053251
-4.7699768
-4.7832094
-4.707275
-4.7201294
-4.7239612
-4.6825083
-4.6338611
-4.6360758
-4.6154027
-4.5087692
-4.4830404
-4.4573251
-4.4437888
-4.4305391
-4.2326015
-4.1203776
-4.1361165
-4.1170417
-3.9941783
-3.8004902
-3.7666927
-3.4535659
-3.3870928
-3.381402
-3.0054579
-2.6641781
-2.5783624
-2.2164672
-1.6854734
-1.6090955
-0.77849306
-0.11542853
0.32181892
1.5316161
2.4116692
4.1260527
6.2518737
7.214548
8.9646963
11.868211
10.37053
9.6661148
8.8177454
7.5099631
6.5664133
5.6854603
5.1225093
4.9782279
4.7238022
4.7240193
5.1800859
5.404068
6.1534236
6.9589266
8.1328213
9.4814008
10.321489
9.9149118
9.4643936
11.850235
11.820812
8.9030191
8.4856311
6.6089153
4.4176473
3.1129553
1.8460924
0.87474307
0.47830426
-0.21527174
-0.68471174
-1.4648654
-1.4560272
-1.8556438
-2.1218576
-2.6234373
-2.5097188
-2.7884682
-2.9091604
-3.3468355
-3.568544
-3.3677945
-3.4827061
-3.6592449
-3.8199574
-3.9901491
-4.1815793
-4.0943628
-4.1444961
-4.1722293
-4.2814443
-4.3628742
-4.4623326
-4.4913825
-4.4603256
-4.5216973
-4.6325076
-4.6208285
-4.7100969
-4.6439876
-4.694926
-4.7339888
-4.8479277
-4.7568963
-4.8055409
-4.8074593
-4.7632025
-4.8084165
-4.8643323
-4.834748
-4.8464382
-4.818887
-4.7916929
-4.756527
-4.8622888
-4.7021951
-4.6663077
-4.7564434
-4.5868918
-4.6433707
-4.5443468
-4.5725923
-4.4690287
-4.5019573
-4.3324274
-4.326058
-4.1187726
-4.1517306
-4.1726838
-3.9372059
-3.8310197
-3.5139448
-3.5288787
-3.4921788
-3.1509347
-2.7756829
-2.7589461
-2.5267495
-1.8612877
-1.6535209
-1.1551566
-0.34316728
0.074982182
1.069108
2.1634287
3.3271841
5.7109876
6.4308701
8.7217507
11.928673
9.8784098
9.9860907
8.8668908
8.8962832
7.5986601
6.4482705
5.767743
5.2990213
5.6125796
5.1724782
5.0426438
4.7883412
4.7997405
5.2587526
5.4926172
5.7264847
6.101192
7.1300271
8.2822197
9.4991493
9.5740009
9.577168
11.962934
8.5335678
9.0008575
8.1559388
6.074678
3.868391
2.7498785
1.4949755
0.46234145
0.32350248
-0.34786978
-0.95638604
-1.5567728
-1.724528
-2.3253411
-2.7575146
-2.7311793
-3.0069728
-3.0003522
-3.4373924
-3.6421165
-3.4364173
-3.5772028
-3.8471281
-3.8965824
-4.1288422
-4.223406
-4.0613278
-4.2562463
-4.3943723
-4.4221542
-4.5492849
-4.5526243
-4.5198101
-4.6436458
-4.6370621
-4.6858891
-4.7431534
-4.7172099
-4.8531453
-4.821825
-4.8670987
-4.7972832
-4.8168784
-4.8681335
-4.8724971
-4.8855462
-4.8405983
-4.8124038
-4.8685834
-4.8785547
-4.8222578
-4.7955384
-4.8428383
-4.8395915
-4.7661035
-4.7802047
-4.6518015
-4.6654895
-4.6183355
-4.5997959
-4.5410917
-4.5956205
-4.3853303
-4.3946378
-4.2438681
-4.2341945
-4.1830661
-4.1761251
-3.8366919
-3.7371438
-3.6381671
-3.5750688
-3.2875683
-2.8985967
-2.9248056
-2.6604511
-2.146622
-1.9369945
-1.5111704
-0.6471015
-0.14960478
0.67422466
1.7730504
2.9231009
4.9355686
6.3275003
8.4835184
11.872374
8.9127077
9.9340903
11.915615
8.6904462
6.8798774
6.1077158
3.7903731
2.2338226
1.1579867
0.09146789
-0.28470483
-1.1353522
-1.8053967
-1.8944154
-2.5045686
-2.8820453
-2.7906954
-3.1387334
-3.1725662
-3.5181516
-3.703211
-3.6534956
-3.8556003
-3.8239192
-4.142444
-4.079757
-4.2998807
-4.2088702
-4.3457558
-4.3904999
-4.6036895
-4.552536
-4.6130899
-4.5920061
-4.6315485
-4.6341035
-4.8110824
-4.8268103
-4.8589755
-4.859525
-4.8186027
-4.8577106
-4.8217096
-4.9169932
-4.9397804
-4.8662928
-4.8728295
-4.8650572
-4.9879211
-4.9452478
-4.9785584
-4.8912896
-4.7972417
-4.874537
-4.8797162
-4.8853608
-4.8653163
-4.7833536
-4.5884211
-4.6609949
-4.7905779
-4.4397396
-4.5849107
-4.6308878
-4.4004155
-4.3403745
-4.3925618
-4.1670963
-4.2001949
-4.0619348
-3.7137826
-3.8517158
-3.7167797
-3.4130962
-3.0493357
-2.9711252
-2.8460851
-2.3678564
-2.1170487
-1.687205
-0.99934639
-0.40417265
0.59958275
1.4836509
2.797603
4.1208166
6.3762353
8.2577167
11.959289
8.772762
9.3640596
8.913094
7.7093588
6.7135397
6.3282797
7.2028983
8.3994908
9.5348853
9.0212025
12.212186
11.884885
8.468233
6.0627304
6.671225
5.5220803
3.059778
3.155485
1.8103087
0.83175401
-0.18938985
-0.59490185
-1.278524
-1.9862968
-2.1312607
-2.7262342
-2.8484995
-3.0111099
-3.3049779
-3.6863068
-3.8039654
-3.6661122
-4.0060499
-4.1939826
-4.1939577
-4.3476227
-4.3048425
-4.3996552
-4.6163765
-4.6028688
-4.493976
-4.7361262
-4.6880403
-4.6010207
-4.7461342
-4.8367315
-4.9215783
-4.9343688
-4.9497634
-4.8077781
-4.8742214
-4.8321094
-4.976439
-4.9710528
-4.977977
-4.9333628
-4.8482957
-4.8560148
-4.5099328
-4.5064975
-4.4957133
-4.4947243
-4.4843291
-4.4856493
-4.4769815
-4.4736705
-4.4602626
-4.4613984
-4.4509023
-4.4466042
-4.4309691
-4.424903
-4.4110083
-4.4086341
-4.3969153
-4.4016499
-4.3918555
-4.390652
-4.3730192
-4.373256
-4.3657704
-4.3959383
-4.406259
-4.4585858
-4.3884757
-4.3459439
-4.3321
-4.2794882
-4.2458029
-4.2181014
-4.1692606
-4.1277833
-4.1258383
-4.0615768
-4.0513953
-4.0125605
-3.8537518
-3.8334522
-3.7719184
-3.9033602
-3.8748498
-3.6723606
-3.5635099
-3.3460596
-3.1067082
-2.7978479
-2.4538621
-2.0967622
-1.708999
-1.3062862
-0.82593735
-0.23366995
0.58210511
1.5152648
2.2241981
-1.0336763
-1.0967166
-1.1576917
-1.2161678
-1.2716925
-1.3238472
-1.3722615
-1.4166105
-1.4566155
-1.4920441
-1.5227134
-1.5484826
-1.5692651
-1.5849998
-1.5957028
-1.6013718
-1.6022474
-1.5986888
-1.5897786
-1.576333
-1.5585705
-1.5366177
-1.5107071
-1.4810854
-1.4480035
-1.4117219
-1.3725148
-1.3306644
-1.2864593
-1.2401927
-1.192161
-1.1426622
-1.0919945
-1.0404542
-0.98833656
-0.93592288
-0.88351545
-0.8314155
-0.77984894
-0.72904133
-0.67923303
-0.63063723
-0.58344734
-0.58236682
-0.62967445
-0.67840271
-0.72835605
-0.77931996
-0.83105336
-0.88332891
-0.93591812
-0.98852042
-1.040832
-1.0925696
-1.1434361
-1.193135
-1.2413678
-1.2878353
-1.3322392
-1.3742846
-1.4136837
-1.4501547
-1.4834225
-1.5132224
-1.5393038
-1.5614229
-1.5793473
-1.592921
-1.6019691
-1.6059858
-1.6049459
-1.5992359
-1.5885968
-1.5729148
-1.5521615
-1.5263876
-1.4956816
-1.4601834
-1.4200756
-1.3755895
-1.3270038
-1.274644
-1.2188793
-1.1601166
-1.0987958
-1.0353992
-1.0391488
-1.1032512
-1.1652378
-1.2246065
-1.2809016
-1.3337174
-1.3826864
-1.4274828
-1.4678284
-1.503494
-1.5343004
-1.5601141
-1.5808562
-1.5965008
-1.6070955
-1.6127426
-1.6134979
-1.6090844
-1.5997869
-1.5859229
-1.5676641
-1.5451942
-1.5187432
-1.4885568
-1.4548899
-1.4180093
-1.3781914
-1.3357208
-1.2908876
-1.2439874
-1.1953203
-1.1451875
-1.0938892
-1.0417234
-0.98899063
-0.93597613
-0.88298883
-0.83033015
-0.77823023
-0.72692197
-0.67664905
-0.62762946
-0.58006108
-0.57620487
-0.6242143
-0.67372588
-0.72453772
-0.77642438
-0.82913857
-0.88243848
-0.93609186
-0.98979546
-1.043231
-1.0961107
-1.1481301
-1.1989872
-1.2483774
-1.2959969
-1.3415436
-1.3847206
-1.4252338
-1.4627957
-1.4971263
-1.5279551
-1.5550229
-1.5780811
-1.5968961
-1.6112647
-1.6210123
-1.6258935
-1.6255991
-1.6202284
-1.6097886
-1.5942188
-1.5734814
-1.547585
-1.5165965
-1.4806399
-1.4398879
-1.3945655
-1.3449489
-1.2913603
-1.2341724
-1.1738213
-1.110771
-1.0455231
-1.0549129
-1.1218481
-1.186461
-1.2482303
-1.3066887
-1.3613883
-1.4119361
-1.4580113
-1.499343
-1.5357122
-1.5669555
-1.5929637
-1.6136812
-1.6291005
-1.6392496
-1.6441754
-1.6438741
-1.638366
-1.6279496
-1.61284
-1.5932215
-1.5693117
-1.541351
-1.5095928
-1.474302
-1.4357542
-1.3942339
-1.3500324
-1.3034469
-1.2547797
-1.2043371
-1.1524268
-1.0993609
-1.0454438
-0.99098545
-0.93627858
-0.88165402
-0.82741549
-0.77380009
-0.72106766
-0.6694721
-0.61924631
-0.57059765
-0.56307178
-0.61257763
-0.66375862
-0.71639689
-0.77025241
-0.82506295
-0.8805538
-0.93647403
-0.99251764
-1.0483378
-1.1036374
-1.1580992
-1.2114074
-1.2632461
-1.3133021
-1.3612645
-1.4068259
-1.4496844
-1.4895434
-1.5261128
-1.5591103
-1.5882638
-1.6133128
-1.634007
-1.650113
-1.6614379
-1.6677934
-1.6688439
-1.6645322
-1.65482
-1.6396568
-1.6190112
-1.5928833
-1.5613182
-1.5244127
-1.4823187
-1.435248
-1.3834692
-1.3273134
-1.2671716
-1.203493
-1.1367719
-1.0675556
-1.0093801
-1.0835772
-1.155686
-1.2250691
-1.2911578
-1.3534264
-1.411416
-1.4647242
-1.5130091
-1.5560174
-1.5935492
-1.6254658
-1.6516869
-1.6721834
-1.6869684
-1.6960892
-1.6996115
-1.6976289
-1.6902024
-1.6777125
-1.6603409
-1.6382899
-1.6118082
-1.5811579
-1.5466094
-1.5084429
-1.4669479
-1.4224212
-1.3751655
-1.3254887
-1.2737035
-1.2201267
-1.1650785
-1.1088817
-1.0518596
-0.99433778
-0.93662384
-0.87908286
-0.82202756
-0.76571643
-0.71044587
-0.65649379
-0.60411208
-0.55353137
-0.54191612
-0.59379368
-0.64762604
-0.70316647
-0.76014179
-0.81825832
-0.87719554
-0.93668227
-0.99639469
-1.0559538
-1.1150349
-1.1733018
-1.2304243
-1.2860719
-1.3399173
-1.391637
-1.440912
-1.4874287
-1.5308776
-1.5709547
-1.6073626
-1.6398119
-1.6680209
-1.6917139
-1.7106291
-1.7245526
-1.7332698
-1.7364045
-1.7338612
-1.7255031
-1.7112371
-1.6909917
-1.6647297
-1.6324542
-1.5942294
-1.5501754
-1.5004754
-1.4453816
-1.3852223
-1.3204033
-1.2514083
-1.1787844
-1.1031557
-1.025216
-1.0441941
-1.1266199
-1.2064313
-1.2828717
-1.35527
-1.423042
-1.4856928
-1.5428161
-1.5940884
-1.6392731
-1.6782089
-1.7108031
-1.7370246
-1.7568961
-1.770484
-1.7778919
-1.7792464
-1.7747206
-1.7644707
-1.7488176
-1.7280735
-1.702449
-1.6722138
-1.6376611
-1.599085
-1.5567851
-1.5110672
-1.4622426
-1.4106276
-1.3565434
-1.3003137
-1.2422672
-1.1827381
-1.1220645
-1.0605883
-0.99865468
-0.93661133
-0.87484768
-0.81369939
-0.75346697
-0.69448948
-0.63708371
-0.5815465
-0.528145
-0.51203286
-0.56720288
-0.62472035
-0.68429097
-0.74559022
-0.80827305
-0.87197609
-0.9363638
-1.0010847
-1.0657383
-1.1299533
-1.193374
-1.2556468
-1.3164254
-1.3753702
-1.432146
-1.4864223
-1.5378737
-1.5861787
-1.6310184
-1.6720795
-1.7090505
-1.7416222
-1.769487
-1.7923799
-1.8100506
-1.8221082
-1.8282859
-1.8283668
-1.8221419
-1.8094403
-1.7901165
-1.764068
-1.7312314
-1.6916007
-1.6452333
-1.5922597
-1.5328938
-1.4674405
-1.3963037
-1.3199924
-1.2391217
-1.1544118
-1.0667131
-1.0932934
-1.1871438
-1.2775145
-1.3634623
-1.4442117
-1.5191191
-1.5876687
-1.6494687
-1.70424
-1.7518028
-1.792068
-1.8250242
-1.8507252
-1.8692809
-1.8808458
-1.8856131
-1.8838009
-1.8756617
-1.8614598
-1.8414864
-1.8160993
-1.7856562
-1.7504218
-1.7107041
-1.6668296
-1.6191207
-1.5678998
-1.5134921
-1.456224
-1.3964255
-1.3344312
-1.2705809
-1.2052204
-1.1387034
-1.0713935
-1.0036577
-0.93589191
-0.86851185
-0.8018882
-0.73639389
-0.67242354
-0.61035734
-0.55055536
-0.49334634
-0.47181133
-0.5313618
-0.59378819
-0.65871691
-0.7257428
-0.79444242
-0.8643833
-0.93515256
-1.0063528
-1.0775502
-1.1483265
-1.218303
-1.2871055
-1.354374
-1.4197589
-1.4829175
-1.5435123
-1.601211
-1.6556835
-1.7066002
-1.7536307
-1.7964387
-1.8346912
-1.8680933
-1.8963071
-1.9189401
-1.9356484
-1.9460997
-1.949982
-1.9469964
-1.9368711
-1.9193572
-1.8942414
-1.8613541
-1.8205805
-1.771873
-1.7152652
-1.650888
-1.5789797
-1.4999064
-1.4141792
-1.3224633
-1.2255902
-1.1246025
-1.1615234
-1.2707525
-1.3750433
-1.4732501
-1.5644908
-1.6480936
-1.7235702
-1.7906022
-1.8490131
-1.8987371
-1.9398139
-1.9723664
-1.9965836
-2.0127077
-2.021021
-2.0218372
-2.0154891
-2.0023281
-1.9827147
-1.9570181
-1.925617
-1.8888829
-1.8472148
-1.8009543
-1.7504173
-1.6959455
-1.6378784
-1.5765487
-1.5122878
-1.4454284
-1.3763076
-1.3052683
-1.2326625
-1.1588545
-1.0842256
-1.0091672
-0.93411644
-0.859531
-0.78584114
-0.7135011
-0.64299089
-0.57478723
-0.50935183
-0.44711523
-0.35761261
-0.41890761
-0.48423134
-0.5531212
-0.62507172
-0.69954934
-0.77601167
-0.85392273
-0.93278512
-1.012127
-1.0914629
-1.1703436
-1.2483652
-1.3251408
-1.4003046
-1.4735067
-1.5444073
-1.6126729
-1.6779742
-1.7399819
-1.7983594
-1.8527656
-1.9028768
-1.9483493
-1.9887878
-2.0238016
-2.0529935
-2.0759556
-2.0922773
-2.1015473
-2.1033558
-2.0973025
-2.0830002
-2.0600848
-2.0282292
-1.9871535
-1.936641
-1.8765578
-1.8068841
-1.727704
-1.6392562
-1.54198
-1.436531
-1.3238306
-1.2051296
-1.0817277
-1.1215522
-1.2569733
-1.3865051
-1.5086406
-1.6220388
-1.725778
-1.819269
-1.9021613
-1.9743362
-2.0358364
-2.086785
-2.1274347
-2.1581178
-2.1792224
-2.1911751
-2.194434
-2.1894696
-2.1767565
-2.1567681
-2.1299694
-2.0968142
-2.0577424
-2.0131776
-1.9635229
-1.9091709
-1.850507
-1.7878703
-1.7215808
-1.6519709
-1.5793669
-1.5040905
-1.4264666
-1.3468272
-1.2655162
-1.1828964
-1.0993552
-1.015307
-0.93120703
-0.84757114
-0.76491916
-0.68379403
-0.60479944
-0.52855812
-0.45569337
-0.38680884
-0.32246153
-0.22033425
-0.28250281
-0.35039257
-0.42341108
-0.50087162
-0.58204276
-0.66618678
-0.75258267
-0.84055318
-0.92950006
-1.0188501
-1.1080621
-1.1966797
-1.2842831
-1.3704898
-1.4549463
-1.537321
-1.6172964
-1.6945616
-1.7688051
-1.8397121
-1.9069773
-1.970274
-2.0292342
-2.0834785
-2.1326116
-2.1762113
-2.2138308
-2.2449971
-2.2692137
-2.2859589
-2.294691
-2.2948546
-2.2858866
-2.2672206
-2.2383181
-2.1986634
-2.1477853
-2.0852884
-2.0109398
-1.9245024
-1.8258761
-1.7152537
-1.593109
-1.4603505
-1.318451
-1.1691776
-1.0145617
-1.0555932
-1.2281596
-1.3933296
-1.5488587
-1.6929083
-1.824015
-1.9415
-2.0451498
-2.1348343
-2.2108668
-2.2737622
-2.3238847
-2.3618092
-2.3881722
-2.4036353
-2.4088623
-2.4045438
-2.3913466
-2.3699103
-2.3408496
-2.3047443
-2.262133
-2.213519
-2.1593694
-2.100118
-2.0361699
-1.9678977
-1.8956568
-1.8197915
-1.7406047
-1.6583771
-1.5733996
-1.4859637
-1.3963651
-1.3049148
-1.2119488
-1.1178366
-1.0229926
-0.92788339
-0.83304809
-0.73911378
-0.64675888
-0.55673388
-0.46987628
-0.38706894
-0.30921031
-0.23716431
-0.17168807
-0.11638224
-0.1857816
-0.26277277
-0.34636044
-0.43543907
-0.52888849
-0.62564682
-0.72475554
-0.82535679
-0.92668595
-1.0280986
-1.1290472
-1.2290681
-1.3277631
-1.424786
-1.5198285
-1.6126108
-1.7028679
-1.790339
-1.8747755
-1.9559142
-2.0334435
-2.1070398
-2.1763596
-2.2410339
-2.3006565
-2.3547856
-2.4029412
-2.4445958
-2.4791737
-2.5060353
-2.5244858
-2.5337959
-2.5331929
-2.521832
-2.498928
-2.4636475
-2.4151527
-2.3526443
-2.2757778
-2.1838785
-2.076202
-1.9520517
-1.8108652
-1.6533347
-1.4811831
-1.2968183
-1.1028645
-0.90301201
-0.92625812
-1.1543259
-1.3738882
-1.5807413
-1.7716633
-1.9441733
-2.0970138
-2.2300382
-2.3429965
-2.4362337
-2.5125219
-2.5735148
-2.61926
-2.6507491
-2.6690672
-2.6752216
-2.6701621
-2.6548892
-2.6302863
-2.5971805
-2.5563602
-2.508523
-2.4542676
-2.3941323
-2.3285949
-2.2580965
-2.1830391
-2.10378
-2.0206587
-1.9339791
-1.8440232
-1.7510526
-1.6552752
-1.556901
-1.4561499
-1.35326
-1.2484994
-1.1421757
-1.0346553
-0.92638291
-0.81790424
-0.7098888
-0.60313609
-0.49863182
-0.39750555
-0.30101232
-0.21056002
-0.12758973
-0.053441967
0.018401256
-0.061635304
-0.15197247
-0.25076064
-0.35610121
-0.46625391
-0.579658
-0.6950197
-0.8112832
-0.92759794
-1.0432902
-1.1578361
-1.2708318
-1.3819625
-1.4909773
-1.5976596
-1.701825
-1.8033248
-1.9020236
-1.9977319
-2.0902218
-2.1792542
-2.2645313
-2.3457068
-2.4224412
-2.4943499
-2.5610058
-2.6219626
-2.6766973
-2.7246069
-2.7649302
-2.7967449
-2.8191162
-2.8310905
-2.8312835
-2.8188618
-2.792445
-2.7506815
-2.692218
-2.6168208
-2.521978
-2.4041766
-2.2631092
-2.0989399
-1.9116298
-1.7015789
-1.4704645
-1.2214313
-0.95906721
-0.69574096
-1.0110443
-1.3142405
-1.5972537
-1.854913
-2.0847151
-2.2861512
-2.4591819
-2.6048792
-2.7235945
-2.818746
-2.8936496
-2.9482823
-2.9843079
-3.0039068
-3.0088167
-3.000554
-2.9803371
-2.9494987
-2.9092257
-2.8606183
-2.8047875
-2.7425341
-2.6744041
-2.6008361
-2.5221934
-2.4388851
-2.3512637
-2.2596549
-2.164454
-2.0659474
-1.9643322
-1.8597488
-1.7523875
-1.64232
-1.5295839
-1.4142896
-1.2965846
-1.1766346
-1.0546762
-0.93104619
-0.80622316
-0.68085543
-0.55581159
-0.43220994
-0.31148769
-0.19547113
-0.08642701
0.013167447
0.10071534
0.19582223
0.098400158
-0.013075636
-0.13495053
-0.26385127
-0.3970167
-0.53229551
-0.66816111
-0.80349563
-0.93748846
-1.0695349
-1.1992475
-1.3263926
-1.4508486
-1.5725822
-1.6915152
-1.8075542
-1.9208017
-2.031328
-2.1389681
-2.2437463
-2.3455042
-2.4439525
-2.5385098
-2.628808
-2.7145927
-2.7955385
-2.8714896
-2.9422284
-3.0073544
-3.0659855
-3.1165373
-3.1575393
-3.1877647
-3.2057984
-3.2102298
-3.1994458
-3.1714526
-3.1234704
-3.0517877
-2.9568199
-2.8391974
-2.6921775
-2.5118046
-2.2977882
-2.0489501
-1.7635851
-1.4424503
-1.0905008
-0.71646264
-0.29602477
-0.76268336
-1.2081232
-1.6174958
-1.979818
-2.2918568
-2.556678
-2.7780064
-2.9614806
-3.1115949
-3.2296164
-3.3179677
-3.3782977
-3.4144336
-3.430408
-3.429186
-3.4130953
-3.383636
-3.3419365
-3.2894617
-3.2273899
-3.1578384
-3.0830551
-3.0037923
-2.9201674
-2.8319098
-2.7389903
-2.6417325
-2.5400943
-2.4345747
-2.3261723
-2.2151728
-2.1014169
-1.9846815
-1.8656933
-1.7441413
-1.6193216
-1.4913721
-1.3603308
-1.2260155
-1.0884036
-0.94761332
-0.80398667
-0.65794692
-0.51031275
-0.36189011
-0.21416787
-0.069608901
0.068376462
0.1954644
0.30629227
0.39491928
0.53930775
0.43743705
0.30752766
0.15956394
0.0011060054
-0.16242421
-0.327078
-0.49013916
-0.65052521
-0.80821757
-0.96204053
-1.1118023
-1.2573759
-1.3988147
-1.5363781
-1.6706688
-1.8019071
-1.9297047
-2.0547895
-2.1770571
-2.295535
-2.4126875
-2.5282102
-2.6420896
-2.7521867
-2.8570422
-2.9571085
-3.0525235
-3.1440432
-3.2329026
-3.3199143
-3.4051765
-3.4834395
-3.5502515
-3.6055971
-3.6487893
-3.6784998
-3.6937379
-3.692243
-3.6708703
-3.626267
-3.5544047
-3.44747
-3.2972797
-3.1041427
-2.873079
-2.6029641
-2.2744059
-1.8722087
-1.3995026
-0.86840094
-0.27994022
0.29552867
0.80827592
1.6128468
1.123806
0.47571343
-0.26451433
-1.0198523
-1.6620434
-2.2060726
-2.6416082
-2.9782754
-3.2427899
-3.4709829
-3.6642403
-3.8036581
-3.8868987
-3.9325829
-3.9539484
-3.9547715
-3.9383088
-3.9079888
-3.865583
-3.81082
-3.7442114
-3.6657871
-3.5734054
-3.4735951
-3.3753382
-3.2775293
-3.178944
-3.07716
-2.9721019
-2.8625475
-2.7437988
-2.6205447
-2.498014
-2.3755062
-2.2464954
-2.1163379
-1.9933531
-1.860395
-1.7236424
-1.5843175
-1.4411731
-1.2928939
-1.1394977
-0.9807794
-0.81767407
-0.64905603
-0.475923
-0.29701024
-0.11291394
0.073381876
0.25781514
0.43412765
0.59201048
0.71411712
0.94355035
0.78533962
0.58292123
0.36734365
0.1501767
-0.062798663
-0.26858203
-0.46374877
-0.64657189
-0.82833026
-1.0066746
-1.1736608
-1.3350929
-1.4892571
-1.635164
-1.7784056
-1.9212082
-2.0632853
-2.1998298
-2.3268799
-2.3840604
-2.4530064
-2.5136112
-2.5796424
-2.6381449
-2.7067393
-2.7684546
-2.8406026
-2.9074495
-2.983127
-3.0411298
-3.1024024
-3.1535459
-3.2129916
-3.2646644
-3.3252545
-3.3736958
-3.4351103
-3.4813677
-3.5427987
-3.5913595
-3.6505533
-3.6983187
-3.7681891
-3.8269245
-3.9054926
-3.9516442
-3.9992519
-4.0214189
-4.0703126
-4.1109649
-4.138738
-4.1825417
-4.205098
-4.2422093
-4.2620269
-4.2885244
-4.3097374
-4.3296962
-4.3414206
-4.3562401
-4.3586019
-4.368807
-4.3540094
-4.3552886
-4.3682626
-4.319757
-4.293764
-4.2061381
-4.1115732
-4.0124572
-3.925845
-3.8204316
-3.7288373
-3.6443156
-3.5164522
-3.1834789
-2.9059172
-2.775349
-2.4164794
-2.1999054
-1.7985048
-1.4955232
-1.0726017
-0.69357637
-0.21728902
-0.23979169
-0.26106715
-0.26770424
-0.28658862
3.3042811
2.7384603
2.6434615
2.1204421
1.5940326
0.88927741
0.26552878
-0.37431468
-1.0628564
-1.5877917
-2.0441481
-2.4438709
-2.8014067
-3.1744971
-3.5057893
-3.8934918
-3.9840317
-4.0312829
-3.8830108
-3.7788957
-3.6805651
-3.6117507
-3.5885124
-3.4875102
-3.3178514
-3.1824932
-3.0207382