/*--------------------------------*- C++ -*----------------------------------*\
| =========                 |                                                 |
| \\      /  F ield         | OpenFOAM: The Open Source CFD Toolbox           |
|  \\    /   O peration     | Version:  v2012                                 |
|   \\  /    A nd           | Website:  www.openfoam.com                      |
|    \\/     M anipulation  |                                                 |
\*---------------------------------------------------------------------------*/
FoamFile
{
    version     2.0;
    format      ascii;
    class       volScalarField;
    location    "100";
    object      k;
}
// * * * * * * * * * * * * * * * * * * * * * * * * * * * * * * * * * * * * * //

dimensions      [0 2 -2 0 0 0 0];


internalField   nonuniform List<scalar> 
24787
(
0.23121183
0.22456263
0.21683758
0.20711412
0.20079948
0.19485736
0.18836114
0.18134096
0.17596207
0.17074328
0.1655173
0.16030314
0.15504951
0.14980609
0.14462409
0.13943563
0.13426326
0.12914273
0.12441262
0.11963774
0.11784878
0.13033744
0.12927182
0.12541303
0.12055664
0.11531381
0.10925141
0.10605061
0.1027968
0.098614176
0.094345877
0.09163309
0.088785948
0.085749069
0.082657843
0.079532334
0.076360582
0.073163865
0.070028484
0.067271609
0.064615896
0.064393643
0.075117905
0.07265191
0.06944652
0.066147051
0.06277491
0.061477905
0.059839682
0.057214751
0.054640754
0.053399996
0.051825689
0.049952393
0.047967017
0.045895093
0.043826797
0.042009608
0.040226926
0.039689297
0.045974396
0.046032283
0.046758632
0.052648081
0.073188126
0.073122535
0.0707983
0.068100639
0.065344004
0.062654368
0.060019001
0.057446639
0.054922019
0.052445756
0.050015823
0.21685675
0.2222979
0.22757744
0.23273458
0.23776389
0.24259988
0.24725475
0.25172254
0.25598157
0.26001435
0.26381281
0.26738425
0.27074059
0.27388775
0.27684169
0.23378422
0.22568297
0.22752816
0.23714263
0.23940782
0.25767968
0.26015008
0.2759344
0.27881632
0.29777908
0.30028664
0.30632622
0.31666762
0.32771344
0.32962391
0.34161915
0.34313376
0.34993023
0.35098413
0.35658519
0.35709563
0.35870496
0.35904326
0.35011554
0.34966456
0.3485568
0.34777648
0.34321377
0.34152958
0.33585545
0.33325847
0.32266843
0.31877972
0.30883808
0.30219285
0.29385872
0.28987136
0.27351603
0.26845021
0.25446322
0.25011886
0.23392481
0.23000512
0.22129357
0.21801349
0.20977752
0.20247641
0.20119805
0.19606805
0.18916523
0.19948618
0.20483197
0.21121412
0.21481455
0.22339066
0.23682782
0.24325388
0.25516482
0.26235053
0.27570156
0.28132222
0.28906203
0.294733
0.29994042
0.31040699
0.31440732
0.31841205
0.32057082
0.32345716
0.3239728
0.32310356
0.32503133
0.33258784
0.34130821
0.34092614
0.34057094
0.33970482
0.33585268
0.33385938
0.32891475
0.32543324
0.31535839
0.30827855
0.30147933
0.29585288
0.28782022
0.28282381
0.26850808
0.26206649
0.2494883
0.24380324
0.2292663
0.22441066
0.21678923
0.21295676
0.20610582
0.21098598
0.21832074
0.23259198
0.22566715
0.2211467
0.21062545
0.20818896
0.21107804
0.20693496
0.21143975
0.21844034
0.22126459
0.26500344
0.26376101
0.30048804
0.29848202
0.29647602
0.29445233
0.29239068
0.29026757
0.28805874
0.28573828
0.28328201
0.28066564
0.27787005
0.27487717
0.27167642
0.26825853
0.26462291
0.26076881
0.2567035
0.25243222
0.24796833
0.24332172
0.23851024
0.23354712
0.22844983
0.22321664
0.22214347
0.22746009
0.23263657
0.23768391
0.24258784
0.247327
0.25188537
0.25624852
0.26040591
0.26434686
0.26806812
0.27156691
0.27484452
0.27790711
0.28076617
0.28343789
0.28594223
0.28830248
0.29054386
0.29269197
0.29477209
0.29680782
0.29882032
0.30082913
0.30165317
0.29966599
0.29766969
0.29564595
0.29357335
0.29142806
0.28918477
0.28681791
0.28430229
0.28161487
0.27873607
0.27565028
0.27234551
0.26881923
0.2650706
0.26110299
0.25692007
0.25253195
0.24795146
0.24319285
0.23827312
0.23321644
0.2280369
0.22273188
0.22289795
0.22830775
0.23358127
0.23872829
0.24374018
0.24859341
0.2532713
0.25775816
0.26203959
0.26610345
0.26994179
0.27354806
0.27692475
0.28007653
0.28301093
0.28574317
0.28829257
0.29068188
0.29293797
0.29508603
0.29715207
0.29916015
0.3011325
0.30308939
0.305352
0.30344342
0.30150771
0.2995262
0.2974764
0.29533399
0.29307302
0.29066868
0.28809373
0.2853269
0.28235029
0.27914884
0.27571041
0.27203301
0.26811578
0.26397184
0.25961233
0.25505445
0.25031292
0.24540337
0.24033821
0.23514148
0.229822
0.22437836
0.22504085
0.23065684
0.23614713
0.24151814
0.24676157
0.25185393
0.25677946
0.26151975
0.26605713
0.27038544
0.27449859
0.27836605
0.28196295
0.28529726
0.28838633
0.29125031
0.29390345
0.29636839
0.29867644
0.30084875
0.3029114
0.30488809
0.30680118
0.30867072
0.31333895
0.31149251
0.30958195
0.30758843
0.30548969
0.30326426
0.30088633
0.29833227
0.29557464
0.29259383
0.28936583
0.2858782
0.28212151
0.27811589
0.27384662
0.26935485
0.2646327
0.25969746
0.25460553
0.24936004
0.24396768
0.23845115
0.23282393
0.22708454
0.22820421
0.23425371
0.24018664
0.24600952
0.2517177
0.25723913
0.26260617
0.26783592
0.27283049
0.27759715
0.28214781
0.28643177
0.29042054
0.29412667
0.29755874
0.30073286
0.30366927
0.30639
0.30892655
0.31129602
0.3135216
0.31562394
0.317622
0.31953194
0.32718744
0.32506658
0.32283666
0.32048967
0.31801279
0.31538997
0.3126021
0.30962959
0.3064472
0.3030343
0.29936718
0.2954307
0.2912076
0.28669719
0.28190935
0.27689911
0.27167176
0.26623687
0.26065028
0.2549204
0.24903907
0.24302529
0.23691089
0.23070395
0.23048535
0.23692715
0.24328104
0.24956898
0.25571786
0.2617281
0.26763001
0.27342027
0.2789938
0.2843565
0.28951329
0.29439102
0.29897244
0.30326148
0.30729218
0.31109431
0.31467959
0.31807599
0.32130992
0.32439684
0.32735326
0.33019104
0.33291428
0.33552405
0.34253188
0.33902508
0.33545333
0.33182934
0.32814095
0.32437614
0.3205193
0.31655596
0.31246563
0.30823972
0.30383719
0.29922044
0.29432475
0.28913348
0.28365931
0.2779842
0.27211208
0.26607041
0.25993618
0.25371332
0.2473941
0.24102255
0.23460611
0.22814002
0.21650732
0.223103
0.22966525
0.23622365
0.24270706
0.24912451
0.25550235
0.26183582
0.26801811
0.27405079
0.27992241
0.28552645
0.29080871
0.29583543
0.30068892
0.30542452
0.31013367
0.3147979
0.3194431
0.32407444
0.3287085
0.33340517
0.33819926
0.34306151
0.28435477
0.28188447
0.27931092
0.27661225
0.2737724
0.27077317
0.26760295
0.26424806
0.26070782
0.25697456
0.25305068
0.24893454
0.2446363
0.24015955
0.23551444
0.23071561
0.22577284
0.22069433
0.21548636
0.22186345
0.22158316
0.22199138
0.222722
0.22311606
0.22337427
0.2234256
0.22338592
0.22316355
0.22288484
0.22264296
0.21631381
0.21515821
0.21424719
0.2142333
0.21953011
0.21956792
0.22048537
0.22161768
0.22254411
0.22338684
0.22397422
0.22665144
0.2268172
0.22691719
0.22703343
0.2270832
0.22718484
0.22739266
0.22775146
0.22800653
0.22825927
0.22851092
0.22871473
0.22877076
0.22874884
0.22849075
0.22807526
0.22738068
0.22695059
0.2272091
0.23238557
0.2321668
0.23261797
0.23326785
0.23370109
0.23395371
0.23394409
0.23387583
0.2336837
0.23346096
0.23319317
0.23296153
0.23264536
0.2324418
0.23231203
0.23223944
0.23214641
0.23201709
0.23186734
0.2317435
0.23155297
0.23137641
0.23117004
0.23100395
0.23075438
0.23050708
0.23029317
0.23015314
0.22990639
0.22970308
0.22944952
0.22907867
0.22849766
0.22767333
0.22676239
0.22566505
0.22476149
0.22472718
0.22974189
0.22981885
0.23069864
0.23175962
0.23262587
0.23343125
0.23399872
0.23439464
0.23463335
0.23486487
0.23509739
0.23526742
0.23552523
0.2357868
0.2360128
0.23619931
0.23643326
0.23661047
0.23676516
0.23688282
0.23705942
0.23720146
0.23726447
0.23735812
0.23751731
0.23771537
0.23799009
0.23821992
0.23850929
0.23870437
0.23887852
0.23895938
0.23900281
0.23875383
0.23830962
0.23771908
0.23726
0.23745571
0.24235291
0.24221422
0.24264345
0.24319949
0.24363531
0.24386018
0.24382499
0.2437297
0.24355346
0.24336221
0.24309715
0.242849
0.24260948
0.24239701
0.24225279
0.24213086
0.24206092
0.24190346
0.2417429
0.24160221
0.241448
0.24126748
0.24105267
0.24083784
0.24061865
0.2403266
0.24006784
0.23985969
0.23961199
0.23938579
0.23912512
0.23874413
0.23817325
0.23740609
0.23657008
0.23556912
0.23470376
0.23463811
0.23934936
0.23942763
0.24027937
0.24121258
0.24201444
0.2427407
0.2433082
0.24367511
0.24395692
0.24417766
0.24445969
0.24468547
0.24494112
0.24526964
0.24549277
0.24572038
0.24590344
0.24609737
0.2462742
0.24641909
0.24655324
0.24673627
0.24682802
0.24696114
0.24708683
0.24731491
0.24753277
0.24778805
0.24801874
0.2482182
0.24839274
0.24850404
0.24852974
0.24833879
0.24792484
0.24739454
0.24699796
0.24710563
0.25165069
0.25159136
0.2519501
0.25245451
0.25282646
0.25301387
0.25298343
0.25285787
0.25269839
0.25247631
0.25227984
0.25203067
0.25182372
0.2515889
0.2514685
0.25132312
0.2512107
0.25101447
0.2508944
0.25072899
0.25056457
0.25035116
0.25018512
0.24994538
0.24970438
0.24937219
0.24910917
0.24884985
0.24856626
0.2483373
0.24803004
0.24768158
0.24711754
0.24644025
0.24567242
0.24479725
0.24399497
0.24391216
0.24827409
0.24837857
0.24913176
0.24994513
0.25067314
0.25129991
0.25186173
0.25218595
0.25251992
0.25275588
0.25304003
0.25333119
0.25359898
0.25393213
0.2541892
0.25444455
0.25460338
0.25482686
0.2549727
0.25516484
0.25528046
0.25547654
0.2556034
0.25576352
0.25587664
0.25612096
0.25631523
0.25656435
0.25673236
0.25697335
0.25712512
0.25725459
0.25728572
0.25710291
0.25678216
0.25629833
0.25598776
0.25601777
0.26015576
0.26015524
0.26044414
0.26087732
0.26117238
0.2613341
0.26128269
0.26116458
0.26101
0.26077625
0.26060984
0.26037198
0.26017475
0.25993595
0.25981502
0.25965701
0.25951623
0.25932125
0.25919934
0.25900583
0.25885246
0.25862956
0.25846396
0.25820959
0.25793948
0.25760995
0.25732581
0.25701865
0.25673882
0.25648381
0.25615039
0.2558264
0.25529419
0.25470781
0.2540212
0.25327004
0.25257528
0.25246921
0.2564524
0.25657375
0.25720461
0.25789609
0.25854264
0.25908498
0.25957949
0.2599073
0.26023795
0.26050939
0.26078704
0.2611055
0.26140153
0.26172662
0.26200504
0.26225733
0.26243014
0.26265287
0.26281294
0.26300591
0.26313382
0.26332785
0.26347937
0.26363617
0.26376347
0.2639982
0.26419694
0.26442589
0.26459086
0.26481593
0.26497419
0.26507983
0.26515249
0.26501162
0.26473892
0.26436286
0.26409588
0.26409085
0.26778972
0.26781001
0.26805651
0.26837916
0.26862003
0.26872818
0.26865573
0.26855297
0.26838773
0.26817319
0.26800801
0.26778898
0.26758748
0.26735843
0.26722344
0.26706968
0.26690656
0.26671586
0.2665811
0.26639088
0.26622357
0.26600335
0.26582272
0.26557573
0.26528975
0.26497393
0.26467021
0.26435329
0.26407247
0.26379262
0.26346185
0.26313524
0.26267247
0.2621645
0.26158025
0.26094509
0.26037405
0.26025377
0.26384909
0.26397733
0.26449941
0.26506904
0.26558813
0.26606374
0.26650418
0.26681668
0.26714641
0.2674304
0.26771199
0.26802446
0.26832991
0.26863594
0.26892448
0.26916648
0.26935204
0.26957024
0.26974186
0.26993027
0.27006949
0.27025783
0.27042876
0.27058155
0.27072252
0.27094733
0.27114956
0.2713605
0.27152445
0.2717301
0.27189913
0.27200086
0.27207417
0.27200105
0.27179939
0.27152243
0.27129857
0.27127765
0.27453283
0.27456184
0.27476138
0.27499331
0.27514891
0.27519502
0.27512258
0.27502044
0.27484767
0.27465237
0.27448837
0.27428617
0.27408273
0.27386354
0.27371567
0.27356458
0.27338646
0.27320266
0.27305875
0.27287374
0.27269825
0.27248434
0.27229426
0.27205965
0.27177045
0.271478
0.2711732
0.27086874
0.27057896
0.27029366
0.26997559
0.26967065
0.26926415
0.2688272
0.26835378
0.26784507
0.26738503
0.26727022
0.27049302
0.27060155
0.27100173
0.271455
0.27188569
0.27228282
0.27265354
0.27295185
0.27325477
0.27354142
0.27383545
0.27412977
0.27443218
0.27470793
0.27499537
0.2752208
0.27541259
0.27562191
0.27579851
0.27598049
0.27612701
0.2763057
0.2764911
0.27663955
0.27679281
0.27700709
0.27720986
0.27740468
0.2775677
0.27775287
0.27792984
0.27803129
0.27810181
0.27808208
0.27796966
0.27778088
0.27760771
0.27758298
0.28042258
0.28044818
0.28059552
0.28074458
0.28081844
0.280815
0.28074321
0.28063658
0.28046757
0.28028777
0.28012453
0.27993764
0.27973557
0.27952759
0.27936904
0.27921803
0.27903791
0.27886035
0.27871104
0.27853349
0.2783567
0.2781541
0.27796172
0.27774269
0.27747019
0.27720299
0.27691509
0.27662865
0.27633428
0.27604989
0.27576175
0.2754743
0.27513425
0.27477561
0.27438579
0.27398497
0.27364115
0.27354758
0.27643291
0.2765179
0.2768111
0.27716313
0.27751322
0.27783687
0.27815273
0.2784256
0.2786998
0.27897603
0.27926728
0.27954374
0.27981492
0.28007149
0.28032839
0.28053918
0.28072947
0.28092487
0.28109931
0.28127231
0.28142237
0.28159901
0.28177075
0.28192564
0.28208819
0.28229002
0.28248918
0.28266922
0.2828316
0.28300698
0.28316551
0.28328086
0.28335634
0.28337663
0.28333664
0.28322501
0.28310192
0.28308334
0.28557331
0.28558879
0.28568498
0.28576417
0.28578375
0.28574819
0.28566257
0.28554326
0.28539011
0.28522312
0.28506173
0.2848888
0.28469322
0.28449899
0.28433411
0.28417692
0.2840086
0.28383765
0.28368781
0.28352064
0.28334938
0.28316286
0.2829768
0.28277476
0.28253552
0.28229325
0.28203216
0.28176714
0.28149011
0.2812229
0.28095474
0.28069526
0.28040653
0.28011557
0.2798028
0.27949587
0.27924796
0.27917226
0.28177618
0.28184827
0.28205699
0.28232308
0.28260093
0.28286191
0.28312521
0.28337252
0.28363386
0.28389114
0.28415257
0.28440637
0.28465678
0.28488408
0.28510499
0.28529823
0.28547865
0.28565571
0.28582258
0.28598391
0.28613272
0.28629833
0.28646244
0.28662047
0.28678561
0.28697165
0.28716324
0.2873289
0.28748824
0.28764789
0.28779538
0.28791703
0.28801115
0.28805829
0.28805448
0.2880036
0.28793359
0.28792637
0.29015971
0.29016278
0.29021067
0.2902385
0.2902273
0.29016881
0.29007323
0.28995013
0.2898066
0.28965408
0.2894971
0.28933667
0.2891544
0.28897516
0.28881121
0.28865433
0.28849434
0.28833383
0.28818767
0.28803337
0.28787382
0.28770462
0.28753331
0.28734845
0.28714317
0.28693147
0.28669404
0.28645037
0.28620193
0.28595504
0.28570365
0.28546716
0.28522479
0.28499144
0.28474711
0.28451658
0.28434143
0.28427801
0.29032623
0.29046904
0.29062269
0.29077754
0.29093209
0.29109333
0.2912655
0.29143737
0.29159276
0.29174692
0.29189259
0.29203295
0.29215435
0.29224911
0.29231706
0.29234186
0.29233154
0.29230224
0.29230551
0.29438393
0.29437721
0.29439134
0.29438707
0.29435074
0.2942786
0.29418322
0.29406481
0.29393125
0.29379038
0.29364269
0.29349165
0.29332805
0.29316486
0.29300772
0.29285858
0.2927097
0.29506068
0.29521138
0.29536565
0.29552092
0.29566676
0.29580753
0.29594286
0.29606972
0.29618408
0.29627858
0.29635253
0.2963973
0.29641303
0.2964113
0.29642245
0.29843919
0.29842541
0.29841746
0.29839319
0.2983427
0.29826879
0.29817653
0.29806757
0.29794737
0.29781867
0.29768455
0.2975448
0.29739794
0.29725189
0.29996006
0.30007351
0.30017674
0.30026575
0.30033833
0.30039226
0.300423
0.30043846
0.30045507
0.30080605
0.29879369
0.2967754
0.29473268
0.29264426
0.29048619
0.28823344
0.28586008
0.28334065
0.28065152
0.27777346
0.27468973
0.27138812
0.26786474
0.26411954
0.26015305
0.25596235
0.25155425
0.24694782
0.24216112
0.2372126
0.23214447
0.2269585
0.22164457
0.19286484
0.19910606
0.20536167
0.21167465
0.21794376
0.2241989
0.23047005
0.236754
0.24294816
0.24908215
0.25509341
0.26089335
0.26639904
0.27156345
0.27635788
0.28041979
0.28594473
0.29129009
0.29653261
0.30141583
0.30639905
0.31206862
0.3187375
0.32563159
0.3320798
0.33824994
0.30163503
0.29964232
0.29763908
0.29560677
0.29352331
0.29136519
0.28910649
0.28672241
0.28418646
0.28147653
0.27857326
0.27545902
0.27212345
0.26856855
0.26478807
0.2607868
0.25656285
0.25211688
0.2474743
0.24265089
0.23766694
0.2325801
0.22737959
0.22205875
0.1499838
0.15524867
0.16049762
0.1657566
0.1709671
0.17615746
0.18135256
0.18655618
0.19164499
0.19653738
0.20127045
0.2072218
0.21644664
0.22561147
0.23355636
0.21701867
0.21776848
0.21976959
0.22141286
0.2246157
0.22703588
0.22983821
0.23051764
0.2311974
0.22991636
0.23011397
0.22998319
0.2315024
0.23309434
0.24189866
0.24942916
0.25666705
0.26165664
0.26570071
0.26569767
0.31083102
0.31661373
0.31608001
0.31488407
0.3392333
0.30308498
0.30112522
0.29914764
0.29713325
0.29505859
0.29289908
0.29062966
0.28822831
0.28566354
0.28291193
0.27995785
0.27678567
0.27339615
0.26977887
0.26592291
0.26183316
0.25752294
0.25300768
0.24830104
0.24341956
0.2383794
0.23323307
0.22795634
0.2225438
0.052815594
0.055569628
0.058387393
0.06128515
0.064250339
0.06729362
0.070418329
0.073616571
0.076690945
0.079243229
0.079319839
0.066907956
0.057118363
0.058164942
0.058383821
0.05719306
0.056916033
0.058646616
0.06097603
0.06347243
0.066003957
0.068552337
0.070952772
0.073019388
0.074809366
0.083921345
0.086329816
0.094019078
0.095362069
0.097860929
0.098403882
0.10069635
0.1010298
0.10247124
0.1025132
0.10301305
0.10295323
0.10358865
0.10356978
0.1039318
0.10399188
0.10500645
0.10489847
0.10510209
0.10489216
0.10512219
0.10491292
0.10500442
0.10493594
0.10593103
0.10604889
0.10679983
0.10676623
0.10733874
0.10724874
0.10751308
0.10726634
0.10732781
0.10711113
0.10732078
0.10708331
0.10716463
0.10676055
0.10613676
0.10556019
0.10495395
0.10441554
0.10390065
0.10337716
0.10279396
0.10235245
0.10205325
0.1017156
0.10222176
0.10213279
0.10253386
0.10261583
0.1040499
0.10435109
0.10578612
0.10623894
0.1082322
0.10867091
0.1100491
0.11024793
0.11129508
0.1113516
0.11204993
0.11213571
0.11320802
0.11357099
0.11508992
0.11565245
0.11796313
0.124313
0.1267055
0.13022896
0.13144927
0.13372519
0.13444355
0.13598345
0.13681903
0.13874857
0.1397056
0.1418059
0.14315831
0.14629145
0.14800358
0.15128622
0.153097
0.15631931
0.15786613
0.15954259
0.16021971
0.16014261
0.15921993
0.15443862
0.15063127
0.13754595
0.12915957
0.10267342
0.091409734
0.071023333
0.061353668
0.058421917
0.066529032
0.087669146
0.099365949
0.12427638
0.13288981
0.14504204
0.14904128
0.15359215
0.15451875
0.15474733
0.15402749
0.15269821
0.15112265
0.14816023
0.14623193
0.14326503
0.14145785
0.13863169
0.1372513
0.13531034
0.13421424
0.13238718
0.13144554
0.12998618
0.12932133
0.12717375
0.12587573
0.12226343
0.11837938
0.11621204
0.11354024
0.11281774
0.11143503
0.11101156
0.11001242
0.10987655
0.10925125
0.10917595
0.10821884
0.10796531
0.10671402
0.10615739
0.10430249
0.10374731
0.10254784
0.10213999
0.10084908
0.10072533
0.10045238
0.10038868
0.10001731
0.10032426
0.1005797
0.10094542
0.10155535
0.10206322
0.10243227
0.10296277
0.1034922
0.10397458
0.10460808
0.10492948
0.10484231
0.10499534
0.10490169
0.10506632
0.10500892
0.105177
0.10504688
0.10508216
0.10455024
0.10451376
0.10394669
0.10374067
0.10280989
0.10280571
0.10283352
0.10300019
0.10279847
0.1029338
0.10285765
0.10288369
0.10191405
0.10174664
0.10147272
0.10139879
0.10085376
0.1008255
0.10046238
0.10033754
0.099015878
0.098721829
0.096618549
0.096059291
0.093477056
0.092062198
0.084888885
0.082268439
0.080101754
0.077634971
0.074954363
0.072292594
0.069648993
0.067195309
0.065365536
0.065409151
0.069528331
0.068405727
0.068199697
0.070049682
0.072506022
0.075132118
0.077945893
0.080546174
0.082922672
0.089634384
0.086934849
0.084075789
0.081275485
0.078532815
0.076005942
0.074068811
0.07402381
0.07751935
0.075582721
0.07538249
0.077349874
0.079907775
0.082687646
0.085681681
0.088501418
0.091164909
0.093768572
0.091143194
0.088419464
0.085756536
0.083119666
0.0806756
0.078793056
0.078870614
0.082050141
0.079251405
0.078910482
0.080762287
0.083225562
0.08597833
0.088952388
0.09176494
0.094399689
0.09628757
0.093560548
0.090708743
0.087953206
0.085279073
0.082847276
0.081020618
0.081140859
0.084059217
0.08073766
0.080483069
0.082429737
0.084998102
0.087819742
0.090909182
0.09383255
0.096610509
0.097798904
0.095002091
0.092154409
0.08936197
0.086679387
0.084223902
0.082369152
0.082460508
0.085387328
0.081878707
0.081622488
0.083585133
0.086183942
0.089044131
0.092171094
0.095149145
0.097987283
0.098254977
0.095468756
0.092550939
0.089761894
0.087076234
0.084632374
0.082837937
0.083015322
0.086059833
0.082384943
0.082053295
0.083985313
0.086562136
0.089389001
0.092478383
0.095497451
0.09834269
0.098808089
0.096012239
0.093062521
0.090220785
0.087467521
0.08499649
0.083185294
0.083396481
0.086639999
0.082871568
0.082489479
0.084457534
0.087066541
0.08995603
0.093094612
0.09612132
0.098977414
0.099189298
0.096391569
0.093469782
0.0906891
0.088005555
0.085592356
0.083778525
0.084118654
0.087605041
0.083738545
0.083255349
0.085180029
0.087702792
0.090507427
0.09355477
0.096580731
0.099462731
0.10038018
0.097599465
0.094682916
0.091842478
0.089088803
0.08663105
0.084806091
0.085113348
0.088649203
0.084555302
0.084094903
0.08601614
0.088623252
0.091486568
0.094595047
0.097593077
0.10041019
0.10038533
0.09766802
0.094793741
0.092008858
0.089343988
0.086894255
0.085105778
0.085476074
0.089033376
0.084553788
0.084013646
0.085940871
0.088515282
0.091292203
0.094342881
0.097420146
0.10032064
0.1005451
0.097782349
0.094814069
0.091986395
0.089272805
0.086770682
0.084927348
0.085347976
0.089222021
0.084518217
0.083977561
0.085929623
0.088548956
0.091410164
0.09454511
0.097583702
0.10038495
0.10022953
0.097550185
0.094679115
0.091859896
0.089178802
0.086760706
0.084952344
0.085370854
0.08951842
0.084611546
0.084001013
0.085951482
0.088512201
0.091294743
0.094379356
0.097453966
0.10032858
0.10122583
0.098435054
0.095431739
0.092545031
0.089804649
0.087278919
0.085406985
0.08585875
0.090245414
0.085315614
0.084767237
0.086734236
0.089413017
0.092330739
0.095500653
0.098583548
0.10144224
0.10183572
0.099015865
0.096043627
0.093168232
0.090362008
0.087787921
0.085895731
0.086272418
0.090620467
0.085564026
0.085011253
0.086935467
0.089589605
0.092556617
0.095758796
0.098916029
0.10193002
0.10242959
0.099534039
0.096494284
0.093519732
0.090663813
0.088082578
0.08617934
0.086564395
0.090934396
0.085829884
0.085311088
0.08734178
0.090081432
0.093077626
0.096338252
0.099483226
0.10244108
0.10247029
0.099607713
0.096601189
0.09369804
0.090880892
0.088276693
0.086345259
0.086729997
0.091189874
0.085956571
0.085412252
0.087343777
0.090012717
0.093018556
0.096180094
0.099308339
0.10236567
0.10246836
0.099572257
0.096522566
0.093619967
0.090783303
0.088172552
0.086248292
0.086618782
0.09113155
0.085851297
0.085303877
0.087238271
0.08993114
0.092929634
0.096170384
0.099406959
0.102341
0.10228127
0.09941609
0.096374288
0.093439518
0.090656817
0.088064135
0.086163955
0.086588536
0.091225205
0.085891531
0.085309083
0.087226275
0.089906028
0.092861781
0.096071467
0.099266868
0.10225059
0.1023728
0.099480349
0.096406843
0.093548886
0.090772636
0.088159675
0.086257057
0.086680373
0.09136566
0.08591107
0.085298973
0.087203151
0.089874264
0.092825037
0.095998232
0.099215683
0.10213855
0.10143688
0.098618647
0.095675569
0.09286607
0.090144634
0.087628754
0.085798109
0.086331314
0.091042453
0.085379305
0.084674158
0.086490064
0.089065881
0.091950964
0.095046343
0.098123986
0.10102269
0.10052139
0.097809049
0.094931906
0.092188577
0.089509196
0.08702462
0.085289581
0.085922236
0.09064245
0.084752936
0.083972929
0.08577592
0.088349685
0.091169099
0.094202358
0.097215262
0.10002113
0.09972887
0.097088309
0.094270839
0.091583303
0.088965236
0.086542888
0.084830502
0.085559699
0.090314018
0.084376087
0.083654438
0.085430986
0.087982131
0.090717682
0.093655674
0.096638322
0.099307959
0.098628355
0.096031608
0.093247644
0.090545847
0.087967949
0.085629941
0.084002375
0.084742445
0.089680457
0.083591547
0.082699856
0.084426282
0.086915574
0.089666256
0.092655239
0.095582768
0.098304459
0.098075177
0.095494815
0.092746375
0.090089732
0.087523447
0.085187916
0.083525936
0.084329965
0.089097771
0.083102566
0.082302297
0.08405875
0.086512455
0.089268601
0.092196576
0.095098639
0.097814567
0.098110605
0.095495336
0.092714198
0.090095596
0.087492973
0.085193966
0.083543617
0.084351529
0.089228202
0.083447803
0.082690961
0.084435457
0.086902586
0.089701377
0.09265444
0.095598884
0.098265763
0.098373889
0.095719384
0.09296745
0.090321455
0.0877057
0.085387853
0.083774608
0.084574277
0.089502279
0.083856136
0.083053783
0.084782816
0.087332646
0.090058158
0.092960989
0.095912513
0.09864058
0.09983784
0.097140961
0.094242637
0.09149306
0.088855373
0.086418588
0.084749879
0.085560511
0.090686226
0.085025777
0.084259939
0.086072906
0.088665904
0.091498821
0.094536836
0.097592841
0.10030319
0.10125075
0.098497032
0.09557151
0.092810027
0.090124331
0.087682514
0.085966143
0.08673403
0.092114594
0.086406583
0.085685881
0.087521481
0.090144095
0.092980922
0.096016919
0.099065774
0.10191602
0.10364341
0.1007924
0.097797529
0.094900659
0.092119404
0.0896046
0.087803608
0.088465355
0.093934798
0.088301888
0.087648081
0.089553091
0.092214682
0.095161004
0.098313816
0.10147255
0.10433275
0.10540677
0.10253627
0.099527922
0.096643551
0.093846078
0.091288848
0.089424591
0.090043647
0.095232478
0.08941667
0.088823457
0.090804213
0.093528729
0.096508382
0.099705311
0.10288253
0.1057776
0.10657487
0.10368165
0.10060434
0.097654951
0.094799096
0.092153493
0.090222138
0.090830381
0.096060976
0.090137541
0.089424392
0.091424306
0.094173867
0.097194558
0.10044278
0.10363728
0.10665205
0.10725046
0.10433059
0.10123739
0.098291255
0.09540486
0.092736282
0.090777327
0.091277744
0.096628425
0.090795055
0.090210142
0.092212181
0.094969945
0.09801099
0.10123724
0.10443383
0.10745011
0.10840505
0.10555673
0.10251268
0.09957056
0.096668236
0.093997057
0.092042449
0.092600547
0.09812049
0.092213863
0.091569489
0.093573971
0.096339229
0.099388787
0.10263751
0.10584126
0.10886608
0.11012731
0.10716622
0.10405095
0.10103871
0.098105769
0.095408595
0.093427307
0.0940672
0.099818576
0.093909762
0.093261026
0.095312539
0.098119226
0.10120077
0.10454305
0.1077547
0.11080203
0.11333608
0.11018826
0.10690439
0.10376142
0.10074706
0.098001237
0.095976869
0.096488381
0.10266952
0.097010227
0.096391718
0.098588235
0.10152987
0.10473621
0.10814279
0.11179201
0.11532119
0.11892472
0.12221006
0.11837252
0.11463556
0.11092673
0.10743213
0.10409257
0.10101766
0.098725234
0.099051625
0.10490347
0.099252493
0.099010213
0.10141702
0.10463313
0.1081591
0.11177406
0.11568293
0.11955943
0.123543
0.12559306
0.12165374
0.11777283
0.11391499
0.11032817
0.10690437
0.10377684
0.10140667
0.10154278
0.10721641
0.10138356
0.1010514
0.10353299
0.10674341
0.11027481
0.11400042
0.11811305
0.12217438
0.12625828
0.12766656
0.1236563
0.11966484
0.11573123
0.11201529
0.1084413
0.10523123
0.10279647
0.10288127
0.10870383
0.10302259
0.10280968
0.10531912
0.10874309
0.1124548
0.11626081
0.12049706
0.12459692
0.12863183
0.13040817
0.12643324
0.12250582
0.11855257
0.11481462
0.11118883
0.10782431
0.10530433
0.10531785
0.11142516
0.10569283
0.10542599
0.1080388
0.11142932
0.11511091
0.11902287
0.12322687
0.12733404
0.13153837
0.13336733
0.12922552
0.12525091
0.12126299
0.11745184
0.11385685
0.11053481
0.10793451
0.1079472
0.11408117
0.10809665
0.10799273
0.11071645
0.11423537
0.11799888
0.12192057
0.12621093
0.13046563
0.13478642
0.13742132
0.13312274
0.12893813
0.12484124
0.12096131
0.11705629
0.11308757
0.11010474
0.10885494
0.11561233
0.10120291
0.10023877
0.1042361
0.10922192
0.11048191
0.1133518
0.11417576
0.11630623
0.11592985
0.11719485
0.1155683
0.11501901
0.1107585
0.1075153
0.099255927
0.091757335
0.077110288
0.065947097
0.053211767
0.043560742
0.038864269
0.036859057
0.041019354
0.051670593
0.06388152
0.074893296
0.088319567
0.095777118
0.10338158
0.10671831
0.11063518
0.11138353
0.11277749
0.11175786
0.11199683
0.11021546
0.1092414
0.10636184
0.10235982
0.10289678
0.1162842
0.10561925
0.10521732
0.10633188
0.10681184
0.11912506
0.10823324
0.10792482
0.10777413
0.10841158
0.1203851
0.10900394
0.10860646
0.10731398
0.10766588
0.11824673
0.10643188
0.10637069
0.10267847
0.10292431
0.11189723
0.099365852
0.099260452
0.092215474
0.092735831
0.10006134
0.085288459
0.084917136
0.072743599
0.073934303
0.077294287
0.062860658
0.061818647
0.050267223
0.047560712
0.055912758
0.061356319
0.061140595
0.085914794
0.10802637
0.11932844
0.12492945
0.12682496
0.12558471
0.12311681
0.12255694
0.12126171
0.11867006
0.11587376
0.11430058
0.11196274
0.10968466
0.10672251
0.10488868
0.10329174
0.10267602
0.10174708
0.10036075
0.098433241
0.096909032
0.095657257
0.095342169
0.095191837
0.09578574
0.096428616
0.096728088
0.09702819
0.097252804
0.097047537
0.096879431
0.096895863
0.096617805
0.096326864
0.095923724
0.094531989
0.093446481
0.092462204
0.091361334
0.08967607
0.088157192
0.087157035
0.086225679
0.084701099
0.082543236
0.077845743
0.0696788
0.068419412
0.077508664
0.095395052
0.086250255
0.076524701
0.081152531
0.091194744
0.10538014
0.093630494
0.083424412
0.084955588
0.094963386
0.10925232
0.096314221
0.086113632
0.087365034
0.097250427
0.11211543
0.099202796
0.089278661
0.091346145
0.10070348
0.11511297
0.10223785
0.092922272
0.094301505
0.10316076
0.11726208
0.10465417
0.095795433
0.097440291
0.10599843
0.11952142
0.10730228
0.098405715
0.099163782
0.10795276
0.12113632
0.10900384
0.10010739
0.10060685
0.10921037
0.12218909
0.11005785
0.10136435
0.10181316
0.11024887
0.12288941
0.11044111
0.10166636
0.10139148
0.1107522
0.12320255
0.11043441
0.10118005
0.1004064
0.10955658
0.12227094
0.10911288
0.099730095
0.099750255
0.10899027
0.12245819
0.10952246
0.10009808
0.10123791
0.11046747
0.12447058
0.11213608
0.10282749
0.10479735
0.11375753
0.12730552
0.11508141
0.1062815
0.10720746
0.11638008
0.12957634
0.11691801
0.10788372
0.10940877
0.11828537
0.13229847
0.12027285
0.11133706
0.11449527
0.12355032
0.13710517
0.1255315
0.11689067
0.11920722
0.12760437
0.14116344
0.12942538
0.1209012
0.12375649
0.13213215
0.14633786
0.13499219
0.12660741
0.12829354
0.13661748
0.15101932
0.13868739
0.12920522
0.1316824
0.1407342
0.15456611
0.14230398
0.13312569
0.13175006
0.13953972
0.14457581
0.13400061
0.12809184
0.11522526
0.11062005
0.12336551
0.12465705
0.12000517
0.1418625
0.15272594
0.14946305
0.14468489
0.13952802
0.13551885
0.13094822
0.12821419
0.1259765
0.12327492
0.12135811
0.12112727
0.12197823
0.12168129
0.12100455
0.12000047
0.11846161
0.11637862
0.1143454
0.11143211
0.10850434
0.10456257
0.094897746
0.092332766
0.089249721
0.086015046
0.082770782
0.079554481
0.076378777
0.073256113
0.070180895
0.067150672
0.07345103
0.076900211
0.080403643