/*--------------------------------*- C++ -*----------------------------------*\
| =========                 |                                                 |
| \\      /  F ield         | OpenFOAM: The Open Source CFD Toolbox           |
|  \\    /   O peration     | Version:  v2012                                 |
|   \\  /    A nd           | Website:  www.openfoam.com                      |
|    \\/     M anipulation  |                                                 |
\*---------------------------------------------------------------------------*/
FoamFile
{
    version     2.0;
    format      ascii;
    class       volScalarField;
    location    "100";
    object      nut;
}
// * * * * * * * * * * * * * * * * * * * * * * * * * * * * * * * * * * * * * //

dimensions      [0 2 -1 0 0 0 0];


internalField   nonuniform List<scalar> 
24787
(
0.0057244745
0.0055654693
0.0053724026
0.0051465938
0.0050464391
0.0049435805
0.0047889276
0.0046249901
0.0045324325
0.0044342639
0.0043265148
0.004214484
0.0040991755
0.0039820557
0.0038636909
0.0037431858
0.0036217931
0.0035008495
0.0033928573
0.0032865415
0.0033015135
0.0038247931
0.0038482893
0.0037592988
0.0036211647
0.0034674043
0.0032986216
0.0032318725
0.0031575862
0.003037011
0.0029142865
0.0028519843
0.0027808022
0.0026991531
0.0026128129
0.0025231261
0.0024306141
0.0023355686
0.0022410364
0.0021590811
0.0020804278
0.0020910709
0.0025138091
0.0024392877
0.0023307085
0.0022159898
0.0021015386
0.0020656295
0.0020166096
0.0019260664
0.001837168
0.0017991401
0.0017482845
0.0016857394
0.0016174648
0.0015452633
0.0014731388
0.0014097093
0.0012358637
0.0012433231
0.0010401504
0.00029979038
0.00047789934
0.0012757548
0.0024343011
0.0024958629
0.0024586868
0.0024018895
0.0023407438
0.0022790788
0.0022168328
0.00215385
0.0020896347
0.002024216
0.0019576018
0.0252507
0.025940666
0.026593698
0.027215522
0.027805189
0.028352891
0.028861422
0.029330809
0.029758953
0.030144718
0.030488367
0.030792131
0.031058707
0.031289849
0.031488576
0.0057949685
0.0056001728
0.0056515112
0.0059815385
0.0060519827
0.0066504605
0.0067209417
0.0071277435
0.0071907473
0.0074779538
0.0075140393
0.0075816278
0.0076575685
0.0077601335
0.0078179045
0.0081694434
0.0082321437
0.0086404161
0.0087030061
0.0090751702
0.0091330797
0.0094681883
0.0095284591
0.0095291687
0.0094297919
0.0091377251
0.0090421182
0.0087158889
0.0086101868
0.0082462227
0.0081347716
0.0078002502
0.0076843446
0.0076455275
0.0076348419
0.0074812843
0.0074145846
0.0071454621
0.0070319422
0.0066511595
0.00652295
0.0059745242
0.0058492448
0.0055418064
0.0054343764
0.0052038808
0.0050168995
0.0050629529
0.0049733005
0.0048015227
0.0050957792
0.0052600072
0.0055037601
0.0055992136
0.005802245
0.0062861961
0.0064900797
0.0068446274
0.0070195701
0.0072734966
0.007382878
0.0075478311
0.0077173771
0.0078432042
0.0080154817
0.0082084391
0.0085027308
0.0086721153
0.0089232126
0.0090697142
0.009268963
0.0093348386
0.00945532
0.0095322767
0.0094169823
0.0091616352
0.0090411229
0.0087478794
0.0086121273
0.0082789566
0.0081266127
0.0078009526
0.0077811379
0.007782903
0.0076262891
0.007469482
0.007380475
0.0071260001
0.0069754156
0.0066146803
0.0064387703
0.0059274948
0.0057756131
0.0055011156
0.0053850852
0.0052534899
0.0053989173
0.0056749055
0.0063342752
0.0060716154
0.005940777
0.0056202895
0.0055416865
0.0055155223
0.0051968366
0.0052340177
0.0054193746
0.0057190346
0.008079701
0.0076183236
0.032447068
0.032404045
0.03235671
0.032303184
0.032241288
0.032168425
0.032081813
0.031978316
0.031854817
0.031707946
0.031534673
0.031331831
0.031096911
0.030827355
0.030521559
0.030177842
0.029795594
0.029374062
0.028913767
0.028415021
0.027879519
0.027308667
0.026704789
0.026067774
0.02585034
0.026503196
0.027122175
0.027708788
0.028261017
0.028776213
0.029252851
0.029689962
0.030087372
0.030445103
0.030764305
0.031046224
0.031292585
0.031505606
0.031687963
0.031842647
0.031972851
0.032081885
0.032173038
0.032249463
0.032314106
0.032369618
0.03241831
0.032462303
0.032504309
0.03246158
0.032413723
0.032358747
0.032294299
0.032217696
0.032125976
0.032015994
0.031884462
0.031728112
0.031543808
0.031328641
0.03107988
0.030795783
0.0304747
0.030115482
0.029717051
0.029279328
0.02880281
0.028288475
0.027737994
0.027154423
0.026539784
0.02589397
0.025786905
0.026448447
0.027076972
0.027673759
0.02823752
0.028765244
0.029255255
0.029706353
0.030117826
0.030489519
0.030822009
0.031116121
0.031373809
0.031597147
0.031788354
0.031950347
0.032086276
0.032199429
0.032293327
0.032371115
0.032435877
0.032490367
0.032537072
0.032578234
0.032694583
0.032656274
0.032611606
0.032558474
0.032494327
0.032416349
0.03232143
0.032206462
0.032067881
0.031902589
0.031707639
0.031480163
0.031217362
0.030917449
0.030578609
0.030200798
0.029783838
0.029328573
0.028835799
0.028306746
0.027742524
0.027146205
0.026519098
0.025861276
0.025688998
0.026368244
0.027016414
0.027634192
0.028220256
0.028771568
0.029286524
0.029763524
0.03020143
0.030600984
0.030962982
0.03128523
0.031566281
0.031809047
0.032017098
0.032194004
0.032342237
0.032465135
0.032566769
0.032649851
0.032717578
0.032772773
0.032818055
0.032855759
0.033047026
0.03300605
0.032956145
0.032895036
0.032820045
0.032728532
0.03261728
0.032483226
0.032322746
0.032132914
0.031910083
0.031651692
0.031355263
0.031021753
0.030647338
0.030235296
0.029782767
0.029290256
0.028764311
0.02820451
0.027611241
0.026987375
0.026334904
0.025653997
0.025275638
0.025983459
0.026661987
0.027311907
0.027932524
0.028514105
0.029062049
0.029579457
0.03005453
0.030490293
0.030890138
0.031249876
0.031568094
0.031848102
0.032092061
0.032302902
0.032483735
0.032637818
0.032769286
0.032880589
0.03297478
0.033054539
0.033122284
0.03318008
0.033002465
0.032908965
0.032807054
0.032695262
0.032571497
0.032433161
0.032277223
0.032100533
0.031899339
0.031670408
0.031410285
0.031116537
0.030786554
0.030419099
0.030013192
0.029572908
0.029096894
0.028584523
0.028041293
0.027467371
0.026861096
0.026224281
0.02556112
0.024872994
0.023656504
0.024319303
0.024958313
0.025576035
0.026163464
0.026721492
0.027254327
0.027762383
0.028234992
0.028674883
0.029084559
0.029458584
0.029796868
0.030099728
0.030369957
0.030610697
0.03082448
0.031016295
0.031191116
0.031352892
0.031505796
0.031653515
0.031798509
0.031942119
0.02908746
0.028929251
0.028781353
0.028643713
0.028510942
0.028375481
0.028230236
0.028069726
0.027888149
0.027679751
0.027438997
0.027164306
0.026854735
0.026512317
0.026137902
0.025736814
0.02530755
0.024851013
0.024373527
0.023874515
0.023352501
0.022811707
0.022253
0.021676167
0.018194359
0.0186821
0.019152881
0.01960913
0.020044348
0.020459947
0.02085907
0.021242364
0.021602328
0.02194051
0.022257533
0.022547599
0.022805272
0.023026594
0.02320334
0.023331479
0.023422101
0.023485247
0.023524998
0.02354643
0.023564506
0.023599141
0.023657336
0.023722282
0.031880492
0.031774352
0.031650717
0.031506209
0.031337992
0.031142807
0.030918056
0.030660766
0.03036957
0.030042166
0.029677594
0.029274432
0.028832977
0.028352835
0.027834719
0.027280315
0.026690885
0.026067765
0.025412223
0.025822606
0.025764754
0.025825508
0.02594237
0.026005772
0.026050181
0.026061853
0.026065224
0.026042121
0.026010873
0.025987997
0.025468689
0.02529228
0.025152009
0.0251706
0.025846686
0.025833682
0.02597446
0.026145478
0.026275786
0.026393839
0.026468532
0.026567986
0.026575667
0.026577333
0.026578853
0.026569607
0.026566941
0.0265875
0.02663193
0.026658458
0.026682552
0.026708927
0.026728464
0.026727411
0.026719679
0.026674982
0.02660753
0.026496902
0.026431846
0.026483551
0.027105771
0.027062889
0.027131695
0.027234825
0.027305392
0.027349417
0.027352981
0.027352505
0.027335352
0.027314011
0.027288199
0.027265856
0.027229583
0.02721023
0.027208592
0.027214209
0.027216677
0.027210633
0.027205832
0.027203219
0.027190517
0.027179373
0.027168806
0.027165685
0.027152897
0.027141866
0.027140569
0.02715135
0.027143686
0.027142381
0.027130074
0.027097074
0.027024532
0.026911148
0.02678418
0.026620485
0.026482872
0.026494673
0.027101052
0.027097812
0.02723038
0.027386469
0.027505435
0.027614039
0.027683279
0.027719234
0.027728918
0.027734148
0.027738734
0.027732543
0.027740012
0.02775244
0.027760765
0.027766685
0.027780694
0.027791317
0.02779772
0.027799413
0.027807943
0.027815506
0.027808286
0.027806023
0.027811939
0.027829852
0.02785845
0.027880047
0.027908342
0.027925038
0.027938837
0.027940921
0.027941643
0.027897984
0.027825706
0.027732149
0.027662021
0.02769881
0.028252661
0.028226866
0.028292241
0.028380278
0.028451
0.028491026
0.028492552
0.028488694
0.028475004
0.028459164
0.028435546
0.028411695
0.028389545
0.028369949
0.028366694
0.028364681
0.028370706
0.028361272
0.028355746
0.028350604
0.028344763
0.028334177
0.028323973
0.028314175
0.028307444
0.028291078
0.028284189
0.028284663
0.028278312
0.028274461
0.028261514
0.028228849
0.028160197
0.028059465
0.027946147
0.027801437
0.027672539
0.027676109
0.028209457
0.028209388
0.028334433
0.028466797
0.028573733
0.028666468
0.028733298
0.02876311
0.028778952
0.028781712
0.028792677
0.028794637
0.028800647
0.028821628
0.028828558
0.028839727
0.028844648
0.028856707
0.028865448
0.028870972
0.028872248
0.028884989
0.028882285
0.028885798
0.028886179
0.028907389
0.028925454
0.028949668
0.028967449
0.028984153
0.028997061
0.029002872
0.028999209
0.028964119
0.028897054
0.028813366
0.028753009
0.028772185
0.029248877
0.029238429
0.029293028
0.029372289
0.029432669
0.029467405
0.029470931
0.02946359
0.0294533
0.029433736
0.029421435
0.029398888
0.029383056
0.029361745
0.029362073
0.029356994
0.029356603
0.029342611
0.029343465
0.029335129
0.02932875
0.029314429
0.029312253
0.029299834
0.029290474
0.029269916
0.029262987
0.029256217
0.029245627
0.029241721
0.029222442
0.029195972
0.029130962
0.029047225
0.028946606
0.02882487
0.028709334
0.028707307
0.029162526
0.029169
0.029275303
0.029386046
0.029479436
0.029554341
0.029617667
0.029640216
0.029662946
0.02966785
0.029678176
0.029689344
0.029696907
0.029716879
0.029728328
0.029742502
0.029743607
0.029758742
0.02976212
0.029773941
0.029772528
0.029785858
0.029788283
0.029795218
0.029793962
0.029815752
0.029829206
0.029850988
0.029858974
0.029880627
0.029889517
0.029896849
0.029892909
0.029858899
0.029806331
0.029730874
0.029683368
0.029688257
0.030084354
0.030084568
0.030128959
0.030196235
0.030244845
0.03027568
0.030277203
0.030272021
0.030262891
0.030243031
0.03023527
0.030215865
0.03020241
0.030182329
0.030182269
0.030175954
0.030171603
0.030159051
0.030159356
0.03014786
0.030143503
0.030129129
0.030126914
0.030113358
0.030100177
0.030081279
0.03007127
0.03005803
0.0300485
0.030040755
0.030018634
0.029996242
0.029938571
0.029870698
0.029784619
0.029684645
0.029588777
0.029581099
0.029957607
0.029968269
0.030053227
0.030143108
0.030222194
0.030282755
0.030333909
0.030356748
0.0303781
0.030388265
0.030397558
0.030412297
0.030424135
0.030442115
0.030456383
0.030469367
0.030472734
0.030486556
0.030491754
0.030502769
0.030503461
0.030515386
0.030521105
0.030527031
0.030528124
0.030546847
0.030560071
0.030577589
0.030585121
0.030603135
0.030612554
0.030615658
0.030616594
0.030588844
0.030543768
0.030485354
0.030444163
0.030442463
0.030759561
0.030763888
0.030802018
0.030852357
0.030892587
0.03091565
0.030915243
0.030912737
0.03090258
0.030886569
0.030878999
0.030863408
0.030850189
0.030832962
0.030830669
0.030825348
0.030818166
0.030807133
0.030805319
0.03079502
0.030788864
0.030775807
0.030771141
0.03075902
0.030743664
0.030727048
0.030713843
0.030699292
0.030689286
0.030677815
0.03065667
0.03063408
0.030588287
0.030533385
0.030464231
0.030383696
0.030308711
0.030297625
0.030599069
0.030611647
0.030678523
0.030748715
0.030807937
0.030857613
0.030899613
0.030920255
0.030941178
0.03095345
0.030963968
0.030978181
0.030992024
0.031007508
0.031023339
0.03103486
0.031040454
0.031052978
0.0310597
0.031069532
0.031072103
0.031082504
0.03109056
0.031095661
0.031098861
0.031114931
0.031127874
0.031141938
0.031149334
0.031163726
0.031174126
0.031176373
0.031176553
0.031158317
0.031123834
0.031080301
0.031045548
0.03104077
0.031284716
0.031290816
0.031321977
0.031358963
0.031386911
0.031401488
0.03140167
0.031399426
0.03138876
0.031376076
0.03136865
0.031356093
0.031343293
0.031328468
0.031324246
0.031319417
0.031310561
0.031301004
0.031297626
0.031288392
0.031281096
0.031269281
0.031262734
0.031251963
0.031235763
0.031221685
0.031207363
0.031193775
0.031181621
0.031168815
0.031149434
0.031129688
0.031092829
0.031049029
0.03099673
0.030935894
0.030878622
0.030867611
0.03110121
0.031111625
0.031159958
0.031212505
0.031258473
0.031296507
0.031328257
0.03134731
0.031364888
0.031378344
0.031391651
0.031404557
0.031419259
0.031431781
0.031448152
0.031458131
0.031465307
0.031476537
0.031484086
0.031492885
0.031496788
0.031505548
0.03151522
0.031519723
0.031524736
0.03153855
0.031550995
0.031562356
0.031569683
0.03158083
0.031591838
0.031593971
0.031593417
0.031582378
0.031560371
0.031529524
0.031502189
0.0314965
0.031676587
0.031682465
0.031706099
0.031731394
0.031748183
0.031756159
0.031756584
0.031753741
0.031743922
0.031733583
0.031726166
0.031715967
0.031703799
0.031691068
0.031685267
0.031680355
0.031671465
0.031662891
0.031658407
0.031650136
0.031642377
0.031631879
0.031624142
0.031614433
0.031599472
0.031587226
0.031573601
0.031560909
0.031546875
0.031533164
0.031517175
0.03149929
0.031471724
0.031439033
0.031398918
0.03135398
0.031313778
0.031305124
0.031480356
0.031488087
0.031521212
0.031559302
0.031593908
0.031621919
0.03164634
0.031662658
0.031677303
0.031690596
0.031704976
0.031717302
0.031729729
0.031741541
0.031755198
0.031764511
0.031772519
0.031782362
0.031790064
0.031797895
0.031802712
0.031811202
0.031819024
0.031824547
0.031830969
0.031842771
0.031854442
0.031863736
0.031871127
0.031880865
0.031889294
0.031893296
0.031893377
0.03188765
0.031875368
0.031855196
0.031834992
0.031829977
0.031958364
0.031962985
0.031979492
0.031995279
0.032004807
0.032008487
0.032007043
0.03200247
0.031994677
0.031985955
0.031978559
0.031970104
0.031958918
0.031948115
0.031941247
0.031935286
0.0319278
0.031919926
0.031914854
0.031907542
0.031899928
0.031890851
0.031882783
0.031873844
0.031861628
0.031850632
0.031838467
0.031826617
0.031813245
0.031800417
0.031786038
0.031771055
0.031750005
0.031726186
0.031696575
0.031664618
0.031637628
0.031630899
0.031758999
0.031765427
0.031787274
0.031813857
0.031838951
0.031859076
0.03187711
0.031890972
0.031904998
0.031917275
0.031929525
0.031940951
0.031952786
0.031962926
0.031973703
0.031982306
0.031990286
0.031998614
0.03200604
0.032012916
0.032018173
0.032025566
0.032032692
0.032038958
0.03204605
0.032055904
0.032066642
0.032074336
0.032081649
0.032089584
0.032096786
0.032101773
0.032104392
0.032102309
0.032094954
0.032082951
0.032069959
0.03206638
0.032156336
0.03215937
0.032169421
0.032178351
0.032183631
0.032184129
0.032181163
0.032175827
0.032168931
0.032161675
0.032154428
0.032147159
0.032137431
0.032128253
0.032121065
0.032114692
0.032107841
0.032100825
0.032095546
0.032089194
0.032082269
0.032074439
0.032066956
0.032058637
0.032048937
0.032039738
0.032028547
0.032017449
0.032005999
0.031994336
0.031981045
0.031968112
0.031952431
0.031935577
0.031914664
0.031892616
0.031875029
0.03186954
0.032166053
0.032171301
0.032177789
0.032184308
0.032190699
0.032197849
0.032206408
0.032215101
0.03222204
0.032229213
0.032235902
0.032242649
0.032248002
0.032251099
0.032251959
0.032248574
0.032242001
0.032234404
0.032232181
0.032296245
0.032298006
0.032303604
0.032308199
0.032309944
0.032308333
0.032304889
0.03229962
0.032293394
0.032286967
0.032280249
0.032273502
0.032265503
0.032257714
0.032250719
0.032244633
0.032238489
0.032303702
0.032310305
0.032317395
0.032324754
0.032331253
0.032337518
0.032343643
0.032349414
0.032354518
0.032358164
0.032360274
0.032359794
0.032356786
0.032352819
0.03235163
0.032400289
0.032401123
0.032403808
0.032405587
0.032405122
0.03240271
0.032398993
0.032394176
0.032388817
0.03238309
0.032377214
0.032371037
0.032364285
0.032357774
0.032430584
0.032435538
0.032440049
0.03244373
0.032446309
0.032447452
0.032446643
0.032444962
0.032444498
0.032460633
0.03241621
0.032366818
0.032310449
0.032244763
0.03216706
0.032074409
0.031963608
0.031831318
0.031674175
0.031489062
0.031272905
0.031022924
0.030737186
0.030414136
0.030052236
0.02964949
0.029205148
0.028720585
0.02819731
0.027637265
0.027046493
0.026425302
0.025772485
0.01367781
0.014033096
0.014376225
0.014710011
0.015026623
0.015328826
0.015619648
0.015899821
0.016162949
0.016412111
0.016644748
0.016858647
0.017044031
0.017176815
0.017227137
0.017128671
0.017143288
0.017108145
0.017019592
0.016841113
0.016659117
0.016579647
0.01664404
0.016731678
0.016707808
0.01662189
0.032502654
0.032459259
0.032410553
0.032354511
0.032288685
0.03221041
0.032116636
0.032004284
0.031869888
0.031710267
0.031522295
0.031302784
0.031049186
0.030760342
0.030433902
0.030068884
0.029663445
0.029215986
0.028728724
0.028202861
0.027640582
0.027050174
0.026430264
0.025780216
0.0087110548
0.0089427234
0.0091641289
0.0093767439
0.009576987
0.0097671685
0.0099495257
0.010124826
0.010285493
0.010426259
0.010554417
0.010807558
0.01136302
0.011912007
0.012337797
0.010488757
0.010330219
0.010257082
0.010149161
0.010160928
0.010096218
0.010052714
0.0098254527
0.009595667
0.0092139955
0.0089580673
0.0086816716
0.0085317945
0.0083886238
0.0086686922
0.0088625463
0.0090343034
0.0090156018
0.0089238114
0.0085188303
0.012941237
0.013166929
0.012379962
0.011743533
0.015561136
0.032577209
0.032535698
0.032488369
0.032433111
0.032367288
0.032288061
0.032192441
0.03207767
0.03193965
0.031774976
0.031580949
0.031354608
0.031094869
0.030798956
0.030463806
0.030088227
0.029672382
0.029216881
0.028722363
0.028190175
0.027621973
0.027025254
0.026396564
0.025735169
0.0021001954
0.002180084
0.0022592385
0.002338229
0.0024164124
0.0024942151
0.0025717986
0.0026487794
0.0027174364
0.0027600168
0.0026916836
0.0013225744
0.00058821323
0.00043514996
0.0013623288
0.0020252861
0.0020106203
0.0020744305
0.0021593456
0.0022494345
0.0023391589
0.0024283562
0.0025100276
0.0025764407
0.0026309036
0.003043291
0.0031481816
0.0035164374
0.003580303
0.0037207485
0.0037514889
0.0038763707
0.0039002478
0.0039972493
0.0040089392
0.0040544672
0.0040597499
0.0041103688
0.004116043
0.0041481498
0.0041576379
0.004226395
0.0042270686
0.0042477647
0.0042411905
0.0042613113
0.0042535618
0.0042600298
0.0042575442
0.0043107773
0.004317288
0.0043554226
0.0043542879
0.0043859221
0.0043820231
0.0043956688
0.0043834924
0.0043867899
0.0043755344
0.0043856082
0.0043738843
0.0043789587
0.004358181
0.00432269
0.0042930883
0.0042619986
0.0042340409
0.0042021127
0.0041735422
0.004136019
0.0041107855
0.0040850685
0.0040644192
0.0040822459
0.0040743033
0.0040844535
0.0040848158
0.0041491074
0.0041599375
0.0042217058
0.0042409878
0.0043392275
0.0043579848
0.0044193248
0.0044240598
0.0044625703
0.0044593927
0.0044824102
0.004482479
0.0045312073
0.0045470347
0.0046199068
0.0046398733
0.0047477879
0.00505097
0.0051752769
0.0053534362
0.0054135778
0.0055251365
0.0055567609
0.0056225223
0.0056583504
0.0057437549
0.005787521
0.0058839124
0.0059468565
0.0060963804
0.0061745502
0.0063153783
0.0063841286
0.0064786529
0.0065136175
0.0064907895
0.0064540127
0.0062770747
0.0061433564
0.0057285602
0.0054638995
0.0046733353
0.0042337162
0.0030110709
0.0025694588
0.0018476975
0.001534248
0.0014559709
0.0017232989
0.002461127
0.0029210114
0.0040670806
0.0045172358
0.005243778
0.0055202464
0.0059027364
0.0060394692
0.0062055394
0.0062418662
0.006270193
0.006234801
0.0061472681
0.0060743787
0.0059483936
0.0058661047
0.0057311885
0.0056658785
0.0055782008
0.0055299605
0.0054493985
0.0054084341
0.0053456322
0.0053171611
0.0052119546
0.005148891
0.0049679954
0.004769311
0.0046877218
0.004557027
0.0045278205
0.0044620949
0.0044439618
0.0043985778
0.0043958212
0.0043751397
0.0043774846
0.0043426029
0.0043357025
0.0042803758
0.0042561086
0.0041647442
0.0041405097
0.004090215
0.0040752219
0.0040168502
0.0040133671
0.0040092968
0.0040106672
0.0039988139
0.0040180925
0.0040410093
0.0040628665
0.0041011166
0.0041292539
0.0041536567
0.0041817934
0.0042095309
0.004234973
0.0042711203
0.0042882336
0.0042831258
0.0042906717
0.0042863214
0.0042947579
0.0042914161
0.004299849
0.0042929956
0.004294506
0.0042648802
0.0042624646
0.0042339003
0.0042241686
0.0041742277
0.0041730143
0.0041727583
0.0041786106
0.0041600918
0.004163101
0.0041496305
0.0041453733
0.0040802918
0.0040656875
0.0040389592
0.0040288336
0.0039838948
0.0039746109
0.0039373042
0.0039217278
0.0038321914
0.0038093576
0.0036939586
0.0036615934
0.0035194534
0.0034514845
0.0031061422
0.0029919025
0.0029193621
0.0028321775
0.0027346215
0.0026361246
0.0025366467
0.0024435382
0.0023460293
0.0022420376
0.0016953935
0.0023290743
0.0024606757
0.0025695026
0.002662587
0.0027611682
0.0028656452
0.0029593978
0.0030426061
0.003366419
0.0032668899
0.0031591406
0.003051823
0.0029451482
0.0028459085
0.0026877627
0.002486805
0.0018909704
0.002552001
0.0027232734
0.0029126425
0.003013308
0.0031212944
0.0032366281
0.00334236
0.0034396795
0.0035803845
0.003482685
0.0033788486
0.0032757105
0.0031723025
0.0030746172
0.0028372093
0.002619004
0.0019812565
0.0026624324
0.0028082031
0.0030887679
0.0031872356
0.0032954197
0.0034115922
0.0035187613
0.0036163252
0.0037210336
0.003617986
0.0035075553
0.0033997479
0.0032937522
0.0031959619
0.0028388899
0.0027728862
0.0020261319
0.0027750193
0.0028074292
0.0031888295
0.0032926324
0.0034053962
0.0035275176
0.0036409821
0.0037458245
0.0038272887
0.0037193027
0.0036068298
0.0034959298
0.0033873487
0.0032869045
0.0029265004
0.0028096258
0.0020567368
0.0028496289
0.0028523544
0.0032683
0.0033753807
0.0034920779
0.0036181797
0.0037362636
0.0038460365
0.0038770518
0.0037674791
0.0036505731
0.0035379284
0.0034280651
0.0033271311
0.0028844582
0.0028650321
0.0021115053
0.0028172302
0.0028653429
0.0033048101
0.0034118713
0.0035284068
0.0036552046
0.003776678
0.0038891024
0.0039284972
0.003816557
0.0036966156
0.0035796333
0.0034650995
0.0033615129
0.0030625769
0.0028819899
0.0021826523
0.0029199002
0.0032582583
0.0033415107
0.0034521308
0.0035734144
0.0037043981
0.0038282159
0.0039428333
0.0039650975
0.0038519004
0.003731344
0.0036158229
0.0035032591
0.0034006781
0.0033243322
0.0030704331
0.0023232699
0.0032572512
0.0033043118
0.0033867116
0.0034947584
0.0036132535
0.0037416247
0.0038673989
0.0039845735
0.0040457019
0.0039315336
0.0038091187
0.0036891339
0.0035716666
0.0034658549
0.0033873503
0.0033888417
0.0025045036
0.0033846841
0.0033571335
0.003440934
0.0035538424
0.0036771451
0.0038101297
0.0039366402
0.0040528199
0.0040604641
0.0039476774
0.0038258858
0.0037075275
0.0035924775
0.0034864458
0.0034086383
0.0034321794
0.0027436966
0.0033892551
0.0033582316
0.0034428113
0.0035547524
0.0036758219
0.0038076314
0.0039385429
0.0040601671
0.0040779121
0.0039617032
0.0038355653
0.0037134259
0.0035944345
0.0034855797
0.0034052608
0.0034303245
0.0030119884
0.0033909391
0.0033596251
0.0034457371
0.0035612855
0.0036872334
0.003823815
0.00395436
0.0040732302
0.0040679445
0.0039540647
0.0038301967
0.0037091388
0.0035919448
0.0034849681
0.00340571
0.0034323973
0.0033719401
0.0033946372
0.0033600234
0.0034460115
0.0035591231
0.0036820124
0.0038165782
0.0039495644
0.004072611
0.004119681
0.0040003254
0.0038708391
0.0037450651
0.0036233803
0.0035122764
0.0034302024
0.0034571859
0.0036399916
0.0034303226
0.0033979689
0.0034859504
0.003604886
0.0037344213
0.0038742987
0.0040083692
0.0041309351
0.0041512026
0.004030562
0.0039009215
0.0037752554
0.0036514921
0.0035371847
0.0034527
0.0034778658
0.0036600581
0.003442591
0.0034092919
0.0034954955
0.0036137069
0.0037456326
0.0038874617
0.0040261653
0.0041562491
0.0041837207
0.0040589122
0.0039254507
0.0037946679
0.0036675159
0.0035525962
0.003467836
0.0034934172
0.0036778819
0.0034569292
0.0034249228
0.0035160919
0.0036387245
0.0037728727
0.0039179348
0.0040565312
0.0041845218
0.004186137
0.004062651
0.0039305267
0.0038027796
0.0036773545
0.0035611658
0.0034750397
0.0035012804
0.0036888922
0.003461437
0.0034276858
0.0035144596
0.0036339092
0.0037683965
0.0039093737
0.0040476082
0.0041805936
0.0041857098
0.004060538
0.0039259225
0.003797499
0.0036711822
0.0035544458
0.0034681611
0.0034938754
0.0036843052
0.0034544132
0.0034202504
0.0035074729
0.0036282653
0.0037629725
0.0039076995
0.004051526
0.0041794816
0.00417651
0.0040508854
0.0039164378
0.0037874991
0.0036627201
0.0035467636
0.0034615741
0.0034897906
0.0036858924
0.0034530169
0.0034175927
0.0035040209
0.0036240344
0.0037575232
0.003901294
0.0040428456
0.0041738825
0.0041792002
0.0040530048
0.0039177143
0.0037902096
0.0036652392
0.0035485926
0.003463065
0.0034906782
0.0036867678
0.0034494038
0.0034129368
0.003499093
0.0036191431
0.0037525972
0.0038956277
0.0040388558
0.0041665953
0.0041274762
0.0040051125
0.003874843
0.0037504458
0.0036286696
0.003515992
0.0034339971
0.0034667591
0.0036643611
0.0034162375
0.0033752376
0.0034570971
0.0035729144
0.003702812
0.003841885
0.0039786458
0.0041055684
0.0040793194
0.0039611866
0.0038342413
0.0037125827
0.0035927099
0.0034815025
0.0034039
0.003441655
0.0036393665
0.0033801942
0.0033356457
0.0034171932
0.0035328689
0.0036597054
0.0037958593
0.003929693
0.0040526676
0.0040325155
0.0039179618
0.003793941
0.0036752731
0.0035586308
0.0034506211
0.003374062
0.0034165948
0.0036136785
0.003353796
0.0033120117
0.0033921238
0.0035063952
0.0036287904
0.0037601395
0.0038923579
0.0040085687
0.0039671397
0.0038551151
0.0037331263
0.0036142812
0.0035001754
0.0033967245
0.0033247037
0.0033676682
0.0035716684
0.0033065244
0.0032562305
0.0033334361
0.0034443247
0.0035668495
0.0036997959
0.0038290265
0.0039472526
0.003926291
0.0038160461
0.0036961611
0.0035804447
0.0034677142
0.003364631
0.0032916568
0.0033384257
0.0035354002
0.0032730937
0.0032272816
0.0033047247
0.0034137825
0.003535313
0.0036649968
0.0037916685
0.0039082966
0.0039164255
0.0038052309
0.0036851128
0.0035707759
0.003457224
0.0033556699
0.0032839471
0.0033308085
0.0035358767
0.003282584
0.0032373624
0.0033145364
0.0034244071
0.0035470931
0.0036777608
0.0038071697
0.0039205928
0.0039174135
0.0038050083
0.0036851719
0.0035702062
0.00345656
0.0033548633
0.003284363
0.0033322104
0.0035398051
0.003291192
0.0032446151
0.003321133
0.0034327436
0.0035526327
0.0036811108
0.0038093176
0.0039261772
0.0039795165
0.0038641335
0.0037388065
0.0036180322
0.003501974
0.0033960023
0.0033231998
0.0033702263
0.0035859032
0.0033387819
0.0032937051
0.0033737119
0.0034877955
0.0036133737
0.0037481333
0.0038819923
0.0039985611
0.0040369845
0.0039185257
0.0037909823
0.0036703261
0.0035522912
0.0034453398
0.003370697
0.0034174099
0.0036427334
0.0033963078
0.003352165
0.0034331588
0.0035490929
0.0036744396
0.003809129
0.0039430627
0.0040662729
0.00415092
0.0040277208
0.0038958648
0.0037679346
0.0036452667
0.0035340551
0.0034547844
0.0034965542
0.0037263246
0.0034835943
0.0034421607
0.0035269806
0.0036456728
0.0037766473
0.0039177045
0.0040580098
0.0041817535
0.0042287391
0.0041044331
0.0039716707
0.0038444486
0.0037205491
0.0036071186
0.0035251039
0.0035654009
0.0037812686
0.003527393
0.0034889972
0.0035768085
0.0036982826
0.0038315035
0.0039743212
0.0041154681
0.004241534
0.0042693018
0.0041437449
0.0040082328
0.0038786135
0.0037517659
0.0036346772
0.003550163
0.0035894759
0.003807838
0.0035473526
0.0035033828
0.0035917128
0.0037137884
0.0038485511
0.0039934276
0.0041348399
0.0042666886
0.0042863427
0.004160096
0.0040242317
0.0038946708
0.0037671279
0.0036491941
0.0035632713
0.0035977803
0.0038213541
0.0035680303
0.0035291821
0.0036178028
0.0037402801
0.0038753726
0.0040193865
0.004160452
0.0042916718
0.0043348334
0.0042121448
0.0040785037
0.0039488163
0.0038204152
0.0037019585
0.0036160873
0.0036540543
0.0038852409
0.0036302914
0.003588685
0.0036773932
0.0038006601
0.0039364625
0.0040815854
0.0042235325
0.0043552091
0.0044152209
0.0042867907
0.0041489676
0.0040161005
0.003885773
0.0037657059
0.0036788538
0.0037203605
0.0039622431
0.0037061783
0.0036637214
0.0037542471
0.0038796622
0.0040174685
0.0041668737
0.0043093742
0.0044422444
0.0045655759
0.0044268679
0.004280231
0.004140557
0.0040055543
0.0038828191
0.0037939706
0.003831095
0.004092359
0.003847632
0.0038050015
0.0039031337
0.0040356936
0.0041807257
0.0043343523
0.0045003488
0.0046598907
0.0048218522
0.0049844177
0.0048085165
0.0046371442
0.0044679016
0.0043089049
0.0041564613
0.0040171788
0.0039142758
0.0039431082
0.0041889683
0.0039445408
0.0039199805
0.0040292288
0.0041758521
0.004337861
0.0045034738
0.0046840185
0.0048634091
0.0050482219
0.0051480175
0.0049653741
0.0047857732
0.0046075419
0.0044430521
0.0042859769
0.0041430332
0.0040359329
0.0040558193
0.0042942259
0.0040391396
0.0040094143
0.0041225104
0.004269989
0.0044321384
0.0046036201
0.0047958347
0.0049849442
0.0051755341
0.0052364723
0.0050501375
0.004865306
0.004683226
0.0045121801
0.0043479516
0.0042007728
0.0040898577
0.0041076153
0.0043533471
0.0041048157
0.0040807603
0.0041968418
0.0043534051
0.0045247337
0.0047015373
0.0048987183
0.0050895658
0.0052789275
0.0053576163
0.0051723753
0.0049905662
0.0048085442
0.0046357965
0.0044684711
0.0043147361
0.0041993669
0.0042141184
0.0044723053
0.0042226829
0.0041956072
0.0043139314
0.0044701295
0.0046410802
0.004821152
0.0050178882
0.0052106928
0.0054066733
0.0054889547
0.0052971058
0.0051115338
0.0049262535
0.0047516275
0.0045849992
0.0044320563
0.0043148442
0.004330151
0.0045871844
0.0043271477
0.0043059957
0.0044315669
0.0045939218
0.0047685949
0.0049505161
0.0051524405
0.0053520905
0.0055548059
0.0056797521
0.0054782779
0.0052832668
0.0050920403
0.0049113767
0.0047288788
0.0045414045
0.0044043949
0.0043554795
0.0046429951
0.0039519956
0.0038957121
0.0040949169
0.0043344363
0.0043836927
0.0045097608
0.004517772
0.0045923477
0.0045278463
0.0045394349
0.0043879397
0.0042956581
0.0040231194
0.003810405
0.0033698973
0.0029943106
0.0023457401
0.0018968869
0.0014468068
0.0011309465
0.00098812755
0.00093515977
0.0010648315
0.0014116841