/*--------------------------------*- C++ -*----------------------------------*\
| =========                 |                                                 |
| \\      /  F ield         | OpenFOAM: The Open Source CFD Toolbox           |
|  \\    /   O peration     | Version:  v2012                                 |
|   \\  /    A nd           | Website:  www.openfoam.com                      |
|    \\/     M anipulation  |                                                 |
\*---------------------------------------------------------------------------*/
FoamFile
{
    version     2.0;
    format      ascii;
    class       volVectorField;
    location    "100";
    object      U;
}
// * * * * * * * * * * * * * * * * * * * * * * * * * * * * * * * * * * * * * //

dimensions      [0 1 -1 0 0 0 0];


internalField   nonuniform List<vector> 
24787
(
(5.6647161 -0.33876239 0.003381204)
(5.6408499 -0.35652219 0.00099669907)
(5.6263594 -0.37234971 0.0010310794)
(5.6150639 -0.39072606 0.0018044054)
(5.6043262 -0.39787883 0.001442603)
(5.6012163 -0.40125194 0.00078103425)
(5.5973396 -0.40713865 0.00057877781)
(5.5880536 -0.42041915 0.0020053488)
(5.5738151 -0.42565842 0.0021642535)
(5.569786 -0.42756453 0.0012480571)
(5.5642621 -0.43376334 0.00070418443)
(5.5530677 -0.44252995 0.001819859)
(5.5393625 -0.44820054 0.0014389763)
(5.5346716 -0.45125987 0.00029168551)
(5.525906 -0.46011131 0.00083418029)
(5.5117682 -0.46711436 0.0014444113)
(5.4998421 -0.47225991 0.00056048591)
(5.4943553 -0.47589417 -0.0006240079)
(5.483758 -0.48565549 0.001031498)
(5.4671806 -0.49167228 0.001552338)
(5.4588063 -0.49364838 0.0013307187)
(5.4490294 -0.49637435 0.0020941046)
(5.4316296 -0.50186211 0.0029618345)
(5.4161218 -0.50636163 0.0022886991)
(5.4001856 -0.51224408 7.9137475e-05)
(5.3862454 -0.52786553 0.0018187619)
(5.369703 -0.53624928 0.00012756319)
(5.3583677 -0.53852236 -6.2303442e-05)
(5.3526888 -0.53966367 -0.00048693944)
(5.3459097 -0.54221943 -0.001216325)
(5.3338924 -0.55332202 0.00045167772)
(5.3161378 -0.55660415 0.0011387388)
(5.3044477 -0.55739135 0.0003615017)
(5.2961701 -0.55830407 -0.00051560098)
(5.2846077 -0.56284006 -0.00026756426)
(5.2686279 -0.56728194 0.00045058019)
(5.2516318 -0.5699681 -7.0710404e-05)
(5.2405478 -0.57186949 -0.0011639457)
(5.2254151 -0.57771772 -0.00053572188)
(5.207485 -0.58109525 7.9366229e-05)
(5.1894424 -0.58309209 0.00082713003)
(5.1804664 -0.58303078 -0.00039796687)
(5.1639229 -0.58475409 0.0014470742)
(5.1393531 -0.58227568 0.0019458913)
(5.1120248 -0.58531752 -0.0010816189)
(5.0926808 -0.59422033 -0.00020374833)
(5.0726039 -0.60639526 0.00052659392)
(5.0487985 -0.60990552 -0.00042473273)
(5.0318842 -0.60769177 -0.0016000155)
(5.0134408 -0.60810147 -0.0027022941)
(4.9935565 -0.61615443 -0.00086475458)
(4.9695107 -0.61905814 0.00044315601)
(4.9423786 -0.61905071 -0.00081350837)
(4.9186124 -0.61771672 -0.0015635189)
(4.8913776 -0.61908125 -0.00043072072)
(4.8572371 -0.61965255 -0.0010384882)
(4.8191954 -0.61896274 -0.0024762736)
(4.7794863 -0.61559243 -0.001939887)
(4.7373141 -0.61597159 0.0044116473)
(4.675783 -0.60729529 0.0047906605)
(4.6520929 -0.58290052 0.016301189)
(4.4212405 -0.5883634 0.012789228)
(4.2601225 -0.18067941 -0.027159915)
(4.557584 -0.04387857 -0.0074297793)
(4.7552692 -0.020430536 -0.025498593)
(4.7868881 -0.012109167 -0.021005789)
(4.8277623 -0.0011704087 -0.01575702)
(4.8715059 0.0026297225 -0.012278171)
(4.9004887 0.0034567978 -0.010421857)
(4.9205892 0.0040586019 -0.0093543875)
(4.9376268 0.0041636974 -0.0084957904)
(4.9513996 0.0039432788 -0.0078241535)
(4.9620281 0.0035659467 -0.0072956287)
(4.9709049 0.0031516126 -0.0068793115)
(4.9781572 0.0027951161 -0.0065535944)
(4.9959879 -0.0001981903 0.00431481)
(4.9994199 -0.00032450341 0.0052334492)
(5.0034275 -0.0004654999 0.0063128634)
(5.0081363 -0.00062074758 0.0075654179)
(5.0136782 -0.00078775007 0.0089918391)
(5.0202005 -0.00096153233 0.010577211)
(5.0278379 -0.0011350793 0.012278641)
(5.0366914 -0.0012988053 0.014018513)
(5.0467868 -0.0014414051 0.015688657)
(5.058064 -0.001552168 0.01717257)
(5.0703734 -0.0016216342 0.018364527)
(5.0834928 -0.0016435961 0.01918498)
(5.0971553 -0.0016153689 0.019585497)
(5.1110974 -0.0015370047 0.019547243)
(5.1249889 -0.0014119733 0.019077716)
(5.6572952 -0.33780002 0.0073946354)
(5.6364648 -0.35494487 0.0084953039)
(5.6353097 -0.35334089 0.0088122845)
(5.6344003 -0.35148554 0.0096505197)
(5.6333727 -0.34883607 0.012114798)
(5.6314126 -0.34741587 0.013057848)
(5.6294958 -0.34533325 0.015800446)
(5.6279451 -0.34326203 0.018009139)
(5.6269226 -0.34051801 0.020615555)
(5.625247 -0.3374012 0.02165418)
(5.6217317 -0.33691867 0.024735057)
(5.6279617 -0.33496468 0.027990898)
(5.6375546 -0.32511456 0.025429485)
(5.6415572 -0.31638919 0.027445148)
(5.6399635 -0.31342254 0.030227024)
(5.6388665 -0.31064969 0.033081615)
(5.6395665 -0.30723907 0.036943651)
(5.6407165 -0.30413897 0.038989795)
(5.6422031 -0.30115462 0.042068226)
(5.6427254 -0.29898687 0.044778305)
(5.6441279 -0.29624022 0.048624481)
(5.6450782 -0.29346061 0.050679269)
(5.6465125 -0.29056168 0.053598208)
(5.6358834 -0.31282274 0.052310153)
(5.6348675 -0.31518247 0.049482908)
(5.6335402 -0.31727306 0.047287508)
(5.6320882 -0.32026833 0.044271399)
(5.6309248 -0.32365023 0.041351295)
(5.6299785 -0.32595218 0.038037888)
(5.629121 -0.32757165 0.035580748)
(5.6289035 -0.33062147 0.032727749)
(5.6297229 -0.33430476 0.030632871)
(5.6332585 -0.33601134 0.026866897)
(5.6212127 -0.3463052 0.028391791)
(5.6107422 -0.35664172 0.02981252)
(5.6133148 -0.35428819 0.027503312)
(5.6146031 -0.35759669 0.022976596)
(5.6154405 -0.36045118 0.019997612)
(5.6165723 -0.36189237 0.017513719)
(5.6180353 -0.36355996 0.01570062)
(5.619535 -0.36662352 0.013513927)
(5.6212706 -0.36901074 0.011478662)
(5.6226897 -0.37046905 0.0084816547)
(5.6235878 -0.37076943 0.0072390174)
(5.6242549 -0.37168167 0.0073762257)
(5.621524 -0.37739956 0.0035120987)
(5.6168775 -0.38652238 0.0036495468)
(5.6083137 -0.39302529 0.0045059341)
(5.6027927 -0.39853349 0.0034047188)
(5.5963641 -0.40528884 0.0035561699)
(5.5946462 -0.40131284 0.0058147845)
(5.5933709 -0.3995657 0.0069260517)
(5.5926297 -0.39705411 0.0079583497)
(5.5955625 -0.39493881 0.0097492799)
(5.596527 -0.38815603 0.010543309)
(5.5963879 -0.38589574 0.012473873)
(5.5954804 -0.38356355 0.014793697)
(5.5940636 -0.38185577 0.017116249)
(5.5927851 -0.37963746 0.019508779)
(5.5923299 -0.37647614 0.022129123)
(5.5921842 -0.37421013 0.025400785)
(5.5924699 -0.37353686 0.027357664)
(5.5920752 -0.37187839 0.027500655)
(5.5975342 -0.368544 0.029542704)
(5.5998441 -0.36223241 0.031002196)
(5.6001183 -0.36009853 0.033208966)
(5.601264 -0.35702352 0.036006789)
(5.6025136 -0.35415398 0.038256464)
(5.6033226 -0.35213346 0.040661323)
(5.6042445 -0.35027215 0.043642701)
(5.6054951 -0.34711664 0.045829086)
(5.6102323 -0.3438198 0.047933732)
(5.6127317 -0.33706827 0.050073092)
(5.6228566 -0.32653156 0.051310102)
(5.620085 -0.32974415 0.048118637)
(5.6200235 -0.33094958 0.045762997)
(5.6191316 -0.33284152 0.042771745)
(5.6177374 -0.33547253 0.040411344)
(5.6162782 -0.33844801 0.037840618)
(5.615461 -0.34128407 0.035071443)
(5.6161029 -0.34390546 0.032072509)
(5.6177844 -0.34618518 0.030629836)
(5.6078717 -0.35691016 0.029971958)
(5.6021906 -0.3647103 0.028833096)
(5.602649 -0.36559486 0.028776032)
(5.6020722 -0.36597182 0.026428418)
(5.6021747 -0.36777956 0.022344009)
(5.6035345 -0.37010704 0.019713203)
(5.6051393 -0.37201573 0.017398133)
(5.6063501 -0.37398907 0.015331976)
(5.6072758 -0.37645666 0.013219934)
(5.6074216 -0.37951419 0.011264715)
(5.6060783 -0.38247673 0.0081587199)
(5.6091011 -0.3824235 0.0073947839)
(5.6103055 -0.38481471 0.0064438697)
(5.6029727 -0.39395461 0.0057463417)
(5.6023283 -0.39154719 0.0072580016)
(5.6007436 -0.39068275 0.0076163511)
(5.6026681 -0.39140226 0.010165222)
(5.6039182 -0.39292746 0.0075295982)
(5.6060734 -0.39432746 0.0070234334)
(5.6081815 -0.39351424 0.004948496)
(5.6080372 -0.39583035 0.0025609328)
(5.6184018 -0.38894441 0.0029489994)
(5.6246611 -0.38707769 0.0015654641)
(5.6276834 -0.37666547 0.0010354424)
(5.6349565 -0.36360961 0.00053448787)
(5.6316279 -0.37241444 0.001208918)
(5.6290898 -0.35771431 0.0022330247)
(5.6456653 -0.34872847 0.0021674136)
(5.3216189 -0.0064512435 0.0015021937)
(5.3096561 -0.0073447582 0.001503975)
(5.2957983 -0.0080906096 0.0014940142)
(5.2803654 -0.008684471 0.0014746171)
(5.2636868 -0.0091234943 0.0014473618)
(5.2460998 -0.0094072435 0.0014136758)
(5.2279436 -0.0095370337 0.0013749323)
(5.2095656 -0.0095181067 0.001332058)
(5.1912602 -0.0093568727 0.0012862531)
(5.1733893 -0.0090641814 0.0012385156)
(5.1561967 -0.0086564019 0.0011894613)
(5.1399392 -0.0081535787 0.001140433)
(5.1248107 -0.0075787485 0.0010919003)
(5.1109493 -0.0069567257 0.0010441305)
(5.0984373 -0.0063125117 0.00099749318)
(5.0872997 -0.0056685603 0.00095222385)
(5.077516 -0.0050435822 0.00090857083)
(5.0690254 -0.0044517848 0.00086662744)
(5.0617426 -0.0039031433 0.00082654143)
(5.0555619 -0.0034034066 0.00078828117)
(5.0503714 -0.0029550964 0.00075190934)
(5.0460546 -0.0025579676 0.00071726987)
(5.0425009 -0.0022101363 0.00068440327)
(5.0396025 -0.0019080999 0.00065321294)
(5.0403051 -0.0058006126 0.00063656752)
(5.0431068 -0.0067220355 0.00066566345)
(5.0465597 -0.0077847175 0.00069645575)
(5.0507744 -0.0089995628 0.000729143)
(5.0558652 -0.010372745 0.00076383103)
(5.0619541 -0.011905485 0.00080080962)
(5.0691594 -0.013590406 0.00084024101)
(5.0775945 -0.015410108 0.00088221019)
(5.0873535 -0.017334063 0.00092674688)
(5.0985049 -0.01931844 0.00097393797)
(5.1110767 -0.021305384 0.0010236606)
(5.125049 -0.023225386 0.0010754536)
(5.14034 -0.025001042 0.0011286551)
(5.156808 -0.026554952 0.0011832071)
(5.1742527 -0.027816215 0.0012389691)
(5.1924108 -0.028721752 0.0012942849)
(5.2110271 -0.029221642 0.0013478034)
(5.2297336 -0.029283344 0.0013981617)
(5.2482244 -0.028887854 0.0014443899)
(5.2661484 -0.028020282 0.0014855654)
(5.28316 -0.026677286 0.0015202247)
(5.298917 -0.024861171 0.0015468345)
(5.3130854 -0.022581515 0.0015638231)
(5.3253422 -0.019852221 0.0015688937)
(5.3321166 -0.034512078 0.0017037214)
(5.3192977 -0.039199464 0.001679049)
(5.3045401 -0.043108768 0.0016425535)
(5.2881734 -0.04621676 0.0015969601)
(5.270539 -0.048508886 0.001543509)
(5.2519874 -0.049981804 0.0014838369)
(5.2328761 -0.050640427 0.0014195405)
(5.2135627 -0.05050713 0.0013513347)
(5.1943754 -0.049611223 0.0012788525)
(5.1756944 -0.048012267 0.0012041246)
(5.1577983 -0.045793956 0.0011314114)
(5.1409621 -0.04306307 0.0010647388)
(5.1253967 -0.039945971 0.0010028049)
(5.1112499 -0.036581503 0.00094540227)
(5.0985997 -0.033108336 0.00089279613)
(5.0874544 -0.029649678 0.00084499753)
(5.0777701 -0.026306822 0.00080180492)
(5.0694613 -0.023155506 0.00076273184)
(5.0624169 -0.020247198 0.00072731903)
(5.056509 -0.017610208 0.00069507408)
(5.0516068 -0.0152552 0.00066549357)
(5.0475796 -0.013178171 0.00063809588)
(5.0443064 -0.01136656 0.00061252884)
(5.0416729 -0.0098001958 0.00058854818)
(5.0436901 -0.013819784 0.00054420477)
(5.046052 -0.01604525 0.00056189144)
(5.0490302 -0.018629426 0.00058081167)
(5.0527434 -0.021604255 0.00060132931)
(5.0573229 -0.024992871 0.00062398953)
(5.0629129 -0.028805915 0.00064956321)
(5.069664 -0.033033745 0.00067896665)
(5.0777287 -0.037639732 0.00071330464)
(5.0872469 -0.04255227 0.00075377432)
(5.0983346 -0.047661941 0.00080142445)
(5.111066 -0.052818624 0.00085705025)
(5.1254565 -0.057835131 0.00092114038)
(5.1414363 -0.062496943 0.00099293498)
(5.1588493 -0.06659035 0.0010718034)
(5.1774599 -0.069923011 0.0011577573)
(5.1969656 -0.072337564 0.0012512755)
(5.2170636 -0.073717244 0.0013499859)
(5.2373516 -0.07397781 0.0014404612)
(5.2574588 -0.073078669 0.0015279743)
(5.2770204 -0.07099245 0.0016130337)
(5.2956633 -0.067713531 0.0016929908)
(5.3130258 -0.063248767 0.0017659222)
(5.3287537 -0.057617823 0.001829543)
(5.342506 -0.050852487 0.0018811695)
(5.3568482 -0.069169412 0.0020399225)
(5.3417269 -0.078104475 0.0019648529)
(5.3245848 -0.085523763 0.0018787063)
(5.3057774 -0.091389495 0.0017844362)
(5.2856719 -0.095675661 0.0016843603)
(5.2646449 -0.098368427 0.0015793208)
(5.243092 -0.09946898 0.0014737368)
(5.2213918 -0.099004255 0.0013660307)
(5.1999703 -0.097024561 0.0012510612)
(5.1792553 -0.093628416 0.0011461194)
(5.1596 -0.088969601 0.0010498547)
(5.1413548 -0.083265977 0.00096174753)
(5.1247908 -0.076787881 0.00088274011)
(5.1100792 -0.069844566 0.00081339034)
(5.0972764 -0.062753114 0.00075522612)
(5.0863248 -0.055778821 0.00070778262)
(5.0770999 -0.049125742 0.00066967393)
(5.0694367 -0.042936855 0.00063905418)
(5.0631507 -0.03730023 0.00061417278)
(5.0580522 -0.032254335 0.00059345503)
(5.0539617 -0.027800749 0.00057559743)
(5.0507163 -0.023916079 0.00055929336)
(5.0481721 -0.020560871 0.00054401293)
(5.0462042 -0.017686932 0.00052950443)
(5.0489876 -0.021174131 0.00055286923)
(5.0504308 -0.02465435 0.00056831287)
(5.0523895 -0.028745091 0.00058457276)
(5.0549952 -0.033517199 0.00060202401)
(5.0584061 -0.039034321 0.00062126499)
(5.062808 -0.045342239 0.00064295638)
(5.0684174 -0.052459378 0.00066844855)
(5.0754751 -0.060355841 0.00069965134)
(5.0842296 -0.068934731 0.00073838965)
(5.0949176 -0.078023602 0.00078642091)
(5.1077429 -0.087360509 0.00084501088)
(5.1228421 -0.096583734 0.00091575794)
(5.1401801 -0.10522956 0.00099742118)
(5.1595525 -0.11285798 0.0010888687)
(5.1806286 -0.1191035 0.0011892477)
(5.2029886 -0.12368493 0.0012991815)
(5.2262005 -0.12641123 0.0014198119)
(5.2497916 -0.12717563 0.0015340481)
(5.2732746 -0.12593222 0.0016470844)
(5.2962473 -0.12266568 0.0017612111)
(5.3182896 -0.11738739 0.0018716723)
(5.3390109 -0.1101205 0.0019777551)
(5.3580309 -0.10089671 0.0020776136)
(5.3749786 -0.089756549 0.0021680677)
(5.3962508 -0.11294098 0.002308582)
(5.3770164 -0.12628709 0.0022037013)
(5.3556631 -0.13730485 0.0020920132)
(5.3325738 -0.14595369 0.0019763546)
(5.3081359 -0.15219573 0.0018583042)
(5.2827478 -0.155992 0.0017408322)
(5.2568503 -0.15731047 0.0016258076)
(5.2308791 -0.15613793 0.0015115687)
(5.2053791 -0.15249979 0.0013908253)
(5.1809009 -0.14649574 0.0012781154)
(5.1579853 -0.13834035 0.0011767876)
(5.1371572 -0.12838492 0.0010855632)
(5.1188493 -0.11711048 0.0010035435)
(5.10333 -0.10514254 0.00093206305)
(5.0906022 -0.093169064 0.00087305812)
(5.0803916 -0.081671912 0.00082271081)
(5.0723666 -0.070966936 0.00077988116)
(5.0661879 -0.061246364 0.00074343398)
(5.0615223 -0.052602924 0.00071210063)
(5.0580621 -0.045039785 0.00068442703)
(5.0555469 -0.038500485 0.00065942039)
(5.0537667 -0.032903304 0.0006365909)
(5.0525508 -0.028149953 0.00061543975)
(5.0517643 -0.02414013 0.00059549788)
(5.0542702 -0.026368162 0.00065658336)
(5.0542691 -0.030807471 0.00068227818)
(5.0545778 -0.036121991 0.00071000532)
(5.0553294 -0.042450228 0.00074037718)
(5.0567004 -0.04993586 0.00077337527)
(5.0589213 -0.058713966 0.00080910597)
(5.0622983 -0.068901725 0.00084797846)
(5.0672223 -0.08055016 0.00089107311)
(5.0741369 -0.093592514 0.00093893603)
(5.0835208 -0.10784388 0.00099208429)
(5.0959005 -0.12294921 0.0010510048)
(5.1118011 -0.13828838 0.0011228486)
(5.1312793 -0.15280112 0.001204449)
(5.153937 -0.16557902 0.0012954667)
(5.1791733 -0.17600957 0.0014007798)
(5.2062972 -0.18368082 0.001515834)
(5.2346121 -0.18838319 0.0016336663)
(5.2634612 -0.19004916 0.0017519563)
(5.2922531 -0.18870634 0.0018727792)
(5.3205073 -0.18442148 0.0019964119)
(5.3477746 -0.17726105 0.0021232656)
(5.3736596 -0.16728895 0.002252938)
(5.39778 -0.15455394 0.0023817519)
(5.4197552 -0.13908658 0.0025060081)
(5.4443463 -0.16879996 0.0027983066)
(5.419197 -0.18633672 0.0026367551)
(5.3919321 -0.20072845 0.0024769751)
(5.3628979 -0.2119665 0.0023216268)
(5.3324395 -0.21999924 0.0021734575)
(5.3009273 -0.22473145 0.0020324531)
(5.2687949 -0.22604364 0.0018979382)
(5.2365698 -0.22379882 0.0017694861)
(5.2048694 -0.21786709 0.0016465962)
(5.1745003 -0.20823931 0.0015330114)
(5.146352 -0.19507977 0.0014336921)
(5.1213814 -0.17883671 0.0013500573)
(5.100488 -0.16023064 0.0012746086)
(5.0843449 -0.14063766 0.001208133)
(5.0727677 -0.12176511 0.0011531308)
(5.0647661 -0.10437285 0.0010956896)
(5.0595118 -0.08879406 0.0010395144)
(5.0563473 -0.075164764 0.00098548861)
(5.0546968 -0.063489568 0.00093401167)
(5.0540735 -0.053614236 0.00088508723)
(5.0541293 -0.045326596 0.00083930389)
(5.054625 -0.038420194 0.00079719006)
(5.0553907 -0.032691586 0.00075866683)
(5.0563057 -0.027957923 0.00072337945)
(5.0577261 -0.028432065 0.00084771464)
(5.0557932 -0.033283002 0.00089771408)
(5.0538026 -0.039229606 0.00095318226)
(5.0518421 -0.046508525 0.0010142921)
(5.0500575 -0.055389356 0.0010803553)
(5.0486713 -0.066177394 0.0011493866)
(5.0480477 -0.079222824 0.0012185091)
(5.0487739 -0.094842288 0.0012861564)
(5.0515857 -0.11311135 0.0013493768)
(5.0573522 -0.13410036 0.0014011107)
(5.067336 -0.15755094 0.0014338485)
(5.0834163 -0.18270752 0.001473294)
(5.1060721 -0.20666174 0.0015217895)
(5.1340336 -0.22719078 0.001575712)
(5.1658587 -0.24356605 0.001660878)
(5.200213 -0.25535527 0.0017769114)
(5.2359178 -0.26251692 0.00191237)
(5.2720845 -0.26526601 0.0020568522)
(5.3080091 -0.26389647 0.0022110457)
(5.3431599 -0.25866374 0.0023748946)
(5.3771449 -0.24976868 0.0025498006)
(5.4096706 -0.23735062 0.0027372184)
(5.4404804 -0.22147478 0.0029316277)
(5.4692576 -0.20218795 0.003125769)
(5.4933156 -0.24077602 0.0035913714)
(5.4606801 -0.26169481 0.0033234211)
(5.4261829 -0.27893257 0.0030445494)
(5.3900382 -0.29240738 0.0027897485)
(5.3523748 -0.30203397 0.0025763907)
(5.3133311 -0.30764076 0.0023901008)
(5.2732054 -0.30900834 0.0022178207)
(5.2324825 -0.30572617 0.002055513)
(5.1919024 -0.29726773 0.0019010216)
(5.152562 -0.28319868 0.001777773)
(5.1158586 -0.26316733 0.0017220857)
(5.0837416 -0.23733906 0.0017346015)
(5.0586732 -0.20607557 0.0017577532)
(5.0432635 -0.17341468 0.0017815424)
(5.0361797 -0.14442823 0.0017608423)
(5.0339342 -0.11959473 0.001677911)
(5.0346207 -0.098595112 0.001591932)
(5.0371613 -0.081286668 0.0014874146)
(5.0407036 -0.067243572 0.0013785552)
(5.0445592 -0.055902414 0.0012725634)
(5.0483874 -0.046750314 0.0011741365)
(5.0520239 -0.039378278 0.0010858068)
(5.0553776 -0.033440902 0.0010077592)
(5.0584096 -0.028655574 0.00093985995)
(5.0578026 -0.026658871 0.0012475361)
(5.0536631 -0.031024609 0.0013564922)
(5.0489072 -0.036532051 0.0014834676)
(5.0434997 -0.043510752 0.0016281664)
(5.0374459 -0.052382237 0.001787712)
(5.0307887 -0.063683843 0.0019556852)
(5.02373 -0.078130185 0.0021223534)
(5.0169081 -0.09667292 0.0022784513)
(5.0113477 -0.12029999 0.0024220517)
(5.0082577 -0.14936551 0.002518681)
(5.0101353 -0.18498341 0.0024555554)
(5.023588 -0.22827571 0.0022654318)
(5.0522503 -0.27037239 0.0020943808)
(5.0906406 -0.30285815 0.0018913044)
(5.1338776 -0.32701194 0.0017771628)
(5.179543 -0.34360779 0.0017256024)
(5.2259138 -0.35309711 0.0018619838)
(5.2717798 -0.35613466 0.0020222587)
(5.3165455 -0.35416761 0.002164224)
(5.359795 -0.34775399 0.0023198312)
(5.4013476 -0.33711491 0.0025147423)
(5.4413018 -0.32254307 0.0027857535)
(5.4798336 -0.30406987 0.0030631278)
(5.5171692 -0.28190111 0.0032405496)
(5.1372341 -0.0005613694 0.002081769)
(5.1299993 -0.00074854394 0.0022433825)
(5.1219939 -0.00090360314 0.0023697534)
(5.1133862 -0.0010255055 0.0024609902)
(5.1043442 -0.00111423 0.0025182006)
(5.0950291 -0.0011702752 0.002542984)
(5.0856037 -0.001195803 0.0025386338)
(5.0761881 -0.0011931111 0.0025081197)
(5.0669359 -0.0011647278 0.0024543873)
(5.0579385 -0.0011144077 0.0023815832)
(5.0492934 -0.0010460523 0.0022934668)
(5.041073 -0.00096375596 0.0021938607)
(5.0333277 -0.00087166223 0.0020864214)
(5.0260931 -0.00077365957 0.0019743827)
(5.0193847 -0.00067319374 0.0018606325)
(5.0132072 -0.00057328936 0.0017474938)
(5.0075498 -0.00047645093 0.0016369939)
(5.0023956 -0.00038456176 0.0015303816)
(4.9977183 -0.00029879519 0.0014286839)
(5.0398889 -0.0019300375 0.0019910144)
(5.0399632 -0.0019583487 0.0034169948)
(5.0397406 -0.0019730045 0.0049524775)
(5.0391661 -0.0019761388 0.0065686137)
(5.0382451 -0.0019678497 0.0082302218)
(5.0370218 -0.0019586409 0.009886775)
(5.0355556 -0.0019506459 0.011507868)
(5.0338968 -0.0019453712 0.01308015)
(5.0320866 -0.0019429117 0.014605276)
(5.0301601 -0.0019452372 0.016094098)
(5.0281437 -0.0019529924 0.017557018)
(4.9987698 -0.00031198933 0.014464475)
(4.9985732 -0.00028664778 0.010934338)
(4.9983215 -0.00027636945 0.0075510614)
(4.9980277 -0.00028189854 0.004384035)
(5.0026793 -0.00037115247 0.0046925443)
(5.0029401 -0.00037081855 0.0080755568)
(5.0031477 -0.00038869659 0.011684548)
(5.003289 -0.00042362334 0.015442062)
(5.0033795 -0.00047158072 0.019215367)
(5.0034484 -0.00053487154 0.022874184)
(5.0035312 -0.00061933978 0.02631554)
(5.0149776 -0.002464351 0.030976594)
(5.0168441 -0.0024472333 0.029305808)
(5.0187981 -0.0024185277 0.02765548)
(5.0208201 -0.0023858371 0.026041189)
(5.0228891 -0.0023530287 0.024463895)
(5.0249844 -0.0023234472 0.022918232)
(5.0270841 -0.0022980709 0.021395185)
(5.0291646 -0.0022792751 0.019884116)
(5.0312061 -0.0022659264 0.018371902)
(5.0331855 -0.0022590599 0.016841336)
(5.0350772 -0.0022564238 0.015283461)
(5.0368549 -0.0022589817 0.013687688)
(5.0384837 -0.0022642323 0.012042606)
(5.0399245 -0.0022730693 0.010346732)
(5.0411283 -0.0022826513 0.0086140684)
(5.0420388 -0.0022910754 0.0068764128)
(5.0426101 -0.0022872713 0.0051853134)
(5.0428382 -0.0022688975 0.0035780325)
(5.0427748 -0.0022360484 0.0020851343)
(5.0463148 -0.0025887122 0.0021841626)
(5.0463686 -0.0026270104 0.0037480165)
(5.0461356 -0.0026494141 0.0054311147)
(5.0455674 -0.0026536993 0.0072008532)
(5.0446691 -0.002645193 0.0090182321)
(5.043485 -0.0026348019 0.010830006)
(5.0420706 -0.0026251382 0.012603432)
(5.0404717 -0.0026192406 0.014323193)
(5.038728 -0.0026168162 0.015991484)
(5.0368725 -0.0026193022 0.017620088)
(5.0349319 -0.0026253018 0.01921943)
(5.0329296 -0.0026381234 0.020799083)
(5.0308883 -0.0026570166 0.022376708)
(5.0288278 -0.0026822176 0.023966568)
(5.0267713 -0.002711476 0.025579945)
(5.0247395 -0.0027440834 0.027226539)
(5.0227546 -0.0027775038 0.028912828)
(5.0208385 -0.0028054297 0.030640034)
(5.0190088 -0.0028219891 0.032391614)
(5.0172823 -0.0028203011 0.034134924)
(5.0156821 -0.0027907738 0.035820155)
(5.0142235 -0.0027250072 0.037376128)
(5.012922 -0.0026145751 0.038706381)
(5.0117894 -0.0024574763 0.039699895)
(5.0108362 -0.0022555168 0.040244332)
(5.0100643 -0.0020216682 0.040240725)
(5.0094656 -0.0017721726 0.039627995)
(5.0090214 -0.0015262837 0.038385709)
(5.0087143 -0.0012969618 0.036541078)
(5.0085172 -0.0010963279 0.034142097)
(5.0084062 -0.0009283695 0.031259735)
(5.0083585 -0.00079324528 0.027968398)
(5.0083464 -0.00068862983 0.024344048)
(5.0083398 -0.00060798087 0.020474037)
(5.0083023 -0.00054576477 0.016469552)
(5.0082063 -0.00049934915 0.012472446)
(5.0080379 -0.0004726802 0.0086262097)
(5.0078085 -0.00046686049 0.005016294)
(5.0134426 -0.00056810943 0.0053519909)
(5.0136456 -0.00058053953 0.0091977818)
(5.0137816 -0.00061711591 0.013290662)
(5.0138388 -0.00067648126 0.017536653)
(5.0138321 -0.00075542391 0.021781104)
(5.0137902 -0.0008564008 0.025870449)
(5.0137503 -0.00098472473 0.029685403)
(5.0137409 -0.0011457578 0.033131264)
(5.0137917 -0.0013410319 0.036129465)
(5.0139261 -0.0015694527 0.038602235)
(5.0141726 -0.0018255661 0.040481047)
(5.0145572 -0.0020960959 0.041718181)
(5.0151014 -0.0023674198 0.042293318)
(5.0158246 -0.0026202737 0.042233267)
(5.0167345 -0.0028355934 0.041607228)
(5.0178275 -0.0030024165 0.040521559)
(5.0190936 -0.003120242 0.039095495)
(5.0205199 -0.0031908526 0.037444257)
(5.0220898 -0.0032229013 0.035666827)
(5.0237843 -0.003225806 0.033836258)
(5.0255819 -0.0032104088 0.032003319)
(5.0274655 -0.0031831332 0.030200009)
(5.0294172 -0.0031497276 0.028441802)
(5.0314134 -0.0031172892 0.026726027)
(5.033433 -0.0030885587 0.025045971)
(5.0354562 -0.0030641976 0.023390078)
(5.0374597 -0.003045571 0.021746238)
(5.0394245 -0.0030337016 0.020099139)
(5.0413274 -0.0030288183 0.018430724)
(5.0431464 -0.0030270608 0.016730374)
(5.0448557 -0.0030300428 0.014987491)
(5.0464225 -0.0030364109 0.013190453)
(5.0478095 -0.0030469589 0.011337247)
(5.0489727 -0.0030588002 0.0094433318)
(5.0498589 -0.0030678374 0.0075425963)
(5.0504234 -0.003062664 0.005690078)
(5.0506621 -0.0030360448 0.0039273077)
(5.0506188 -0.0029915763 0.0022884068)
(5.0557957 -0.0034465374 0.0023978091)
(5.055829 -0.003498216 0.0041158222)
(5.0555855 -0.00352948 0.0059624864)
(5.0550245 -0.0035353914 0.0079019011)
(5.0541512 -0.0035255282 0.0098893793)
(5.0530091 -0.0035119341 0.011868475)
(5.0516498 -0.0035003634 0.013804013)
(5.0501149 -0.0034926895 0.015679902)
(5.0484412 -0.0034890208 0.01749894)
(5.0466597 -0.0034893929 0.019272225)
(5.0447951 -0.003493144 0.021009861)
(5.042869 -0.0035037275 0.022724624)
(5.040903 -0.0035214949 0.024434199)
(5.0389162 -0.0035446672 0.026155208)
(5.0369302 -0.0035727417 0.027900503)
(5.0349655 -0.0036041363 0.029683724)
(5.0330429 -0.0036369934 0.03151261)
(5.0311852 -0.0036629497 0.033390693)
(5.0294104 -0.0036773839 0.035303286)
(5.0277371 -0.0036721402 0.037220765)
(5.0261873 -0.0036367431 0.039090911)
(5.0247799 -0.0035607165 0.040839333)
(5.0235339 -0.0034353547 0.042364086)
(5.0224639 -0.0032565459 0.043546863)
(5.02158 -0.0030255257 0.044259557)
(5.0208858 -0.002751933 0.044388897)
(5.0203751 -0.0024563842 0.043856504)
(5.0200274 -0.0021565544 0.04262865)
(5.0198195 -0.0018694321 0.040717744)
(5.0197239 -0.0016094354 0.038170367)
(5.0197112 -0.0013826008 0.035054684)
(5.0197558 -0.0011915991 0.031449656)
(5.019828 -0.0010362985 0.027438941)
(5.0198975 -0.00091201144 0.023122895)
(5.0199284 -0.00081427046 0.018630855)
(5.0198942 -0.00074016619 0.014128591)
(5.019781 -0.00069268729 0.0097826018)
(5.0195997 -0.00067283855 0.0056955183)
(5.0262908 -0.00077851062 0.0060410643)
(5.0264588 -0.00080621049 0.010371024)
(5.0265608 -0.00086543177 0.01497231)
(5.026587 -0.00095549517 0.019733864)
(5.0265508 -0.0010743353 0.024476315)
(5.0264787 -0.0012244033 0.029022929)
(5.0264045 -0.0014102819 0.03323356)
(5.0263566 -0.001634721 0.037001812)
(5.0263636 -0.0018976051 0.040237591)
(5.0264517 -0.0021936293 0.042860463)
(5.0266518 -0.0025158359 0.044801965)
(5.0269918 -0.0028485168 0.046018483)
(5.0274965 -0.0031719337 0.046504816)
(5.0281867 -0.0034690056 0.046301888)
(5.0290685 -0.0037179381 0.045498975)
(5.0301359 -0.0039101275 0.044216695)
(5.0313801 -0.0040440703 0.042591878)
(5.0327838 -0.0041264465 0.040746051)
(5.0343268 -0.0041660439 0.038784115)
(5.0359894 -0.0041742538 0.036781827)
(5.03775 -0.0041612367 0.034791826)
(5.0395889 -0.0041369432 0.032841815)
(5.0414884 -0.0041058934 0.030944995)
(5.0434254 -0.0040758808 0.029096942)
(5.0453813 -0.0040489015 0.027289111)
(5.0473345 -0.0040278054 0.025505111)
(5.0492657 -0.004011511 0.02373135)
(5.0511551 -0.0040030418 0.02194982)
(5.0529831 -0.0040005553 0.020143353)
(5.0547281 -0.0040024914 0.018296955)
(5.0563662 -0.0040075743 0.016400382)
(5.0578679 -0.0040167579 0.014443593)
(5.0591992 -0.0040295724 0.012423589)
(5.0603194 -0.0040451301 0.01035641)
(5.0611798 -0.0040568301 0.0082787062)
(5.0617375 -0.0040495331 0.0062482919)
(5.0619863 -0.0040134771 0.0043138983)
(5.0619636 -0.0039538008 0.0025126978)
(5.0692333 -0.0045108116 0.0026329408)
(5.0692458 -0.0045791226 0.0045214421)
(5.0689917 -0.0046204944 0.0065474736)
(5.0684371 -0.004629061 0.008672722)
(5.0675903 -0.0046152614 0.010843873)
(5.0664918 -0.0045975608 0.013002056)
(5.0651887 -0.0045826366 0.015108696)
(5.0637193 -0.0045712163 0.017147709)
(5.0621164 -0.0045643284 0.019122312)
(5.0604081 -0.0045594766 0.021042017)
(5.0586162 -0.0045600302 0.022916866)
(5.0567623 -0.0045660336 0.024763685)
(5.0548645 -0.0045798776 0.026599606)
(5.0529419 -0.0045983556 0.028443698)
(5.0510117 -0.004623169 0.03031078)
(5.0490957 -0.0046506848 0.032219016)
(5.047212 -0.0046795748 0.034178992)
(5.0453825 -0.0047013791 0.036196845)
(5.0436241 -0.004711798 0.038259514)
(5.0419575 -0.0046997739 0.040342199)
(5.0404044 -0.0046554415 0.042391805)
(5.0389855 -0.0045653465 0.04433299)
(5.0377208 -0.0044211413 0.046056531)
(5.0366299 -0.0042136167 0.047437625)
(5.0357224 -0.0039448139 0.048331592)
(5.0350045 -0.0036220126 0.04860969)
(5.0344712 -0.0032668379 0.048171399)
(5.0341021 -0.0028975776 0.046966992)
(5.033872 -0.0025364255 0.044994749)
(5.0337522 -0.0021998565 0.042295707)
(5.0337126 -0.0018973415 0.038937916)
(5.0337269 -0.0016359004 0.035005243)
(5.0337686 -0.0014166368 0.030593271)
(5.0338104 -0.0012384225 0.02581571)
(5.0338225 -0.0010969383 0.020823178)
(5.0337816 -0.00098978198 0.015804341)
(5.0336758 -0.00091805264 0.010950608)
(5.0335128 -0.00088203116 0.0063814592)
(5.0412507 -0.00097982448 0.006707928)
(5.0414199 -0.0010243573 0.011506909)
(5.0415468 -0.0011086735 0.016604078)
(5.0416252 -0.0012335177 0.021871759)
(5.0416669 -0.0013987679 0.027107513)
(5.0416925 -0.00160673 0.032111431)
(5.0417271 -0.0018615226 0.036722494)
(5.0417931 -0.0021627795 0.040819384)
(5.0419136 -0.0025080859 0.044299874)
(5.0421131 -0.0028887738 0.047076488)
(5.0424204 -0.0032924882 0.049081275)
(5.0428631 -0.0037019276 0.050274343)
(5.0434669 -0.0040918996 0.050665988)
(5.0442508 -0.0044433374 0.050314826)
(5.0452189 -0.0047346375 0.049331757)
(5.0463636 -0.0049587749 0.04785562)
(5.0476753 -0.0051152502 0.046037987)
(5.0491318 -0.0052138539 0.044007467)
(5.0507146 -0.0052642752 0.041876949)
(5.0523997 -0.005281238 0.039720395)
(5.0541692 -0.0052746537 0.037591673)
(5.0560002 -0.0052560653 0.035513218)
(5.0578772 -0.0052305814 0.033496418)
(5.0597783 -0.0052062136 0.031533472)
(5.0616886 -0.0051847572 0.029612172)
(5.0635855 -0.0051697382 0.027712149)
(5.0654548 -0.0051594555 0.025817376)
(5.0672763 -0.0051567805 0.023907656)
(5.0690352 -0.0051593229 0.021965628)
(5.0707088 -0.0051676697 0.019973288)
(5.0722783 -0.0051774881 0.01792046)
(5.0737154 -0.0051912554 0.015797904)
(5.0749908 -0.0052091725 0.013603018)
(5.0760677 -0.005229446 0.011351307)
(5.0769013 -0.0052456993 0.0090834195)