/*--------------------------------*- C++ -*----------------------------------*\
| =========                 |                                                 |
| \\      /  F ield         | OpenFOAM: The Open Source CFD Toolbox           |
|  \\    /   O peration     | Version:  v2012                                 |
|   \\  /    A nd           | Website:  www.openfoam.com                      |
|    \\/     M anipulation  |                                                 |
\*---------------------------------------------------------------------------*/
FoamFile
{
    version     2.0;
    format      ascii;
    class       volScalarField;
    location    "0";
    object      p;
}
// * * * * * * * * * * * * * * * * * * * * * * * * * * * * * * * * * * * * * //

dimensions      [0 2 -2 0 0 0 0];


internalField   nonuniform List<scalar> 
300497
(
-0.59737124
-0.61027628
-0.56575566
-0.52809886
-0.5327688
-0.53362625
-0.54480854
-0.52536352
-0.54707133
-0.57550674
-0.59591581
-0.60519595
-0.60992557
-0.61270885
-0.61431767
-0.61524859
-0.61576867
-0.61602371
-0.61611303
-0.61606902
-0.61541174
-0.61107901
-0.59468723
-0.5642094
-0.53431504
-0.5493786
-0.53570799
-0.53427605
-0.52844429
-0.56572226
-0.59699064
-0.64862823
-0.67146217
-0.70335854
-0.70985
-0.7122313
-0.71063266
-0.70758001
-0.70373792
-0.69949609
-0.69468851
-0.68920841
-0.68299925
-0.67607048
-0.668451
-0.66018465
-0.65132038
-0.64189971
-0.63195287
-0.62151084
-0.61060295
-0.59926064
-0.58750142
-0.5753479
-0.56284744
-0.55004442
-0.53694205
-0.5235737
-0.50998807
-0.49621221
-0.48227228
-0.46821297
-0.45408937
-0.43995145
-0.42583316
-0.41177995
-0.39784566
-0.38407455
-0.37049663
-0.35714805
-0.3440639
-0.33127936
-0.31880521
-0.30664294
-0.29479133
-0.28324511
-0.27197814
-0.26081722
-0.24918319
-0.23618166
-0.22243952
-0.20420354
-0.18140862
-0.13897468
-0.11750651
-0.061927424
-0.039295579
-0.0049748651
-0.015315532
-0.020566691
-0.040675097
-0.038000081
-0.081317508
-0.090511901
-0.085671578
-0.082670114
-0.080624189
-0.080002035
-0.081182287
-0.084026373
-0.088448559
-0.094501862
-0.10190151
-0.11039871
-0.11979509
-0.13033591
-0.14252659
-0.15887714
-0.17800223
-0.20653977
-0.25125521
-0.29880264
-0.30203876
-0.28057183
-0.28671868
-0.2943712
-0.30769727
-0.31685805
-0.32572446
-0.33479336
-0.34523993
-0.35347305
-0.36102798
-0.36849582
-0.37623477
-0.38442196
-0.3931468
-0.4024448
-0.41233741
-0.42281402
-0.43384272
-0.4453816
-0.45735951
-0.46966597
-0.4822239
-0.49498413
-0.50788322
-0.52081734
-0.53371143
-0.54651638
-0.5591855
-0.57167388
-0.58393534
-0.59591619
-0.60756534
-0.61883621
-0.6296628
-0.64000182
-0.64980971
-0.65905231
-0.66769122
-0.67569576
-0.68305325
-0.68974304
-0.69573628
-0.70101585
-0.70557537
-0.70941443
-0.71255625
-0.71507642
-0.71710281
-0.71878581
-0.71966406
-0.71899661
-0.71466548
-0.70748989
-0.67523145
-0.65097268
-0.59816607
-0.62561286
-0.67008054
-0.69483239
-0.73062606
-0.74425102
-0.75391264
-0.75714946
-0.75734162
-0.75606783
-0.75413749
-0.75157957
-0.74834974
-0.74440534
-0.73974044
-0.73435382
-0.72824881
-0.72144146
-0.71395785
-0.70581822
-0.69702889
-0.68762021
-0.67762966
-0.66708784
-0.65603702
-0.64452138
-0.63260237
-0.6203274
-0.60774736
-0.59491188
-0.58187079
-0.56866978
-0.55536558
-0.54200614
-0.52866514
-0.51545316
-0.50241015
-0.48960371
-0.4771101
-0.46502737
-0.45343274
-0.44237831
-0.43190822
-0.42205649
-0.41283579
-0.40422085
-0.39614262
-0.38845754
-0.38085135
-0.37277058
-0.36278998
-0.35221119
-0.33983823
-0.32635353
-0.3101027
-0.29946823
-0.29805853
-0.33063126
-0.32769854
-0.27513328
-0.2292426
-0.20253276
-0.18684622
-0.17406286
-0.16425583
-0.15497226
-0.14620978
-0.13821394
-0.1313586
-0.12588919
-0.12199189
-0.11961421
-0.11869273
-0.11908961
-0.12010497
-0.12059662
-0.1192997
-0.10880888
-0.075585754
-0.074956191
-0.062890703
-0.070557861
-0.067688478
-0.18835486
-0.20646846
-0.10210929
0.008455448
0.056145003
0.063880959
0.034086728
-0.020449639
-0.070145746
-0.11309601
-0.15555158
-0.20184987
-0.25477512
-0.31584066
-0.38590577
-0.46517788
-0.55337109
-0.64987588
-0.75378931
-0.86395109
-0.97897583
-1.0972813
-1.2170672
-1.3365591
-1.4540763
-1.5679144
-1.6764676
-1.7783153
-1.872272
-1.9573348
-2.0326379
-2.0974898
-2.1514173
-2.1941439
-2.2255459
-2.2456462
-2.2549449
-2.2534396
-2.241004
-2.218427
-2.1864212
-2.145539
-2.0963904
-2.0396263
-1.975927
-1.905992
-1.8305393
-1.7503058
-1.6660435
-1.5785186
-1.4885109
-1.3968122
-1.3042294
-1.2115822
-1.1197155
-1.0293996
-0.9413418
-0.85625639
-0.77479713
-0.69754245
-0.62498204
-0.55750528
-0.49539289
-0.43881263
-0.38782026
-0.34236473
-0.3022977
-0.26738627
-0.23732884
-0.21177449
-0.19033857
-0.17261459
-0.15818966
-0.14665851
-0.13763104
-0.1307395
-0.12564402
-0.12203597
-0.11963893
-0.11820798
-0.11752904
-0.11741793
-0.117718
-0.11829703
-0.11904462
-0.11986981
-0.12069868
-0.1214722
-0.122144
-0.12267815
-0.12304754
-0.12322874
-0.12321389
-0.12300686
-0.12259733
-0.12197648
-0.1211481
-0.12011787
-0.11889184
-0.11747688
-0.11588136
-0.11411337
-0.11218181
-0.11010033
-0.10787571
-0.10551247
-0.10302339
-0.1004192
-0.097708136
-0.094898376
-0.091998454
-0.089017167
-0.085962185
-0.082841648
-0.079682603
-0.076479051
-0.073231364
-0.069967284
-0.066677449
-0.063336507
-0.059846851
-0.055919528
-0.050914469
-0.043436294
-0.031052231
-0.010912134
0.017826377
0.048758003
0.073748783
0.078883336
0.038493235
-0.052286429
-0.14335614
-0.17764114
-0.090729356
-0.0041648933
-0.012745503
-0.0062076593
-0.0085705787
-0.0036253331
-0.012824977
-0.014407547
-0.016344296
-0.015824098
-0.015040259
-0.014657157
-0.014591024
-0.014576695
-0.014498815
-0.014318252
-0.014058038
-0.013799011
-0.013546935
-0.013153571
-0.012004236
-0.01018598
-0.0093905183
-0.013791176
-0.021302696
-0.032840305
-0.034011341
-0.024663208
-0.024222573
-0.025293022
-0.026383599
-0.02636056
-0.026117682
-0.026030125
-0.026463123
-0.027029698
-0.027508932
-0.027811045
-0.027988502
-0.028085373
-0.028118874
-0.028126196
-0.028118394
-0.028104284
-0.028087333
-0.028069594
-0.028051289
-0.028033048
-0.028015539
-0.02799782
-0.027980502
-0.027964508
-0.027948714
-0.0279321
-0.02791968
-0.027905534
-0.027889958
-0.027874688
-0.027864162
-0.02785477
-0.027840621
-0.027827739
-0.027817256
-0.027807992
-0.027798816
-0.027783982
-0.027774891
-0.027767862
-0.027756916
-0.027733305
-0.027692832
-0.027615977
-0.027494813
-0.02733619
-0.027203412
-0.027419187
-0.028161531
-0.029642014
-0.029489873
-0.029409196
-0.020832119
-0.02224156
-0.012482158
-0.013183913
-0.0036833832
-0.012282417
-0.0057377817
-0.0081085955
-0.0031454337
-0.01236214
-0.01394295
-0.015880479
-0.015358325
-0.014572701
-0.014195406
-0.014121355
-0.014137501
-0.014132002
-0.014109348
-0.014178968
-0.014555206
-0.015337609
-0.015857248
-0.01391662
-0.012333127
-0.0031133007
-0.0080742645
-0.0057014622
-0.012245406
-0.0036456486
-0.013147903
-0.012448416
-0.022208651
-0.020800213
-0.029378082
-0.029456633
-0.029603764
-0.02812516
-0.027385963
-0.02716546
-0.027294682
-0.027451568
-0.027572503
-0.027651552
-0.027692586
-0.027714524
-0.027725948
-0.027732388
-0.027741977
-0.027756579
-0.02776337
-0.027770618
-0.027780625
-0.027792957
-0.027804075
-0.027813682
-0.027827268
-0.027841491
-0.02785581
-0.027866564
-0.027879957
-0.027896152
-0.027912525
-0.027927721
-0.027942336
-0.02795812
-0.027977648
-0.027995914
-0.028007583
-0.028025557
-0.028042775
-0.028057319
-0.028066563
-0.028064746
-0.028041413
-0.027976907
-0.027873872
-0.027736183
-0.027619714
-0.027824892
-0.028562835
-0.030051922
-0.029924388
-0.029839307
-0.021278257
-0.022690896
-0.012950444
-0.013651246
-0.089197954
-0.081004991
-0.093659643
-0.10101155
-0.12361087
-0.13370406
-0.14055439
-0.14072697
-0.13946524
-0.1384044
-0.13769863
-0.13727155
-0.1370324
-0.13688982
-0.13677823
-0.13668124
-0.13659188
-0.13651211
-0.13643928
-0.13637158
-0.13631754
-0.13626118
-0.13620342
-0.13615362
-0.13610797
-0.13606365
-0.13601895
-0.13597561
-0.13594005
-0.13591037
-0.13587645
-0.13584376
-0.13581522
-0.1357946
-0.13577483
-0.13576014
-0.13574943
-0.13574491
-0.13575854
-0.13577197
-0.13577803
-0.13579915
-0.13582556
-0.13586454
-0.13592502
-0.13602014
-0.1362072
-0.13657338
-0.1372057
-0.13818998
-0.13943107
-0.13926178
-0.13243926
-0.12232204
-0.099682358
-0.092289095
-0.079580682
-0.087781386
-0.089329171
-0.17535819
-0.1399342
-0.047616856
0.044452451
0.085965712
0.081770015
0.057622998
0.02733121
-0.00086466193
-0.020440336
-0.032224475
-0.039130675
-0.0436164
-0.047074604
-0.050153778
-0.053142008
-0.056142024
-0.059181868
-0.062265449
-0.065388326
-0.068544924
-0.071736002
-0.074958427
-0.078203266
-0.081471339
-0.084768775
-0.088094217
-0.09144629
-0.094833207
-0.098261856
-0.10173651
-0.10526367
-0.10885232
-0.11251269
-0.11625567
-0.12009782
-0.12405665
-0.12814968
-0.13239955
-0.13683157
-0.1414768
-0.14637351
-0.15156103
-0.15708241
-0.16299036
-0.16934557
-0.1762131
-0.18366621
-0.19178843
-0.20067194
-0.2104185
-0.22113885
-0.23295212
-0.24598672
-0.26037974
-0.27627435
-0.29381793
-0.31316176
-0.33445859
-0.35785704
-0.38349804
-0.41151325
-0.44202008
-0.47511514
-0.51087008
-0.5493277
-0.59049813
-0.63435459
-0.68082864
-0.72980836
-0.781138
-0.83461621
-0.88999568
-0.94699473
-1.0052971
-1.0645209
-1.12424
-1.1840086
-1.2433454
-1.3017576
-1.3587299
-1.4137303
-1.466218
-1.5156542
-1.5615126
-1.6032847
-1.6404605
-1.6725635
-1.6992151
-1.7200973
-1.7346953
-1.7427452
-1.7444134
-1.7397051
-1.7285879
-1.7111853
-1.6877551
-1.6586792
-1.6244204
-1.5855158
-1.5425723
-1.496248
-1.4472337
-1.3962357
-1.3439419
-1.2910246
-1.2381079
-1.1857476
-1.1344532
-1.084683
-1.0368099
-0.99112474
-0.94785043
-0.90714442
-0.86910757
-0.8337935
-0.80121784
-0.77136606
-0.74414723
-0.71944682
-0.69711593
-0.67679837
-0.65772914
-0.63841321
-0.6160924
-0.5869819
-0.54713577
-0.50050013
-0.47443564
-0.48167597
-0.52720547
-0.63449338
-0.73484187
-0.715437
-0.59356004
-0.61218179
-0.69887075
-0.71579024
-0.62957227
-0.5356165
-0.49166077
-0.4832198
-0.50479719
-0.54697478
-0.58546784
-0.61409078
-0.63652698
-0.65611481
-0.6754223
-0.69597381
-0.71849081
-0.7433216
-0.77063345
-0.80055739
-0.83318728
-0.86854588
-0.90662459
-0.94737442
-0.99069706
-1.0364369
-1.0843738
-1.1342176
-1.1855948
-1.2380463
-1.2910678
-1.3440988
-1.3965081
-1.4476185
-1.4967539
-1.5431969
-1.5862479
-1.6252486
-1.6595893
-1.6887266
-1.7121988
-1.729638
-1.7407824
-1.7454917
-1.7438353
-1.7357062
-1.7209919
-1.7000551
-1.6733349
-1.6411557
-1.6038784
-1.5619983
-1.5160393
-1.4665
-1.413909
-1.3588105
-1.3017436
-1.2432409
-1.1838242
-1.1239766
-1.0641873
-1.004903
-0.94654993
-0.88950899
-0.83409626
-0.78059396
-0.72924896
-0.68026224
-0.63378947
-0.58994188
-0.54878628
-0.51034891
-0.47461934
-0.44155355
-0.41107866
-0.38309689
-0.35749036
-0.33412701
-0.31286483
-0.29355428
-0.27604272
-0.26017876
-0.24581427
-0.23280565
-0.2210159
-0.21031766
-0.20059166
-0.1917253
-0.18361778
-0.17617771
-0.16932049
-0.162975
-0.15707806
-0.15156472
-0.14638006
-0.14148755
-0.13684888
-0.1324206
-0.12817183
-0.12408122
-0.1201256
-0.11628335
-0.11253761
-0.10887725
-0.1052928
-0.10176742
-0.098288086
-0.094855071
-0.091469245
-0.088118951
-0.084789341
-0.081482639
-0.078209798
-0.074964275
-0.071733184
-0.068525425
-0.065349697
-0.062202365
-0.059081693
-0.055985569
-0.052906145
-0.049810198
-0.046600417
-0.043011789
-0.038368968
-0.031249268
-0.019331791
-0.00014924183
0.026233149
0.053822788
0.074062581
0.073433382
0.034466273
-0.046905639
-0.13142938
-0.15925323
-0.14539257
-0.14595479
-0.15986617
-0.18170986
-0.20101946
-0.21493423
-0.22071524
-0.22138866
-0.22034155
-0.21887751
-0.21770147
-0.21690006
-0.2163786
-0.21603794
-0.21581126
-0.21565816
-0.2155523
-0.21548436
-0.21542515
-0.21538709
-0.21537893
-0.21538454
-0.2153986
-0.2154246
-0.21545876
-0.21550137
-0.21555069
-0.21560439
-0.2156612
-0.2157245
-0.21579593
-0.21587293
-0.21595416
-0.21604148
-0.21613706
-0.21624273
-0.21635768
-0.21648576
-0.2166342
-0.21680693
-0.21701259
-0.2172646
-0.21758382
-0.21800899
-0.21860966
-0.21949068
-0.22075335
-0.22232288
-0.22350107
-0.22288488
-0.21713183
-0.20320704
-0.18394513
-0.16211828
-0.14824718
-0.14772644
-0.1615752
-0.13486709
-0.12556211
-0.12306349
-0.13041165
-0.14263224
-0.15741323
-0.16931063
-0.17646835
-0.17902279
-0.17884975
-0.17772408
-0.17647478
-0.17539482
-0.17453617
-0.17386567
-0.17333731
-0.17291379
-0.17256758
-0.17227743
-0.17203027
-0.17181603
-0.17162765
-0.17146068
-0.17130996
-0.17117204
-0.17104459
-0.17092659
-0.17081826
-0.17071948
-0.17062895
-0.17054552
-0.170471
-0.17040701
-0.17035395
-0.1703134
-0.17028751
-0.17028174
-0.17030115
-0.17034775
-0.17042983
-0.17056634
-0.17076458
-0.17104716
-0.17144127
-0.17198705
-0.17272928
-0.17369692
-0.174838
-0.17586326
-0.17592499
-0.17326247
-0.16600969
-0.15403151
-0.1391939
-0.12690816
-0.11955509
-0.12210094
-0.044148499
-0.04316841
-0.047337153
-0.054251715
-0.062561696
-0.069214558
-0.073872906
-0.076103636
-0.076413142
-0.075797524
-0.074825653
-0.073835304
-0.07297223
-0.072274795
-0.071735372
-0.071329342
-0.071031503
-0.070818466
-0.070677204
-0.07059136
-0.070546754
-0.070538064
-0.07055946
-0.070604759
-0.07066884
-0.070749421
-0.070846566
-0.070957301
-0.071079215
-0.071213648
-0.071361646
-0.071523131
-0.071700238
-0.07189361
-0.072106718
-0.072344428
-0.072613368
-0.072922264
-0.073280581
-0.07370005
-0.074198596
-0.074799978
-0.07552764
-0.076405693
-0.077441917
-0.078594741
-0.079719596
-0.080479482
-0.080298065
-0.078216005
-0.07367905
-0.067122159
-0.058860586
-0.052013093
-0.04784698
-0.048832895
-0.051578504
0.028561989
0.023179476
0.022253802
0.021348172
0.019267807
0.017104897
0.015265636
0.013725892
0.012935459
0.012986239
0.013660488
0.014676284
0.015788197
0.016853154
0.017802414
0.018619645
0.019315057
0.019907009
0.020411681
0.020845934
0.021224094
0.021557498
0.021854442
0.022121514
0.022364196
0.022585769
0.022789231
0.022975901
0.023147281
0.023304022
0.023444414
0.023568523
0.023674405
0.023759196
0.023818947
0.023849811
0.023845696
0.023799051
0.023700554
0.023537962
0.023296672
0.022959795
0.022509084
0.021927117
0.021207623
0.020365395
0.019463365
0.018645541
0.018159768
0.018272602
0.019217986
0.020910813
0.022876291
0.025099677
0.027199139
0.028123253
0.029049143
0.06150784
0.054860517
0.052492392
0.051485332
0.051312508
0.051041154
0.050784826
0.05072659
0.050956412
0.051523297
0.052291936
0.053130892
0.053939371
0.054658678
0.055263289
0.055748547
0.056122115
0.056396542
0.056586439
0.056705878
0.056765746
0.056776411
0.056745979
0.056681222
0.056586029
0.056465307
0.05632283
0.056159948
0.055977125
0.055775876
0.055555992
0.055315798
0.055053745
0.054765953
0.054448295
0.054095075
0.053699832
0.053253995
0.052746769
0.052164164
0.051493262
0.050722899
0.049845718
0.048867463
0.047812708
0.046736487
0.045740818
0.044961274
0.044532821
0.044449091
0.044538466
0.044685021
0.044743234
0.04569548
0.047988324
0.054593982
0.066406022
0.066049818
0.053116076
0.041930709
0.035336656
0.032603018
0.031560992
0.031220762
0.031231766
0.03146497
0.031968373
0.032744333
0.033683568
0.034698403
0.035713039
0.03667924
0.037568769
0.038368566
0.039078261
0.039705409
0.040259628
0.040750744
0.041188177
0.041580412
0.041934355
0.042254758
0.042547023
0.042813811
0.043057918
0.043280335
0.043480894
0.043659597
0.04381479
0.043944377
0.044045049
0.044112831
0.044141775
0.044125441
0.044055875
0.04392403
0.043718881
0.04342933
0.043044483
0.04255688
0.041965866
0.041282268
0.040535829
0.039778088
0.03908774
0.038541539
0.03823782
0.038157259
0.038258217
0.03872144
0.039946189
0.042875818
0.049675083
0.061068416
0.043760849
0.032322112
0.023443972
0.018130759
0.015288437
0.01388308
0.013237896
0.013006719
0.013089494
0.013403355
0.013856241
0.014385764
0.014933912
0.015453591
0.015915672
0.01630523
0.016617026
0.016852525
0.017016559
0.017115855
0.017158112
0.017150303
0.017099007
0.017009859
0.016887973
0.016737277
0.016560422
0.016359775
0.016136727
0.015891735
0.015624708
0.015334793
0.015019963
0.01467744
0.014303603
0.013894121
0.013443646
0.012946086
0.012395371
0.011786232
0.011114657
0.010380286
0.0095889924
0.0087552134
0.0079090464
0.0070990983
0.0063868966
0.0058457506
0.0055728328
0.0056565871
0.0061669388
0.0073482822
0.0098922089
0.014944878
0.023630631
0.034955642
0.044978028
0.016748258
0.011314545
0.0025956802
-0.0060399805
-0.012562572
-0.016789509
-0.019191136
-0.020410879
-0.021007207
-0.021128746
-0.020937997
-0.020520774
-0.019954777
-0.01930438
-0.018619961
-0.017936901
-0.017277717
-0.016655256
-0.016075202
-0.015538803
-0.015044698
-0.014590017
-0.014170834
-0.013783787
-0.01342533
-0.013093096
-0.01278485
-0.012499164
-0.012235302
-0.011993247
-0.011773568
-0.011577547
-0.011407096
-0.011265047
-0.011154666
-0.011080064
-0.011045791
-0.01105668
-0.01111745
-0.011232452
-0.011404333
-0.011632968
-0.011913961
-0.012236026
-0.01257866
-0.012908266
-0.013176819
-0.01334121
-0.013326047
-0.01300499
-0.012195256
-0.01062805
-0.0078895977
-0.0034352483
0.0032525647
0.011994582
0.020766949
-0.0017901083
-0.0063693004
-0.012421972
-0.018318865
-0.023136458
-0.026659073
-0.029031059
-0.030520491
-0.031399561
-0.031864736
-0.03205306
-0.032069944
-0.031986104
-0.031849444
-0.031695624
-0.03154995
-0.031429059
-0.031342752
-0.031295835
-0.031289632
-0.031323185
-0.031394238
-0.031500016
-0.031637505
-0.031803814
-0.031996759
-0.032213206
-0.032451912
-0.032711738
-0.032992042
-0.033292664
-0.033614048
-0.033957127
-0.034323207
-0.034713364
-0.035129287
-0.035572972
-0.03604528
-0.036545762
-0.037071795
-0.03761713
-0.038170265
-0.038712193
-0.039214251
-0.03963592
-0.039923115
-0.040007397
-0.039805151
-0.039221118
-0.038091449
-0.036109434
-0.032831652
-0.028120787
-0.022281461
-0.016284729
-0.01177486
-0.010183307
-0.02992932
-0.029235526
-0.030361166
-0.033414095
-0.037455323
-0.041436407
-0.044761871
-0.047211133
-0.048792664
-0.049790683
-0.050353198
-0.050584106
-0.050568718
-0.050376899
-0.05006478
-0.049676048
-0.04924348
-0.048790608
-0.048333629
-0.047883064
-0.047445326
-0.047023969
-0.04662119
-0.046236565
-0.045870075
-0.045522282
-0.045192405
-0.044880103
-0.044585373
-0.044308577
-0.044050426
-0.043811936
-0.043594712
-0.043400054
-0.04322997
-0.043086146
-0.042969954
-0.042882159
-0.042822472
-0.042788765
-0.042776139
-0.042775657
-0.042772985
-0.042746782
-0.042667022
-0.042493132
-0.042169734
-0.041606032
-0.04069603
-0.039331472
-0.037384388
-0.034719877
-0.03125879
-0.027143715
-0.022986276
-0.019853405
-0.018679286
-0.029833697
-0.029236563
-0.030328076
-0.032783375
-0.03577056
-0.038660283
-0.041165976
-0.043207048
-0.044797678
-0.045986976
-0.046841228
-0.047438231
-0.0478494
-0.048132987
-0.048333175
-0.048483218
-0.048607553
-0.048723665
-0.048843591
-0.048975135
-0.04912304
-0.049289843
-0.049476546
-0.049683098
-0.049908801
-0.050152365
-0.050413485
-0.050690826
-0.050983404
-0.051290442
-0.051611407
-0.051945881
-0.052293478
-0.052653523
-0.053025777
-0.053408852
-0.053799856
-0.054194999
-0.05458805
-0.054969506
-0.055325624
-0.055637191
-0.055878326
-0.056015076
-0.056004232
-0.05579232
-0.055315096
-0.054497476
-0.053254205
-0.051491768
-0.049154665
-0.046436904
-0.043625178
-0.041333449
-0.04035395
-0.041002697
-0.042439326
-0.050135616
-0.04868152
-0.047463847
-0.0473262
-0.048339736
-0.050061782
-0.052014253
-0.053901843
-0.055538417
-0.056821358
-0.057754597
-0.058381461
-0.058753362
-0.058920526
-0.058928285
-0.058815576
-0.058614603
-0.058351227
-0.058045629
-0.057713141
-0.057365066
-0.057009497
-0.056651791
-0.056296636
-0.055946685
-0.055602979
-0.055267145
-0.054940243
-0.054623084
-0.054316395
-0.054020955
-0.053737552
-0.053466747
-0.053209054
-0.052964544
-0.052732927
-0.052513091
-0.052302634
-0.052097376
-0.051890736
-0.051673016
-0.051430485
-0.051144428
-0.050790024
-0.050335213
-0.049740026
-0.04895714
-0.047938362
-0.046640055
-0.045038369
-0.043144249
-0.041028115
-0.038853409
-0.036939266
-0.035772794
-0.035797354
-0.036945329
-0.041836624
-0.04068129
-0.040172819
-0.04055407
-0.04166929
-0.043205687
-0.044886663
-0.046527005
-0.048017803
-0.049309197
-0.050391
-0.051277928
-0.051997228
-0.052581139
-0.05306072
-0.053463192
-0.053811118
-0.054122526
-0.054411336
-0.054687969
-0.054959943
-0.055232452
-0.055508885
-0.055791354
-0.056081039
-0.056378509
-0.056683612
-0.056996078
-0.057315367
-0.057640743
-0.057971283
-0.058305816
-0.058642806
-0.058980332
-0.059315602
-0.059644954
-0.059963484
-0.060264322
-0.060538412
-0.060773851
-0.060955262
-0.061063303
-0.061074303
-0.06096028
-0.060689617
-0.060228874
-0.059546419
-0.058619286
-0.057447128
-0.056087475
-0.054678227
-0.053374683
-0.052454539
-0.052225547
-0.052847657
-0.054081015
-0.055300143
-0.059352047
-0.058407718
-0.057345927
-0.05660088
-0.056438097
-0.056850196
-0.05766533
-0.058681951
-0.059746716
-0.060737778
-0.061580358
-0.062246498
-0.062735411
-0.063060819
-0.063243292
-0.063305537
-0.063269604
-0.063155443
-0.062980251
-0.062758381
-0.06250147
-0.062218782
-0.061917633
-0.06160347
-0.06128056
-0.060952292
-0.060621081
-0.060288813
-0.059956907
-0.059626409
-0.059298059
-0.058972279
-0.058649152
-0.05832839
-0.058009042
-0.057689387
-0.057366735
-0.057037111
-0.056694907
-0.056332452
-0.055939647
-0.055503625
-0.055008599
-0.054435992
-0.053765126
-0.052974907
-0.052047182
-0.050972292
-0.049756337
-0.048430755
-0.047063153
-0.045768074
-0.044711752
-0.044099284
-0.044099602
-0.044726491
-0.045705569
-0.049165603
-0.048411094
-0.047840849
-0.047687761
-0.048010774
-0.048730991
-0.049714023
-0.050829775
-0.051975795
-0.053081966
-0.054106665
-0.055030614
-0.055850355
-0.056572427
-0.057208628
-0.057772748
-0.058278678
-0.058739045
-0.05916477
-0.059564865
-0.059946491
-0.060315145
-0.06067493
-0.061028753
-0.061378595
-0.061725636
-0.062070444
-0.062413073
-0.062753164
-0.06308998
-0.063422388
-0.063748811
-0.064067157
-0.064374683
-0.064667818
-0.064942059
-0.065191721
-0.065409632
-0.065586986
-0.065713136
-0.065775565
-0.065760047
-0.065651143
-0.065433213
-0.065092334
-0.064619345
-0.064014616
-0.063294067
-0.062498052
-0.061699643
-0.06100016
-0.060529287
-0.060415323
-0.060735578
-0.061431215
-0.062272869
-0.062969358
-0.066416315
-0.065913712
-0.065276896
-0.064691794
-0.06433685
-0.064291069
-0.064534253
-0.064988736
-0.065565323
-0.066180778
-0.066770934
-0.067292881
-0.067722623
-0.068051036
-0.068278642
-0.068411909
-0.068460471
-0.068435196
-0.068346919
-0.068205893
-0.068021256
-0.067800888
-0.067551427
-0.067278341
-0.066986082
-0.066678233
-0.066357611
-0.066026392
-0.065686228
-0.065338296
-0.064983329
-0.064621639
-0.06425308
-0.063876984
-0.06349208
-0.063096366
-0.062686994
-0.062260136
-0.061810821
-0.061332866
-0.060818856
-0.060260323
-0.059648137
-0.058973266
-0.058228016
-0.05740814
-0.056515734
-0.055562818
-0.054575385
-0.053597307
-0.052692617
-0.051944204
-0.051445081
-0.05127508
-0.05145723
-0.051911023
-0.05245876
-0.05568529
-0.05530536
-0.054971624
-0.054816714
-0.054918145
-0.055281534
-0.055864254
-0.056604279
-0.057438936
-0.058314281
-0.05918913
-0.060035623
-0.060837128
-0.06158579
-0.062280179
-0.062922968
-0.06351879
-0.064073413
-0.064592738
-0.065082341
-0.065547137
-0.065991258
-0.066418016
-0.066829956
-0.067228915
-0.067616104
-0.067992173
-0.068357304
-0.068711219
-0.069053193
-0.06938204
-0.069696129
-0.069993305
-0.070270828
-0.070525311
-0.070752607
-0.070947759
-0.071104953
-0.071217545
-0.071278189
-0.071279094
-0.071212397
-0.071071209
-0.070850918
-0.070550949
-0.070177023
-0.069743533
-0.069276827
-0.068816554
-0.068415237
-0.068134705
-0.068034002
-0.068154229
-0.068487872
-0.068955923
-0.069427591
-0.069785782
-0.073107335
-0.072856439
-0.072508108
-0.072141982
-0.071852079
-0.071706026
-0.071723251
-0.071885785
-0.072156412
-0.072491572
-0.072850276
-0.073198987
-0.073513033
-0.073775833
-0.073977899
-0.074115762
-0.074190078
-0.074204206
-0.074163109
-0.074072252
-0.073937246
-0.073763377
-0.073555499
-0.073317931
-0.073054344
-0.07276784
-0.072460926
-0.072135606
-0.071793427
-0.07143552
-0.071062581
-0.070674887
-0.070272293
-0.069854237
-0.069419681
-0.068967104
-0.068494429
-0.067999017
-0.06747774
-0.066927038
-0.066343303
-0.065722994
-0.065063216
-0.064362699
-0.063622949
-0.062849572
-0.062053805
-0.061254201
-0.060477707
-0.059759348
-0.059141225
-0.058668494
-0.058381344
-0.058300002
-0.058406559
-0.05863667
-0.058888042
-0.062079869
-0.061921838
-0.061781702
-0.061729505
-0.06181796
-0.062067692
-0.062470857
-0.063002793
-0.063632206
-0.06432746
-0.065059954
-0.065805623
-0.066546154
-0.067268834
-0.067965603
-0.068632047
-0.06926673
-0.069869913
-0.070442974
-0.070987878
-0.071506884
-0.072002092
-0.072475376
-0.072928048
-0.073361299
-0.073775922
-0.074172345
-0.074550609
-0.074910416
-0.075251105
-0.075571666
-0.075870685
-0.07614637
-0.076396506
-0.076618424
-0.076809006
-0.076964748
-0.077081809
-0.077156253
-0.077184217
-0.077162244
-0.077088132
-0.076961371
-0.076784179
-0.076562377
-0.07630626
-0.076031921
-0.07576129
-0.075521846
-0.075344336
-0.075258532
-0.075285968
-0.075431293
-0.075671245
-0.075952795
-0.076209275
-0.076388872
-0.079618505
-0.079488485
-0.079302032
-0.079089509
-0.078897021
-0.078765845
-0.078718203
-0.07875662
-0.078869882
-0.079038529
-0.079240221
-0.079453312
-0.079658931
-0.079842245
-0.079993226
-0.080104882
-0.080173487
-0.080197667
-0.080177781
-0.080115367
-0.080012656
-0.079872427
-0.07969742
-0.079490226
-0.079253319
-0.078988841
-0.078698651
-0.078384307
-0.078047018
-0.077687666
-0.077306861
-0.076904944
-0.076481977
-0.076037739
-0.075571751
-0.075083367
-0.074571578
-0.074035314
-0.073473621
-0.072885811
-0.072271219
-0.071630187
-0.070964584
-0.070277938
-0.069576282
-0.068868785
-0.06816833
-0.067491704
-0.066859339
-0.066294588
-0.065821277
-0.065460598
-0.065226235
-0.065118747
-0.06511872
-0.065185539
-0.065274928
-0.068489545
-0.068452504
-0.068438228
-0.068480884
-0.068609523
-0.068840818
-0.069177667
-0.069612275
-0.07013053
-0.070714817
-0.071346715
-0.072008955
-0.072686449
-0.073366811
-0.074040505
-0.07470034
-0.075341613
-0.07596135
-0.076557812
-0.077130088
-0.077677592
-0.078200396
-0.078698688
-0.07917323
-0.079624179
-0.08005168
-0.080455707
-0.080836107
-0.081192505
-0.081524365
-0.081830926
-0.082111212
-0.082364
-0.08258784
-0.082781087
-0.082942005
-0.083068759
-0.083159642
-0.083213032
-0.083227844
-0.083204024
-0.083142549
-0.08304609
-0.082919228
-0.082768874
-0.082605109
-0.082440768
-0.082291323
-0.082173188
-0.082102167
-0.082090744
-0.082144292
-0.082256861
-0.082408608
-0.082568774
-0.082704824
-0.082797492
-0.085929456
-0.085861199
-0.085759128
-0.085637582
-0.085518582
-0.085425166
-0.085374017
-0.085371714
-0.085416121
-0.085499424
-0.085610606
-0.0857374
-0.085867887
-0.085991275
-0.086098079
-0.0861814
-0.086236147
-0.086258989
-0.086247999
-0.086202423
-0.086122319
-0.086008128
-0.085860752
-0.085681291
-0.085470877
-0.085230592
-0.084961469
-0.084664378
-0.084340068
-0.083989152
-0.083612095
-0.083209255
-0.082780895
-0.082327206
-0.081848355
-0.08134429
-0.080815335
-0.080262091
-0.079685161
-0.079085503
-0.078465412
-0.077827936
-0.077177122
-0.076518168
-0.075858388
-0.075207645
-0.074577335
-0.073980694
-0.073432085
-0.072945977
-0.072535427
-0.072210202
-0.071974518
-0.071824954
-0.071748869
-0.07172564
-0.071728648
-0.074976425
-0.074998896
-0.075054024
-0.075159098
-0.075328835
-0.075572784
-0.075894208
-0.076290985
-0.076755745
-0.077278589
-0.077848018
-0.078452094
-0.079079375
-0.079719332
-0.080363069
-0.081003865
-0.081634951
-0.082251297
-0.082849277
-0.083426308
-0.083980654
-0.084510862
-0.08501602
-0.085495049
-0.085947492
-0.086372969
-0.086771174
-0.087141759
-0.087484407
-0.087798726
-0.088084293
-0.088340591
-0.088567077
-0.08876317
-0.088928269
-0.089061833
-0.089163462
-0.089232972
-0.089270703
-0.089277481
-0.089254755
-0.089205081
-0.089132157
-0.089041091
-0.088938689
-0.088833019
-0.088733075
-0.088648136
-0.08858738
-0.088558464
-0.08856598
-0.08860995
-0.088684454
-0.088776369
-0.088867634
-0.08894293
-0.088993407
-0.09198071
-0.091943989
-0.09188879
-0.091821164
-0.09175345
-0.091697465
-0.091663566
-0.091656998
-0.091678791
-0.091726556
-0.091794851
-0.091877002
-0.091965588
-0.092053194
-0.092133038
-0.092199014
-0.09224638
-0.092270973
-0.092269861
-0.09224095
-0.092182825
-0.092094621
-0.09197586
-0.091826369
-0.09164608
-0.091435174
-0.09119381
-0.090922214
-0.090620633
-0.090289316
-0.089928527
-0.089538559
-0.089119778
-0.088672664
-0.08819782
-0.087696258
-0.087169158
-0.086617813
-0.086044208
-0.085451186
-0.084841674
-0.084219517
-0.083589643
-0.082959384
-0.082336686
-0.081729109
-0.081146081
-0.080597599
-0.080093671
-0.079643557
-0.079255095
-0.078933422
-0.078679819
-0.078491706
-0.078361776
-0.078278026
-0.078229983
-0.081513507
-0.081578268
-0.081681263
-0.081829873
-0.082033283
-0.082296447
-0.082620753
-0.083004547
-0.08344445
-0.08393449
-0.084467057
-0.0850336
-0.085625218
-0.086233382
-0.086849813
-0.087466584
-0.088078029
-0.088678868
-0.089264504
-0.089831033
-0.090375309
-0.090895413
-0.091389358
-0.091855769
-0.092293552
-0.092701862
-0.093079866
-0.093427317
-0.093743993
-0.094029777
-0.094284603
-0.094508492
-0.094701529
-0.094863917
-0.094996009
-0.095098269
-0.095171379
-0.095216356
-0.095234564
-0.095227873
-0.095198725
-0.095150491
-0.095086964
-0.095012842
-0.094933553
-0.094854972
-0.094783201
-0.094724159
-0.094682681
-0.094662037
-0.094663668
-0.094685942
-0.094724004
-0.094771125
-0.09481897
-0.094858897
-0.094885234
-0.097699609
-0.097681541
-0.097654778
-0.097623384
-0.097592249
-0.097569224
-0.097558636
-0.097564652
-0.097588747
-0.097630112
-0.097687145
-0.097755717
-0.097831077
-0.097908159
-0.097981964
-0.098047856
-0.098100789
-0.098137478
-0.098154697
-0.098149724
-0.098120299
-0.098064611
-0.097981223
-0.097868981
-0.097727025
-0.097554589
-0.097351124
-0.097116231
-0.096849633
-0.096551182
-0.096220886
-0.095858896
-0.095465664
-0.095041707