/*--------------------------------*- C++ -*----------------------------------*\
| =========                 |                                                 |
| \\      /  F ield         | OpenFOAM: The Open Source CFD Toolbox           |
|  \\    /   O peration     | Version:  v2012                                 |
|   \\  /    A nd           | Website:  www.openfoam.com                      |
|    \\/     M anipulation  |                                                 |
\*---------------------------------------------------------------------------*/
FoamFile
{
    version     2.0;
    format      ascii;
    class       volScalarField;
    location    "100";
    object      k;
}
// * * * * * * * * * * * * * * * * * * * * * * * * * * * * * * * * * * * * * //

dimensions      [0 2 -2 0 0 0 0];


internalField   nonuniform List<scalar> 
121349
(
0.0043464136
0.0043059468
0.0042663651
0.0042276115
0.0041896317
0.0041524044
0.0041159004
0.0040800884
0.0040449372
0.0040104179
0.0039765034
0.0039431688
0.0039103917
0.003878151
0.003846427
0.0038152012
0.0037844565
0.0037541763
0.003724345
0.0036949464
0.0036659651
0.0036373866
0.0036091966
0.0035813824
0.0035539318
0.0035268328
0.0035000762
0.0034736548
0.0034475638
0.0034218009
0.0033963664
0.0033712638
0.0033464997
0.003322084
0.0032980303
0.0032743542
0.0032510742
0.0032282115
0.0032057889
0.0031838295
0.0031623539
0.0031413778
0.0031209052
0.0031009512
0.0030815473
0.0030629231
0.0030451313
0.0030292255
0.0030148949
0.0030043175
0.0029950284
0.0029865535
0.0031884357
0.0032690732
0.0033099562
0.0033254613
0.0033282161
0.003326308
0.0033270945
0.0033272392
0.0033262669
0.003324123
0.0033221899
0.0033229922
0.0033238492
0.0033223566
0.0033235507
0.0033233315
0.0033202421
0.0033210912
0.0033203498
0.0033189026
0.0033180393
0.003319145
0.0033213009
0.0033183782
0.0033176192
0.0033175909
0.0033165212
0.0033155569
0.0033174617
0.003313241
0.0033126111
0.0033127182
0.0033140134
0.0033139892
0.0033158039
0.0033096731
0.0033100769
0.0033163521
0.0033277191
0.0033364298
0.0033135817
0.0032980756
0.0032964682
0.0032803613
0.0033237122
0.0033800266
0.0034020936
0.0035607235
0.0039773596
0.0040513192
0.0041557622
0.0038545972
0.0034297534
0.0032131554
0.0030262774
0.0031277403
0.0029849256
0.0031228692
0.0029692098
0.0031196327
0.0029572346
0.0031219285
0.0029526056
0.0031194009
0.0029458194
0.0031186873
0.0029430948
0.0031257408
0.0030955764
0.0030919056
0.0030179758
0.0028216492
0.0029992365
0.0030201412
0.0030186115
0.0030224361
0.0030195533
0.0030160847
0.0030144244
0.0030201934
0.0030187444
0.0030209725
0.0030186051
0.0030217549
0.0030211204
0.0030193764
0.0030189396
0.0030230444
0.0030193935
0.0030202473
0.0030206044
0.0030257228
0.0030195336
0.0030175402
0.003016124
0.0030249351
0.00302161
0.0030233188
0.0030035102
0.0027953078
0.0030172699
0.0030405915
0.0030359316
0.0030354068
0.0030406144
0.0030352026
0.0030389269
0.0030346494
0.0030407506
0.0030349799
0.0030362621
0.0030364586
0.0030397594
0.0030353089
0.0030347376
0.0030355506
0.0030401799
0.0030369426
0.0030389469
0.0030394347
0.0030373523
0.0030377503
0.0030347208
0.0030358868
0.0030398228
0.0030339139
0.003033943
0.0030358434
0.0030394884
0.0030344728
0.0030353789
0.0030365997
0.0030390483
0.0030360996
0.0030342609
0.0030359968
0.0030403359
0.0030362189
0.003035526
0.003037856
0.0030348614
0.0030318174
0.0030304251
0.0030307932
0.0030306973
0.003029791
0.0030289791
0.0030307501
0.0030304364
0.0030297068
0.0030282333
0.0030312291
0.003031531
0.0030294757
0.0030298251
0.0030289288
0.0030290525
0.0030308513
0.0030271735
0.0030321278
0.003030065
0.0030292851
0.0030272911
0.0030294461
0.0030289839
0.0030272894
0.0030267598
0.0030274195
0.0030239092
0.0030015727
0.002794086
0.002980571
0.0027994483
0.0029849398
0.0028005065
0.0029904483
0.0028067545
0.0029958686
0.0028129168
0.0029991855
0.0028221544
0.0030027629
0.0028232385
0.0030014667
0.0028226735
0.0030018171
0.0028246957
0.0029993959
0.002826266
0.0030074571
0.002827994
0.0030039076
0.0028268112
0.0030008785
0.0028373926
0.0030252059
0.0030559375
0.0030719025
0.0030915853
0.0031024392
0.0030613377
0.003031705
0.0029812186
0.0029738389
0.0029391649
0.0029711181
0.0029814185
0.0030009942
0.0030062576
0.0030043039
0.0029406314
0.0029965679
0.0029661649
0.002997726
0.0029449518
0.0030072209
0.0029703857
0.0030149035
0.0029350141
0.0029697002
0.0029178765
0.002949559
0.0028981981
0.0029174723
0.0028857639
0.0028915676
0.0028592966
0.0028939798
0.0029686052
0.0029558386
0.0029446059
0.0029735385
0.0030120479
0.0029643232
0.0029885645
0.0029897078
0.003016561
0.0029948853
0.0029978763
0.0030064895
0.0030395035
0.0029847497
0.0030082516
0.0030212036
0.0030384733
0.0030322503
0.0030253158
0.0030106024
0.0030220521
0.0030103763
0.0030415571
0.0030389183
0.0030750817
0.003102455
0.0031635788
0.0031714814
0.0031162209
0.0030704863
0.0030692783
0.0030582497
0.0030545239
0.0030516138
0.0030408931
0.0030703441
0.0030701806
0.0030590438
0.0030607923
0.0030524524
0.0030563978
0.0030724865
0.0030376336
0.0030548556
0.0030454826
0.0030318303
0.0030285418
0.003046349
0.0030308385
0.003059147
0.0030396154
0.0030376242
0.0029894593
0.0030085623
0.0029448044
0.0029381531
0.003061422
0.0030126987
0.0030095796
0.0029989342
0.0030031832
0.002993928
0.0030234221
0.0030436432
0.0030526107
0.0030186135
0.0030225622
0.0030249712
0.0030452421
0.0030056631
0.0030197277
0.0030651382
0.003063253
0.0030535902
0.0030609577
0.0030358377
0.0030862178
0.0030370607
0.0030624048
0.0030588234
0.0030790319
0.0030900062
0.0031787523
0.0031819184
0.0030993772
0.003060194
0.0030698937
0.0030428061
0.003026513
0.0030681448
0.0030462196
0.003051296
0.0030530688
0.0030676002
0.0030553444
0.0030326133
0.0030085283
0.0030546687
0.0030360561
0.003016013
0.0030316099
0.0030587251
0.003066108
0.0030371668
0.0029992624
0.0030187498
0.0030080315
0.0030521061
0.0030391498
0.0030624389
0.002932951
0.0029649185
0.0030394714
0.0029953198
0.0030197714
0.0030295857
0.0030406097
0.0030154973
0.0030498347
0.0030586898
0.0030468781
0.0030317637
0.0030330955
0.0030121667
0.0030536324
0.0029964417
0.0030257744
0.0030610963
0.0030654285
0.0030241405
0.0030251453
0.0030538596
0.0030933115
0.0030622473
0.0030764236
0.0030935039
0.0030834943
0.0031012518
0.0031832289
0.0031871928
0.00310418
0.0030715652
0.0030852488
0.003067239
0.0030480995
0.0030636955
0.0030354533
0.003067579
0.003050905
0.003056428
0.0030486896
0.0030370927
0.0030170303
0.0030397539
0.0030184762
0.003064594
0.003039194
0.0030386436
0.0030605266
0.003040932
0.0030239727
0.0030335551
0.0030396261
0.0030622848
0.0030445754
0.0030590387
0.0029512239
0.0029269519
0.0030522541
0.0030146206
0.0030160129
0.0030135997
0.0030408167
0.0029938636
0.0030368124
0.0030607693
0.0030645797
0.0030444469
0.0030541142
0.0030616432
0.0030590315
0.0030201559
0.0030514159
0.0030701841
0.0030620097
0.003053557
0.0030619907
0.0030481431
0.0030751645
0.0030029043
0.0030432832
0.0030705631
0.0030691182
0.0031026971
0.0031855349
0.0031759918
0.0031024613
0.0030920089
0.0030779125
0.0030446011
0.0030323405
0.0030769122
0.0030702846
0.0030648239
0.0030660953
0.0030625994
0.003082216
0.0030623607
0.0030170479
0.0030773382
0.0030736969
0.0030418105
0.0030530832
0.003078352
0.0030712735
0.0030489812
0.0030198259
0.0030480205
0.0030393445
0.0030072558
0.0030276824
0.0030722851
0.0029648202
0.002951608
0.0030459796
0.0030150542
0.0029998079
0.0030041201
0.0030561369
0.0030324192
0.003035602
0.0030562949
0.0030663374
0.0030205497
0.003034539
0.0030436402
0.0030858506
0.0030242498
0.0030478341
0.0030759028
0.0030802653
0.0030636839
0.003071754
0.0030624262
0.0030874758
0.0030464938
0.0030569658
0.0030507614
0.0030913301
0.0031222721
0.003180135
0.0031779457
0.0031321451
0.0031026169
0.0030748019
0.0030644897
0.0030588211
0.0030942531
0.0030739258
0.0030448435
0.0030620259
0.0030625663
0.0030906952
0.0030615947
0.0030349925
0.0030515238
0.0030406445
0.0030632088
0.0030484542
0.00303621
0.0030577613
0.0030451192
0.0030366914
0.0030529896
0.0030320284
0.0030341872
0.0030452116
0.0030661669
0.0029772703
0.0029408466
0.0030566273
0.0030132846
0.0030131166
0.0030229657
0.0030398107
0.0030480079
0.0030803941
0.003077523
0.0030740961
0.0030622438
0.0030586536
0.0030258942
0.003049489
0.0030110657
0.0030703467
0.0030836544
0.0030796828
0.0030262797
0.003027378
0.0030587251
0.0030949131
0.003048187
0.0030527231
0.0030684924
0.0031104008
0.0031175964
0.0031770295
0.0031809894
0.0031209849
0.0030980997
0.003090724
0.0030563605
0.003042531
0.0030686467
0.0030346208
0.0030824766
0.0030518235
0.003116931
0.0030889357
0.0030279388
0.0030083707
0.0030732219
0.0030619668
0.0030662434
0.0030793692
0.00307083
0.0030756291
0.0030596828
0.0030331402
0.003074786
0.003053518
0.0030444053
0.0030283245
0.0030724598
0.002959263
0.0029569027
0.0030674248
0.0030060522
0.0030265313
0.0030331389
0.0030597156
0.0030457001
0.0030636376
0.0030574265
0.0030598725
0.0030568873
0.0030524839
0.0030624906
0.0030768591
0.00300505
0.0030395492
0.0030202394
0.0030714001
0.003043572
0.0030370116
0.0030704043
0.0030842931
0.0030399477
0.0030643876
0.0030837248
0.0030963818
0.0031410018
0.0031770683
0.0031815329
0.0031239608
0.0030817581
0.0030784991
0.0030634886
0.0030674214
0.0030506311
0.0030610634
0.0030789323
0.0030734906
0.0030672093
0.0030465571
0.0030722528
0.0030374599
0.00307042
0.0030877099
0.0030605799
0.0030578206
0.0030401252
0.0030660236
0.0030334037
0.0030428729
0.00304436
0.0030338477
0.0030431712
0.003034386
0.0030470068
0.00294043
0.0029506808
0.0030856106
0.0030554906
0.0030647473
0.003037683
0.003063112
0.0030392767
0.0030587836
0.0030372727
0.0030409041
0.0029983501
0.0030203422
0.003051119
0.0030627963
0.0030350971
0.0030615843
0.0030443872
0.003059326
0.003068373
0.0030914123
0.0030844769
0.0030798268
0.0030298266
0.0030547882
0.0030671413
0.0030808955
0.0030950851
0.0031715342
0.0031789435
0.0031183295
0.0030899251
0.0030640233
0.0030768153
0.0030507295
0.0030703119
0.0030764117
0.0030341362
0.0030521151
0.0030673597
0.0030829583
0.0030477379
0.0030191371
0.0030582168
0.0030601453
0.0030396889
0.0030205814
0.0030813857
0.0030456429
0.0030402823
0.0030550525
0.0030445619
0.0030330998
0.0030652531
0.0030596366
0.0030518084
0.002944377
0.0029799251
0.0030619551
0.0030189643
0.0030483073
0.0030472485
0.0030558524
0.0030292117
0.0030534036
0.0030365134
0.0030627529
0.003039177
0.0030581575
0.0030738496
0.0030742146
0.0030353341
0.0030791292
0.0030570154
0.0030578583
0.0030494765
0.0030577615
0.0030662591
0.0030708888
0.0030425818
0.0030674882
0.0030760184
0.003085725
0.0031186825
0.0031744073
0.0031808677
0.003120441
0.0030764634
0.0030774682
0.0030550935
0.0030645406
0.00304934
0.0030493758
0.0030541521
0.0030573809
0.0030800854
0.0030643556
0.0030463449
0.0030258234
0.0030808551
0.0030907096
0.003049656
0.0030371496
0.0030689385
0.0030471874
0.0030566452
0.0030533266
0.0030713143
0.0030483758
0.0030441569
0.0030316244
0.0030487787
0.0029594021
0.0029269282
0.0030575398
0.0030355764
0.0030592846
0.0030293187
0.0030874082
0.0030495838
0.0030625133
0.0030600654
0.0030836458
0.0030417609
0.0030481146
0.0030472909
0.0030408461
0.0030398101
0.00308766
0.003081737
0.0030537198
0.0030472004
0.0030715544
0.0030648664
0.0030736112
0.0030511205
0.0030866345
0.0030560978
0.0030853273
0.0031174034
0.0031768829
0.0031746906
0.0031025579
0.0030801962
0.0030646692
0.0030495481
0.0030328967
0.0030920607
0.0030702313
0.0030497464
0.0030572266
0.003079594
0.0030709263
0.0030441644
0.0030204791
0.0030605733
0.0030600269
0.0030481028
0.0030424736
0.003062215
0.0030618246
0.0030505695
0.0030379678
0.0030698906
0.0030533479
0.0030624902
0.0030554012
0.0030606076
0.0029416527
0.0029529514
0.0030584059
0.0030341105
0.0030370956
0.0030390499
0.0030365359
0.0030255276
0.0030293277
0.0030447373
0.0030484241
0.0030089271
0.003027169
0.0030461251
0.0030567442
0.0030256631
0.0030316456
0.0030439584
0.0030562085
0.003037045
0.0030282461
0.0030659436
0.0030791032
0.0030445093
0.0030750674
0.0030665717
0.0031056526
0.0031031286
0.0031709936
0.003184691
0.0031101177
0.0030678897
0.0030520315
0.0030836124
0.0030462204
0.0030634192
0.0030349207
0.003069434
0.0030544133
0.0030539432
0.0030444162
0.0030357026
0.003061713
0.0030750259
0.0030540996
0.0030564366
0.0030505131
0.0030298957
0.003057226
0.0030658835
0.0030456961
0.0030685753
0.0030506656
0.0030545188
0.0030489216
0.003051302
0.0029563071
0.0029236042
0.0030750774
0.0030420467
0.0030437052
0.0030273241
0.0030292075
0.0030379162
0.0030562877
0.0030569224
0.0030580426
0.0030550785
0.0030576489
0.0030606954
0.0030588188
0.0030545309
0.0030807483
0.0030620111
0.0030722754
0.0030461775
0.0030681158
0.0030679542
0.003056532
0.0030435125
0.0030669431
0.0030543231
0.003076137
0.0030842639
0.0031793881
0.0031774533
0.0031003147
0.0031183634
0.0030744868
0.0030790562
0.0030678952
0.0030698216
0.0030595318
0.0030331703
0.0030366042
0.0030789071
0.0030724573
0.0030440666
0.0030377855
0.0030677697
0.003060516
0.0030432627
0.0030434626
0.0030725731
0.0030682598
0.0030737439
0.00305171
0.0030421974
0.0030559588
0.0030591753
0.0030667933
0.0030558083
0.002928221
0.0029529298
0.0030498997
0.0030451737
0.0030326127
0.0030320169
0.0030626842
0.0030413035
0.0030505334
0.0030582278
0.0030693429
0.0029997572
0.0030230224
0.0030419071
0.0030641183
0.0030159867
0.0030555733
0.0030600274
0.0030747098
0.0030431815
0.0030352535
0.0030580257
0.0030702288
0.0030306256
0.0030448096
0.0030758438
0.0030828217
0.0030960063
0.0031849679
0.0031779803
0.0031045394
0.0030864803
0.0030857119
0.0030709248
0.0030654026
0.0030600486
0.0030593556
0.0030614838
0.003048649
0.0030589908
0.0030779383
0.0030641084
0.0030443822
0.0030748736
0.0030508228
0.0030353781
0.0030159007
0.0030691067
0.0030722801
0.0030722272
0.003069668
0.0030371329
0.0030415211
0.0030544596
0.0030375745
0.003036973
0.0029433443
0.0029493787
0.00305857
0.0030300356
0.0030372916
0.0030442965
0.0030482775
0.0030695015
0.0030467332
0.0030335587
0.0030657269
0.0030611578
0.0030796655
0.0030803702
0.003070183
0.0030371116
0.0030578084
0.0030358088
0.0030547811
0.0030354343
0.0030467077
0.0030482511
0.0030652322
0.0030526053
0.0031003422
0.0030725951
0.0030623157
0.003093114
0.0031823358
0.0031888451
0.0031096631
0.0030937744
0.0030885488
0.0030578091
0.0030259211
0.0030804856
0.0030698258
0.0030503925
0.0030343344
0.0030752376
0.0030661244
0.0030621974
0.0030212588
0.0030713629
0.0030866398
0.003056582
0.0030489905
0.0030659153
0.0030436377
0.0030884273
0.0030870086
0.0030801705
0.0030807013
0.0030644477
0.0030746228
0.0030828441
0.0029606614
0.0029739394
0.0030602166
0.0030336917
0.0030423266
0.0030496236
0.0030707388
0.0030484097
0.0030541169
0.0030780768
0.0030719735
0.003035884
0.0030465288
0.0030562846
0.0030596203
0.0029975715
0.0030302758
0.0030574077
0.0030602159
0.0030208555
0.0030414855
0.0030366183
0.0030809977
0.00305508
0.0030767817
0.0030897662
0.0030756826
0.0031032652
0.0031845918
0.0031701398
0.0031027312
0.0031042894
0.003096034
0.0030577853
0.0030557146
0.0030934062
0.0030729066
0.0030705731
0.0030472811
0.003077937
0.0030640662
0.0030835454
0.0030535464
0.0030723868
0.0030762692
0.0030511265
0.0030522531
0.0030756757
0.0030475599
0.0030951525
0.0030897876
0.0030724027
0.0030720823
0.0030697947
0.0030619214
0.0030645962
0.002994162
0.002957918
0.0030704922
0.0030515168
0.003055058
0.0030489143
0.0030555851
0.0030798948
0.0030762509
0.0030778769
0.0030697508
0.0030230269
0.0030530721
0.0030466129
0.0030406176
0.0030610586
0.0030621366
0.0030658697
0.0030862502
0.0030729448
0.0030702264
0.0030456095
0.003082539
0.0030478817
0.003066453
0.0030568277
0.0030807909
0.0031088995
0.0031693632
0.0031772819
0.003107866
0.0030733213
0.003076788
0.0030895716
0.0030630893
0.0030770483
0.00304981
0.0030780537
0.0030956956
0.0030664879
0.0030541042
0.0030784547
0.0030838458
0.0031000789
0.0030552634
0.0030413191
0.0030540224
0.003083826
0.0030822785
0.0030681771
0.0030627677
0.0030402807
0.0030667932
0.0030463664
0.0030893181
0.0030635896
0.0029825618
0.003013884
0.0030673468
0.0030467751
0.0030417847
0.0030493309
0.0030668674
0.0030430117
0.0030583476
0.0030646006
0.0030663927
0.0030447219
0.0030495956
0.0030485396
0.0030644876
0.0030683548
0.0030650142
0.0030574893
0.003056634
0.0030493605
0.0030738652
0.0030638772
0.0030638928
0.0030674182
0.0030753505
0.0030983043
0.0030846171
0.0031099336
0.0031840184
0.0031912724
0.003110065
0.0030887059
0.0030998488
0.003076045
0.0030775281
0.0030445813
0.0030606426
0.0030727207
0.0030677972
0.003063098
0.0030831538
0.0030807193
0.0030723809
0.0030767073
0.0030714958
0.003042473
0.0030405009
0.0030685436
0.0030531059
0.0030460512
0.0030509148
0.0030671642
0.0030663454
0.0030489011
0.0030585119
0.0030411709
0.0029830059
0.0029597083
0.0030819339
0.0030618801
0.0030548945
0.0030832298
0.0030780568
0.0030455825
0.0030532767
0.0030770828
0.0030855814
0.003045594
0.0030649044
0.003073387
0.0030905688
0.0030484391
0.003081382
0.0030776624
0.0030507725
0.0030502581
0.0030550443
0.0030627473
0.0030540143
0.0030648431
0.0030776994
0.0030894864
0.0031247752
0.0031245474
0.003178039
0.0031735578
0.0031095548
0.0030876512
0.003083175
0.0030800349
0.0030594613
0.0030821201
0.003072541
0.0030605829
0.0030567614
0.0030548606
0.0030755268
0.0030381173
0.003039052
0.0031026398
0.00305111
0.0030624484
0.0030659656
0.0030654148
0.0030788713
0.0030492313
0.0030580727
0.0030827603
0.0030934112
0.0030601662
0.0030811135
0.0030715569
0.0029610385
0.002997921
0.0030882835
0.0030579251
0.0030392984
0.0030820085
0.0030792055
0.0030455444
0.0030521374
0.0030631284
0.0030607815
0.0030584778
0.0030481544
0.0030660082
0.0031140605
0.003058695
0.0030606351
0.0030768326
0.0030442299
0.0030471303
0.0030458461
0.0030757748
0.0030876893
0.0030417116
0.0030487701
0.0030851443
0.0031059654
0.0031248529
0.0031798191
0.0031939635
0.0031163873
0.0030757538
0.0030774218
0.0030854688
0.0030717379
0.003063105
0.0030761967
0.0030481766
0.0030548901
0.0030848741
0.0030760983
0.0030720125
0.0030695851
0.0030915321
0.0030734357
0.0030627558
0.0030544387
0.0030465556
0.0030567058
0.0030478694
0.0030559383
0.0030701718
0.0030458068
0.0030291477
0.0030534945
0.0030676382
0.0029847334
0.002960252
0.003097818
0.0030764161
0.0030488477
0.0030476504
0.0030807224
0.0030556149
0.0030588544
0.0030541206
0.0030711219
0.0030605874
0.0030812415
0.003063888
0.0030790318
0.0030402948
0.003057865
0.0030617271
0.003091703
0.0030444952
0.0030499611
0.0030466889
0.0030752551
0.0030384008
0.0030485672
0.0030657094
0.0030753665
0.003100336
0.003186878
0.0032098609
0.0031173881
0.0031107731
0.0030831765
0.0030746099
0.003046714
0.0030557112
0.0030808858
0.003046708
0.0030564587
0.0030821129
0.0030670869
0.0030796555
0.0030574496
0.0030621026
0.0030807667
0.0030557865
0.0030624648
0.0031077613
0.003085281
0.0030551298
0.0030445637
0.0030686631
0.0030578945
0.0030657554
0.0030818794
0.0030605794
0.0029510875
0.0030088317
0.0030786747
0.0030449391
0.0030336054
0.0030650961
0.0030719399
0.003023241
0.003038624
0.0030423621
0.0030601175
0.0030322116
0.0030288482
0.003052631
0.0030827306
0.0030610704
0.0030873521
0.0030715097
0.0030663956
0.0030867193
0.00308738
0.0030628545
0.0030700976
0.0030380768
0.0030475612
0.0030769677
0.0030990985
0.0031154776
0.0032021288
0.0031931701
0.0031195923
0.003112788
0.003089447
0.0030847587
0.0030639146
0.0030342578
0.0030782328
0.0030402945
0.003062564
0.0030777315
0.0031100335
0.0030485788
0.0030544116
0.0031032237
0.0030593434
0.0030613974
0.0030632625
0.0030753006
0.0030911482
0.0030646596
0.0030534627
0.0030509926
0.0030647923
0.0030609293
0.0030624231
0.0030489805
0.0029748862
0.0029503726
0.0030863708
0.0030901747
0.003053613
0.0030538957
0.0031015913
0.0030650427
0.0030640734
0.003064262
0.0030790602
0.0030792756
0.0030827187
0.0030680788
0.0031041078
0.0030355249
0.0031023182
0.0030940978
0.0030905474
0.0030618537
0.0030553722
0.0030883838
0.0030759904
0.0030596063
0.0030902268
0.0030914627
0.0031089174
0.0031225803
0.0031900355
0.0032140015
0.0031470482
0.0031320456
0.0031164149
0.0030970997
0.0030928993
0.0031126205
0.003105223
0.0030866423
0.0030660495
0.0030900647
0.0030772057
0.0030638071
0.0030324647
0.003077841
0.0030669423
0.0030706536
0.0030631001
0.0030870539
0.0030737744
0.0030705212
0.003057184
0.0030833905
0.0030516052
0.0030627804
0.0030750394
0.0030501233
0.0029427447
0.0030191892
0.003102776
0.0030370419
0.0030283224
0.003072242
0.0030779578
0.0030448568
0.0030685073
0.0030783486
0.0030804548
0.0030359504
0.0030433451
0.0030725003
0.0030710109
0.0030503065
0.0030680476
0.0030742159
0.0030824759
0.003051347
0.0030545106
0.0030860003
0.0031236855
0.003129109
0.0031418663
0.0031604255
0.00318297
0.0031989467
0.0032701745
0.0034070429
0.0033302453
0.003242813
0.0032317238
0.0032293237
0.0031720391
0.0031343765
0.0030895523
0.0030818084
0.0030683911
0.0030768352
0.0030688075
0.0030624254
0.0030553294
0.003076813
0.003071454
0.0030473892
0.0030393416
0.0030602111
0.003082947
0.0030500894
0.0030519584
0.0030919054
0.0030813862
0.0030604985
0.0030391739
0.0030384846
0.002972421
0.0029682711
0.0030725048
0.0030435704
0.0030515772
0.003076113
0.0030659059
0.0030489107
0.0030512676
0.0030863308
0.0030644825
0.0030250874
0.0030592102
0.003082261
0.0030714359
0.0030563684
0.0030820391
0.0030775616
0.0030664484
0.0030646649
0.0031027137
0.0031220381
0.0031493602
0.0032195462
0.0033247446
0.0034145722
0.0033960801
0.0034506752
0.0035610226
0.0037885181
0.0037373127
0.0037138671
0.0035127838
0.003354482
0.0032425724
0.0031602281
0.0031177657
0.0030812886
0.0030680229
0.0030823502
0.0030868577
0.0030727077
0.0030603733
0.0030695793
0.003093641
0.0030399407
0.0030526612
0.0030986575
0.0030828195
0.0030580525
0.0030604624
0.0030686084
0.0030730804
0.0030559757
0.0030643996
0.0030818244
0.0029966948
0.0029756778
0.0030698559
0.003062457
0.003093822
0.0030853458
0.0030608218
0.0030462297
0.0030187405
0.0030530828
0.0030566301
0.0030275701
0.0030648429
0.0030827974
0.0030962647
0.0030534739
0.0030558242
0.003069259
0.0030768246
0.0030437738
0.0030854496
0.0031150576
0.0031645066
0.0032451514
0.0033484086
0.0034652244
0.0036751361
0.003938374
0.0039628315
0.0039508442
0.003695934
0.0034571976
0.0033300251
0.0032407098
0.0031721281
0.0031247136
0.0031176701
0.0030839647
0.0030658153
0.0030688077
0.0030684712
0.0030564769
0.0030714277
0.0030666849
0.0030865212
0.0030518154
0.0030567916
0.003089682
0.0030831479
0.0030582494
0.0030507308
0.003057266
0.0030602839
0.0030444898
0.0030493396
0.0030747004
0.0030151093
0.0030097582
0.0030924467
0.0030686289
0.0030624536
0.0030732864
0.0030667752
0.0030729235
0.0030587059
0.0030608572
0.0030954933
0.0030767694
0.0030720941
0.0030578734
0.0030739579
0.0030010255
0.0030561863
0.003092304
0.0030775115
0.0030812377
0.0030716747
0.0030909345
0.0031029755
0.0031305571
0.0031634837
0.0032057541
0.0032755067
0.0033871364
0.0036094044
0.0033224308
0.0032266433
0.0031705313
0.0031403699
0.0031025703
0.0030986566
0.0031125248
0.0031155976
0.0030688591
0.0030814678
0.0030909103
0.0031200882
0.0030334238
0.003030548
0.0030817002
0.0030787175
0.0030659656
0.0030869868
0.0030729792
0.0030676914
0.0030553937
0.0030539109
0.0030883182
0.003087373
0.0030528585
0.0030841305
0.0030845031
0.002983067
0.0030131119
0.0030858196
0.003044494
0.0030287047
0.0030419194
0.0030767008
0.0030442186
0.0030428447
0.0030791955
0.0031058555
0.0030733112
0.0030633596
0.0030636699
0.0030612734
0.0030164023
0.0030507369
0.0030786896
0.0030604905
0.0030444339
0.0030544219
0.0030818259
0.0030853026
0.0030782953
0.0030941603
0.003116692
0.0031249758
0.0031247787
0.0031704727
0.0031211975
0.0031029314
0.0030768063
0.0030832059
0.0030662684
0.0030707593
0.0030872882
0.0030808876
0.0030470313
0.0030603566
0.0030856552
0.003121744
0.0030449619
0.0030221087
0.0030949512
0.0030873992
0.0030630106
0.003065294
0.0030360913
0.0030492595
0.0030738284
0.0030495994
0.0030514991
0.0030656054
0.0030666751
0.00308417
0.003061984
0.0029737372
0.0029742348
0.0030890501
0.0031022525
0.0030765308
0.00308357
0.0030954597
0.003032575
0.0030532628
0.0030870157
0.0030679596
0.0030268215
0.0030530169
0.0030599473
0.0030717394
0.0030259595
0.0030551633
0.0030800535
0.0030971083
0.0030614312
0.0030691981
0.0030692415
0.0030771239
0.0030490827
0.0030566944
0.0030569679
0.003072404
0.0030686283
0.0030672959
0.0030935832
0.003076432
0.0030887146
0.0030826193
0.0030538405
0.0030523493
0.0030690995
0.00306962
0.0030738612
0.0030619332
0.0030658676
0.0030689539
0.0030736742
0.0030388442
0.0030866857
0.0030634165
0.0030597972
0.0030505894
0.0030895331
0.0030947249
0.0030449068
0.0030107889
0.0030608975
0.003071377
0.0030788626
0.0031002614
0.0030493233
0.0029722938
0.0030256898
0.0030901504
0.003065682
0.0030484643
0.0030688894
0.0030802064
0.0030069105
0.0030277287
0.0030839999
0.0030754638
0.0030458529
0.0030714354
0.0030678077
0.0030906806
0.0030414914
0.0030852634
0.0030774479
0.0030954863
0.0030566731
0.0030631659
0.0030692058
0.0030802231
0.00304142
0.0030421913
0.0030631493
0.0030843214
0.0030412083
0.0030695658
0.0030995632
0.0030460198
0.003069275
0.0030555917
0.0030654979
0.0030469526
0.0030517966
0.0030707366
0.0030540151
0.0030544533
0.003069115
0.0030784012
0.0030641708
0.0030467589
0.0030975623
0.0030736658
0.0030580423
0.0030509603
0.0030704948
0.0030716046
0.00303708
0.0030142572
0.0030665474
0.0030758606
0.0030749292
0.0030682932
0.0030350268
0.0029806049
0.0029756514
0.003088799
0.0030752249
0.0030764827
0.0030716399
0.0030682829
0.0030514838
0.0030824311
0.0030601157
0.0030781885
0.0030471905
0.0030554063
0.0030433306
0.0030813915
0.0030403859
0.0030778733
0.0030975825
0.0030573374
0.0030508863
0.0030812143
0.0030653825
0.0030632147
0.0030500049
0.0030879926
0.0030776061
0.0030569293
0.0030412557
0.0030487151
0.0030537058
0.0030791677
0.0030673069
0.0030781187
0.0030532076
0.0030569914
0.0030902497
0.0030541554
0.0030517444
0.0030521119
0.0030792382
0.0031028585
0.0030652852
0.0030566063
0.0030683414
0.0030410639
0.0030541818
0.0030370781
0.0030822445
0.0030619316
0.0030605258
0.0030597101
0.0030862987
0.0030732415
0.0030563194
0.0030786108
0.0030435986
0.0029663343
0.003032725
0.0030860429
0.0030301587
0.0030499612
0.0030552287
0.0030656903
0.0030390725
0.0030729803
0.0030265018
0.0030658295
0.0030396966
0.0030259786
0.0030643925
0.0030949506
0.0030327916
0.0030666224
0.0030749527
0.0030477254
0.0030315933
0.0030668193
0.0030613984
0.0030708639
0.003081243
0.0030785647
0.003072187
0.0030747666
0.0030659058
0.0030754829
0.0030723317
0.0030626731
0.0030526594
0.0030574369
0.0030581165
0.0030595437
0.0030680649
0.0030539748
0.0030635413
0.0030433139
0.0030903703
0.0030860579
0.0030444137
0.0030284176
0.003038922
0.0030468433
0.0030524832
0.003069864
0.0030297262
0.0030322836
0.0030809812
0.0030555819
0.0030543411
0.0030625176
0.003054336
0.0030440503
0.0030333803
0.0029712386
0.003012144
0.0030909718
0.0030433749
0.0030712563
0.0030702196
0.0030743248
0.0030564037
0.0030626525
0.0030515436
0.0030596905
0.0030598415
0.0030941969
0.0030901236
0.0030788367
0.0030811728
0.0030604599
0.0030736293
0.0030755063
0.0030330752
0.0030463495
0.0030351988
0.0030549819
0.0030447283
0.0030642829
0.0030670036
0.0030743424
0.0030365886
0.0030478992
0.0030729994
0.0030721834
0.0030609127
0.0030641971
0.0030612384
0.0030447804
0.0030699485
0.0030507525
0.0030575754
0.0030253122
0.0030683289
0.0030771894
0.0030621924
0.003052932
0.0030439962
0.0030515569
0.0030591622
0.0030432164
0.0030736044
0.0030623659
0.0030747268
0.0030608243
0.0030547439
0.0030521268
0.0030708108
0.0030578784
0.0030696793
0.0029859374
0.0030320317
0.0030939242
0.0030462177
0.0030681461
0.0030682866
0.0030852899
0.0030309609
0.0030855315
0.0030811341
0.0030872419
0.0030349697
0.0030842581
0.0030384746
0.0030736386
0.0030198413
0.0030367117
0.0030479654
0.0030509118
0.0030507829
0.0030549452
0.0030406026
0.003064587
0.0030364838
0.003077691
0.003080615
0.0030960954
0.0030361543
0.0030498985
0.0030569795
0.0030677116
0.0030730332
0.0030610413
0.0030384472
0.0030368268
0.0030837039
0.0030594077
0.0030638583
0.0030604877
0.0030792396
0.0030533568
0.0030627706
0.0030411331
0.0030213739
0.0030513611
0.0030484322
0.003060271
0.0030772291
0.0030925205
0.0030569865
0.00302958
0.0030564725
0.0030807182
0.0030620794
0.0030562006
0.0030502346
0.0029899403
0.0029891552
0.0030234829
0.0030562337
0.0030383025
0.0030441498
0.0030877764
0.0030397645
0.0030749019
0.0030141744
0.0030624298
0.0030519568
0.00306243
0.0030355614
0.0030504029
0.003005526
0.0030421212
0.0030448918
0.0030489446
0.0029995228
0.0030558292
0.003043491
0.0030438567
0.0030117969
0.003058465
0.0030444552
0.0030625185
0.0030083876
0.0030719524
0.003075554
0.0030185068
0.0030580355
0.0030560557
0.0030403121
0.0030290865
0.0030654055
0.0030615906
0.0030472041
0.0030398499
0.003056715
0.0030368425
0.0030495944
0.003020614
0.002998456
0.0030227099
0.0030495376
0.0030070682
0.0030445819
0.003024558
0.0030650778
0.0030329079
0.0030709641
0.0030214658
0.0030527613
0.0030585533
0.003069984
0.0030360244
0.003001951
0.0030086051
0.0029975365
0.0030179965
0.0029680675
0.0029720571
0.0029876815
0.0030348905
0.0029999968
0.0029976863
0.0029905571
0.0030161909
0.0029812263
0.0029903817
0.0029870899
0.0029974004
0.0029845114
0.0029958394
0.0029754612
0.0029956595
0.0029489106
0.0029735216
0.0029759084
0.0030143078
0.0029759483
0.0030041712
0.0029774708
0.0029854736
0.0029786703
0.0030870747
0.0030825912
0.0030791034
0.0030772031
0.0030765476
0.0030767662
0.0030772492
0.0030778082
0.0030783473
0.0030788636
0.0030793702
0.0030798846
0.0030804236
0.0030809877
0.0030815698
0.0030821909
0.0030828362
0.0030835042
0.0030841883
0.0030849025
0.0030856483
0.0030864243
0.0030872357
0.0030881114
0.0030890447
0.0030900486
0.003091138
0.0030923365
0.0030936796
0.0030952102
0.0030969711
0.0030990166
0.0031014365
0.0031043146
0.0031077687
0.0031119535
0.0031170666
0.003123348
0.0031310986
0.003140703
0.0031526228
0.0031674514
0.0031859331
0.00320898
0.0032376945
0.0032734399
0.0033178557
0.0033729312
0.0034410774