/*--------------------------------*- C++ -*----------------------------------*\
| =========                 |                                                 |
| \\      /  F ield         | OpenFOAM: The Open Source CFD Toolbox           |
|  \\    /   O peration     | Version:  v2012                                 |
|   \\  /    A nd           | Website:  www.openfoam.com                      |
|    \\/     M anipulation  |                                                 |
\*---------------------------------------------------------------------------*/
FoamFile
{
    version     2.0;
    format      ascii;
    class       volScalarField;
    location    "100";
    object      p;
}
// * * * * * * * * * * * * * * * * * * * * * * * * * * * * * * * * * * * * * //

dimensions      [0 2 -2 0 0 0 0];


internalField   nonuniform List<scalar> 
121349
(
0.060740867
0.057271768
0.054069944
0.051157948
0.04847079
0.045936446
0.04351975
0.04121112
0.039010864
0.036941615
0.035040369
0.033310736
0.031722173
0.030236435
0.028825636
0.027460714
0.026107678
0.02477006
0.023474104
0.022251824
0.021133578
0.02013177
0.019228713
0.01839511
0.017604165
0.016844423
0.016097404
0.015347956
0.014593064
0.013836758
0.013076413
0.012331354
0.011629703
0.010989124
0.010418538
0.0099061737
0.0094260805
0.0089589364
0.0084921441
0.0080202807
0.0075503325
0.007091278
0.0066368877
0.0061788237
0.0056821875
0.0051787086
0.0045868907
0.0040900597
0.0033533297
0.002708167
0.0015200183
0.00068543006
0.0006394195
0.00063189977
0.0010356978
0.0006531301
0.00074076935
0.00065847004
0.0006245669
0.00072927473
0.00073288047
0.00080500532
0.00068190649
0.00068343695
0.00067611151
0.00074229129
0.000629511
0.00072504237
0.00057906015
0.0006085723
0.00053989472
0.00057704337
0.00052220371
0.00048870123
0.0004352513
0.00050301544
0.00050954276
0.00043898901
0.00036308968
0.0003754784
0.0004251884
0.00035042969
0.00030053967
0.0002985324
0.00022391586
0.00026362168
0.00027010876
0.00035955721
0.00031032479
0.00034925289
0.00026686405
0.00014887926
4.4916761e-05
4.6537856e-05
9.9962034e-05
0.00021576005
0.00019298017
0.00010146624
-8.3762781e-05
6.0629624e-05
-0.00020868677
-1.382166e-05
2.4394163e-05
0.00021386521
0.00042743843
6.8008681e-05
-0.00010124115
-0.00027595114
-0.00030598977
-0.00037375985
-0.00034994412
-0.0003870559
-0.00037525443
-0.00042186995
-0.00040208974
-0.0004321844
-0.00040811367
-0.00043318121
-0.00041965085
-0.00043284033
-0.0004194663
-0.00044776707
-0.00043009187
-0.00045629216
-0.00044719453
-0.00048101144
-0.00048642363
-0.00049335394
-0.00047142348
-0.00050567266
-0.00048159678
-0.0004869111
-0.00046849922
-0.00049630552
-0.00047380671
-0.00049260404
-0.00047460573
-0.00048562106
-0.00048648452
-0.00049021329
-0.00049987513
-0.00051609671
-0.00051160927
-0.00053813649
-0.00052199644
-0.00055739989
-0.00055276857
-0.00056040249
-0.00056187908
-0.00054312455
-0.00049005977
-0.00049409247
-0.00050152197
-0.00048730821
-0.00048346228
-0.0004845025
-0.0005187741
-0.00047847548
-0.00051411314
-0.00046346628
-0.00049639941
-0.00044684586
-0.00047353544
-0.00042908729
-0.00045167847
-0.00041057668
-0.00042275241
-0.0003878803
-0.00040048788
-0.00037091257
-0.00036628152
-0.00036492311
-0.00035540316
-0.00031613063
-0.00033624399
-0.00025557954
-0.00030077203
-0.00023946891
-0.0002443164
-0.00022031424
-0.00022063821
-0.00019789719
-0.00017767574
-0.00017255134
-0.00016555371
-0.00012961295
-0.00011678371
-8.9042715e-05
-7.8243008e-05
-4.8023034e-05
-5.2049377e-05
-2.248662e-05
-2.3723647e-05
8.8491567e-06
1.7680849e-05
4.426751e-05
5.200221e-05
7.27209e-05
9.201299e-05
0.00010034805
0.00012004436
0.00013866623
0.00014563755
0.00016403417
0.00017707104
0.00018926292
0.00021096759
0.00021170089
0.00023156148
0.00022448756
0.00025653671
0.00024737257
0.00026981369
0.00026404304
0.00027402735
0.000262277
0.00026913884
0.0002672184
0.00029121099
0.0003015462
0.00029806814
0.00027578557
0.0002631606
0.0002764099
0.0002417886
0.00030070141
0.00023555663
0.00036481216
0.00022301267
0.0004601961
0.00019532471
0.00057695601
0.00012915475
0.0007275256
5.0946885e-05
0.00086980704
-5.3771816e-05
0.0010574505
-0.0001651944
0.0012073794
-0.00025806655
0.0012839215
-0.00025398369
0.0011999598
-0.00020862378
0.0010220167
-0.00023288015
0.0010067211
-8.2392952e-05
0.00084179074
0.00080288254
0.00069959065
0.00076834003
-0.00035811872
0.001199272
-0.00018938472
0.0011077893
-8.8273261e-05
0.0012315775
-0.00020472283
0.0013210211
-0.00024408637
0.001244608
-0.00013585085
0.0011400147
-2.4676658e-05
0.00090319146
9.801465e-05
0.00080618104
0.00015817089
0.00061078907
0.00021533476
0.00048420435
0.00023277575
0.00038725793
0.00025348763
0.00032698489
0.00026100883
0.00029318085
0.00030570476
0.00028432104
0.00033960578
0.00026024598
0.00039791031
0.0002415355
0.00051047064
0.00023775086
0.00064417064
0.00018474412
0.00085128579
0.0001389897
0.00094232165
1.8590329e-05
0.0011803648
-7.4729194e-05
0.0013029564
-0.00014320652
0.0013600639
-7.1700817e-05
0.0012500466
8.200434e-05
0.0011767548
-1.5989041e-05
0.0012904807
-0.00033201403
0.00075308538
0.00050463256
0.0004266544
0.00092109057
-0.00041090505
0.0013418043
-9.7182445e-05
0.0010926204
6.5717038e-05
0.001231006
-8.9522394e-05
0.0013632523
-0.00017781529
0.0012967645
-9.2803317e-05
0.0011651467
1.2854597e-05
0.0009165799
0.00014317213
0.00080966099
0.0002212457
0.00065959252
0.00024526859
0.00053077034
0.00026802012
0.00042401345
0.00028864076
0.00036511974
0.00028626096
0.00031309361
0.00032350679
0.00028554595
0.000352922
0.00029473112
0.00042249592
0.00028948956
0.00053682498
0.00025145375
0.00065898374
0.00024067445
0.00080303628
0.00014566328
0.0010073467
3.6853115e-05
0.0011664199
-5.4992686e-05
0.0013251938
-0.00012458641
0.0013809656
2.3583386e-05
0.0012592036
0.00021694424
0.0011469358
0.00010511381
0.0013960024
-0.0004484848
0.0010552467
0.00045448717
0.00037821848
0.00099226683
-0.00064911276
0.0012867459
2.3795027e-05
0.00099999631
0.000119732
0.0011061817
-6.5877546e-05
0.0013228145
-0.00018400393
0.0012699049
-0.00011117048
0.0011144829
2.039984e-05
0.0009738049
9.9431602e-05
0.00076583485
0.00019444122
0.00060659373
0.00026424414
0.00052086464
0.00025304381
0.00039927432
0.0002720365
0.00033169114
0.00027755017
0.00029478124
0.0002880344
0.00026538343
0.00031706777
0.00029067182
0.00038733238
0.00026492782
0.00054943358
0.00024369205
0.00062226386
0.00019897041
0.00078463705
9.9343201e-05
0.00095271763
2.4295874e-05
0.0011217002
-5.9926801e-05
0.0012890396
-0.00017403873
0.0013457968
-7.9218646e-06
0.0012634677
0.00020849619
0.0010168564
6.4024347e-05
0.001298931
-0.00059879672
0.0010828259
0.00045955373
0.00041900132
0.001003646
-0.00064095655
0.0013587454
3.4056132e-05
0.0010508174
0.00016943013
0.0011638257
-0.00011291736
0.0012824733
-0.00017090309
0.0012665796
-0.00011347559
0.0010480336
-3.177831e-05
0.00088755515
8.8051005e-05
0.00075026228
0.00017188871
0.00060997982
0.00021218852
0.00052936956
0.00022071869
0.00038025595
0.0002513328
0.00030677955
0.00025541045
0.00028160908
0.00028950529
0.00027713299
0.00031680931
0.00027306746
0.00039659532
0.00028410259
0.0005206142
0.00024076173
0.00062301898
0.00018695392
0.00076738427
0.00010375752
0.00093396037
-8.9620785e-06
0.0011155252
-9.9278805e-05
0.0012701405
-0.00012830233
0.0013526767
-4.2170952e-05
0.0011614171
0.00018196028
0.0010176883
6.5148196e-05
0.0012684522
-0.00060576151
0.0010448635
0.00048630149
0.00043355084
0.00098309928
-0.00064134259
0.0012644022
-1.0688352e-05
0.0010179522
0.00010807469
0.0011196031
-0.0001390847
0.001307428
-0.0001951663
0.0012432285
-0.00011966393
0.0010884618
-7.0591805e-05
0.00088907395
4.4550408e-05
0.00073314911
0.00013707692
0.00060425459
0.0001951939
0.00049083501
0.00022367516
0.00035295196
0.00023143973
0.00029415624
0.00024392938
0.00026641196
0.00028415774
0.00024913592
0.00031655559
0.00023240016
0.00039983077
0.0002305243
0.00050784897
0.00021171293
0.00061850849
0.00017379979
0.00076908286
0.00010388587
0.00093663262
-1.116308e-05
0.0011218073
-0.0001243697
0.0012446534
-0.00015640962
0.0013222048
-9.4132336e-05
0.0011540088
0.0001435281
0.0010343911
8.9772495e-05
0.0012976449
-0.00052313949
0.0010432206
0.0004943501
0.0003962267
0.00098403682
-0.00062920006
0.0012070485
8.9085278e-06
0.00089547703
1.8016143e-05
0.0010900431
-0.0001511487
0.0012798299
-0.00020015974
0.0012648206
-0.00014573449
0.0010906368
-7.3093663e-05
0.00089696943
4.4945172e-05
0.00072928348
0.00012526265
0.00056585334
0.00017903583
0.00045850397
0.00022165478
0.00033779558
0.00021521773
0.00029726208
0.00022418653
0.00025574859
0.00028797882
0.00021825573
0.00029637634
0.0002579655
0.00035264939
0.00023699023
0.00048630231
0.00020174595
0.00058790683
0.00014576459
0.00071118933
7.5117964e-05
0.00090503364
-1.9517315e-05
0.0011013476
-0.00015225573
0.0012280486
-0.0001906712
0.0013103245
-0.00012116038
0.0011584138
0.0001397842
0.00090838519
6.9105797e-05
0.0012323069
-0.00061279929
0.00099338576
0.00040673373
0.00036910197
0.0009386472
-0.00067680935
0.001153892
-5.578332e-05
0.00087301581
6.8148392e-05
0.0010503545
-0.0001611755
0.001312807
-0.00023990369
0.001236385
-0.00017800838
0.0010269862
-9.614269e-05
0.00086358884
1.2233738e-05
0.00067471158
0.0001041455
0.00055202509
0.0001814832
0.00044821231
0.00021174524
0.00035265534
0.0001970383
0.00026078607
0.00021847591
0.00024039857
0.00023922579
0.00020944913
0.00027039878
0.00018622996
0.00032339218
0.00022697936
0.00046173517
0.00019850356
0.00057342785
0.00010149367
0.00071003166
-7.2144262e-06
0.00089777556
-5.5774635e-05
0.0011646735
-0.0001785798
0.0012162878
-0.00021443884
0.0013060482
-0.00012739261
0.0011185732
0.00010710916
0.00094425715
-1.9209221e-05
0.0011260836
-0.00061740962
0.0010223844
0.00044196548
0.00032866432
0.00092344728
-0.00065508724
0.001126567
-3.670247e-05
0.00089487092
3.8440798e-05
0.0010956433
-0.00023630776
0.0011938979
-0.000258602
0.0011606894
-0.00020393712
0.0010364087
-0.00011617315
0.00083516248
-2.6186681e-05
0.0006779574
0.00010808174
0.00057270846
0.00015377201
0.00041508777
0.00015861647
0.00029097445
0.00018499274
0.00024478261
0.00019718944
0.00022654496
0.00022770759
0.00020725115
0.00025505735
0.00018112102
0.00031998101
0.00016318946
0.000420312
0.00011951003
0.00051581498
8.2103586e-05
0.00070169837
2.6212926e-05
0.00084720902
-0.00010173522
0.0010944632
-0.0001622203
0.0011897145
-0.00024033006
0.0012445209
-0.00017500116
0.0010876293
7.337854e-05
0.00090567932
-1.8167579e-05
0.0012107483
-0.0006013829
0.00097339878
0.0003784852
0.00031911728
0.00091028155
-0.0006284714
0.0011755875
-5.7378671e-05
0.00085506517
-4.4568949e-07
0.0010085856
-0.00026048947
0.0011555791
-0.00031262832
0.0011532831
-0.000252628
0.00093942843
-0.00014897228
0.00081010715
-3.1172337e-05
0.00062935933
4.2873525e-05
0.00053048349
0.0001243334
0.00039219031
0.00014155462
0.00027136224
0.000161186
0.00022601856
0.00017156569
0.00019830502
0.00019390226
0.00015391316
0.00021253192
0.00014804715
0.00028533287
0.00011936041
0.00037261425
0.00012568503
0.00048880325
5.5875785e-05
0.00067056253
-7.7505073e-06
0.00081290906
-0.00014539173
0.0010710326
-0.00025839337
0.0011230361
-0.00028543461
0.0012085897
-0.00020698227
0.00098833451
1.2099661e-05
0.00084500294
-0.0001496543
0.0011892192
-0.00061634599
0.00093380737
0.0003435334
0.00028807725
0.00092170674
-0.00071781386
0.0011249797
-0.00011223603
0.00076385241
-9.4974417e-06
0.00097895424
-0.00025037972
0.0011061398
-0.00037448383
0.0011273665
-0.00026391045
0.00095000047
-0.00017301487
0.00079236023
-6.0738648e-05
0.00063280211
3.1021579e-05
0.00049611524
8.5529828e-05
0.00034477653
0.00013303652
0.00026525224
0.00012975145
0.00019395444
0.00014169108
0.00017698563
0.00016090157
0.00010846137
0.00017762208
0.00011285534
0.00025070313
0.00010727554
0.00033921311
4.9976524e-05
0.00046273104
3.3647794e-05
0.00062804692
-1.2108016e-05
0.00076377623
-0.00017819455
0.00094336388
-0.00027906299
0.0011300499
-0.00031190599
0.0011001072
-0.00024230573
0.00098776042
-3.5795593e-06
0.00078916347
-7.5599738e-05
0.0011770022
-0.00063520924
0.00095518338
0.0003310907
0.00027701671
0.00091944369
-0.00070011513
0.0011442835
-0.00014905005
0.00072905651
1.222945e-07
0.00090920129
-0.00021462801
0.0010836501
-0.00034268245
0.001043205
-0.00028709626
0.00090664371
-0.00027428091
0.00078384239
-8.3191862e-05
0.00060585676
2.0760476e-05
0.00045629335
7.7709956e-05
0.00032970652
9.9094474e-05
0.00020653902
9.3703297e-05
0.00015608131
0.00011814103
0.00015873379
0.00012879177
0.00012184631
0.00014007374
8.8582007e-05
0.00020217745
7.4783614e-05
0.00031126618
8.4082935e-05
0.00042631293
-3.0225435e-06
0.00056109117
-0.00012401988
0.00071484155
-0.00023132551
0.00085661407
-0.00027076427
0.0010552646
-0.00033054186
0.0010347924
-0.00028084724
0.00092098199
-5.4975277e-05
0.00075663647
-0.00010943559
0.0011172376
-0.00072430649
0.00090066998
0.00024530352
0.00021904212
0.00087153668
-0.000691833
0.0010968402
-0.00013493498
0.00063491743
-4.5437975e-05
0.00085565753
-0.00034535174
0.0010264181
-0.00037863586
0.00099843259
-0.00034850773
0.00081080749
-0.00022257322
0.00069351926
-0.00011651563
0.00052856132
-3.2442049e-05
0.00040847531
3.1547726e-05
0.0002683727
8.2626484e-05
0.00020711558
9.3168465e-05
0.00012593808
7.6323441e-05
0.00010393873
0.00011833254
3.8519168e-05
0.00010137769
4.3385189e-05
0.00014977817
5.4534172e-05
0.00028415357
1.9627867e-05
0.00038614951
-5.2073505e-05
0.00052494399
-0.00013424445
0.00069957065
-0.00021388613
0.00084626555
-0.00034661826
0.0009534843
-0.00034159924
0.00098045709
-0.00030538949
0.00082878831
1.577759e-05
0.00066796743
-0.00011334259
0.0011411138
-0.00072824122
0.00089777057
0.0002356586
0.00019351047
0.00082965376
-0.00069467857
0.001062677
-0.00019635884
0.00060054514
-8.4896043e-05
0.0007991882
-0.00033065923
0.00098390767
-0.00042008059
0.00089201485
-0.00035329016
0.0008465399
-0.0002577249
0.00065640574
-0.00016639954
0.00051788627
-7.4712337e-05
0.0004009416
3.0341064e-06
0.0002375229
1.4415876e-05
0.00012780281
3.3756276e-05
0.00010620753
6.0982744e-05
9.2100164e-05
4.3384263e-05
2.7818593e-05
6.9194574e-05
1.3819469e-05
0.00013326887
3.6071872e-05
0.00022815817
-5.484327e-05
0.00037415249
-6.6547778e-05
0.00049370666
-0.00014758066
0.00065697542
-0.00024498449
0.00084383357
-0.00031391593
0.00091170401
-0.00039934088
0.00094025642
-0.00032081448
0.00077183917
-4.157301e-05
0.00057751205
-0.00017634728
0.00097243157
-0.00070270126
0.00078026716
0.00019179108
0.00014920283
0.00078108555
-0.00069090201
0.0010150001
-0.00019357561
0.00056431835
-6.0749722e-05
0.00077361882
-0.00030068319
0.00089191365
-0.00043385517
0.00086874866
-0.00037833708
0.00068716986
-0.00026102664
0.000560657
-0.00019661501
0.0004366027
-8.572356e-05
0.00031084425
-7.1805098e-05
0.00021112344
-1.6553423e-05
8.7978611e-05
-2.4485732e-05
6.4538177e-05
2.1178441e-05
5.9761398e-05
3.1463276e-05
-8.9109736e-06
1.6866282e-05
1.7057697e-05
8.3166615e-05
-4.7411174e-05
0.00018857994
-6.2364295e-05
0.00030836488
-8.446447e-05
0.0004369075
-0.00014060111
0.00054859118
-0.00026150653
0.00072301428
-0.00038937763
0.00086731224
-0.00046035496
0.00085695933
-0.00032414585
0.00075948109
-5.1016078e-05
0.00053573865
-0.00024092903
0.00090922683
-0.0006578484
0.00074812996
0.00014791466
0.00017813638
0.0007025049
-0.00077245762
0.00090149122
-0.00016285527
0.00045839056
-0.00010689145
0.00066384879
-0.00031524251
0.00085098558
-0.0004121763
0.00077780683
-0.00036873567
0.00067816323
-0.00028714116
0.00055232489
-0.00014683544
0.0003826682
-0.00012066289
0.0002699502
-8.4100002e-05
0.00017813728
-3.0131711e-05
8.9477395e-05
-1.0766819e-05
-5.1913188e-06
-5.5480576e-07
2.9759396e-05
-2.9319582e-05
-5.0482821e-05
-6.2301903e-06
-9.7395535e-05
2.7872396e-05
-5.8053926e-05
0.00014659704
-8.0968824e-05
0.00026353799
-0.0001386112
0.00034810531
-0.00020219418
0.00051730629
-0.00029843492
0.00060852187
-0.00038629079
0.00075376856
-0.00041556853
0.00079222571
-0.00033615655
0.00064325562
-0.00013496727
0.00044688322
-0.00018712565
0.00090955118
-0.00081082125
0.00072876758
0.00011347662
7.8952612e-05
0.00067282797
-0.00081070816
0.0008319716
-0.00029114032
0.0003812499
-9.9774952e-05
0.00060246523
-0.00036719038
0.00073551496
-0.00040531012
0.00069340802
-0.00040215999
0.0005886044
-0.00028674539
0.00045176795
-0.00024537427
0.00031349299
-0.0001316529
0.00022036473
-0.00011154782
0.00012946415
-7.2813701e-05
3.5805385e-05
-5.3723108e-05
-1.4103192e-05
-5.7068924e-05
-1.7259647e-06
-5.2910576e-05
-5.7834698e-05
-6.0299453e-05
-7.0181639e-05
1.7570853e-06
-6.551821e-05
0.00010813417
-0.00010526465
0.00017484091
-0.0001525105
0.00029923139
-0.0002367834
0.00042619207
-0.00030593435
0.00054550143
-0.00036977268
0.00064452155
-0.00034993244
0.00069879488
-0.00031737637
0.00059790512
-7.9819396e-05
0.00037399199
-0.0002717038
0.00079483836
-0.00083696429
0.00065421704
9.7185199e-05
7.240683e-05
0.00061787811
-0.00078519574
0.00074443883
-0.00017586652
0.00031940242
-5.0599936e-05
0.00049252752
-0.00029208616
0.00066213352
-0.00036517752
0.00057848463
-0.00035870964
0.00048702389
-0.00030164107
0.00041401192
-0.00019270366
0.00026761199
-0.00015531902
0.00016824808
-0.00012817147
9.6990745e-05
-0.00011953584
-1.7058137e-05
-8.5169301e-05
-7.3355915e-05
-6.2276587e-05
-2.5003452e-05
-3.6522841e-05
-6.7034405e-05
-0.00011466281
-0.00016215704
-1.0757602e-05
-0.0001525893
6.4940479e-05
-0.00012916058
0.00015136438
-0.00017032223
0.00023558675
-0.00024221509
0.00035266743
-0.00028661729
0.00046268068
-0.00036388225
0.0005216547
-0.00043445775
0.00056642177
-0.00030002127
0.00042681061
-6.569197e-05
0.00028979409
-0.00022972524
0.00073173845
-0.00081126784
0.00065871674
0.00011988916
9.6033896e-05
0.00060394106
-0.00091688641
0.00065299023
-0.00028694171
0.00025222428
-0.00012978688
0.00036670611
-0.0003117584
0.00047275344
-0.00036931556
0.00047625064
-0.00033528953
0.00040950359
-0.00030027858
0.00029144942
-0.00027094034
0.00019094581
-0.00017953305
0.0001048894
-0.00016262784
1.5851729e-06
-0.00012250384
-8.2390917e-05
-0.00013858133
-0.00011266592
-0.00010161658
-6.9311606e-05
-8.3848951e-05
-0.00017636241
-0.00012720626
-0.00021217917
-0.00012310988
-0.00016630447
-4.336829e-06
-0.00016393718
5.499101e-05
-0.00019319634
0.00018111878
-0.00024437619
0.00027289592
-0.00027735183
0.00034253951
-0.00029562632
0.00045086558
-0.00035779127
0.00048482769
-0.00029623667
0.00038626808
-0.0001189356
0.00025696796
-0.00022145609
0.00062642241
-0.00085482549
0.00057933632
0.0001723749
0.00013557735
0.0005922821
-0.00087140997
0.00057902396
-0.00023547626
0.00018957985
-0.00012697514
0.00028946218
-0.00034163058
0.00038921746
-0.00040513507
0.00038973907
-0.00035773709
0.00028477984
-0.0002908016
0.00021847605
-0.00022359084
0.00013177047
-0.00016832979
5.5902094e-05
-0.00015812805
-2.1350387e-05
-0.00019359193
-0.00011018922
-0.00016099684
-0.00014779201
-0.00014375554
-0.00011283319
-0.00018227497
-0.00018660621
-0.00016741947
-0.00020738078
-0.00012783065
-0.00021110504
-5.6187112e-05
-0.00016821282
1.2359037e-05
-0.00019809672
7.6185148e-05
-0.00025482694
0.00017803139
-0.0002819463
0.00025420198
-0.00035387765
0.00033148413
-0.00032657809
0.00035629904
-0.00023134764
0.00024521368
-9.4443302e-05
0.00018070432
-0.00024561205
0.00054826511
-0.00083613721
0.00060701672
0.00016144568
0.00017740288
0.00043655402
-0.0006562711
0.0003486942
-0.00025285551
0.00013942555
-0.00021226797
0.00022866874
-0.00034127925
0.00030919566
-0.00036487649
0.00027932919
-0.0003438995
0.00021117158
-0.00028452675
0.00012708975
-0.00025809151
5.8469136e-05
-0.00024525884
-1.4402739e-05
-0.00021060164
-0.00010923883
-0.00021949717
-0.00014012803
-0.00023375503
-0.00018813145
-0.00021473603
-0.00016925952
-0.00016140195
-0.00021007581
-0.00019863056
-0.00020034497
-0.00017454478
-0.00022069852
-0.00010334095
-0.0002539208
-2.8326411e-05
-0.00024538584
2.9161451e-05
-0.00025229382
0.00011905952
-0.00027884394
0.00016422128
-0.00030452881
0.00023712928
-0.00031377448
0.00026482714
-0.00032919296
0.00020537682
-0.00025494487
0.000141026
-0.00027370114
0.00021116513
-0.00038173747
0.00017908476
4.7783548e-05
6.9195394e-06
-8.0661529e-05
-3.2823037e-05
-2.2084521e-05
-0.00024367682
0.00013524856
-0.00025353272
0.00020577601
-0.00030958344
0.00021876867
-0.00032532842
0.00016047401
-0.00031421064
0.00010078059
-0.00027165355
4.2414349e-05
-0.00023030207
1.8701814e-06
-0.0002285852
-8.5282768e-05
-0.00023616732
-0.00015847932
-0.00023899104
-0.00019971557
-0.00023090269
-0.00020880015
-0.00020562012
-0.00018235981
-0.00024422175
-0.00024156891
-0.00024753534
-0.00030075099
-0.00023783913
-0.0002797981
-0.000169831
-0.0002396853
-0.00012138018
-0.00024113758
-5.8185109e-05
-0.00023594133
3.4112218e-05
-0.00026486578
7.3799413e-05
-0.00028749389
0.00011089494
-0.00031149274
0.00015877234
-0.00030454679
0.00017736037
-0.00025503893
0.00013060574
-0.00022375685
-0.00016488343
0.00015040481
-0.0001853701
3.0831018e-05
0.00010015817
-0.00026645375
0.00025941748
-0.00025985744
-0.00022114142
0.00012185859
-0.00026019135
0.00012765512
-0.00031225049
0.00010032966
-0.00026800413
6.9391288e-05
-0.00029568162
1.2754646e-05
-0.00024377598
-3.770205e-05
-0.0002941755
-0.00010809741
-0.00025620677
-0.00013305467
-0.00024590529
-0.00021191602
-0.00028608279
-0.00025847149
-0.00027686139
-0.00027629418
-0.00023516285
-0.00021609244
-0.00023375035
-0.00027849738
-0.00030410024
-0.00029112882
-0.00024581991
-0.00027743145
-0.0002291659
-0.00026913112
-0.00015984019
-0.00023220371
-0.00012089009
-0.0002681621
-9.1704942e-05
-0.00029025402
7.8703035e-06
-0.00027014007
3.0467161e-05
-0.00029817983
9.6151713e-05
-0.00030537199
0.00010136793
-0.0002909401
0.0002010953
-0.00018404373
-0.00020303253
0.0002254171
-0.00018346659
0.00016697337
0.00016110463
-0.00012474834
0.00019614258
-0.00014322777
-0.0001700145
0.00014681004
-0.00030479602
5.9179891e-05
-0.00025267498
2.8131866e-05
-0.00030738638
-4.2550837e-06
-0.00026611442
-6.2970035e-05
-0.00026400254
-8.3595437e-05
-0.0002592195
-0.0001171685
-0.00025559273
-0.00020281668
-0.00027340549
-0.00023044575
-0.00026471336
-0.00025740395
-0.00029542385
-0.00028255635
-0.00024026174
-0.00022263715
-0.0003253227
-0.00034262912
-0.00032400553
-0.00037301361
-0.0003449654
-0.00030377481
-0.00029655046
-0.00028824872
-0.00022971255
-0.00027637852
-0.00017365884
-0.00027875367
-0.00020157722
-0.00026668965
-8.8669756e-05
-0.00032165404
-5.9551607e-05
-0.00029949003
-4.2857472e-05
-0.00028619902
-1.9806255e-05
-0.00033805559
5.930846e-05
-0.0001334459
0.0001085232
-2.928187e-05
-3.4035375e-05
0.00012819579
3.0022359e-05
-0.00013254198
-0.00022880993
-0.00017331837
-0.00015947365
-0.00010176225
-0.00020851338
-6.3846561e-05
-0.00028107342
-4.2254585e-05
-0.00029836171
-0.00011147512
-0.00027131501
-0.00013650352
-0.00031386383
-0.0002199821
-0.00024563239
-0.00021692344
-0.00027558583
-0.00023293518
-0.00028629131
-0.00028758894
-0.00028555665
-0.00028482624
-0.00033182038
-0.00028733988
-0.00026226194
-0.00022415235
-0.00032325657
-0.00033737409
-0.00034401795
-0.00034200658
-0.00033688059
-0.00029991593
-0.00031282373
-0.00029372655
-0.00026800912
-0.00031835441
-0.00025665163
-0.00027931951
-0.00021053396
-0.00030071436
-0.00021519781
-0.00029905023
-0.0001573059
-0.00031686815
-0.00014519977
-0.00036319898
-0.0001321037
-0.00041151443
-0.00015487974
-0.00081290003
-0.00061058493
-0.0013421982
-0.00020425149
-7.746315e-05
-0.00043603037
-0.0014418018
-0.0020454328
-0.001770558
-0.00071906693
-0.00041993891
-0.000310512
-0.000191431
-0.00036564922
-0.00022390907
-0.00030640307
-0.00019489982
-0.0003115708
-0.0002103745
-0.00030216482
-0.0002446339
-0.00031667405
-0.00029187393
-0.00031228582
-0.00026560015
-0.00030832636
-0.00030368262
-0.00031778926
-0.00034366557
-0.00034529891
-0.00038243455
-0.00035581993
-0.00033080209
-0.00034684021
-0.00035720721
-0.00038653601
-0.00042142078
-0.00036888796
-0.00038338857
-0.00033608826
-0.00033130781
-0.00029053341
-0.00031936159
-0.00032531412
-0.00031553212
-0.00026394492
-0.00030822264
-0.00024320248
-0.00029668694
-0.00023752631
-0.00032051336
-0.00024355289
-0.00038127913
-0.00016668913
-0.00023555595
-2.0960873e-05
-0.00046807558
-0.0011944799
-0.0020203836
-0.0018609246
-0.00042353041
-0.00086547112
-0.0010322184
-0.0012260237
-0.00059484275
5.636204e-05
-2.4954042e-05
-0.00013109538
-0.00015988341
-0.00026911907
-0.00022986497
-0.00026834489
-0.00023326853
-0.00031626355
-0.00025860599
-0.00032020453
-0.00027118298
-0.00030128289
-0.0002981547
-0.00032781723
-0.00031243549
-0.00035474561
-0.00034068028
-0.00031989335
-0.00037506162
-0.00038284921
-0.00040450499
-0.0003918931
-0.00034397374
-0.00035243573
-0.00042059267
-0.00043392326
-0.00043429247
-0.00042284124
-0.00038074497
-0.00037133982
-0.0003737047
-0.00034902951
-0.00035234549
-0.00040340935
-0.00040391835
-0.00027748206
-0.00033085737
-0.00025418103
-0.0003549226
-0.00029330901
-0.00033576394
-0.00029753421
-0.00032874949
-0.00024677916
-0.00029580237
-0.00016421701
-0.00026104695
-0.00020042878
-0.0003646897
-0.00063775285
1.3048759e-05
0.0001118715
0.00022158679
-8.1144545e-05
-0.0001843387
-0.00016027224
-0.00019776284
-0.00024867057
-0.00028163772
-0.00032255458
-0.00029089728
-0.00031883169
-0.00028239271
-0.00030232939
-0.00027032541
-0.00032367189
-0.00030232956
-0.00036432236
-0.0003677551
-0.00033370467
-0.00036231896
-0.00033826143
-0.00037388135
-0.00039845102
-0.00040654282
-0.00039883102
-0.00043089499
-0.0003670584
-0.00035127342
-0.00043315372
-0.00042617237
-0.00046129354
-0.00050196181
-0.00044896581
-0.00040532205
-0.00041424018
-0.00038940634
-0.00035381722
-0.00036651671
-0.00037462481
-0.00039523252
-0.00032409803
-0.00035901116
-0.00028132928
-0.00033952171
-0.00030688618
-0.00033206183
-0.00030779019
-0.00033725737
-0.00030614329
-0.0002984848
-0.00032028689
-0.00027502576
-0.00034242102
-0.00020820863
-3.8226341e-05
0.00011571357
-0.00018870683
-4.7812887e-05
-0.00022051153
-0.00025804255
-0.00021881636
-0.00031080851
-0.00027557291
-0.00032687733
-0.00033214429
-0.00031482986
-0.00035239049
-0.00031579529
-0.00033781134
-0.00031024257
-0.00034841963
-0.00034276746
-0.00036684745
-0.00035419405
-0.0003280221
-0.00036086994
-0.00042413048
-0.00038941081
-0.00041687319
-0.00046498373
-0.00044264716
-0.00046356973
-0.00039345718
-0.00038486576
-0.00044308869
-0.00044254685
-0.00052006117
-0.00053882097
-0.00048308759
-0.0004669716
-0.00039769797
-0.00044417979
-0.00044003241
-0.00041794554
-0.00037802639
-0.00038429527
-0.000371403
-0.00035481628
-0.00033677252
-0.00036513022
-0.00032102947
-0.00032318147
-0.00033518027
-0.00034592021
-0.00035280908
-0.00031624164
-0.00039508611
-0.00030094959
-0.00032849218
-0.00035368617
-0.0002317803
-0.00024106051
-0.00028233447
-0.00025399009
-0.00030349403
-0.00028515823
-0.00032212603
-0.00037332918
-0.00032607191
-0.00034265415
-0.00035271294
-0.00031880257
-0.0003421194
-0.00033538547
-0.00036863033
-0.00035336982
-0.00036004464
-0.00037892064
-0.0003876759
-0.00040857241
-0.00038299682
-0.00038276771
-0.00039207757
-0.00038170884
-0.00042310596
-0.00052851871
-0.0004653068
-0.00048822865
-0.00041172872
-0.00039430953
-0.00047093681
-0.00050185878
-0.00057201939
-0.00051970049
-0.00050735969
-0.00048910949
-0.00043239259
-0.0004484657
-0.00041473487
-0.00041987719
-0.00042139894
-0.00042243637
-0.00039688166
-0.00039567068
-0.0004191223
-0.00039490945
-0.00039214021
-0.00039321344
-0.00037391602
-0.00035625732
-0.00038358743
-0.00039212003
-0.00042119254
-0.00037956647
-0.00039953978
-0.00033744494
-0.00032417032
-0.00036281356
-0.00031814701
-0.00035843666
-0.0003498383
-0.00035981484
-0.00036898793
-0.00041057656
-0.00037163188
-0.000361785
-0.00035064268
-0.00035868283
-0.00038119402
-0.00036872317
-0.00035894443
-0.00038659214
-0.00037181561
-0.00039108356
-0.00039668144
-0.00040681837
-0.00042372143
-0.00042073121
-0.00043931175
-0.0003996765
-0.00041899758
-0.00054119989
-0.00048226688
-0.00054696304
-0.0004468563
-0.00041408958
-0.00048550917
-0.00052091669
-0.00055785407
-0.00055161953
-0.00059310238
-0.00051549496
-0.000529226
-0.0004811497
-0.00045349426
-0.00044110886
-0.00044108457
-0.00043267577
-0.00041415401
-0.00042039967
-0.00042153096
-0.00046039704
-0.0004108245
-0.00042519995
-0.00044769071
-0.00045324186
-0.00040944191
-0.00043587965
-0.00044704095
-0.00042865542
-0.0004114045
-0.00038363249
-0.00040424637
-0.00035840565
-0.00038354303
-0.00038266351
-0.00034879912
-0.00041668495
-0.00039990307
-0.00040445824
-0.00039931226
-0.00041841875
-0.0004196384
-0.0004004537
-0.00038687968
-0.00037423253
-0.00039427596
-0.00039640577
-0.00039004413
-0.00041069743
-0.0004125344
-0.00048683022
-0.00043574863
-0.00044289932
-0.00046857088
-0.00048812693
-0.00048833414
-0.00051114944
-0.00050302431
-0.00049675838
-0.00046475896
-0.00041985735
-0.00050693697
-0.00055101069
-0.00055778008
-0.0005447821
-0.00053820894
-0.0005241303
-0.00052822036
-0.00049284839
-0.00047341734
-0.00043925951
-0.00048191155
-0.0004585687
-0.00042406334
-0.00043208886
-0.00039320512
-0.00042638842
-0.0004161044
-0.00041170567
-0.0004132133
-0.00043569505
-0.00042781778
-0.00044644418
-0.00044501676
-0.00045645252
-0.00045286544
-0.00044706412
-0.0004041109
-0.00047627115
-0.00041233482
-0.00040639488
-0.00039992743
-0.00045866258
-0.00041471429
-0.00040434568
-0.00042098486
-0.00043368227
-0.00041563494
-0.00040188949
-0.00040446397
-0.00040510555
-0.00038757107
-0.00038279873
-0.00037927091
-0.00041767362
-0.00042704896
-0.0004558867
-0.00044507079
-0.00047017536
-0.00049369626
-0.0005023506
-0.00050394748
-0.00051885599
-0.00053848367
-0.00052128125
-0.00049527566
-0.0004319652
-0.00053057781
-0.00058322877
-0.00059916765
-0.00064386291
-0.00063806126
-0.00060296811
-0.00053761345
-0.00052995295
-0.00050806419
-0.00048217424
-0.00047698201
-0.00049530709
-0.00047510978
-0.00045522863
-0.00045288292
-0.00046008145
-0.0004435296
-0.00046787412
-0.00046386908
-0.00046266927
-0.00046254151