/*--------------------------------*- C++ -*----------------------------------*\
| =========                 |                                                 |
| \\      /  F ield         | OpenFOAM: The Open Source CFD Toolbox           |
|  \\    /   O peration     | Version:  v2012                                 |
|   \\  /    A nd           | Website:  www.openfoam.com                      |
|    \\/     M anipulation  |                                                 |
\*---------------------------------------------------------------------------*/
FoamFile
{
    version     2.0;
    format      ascii;
    class       volVectorField;
    location    "0";
    object      U;
}
// * * * * * * * * * * * * * * * * * * * * * * * * * * * * * * * * * * * * * //

dimensions      [0 1 -1 0 0 0 0];


internalField   nonuniform List<vector> 
19372
(
(5.0315016 0.027345126 -0.048223133)
(5.0314894 0.02746219 -0.04870187)
(5.0314867 0.027588184 -0.048830092)
(5.0314895 0.027727962 -0.048594664)
(5.0314957 0.027885487 -0.04796321)
(5.0315007 0.028072888 -0.046873095)
(5.0315138 0.028311532 -0.045221194)
(5.031577 0.02863446 -0.04289155)
(5.0317702 0.029104943 -0.039782444)
(5.0323482 0.029591079 -0.036287973)
(5.033262 0.030184048 -0.03311248)
(5.0346015 0.029801928 -0.032412064)
(5.0339235 0.031157576 -0.031241132)
(5.0370419 0.022163173 -0.04397825)
(5.0278656 0.028919475 -0.052583345)
(5.029101 0.01239202 -0.064463831)
(5.0078865 0.032760769 -0.051916591)
(5.0050236 0.015848543 -0.010517829)
(4.991446 -0.0084609056 0.0011299135)
(5.0030401 -0.031776884 0.017595498)
(5.0030938 -0.069051977 0.024502457)
(5.019114 -0.069023777 -0.0017486875)
(5.0162463 -0.037276121 0.0078897065)
(5.0220529 -0.0071352741 0.0033617887)
(5.0200011 0.023087983 0.011988995)
(5.0208729 0.039617548 0.01274498)
(5.0199699 0.055377407 0.012647565)
(5.017218 0.068174847 0.0115865)
(5.0174619 0.091525355 0.0023011309)
(5.0066748 0.10679361 0.0080613549)
(5.0124708 0.12216546 -0.0030799381)
(4.9944677 0.10654629 0.026186715)
(4.9958874 0.052427812 0.018005806)
(4.9834495 0.015345743 0.0011059313)
(4.9973147 -0.0093005812 -0.010757042)
(4.9993465 -0.026291808 -0.053458428)
(5.0203405 -0.0057391787 -0.068478111)
(5.0183368 -0.022199899 -0.060064492)
(5.0272676 -0.015988163 -0.056914381)
(5.0253136 -0.024022719 -0.048118514)
(5.0267776 -0.023099872 -0.05005979)
(5.0256913 -0.023738278 -0.051216492)
(5.0252052 -0.023458252 -0.054804261)
(5.0250958 -0.023275292 -0.058479065)
(5.0253681 -0.023112375 -0.06148602)
(5.0257517 -0.02309876 -0.063466177)
(5.0261627 -0.023168681 -0.064571753)
(5.0265587 -0.023289289 -0.064971324)
(5.0269286 -0.02343511 -0.064817996)
(5.0272815 -0.023605186 -0.064231174)
(5.0276189 -0.023776445 -0.06328452)
(5.0279429 -0.02393012 -0.061990056)
(5.0702813 -0.0098293449 -0.062550844)
(5.0691871 -0.009597452 -0.063871814)
(5.0680402 -0.0093452931 -0.064848821)
(5.066839 -0.009087359 -0.065464231)
(5.0655813 -0.0088246351 -0.065680373)
(5.0642639 -0.0085766986 -0.065448828)
(5.0629112 -0.0083479044 -0.064707516)
(5.0616066 -0.0081647002 -0.063345796)
(5.060493 -0.0080573266 -0.061133403)
(5.0599247 -0.0080203414 -0.05753156)
(5.0598462 -0.0081145964 -0.051635133)
(5.0603208 -0.0085226327 -0.041620221)
(5.0568596 -0.0078512258 -0.029426339)
(5.0555974 -0.0023724654 -0.019180497)
(5.03749 -0.0035936358 -0.0093770349)
(5.0360082 -0.0027361222 0.0061516159)
(5.0086956 -0.013518425 0.024220045)
(5.0076596 -0.012313252 0.033813775)
(4.9930894 -0.0044970713 0.017225871)
(5.0218186 0.0051422996 0.0074402678)
(5.0045314 0.010679273 -0.003689791)
(4.956179 0.013393312 -0.0081439239)
(4.8886406 0.016979861 -0.011231308)
(4.8008597 0.02333587 -0.01483894)
(4.6832068 0.035249236 -0.021421777)
(4.5553574 0.037826749 -0.015055962)
(4.4464573 0.039849586 -0.0047280407)
(4.2961294 0.050717347 -0.015977193)
(4.0206009 0.11767491 -0.0057204986)
(3.4156127 -0.016856546 -0.05040287)
(1.4428216 1.318475 -0.33130918)
(1.9895572 1.6456728 -0.2604146)
(2.5022192 1.8471722 -0.26231402)
(3.0188633 2.4648199 -0.11806926)
(3.5370866 2.3056452 -0.19737498)
(3.8746661 2.2630213 -0.074980606)
(3.9389561 2.3027226 0.042791116)
(4.5019107 1.9447792 0.14781451)
(4.790231 1.978686 -0.051634676)
(4.9430245 1.7958475 -0.084351967)
(5.0404652 1.6660711 -0.10720704)
(5.140368 1.5972229 -0.05177449)
(5.241476 1.5072713 0.0011444867)
(5.3814516 1.3825097 0.010267324)
(5.4298549 1.3118825 -0.09269077)
(5.4020319 1.2023487 -0.013860333)
(5.4684404 1.1208019 -0.037841523)
(5.5122191 1.0652325 0.018269097)
(5.5677404 0.97736193 -0.0070004963)
(5.5441075 0.90726971 -0.048079883)
(5.5656165 0.8261155 0.030578449)
(5.8323164 0.81117812 0.0088063649)
(6.1952361 0.72915412 0.002973666)
(6.0777932 0.76734523 -0.10121367)
(5.972457 0.65281418 -0.032853318)
(5.911476 0.57240432 -0.061701613)
(5.8931228 0.5271213 -0.007957332)
(5.877491 0.55805728 -0.0023084767)
(5.8291046 0.50727186 0.02274219)
(5.8219643 0.4452339 0.025291944)
(5.8230608 0.40881913 0.021104049)
(5.8287614 0.36238134 0.022137268)
(5.8300471 0.32055449 0.020059192)
(5.8301335 0.28323924 0.017880952)
(5.830272 0.24651183 0.015287023)
(5.8264176 0.20465223 0.014717738)
(5.8254775 0.18333271 0.011376569)
(5.8224991 0.13197081 0.012309209)
(5.8184887 0.11853876 0.0094671693)
(5.8165982 0.07431803 0.010143815)
(5.8121087 0.058849784 0.0077326307)
(5.8117898 0.019620752 0.0082082994)
(5.8051815 0.008428699 0.0069849036)
(5.7996257 -0.029570455 0.0068414202)
(5.7942409 -0.040672115 0.0054300164)
(5.7865645 -0.075869866 0.0044950949)
(5.7827764 -0.088500266 0.0026958364)
(5.7751942 -0.11866481 0.002462974)
(5.7682008 -0.12799531 0.00054727448)
(5.758527 -0.16020027 0.00054258371)
(5.7515274 -0.16374471 -0.0013270709)
(5.7408998 -0.1989121 -0.0012658886)
(5.7294482 -0.19914256 -0.0028759381)
(5.7184017 -0.23095712 -0.0028217458)
(5.7044189 -0.23588015 -0.004711691)
(5.6926072 -0.25609639 -0.0049917688)
(5.673718 -0.27081633 -0.0094660782)
(5.649244 -0.28118738 -0.014574751)
(5.6187539 -0.29827403 -0.01391599)
(5.5861309 -0.30976327 -0.012539606)
(5.5715981 -0.30505259 0.0041742133)
(5.5979978 -0.33384354 0.02865332)
(5.6265222 -0.32832261 0.0095456766)
(5.7620419 -0.45518115 0.01873053)
(6.0850983 -0.45164444 0.038171599)
(6.0189859 -0.35761135 -0.030370816)
(5.8310141 -0.34547574 -0.027636451)
(5.7814903 -0.3877733 0.015310495)
(5.8104856 -0.46278979 0.025742503)
(5.8447853 -0.35785561 0.065485314)
(5.8620149 -0.52329314 0.089620047)
(6.1181221 -0.47998994 0.051011952)
(6.1010823 -0.4446182 -0.053859324)
(5.5143053 -0.48459297 -0.12734452)
(5.3576431 -0.5289036 -0.029016878)
(5.3609396 -0.34512446 0.03040518)
(5.1272593 -0.42981713 0.029735553)
(5.2585181 -0.50908819 0.066411311)
(5.3448992 -0.48675062 -0.0012935258)
(5.3449084 -0.49217553 0.0028995955)
(5.3538437 -0.50231628 -0.0059424629)
(5.3476669 -0.51348204 -0.0058214635)
(5.3338866 -0.51834859 -0.0086229831)
(5.3238641 -0.5212021 -0.011852996)
(5.3284396 -0.54703031 -0.013108594)
(5.3860312 -0.57876273 -2.5756605e-05)
(5.438425 -0.55246302 -0.0020746113)
(5.5971468 -0.56606394 0.074067881)
(5.6582987 -0.51597672 0.046048013)
(5.5202269 -0.53645109 -0.026728363)
(5.4535998 -0.43615537 0.066011038)
(5.0916978 -0.0053311399 -0.063955356)
(5.0898008 -0.0051835778 -0.065340585)
(5.0878089 -0.0050347418 -0.066392052)
(5.085715 -0.0048789799 -0.067079931)
(5.0835138 -0.0047224396 -0.067360427)
(5.0812115 -0.0045609282 -0.067174406)
(5.0788284 -0.0044078439 -0.066434539)
(5.0764199 -0.0042654072 -0.064997294)
(5.0740631 -0.0041459729 -0.062629312)
(5.0718242 -0.0040589445 -0.058939104)
(5.0695667 -0.0040257202 -0.053351507)
(5.0668461 -0.004062702 -0.04512358)
(5.0618865 -0.0040390035 -0.034262239)
(5.053587 -0.0032210411 -0.022541673)
(5.0384146 -0.0025206487 -0.014539095)
(5.0281887 -0.0042027228 -0.0054657948)
(5.0180967 -0.0061817048 0.0084014831)
(5.0176017 0.0032205876 0.015253816)
(4.9986418 0.0099308477 -0.0092182336)
(4.9520826 0.015763437 -0.022595238)
(4.8819119 0.017779866 -0.03382302)
(4.7923745 0.022540083 -0.044320867)
(4.6803298 0.032062305 -0.057488836)
(4.564052 0.033545812 -0.031869146)
(4.4111496 0.036047554 -0.054215135)
(4.1414398 0.090631181 -0.065268792)
(3.7037376 0.09484238 -0.12772551)
(3.0662788 0.0095115248 -0.11542401)
(2.9482718 0.071140121 -0.90004013)
(2.6842917 0.023901426 -1.0459205)
(1.4999591 2.2650528 -1.0692151)
(1.1970273 1.7284964 -0.74987335)
(1.7950302 1.5066401 -0.54679754)
(2.1550728 1.6970843 -0.54154134)
(2.08451 1.8835323 -0.6250775)
(2.8061758 2.5465147 -0.30378523)
(3.4236301 2.3724955 -0.37485832)
(3.6853274 2.3633025 -0.15812474)
(4.2810741 2.0758117 0.12640689)
(4.263814 2.1477385 -0.00065289284)
(4.5833463 2.3496411 0.15860935)
(3.8005671 2.6432088 -0.31767145)
(3.5206031 2.2411656 -0.49977449)
(2.7094258 2.3666 -0.67786231)
(2.6300283 2.607996 -0.62537073)
(3.1774217 2.9187809 -0.17374988)
(2.3329953 1.8994251 -1.1675264)
(1.7258147 1.7449484 -1.2008475)
(2.6152464 0.1974606 -0.81929265)
(3.1875372 0.12748427 -0.15886063)
(3.2569224 0.15083511 -0.27140551)
(3.8252476 0.077124138 -0.19955391)
(4.1558712 0.085848284 -0.14511321)
(4.2143072 0.089950376 -0.14666152)
(4.4497173 0.031318998 -0.10959335)
(4.5906115 0.025320946 -0.05987088)
(4.7053082 0.027285213 -0.081922734)
(4.7967986 0.021246187 -0.068776908)
(4.8740168 0.018928758 -0.051067494)
(4.9425598 0.018772544 -0.033456942)
(4.9972078 0.012489504 -0.014548199)
(5.0020337 0.015841496 -0.021692284)
(4.9411861 0.021223686 -0.040075428)
(4.8722709 0.019655775 -0.060981348)
(4.8044982 0.019461733 -0.081785655)
(4.7296322 0.022347579 -0.098439548)
(4.6347291 0.01683587 -0.11007626)
(4.4780252 0.013321453 -0.21437637)
(4.2917909 0.078324809 -0.19143955)
(4.2521076 0.078820384 -0.19174122)
(4.0057337 0.079011694 -0.25940219)
(3.932226 0.084850928 -0.24005752)
(3.6277534 0.059529749 -0.35090084)
(3.321848 0.1662814 -0.49394265)
(2.951263 0.15517941 -0.39742643)
(2.7559992 0.072976235 -0.56880899)
(2.2279748 0.36076824 -1.4752397)
(2.3607355 0.061224267 -1.1666371)
(1.4811088 2.5089072 -1.011362)
(1.2914268 1.3258196 -1.2500424)
(2.0653709 1.5114997 -1.0416048)
(2.5994744 1.5763681 -0.94100396)
(2.1680598 1.0230882 -1.3383859)
(2.131396 0.31877432 -1.4459644)
(1.7707312 0.99938889 -0.87219245)
(2.6717098 1.6140766 -1.8724004)
(2.1657652 0.71908964 -1.0981336)
(2.6044927 1.1064241 -1.0943814)
(2.6745238 0.29187625 -0.91880209)
(1.7577593 2.0247048 -1.1058756)
(2.4533997 2.3260631 -1.0766812)
(2.9571961 2.7619021 -0.72423366)
(2.9367983 2.6143704 -0.66402273)
(3.7189714 2.3567145 -0.60141023)
(3.8315923 2.5201312 -0.42040353)
(4.2379578 2.2600457 0.058663598)
(4.6505036 2.0165998 -0.14046999)
(4.8691159 2.0806532 -0.10787097)
(4.8704444 2.266699 -0.023495921)
(5.1141699 1.819992 -0.20728798)
(5.0455424 1.8443752 -0.29674619)
(5.1427664 1.6240794 -0.15772093)
(5.1933635 1.589928 0.0097289642)
(5.2741058 1.4336847 0.021070347)
(5.4077199 1.367211 -0.059549384)
(5.4488788 1.2943839 -0.039893304)
(5.5964094 1.106221 -0.09206958)
(5.5695693 1.0920029 -0.036405266)
(5.5189789 1.0449403 0.028443841)
(5.5792444 0.94815463 -0.0025881401)
(5.6291658 0.86670068 0.056689293)
(5.7682933 0.7276918 0.013560173)
(5.9731339 0.74005454 0.085363127)
(5.9156923 0.82283267 0.091618928)
(5.5800683 0.8164534 0.03804412)
(5.5279472 0.98296811 0.055245032)
(5.6178743 1.1010015 0.03612706)
(5.5741602 0.98328307 -0.07457773)
(5.3306886 1.1357993 -0.10834917)
(5.3731513 1.1748797 -0.25235058)
(5.3740935 1.3595693 -0.019113243)
(5.3451439 1.5467811 -0.011231129)
(5.2796019 1.5248219 0.014775017)
(4.9763385 1.7478511 -0.15338596)
(4.9799492 1.8375972 -0.39088348)
(4.9755662 1.9896246 -0.31889178)
(5.2145912 1.8171259 -0.47005053)
(5.0861446 1.7078707 -0.0022836705)
(5.1568643 1.7414979 0.16507259)
(5.265937 1.5888355 -0.047226642)
(5.33446 1.4317022 0.0069415993)
(5.5008006 1.3050507 -0.28942413)
(5.5645945 1.2302788 -0.34138329)
(5.4225813 1.1204994 -0.027146022)
(5.5027547 1.1501685 0.11558377)
(5.5332566 1.1292324 0.068881984)
(5.5358224 1.0024272 0.091480038)
(5.6901631 0.80670965 0.07605336)
(6.0373541 0.76308378 0.13204459)
(5.9747163 0.87834069 -0.070675068)
(5.9438773 0.72328114 -0.13435658)
(5.8489832 0.654525 -0.13613509)
(5.9638035 0.45870548 -0.20003651)
(5.9728328 0.67588509 -0.0066324589)
(5.868315 0.57510632 -0.0064741347)
(5.807448 0.52290983 0.056497536)
(5.7991487 0.44928978 0.06384697)
(5.8123074 0.41324734 0.059528642)
(5.8259548 0.36076826 0.055567853)
(5.8305421 0.32991653 0.052541444)
(5.8318839 0.28335245 0.045041996)
(5.8311564 0.25478724 0.042798117)
(5.8283005 0.21059648 0.037402048)
(5.8264295 0.18799542 0.034236572)
(5.8232383 0.13825342 0.031974798)
(5.8195785 0.12511943 0.02883727)
(5.817434 0.079174524 0.027411964)
(5.8132166 0.067846805 0.024735594)
(5.8122301 0.022834405 0.022963445)
(5.805871 0.015194719 0.02171588)
(5.8001373 -0.026025187 0.018879978)
(5.7943553 -0.031754998 0.018288988)
(5.7865897 -0.072600478 0.013610033)
(5.7825359 -0.079176938 0.011979516)
(5.7749002 -0.1145699 0.0083589779)
(5.7678387 -0.11967742 0.0060951318)
(5.7585171 -0.15506256 0.0032798002)
(5.7514701 -0.15648892 0.0012227011)
(5.7415409 -0.19250854 -0.0016165878)
(5.7305068 -0.19211193 -0.0034214225)
(5.7205637 -0.22459688 -0.0056354425)
(5.7084617 -0.22882494 -0.0081853751)
(5.6979503 -0.25124122 -0.011784869)
(5.682467 -0.26176357 -0.019751627)
(5.6634312 -0.27692018 -0.034546278)
(5.6411922 -0.28494015 -0.030910347)
(5.613928 -0.30350953 -0.026197379)
(5.5872505 -0.29204912 0.014011598)
(5.5734497 -0.32331642 0.063737749)
(5.6716282 -0.38676669 0.059328184)
(5.7279084 -0.36151462 -0.015794445)
(5.6923001 -0.43167504 0.22988643)
(5.7900385 -0.31525772 -0.030124475)
(5.5893797 -0.32419026 -0.037762784)
(5.5984725 -0.29614372 0.0076745927)
(5.5765476 -0.30769344 0.11922731)
(5.5543897 -0.31815229 0.17846417)
(5.5478436 -0.32546679 0.2091635)
(5.5540644 -0.33123348 0.21995395)
(5.5912744 -0.33027897 0.21967531)
(5.6571182 -0.38058188 0.11048227)
(5.3370454 -0.31420817 -0.19777521)
(5.6599892 -0.40288257 0.17775819)
(5.6300471 -0.39525308 0.13783819)
(5.6284008 -0.38810082 0.2037641)
(5.6369511 -0.38963164 0.22331103)
(5.6383129 -0.39995947 0.2330551)
(5.6579189 -0.41327626 0.25808553)
(5.7024331 -0.44650198 0.33535257)
(5.8441278 -0.50723304 0.37892301)
(5.8722491 -0.27883473 0.17938394)
(5.6368939 -0.24882591 0.11736021)
(5.6668606 -0.26723271 0.11160029)
(5.7451348 -0.49343959 0.1515927)
(5.752278 -0.40676524 0.10249035)
(5.7198313 -0.3414657 0.0096350382)
(5.842412 -0.36401152 0.15457735)
(5.8570793 -0.37891288 0.19812085)
(5.817674 -0.40725963 0.22588681)
(5.8205769 -0.37433645 0.15992843)
(5.7213371 -0.34616936 0.035997889)
(5.7524568 -0.35536314 0.12134135)
(5.7878282 -0.40185092 0.20566913)
(5.752938 -0.38454148 0.18729273)
(5.7544165 -0.38073602 0.097515961)
(5.6511782 -0.34077631 0.090389239)
(5.6548877 -0.35875181 0.055438133)
(5.6921059 -0.36577657 0.16459685)
(5.605944 -0.32663765 0.12882697)
(5.6840586 -0.38118907 0.093479406)
(5.5984218 -0.37322131 0.10060319)
(5.4919678 -0.31257602 0.33579352)
(5.5929723 -0.27037855 -0.02375228)
(5.3954428 -0.41374004 0.25270372)
(5.6487142 -0.33045878 0.048894772)
(5.6718125 -0.30201256 0.043876634)
(5.6894154 -0.30482848 0.079256086)
(5.694733 -0.29318927 0.068645971)
(5.6899113 -0.27875259 0.067167068)
(5.6933748 -0.25687356 0.070587553)
(5.7090072 -0.24358656 0.069297923)
(5.722938 -0.22139336 0.069051089)
(5.7345571 -0.21484684 0.070767026)
(5.7462776 -0.1907609 0.073638113)
(5.7537458 -0.17587184 0.076058569)
(5.7630932 -0.1523866 0.080016295)
(5.7739839 -0.14052234 0.083328008)
(5.7831508 -0.10929126 0.087963154)
(5.7918578 -0.099682337 0.089561003)
(5.8004637 -0.066495912 0.093111998)
(5.808823 -0.056338183 0.096713509)
(5.8174332 -0.017672711 0.099826611)
(5.824185 -0.0092106505 0.10391636)
(5.8318227 0.03404998 0.10765625)
(5.8381752 0.046731231 0.10888183)
(5.8437463 0.087769343 0.11369264)
(5.8484752 0.10912729 0.11660285)
(5.8535061 0.14685448 0.11979958)
(5.8606543 0.17529803 0.12455523)
(5.8633839 0.21729829 0.12612922)
(5.8702727 0.24267344 0.11861699)
(5.8793333 0.28777409 0.095439012)
(5.8905759 0.32720838 0.067230747)
(5.9187167 0.37915252 0.04745697)
(5.9387159 0.41057774 0.051673812)
(5.9899159 0.52883296 0.13186989)
(5.9989611 0.22854874 0.13181578)
(5.7125921 0.51937349 0.11031117)
(6.0460741 0.55442105 -0.51805178)
(5.9661141 0.57817941 -0.17718559)
(5.9072445 0.72646236 0.1100551)
(6.0445954 0.73051925 0.074488393)
(5.9117586 0.66064651 -0.22577793)
(5.5101924 0.87719169 -0.40155202)
(5.7812636 0.44812477 -0.3699436)
(5.9517952 0.53388293 -0.17528645)
(6.1914035 0.5504039 -0.51211363)
(6.2226662 0.54790357 -0.64467771)
(5.7783325 0.46321774 0.053576801)
(5.7819885 0.46415827 -0.0015970791)
(5.9068733 0.37441853 0.15150857)
(5.9077552 0.49126872 0.069521823)
(5.8759508 0.3800555 0.041742706)
(5.8769824 0.33737132 0.068095926)
(5.878299 0.29846885 0.097124778)
(5.8744143 0.25706855 0.11708706)
(5.868197 0.2280855 0.12769996)
(5.8642494 0.18499447 0.1281929)
(5.8573875 0.1568968 0.12566306)
(5.852316 0.11868618 0.12219485)
(5.8480805 0.097018628 0.11892495)
(5.8413848 0.051827453 0.11552841)
(5.83498 0.044386592 0.11332434)
(5.8286224 -0.0025552794 0.10971674)
(5.8215059 -0.0080551398 0.10554174)
(5.8125089 -0.051210304 0.10248481)
(5.8044279 -0.059257084 0.099066846)
(5.794977 -0.096343885 0.095368511)
(5.7863184 -0.10048637 0.092859333)
(5.7786041 -0.13426897 0.089576012)
(5.7677018 -0.14713005 0.084989697)
(5.7575316 -0.17315916 0.08082524)
(5.7495709 -0.18546042 0.077406374)
(5.7383283 -0.20915636 0.073626748)
(5.7253705 -0.21778445 0.069561452)
(5.7095061 -0.23872943 0.067091802)
(5.6912562 -0.25212467 0.063646867)
(5.6857248 -0.28000071 0.070487057)
(5.6920348 -0.29016984 0.068319798)
(5.6969732 -0.29405218 0.095797606)
(5.711176 -0.30764844 0.069364468)
(5.6447446 -0.29380652 0.067614986)
(5.6793505 -0.31257649 0.10034264)
(5.7173448 -0.30790371 0.078908432)
(5.6825764 -0.36877794 0.038391551)
(5.6466408 -0.27556838 0.038947882)
(5.6899977 -0.24805546 0.046834297)
(5.7155056 -0.23733054 0.063751061)
(5.7300445 -0.21227182 0.071840728)
(5.7430596 -0.20396203 0.07752655)
(5.7541486 -0.18116685 0.081538165)
(5.7619891 -0.16898127 0.086010517)
(5.7725456 -0.14302845 0.089988855)
(5.7827374 -0.1264751 0.094235666)
(5.789669 -0.095996471 0.096956622)
(5.7988028 -0.090907659 0.10145053)
(5.8083926 -0.053294071 0.10364069)
(5.8161616 -0.044657183 0.10877292)
(5.8255286 -0.0013036485 0.11023382)
(5.8329564 0.0055562081 0.11558735)
(5.8386059 0.051781379 0.11788132)
(5.8448161 0.060526393 0.12193649)
(5.8516737 0.10433318 0.12469864)
(5.8563723 0.12702809 0.12740641)
(5.8607719 0.16717186 0.13071862)
(5.8675661 0.19515561 0.13007127)
(5.8734696 0.23697882 0.12385165)
(5.8804604 0.26879785 0.11487446)
(5.8819956 0.31358938 0.10390318)
(5.8740894 0.35408372 0.083590039)
(5.8377292 0.38975761 0.068035151)
(5.8559808 0.44951353 0.066662807)
(5.8835336 0.43169695 0.13640623)
(6.054737 0.68284693 -0.30303916)
(6.1714458 0.59180315 -0.56278481)
(6.0135908 0.59984008 -0.26503164)
(5.7441448 0.58671073 0.27319697)
(6.1346866 0.72052426 0.3101526)
(5.8954276 0.5590064 0.086241418)
(5.6308574 0.64772701 -0.11751561)
(5.9027486 0.5502418 0.20253093)
(6.175507 0.77029559 -0.15561267)
(5.9704402 0.67895545 -0.2078099)
(5.8526396 0.42759761 0.039269367)
(5.8426568 0.46632484 0.067436972)
(5.8730546 0.40871262 0.093653463)
(5.8832231 0.37271976 0.10766142)
(5.8890617 0.32980678 0.11210578)
(5.8879011 0.28119636 0.11067423)
(5.8797039 0.24649656 0.11663048)
(5.8709624 0.20414193 0.126521)
(5.8630969 0.17914438 0.13410964)
(5.8595936 0.13603113 0.13207061)
(5.8548025 0.11534689 0.13052143)
(5.8492011 0.072077659 0.12705715)
(5.8423242 0.057443928 0.12310033)
(5.837276 0.016401989 0.12041961)
(5.8291837 0.001942532 0.11574647)
(5.8200071 -0.033432819 0.11388753)
(5.8125278 -0.051214865 0.10858182)
(5.8024991 -0.081958806 0.10656141)
(5.7941514 -0.092952992 0.10221258)
(5.7864607 -0.12081337 0.097572188)
(5.7766994 -0.13732888 0.095149923)
(5.76673 -0.16361175 0.091412468)
(5.7587612 -0.17558165 0.086013041)
(5.7487356 -0.20061565 0.08336708)
(5.7400886 -0.20882578 0.074439858)
(5.7364467 -0.24044407 0.060078169)
(5.7221661 -0.23764835 0.03259966)
(5.6747238 -0.25785639 -0.011764162)
(5.6556598 -0.2990163 -0.0063500539)
(5.662498 -0.29540803 0.013843362)
(5.6506932 -0.28842213 0.022860921)
(5.6354089 -0.30580645 0.094723399)
(5.5663301 -0.25441854 0.18028647)
(5.764936 -0.24410833 0.1808112)
(5.7160557 -0.23441428 0.20683575)
(5.7526885 -0.25330536 0.14552324)
(5.7548312 -0.27389875 0.11449738)
(5.731997 -0.38968211 0.23628852)
(5.8277178 -0.43041276 0.31385853)
(5.9077824 -0.33063683 0.32477233)
(5.753853 -0.25627614 0.31336175)
(5.7818455 -0.31998791 0.13218014)
(5.796058 -0.32584365 0.14566715)
(5.8428776 -0.36667271 0.025473442)
(5.6510041 -0.29638445 0.0060719849)
(5.61598 -0.27739349 0.1238777)
(5.5831515 -0.30736458 0.14927564)
(5.7573661 -0.16176987 0.24338925)
(5.6790627 -0.23967199 0.12613026)
(5.6653169 -0.38811391 0.17995719)
(5.6588995 -0.33806929 0.10202018)
(5.6355502 -0.30870671 0.083986179)
(5.623346 -0.38386571 0.083303869)
(5.6356236 -0.36763272 0.098632777)
(5.6278043 -0.38397913 0.087038585)
(5.6044908 -0.39238494 0.098298884)
(5.6444779 -0.38624955 0.078848068)
(5.6941309 -0.38815369 0.073915866)
(5.701707 -0.39232743 0.0567243)
(5.7435947 -0.44133615 0.07780517)
(5.7448184 -0.39156414 0.12790583)
(5.7484646 -0.61908407 0.12637216)
(6.0226853 -0.54133897 -0.0069582655)
(5.8855398 -0.45011432 -0.11302993)
(5.9281402 -0.53787214 -0.17667083)
(5.9516082 -0.43867689 -0.31258159)
(5.6457826 -0.52510028 -0.19068633)
(5.2714771 -0.30002046 0.50566505)
(5.8301899 -0.51932831 0.12502539)
(5.8586102 -0.39819379 -0.046329323)
(5.7941535 -0.3828173 0.003585455)
(5.771245 -0.39588933 0.034619157)
(5.7693062 -0.39073621 0.035472856)
(5.7782612 -0.39345208 0.0301299)
(5.7882711 -0.39320409 0.035565635)
(5.7944243 -0.39254198 0.036451759)
(5.7989199 -0.39076919 0.04839866)
(5.8022351 -0.38909837 0.051634362)
(5.8088504 -0.38905378 0.057914655)
(5.8127285 -0.38833535 0.055636535)
(5.8187216 -0.38727375 0.063471253)
(5.8239264 -0.38421318 0.061116518)
(5.8300282 -0.3814452 0.069797555)
(5.8405813 -0.38564003 0.06603095)
(5.8495904 -0.3804042 0.073527769)
(5.8475092 -0.37544389 0.070189306)
(5.8376894 -0.37594176 0.063046662)
(5.8618622 -0.39069592 0.033516915)
(5.8840219 -0.390488 0.030246749)
(5.8971111 -0.38929118 0.022531373)
(5.9042758 -0.39157987 0.02154571)
(5.9059043 -0.3954351 0.0022406422)
(5.8999842 -0.39721683 -0.017241757)
(5.8800623 -0.39825191 -0.062512199)
(5.912345 -0.42810641 -0.13897152)
(5.9180944 -0.36773974 -0.20857869)
(5.6263275 -0.44516945 -0.18496981)
(5.3021748 -0.21410214 0.47483885)
(5.7775296 -0.41532813 0.20066972)
(5.8685227 -0.32006272 0.0049412196)
(5.7818132 -0.29010024 0.031533743)
(5.8140325 -0.30207486 0.085273663)
(5.7823246 -0.30284141 0.1016919)
(5.8143614 -0.30221652 0.11937538)
(5.8168832 -0.30771846 0.13761908)
(5.8406869 -0.31080731 0.12949818)
(5.8556961 -0.30739748 0.12977221)
(5.8701549 -0.30632743 0.12363909)
(5.8930438 -0.30649373 0.1271012)
(5.9070907 -0.3014969 0.12591838)
(5.9044645 -0.29388111 0.1370108)
(5.8942415 -0.30106146 0.11304776)
(5.9423643 -0.30613424 0.094791901)
(5.9542865 -0.3251604 0.061612036)
(6.0305861 -0.38136251 -0.028790971)
(6.0586887 -0.31952564 -0.13108689)
(5.7781991 -0.37628634 -0.090505897)
(5.4957017 -0.16391754 0.51779992)
(5.8604836 -0.35831121 0.27468289)
(5.9245045 -0.2474346 0.11309036)
(5.934912 -0.23603931 0.12515384)
(5.9515133 -0.23493423 0.11600327)
(5.9878625 -0.23552399 0.11550949)
(6.0035616 -0.23389635 0.11045205)
(6.0444745 -0.23208662 0.11340374)
(6.016743 -0.23499917 0.080591066)
(6.0510875 -0.26411284 -0.0037733282)
(6.0870147 -0.21999172 -0.10815293)
(5.0778534 0.016371071 -0.066102884)
(5.0752672 0.016494937 -0.067584191)
(5.0725484 0.016624457 -0.068749514)
(5.0696749 0.016759754 -0.06956415)
(5.066629 0.016901145 -0.069978192)
(5.0633977 0.017047714 -0.069920089)
(5.0599796 0.017201957 -0.069291273)
(5.056383 0.017361853 -0.067953891)
(5.0526215 0.017538629 -0.065732871)
(5.04866 0.017735709 -0.062420351)
(5.044323 0.017963068 -0.0578003)
(5.0391863 0.018219868 -0.051731906)
(5.0323802 0.018475726 -0.044425013)
(5.0230569 0.018272883 -0.03623497)
(5.0117562 0.017635974 -0.028385145)
(4.9454209 0.022732891 -0.044861074)
(4.8744244 0.020215588 -0.066273293)
(4.8094665 0.018598087 -0.088501666)
(4.7392129 0.021607895 -0.11175621)
(4.6548282 0.025911007 -0.14440367)
(4.5878196 0.05228771 -0.24549926)
(4.4555313 0.036441645 -0.16640092)
(4.2666025 0.055075519 -0.25030263)
(4.1879304 0.089726661 -0.11116315)
(4.0917671 0.071662013 -0.23954157)
(3.8764643 0.10339416 -0.34640813)
(3.7039125 0.056546947 -0.35237046)
(3.2846251 0.17697039 -0.61873203)
(3.1116901 0.10563099 -0.64350774)
(3.2923162 0.10302552 -0.63383949)
(1.9191925 1.683094 -1.171721)
(2.2790513 1.8964249 -1.5218081)
(3.0533691 2.6999557 -0.54122899)
(3.4946303 2.8407752 -0.42665357)
(4.0248704 2.5063385 -0.52060755)
(4.0668055 2.6104076 -0.41549867)
(4.3068118 2.1878839 -0.074309962)
(4.5553111 2.2941966 -0.031227345)
(4.9098136 2.0211752 -0.26104405)
(5.1522559 1.85906 -0.57461117)
(5.1015926 1.736138 0.13165863)
(5.3049191 1.5233913 -0.022812755)
(5.4015944 1.5291829 0.03281728)
(5.4794897 1.3379463 -0.18543469)
(5.5807771 1.2294449 -0.4320054)
(5.4563125 1.1327968 0.099594883)
(5.6293855 0.94549135 0.13570368)
(5.6604006 1.0858213 0.13414439)
(5.7892563 0.84040888 0.026759424)
(5.9074245 0.89579254 -0.048406128)
(5.8816829 0.90490866 0.12059821)
(5.9901698 0.75568117 0.045214389)
(6.1007048 0.85984691 0.2138227)
(6.0417969 0.55335193 -0.073043238)
(6.1106684 0.6701316 0.09322527)
(5.9596413 0.68335806 0.084831254)
(5.8582047 0.7042154 0.059081293)
(5.7707323 0.54021805 0.097855765)
(5.7919495 0.46081705 0.098109744)
(5.8144528 0.4176006 0.090846179)
(5.8293609 0.37492139 0.079104162)
(5.8349501 0.33430632 0.072798054)
(5.8353027 0.29482428 0.065018317)
(5.8342674 0.26078793 0.062479695)
(5.8315311 0.22254136 0.055994023)
(5.8283607 0.19089315 0.054622462)
(5.8255756 0.15430618 0.049365299)
(5.8211398 0.12624927 0.04671647)
(5.8190076 0.094479911 0.043647135)
(5.8149516 0.066838085 0.04037423)
(5.8138662 0.035512793 0.037860381)
(5.8077718 0.013098331 0.034382221)
(5.8013255 -0.01402759 0.03111026)
(5.796375 -0.031527397 0.029526659)
(5.7890236 -0.063252299 0.024316057)
(5.7838569 -0.078508983 0.02234009)
(5.7763243 -0.10531817 0.017572101)
(5.7685763 -0.11757168 0.015458857)
(5.7591442 -0.1457036 0.010590533)
(5.7521658 -0.15504036 0.0087826687)
(5.7425198 -0.18316197 0.0034777959)
(5.7328963 -0.19015918 0.0016108614)
(5.7248958 -0.21417877 -0.0028397502)
(5.7144947 -0.22912744 -0.0057542138)
(5.7053039 -0.24356756 -0.010955603)
(5.6946443 -0.25956902 -0.020124184)
(5.6833572 -0.27026686 -0.036854807)
(5.6710832 -0.27991477 -0.031285478)
(5.6563409 -0.29659309 -0.021182575)
(5.6344122 -0.30262272 0.016864099)
(5.6106458 -0.3256489 0.061508233)
(5.6262564 -0.34421767 0.10349678)
(5.6242793 -0.31043021 0.10925865)
(5.6742466 -0.30228451 0.054869758)
(5.7048094 -0.30020871 0.020104077)
(5.7090578 -0.30848009 -0.010948132)
(5.7022531 -0.28283016 -0.019958588)
(5.7035595 -0.26658812 -0.024516033)
(5.7084686 -0.25262705 -0.013223459)
(5.7148642 -0.2419878 -0.0045660731)
(5.7224676 -0.22366186 0.00076946068)
(5.7293912 -0.20944768 0.0050004834)
(5.7351768 -0.18309185 0.009600346)
(5.7444113 -0.18030483 0.013498202)
(5.753985 -0.14743177 0.018372704)
(5.7609969 -0.14216641 0.021117982)
(5.7707362 -0.11079592 0.025685405)
(5.7791544 -0.10104511 0.028386224)
(5.786908 -0.071481525 0.032524466)
(5.792065 -0.058637638 0.0354354)
(5.7996606 -0.022904999 0.039399918)
(5.8039332 -0.0091988472 0.042696928)
(5.8113503 0.017297255 0.046368885)
(5.8173384 0.042759149 0.051192494)
(5.8178386 0.073799057 0.053831032)
(5.8224077 0.099531525 0.057355326)
(5.8241141 0.13494745 0.061701679)
(5.8295238 0.1576449 0.06516555)
(5.8316761 0.20272446 0.069478652)
(5.8344942 0.22716092 0.072703226)
(5.8384185 0.26833827 0.07424384)
(5.8402178 0.3041209 0.077119833)
(5.8422552 0.33963868 0.082003223)
(5.8406055 0.38208329 0.091661161)
(5.8268814 0.42689391 0.10878335)
(5.8018034 0.46601779 0.12724505)
(5.7678331 0.53485097 0.14331961)
(5.8751286 0.68896092 0.11768876)
(5.977324 0.67471489 0.30026779)
(5.9231748 0.8640798 0.035745139)
(6.0485733 0.81734525 -0.088959861)
(6.0421843 0.86417457 0.18442611)
(5.9740264 0.78174839 0.33445009)
(5.9114762 0.74144476 0.29954935)
(5.7290424 0.93796871 0.041241008)
(5.6458894 0.96346241 0.082108773)
(5.5977599 1.1348154 0.17181273)
(5.5846387 1.1381815 0.27192399)
(5.6761615 1.2322164 -0.30510994)
(5.6358591 1.3174994 -0.3361998)
(5.4260045 1.4076092 -0.073157142)
(5.3302297 1.5697476 -0.028768565)
(5.2509504 1.7241301 0.15471619)
(5.3434714 1.847645 -0.42258158)
(5.0906201 2.0139684 -0.35326655)
(4.7629458 2.0406885 -0.24190512)
(4.3455532 2.2900217 -0.12310217)
(4.4157324 2.2361727 -0.15796519)
(4.7022597 2.3328816 -0.018403382)
(4.3183644 2.4407534 -0.46963745)
(3.8555451 2.4105731 -0.6469115)
(3.5869525 2.3136516 -0.66917435)
(2.8718614 2.6061129 -0.87915114)
(1.5394983 2.5656671 -1.1979178)
(2.6931999 0.057021537 -1.2768337)
(2.8021769 0.26041382 -1.0126356)
(1.8429378 1.9074521 -1.2249033)
(2.4346549 2.0047711 -1.4118332)
(2.7557109 2.6641179 -0.86404003)
(3.2509026 2.9815752 -0.4045841)
(3.9363133 2.5271595 -0.57329086)
(4.01295 2.555204 -0.44494423)
(4.5369847 2.3412409 -0.10995698)
(4.8466545 2.0597255 -0.21874769)
(5.0139792 2.0586518 -0.19120211)
(5.2368799 1.849363 -0.55458588)
(5.1332928 1.7193605 0.11277982)
(5.3709285 1.5028629 -0.026665116)
(5.4952847 1.5083049 0.021656486)
(5.5819727 1.3472491 -0.19484206)
(5.6551248 1.1982049 -0.43647127)
(5.4921818 1.1023948 0.22204418)
(5.6885006 0.86717537 0.18235734)
(5.7217736 1.0879234 0.18458568)
(5.6433365 0.97272195 0.14500937)
(5.7766506 0.72584385 0.19782253)
(6.1139045 0.6719719 0.045739749)
(5.9847109 0.82476533 0.22077122)