/*--------------------------------*- C++ -*----------------------------------*\
| =========                 |                                                 |
| \\      /  F ield         | OpenFOAM: The Open Source CFD Toolbox           |
|  \\    /   O peration     | Version:  v2012                                 |
|   \\  /    A nd           | Website:  www.openfoam.com                      |
|    \\/     M anipulation  |                                                 |
\*---------------------------------------------------------------------------*/
FoamFile
{
    version     2.0;
    format      ascii;
    class       volScalarField;
    location    "100";
    object      k;
}
// * * * * * * * * * * * * * * * * * * * * * * * * * * * * * * * * * * * * * //

dimensions      [0 2 -2 0 0 0 0];


internalField   nonuniform List<scalar> 
120951
(
0.37247124
0.37246352
0.37389307
0.37387453
0.37389665
0.37388763
0.37391778
0.37390612
0.3739217
0.37391612
0.37391835
0.37391621
0.37391564
0.37391521
0.3739152
0.37391522
0.37391527
0.37391529
0.37391529
0.37391527
0.37391522
0.3739152
0.3739152
0.37391564
0.37391621
0.37391835
0.37391612
0.3739217
0.37390613
0.37391778
0.37388764
0.37389666
0.37387453
0.37389307
0.37388159
0.37390767
0.37389533
0.37390979
0.37390499
0.3739073
0.3739056
0.37390513
0.37390479
0.37390479
0.37390482
0.37390487
0.37390491
0.37390494
0.37390496
0.37390498
0.373905
0.37390502
0.37390503
0.37390505
0.37390507
0.37390508
0.3739051
0.37390511
0.37390512
0.37390513
0.37390515
0.37390515
0.37390516
0.37390517
0.37390518
0.37390518
0.37390519
0.37390519
0.37390519
0.3739052
0.3739052
0.3739052
0.3739052
0.3739052
0.37390519
0.37390519
0.37390518
0.37390518
0.37390517
0.37390516
0.37390515
0.37390514
0.37390513
0.37390512
0.37390511
0.3739051
0.37390508
0.37390506
0.37390504
0.37390502
0.37390498
0.37390493
0.3739049
0.3739049
0.37390525
0.37390572
0.37390742
0.37390511
0.37390991
0.37389545
0.37390779
0.37388171
0.37389319
0.37387465
0.37389682
0.37388791
0.37391821
0.37390681
0.37392267
0.37391747
0.37392012
0.37391845
0.37391837
0.37391844
0.37391893
0.37391943
0.37391991
0.37392031
0.3739206
0.37392076
0.37392079
0.37392069
0.3739205
0.37392058
0.37392067
0.37392222
0.37391934
0.37392421
0.37390802
0.37391908
0.37388853
0.37389726
0.37387502
0.37389356
0.37388214
0.37390828
0.37389607
0.37391065
0.37390601
0.37390849
0.37390696
0.37390665
0.37390647
0.37390661
0.37390677
0.37390692
0.37390705
0.37390715
0.37390722
0.37390727
0.37390732
0.37390742
0.37390765
0.37390812
0.3739089
0.37391004
0.37391148
0.37391312
0.37391485
0.37391658
0.37391815
0.37391921
0.37391925
0.3739192
0.37391914
0.37391907
0.373919
0.37391894
0.37391887
0.37391882
0.37391876
0.3739187
0.37391864
0.37391857
0.3739184
0.37391723
0.37391553
0.37391369
0.37391184
0.37391009
0.37390856
0.37390733
0.37390646
0.37390592
0.37390563
0.37390549
0.3739054
0.37390533
0.37390528
0.37390521
0.37390514
0.37390505
0.37390499
0.37390496
0.37390527
0.37390571
0.37390739
0.37390505
0.37390983
0.37389536
0.37390769
0.3738816
0.37245904
0.37247746
0.37247163
0.37248503
0.37248413
0.3724867
0.37248558
0.37248488
0.37248437
0.37248427
0.37248432
0.37248443
0.37248457
0.37248471
0.37248483
0.37248498
0.37248516
0.3724854
0.37248579
0.37248646
0.37248746
0.3724888
0.37249045
0.37249232
0.37249427
0.37249617
0.37249785
0.37249894
0.37249927
0.37249944
0.37249959
0.37249974
0.37249987
0.37250002
0.37250017
0.37250033
0.37250049
0.37250065
0.3725008
0.37250093
0.37250091
0.37250011
0.37249872
0.37249709
0.37249544
0.37249385
0.37249244
0.37249132
0.37249056
0.3724901
0.37248987
0.37248977
0.37248971
0.37248965
0.37248956
0.3724894
0.37248921
0.372489
0.37248881
0.37248873
0.37248902
0.37248947
0.37249033
0.3724875
0.37248815
0.37247454
0.37248018
0.37246165
0.37246605
0.37244831
0.37095624
0.36934398
0.36768921
0.36599669
0.36432377
0.36268509
0.36110154
0.35958885
0.35817007
0.35688188
0.35578395
0.35497386
0.35458954
0.35475948
0.35540483
0.35671885
0.35893541
0.36243755
0.36767521
0.15934014
0.16461506
0.1699011
0.17522138
0.18057787
0.18596387
0.19139378
0.19681913
0.20225064
0.20773401
0.21322911
0.21873185
0.22428947
0.2298172
0.23532824
0.24084675
0.24635641
0.25182617
0.25726069
0.26260468
0.26785109
0.27302623
0.27812609
0.28310813
0.28796645
0.29268422
0.2972096
0.30154979
0.30570015
0.3096397
0.31337742
0.3168877
0.32016547
0.3232174
0.32603901
0.32864696
0.33106736
0.33332139
0.33542819
0.33740481
0.33927472
0.34106125
0.3427842
0.34446022
0.34610403
0.34772815
0.34934228
0.35095357
0.3525678
0.35418897
0.35582014
0.35746372
0.35912182
0.36079656
0.3624895
0.36420018
0.36592169
0.36764008
0.36932331
0.37094347
0.37093554
0.37094283
0.37094128
0.37095111
0.37095323
0.37095559
0.37095512
0.37095437
0.37095376
0.37095354
0.37095354
0.37095367
0.37095386
0.37095405
0.37095427
0.3709545
0.37095477
0.37095512
0.37095564
0.37095645
0.37095761
0.37095912
0.37096095
0.37096298
0.37096507
0.37096706
0.3709688
0.37096992
0.3709704
0.37097069
0.37097094
0.37097118
0.37097143
0.37097168
0.37097193
0.37097221
0.3709725
0.37097278
0.37097304
0.37097329
0.37097332
0.37097273
0.37097152
0.37097002
0.37096843
0.37096689
0.37096554
0.37096448
0.37096376
0.37096339
0.37096323
0.37096321
0.37096323
0.37096326
0.37096324
0.37096316
0.37096305
0.37096292
0.37096287
0.37096298
0.37096342
0.37096397
0.3709642
0.37096158
0.37095922
0.37094919
0.37095057
0.37094316
0.37095102
0.36934112
0.36767643
0.36598896
0.364316
0.36267893
0.36109528
0.35958154
0.35816061
0.35686872
0.35576426
0.35494353
0.35454142
0.35469238
0.35531496
0.35660426
0.35884501
0.3624752
0.36850458
0.37050623
0.36475467
0.36038333
0.35739195
0.35544784
0.35426212
0.3536465
0.35345644
0.35375004
0.35446494
0.35547956
0.35669837
0.35805929
0.35952213
0.36106124
0.36266001
0.36430632
0.36598717
0.3676825
0.36936048
0.37097877
0.37249761
0.37251397
0.37251375
0.37251717
0.37251649
0.37251635
0.37251623
0.37251635
0.37251635
0.37251615
0.3725157
0.37251502
0.37251414
0.37251314
0.37251214
0.37251129
0.37251097
0.372511
0.37251185
0.37250886
0.37250969
0.37249399
0.37249679
0.37247103
0.37246979
0.37244638
0.37095048
0.36933024
0.36766095
0.36594369
0.36423128
0.36253133
0.3608547
0.35920157
0.35757093
0.35596129
0.35437147
0.35280004
0.35124488
0.3497028
0.34816898
0.34663678
0.34509693
0.34353781
0.34194441
0.34029969
0.33858313
0.33677328
0.33484433
0.33277586
0.33054375
0.32813892
0.3255304
0.32269657
0.31962758
0.31629807
0.31593189
0.31930995
0.32241927
0.32529102
0.32793817
0.3303841
0.33264986
0.33474603
0.33669802
0.33852698
0.34025867
0.34191551
0.34351804
0.34508371
0.34662814
0.3481635
0.34969938
0.35124273
0.35279857
0.35437031
0.35596021
0.35756983
0.35920049
0.3608535
0.36252971
0.36422794
0.36594073
0.36765332
0.36933333
0.37095124
0.37095132
0.36933126
0.36764614
0.3659334
0.36422119
0.36252482
0.36085026
0.35919855
0.35756888
0.3559601
0.35437101
0.35280014
0.35124529
0.34970314
0.34816872
0.34663525
0.34509322
0.34353045
0.34193116
0.34027793
0.33855078
0.33672729
0.33478241
0.3326984
0.33044526
0.32801365
0.32537807
0.32252182
0.31942804
0.31606787
0.31633853
0.31968021
0.32274745
0.32557653
0.32818303
0.33059255
0.33282108
0.33488373
0.33680869
0.33861396
0.34032636
0.34196846
0.34355862
0.34511456
0.34665135
0.34818077
0.3497121
0.3512519
0.35280502
0.35437456
0.35596258
0.35757041
0.35919914
0.36084991
0.36252367
0.36421982
0.36593311
0.36764894
0.3693398
0.37096749
0.37097084
0.36934488
0.36765388
0.36593752
0.3642239
0.36252777
0.3608543
0.35920397
0.3575758
0.35596871
0.35438172
0.35281366
0.35126268
0.349726
0.34819897
0.3466754
0.34514662
0.34360113
0.34202404
0.34039895
0.3387062
0.33692401
0.33502767
0.33299924
0.33080816
0.32844352
0.32588008
0.32309483
0.32006874
0.31677496
0.31708229
0.32036065
0.32335735
0.32611055
0.32864493
0.33098446
0.33314867
0.33515409
0.33702969
0.33879327
0.3404694
0.34208006
0.34364543
0.34518115
0.34670195
0.34821954
0.34974236
0.35127605
0.35282486
0.35439142
0.35597742
0.35758384
0.35921157
0.36086161
0.36253493
0.36423115
0.36594523
0.3676626
0.36935527
0.37098356
0.37098637
0.36935951
0.36766743
0.36595052
0.36423698
0.36254137
0.36086868
0.35921929
0.35759231
0.35598684
0.35440219
0.35283753
0.35129141
0.3497615
0.34824372
0.34673251
0.34521972
0.3436944
0.34214264
0.34054817
0.33889182
0.33715097
0.33530164
0.33332599
0.3311936
0.32889044
0.3263915
0.32367048
0.32069662
0.32097118
0.32392182
0.32661681
0.32909138
0.33137409
0.3334834
0.33543696
0.33726715
0.33898823
0.34062677
0.34220614
0.34374539
0.34526046
0.34676481
0.34826933
0.34978177
0.3513076
0.35285063
0.35441303
0.35599597
0.35760012
0.35922603
0.36087446
0.36254626
0.36424105
0.36595392
0.36767044
0.36936241
0.37098931
0.37098945
0.3693632
0.36767178
0.36595593
0.36424387
0.36255004
0.36087928
0.359232
0.35760743
0.35600495
0.35442417
0.35286464
0.35132539
0.34980453
0.3482986
0.3468026
0.34530897
0.34380732
0.3422842
0.34072457
0.33910744
0.33741268
0.33561336
0.33369088
0.33161451
0.3293708
0.32693288
0.32427536
0.32136686
0.3217332
0.32461588
0.32724319
0.32964985
0.33186355
0.33390675
0.33579807
0.33756856
0.33923864
0.34083272
0.34237272
0.34387853
0.34536517
0.34684626
0.34833231
0.34983057
0.35134547
0.35288016
0.35443624
0.35601442
0.35761492
0.35923794
0.36088397
0.36255365
0.36424655
0.36595781
0.36767301
0.36936391
0.37098972
0.37099041
0.36936507
0.36767473
0.36596019
0.36424973
0.36255776
0.36088919
0.35924454
0.35762329
0.35602515
0.35445014
0.35289835
0.35136943
0.34986219
0.34837398
0.34690064
0.34543556
0.34396909
0.34248832
0.34097855
0.33941909
0.33778923
0.3360625
0.33421807
0.33222375
0.33006292
0.3277087
0.32513427
0.32230243
0.3229429
0.32572741
0.32824483
0.33054123
0.33264704
0.33458389
0.33637341
0.33805044
0.33963532
0.34115452
0.3426293
0.34408044
0.34552201
0.34696693
0.34842453
0.34990034
0.35139811
0.35291996
0.35446649
0.35603764
0.35763296
0.35925213
0.36089521
0.36256257
0.36425357
0.36596322
0.36767707
0.36936682
0.37099166
0.37099316
0.36936889
0.3676798
0.3659667
0.36425793
0.36256803
0.36090206
0.35926083
0.3576442
0.35605237
0.35448604
0.35294613
0.35143331
0.3499476
0.3484877
0.34705103
0.34563267
0.34422447
0.3428148
0.34139007
0.33992927
0.33841234
0.33681099
0.33510499
0.33325558
0.3312443
0.32903978
0.32660973
0.32391367
0.32770573
0.3300371
0.33212785
0.33402635
0.33576291
0.33736266
0.33886796
0.34030032
0.34168693
0.3430492
0.34440666
0.34577207
0.3471563
0.34856643
0.35000599
0.35147638
0.35297781
0.35450938
0.35606968
0.35765716
0.35927066
0.36090963
0.36257393
0.36426258
0.36597036
0.36768264
0.36937104
0.3709947
0.37099611
0.36937304
0.36768536
0.36597396
0.3642673
0.36258013
0.36091784
0.35928167
0.35767208
0.3560901
0.35453749
0.35301654
0.35152967
0.35007903
0.34866595
0.34729074
0.34595172
0.34464437
0.34336013
0.34208801
0.34080877
0.33950223
0.33813876
0.33669246
0.33511831
0.33339057
0.33146588
0.32930241
0.33332529
0.33504459
0.33655787
0.33791618
0.33915905
0.34033637
0.34147704
0.34261248
0.34376574
0.34495254
0.34618261
0.34746202
0.34879172
0.3501705
0.35159565
0.35306387
0.35457134
0.35611424
0.3576893
0.359294
0.3609267
0.36258654
0.36427196
0.36597734
0.36768781
0.36937477
0.37099726
0.37099809
0.36937612
0.36768988
0.36598043
0.3642765
0.36259316
0.36093632
0.3593079
0.35770934
0.35614298
0.35461238
0.35312221
0.35167802
0.35028598
0.34895241
0.34768379
0.34648563
0.34536143
0.34431
0.34332599
0.34239463
0.34149049
0.34057485
0.33960901
0.33853641
0.33731461
0.33588405
0.34017395
0.34106175
0.34179452
0.34243049
0.34302844
0.34362698
0.3442834
0.34503527
0.34590087
0.34688063
0.3479695
0.34915705
0.3504314
0.35178056
0.35319398
0.35466224
0.35617734
0.3577328
0.35932375
0.36094689
0.3626001
0.36428096
0.36598323
0.36769157
0.36937709
0.3709986
0.37099883
0.36937775
0.36769296
0.36598583
0.36428547
0.36260752
0.36095868
0.35934197
0.35776037
0.3562184
0.35472269
0.35328214
0.3519081
0.35061463
0.34941867
0.34834005
0.34739999
0.34661921
0.34601031
0.3455665
0.34524903
0.34501311
0.34478021
0.34452909
0.3442111
0.34377944
0.34823482
0.34807408
0.34782873
0.34756881
0.34735703
0.34722462
0.34719011
0.34727788
0.34756296
0.34807774
0.3488171
0.34975058
0.35084379
0.35206541
0.35338946
0.35479537
0.35626714
0.35779261
0.35936292
0.36097195
0.36261564
0.36429019
0.3659884
0.36769421
0.36937825
0.37099893
0.37099913
0.36937877
0.36769547
0.36599105
0.36429522
0.36262451
0.36098677
0.35938675
0.35782989
0.35632426
0.3548817
0.35351874
0.35225769
0.35112837
0.35016935
0.34942831
0.34895321
0.34876652
0.34883813
0.34909033
0.34954521
0.35019898
0.35101902
0.35195976
0.35294559
0.35908998
0.35711032
0.35525799
0.35363329
0.35229854
0.35128603
0.35059013
0.3501894
0.35003744
0.3501958
0.35068938
0.35147566
0.35248832
0.35367128
0.35498209
0.35638972
0.35787194
0.35941318
0.36100285
0.36263387
0.36430035
0.36599361
0.36769657
0.36937915
0.37099928
0.37099912
0.36937889
0.36769693
0.36599544
0.36430488
0.36264299
0.3610194
0.35944132
0.35791784
0.35646261
0.35509591
0.35384736
0.35275938
0.35189147
0.35132255
0.35112433
0.35129118
0.35175834
0.35259575
0.35386604
0.35563204
0.35792109
0.36067505
0.36380529
0.363366
0.35970494
0.35689141
0.35486852
0.35348663
0.35261948
0.35217459
0.35206011
0.35237499
0.35306795
0.35404397
0.35522052
0.35654077
0.35796587
0.35946975
0.36103517
0.36265073
0.36430768
0.36599529
0.36769506
0.36937601
0.37099578
0.37099229
0.36937143
0.36769089
0.3659927
0.3643081
0.36265632
0.36104916
0.35949701
0.35801382
0.35662091
0.35535109
0.3542542
0.35340527
0.35290908
0.35286067
0.3532181
0.35401483
0.35537436
0.35745583
0.36050976
0.36476419
0.35895814
0.35275227
0.34789764
0.34402418
0.34090218
0.33837694
0.33643044
0.33498213
0.33391377
0.33313124
0.33253793
0.3321082
0.33176727
0.33150111
0.33127608
0.33107796
0.33088907
0.33070202
0.3305083
0.33033577
0.33027246
0.33039659
0.33044113
0.33060593
0.33078939
0.33093533
0.33103225
0.33107825
0.33109724
0.3310893
0.33106198
0.33103449
0.33098861
0.33094538
0.33088964
0.33083975
0.33078552
0.33072179
0.33066534
0.33061194
0.33056569
0.33051408
0.33045874
0.3304132
0.33035741
0.33030298
0.33025071
0.33021456
0.3301711
0.33012484
0.33007725
0.33004232
0.32999837
0.32995834
0.32991282
0.32987076
0.32984371
0.32981044
0.32977367
0.32974674
0.32971123
0.32967131
0.32964107
0.32961564
0.32959963
0.32958205
0.32956323
0.3295568
0.32954119
0.32951989
0.32949991
0.3294941
0.32947938
0.32946736
0.32944647
0.32942466
0.32941625
0.32940834
0.32940543
0.32939992
0.32939572
0.32937638
0.32935943
0.32932275
0.32927273
0.32920092
0.3290662
0.32889239
0.32867307
0.32850002
0.32843351
0.32854297
0.33099752
0.33327578
0.33539899
0.33738899
0.33926982
0.34106329
0.34279031
0.34446855
0.34611362
0.34773793
0.34935162
0.35096231
0.35257583
0.35419636
0.35582699
0.35747009
0.35912777
0.36080235
0.36249563
0.36420813
0.36592962
0.3676531
0.3693263
0.37094879
0.3724458
0.37246353
0.37094351
0.36932342
0.36764031
0.36592213
0.36420091
0.36249063
0.36079817
0.35912402
0.35746658
0.3558237
0.35419318
0.35257255
0.35095861
0.34934707
0.34773194
0.34610543
0.3444572
0.34277461
0.34104188
0.33924109
0.3373511
0.33535001
0.33321366
0.33092037
0.33096921
0.33110722
0.3312819
0.33142155
0.33152909
0.33158715
0.33162634
0.3316563
0.3316677
0.33168193
0.33168766
0.33169302
0.33169527
0.33169894
0.33170635
0.33172485
0.33174305
0.33175376
0.33176493
0.33177129
0.3317858
0.33180645
0.33181947
0.33182693
0.3318412
0.3318559
0.3318724
0.33189449
0.33192031
0.33195079
0.33198275
0.33200922
0.33203937
0.33207128
0.33209423
0.33213068
0.33217164
0.33220741
0.33224582
0.33227863
0.33231818
0.33235772
0.33239721
0.33243366
0.3324786
0.33252873
0.33257902
0.33262259
0.33266997
0.33271916
0.33276163
0.33280937
0.33286052
0.33291567
0.33296563
0.33301159
0.33306434
0.3331034
0.33314561
0.33317361
0.33319792
0.33320752
0.33319828
0.3331656
0.33309054
0.33297412
0.33282561
0.33269424
0.33265767
0.33475006
0.33478109
0.33488388
0.33499868
0.33509166
0.33514549
0.33517035
0.33516977
0.3351587
0.33513777
0.33510961
0.33507167
0.33503646
0.33498981
0.33494725
0.3348994
0.33485367
0.33480506
0.334765
0.33472303
0.33467821
0.33463945
0.33459766
0.33455073
0.33450704
0.33447051
0.33443533
0.33439801
0.33436415
0.33433224
0.33430118
0.334269
0.33423608
0.33420036
0.33416967
0.33414746
0.3341181
0.33409548
0.33406991
0.33404209
0.33402028
0.33399539
0.33397941
0.33396083
0.33394845
0.33393829
0.33392905
0.3339168
0.33389838
0.33388982
0.33388253
0.3338751
0.33386458
0.33385003
0.33383653
0.3338315
0.33382985
0.33382404
0.33382193
0.33381307
0.33380373
0.33379569
0.33377261
0.33374156
0.33369541
0.33361053
0.33350073
0.33336333
0.33325594
0.33538206
0.33546677
0.33557262
0.33565754
0.33572281
0.33575898
0.33578318
0.33580009
0.33580654
0.33581231
0.335821
0.33582322
0.33582889
0.33582992
0.33583342
0.33584217
0.33585394
0.33586363
0.33586897
0.33587616
0.33588287
0.33589778
0.33590843
0.33591788
0.33592653
0.33593751
0.33595462
0.3359684
0.33598973
0.33600748
0.33603017
0.33605312
0.33607201
0.3360971
0.33611765
0.33614252
0.33617384
0.33620316
0.3362308
0.33625887
0.33628626
0.33631543
0.33634922
0.33638161
0.33641382
0.33645055
0.33649273
0.33653102
0.33656505
0.33660493
0.33664232
0.33667863
0.33672177
0.33676182
0.33680543
0.33684352
0.33688453
0.33691683
0.33695042
0.33697688
0.33699669
0.3370092
0.3370142
0.33699866
0.33695934
0.33688978
0.33680237
0.33672319
0.33670129
0.33852719
0.33854388
0.33860338
0.33866905
0.33871816
0.33874683
0.33875469
0.33874845
0.33873436
0.33871382
0.33869029
0.33866081
0.33863175
0.33859594
0.3385623
0.33852452
0.33848855
0.33845048
0.33841761
0.33838523
0.33835033
0.33831902
0.33828595
0.33825035
0.33821933
0.33818822
0.33816019
0.33813154
0.33810557
0.33808005
0.3380556
0.33803151
0.33800736
0.33798162
0.3379614
0.3379411
0.33792021
0.33790315
0.33788333
0.33786565
0.33785071
0.33783283
0.33782115
0.33780699
0.33779647
0.33778714
0.337779
0.33777005
0.33775843
0.33775173
0.33774502
0.33774106
0.33773356
0.3377258
0.33771974
0.3377163
0.33771471
0.33771024
0.33770839
0.33770205
0.33769803
0.33769047
0.33767961
0.33766073
0.33763296
0.33758345
0.33751934
0.33743954
0.33737641
0.339259
0.33930636
0.33936503
0.33941254
0.33944909
0.33947009
0.33948413
0.33949154
0.33949816
0.33950101
0.33950578
0.33950774
0.33951078
0.33951347
0.33951654
0.33952057
0.33952608
0.33953152
0.33953502
0.33954033
0.33954674
0.33955574
0.33956343
0.33957078
0.3395794
0.33958885
0.33960053
0.33961084
0.33962555
0.33963861
0.33965287
0.33966899
0.33968416
0.33970179
0.33971978
0.33973679
0.33975799
0.33977799
0.33979899
0.33982054
0.33984318
0.33986607
0.33989048
0.33991481
0.33994265
0.33996918
0.33999912
0.34002751
0.34005568
0.34008576
0.34011461
0.34014396
0.34017661
0.34020796
0.34024038
0.34027026
0.34030103
0.34032724
0.34035279
0.34037426
0.34039387
0.34040836
0.34041612
0.34041284
0.3403938
0.34035951
0.34031191
0.3402687
0.34025831
0.34191344
0.34192014
0.34195032
0.34198332
0.34200663
0.34201775
0.34201846
0.34200978
0.34199521
0.34197807
0.34195796
0.34193586
0.34191192
0.34188613
0.3418599
0.34183254
0.34180518
0.34177776
0.34175267
0.34172774
0.34170154
0.34167612
0.3416517
0.3416267
0.34160399
0.34158046
0.34155921
0.34153839
0.34151801
0.34149925
0.34148019
0.34146172
0.34144498
0.34142754
0.34141307
0.34139789
0.34138334
0.34137003
0.34135693
0.34134514
0.34133355
0.34132145
0.34131252
0.34130317
0.34129457
0.34128788
0.34128109
0.34127459
0.34126751
0.34126149
0.34125756
0.34125428
0.34125018
0.34124578
0.34124311
0.34124034
0.34123705
0.34123528
0.34123321
0.34122974
0.34122774
0.34122313
0.34121753
0.34120698
0.34119131
0.34116475
0.34113034
0.34108837
0.34105486
0.34278302
0.34280655
0.34283584
0.34286013
0.34287907
0.34289053
0.34289839
0.34290224
0.34290552
0.34290696
0.34290938
0.34291121
0.34291271
0.34291509
0.34291758
0.34291969
0.34292328
0.3429267
0.34292953
0.34293298
0.34293784
0.3429437
0.34294918
0.34295482
0.34296066
0.34296779
0.34297553
0.34298318
0.34299302
0.34300277
0.34301241
0.34302339
0.34303466
0.34304655
0.34305947
0.34307196
0.34308639
0.34310066
0.34311631
0.34313234
0.34314845
0.34316576
0.34318368
0.34320169
0.34322159
0.34324102
0.34326188
0.34328294
0.34330466
0.34332688
0.3433483
0.34336996
0.34339286
0.34341623
0.3434394
0.34346188
0.34348355
0.34350476
0.34352416
0.34354193
0.34355748
0.34357086
0.3435798
0.34358146
0.3435754
0.34356061
0.34353873
0.3435192
0.34351592
0.34508112
0.3450827
0.34509432
0.34510776
0.34511632
0.34511923
0.34511588
0.34510718
0.3450956
0.34508136
0.34506588
0.34504911
0.34503088
0.34501251
0.3449935
0.34497393
0.34495437
0.34493549
0.34491677
0.34489857
0.34487985
0.34486196
0.34484391
0.34482666
0.3448102
0.34479356
0.3447782
0.34476297
0.34474883
0.34473476
0.34472145
0.34470863
0.34469648
0.34468458
0.34467403
0.34466338
0.34465343
0.34464365
0.34463446
0.34462661
0.34461871
0.34461081
0.34460432
0.34459783
0.34459232
0.34458688
0.34458217
0.3445776
0.34457281
0.34456921
0.34456593
0.34456348
0.34456071
0.34455792
0.34455601
0.34455381
0.34455234
0.34455068
0.34454934
0.34454777
0.34454682
0.3445445
0.34454178
0.34453603
0.34452777
0.34451441
0.34449771
0.34447794
0.34446264
0.34610817
0.3461178
0.34613057
0.34614181
0.3461511
0.34615707
0.34616121
0.34616318
0.34616475
0.34616539
0.34616638
0.34616736
0.34616878
0.34617001
0.34617182
0.34617352
0.34617567
0.34617796
0.34618014
0.34618296
0.34618583
0.34618963
0.3461934
0.34619738
0.34620201
0.3462066
0.34621191
0.3462173
0.34622361
0.34622999
0.34623648
0.34624411
0.34625225
0.34626048
0.34626923
0.34627808
0.3462878
0.3462979
0.34630846
0.34631948
0.34633128
0.34634307
0.34635576
0.34636865
0.34638243
0.34639623
0.34641051
0.34642553
0.34644035
0.34645587
0.34647123
0.34648696
0.3465027
0.34651884
0.34653511
0.34655094
0.34656655
0.3465819
0.34659618
0.34660953
0.34662196
0.34663216
0.34664009
0.34664407
0.34664344
0.34663896
0.34663168
0.34662553
0.34662575
0.34816095
0.34815957
0.34816215
0.34816522
0.348167
0.34816617
0.34816221
0.3481553
0.34814651
0.34813599
0.34812463
0.34811252
0.34809987
0.3480868
0.34807377
0.34806046
0.34804721
0.34803402
0.34802111
0.34800824
0.34799551
0.34798332
0.347971
0.3479593
0.3479478
0.34793653
0.34792586
0.34791545
0.34790574
0.34789608
0.347887
0.34787818
0.34786995
0.34786212
0.34785477
0.34784768
0.34784088
0.3478343
0.34782808
0.34782267
0.34781749
0.34781249
0.34780806
0.34780377
0.34779998
0.34779622
0.34779288
0.34778967
0.34778668
0.34778434
0.34778202
0.34778009
0.34777811
0.3477765
0.34777499
0.34777352
0.34777246
0.3477714
0.34777062
0.34776995
0.34776954
0.3477685
0.34776708
0.34776407
0.3477597
0.3477532
0.34774582
0.34773805
0.34773286
0.34934641
0.34934857
0.34935283
0.34935761
0.34936222
0.34936554
0.34936775
0.34936878
0.34936942
0.34936967
0.3493701
0.34937068
0.3493715
0.34937243
0.3493736
0.3493749
0.34937622
0.34937785
0.34937952
0.34938141
0.34938335
0.34938575
0.34938838
0.34939112
0.34939414
0.34939729
0.34940072
0.34940433
0.34940829
0.34941247
0.34941687
0.34942184
0.34942712
0.34943266
0.3494384
0.3494444
0.34945073
0.3494574
0.34946459
0.34947194
0.34947976
0.34948771
0.34949615
0.34950486
0.34951396
0.34952334
0.34953288
0.34954286
0.34955282
0.34956315
0.34957366
0.34958425
0.34959503
0.3496058
0.3496166
0.34962726
0.34963797
0.34964836
0.34965841
0.3496679
0.34967667
0.34968413
0.34968994
0.3496935
0.34969494
0.34969483
0.34969442
0.34969457
0.34969697
0.35124029
0.35123717
0.35123513
0.35123397
0.35123316
0.35123163
0.35122866
0.35122394
0.35121772
0.35121053
0.35120269
0.35119452
0.35118606
0.35117743
0.35116884
0.35116018
0.35115147
0.35114284
0.35113429
0.35112588
0.35111757
0.35110951
0.35110155
0.35109385
0.35108632
0.35107909
0.35107207
0.35106532
0.35105891
0.35105266
0.35104678
0.35104107
0.35103569
0.35103055
0.35102574
0.35102114
0.35101674
0.35101262
0.35100866
0.35100509
0.35100171
0.3509986
0.35099566
0.35099296
0.35099036
0.35098798
0.35098574
0.35098371
0.35098173
0.35098007
0.35097858
0.35097715
0.35097582
0.35097467
0.35097359
0.35097267
0.35097186
0.35097124
0.35097079
0.35097053
0.35097043
0.35097006
0.35096933
0.35096763
0.350965
0.35096156
0.35095849
0.35095662
0.35095677
0.35256964
0.35256783
0.35256808
0.35257011
0.35257285
0.35257507
0.35257642
0.35257693
0.35257708
0.35257708
0.35257721
0.35257754
0.35257803
0.35257869
0.35257945
0.35258033
0.35258131
0.3525824
0.35258358
0.35258481
0.35258617
0.35258775
0.35258937
0.35259115
0.35259306
0.35259513
0.35259728
0.35259961
0.35260207
0.35260473
0.3526076
0.35261069
0.35261393
0.35261738
0.35262102
0.35262484
0.35262892
0.35263316
0.35263766
0.35264231
0.35264724
0.35265232
0.35265765
0.3526632
0.35266889
0.35267484
0.35268094
0.35268721
0.35269361
0.35270017
0.35270684
0.35271361
0.35272043
0.35272731
0.35273417
0.35274098
0.35274783
0.35275459
0.35276118
0.35276756
0.35277341
0.35277846
0.3527822
0.35278447
0.35278571
0.35278681
0.35278896
0.35279233
0.35279619
0.35436789
0.35436334
0.35435898
0.35435626
0.35435521
0.35435449
0.35435294
0.35435007
0.35434604
0.35434131
0.35433621
0.35433096
0.35432565
0.3543203
0.35431498
0.35430966
0.35430432
0.35429902
0.35429378
0.35428861
0.35428351
0.35427852
0.35427367
0.35426893
0.3542643
0.35425987
0.35425557
0.35425142
0.35424746
0.35424364
0.35424002
0.35423653
0.35423323
0.35423007
0.35422709
0.35422428
0.35422159
0.35421905
0.35421667
0.35421443
0.35421234
0.35421039
0.35420858
0.35420687
0.35420525
0.35420373
0.35420233
0.35420103
0.3541998
0.3541987
0.35419769
0.35419674
0.35419584
0.35419502
0.3541943
0.35419365
0.35419312
0.35419271
0.3541925
0.35419245
0.35419255
0.35419257
0.35419224
0.35419113
0.35418914
0.35418675
0.35418532
0.35418617
0.35418932
0.35581888
0.35581458
0.35581296
0.35581411
0.35581637
0.35581824
0.35581917
0.35581934
0.35581918
0.35581899
0.35581896
0.3558191
0.35581942
0.35581987
0.3558204
0.35582101
0.35582168
0.3558224
0.35582318
0.355824
0.35582488
0.35582585
0.35582688
0.35582798
0.35582917
0.35583043
0.35583176
0.35583316
0.35583468
0.35583628
0.355838
0.35583983
0.35584177
0.35584382
0.35584598
0.35584826
0.35585066
0.35585319
0.35585584
0.35585861
0.35586152
0.35586454
0.3558677
0.35587097
0.35587436
0.35587787
0.35588148
0.35588517
0.35588897
0.35589285
0.35589678
0.35590076
0.35590478
0.35590883
0.35591288
0.35591694
0.35592103
0.35592513
0.35592924
0.35593329
0.35593708
0.35594026
0.35594238
0.35594324
0.35594336
0.35594414
0.35594718
0.35595241
0.35595775
0.35756726
0.357561
0.3575549
0.35755165
0.35755127
0.35755175
0.35755149
0.35754998
0.35754748
0.35754445
0.35754127
0.3575381
0.357535
0.35753195
0.35752892
0.35752592
0.35752293
0.35751995
0.357517
0.35751409
0.35751122
0.3575084
0.35750565
0.35750297
0.35750037
0.35749784
0.35749541
0.35749306
0.35749081
0.35748865
0.35748658
0.3574846
0.35748271
0.35748091
0.35747921
0.35747759
0.35747605
0.3574746
0.35747322
0.35747192
0.35747071
0.35746955
0.35746848
0.35746746
0.35746649
0.35746558
0.35746473
0.35746392
0.35746316
0.35746246
0.35746179
0.35746117
0.35746058
0.35746003
0.35745953
0.35745908
0.35745871
0.35745845
0.35745837
0.35745847
0.35745875
0.35745904
0.35745902
0.35745824
0.35745645
0.35745418
0.35745311
0.35745529
0.35746071
0.35911686
0.35911029
0.35910766
0.35910879
0.35911111
0.35911284
0.35911346
0.35911331
0.35911289
0.35911253
0.35911237
0.35911242
0.35911262
0.35911292
0.3591133
0.35911371
0.35911417
0.35911464
0.35911515
0.35911568
0.35911623
0.35911682
0.35911745
0.35911811
0.35911879
0.35911953
0.35912029
0.3591211
0.35912196
0.35912287
0.35912382
0.35912484
0.35912591
0.35912704
0.35912822
0.35912946
0.35913078
0.35913215
0.35913359
0.35913509
0.35913665
0.35913829
0.35913998
0.35914174
0.35914357
0.35914544
0.35914737
0.35914935
0.35915138
0.35915344
0.35915554
0.35915766
0.35915979
0.35916193
0.35916409
0.35916627
0.35916849
0.35917078
0.35917318
0.35917567
0.35917809
0.35918009
0.35918115
0.35918092
0.35917989
0.35917982
0.35918324
0.35919031
0.35919773
0.36085047
0.36084147
0.36083331
0.36082975
0.3608303
0.36083179
0.36083237
0.36083161
0.36082997
0.360828
0.36082605
0.36082426
0.36082261
0.36082105
0.36081954
0.36081805
0.36081658
0.36081511
0.36081365
0.36081221
0.36081079
0.36080938
0.36080801
0.36080667
0.36080537
0.3608041
0.36080287
0.36080169
0.36080055
0.36079945
0.36079839
0.36079739
0.36079642
0.36079549
0.36079461
0.36079377
0.36079297
0.3607922
0.36079147
0.36079078
0.36079013
0.3607895
0.36078891
0.36078834
0.3607878
0.36078728
0.36078678
0.3607863
0.36078585
0.36078541
0.36078499
0.36078459
0.3607842
0.36078383
0.36078349
0.36078318
0.36078292
0.36078276
0.36078276
0.36078296
0.36078339
0.36078394
0.36078428
0.36078385
0.36078221
0.36077981
0.36077851
0.36078151
0.36078933
0.36247965
0.36247066
0.36246745
0.36246907
0.36247156
0.36247308
0.36247329
0.36247275
0.36247207
0.36247157
0.36247134
0.36247132
0.36247144
0.36247165
0.36247191
0.36247219
0.36247249
0.3624728
0.36247313
0.36247345
0.36247379
0.36247414
0.3624745
0.36247487
0.36247525
0.36247565
0.36247605
0.36247648
0.36247692
0.36247739
0.36247787
0.36247838
0.3624789
0.36247946
0.36248003
0.36248063
0.36248126
0.36248191
0.36248259
0.3624833
0.36248404
0.3624848
0.36248559
0.36248641
0.36248725
0.36248811
0.36248899
0.3624899
0.36249082
0.36249175
0.36249269
0.36249365
0.36249461
0.36249556
0.36249653
0.36249752
0.36249857
0.36249972
0.36250104
0.36250256
0.36250421
0.36250563
0.36250623
0.36250543
0.36250357
0.36250245
0.36250604
0.36251525
0.36252631
0.36422407
0.36421061
0.36420085
0.36419751
0.36419939
0.36420157
0.36420253
0.36420199
0.36420069
0.36419929
0.36419808
0.36419712
0.36419635
0.36419569
0.36419508
0.3641945
0.36419393
0.36419335
0.36419277
0.3641922
0.36419163
0.36419107
0.36419052
0.36418997
0.36418944
0.36418892
0.36418841
0.36418791
0.36418744
0.36418697
0.36418652
0.36418608
0.36418567
0.36418527
0.36418487
0.3641845
0.36418413
0.36418378
0.36418345
0.36418312
0.36418281
0.3641825
0.3641822
0.36418192
0.36418164
0.36418136
0.36418109
0.36418082
0.36418056
0.3641803
0.36418005