/*--------------------------------*- C++ -*----------------------------------*\
| =========                 |                                                 |
| \\      /  F ield         | OpenFOAM: The Open Source CFD Toolbox           |
|  \\    /   O peration     | Version:  v2012                                 |
|   \\  /    A nd           | Website:  www.openfoam.com                      |
|    \\/     M anipulation  |                                                 |
\*---------------------------------------------------------------------------*/
FoamFile
{
    version     2.0;
    format      ascii;
    class       volScalarField;
    location    "100";
    object      p;
}
// * * * * * * * * * * * * * * * * * * * * * * * * * * * * * * * * * * * * * //

dimensions      [0 2 -2 0 0 0 0];


internalField   nonuniform List<scalar> 
120951
(
-0.19991504
-0.19971095
-0.19959533
-0.20007144
-0.2002662
-0.2006786
-0.20135249
-0.20232361
-0.20358144
-0.20511946
-0.20688592
-0.20885726
-0.21099885
-0.21328768
-0.21569838
-0.21820473
-0.22077821
-0.22338919
-0.22600748
-0.22860295
-0.23114615
-0.23360886
-0.2359646
-0.23818959
-0.24026151
-0.24216002
-0.24385574
-0.24532508
-0.24652782
-0.24745069
-0.24810097
-0.24849884
-0.24871002
-0.24841715
-0.24785709
-0.24693606
-0.2456063
-0.24384433
-0.24164648
-0.23905229
-0.23607611
-0.23274218
-0.22906035
-0.22504092
-0.22069426
-0.21603276
-0.21106999
-0.20582054
-0.20029952
-0.19452242
-0.18850487
-0.18226255
-0.17581103
-0.16916566
-0.16234156
-0.15535342
-0.14821555
-0.14094174
-0.13354529
-0.12603896
-0.11843495
-0.11074494
-0.10298012
-0.09515131
-0.087268664
-0.079341946
-0.071380907
-0.063395018
-0.055393609
-0.047385944
-0.039381336
-0.031389265
-0.023419442
-0.015481832
-0.0075867897
0.00025482145
0.0080316459
0.015731751
0.023342534
0.030850775
0.038242541
0.045503235
0.052617573
0.05956959
0.066342705
0.072919753
0.07928306
0.085414525
0.091295757
0.09690824
0.10223348
0.1072533
0.11195035
0.11630833
0.12031321
0.12395059
0.12720795
0.13005337
0.132476
0.1344158
0.13589641
0.1369101
0.13753908
0.13784676
0.13963734
0.14308811
0.14871932
0.15680517
0.16740262
0.18050483
0.19581939
0.21324023
0.23258413
0.25375567
0.2766353
0.30107821
0.32690687
0.35393092
0.38187329
0.41045311
0.43935774
0.46824331
0.4967432
0.52448246
0.55106598
0.57609198
0.59899803
0.61929045
0.63618837
0.6493458
0.65863373
0.66429227
0.66706126
0.6657491
0.66327636
0.65920418
0.65339379
0.64576527
0.63639508
0.62551878
0.61328715
0.59988126
0.58542163
0.57002748
0.55381338
0.53689505
0.51938483
0.50138997
0.4830107
0.46433908
0.44545894
0.42644575
0.4073668
0.38828159
0.3692423
0.35029439
0.33147696
0.31282275
0.29435951
0.27611069
0.25809526
0.24032831
0.22282161
0.20558412
0.18862245
0.1719411
0.15554282
0.13942902
0.12360013
0.10805595
0.092795942
0.077819524
0.063126418
0.048716927
0.034592218
0.020754463
0.0072070676
-0.0060450459
-0.018995326
-0.031635519
-0.043955613
-0.055943831
-0.067586681
-0.078869155
-0.08977471
-0.10028542
-0.1103822
-0.12004485
-0.12925428
-0.13798864
-0.14622699
-0.1539496
-0.16113748
-0.16777339
-0.1738431
-0.17933203
-0.18422667
-0.18848823
-0.19209621
-0.19498399
-0.1971667
-0.19867419
-0.19878717
-0.19727027
-0.19508221
-0.19218208
-0.18858101
-0.18431541
-0.1794203
-0.17392297
-0.16784226
-0.16119364
-0.15399272
-0.14625664
-0.13800453
-0.12925679
-0.12003215
-0.11035375
-0.1002416
-0.08971558
-0.078794639
-0.06749694
-0.05583899
-0.043835691
-0.031500573
-0.018845483
-0.0058804741
0.0073862764
0.020948271
0.034800653
0.048940126
0.063364619
0.078073012
0.09306505
0.10834126
0.12390247
0.13974926
0.15588192
0.17230019
0.18900281
0.20598723
0.22324916
0.24078193
0.25857675
0.27662224
0.29490351
0.31340165
0.33209333
0.35095108
0.36994224
0.38902777
0.40816229
0.4272938
0.44636289
0.46530227
0.48403638
0.50248118
0.52054451
0.5381261
0.55511844
0.57140862
0.58688027
0.60141501
0.61489063
0.62717255
0.63810458
0.64750308
0.65519482
0.66106431
0.66518368
0.66769947
0.66891878
0.67489274
0.68593266
0.70306477
0.72716333
0.75913972
0.79944601
0.84906085
0.90918249
0.98160064
1.0687505
1.1736058
1.30075
1.4537802
1.6484209
1.9052987
2.2261713
2.617376
3.0986609
3.6936937
-1.1727523
-1.1950951
-1.2144692
-1.2306412
-1.2433999
-1.2525918
-1.2579599
-1.2589815
-1.2557004
-1.2482945
-1.2364512
-1.2201341
-1.1992716
-1.173987
-1.1444222
-1.1108674
-1.0736834
-1.0333588
-0.99045588
-0.94563215
-0.89958056
-0.85289277
-0.80627376
-0.76044758
-0.71591659
-0.67312796
-0.63241408
-0.5940094
-0.55805441
-0.52460975
-0.49367012
-0.46517804
-0.43903589
-0.41511859
-0.39328518
-0.37338541
-0.35526679
-0.33878021
-0.32378292
-0.31014113
-0.29773112
-0.28643992
-0.27616545
-0.26681649
-0.25831215
-0.25058096
-0.2435603
-0.2371955
-0.23143898
-0.2262495
-0.2215912
-0.21743301
-0.2137482
-0.21051503
-0.20771815
-0.20535011
-0.20341098
-0.20190323
-0.20081124
-0.20009614
-0.19917378
-0.1976506
-0.19544554
-0.19252373
-0.18890115
-0.18461257
-0.17969316
-0.1741676
-0.16805469
-0.16137037
-0.15413096
-0.1463542
-0.13805941
-0.1292672
-0.11999815
-0.11027374
-0.100115
-0.089541903
-0.078573548
-0.067228341
-0.05552316
-0.043473086
-0.031091577
-0.018390523
-0.0053799452
0.0079321489
0.021539295
0.03543687
0.049621923
0.064092656
0.078848305
0.093888937
0.10921549
0.12482925
0.14073129
0.15692227
0.17340221
0.19017052
0.20722525
0.22456252
0.24217599
0.26005728
0.27819579
0.29657728
0.31518319
0.33399053
0.3529725
0.37209704
0.39132552
0.41061272
0.42990707
0.44914948
0.46827271
0.48720086
0.50584927
0.52412514
0.54192722
0.55914626
0.57566698
0.5913699
0.60613237
0.61982774
0.63231804
0.64344747
0.65303164
0.66089028
0.66691564
0.6711482
0.6737561
0.68483647
0.70193465
0.72598928
0.7577314
0.79780027
0.84708292
0.90684512
0.97882294
1.065387
1.1694552
1.295459
1.4468918
1.6389584
1.8925085
2.2104828
2.6023996
3.0927114
3.7387329
2.4785296
2.4523847
2.3189461
2.1249504
1.916192
1.7114088
1.5271873
1.3754314
1.2504421
1.1414029
1.0475056
0.96699296
0.89822739
0.83977085
0.79038642
0.74907614
0.71508295
0.68788949
0.66712713
0.65232545
0.64275144
0.63768163
0.62062063
0.6002679
0.57722961
0.55208082
0.52533181
0.4974224
0.46875528
0.43971456
0.41066747
0.38195876
0.35390266
0.32678119
0.30085382
0.27632334
0.25336826
0.23213477
0.21274385
0.1953134
0.17998762
0.16691931
0.15627951
0.14816548
0.14249685
0.13902776
0.13729969
0.13543499
0.13188325
0.12639955
0.11879072
0.10890271
0.096780292
0.082370327
0.065635737
0.04647146
0.02475821
0.00037043426
-0.026810359
-0.056893298
-0.089973109
-0.12612569
-0.16540518
-0.20783037
-0.25339376
-0.30204447
-0.35368423
-0.40816881
-0.46530371
-0.52484181
-0.58648449
-0.64988498
-0.7146477
-0.78035833
-0.8465295
-0.91259796
-0.97810957
-0.97944124
-0.91363274
-0.84726064
-0.78078055
-0.71474275
-0.64965392
-0.58594375
-0.52401354
-0.46421504
-0.40684997
-0.35216742
-0.30036256
-0.25158183
-0.20592084
-0.16342564
-0.12410569
-0.087931946
-0.054850369
-0.024781528
0.0023712961
0.026721945
0.048392175
0.067506515
0.084182639
0.098518113
0.1105782
0.12039596
0.12799358
0.13347689
0.13706569
0.14054606
0.13697808
0.13153517
0.12399202
0.11425026
0.10228492
0.088058298
0.071496722
0.052495812
0.030932165
0.0066757355
-0.020400664
-0.05041767
-0.083486606
-0.11968735
-0.1590888
-0.20172402
-0.24758985
-0.29664148
-0.34878784
-0.40388676
-0.46174062
-0.52209603
-0.58464526
-0.64902657
-0.71482767
-0.78159593
-0.84882384
-0.91594632
-0.98249159
-0.9877339
-0.91990777
-0.8514728
-0.78293947
-0.71491157
-0.64791102
-0.58240316
-0.51881346
-0.4575236
-0.39885252
-0.3430605
-0.29034811
-0.24085022
-0.19465153
-0.15179093
-0.11226167
-0.076017533
-0.042980036
-0.013048613
0.013896797
0.037989529
0.059365751
0.078165599
0.094524232
0.10855636
0.12034724
0.12994519
0.13738089
0.14274662
0.14626026
0.15445097
0.151034
0.14580323
0.13855005
0.12917707
0.11764493
0.10389603
0.08783073
0.069324229
0.048232252
0.024397756
-0.0023354664
-0.032118455
-0.065091026
-0.10137506
-0.14106847
-0.18423467
-0.23089937
-0.28103911
-0.33457879
-0.39138381
-0.45124792
-0.51390703
-0.57902819
-0.64621235
-0.71499772
-0.78488882
-0.8553417
-0.92570687
-0.99541686
-1.005723
-0.93347899
-0.86052791
-0.78748924
-0.71507044
-0.64385779
-0.57440719
-0.50721743
-0.44271277
-0.3812396
-0.32308601
-0.2684557
-0.21747673
-0.17021069
-0.12666164
-0.086778701
-0.050472033
-0.017615691
0.011940638
0.038363797
0.061830361
0.082519393
0.10060854
0.11626009
0.12961562
0.14078979
0.1498523
0.15685343
0.16189555
0.16517695
0.17833289
0.17522428
0.17042756
0.16375163
0.15509033
0.14438007
0.13153582
0.1164294
0.098897792
0.078749991
0.055781896
0.029789445
0.00056229238
-0.032101729
-0.068389256
-0.10846396
-0.15245335
-0.20044003
-0.25244762
-0.30843389
-0.36828083
-0.43178002
-0.4986307
-0.56845491
-0.64078092
-0.71506831
-0.79069816
-0.86703146
-0.94328895
-0.955258
-0.87494995
-0.79458593
-0.7150076
-0.63693415
-0.56106038
-0.48800018
-0.41827903
-0.35232073
-0.2904355
-0.23283675
-0.17962854
-0.1308258
-0.086367505
-0.046129502
-0.0099347283
0.022425429
0.051184051
0.076590744
0.098897078
0.11834704
0.13517456
0.149595
0.16179552
0.17192671
0.18008796
0.18635953
0.19085248
0.19375662
0.21129196
0.20863301
0.20451658
0.19874139
0.19118814
0.18176524
0.17035229
0.15677914
0.1408321
0.12226621
0.10080616
0.076164604
0.048042923
0.016140172
-0.019836389
-0.060161486
-0.10508096
-0.15476753
-0.20932967
-0.26879007
-0.33306367
-0.40194686
-0.47509912
-0.55204959
-0.63220349
-0.71485718
-0.79921506
-0.88443605
-0.96959434
-0.98660923
-0.8956752
-0.80465167
-0.71458025
-0.62645007
-0.54118722
-0.4596106
-0.38240411
-0.31009719
-0.24305724
-0.18149043
-0.12543912
-0.074840276
-0.029524444
0.010774269
0.046373473
0.077622389
0.10488602
0.12853166
0.14891658
0.16637936
0.18123424
0.19376382
0.20421162
0.21277295
0.21959125
0.22477676
0.22845697
0.23082811
0.25224125
0.25020678
0.24704232
0.24255795
0.23661602
0.22908585
0.2197998
0.20853589
0.19501914
0.17892822
0.15990122
0.13754103
0.11142158
0.081096065
0.046109441
0.0060156446
-0.039600706
-0.091092163
-0.14873729
-0.21266152
-0.28286412
-0.35914962
-0.4411204
-0.52817264
-0.61950719
-0.71415616
-0.81102452
-0.90893559
-1.0066945
-1.0303942
-0.92460074
-0.81853086
-0.71358699
-0.61118392
-0.51263825
-0.41911173
-0.3315537
-0.25066254
-0.17686966
-0.1103502
-0.051048464
0.001274962
0.047005431
0.086626819
0.12068137
0.14973491
0.17435094
0.19507089
0.21240084
0.22680358
0.23869392
0.2484348
0.25633413
0.26264147
0.26754957
0.2712103
0.27377072
0.27541049
0.30019197
0.29900953
0.29714945
0.29444698
0.2907468
0.28587608
0.2796173
0.27169368
0.26176422
0.2494227
0.23419741
0.21555259
0.19289051
0.16555829
0.13286122
0.094084336
0.048523642
-0.0044718302
-0.065447267
-0.13478104
-0.2126228
-0.29883332
-0.39294553
-0.49413913
-0.60126657
-0.71291041
-0.82746082
-0.94319407
-1.0584298
-0.96535991
-0.83817426
-0.71217781
-0.58949666
-0.47212856
-0.36182917
-0.26001295
-0.16766471
-0.085285208
-0.012952221
0.049625196
0.10301907
0.14799103
0.18541163
0.21619146
0.24122974
0.26137861
0.27742048
0.29005634
0.29990124
0.30748567
0.31325921
0.3175943
0.32079288
0.32309546
0.32469459
0.32575117
0.32640887
0.35384555
0.35378519
0.35364251
0.35330072
0.35259891
0.35132799
0.34922794
0.34597595
0.34117191
0.33432645
0.3248507
0.31204613
0.29509845
0.27307712
0.24494332
0.20957125
0.16578717
0.1124321
0.048449474
-0.027007302
-0.1144389
-0.21387045
-0.32478646
-0.44598168
-0.57568043
-0.71166383
-0.85138806
-0.99218669
-0.86750101
-0.71127164
-0.55928168
-0.41479271
-0.28056632
-0.15885449
-0.051238253
0.041771897
0.12037419
0.1853805
0.23803156
0.27978656
0.31218527
0.33673381
0.35483371
0.3677421
0.37655505
0.38220692
0.38547944
0.38701615
0.38733909
0.38686777
0.38593898
0.38482628
0.38374995
0.38286606
0.38225912
0.41136549
0.41271117
0.41473417
0.41739105
0.42053734
0.42394865
0.42734694
0.43039267
0.43265883
0.43360221
0.43253559
0.42860062
0.42074184
0.40768441
0.38792184
0.35972115
0.32115829
0.27019485
0.20482084
0.12321907
0.024136032
-0.092891998
-0.22773454
-0.37820091
-0.5412271
-0.71297098
-0.88914073
-0.71276577
-0.51758119
-0.33325329
-0.16435413
-0.014175666
0.1143276
0.22009953
0.30427484
0.36895547
0.41680075
0.45057676
0.47297048
0.48642609
0.49306594
0.49467208
0.49270247
0.48832483
0.48245803
0.4758138
0.46893708
0.46224494
0.45606493
0.45066754
0.44627135
0.44300035
0.44084741
0.47035617
0.47337859
0.4779982
0.4842824
0.4921382
0.50136511
0.51171587
0.52289484
0.53451915
0.54607008
0.55684157
0.56588407
0.57194225
0.57338635
0.56814548
0.553653
0.52683038
0.48415264
0.42181627
0.33535282
0.22345051
0.085336712
-0.079945214
-0.27081224
-0.48189817
-0.7063996
-0.70116462
-0.43755412
-0.18993466
0.030852629
0.21636252
0.36426022
0.47730988
0.56099564
0.61873571
0.65336688
0.67031402
0.67420059
0.66886045
0.65734255
0.64199337
0.62457717
0.60638899
0.58836054
0.5711477
0.55520462
0.54084848
0.52831799
0.51781797
0.50951588
0.50346164
0.49951796
0.52793809
0.53284134
0.54039587
0.55081792
0.56411413
0.5801671
0.598837
0.61997196
0.64335966
0.66866042
0.69533028
0.72252799
0.7489992
0.77292232
0.79173411
0.80189783
0.79858177
0.77643862
0.73178399
0.65910463
0.54594195
0.38300378
0.16750558
-0.095085299
-0.3916802
-0.34600157
0.015405051
0.33338828
0.58771773
0.77081322
0.88705187
0.94663078
0.96690458
0.96553372
0.94943827
0.92101904
0.88526853
0.84628429
0.80669894
0.76825769
0.73205095
0.69872791
0.66864003
0.6419509
0.61872192
0.5989841
0.58278747
0.57018094
0.56108688
0.55520164
0.58085749
0.58773146
0.59837114
0.61317783
0.63231507
0.65582064
0.68375985
0.7162584
0.75345658
0.7954388
0.84214587
0.89325587
0.94802459
1.005012
1.0618191
1.1139252
1.1610509
1.1994792
1.208136
1.1645858
1.0499678
0.84542843
0.53887735
0.14312106
1.1755943
1.4039079
1.5066699
1.5183445
1.4727299
1.3908392
1.297922
1.211224
1.1299243
1.0520067
0.98017807
0.91520108
0.85726685
0.8062099
0.76168705
0.72329021
0.69062701
0.66338132
0.64134939
0.6243907
0.61224328
0.60439944
0.62523674
0.63400011
0.64755787
0.66653556
0.69130082
0.72210679
0.7593118
0.80344807
0.85520152
0.91537247
0.98481767
1.0643466
1.1546914
1.2554246
1.3683516
1.5012634
1.6470594
1.7829337
1.8878598
1.930963
1.8585428
-0.33805049
-0.38560253
-0.43306263
-0.47846869
-0.51485297
-0.53909397
-0.55760719
-0.57428957
-0.58836446
-0.60032041
-0.61038629
-0.61882686
-0.62586366
-0.63169112
-0.63647619
-0.64035198
-0.64341904
-0.64577505
-0.64748037
-0.64860212
-0.64927414
-0.64953551
-0.64887958
-0.64772859
-0.64609312
-0.64393197
-0.64126373
-0.63813295
-0.63458111
-0.63064406
-0.62635017
-0.62172682
-0.61680382
-0.61161081
-0.60617928
-0.60054097
-0.59472671
-0.58876891
-0.58269626
-0.57653963
-0.57032531
-0.56408073
-0.55783232
-0.55160315
-0.54541685
-0.53929649
-0.53326325
-0.52733719
-0.52153849
-0.51588638
-0.51039967
-0.50509642
-0.49999566
-0.49511608
-0.49047415
-0.48609015
-0.48198029
-0.4781631
-0.47465633
-0.47147567
-0.46863691
-0.46615472
-0.46403951
-0.46230142
-0.46094615
-0.45997606
-0.45938966
-0.45918088
-0.4593385
-0.45984712
-0.46068528
-0.46182734
-0.46324338
-0.46489993
-0.46675978
-0.46878485
-0.47093411
-0.47316705
-0.47544206
-0.4777202
-0.47996237
-0.48213368
-0.48420079
-0.48613419
-0.48790638
-0.48949005
-0.49085556
-0.49197428
-0.49282562
-0.49341671
-0.49376278
-0.4939399
-0.47404795
-0.4550222
-0.43687888
-0.41962725
-0.40327102
-0.38780905
-0.37323632
-0.35954457
-0.34672304
-0.33475908
-0.32363864
-0.31334677
-0.3038679
-0.29518614
-0.28728519
-0.28014842
-0.27375842
-0.26810023
-0.26316318
-0.25895911
-0.25549286
-0.25280191
-0.25084923
-0.24957812
-0.24890766
-0.24863089
-0.24932173
-0.25060462
-0.25256273
-0.25525997
-0.25871542
-0.26291388
-0.26784234
-0.27349782
-0.27988767
-0.28702553
-0.29492756
-0.30361034
-0.31309027
-0.32338342
-0.33450565
-0.34647211
-0.35929685
-0.3729927
-0.38757056
-0.4030388
-0.41940262
-0.43666327
-0.45481744
-0.47385605
-0.47347538
-0.47282646
-0.47189081
-0.47066
-0.469155
-0.46740539
-0.46544146
-0.46329055
-0.46097975
-0.45853803
-0.45599775
-0.45339324
-0.45076231
-0.4481433
-0.44557612
-0.44310079
-0.44075697
-0.43858212
-0.43661253
-0.4348812
-0.4334177
-0.43224773
-0.43139346
-0.43087088
-0.43069256
-0.43086613
-0.43139499
-0.43227861
-0.43351361
-0.43509225
-0.43700598
-0.43924307
-0.44178986
-0.44463287
-0.44775709
-0.45114585
-0.45478484
-0.45865671
-0.46274605
-0.46703653
-0.47151128
-0.47615411
-0.48094817
-0.48587623
-0.49092017
-0.4960619
-0.50128286
-0.50656208
-0.51187831
-0.51721041
-0.52253518
-0.52782706
-0.53306237
-0.53821313
-0.54325278
-0.54815215
-0.55288222
-0.55741452
-0.56171944
-0.56576944
-0.56953713
-0.57299674
-0.57612169
-0.57887878
-0.58122988
-0.58313496
-0.58457725
-0.58559693
-0.58617281
-0.52457009
-0.52407737
-0.52319656
-0.52195727
-0.52032081
-0.51830251
-0.51593629
-0.51325806
-0.51029743
-0.50707836
-0.50362496
-0.49996163
-0.49611398
-0.49210839
-0.48797109
-0.48372794
-0.47940476
-0.47502617
-0.47061615
-0.46619671
-0.46179072
-0.45741791
-0.45309768
-0.44884886
-0.44468983
-0.44063649
-0.43670536
-0.43291226
-0.42927254
-0.4258006
-0.42251119
-0.41941878
-0.41653784
-0.41388195
-0.41146612
-0.40930289
-0.40740679
-0.40579
-0.40446436
-0.40344138
-0.40272973
-0.40233679
-0.40226741
-0.40252344
-0.40310379
-0.40400285
-0.4052122
-0.4067181
-0.40850409
-0.41054754
-0.41282305
-0.41530143
-0.41795039
-0.42073473
-0.42361797
-0.42656178
-0.42952724
-0.43247608
-0.43537065
-0.43817468
-0.4408547
-0.44337946
-0.4457206
-0.44785175
-0.44974565
-0.45137164
-0.45269953
-0.45370797
-0.45440672
-0.43622676
-0.43548531
-0.43441442
-0.43300316
-0.43127296
-0.42925453
-0.42697854
-0.42447204
-0.42176067
-0.41887185
-0.41583561
-0.41268449
-0.40945331
-0.40617842
-0.40289659
-0.3996454
-0.39646162
-0.39338082
-0.39043683
-0.38766112
-0.38508226
-0.38272542
-0.38061305
-0.37876232
-0.37718751
-0.37589804
-0.37490097
-0.37419903
-0.37379196
-0.37367712
-0.37384883
-0.37430071
-0.37502342
-0.37600698
-0.3772415
-0.37871447
-0.38041507
-0.38233096
-0.38444992
-0.38675966
-0.38924777
-0.39190128
-0.3947076
-0.39765391
-0.40072647
-0.40391067
-0.40719249
-0.41055675
-0.41398689
-0.4174659
-0.42097657
-0.4244994
-0.42801467
-0.43150187
-0.43493871
-0.4383032
-0.44157222
-0.44472267
-0.44773114
-0.45057469
-0.4532316
-0.45568061
-0.45789966
-0.45986347
-0.46153938
-0.46289881
-0.46392908
-0.46466657
-0.46507355
-0.407981
-0.4076607
-0.40706867
-0.40625017
-0.40517145
-0.40384186
-0.40228535
-0.40052975
-0.39859724
-0.39650683
-0.39427712
-0.39192682
-0.38947598
-0.3869447
-0.38435297
-0.38172063
-0.37906672
-0.37640994
-0.37376816
-0.37115783
-0.36859566
-0.3660962
-0.36367388
-0.36134267
-0.3591153
-0.35700381
-0.35502058
-0.35317682
-0.35148372
-0.34995178
-0.34859218
-0.34741517
-0.34643125
-0.34565083
-0.34508416
-0.34474028
-0.34462975
-0.34476039
-0.34514037
-0.34577681
-0.34667431
-0.34783668
-0.34926488
-0.35095731
-0.35291019
-0.35511527
-0.3575622
-0.36023614
-0.36311963
-0.36619053
-0.36942405
-0.37279237
-0.37626493
-0.37980922
-0.38339095
-0.38697482
-0.39052489
-0.39400576
-0.39738266
-0.40062209
-0.40369286
-0.40656605
-0.40921535
-0.41161582
-0.41374099
-0.41556019
-0.4170425
-0.41816653
-0.41894431
-0.4025621
-0.40175391
-0.4005851
-0.39904284
-0.39714822
-0.39493231
-0.3924256
-0.38965388
-0.38664125
-0.38341296
-0.37999658
-0.37642205
-0.37272129
-0.36892761
-0.36507493
-0.36119744
-0.35732897
-0.35350243
-0.34974902
-0.34609823
-0.34257705
-0.33920983
-0.33601816
-0.33301986
-0.33022985
-0.32765956
-0.32531796
-0.32320999
-0.3213387
-0.3197047
-0.31830587
-0.31713926
-0.31619969
-0.31548089
-0.31497665
-0.31467861
-0.31457928
-0.3146705
-0.31494339
-0.31538956
-0.31600023
-0.31676656
-0.31767978
-0.31873055
-0.3199096
-0.32120722
-0.3226132
-0.32411738
-0.32570815
-0.32737378
-0.32910212
-0.33087965
-0.33269278
-0.33452685
-0.33636624
-0.33819533
-0.33999742
-0.34175595
-0.34345394
-0.34507498
-0.34660271
-0.34802188
-0.3493164
-0.35046729
-0.35145172
-0.35225054
-0.35285783
-0.35330468
-0.35353869
-0.30194086
-0.30179232
-0.30148865
-0.30108868
-0.3005641
-0.29991839
-0.29916547
-0.29832366
-0.29740809
-0.29643155
-0.29540657
-0.29434637
-0.29326428
-0.29217396
-0.2910885
-0.2900212
-0.2889845
-0.28799099
-0.28705188
-0.28617813
-0.28538019
-0.28466773
-0.28404982
-0.28353567
-0.2831331
-0.28285016
-0.28269443
-0.28267303
-0.28279371
-0.2830632
-0.28348841
-0.28407661
-0.28483427
-0.28576853
-0.28688579
-0.28819192
-0.28969341
-0.29139486
-0.29330074
-0.2954145
-0.2977376
-0.30027059
-0.30301146
-0.30595588
-0.30909803
-0.31242813
-0.31593405
-0.31960087
-0.32341059
-0.32734213
-0.33137171
-0.33547329
-0.33961847
-0.34377732
-0.3479184
-0.35200934
-0.35601782
-0.35991133
-0.36365806
-0.36722768
-0.37059161
-0.37372353
-0.37659951
-0.37919624
-0.38148866
-0.38344656
-0.38503894
-0.38624503
-0.38707853
-0.37248799
-0.37163371
-0.37039689
-0.36876311
-0.36675264
-0.36439631
-0.36172392
-0.35875983
-0.35552639
-0.35204633
-0.34834467
-0.34444863
-0.34038699
-0.33618996
-0.33188852
-0.32751341
-0.32309539
-0.31866452
-0.31424936
-0.30987724
-0.30557322
-0.30136037
-0.2972594
-0.29328818
-0.2894617
-0.28579244
-0.28229094
-0.27896389
-0.27581658
-0.27285233
-0.2700719
-0.26747538
-0.26506083
-0.26282524
-0.26076563
-0.25887743
-0.25715616
-0.25559709
-0.25419476
-0.25294439
-0.25184045
-0.25087758
-0.25005107
-0.24935491
-0.24878387
-0.24833251
-0.24799476
-0.24776512
-0.24763669
-0.24760301
-0.24765688
-0.24779086
-0.24799663
-0.24826607
-0.24858989
-0.24895863
-0.24936246
-0.24979151
-0.25023551
-0.25068421
-0.25112757
-0.25155543
-0.25195847
-0.25232569
-0.25264344
-0.25290252
-0.25310164
-0.25326523
-0.25333201
-0.20780723
-0.20781547
-0.2077832
-0.20777972
-0.20777934
-0.20777759
-0.2077801
-0.2077945
-0.20783201
-0.20789819
-0.2080002
-0.20814482
-0.2083392
-0.20859032
-0.20890503
-0.20928983
-0.20975123
-0.21029507
-0.21092694
-0.21165212
-0.21247552
-0.21340171
-0.21443482
-0.21557942
-0.21683876
-0.21821701
-0.21971764
-0.2213442
-0.22310062
-0.22498997
-0.22701619
-0.22918293
-0.23149355
-0.23395187
-0.23656102
-0.23932406
-0.24224389
-0.24532207
-0.24856034
-0.25195892
-0.25551651
-0.25923119
-0.26309852
-0.26711244
-0.27126518
-0.27554582
-0.27994175
-0.28443775
-0.28901633
-0.29365709
-0.2983378
-0.30303436
-0.30772047
-0.3123689
-0.31695104
-0.32143768
-0.32579955
-0.33000721
-0.33403213
-0.33784691
-0.34142578
-0.34474501
-0.34778299
-0.35051838
-0.35292757
-0.35498124
-0.35664887
-0.35791067
-0.3587818
-0.34594873
-0.34506419
-0.34378233
-0.34208737
-0.3399986
-0.33754614
-0.33475875
-0.33165932
-0.32826819
-0.32460583
-0.32069467
-0.3165591
-0.3122251
-0.30771974
-0.30307084
-0.29830628
-0.29345373
-0.28854039
-0.28359231
-0.27863465
-0.27369057
-0.2687816
-0.26392762
-0.25914572
-0.25445123
-0.24985697
-0.24537411
-0.24101122
-0.23677513
-0.23267128
-0.22870259
-0.22487144
-0.22117909
-0.21762517
-0.21420934
-0.21093017
-0.207786
-0.20477515
-0.20189542
-0.19914473
-0.19652108
-0.19402223
-0.19164644
-0.18939176
-0.18725623
-0.18523831
-0.18333571
-0.18154719
-0.17987055
-0.17830382
-0.1768449
-0.17549133
-0.17424072
-0.17309004
-0.17203648
-0.1710765
-0.17020674
-0.16942332
-0.16872233
-0.16809967
-0.16755124
-0.16707279
-0.16666034
-0.16630886
-0.1660134
-0.16577408
-0.16559697
-0.16550136
-0.16541377
-0.12617083
-0.12632776
-0.12654158
-0.12688932
-0.12735455
-0.12792862
-0.12860697
-0.12939087
-0.13028187
-0.13128149
-0.13239131
-0.13361277
-0.13494723
-0.13639566
-0.13795902
-0.13963782
-0.14143273
-0.14334386
-0.14537156
-0.14751561
-0.14977628
-0.15215316
-0.1546462
-0.15725536
-0.15998012
-0.1628208
-0.16577717
-0.16884965
-0.17203841
-0.1753438
-0.17876651
-0.18230705
-0.18596624
-0.1897447
-0.1936429
-0.19766109
-0.20179931
-0.2060568
-0.21043267
-0.21492444
-0.21952872
-0.2242416
-0.2290568
-0.23396684
-0.23896247
-0.24403236
-0.24916351
-0.25434062
-0.25954696
-0.26476319
-0.26996843
-0.27514042
-0.28025521
-0.28528792
-0.29021261
-0.29500309
-0.29963288
-0.30407562
-0.30830572
-0.31229853
-0.31603099
-0.31948193
-0.32263201
-0.32546187
-0.32794936
-0.33006631
-0.33178299
-0.33308069
-0.33397571
-0.32284844
-0.32194534
-0.32063532
-0.31890168
-0.31676248
-0.31424701
-0.31138285
-0.30819141
-0.30469109
-0.30090016
-0.29683859
-0.29252819
-0.28799225
-0.28325504
-0.27834151
-0.27327678
-0.26808572
-0.26279303
-0.25742242
-0.25199674
-0.24653738
-0.24106453
-0.23559695
-0.23015115
-0.22474226
-0.21938343
-0.21408613
-0.20886009
-0.20371342
-0.19865306
-0.19368387
-0.18881014
-0.18403536
-0.17936169
-0.17479095
-0.17032428
-0.16596275
-0.16170701
-0.15755785
-0.15351581
-0.14958163
-0.14575611
-0.14204029
-0.13843561
-0.13494311
-0.13156472
-0.12830189
-0.12515686
-0.12213178
-0.11922868
-0.11644996
-0.11379789
-0.11127479
-0.10888302
-0.10662491
-0.10450247
-0.10251781
-0.1006728
-0.098968982
-0.097407783
-0.095990064
-0.094716751
-0.093588631
-0.092607421
-0.091775441
-0.0911013
-0.090595485
-0.090271907
-0.090051064
-0.057001836
-0.057280689
-0.057705169
-0.058355794
-0.059221587
-0.06029004
-0.061549245
-0.062993139
-0.064617302
-0.0664187
-0.068394246
-0.070540833
-0.072854681
-0.075331787
-0.077967726
-0.080757955
-0.083698019
-0.086783252
-0.090008958
-0.093370677
-0.096863984
-0.10048448
-0.10422826
-0.10809123
-0.11206971
-0.11616039
-0.1203599
-0.12466574
-0.12907495
-0.13358522
-0.13819438
-0.14290045
-0.14770163
-0.15259595
-0.15758156
-0.16265624
-0.16781783
-0.17306336
-0.17838956
-0.18379217
-0.18926607
-0.19480542
-0.20040278
-0.20604949
-0.21173547
-0.21744905
-0.22317704
-0.22890449
-0.23461511
-0.24029085
-0.24591202
-0.25145809
-0.25690736
-0.26223706
-0.26742374
-0.27244377
-0.27727328
-0.28188869
-0.28626695
-0.29038608
-0.29422541
-0.29776613
-0.30099101
-0.3038825
-0.30641995
-0.30857637
-0.31032296
-0.31164227
-0.31255147
-0.30306865
-0.30215512
-0.30082907
-0.2990729
-0.29690346
-0.29434905
-0.2914361
-0.28818455
-0.28461109
-0.28073201
-0.27656505
-0.27212975
-0.26744694
-0.26253846
-0.25742669
-0.25213425
-0.24668367
-0.24109724
-0.23539672
-0.22960294
-0.22373557
-0.21781367
-0.21185479
-0.20587492
-0.19988881
-0.19390965
-0.18794929
-0.18201807
-0.17612515
-0.17027839
-0.16448449
-0.15874931
-0.15307787
-0.14747441
-0.14194286
-0.13648642
-0.13110836
-0.1258116
-0.12059922
-0.1154742
-0.11043967
-0.10549908
-0.10065593
-0.095914502
-0.091278792
-0.086753446
-0.082343479
-0.078054009
-0.073890805
-0.069859577
-0.065966553
-0.062218104
-0.058620787
-0.055181276
-0.051906408
-0.048802916
-0.045877578
-0.043137084
-0.040587678
-0.038235239
-0.03608499
-0.034141836
-0.032410954
-0.030899177
-0.029615786
-0.028575946
-0.027793884
-0.027277396
-0.026946044
0.00021166517
-0.00016710196
-0.00076659831
-0.0016670377
-0.0028636233
-0.0043405251
-0.0060797952
-0.0080691355
-0.010299636
-0.01276423
-0.015456348
-0.018368924
-0.021494223
-0.024823976
-0.028349465
-0.032061925
-0.035952542
-0.040012567
-0.044233436
-0.048606717
-0.053124264
-0.057778225
-0.062561219
-0.067465936
-0.072485875
-0.077614569
-0.08284604
-0.088174946
-0.093595931
-0.099104246
-0.10469529
-0.11036484
-0.11610887
-0.12192329
-0.12780414
-0.13374723
-0.13974835
-0.1458028
-0.15190543
-0.15805048
-0.1642314
-0.17044091
-0.17667063
-0.182911
-0.18915149
-0.19538011
-0.20158368
-0.20774762
-0.2138563
-0.21989258
-0.22583808
-0.23167385
-0.23737986
-0.24293536
-0.24831909
-0.25350955
-0.25848526
-0.26322495
-0.26770789
-0.27191431
-0.27582578
-0.27942549
-0.28269804
-0.28562756
-0.28819473
-0.29037372
-0.29213669
-0.29346736
-0.29438379
-0.28648038
-0.28556225
-0.28422868
-0.28246121
-0.28027553
-0.27769903
-0.274757
-0.27146816
-0.26784764
-0.26391005
-0.25967129
-0.2551488
-0.25036139
-0.24532875
-0.24007115
-0.23460903
-0.22896291
-0.22315315
-0.21719953
-0.2111214
-0.20493703
-0.19866414
-0.1923195
-0.18591843
-0.17947528
-0.17300323
-0.16651439
-0.16001942
-0.15352825
-0.14704969
-0.14059152
-0.13416098
-0.12776442
-0.12140779
-0.11509655
-0.1088358
-0.10263055
-0.096485726
-0.090406355
-0.084397399
-0.07846411
-0.072612133
-0.066847319
-0.061176126
-0.055605074
-0.050141315
-0.04479264
-0.039566937
-0.034472816
-0.029519215
-0.024715424
-0.020071268
-0.015596756
-0.011302233
-0.0071981376
-0.0032951207
0.00039626066
0.0038654971
0.0071025665
0.010098013
0.012843247
0.015330243
0.017550318
0.019492621
0.021142258
0.02247878
0.023484983
0.024158854
0.024580103
0.046277285
0.045818151
0.045077939
0.043978104
0.042517789
0.040715358
0.038593454
0.036169286
0.033455464
0.030462037
0.027198208
0.02367396
0.019900193
0.015888466
0.01165084
0.0071994564
0.0025465479
-0.0022958646
-0.0073159329
-0.01250219
-0.017843344
-0.023328779
-0.028948206
-0.034691807
-0.04055041
-0.046515056
-0.052577581
-0.058730288
-0.064965767
-0.071277173
-0.077657893
-0.08410173
-0.090602888
-0.097155445
-0.10375365
-0.11039171
-0.11706377
-0.12376364
-0.13048469
-0.13722003
-0.14396179
-0.1507018
-0.15743083
-0.16413867
-0.17081451
-0.17744616
-0.18402049
-0.19052337
-0.19693967
-0.20325309
-0.20944649
-0.21550216
-0.22140142
-0.22712535
-0.23265441
-0.23796897
-0.24304953
-0.24787673
-0.25243182
-0.25669687
-0.26065535
-0.26429215
-0.26759342
-0.27054465
-0.27312769
-0.27531775
-0.27708789
-0.27842299
-0.27934177
-0.27295176
-0.27203316
-0.27069752
-0.2689261
-0.26673345
-0.26414607
-0.26118826
-0.2578777
-0.25422831
-0.25025331
-0.24596705
-0.24138528
-0.23652513
-0.23140452
-0.22604195
-0.2204561
-0.21466582
-0.20868988
-0.20254648
-0.19625363
-0.18982855
-0.18328788
-0.17664752
-0.16992233
-0.16312635
-0.15627258
-0.14937325
-0.14243936
-0.13548134
-0.12850873
-0.12153014
-0.11455388
-0.10758741
-0.10063791
-0.093712245
-0.08681693
-0.079958476
-0.073143375
-0.066378305
-0.059669889
-0.053025163
-0.046451586
-0.039956913
-0.033549419
-0.027237806
-0.021031272
-0.014939722
-0.0089735207
-0.0031435491
0.0025387082
0.0080614131
0.013412051
0.018577787
0.023545498
0.028301779
0.032833022
0.037125669
0.041166347
0.04494218
0.04844103
0.051651813
0.054564219
0.057167137
0.059446376
0.061382583
0.062951145
0.064132777