/*--------------------------------*- C++ -*----------------------------------*\
| =========                 |                                                 |
| \\      /  F ield         | OpenFOAM: The Open Source CFD Toolbox           |
|  \\    /   O peration     | Version:  v2012                                 |
|   \\  /    A nd           | Website:  www.openfoam.com                      |
|    \\/     M anipulation  |                                                 |
\*---------------------------------------------------------------------------*/
FoamFile
{
    version     2.0;
    format      ascii;
    class       volScalarField;
    location    "184";
    object      omega;
}
// * * * * * * * * * * * * * * * * * * * * * * * * * * * * * * * * * * * * * //

dimensions      [0 0 -1 0 0 0 0];


internalField   nonuniform List<scalar> 
24880
(
21.675091
21.315523
20.968937
20.634518
20.311533
19.999325
19.697295
19.404898
19.121636
18.847052
18.580723
18.322263
18.071311
17.827534
17.590621
17.360284
17.136254
16.918281
16.706131
16.499584
16.298438
16.102501
15.911594
15.725545
15.544194
15.367379
15.194921
15.026624
14.862191
14.701406
14.543841
14.390684
14.24129
14.101442
13.968196
13.84801
13.73711
13.639044
13.605247
13.494405
13.346303
13.150304
12.892604
12.590031
12.24742
11.920792
11.623265
11.372297
11.165162
10.995082
10.866112
10.76338
10.696005
10.64324
10.617004
10.601581
10.622545
10.682986
10.819874
11.056518
11.435438
12.01581
12.858738
14.011272
15.185878
15.641267
14.975891
13.618446
11.88474
10.090211
8.7439352
7.8969554
7.4013029
7.1237378
6.9800278
6.9070951
6.8764579
6.8729379
6.8661822
6.8539903
6.8402388
6.826442
6.8141404
6.8039008
6.7954979
6.7888215
6.7833962
6.7800226
6.7771113
6.7754797
6.773259
6.7710624
6.7729682
6.7741423
6.7737968
6.7746438
6.7757184
6.7782017
6.7816057
6.7863458
6.7917243
6.7973676
6.8029986
6.8087
6.8137632
6.8183089
6.8220672
6.8256239
6.8289408
6.8318035
6.8346318
6.8375903
6.8405858
6.8433991
6.8461711
6.8490249
6.8517601
6.8545504
6.857166
6.8600349
6.8629038
6.8653476
6.8676926
6.8702734
6.8729589
6.8753569
6.8779611
6.879918
6.8814266
6.8808641
6.8795736
6.8871457
6.9030178
6.9307702
6.9780343
7.0534213
7.1741936
7.3588643
7.6412097
8.0505066
8.643581
9.4150585
10.446332
11.590746
12.792387
12.770233
11.611994
10.467745
9.4589953
8.6651238
8.0671381
7.6470905
7.3590036
7.1729994
7.0530464
6.9775272
6.9317892
6.9040552
6.8880821
6.8880773
6.9031847
6.9307995
6.9760345
7.0513082
7.1714937
7.3589168
7.6530767
8.081345
8.6872066
9.493393
10.49196
11.613768
12.716828
12.625572
11.580214
10.494367
9.5065511
8.6977036
8.0876314
7.6549058
7.3574629
7.1692843
7.0486869
6.9737918
6.9288928
6.9019056
6.8872069
6.8846643
6.8997425
6.9263491
6.9710202
7.0455657
7.1658194
7.3537724
7.6514299
8.08367
8.6915138
9.4921681
10.461704
11.51149
12.49219
12.303365
11.390489
10.388214
9.4514468
8.6679841
8.0694172
7.6423973
7.3475777
7.1613215
7.0420994
6.9683542
6.9238822
6.8973013
6.8823401
6.8800529
6.8949366
6.921192
6.9650593
7.0378727
7.1555215
7.3391746
7.6289632
8.0474734
8.6308767
9.3892058
10.286666
11.228923
12.06727
11.799436
11.046108
10.167363
9.3148151
8.5851736
8.0189275
7.611708
7.3286399
7.1486143
7.0332191
6.9614945
6.9180515
6.8920489
6.8770946
6.874209
6.8889312
6.91459
6.9569467
7.0274849
7.1406831
7.3172121
7.5941087
7.9909915
8.5363964
9.2351639
10.041136
10.849983
11.524068
11.259899
10.64996
9.9094076
9.1562491
8.4898731
7.9618745
7.5754926
7.3050723
7.1323951
7.0215446
6.9527985
6.9111064
6.8859244
6.8718891
6.8696607
6.8834487
6.9076962
6.9483436
7.0152856
7.1236894
7.2925474
7.5568711
7.9336345
8.4457434
9.0791745
9.7795291
10.457365
11.026063
10.827505
10.285663
9.6558775
9.0070351
8.4033967
7.9054168
7.5378108
7.2798186
7.1147354
7.0089438
6.9434778
6.9036814
6.8799105
6.8663187
6.863204
6.8759973
6.8990629
6.9378989
7.0021604
7.1055249
7.2668872
7.5192756
7.8795515
8.365972
8.945902
9.5514986
10.143174
10.666176
10.54214
10.035881
9.4748757
8.8947522
8.3288798
7.8528204
7.5002615
7.2540488
7.096849
6.9960036
6.9332142
6.8957959
6.8734242
6.8608097
6.8575489
6.8699435
6.8921658
6.9285446
6.9897681
7.0880987
7.2415977
7.4818936
7.8270999
8.2936062
8.8497461
9.4192922
9.9633583
10.451397
10.390534
9.9128451
9.3752884
8.8125438
8.2634612
7.8038831
7.4651594
7.2302266
7.080224
6.9844015
6.9245703
6.8887054
6.8672125
6.855043
6.8518014
6.8643269
6.8854222
6.9204117
6.9791736
7.0734048
7.2207379
7.4513886
7.7846108
8.2381496
8.7832214
9.3436846
9.8775474
10.349022
10.324632
9.8571847
9.3250864
8.7648732
8.2223821
7.7727818
7.4429051
7.2150706
7.0689607
6.9754101
6.9174681
6.8825898
6.8614094
6.8491524
6.8465912
6.8588969
6.8802436
6.9154804
6.9739002
7.0682845
7.2153457
7.4434347
7.7732732
8.2221601
8.7640502
9.3242399
9.8550906
10.317856
10.340752
9.8835058
9.3550875
8.7935798
8.2475468
7.7941938
7.4589197
7.2254043
7.0738413
6.9761316
6.9151098
6.8783438
6.8563052
6.8434888
6.8406296
6.8541001
6.8775364
6.9166355
6.9824011
7.0877807
7.2502015
7.4977914
7.847912
8.3152314
8.8703266
9.4343044
9.9595587
10.409047
10.549687
10.108286
9.5877736
9.0199091
8.4466682
7.950746
7.5691966
7.2951152
7.1134273
6.9950928
6.921717
6.8780753
6.8524093
6.8382915
6.8362287
6.8516814
6.8800024
6.9295822
7.0143645
7.1522434
7.3645581
7.6823896
8.1168504
8.6651675
9.2700914
9.8465628
10.362639
10.793325
11.178123
10.753147
10.235359
9.6435132
8.9884524
8.3575596
7.840004
7.457244
7.2030145
7.0391887
6.9397146
6.8823066
6.8502512
6.8331477
6.8300763
6.8483434
6.8841866
6.9500013
7.0660685
7.2604434
7.5663113
8.0338625
8.662985
9.4128988
10.139442
10.774974
11.317583
11.7546
12.57665
12.086398
11.458288
10.722375
9.8844439
8.9934443
8.2323724
7.6708166
7.3123538
7.0891292
6.9581963
6.8854573
6.8466134
6.827055
6.8223037
6.8425343
6.8833892
6.9603865
7.1015295
7.3456366
7.7463465
8.3872441
9.2754903
10.311928
11.307454
12.21613
13.021937
13.651532
14.708685
13.874686
12.834146
11.711551
10.55696
9.4074095
8.4457043
7.7668297
7.3479355
7.0969287
6.954253
6.8772444
6.8370515
6.8172717
6.8105396
6.8292863
6.866635
6.9385644
7.0731288
7.3120212
7.7152433
8.3731697
9.3222186
10.49825
11.747623
12.992045
14.148593
15.089405
14.473824
13.617145
12.529578
11.316998
10.092569
9.0031832
8.1685551
7.5917439
7.2399459
7.0320547
6.9150221
6.8525909
6.8199872
6.8040565
6.7975566
6.8105836
6.8367152
6.8868076
6.9807835
7.146802
7.4267471
7.8794129
8.5277171
9.4015842
10.446243
11.525329
12.482156
13.209269
11.546149
10.949552
10.188201
9.3822508
8.6426365
8.03472
7.5775428
7.253896
7.0504394
6.9280996
6.8583032
6.8208837
6.8010535
6.7907105
6.7847368
6.7925576
6.8068235
6.832851
6.8812645
6.9650931
7.1026308
7.3179993
7.6162764
8.0076693
8.4757461
8.9860044
9.4674297
9.8602333
8.6164072
8.3943278
8.1155845
7.8180943
7.5398443
7.3029487
7.1191954
6.9854645
6.8983316
6.8445679
6.8131999
6.7959792
6.7859296
6.7805823
6.7778403
6.7815145
6.7880149
6.798837
6.8184536
6.8514646
6.9041701
6.9834238
7.0909294
7.2279342
7.3874223
7.5551184
7.7097959
7.8311514
7.3665295
7.3009253
7.2162295
7.1240552
7.0356685
6.958968
6.8981217
6.8526836
6.8219579
6.8021609
6.7898952
6.7829525
6.7786208
6.7758017
6.7746882
6.7771339
6.7797976
6.7844801
6.7926219
6.8048854
6.8229641
6.8485678
6.882871
6.9255288
6.9744522
7.025352
7.0719305
7.1070955
6.9712393
6.9526038
6.9257405
6.896465
6.8679811
6.8430605
6.8228413
6.807758
6.7963284
6.787718
6.7822554
6.7793197
6.777097
6.7747548
6.7742833
6.7765762
6.7782392
6.7808261
6.7850066
6.7915507
6.7997145
6.8098348
6.823062
6.83944
6.8576263
6.8759105
6.8925296
6.9030594
6.9201577
6.9256124
6.9461929
6.9688242
6.9939575
7.0208687
7.0490986
7.0780188
7.1074006
7.1371086
7.1671211
7.19744
7.2280773
7.2590398
7.2903321
7.3219454
7.3538804
7.3861422
7.4187315
7.4516539
7.484915
7.5185245
7.5524892
7.5868196
7.6215283
7.6566229
7.6921166
7.7280201
7.7643441
7.8011023
7.838306
7.8759663
7.9140956
7.9527053
7.9918055
8.0314052
8.0715132
8.1121349
8.1647698
8.1222109
8.0800672
8.038341
7.9970321
7.9561393
7.9156602
7.8755915
7.8359291
7.7966686
7.7578058
7.7193361
7.6812551
7.6435585
7.6062427
7.5693044
7.5327406
7.4965494
7.4607293
7.4252806
7.3902042
7.3555025
7.3211799
7.2872416
7.253694
7.2205435
7.1877923
7.1554373
7.1234564
7.0918431
7.0605716
7.0299129
6.9998358
6.9715383
6.9445445
6.9205642
6.8983281
6.9063348
6.9283076
6.9525541
6.9791677
7.0075689
7.0373351
7.0678992
7.09901
7.1305311
7.1624367
7.1947333
7.2274314
7.2605336
7.2940363
7.3279336
7.3622184
7.3968855
7.43193
7.4673493
7.5031428
7.5393095
7.5758505
7.6127677
7.6500644
7.6877442
7.7258101
7.7642663
7.8031181
7.8423701
7.8820264
7.9220916
7.9625697
8.003465
8.0447802
8.0865162
8.1286741
8.1712523
8.1859483
8.143359
8.1011988
8.0594687
8.0181666
7.977291
7.9368389
7.896805
7.8571848
7.8179733
7.779166
7.7407577
7.7027425
7.6651159
7.6278744
7.5910142
7.554531
7.5184227
7.4826876
7.4473263
7.4123386
7.3777264
7.3434939
7.3096455
7.2761873
7.2431243
7.2104597
7.1781911
7.1463112
7.1148141
7.0837245
7.0531493
7.0233619
6.9948337
6.9681409
6.9437386
6.9217848
6.950612
6.9728528
6.9973202
7.0240671
7.0526307
7.0824108
7.1129424
7.1439655
7.1753804
7.2071778
7.2393583
7.2719284
7.3048904
7.3382413
7.3719763
7.4060899
7.4405778
7.4754369
7.5106661
7.5462654
7.5822361
7.6185801
7.6553008
7.6924028
7.7298907
7.7677694
7.8060444
7.8447217
7.8838077
7.9233081
7.963229
8.003576
8.0443549
8.0855701
8.1272253
8.169323
8.2118641
8.2542211
8.2118858
8.1700129
8.128599
8.0876394
8.0471277
8.0070572
7.9674202
7.9282088
7.8894153
7.8510319
7.8130507
7.7754639
7.7382646
7.7014459
7.6650015
7.6289254
7.5932126
7.5578596
7.5228632
7.488222
7.4539357
7.4200057
7.3864349
7.3532273
7.3203875
7.2879164
7.2558092
7.2240536
7.1926348
7.1615629
7.1309286
7.1009854
7.0721814
7.0450983
7.0201775
6.9975631
7.0744053
7.0978425
7.1232438
7.15067
7.1797332
7.2099001
7.2407044
7.2718926
7.3033713
7.3351346
7.3672052
7.3995994
7.4323244
7.465381
7.4987653
7.5324748
7.5665073
7.6008629
7.6355415
7.6705469
7.7058842
7.7415563
7.7775708
7.8139362
7.8506608
7.8877537
7.9252242
7.9630826
8.0013391
8.0400047
8.07909
8.1186062
8.1585644
8.1989755
8.2398495
8.2811959
8.3230227
8.4373795
8.3964822
8.3560635
8.3161088
8.2766021
8.2375281
8.1988704
8.1606133
8.1227404
8.0852372
8.0480898
8.0112855
7.9748111
7.9386554
7.9028067
7.8672556
7.8319922
7.7970123
7.7623062
7.7278669
7.6936882
7.6597711
7.6261143
7.5927181
7.5595817
7.5267108
7.4941019
7.461744
7.4296163
7.3977001
7.3659988
7.3346055
7.3037766
7.2739565
7.2456625
7.2192625
7.1950118
7.3812133
7.406818
7.4345667
7.464258
7.4954753
7.5276532
7.5603319
7.5932493
7.6263134
7.6595284
7.6929047
7.7264595
7.760198
7.7941182
7.8282143
7.8624846
7.8969259
7.9315365
7.9663142
8.0012637
8.0363915
8.0716959
8.1071922
8.1428964
8.1788132
8.2149536
8.2513302
8.2879584
8.3248522
8.3620286
8.3995042
8.4372979
8.4754304
8.5139241
8.5528013
8.5920866
8.6318052
8.9652515
8.9260825
8.8872389
8.8486841
8.8103825
8.7723038
8.7344232
8.6967196
8.6591731
8.6217739
8.5845012
8.547343
8.5102849
8.4733176
8.4364329
8.3996229
8.3628755
8.3261819
8.2895452
8.2529659
8.2164457
8.179989
8.1436187
8.1073333
8.0711285
8.0350053
7.9990014
7.9631078
7.9273116
7.8916033
7.8559962
7.8205888
7.7856703
7.751808
7.7198237
7.69046
7.6640056
8.0764073
8.1053615
8.1379159
8.1739952
8.2124467
8.2521588
8.2924951
8.3332507
8.3742368
8.4153516
8.4565743
8.4978978
8.5393056
8.5807766
8.6222882
8.6638282
8.7053823
8.7469335
8.7884656
8.8299718
8.8714465
8.9128882
8.9542843
8.9956383
9.0369561
9.0782174
9.1194405
9.1606438
9.201821
9.2429834
9.2841398
9.325309
9.3665114
9.4077746
9.4491289
9.4906146
9.532284
10.474225
10.422026
10.369993
10.318072
10.266212
10.214395
10.162586
10.110759
10.058887
10.006996
9.9550605
9.903075
9.8510491
9.7990203
9.746982
9.6949356
9.6428778
9.5908408
9.5388287
9.4868392
9.4348738
9.3830097
9.3312493
9.2796067
9.2280972
9.1767516
9.1256016
9.0746807
9.02401
8.9736639
8.9238566
8.874644
8.8262898
8.7796082
8.7359933
8.6970493
8.6650596
9.4517585
9.4961195
9.546949
9.6031735
9.6632279
9.7256251
9.7894594
9.8543926
9.9202147
9.9867863
10.054042
10.12192
10.190367
10.259347
10.328831
10.398797
10.469229
10.540114
10.611431
10.683174
10.755334
10.827905
10.900861
10.97421
11.04796
11.122048
11.196519
11.271408
11.3467
11.422361
11.498449
11.575015
11.652079
11.729656
11.807844
11.886744
11.966441
8.0417713
7.9997416
7.9581047
7.9168613
7.8760106
7.8355515
7.7954824
7.7558011
7.716505
7.6775913
7.6390572
7.6008996
7.5631158
7.5257031
7.4886594
7.4519829
7.4156727
7.3797283
7.3441506
7.3089418
7.2741055
7.2396468
7.2055728
7.1718924
7.1386162
7.1057544
7.0733147
7.0412978
7.0096878
6.9784799
6.9476574
6.9174888
6.8879576
6.8602457
6.8339012
6.8106066
6.7891171
6.7911598
6.7918922
6.791936
6.7926571
6.7940444
6.7965543
6.8000824
6.8047805
6.8101458
6.8158
6.8214635
6.827136
6.8322084
6.8367744
6.8405909
6.8441446
6.847464
6.8503458
6.8532068
6.8561199
6.8590929
6.8618981
6.8647035
6.8675386
6.8702965
6.8731114
6.8757846
6.8786448
6.8815202
6.8840063
6.8864103
6.8889699
6.8915853
6.893987
6.8963931
6.8984934
6.8997624
6.8997368
6.9215125
6.92121
6.9199204
6.9178385
6.9155704
6.9132105
6.9106685
6.9081311
6.9056867
6.903143
6.9002762
6.8974001
6.8946745
6.8918554
6.8890507
6.8862348
6.8834149
6.8806032
6.8776677
6.8747821
6.8719052
6.8689868
6.8656778
6.8621003
6.8582273
6.8536572
6.8485517
6.8429086
6.8372293
6.8315472
6.8262074
6.8215076
6.8178837
6.8152406
6.8136655
6.812877
6.812712
6.8121894
6.8355897
6.8361002
6.8363461
6.8372598
6.8389748
6.8417552
6.8454642
6.8501733
6.8555
6.8611994
6.8668968
6.8725195
6.877659
6.8822352
6.8861557
6.8897693
6.8930773
6.8960297
6.8989234
6.9017885
6.9046911
6.9075101
6.9103435
6.9131467
6.915995
6.9188145
6.921578
6.9244767
6.9273381
6.9299278
6.9324033
6.9349139
6.9373868
6.9396827
6.9418625
6.9438616
6.9451946
6.945569
6.9721205
6.9716445
6.970324
6.9684105
6.9663046
6.9640813
6.9616435
6.9591573
6.9566581
6.9540387
6.9511743
6.9482662
6.9454699
6.9426453
6.9397615
6.9369648
6.9341123
6.9313093
6.9284091
6.925559
6.9226488
6.9196703
6.9163486
6.9127058
6.9087367
6.9041445
6.898974
6.8933632
6.8876536
6.8819395
6.876624
6.8719046
6.8681324
6.8652413
6.8634114
6.8623619
6.8619944
6.8615016
6.8892977
6.8899006
6.8904171
6.8915967
6.8935239
6.8964986
6.9003199
6.9050412
6.9103434
6.9160665
6.9217899
6.9273914
6.9325893
6.9372099
6.9412278
6.9449047
6.9482471
6.9512481
6.9541701
6.9570177
6.9599184
6.9627062
6.9655706
6.9683669
6.9712758
6.9741148
6.9769382
6.9798559
6.9827247
6.9853641
6.9878813
6.990355
6.9927691
6.9949356
6.9969724
6.9988009
7.000057
7.0004837
7.0302693
7.0297981
7.0285948
7.026847
7.024879
7.0227404
7.0203604
7.0178872
7.0153591
7.0126936
7.0098291
7.006907
7.0040456
7.0011859
6.998273
6.9954596
6.9926016
6.9898091
6.9869247
6.9840687
6.9811406
6.978107
6.9747481
6.9710369
6.9669569
6.9622985
6.957087
6.9514806
6.9457386
6.9400284
6.9347239
6.9300081
6.9261617
6.9231336
6.9211002
6.9198123
6.9191666
6.918539
6.9486195
6.9492718
6.9500078
6.9513917
6.9535179
6.9565822
6.9604491
6.9651526
6.9704558
6.9761487
6.9819065
6.9875198
6.9927477
6.997447
7.0015886
7.0053329
7.0087136
7.0117803
7.0147187
7.0175831
7.0204551
7.0232518
7.0261056
7.0289331
7.0318502
7.0347296
7.0376226
7.0405452
7.0434075
7.0460967
7.0486347
7.0511105
7.0534634
7.0555793
7.0574927
7.0591744
7.0603438
7.0608305
7.0919463
7.0914141
7.0902652
7.0886357
7.0867664
7.084667
7.0823373
7.0798646
7.0773054
7.0745996
7.0717393
7.0688155
7.0658987
7.0630025
7.0600832
7.0572422
7.0543928
7.0515904
7.0487288
7.045854
7.0429036
7.0398018
7.0363957
7.0326124
7.0284157
7.0236806
7.0184246
7.0128045
7.0070374
7.0013582
6.9960656
6.991375
6.9874892
6.984403
6.9822012
6.980743
6.9799293
6.979281
7.0103972
7.0110431
7.0119181
7.0134339
7.0156918
7.0187981
7.0226919
7.0273719
7.0326503
7.038318
7.0440887
7.0497213
7.0550053
7.0597775
7.0640234
7.0678503
7.0712868
7.0744227
7.07739
7.0802742
7.0831294
7.0859363
7.0887837
7.0916348
7.094557
7.0974651
7.1004009
7.1033248
7.1061862
7.1089043
7.1114837
7.1139518
7.116263
7.1183479
7.1201821
7.121769
7.122901
7.1234629
7.1553728
7.1547836
7.1536747
7.1521243
7.1503105
7.1482415
7.1459465
7.1434819
7.1408911
7.1381591
7.1352964
7.1323717
7.1294273
7.126505
7.1235813
7.120721
7.1178755
7.1150632
7.1122125
7.1093177
7.1063318
7.1031606
7.0996917
7.0958245
7.0915259
7.086713
7.0814074
7.0757625
7.0699851
7.0643293
7.0590699
7.054403
7.0505002
7.047381
7.0450763
7.0435096
7.0425858
7.041925
7.0738843
7.0745541
7.075525
7.0771333
7.0794763
7.0826043
7.0865112
7.0911628
7.0964028
7.1020474
7.1078298
7.1134873
7.1188167
7.1236712
7.128021
7.1319285
7.1354334
7.1386395
7.1416453
7.1445513
7.1474008
7.1502178
7.153063
7.15593
7.1588553
7.1617891
7.1647386
7.1676638
7.1705275
7.1732704
7.1758703
7.1783316
7.1806142
7.1826696
7.1844663
7.1859838
7.1870702
7.1876734
7.2203836
7.2197705
7.2186985
7.2172119
7.2154308
7.213387
7.2111148
7.2086556
7.2060474
7.2033
7.2004314
7.1975062
7.1945548
7.1916127
7.188687
7.1858142
7.182969
7.1801468
7.1772968
7.1743808
7.1713498
7.1681103
7.1645672
7.1606178
7.1562187
7.1513222
7.1459673
7.1402947
7.1345105
7.1288795
7.1236545
7.1190199
7.1151153
7.1119817
7.1096101
7.1079673
7.1069518
7.1062712
7.139093
7.139778
7.1408302
7.1425004
7.1448924
7.1480295
7.1519278
7.1565452
7.1617543
7.1673717
7.1731562
7.1788447
7.1842274
7.1891655
7.1936132
7.1976056
7.2011888
7.2044621
7.2075191
7.2104455
7.2132985
7.2161255
7.2189715
7.2218486
7.2247745
7.2277211
7.2306735
7.2336
7.2364721
7.2392226
7.2418369
7.2442948
7.2465596
7.2485931
7.2503609
7.2518219
7.2528801
7.2534985
7.2870184
7.2863949
7.2853472
7.2839064
7.2821523
7.280126
7.277867
7.2754091
7.2727924
7.2700369
7.2671653
7.2642366
7.2612838
7.2583339
7.2554084
7.2525278
7.2496806
7.2468486
7.2439909
7.2410525
7.2379716
7.2346637
7.2310371
7.2270014
7.2225066
7.2175258
7.2121144
7.2064102
7.2006265
7.1950206
7.189831
7.1852312
7.1813432
7.1782026
7.1757995
7.174106
7.1730243
7.1723328
7.2059872
7.2066788
7.2077834
7.2094945
7.2119045
7.2150451
7.2189206
7.2235015
7.2286713
7.2342653
7.2400485
7.2457683
7.2512095
7.2562325
7.2607751
7.2648554
7.2685257
7.2718685
7.2749734
7.2779247
7.2807888
7.2836255
7.2864745
7.2893575
7.2922827
7.2952343
7.2981877
7.3011174
7.3039883
7.3067476
7.3093662
7.3118241
7.3140788
7.3160995
7.3178433
7.3192678
7.3203068
7.3209329
7.355237
7.3546077
7.3535758
7.3521639
7.3504273
7.348412
7.3461593
7.3437027
7.3410811
7.3383196
7.3354497
7.3325194
7.329566
7.3266135
7.3236888
7.3208039
7.317953
7.3151115
7.3122398
7.3092746
7.3061453
7.3027678
7.2990539
7.2949276
7.290337
7.2852716
7.2798001
7.2740649
7.2682813
7.2627003
7.2575493
7.2529899
7.2491268
7.2459902
7.2435769
7.2418528
7.2407304
7.2400379
7.2744787
7.2751706
7.2763056
7.2780382
7.2804523
7.2835823
7.2874317
7.2919693
7.297101
7.3026693
7.3084532
7.3142042
7.3197071
7.3248149
7.3294542
7.3336272
7.3373843
7.340797
7.3439509
7.3469307
7.3498108
7.3526569
7.35551
7.3583963
7.3613205
7.3642729
7.3672263
7.3701564
7.3730253
7.3757883
7.3784125
7.380868
7.3831195
7.385131
7.3868626
7.3882651
7.3892913
7.3899231
7.4249879
7.4243528
7.4233315
7.4219351
7.4202072
7.4181975
7.4159472
7.413492
7.4108664
7.408102
7.4052341
7.4023048
7.399351
7.3963994
7.3934755
7.3905884
7.3877326
7.3848821
7.3819927
7.378998
7.3758195
7.3723719
7.3685719
7.3643511
7.359663
7.3545122
7.3489777
7.3432103
7.337426
7.3318698
7.3267576
7.3222416
7.3184077
7.3152855
7.3128731
7.3111353
7.3099914
7.3092991
7.3444968
7.345187
7.3463367
7.3480768
7.3504855
7.3535983
7.3574162
7.361911
7.3670039
7.3725483
7.3783336
7.3841179
7.3896845
7.3948788
7.3996163
7.4038852
7.4077286
7.4112104
7.4144137
7.4174239
7.4203227
7.4231781
7.4260365
7.4289243
7.4318478
7.4347984
7.4377523
7.4406806
7.4435475
7.4463126
7.4489394
7.4513946
7.4536442
7.4556531
7.4573788
7.4587715
7.4597899
7.4604273
7.49624
7.4956
7.4945833
7.4931925
7.4914679
7.4894593
7.4872094
7.484754
7.4821264
7.4793608
7.4764948
7.4735674
7.4706141
7.4676648
7.4647414
7.4618529
7.4589921
7.4561315
7.4532232
7.4501973
7.4469693
7.4434532
7.4395666
7.4352492
7.4304622
7.4252235
7.4196246
7.4138226
7.4080357
7.4025024
7.3974285
7.3929541
7.3891528
7.3860507
7.3836465
7.3819064
7.3807535
7.3800651
7.4160022
7.4166883
7.4178421
7.4195811
7.4219796
7.4250704
7.4288554
7.4333102
7.4383658
7.4438887
7.4496777
7.4554984
7.4611305
7.466414
7.4712512
7.4756169
7.4795464
7.4830964
7.4863488
7.4893908
7.4923086
7.4951749
7.4980381
7.5009272
7.5038503
7.5067984
7.5097509
7.5126772
7.5155425
7.5183082
7.5209366
7.5233926
7.5256431
7.527652
7.5293765
7.5307665
7.5317826
7.5324251
7.5689843
7.5683396
7.5673231
7.5659325
7.5642072
7.5621972
7.5599458
7.5574891
7.55486
7.5520944
7.5492298
7.5463044
7.5433526
7.5404056
7.5374827
7.5345928
7.531727
7.5288551
7.5259275
7.5228696
7.519593
7.5160095
7.5120375
7.507623
7.5027358
7.4974071
7.4917408
7.4859008
7.4801087
7.4745955
7.4695573
7.4651212
7.4613518
7.4582724
7.4558807
7.4541443
7.4529903
7.4523061
7.4889777
7.4896596
7.4908126
7.4925456
7.4949301
7.4979984
7.5017526
7.506171
7.5111932
7.5166978
7.5224943
7.5283542
7.5340556
7.5394299
7.5443671
7.5488305
7.5528447
7.5564613
7.5597618
7.5628356
7.565773
7.5686506
7.5715193
7.5744101
7.5773328
7.5802792
7.5832303
7.5861548
7.5890188
7.5917845
7.5944141
7.5968716
7.5991241
7.6011356
7.6028626
7.6042546
7.6052725
7.6059194
7.6432323
7.6425832
7.6415635
7.6401693
7.6384402
7.6364267
7.6341729
7.6317145
7.6290843
7.6263187
7.6234551
7.6205314
7.617581
7.6146351
7.6117123
7.6088205
7.6059485
7.6030652
7.6001178
7.5970283
7.5937039
7.5900546
7.5859986
7.5814865
7.5764991
7.5710788
7.5653415
7.5594607
7.5536588
7.5481616
7.5431541
7.5387521
7.5350122
7.5319547
7.5295772
7.5278483
7.5266971
7.5260172
7.5634266
7.5641041
7.5652531
7.5669778
7.5693484
7.5723959
7.5761226
7.5805096
7.5855039
7.5909949
7.5968035
7.6027062
7.6084802
7.6139469
7.6189846
7.6235454
7.6276427
7.6313241
7.6346718
7.6377772
7.6407347
7.6436241
7.6464995
7.6493928
7.652316
7.6552614
7.658211
7.6611342
7.6639976
7.6667631
7.6693938
7.6718532
7.6741087
7.6761243
7.6778561
7.6792529
7.680275
7.6809264
7.7190053
7.7183515
7.7173266
7.7159267
7.714192
7.712174
7.7099167
7.7074561
7.704825
7.7020592
7.6991962
7.6962734
7.6933241
7.6903787
7.6874549
7.6845598
7.6816806
7.6787852
7.6758172
7.6726962
7.6693254
7.6656126
7.6614747
7.6568656
7.6517774
7.6462641
7.6404528
7.6345271
7.6287104
7.6232239
7.6182411
7.6138674
7.6101526
7.6071142
7.60475
7.6030294
7.6018832
7.6012078
7.6393632
7.6400364
7.6411801
7.6428967
7.645255
7.6482854
7.6519898
7.656352
7.6613252
7.666809
7.6726354
7.6785853
7.6844347
7.6899948
7.6951334
7.6997904
7.7039685
7.7077122
7.7111057
7.7142419
7.7172203
7.7201221
7.7230057
7.725903
7.7288277
7.7317735
7.7347228
7.7376454
7.7405083
7.7432744
7.7459062
7.748368
7.750627
7.7526476
7.7543855
7.7557889
7.7568169
7.7574732
7.7963343
7.7956756
7.7946442
7.793237
7.7914957
7.7894724
7.7872115
7.7847485
7.7821159
7.7793493
7.7764862
7.7735634
7.7706139
7.7676673
7.7647411
7.7618409
7.7589525
7.756044
7.7530549
7.7499033
7.746488
7.742714
7.7384964
7.7337921
7.7286032
7.7229961
7.7171079
7.7111324
7.7052948
7.6998119
7.6948462
7.6904934
7.6867977
7.683774
7.6814206
7.6797077
7.6785667
7.6778955
7.7168074
7.7174767
7.7186155
7.7203253
7.7226746
7.7256929
7.7293818
7.7337273
7.7386879
7.744172
7.7500227
7.7560251
7.7619527
7.767607
7.7728457
7.7775967
7.7818531
7.7856567
7.7890933
7.7922603
7.7952604
7.798176
7.8010698
7.8039734
7.8069015
7.8098495
7.8127997
7.8157229
7.8185864
7.8213538
7.8239873
7.8264517
7.8287145
7.8307408
7.8324858
7.833897
7.8349319
7.8355932
7.875254
7.8745901
7.8735513
7.872136
7.8703871
7.8683578
7.866093
7.863627
7.8609923
7.858224
7.8553596
7.8524355
7.8494843
7.8465346
7.8436037
7.8406962
7.8377969
7.8348735
7.8318622
7.8286799
7.8252223
7.8213895
7.8170956
7.8122989
7.8070107
7.8013091
7.7953415
7.7893108
7.7834454
7.7779575
7.7729996
7.768659
7.7649748
7.7619602
7.7596139
7.757907
7.7567705
7.7561025
7.7957826
7.7964493
7.7975843
7.7992894
7.801634
7.8046467
7.8083286
7.8126668
7.8176247
7.8231187
7.8290006
7.8350612
7.8410693
7.8468184
7.8521555
7.8569967
7.861327
7.8651882
7.8686664
7.871864
7.874887
7.8778189
7.8807241
7.8836364
7.8865708
7.8895227
7.8924754
7.8954009
7.8982666
7.901036
7.9036721
7.9061397
7.9084067
7.9104391
7.9121919
7.9136115
7.9146543
7.9153211
7.9557985
7.9551288
7.9540817
7.9526576
7.9509008
7.9488653
7.9465959
7.9441264
7.9414889
7.938718
7.9358507
7.9329233
7.9299684
7.9270135
7.9240748
7.9211574
7.918245
7.9153037
7.9122689
7.9090558
7.9055573
7.9016686
7.8973028
7.8924183
7.8870331
7.8812369
7.8751878
7.8690962
7.8631956
7.8576928
7.8527321
7.8483937
7.8447119
7.8416991
7.8393548
7.8376507
7.8365168
7.835851
7.8763098
7.8769751
7.8781082
7.8798123
7.8821578
7.8851727
7.8888571
7.8931988
7.8981651
7.9036795
7.9096008
7.9157245
7.921815
7.9276579
7.9330903
7.9380168
7.942417
7.9463324
7.9498511
7.9530796
7.9561266
7.9590779
7.9619984
7.9649219
7.9678656
7.9708243
7.973782
7.9767118
7.9795813
7.9823542
7.9849935
7.987465
7.9897369
7.9917756
7.9935367
7.9949654
7.9960169
7.9966895
8.0379965
8.0373209
8.0362651
8.0348316
8.0330661
8.0310242
8.0287497
8.0262759
8.0236343
8.020859
8.0179869
8.0150538
8.0120923
8.009129
8.0061796
8.0032487
8.0003195
7.9973575
7.9942974
7.9910532
7.9875148
7.9835737
7.9791405
7.9741735
7.9686958
7.9628066
7.9566744
7.9505177
7.9445732
7.9390445
7.9340692
7.9297213
7.9260315
7.9230122
7.9206637
7.9189585
7.917825
7.9171599
7.9584033
7.9590683
7.9602026
7.9619105
7.9642638
7.96729
7.970988
7.9753455
7.9803328
7.9858788
7.9918483
7.998039
8.0042128
8.0101472
8.0156686
8.0206741
8.0251389
8.0291047
8.0326624
8.0359227
8.0389966
8.0419702
8.0449093
8.0478488
8.0508049
8.053774
8.0567404
8.0596773
8.0625527
8.065331
8.0679751
8.0704512
8.0727284
8.0747736
8.0765434
8.0779818
8.0790421
8.079721
8.1218626
8.1211806
8.1201156
8.1186723
8.1168982
8.1148496
8.1125696
8.1100907
8.1074435
8.1046618
8.1017825
8.0988409
8.0958688
8.0928928
8.0899288
8.0869795
8.0840293
8.0810427
8.0779544
8.0746776
8.0711008
8.0671113
8.0626171
8.0575752
8.0520122
8.046034
8.0398191
8.0335937
8.0275974
8.0220315
8.0170289
8.0126587
8.0089493
8.0059136
8.0035536
8.001842
8.0007063
8.0000406
8.042071
8.0427379
8.043876
8.0455927
8.0479615
8.0510093
8.0547332
8.0591197
8.0641406
8.069729
8.0757536
8.0820141
8.0882691
8.094289
8.0998912
8.1049666
8.109488
8.1135
8.1170957
8.1203893
8.1234927
8.1264937
8.1294565
8.1324167
8.1353901
8.1383741
8.1413528
8.1443001
8.1471841
8.1499698
8.1526205
8.1551024
8.1573855
8.1594376
8.161216
8.1626645
8.1637342
8.1644196
8.1842711
8.1812844
8.1782912
8.1753069
8.1723342
8.1693573
8.1663408
8.1632212
8.1599103
8.1562961
8.1522634
8.1477171
8.1426112
8.1369734
8.1309147
8.1246212
8.1183259
8.1122718
8.1066589
8.1016165
8.0972105
8.0934689
8.0904061
8.1445163
8.1495827
8.1552219
8.1613059
8.1676349
8.1739643
8.180058
8.1857272
8.1908594
8.1954277
8.1994794
8.2031116
8.1709568
8.12838
8.0862232
8.0444881
8.0031743
7.9622802
7.921803
7.8817388
7.8420836
7.8028329
7.7639822
7.725527
7.6874625
7.6497847
7.6124897
7.5755743
7.5390359
7.5028726
7.4670835
7.4316689
7.3966304
7.3619701
7.3276926
7.2938042
7.2603124
7.2272231
7.1945436
7.1622758
7.130416
7.0989588
7.0679382
7.0374543
7.007756
6.9792697
6.9525835
6.9282813
6.9066082
6.9223425
6.9507113
6.9495317
6.9213283
6.9062264
6.9053556
6.9200061
6.9478874
6.9701001
6.9714674
6.9726737
6.9439222
6.968377
6.9974723
7.0246415
6.9952196
7.0238313
7.0533774
7.053376
7.0235645
7.0073358
6.978742
6.9519403
6.9276382
6.9266699
6.950928
6.9777435
7.0063435
7.0226273
6.9936832
6.9947163
6.9674877
6.9428069
6.9415012
6.9662866
6.9955558
6.996653
7.0242979
7.0234185
7.0525889
7.1025373
7.1028551
7.1022696
7.0732251
7.0455657
7.0200366
6.9971529
7.0737439
7.194282
7.3812217
7.3814722
7.1934933
7.0723194
6.9959736
6.994176
7.0703944
7.1919667
7.380532
7.4076197
7.4079981
7.4072141
7.2192241
7.0975404
7.1237442
7.151809
7.1811293
7.3053967
7.2753619
7.2464423
7.4356504
7.4659347
7.4974155
7.4996962
7.3070386
7.1822539
7.1525773
7.073515
7.0452895
7.019165
7.0967619
7.1237886
7.1231711
7.0444314
7.0178209
7.0954998
7.2183
7.2191156
7.2471415
7.4371042
7.4373067
7.2469411
7.276959
7.2766967
7.4679583
7.468708
7.5008975
7.3075639
7.1823049
7.1524018
7.0730056
7.0717342
7.0220882
6.9922747
6.9759261
6.9489284
6.9244663
6.9029249
6.9006554
6.9157577
6.9180568
6.9455827
6.9432134
6.9405267
6.9133451
6.8983246
6.8954731
6.910483
6.9373428
6.960051
6.9632233
6.965889
6.9681465
6.9397804
6.9647343
6.9939259
6.9917233
6.9627327
6.9468226
6.9222506
6.9376041
6.9351223
6.9198794
6.9444298
6.9418689
6.9171787
6.9323101
6.9574284
6.9602017
6.9890995
6.9859028
7.0140058
7.0172582
7.0198021
6.9902233
6.9737607
7.0025033
7.0045926
7.0212021
7.0513176
7.0490783
7.0192059
7.0169086
7.0003701
6.9715004
6.9689005
6.9977065
7.0141523
6.9850302
6.9877935
6.9821133
6.9663085
6.9391389
6.9144356
6.8926386
6.890241
6.904334
6.90734
6.9338962
6.9303151
6.9268114
6.9017629
6.887899
6.8846106
6.8982322
6.9227671
6.9452892
6.9493393
6.9529605
6.9566174
6.929287
6.9544465
6.9825107
6.9787599
6.9514141
6.9366248
6.9119397
6.9262438
6.9235239
6.9094803
6.9339881
6.9308409
6.9062284
6.9199527
6.9449739
6.9485134
6.9750599
6.9709619
6.9989363
7.0030771
7.0068133
7.0106415
7.0399097
7.0432841
7.0465467
7.0956922
7.0989215
7.1012933
7.1810226
7.1509911
7.1214773
7.0428838
7.0159284
6.9918383
7.0677826
7.0643661
6.9891679
6.9857856
7.0601121
7.0552789
6.9821982
7.0063472
7.0100076
7.0133034
7.0403514
7.118413
7.0901591
7.093396
7.2159042
7.1890218
7.3772992
7.3712177
7.1846037
7.1787527
7.3628623
7.3521255
7.1716729
7.1986623
7.2058783
7.2116996
7.2410116
7.2449907
7.4349293
7.4048758
7.3990611
7.4294418
7.4614026
7.4666486
7.2753235
7.3061056
7.4990913
7.4940124
7.3023225
7.1781053
7.1480216
7.0692445
7.066023
7.0370964
7.11421
7.0859401
7.0809141
7.1090557
7.0333438
7.0621707
7.0917601
7.1686339
7.1739101
7.1438206
7.1385877
7.2582666
7.2656761
7.2714868
7.2352136