/*--------------------------------*- C++ -*----------------------------------*\
| =========                 |                                                 |
| \\      /  F ield         | OpenFOAM: The Open Source CFD Toolbox           |
|  \\    /   O peration     | Version:  v2012                                 |
|   \\  /    A nd           | Website:  www.openfoam.com                      |
|    \\/     M anipulation  |                                                 |
\*---------------------------------------------------------------------------*/
FoamFile
{
    version     2.0;
    format      ascii;
    class       surfaceScalarField;
    location    "184";
    object      phi;
}
// * * * * * * * * * * * * * * * * * * * * * * * * * * * * * * * * * * * * * //

dimensions      [0 3 -1 0 0 0 0];
oriented        oriented;


internalField   nonuniform List<scalar> 
71805
(
0.0064537886
2.4858591e-06
-9.8018871e-06
0.0064599617
2.6609372e-06
-8.8340508e-06
0.0064651931
2.7819672e-06
-8.0133844e-06
0.0064696548
2.8679341e-06
-7.3296396e-06
0.0064734866
2.9307893e-06
-6.7626044e-06
0.0064768008
2.9751997e-06
-6.2893786e-06
0.0064796856
3.0051257e-06
-5.8899175e-06
0.0064822131
3.0247269e-06
-5.5522157e-06
0.0064844413
3.0374729e-06
-5.2656641e-06
0.0064864153
3.043916e-06
-5.017892e-06
0.0064881719
3.0446598e-06
-4.8012941e-06
0.0064897438
3.0408676e-06
-4.6127355e-06
0.0064911566
3.033675e-06
-4.44653e-06
0.0064924322
3.0236349e-06
-4.2992044e-06
0.0064935878
3.0119678e-06
-4.1675527e-06
0.0064946422
2.9946642e-06
-4.0491319e-06
0.0064956084
2.9752352e-06
-3.9413506e-06
0.0064964955
2.9585919e-06
-3.8457562e-06
0.0064973113
2.9397641e-06
-3.7555915e-06
0.0064980611
2.9200022e-06
-3.6697086e-06
0.0064987542
2.8996196e-06
-3.5928027e-06
0.0064993999
2.8756713e-06
-3.5213202e-06
0.0065000005
2.8529281e-06
-3.453564e-06
0.006500555
2.8303055e-06
-3.384744e-06
0.0065010465
2.8114042e-06
-3.3028975e-06
0.0065014273
2.8023092e-06
-3.1831386e-06
0.0065016162
2.7910685e-06
-2.9799576e-06
0.0065014077
2.8021112e-06
-2.5936539e-06
0.0065007688
2.6508274e-06
-2.0119218e-06
0.0064995528
2.3822207e-06
-1.1662463e-06
0.0064997793
6.3575824e-07
-8.6219183e-07
0.0064992428
2.6439464e-07
2.7204122e-07
0.0065042781
-4.1026746e-06
-9.3255096e-07
0.0065099996
-5.6015607e-06
-1.2000874e-07
0.0065278497
-1.5702609e-05
-2.1474255e-06
0.0065753994
-3.4814001e-05
-1.2735697e-05
0.0066077076
-2.965742e-05
-2.6508077e-06
8.04487e-05
9.712961e-05
-1.3868352e-05
2.7611522e-05
-0.0069415958
0.00018683034
5.3039553e-05
-0.0073886049
3.4271288e-05
0.00010028563
-0.0079587482
0.00013836568
0.00012640785
-0.0083224759
3.6060123e-05
0.00013183074
-0.0086000316
4.1520354e-05
0.00012689454
-0.0086835117
1.2143052e-05
0.00012365446
-0.0087103345
9.3922911e-06
0.00012223116
-0.0086930006
9.683632e-06
0.00012190632
-0.008670539
1.2758685e-05
0.00012177185
-0.0086506968
1.506385e-05
0.00012162805
-0.0086357783
1.7095313e-05
0.00012137394
-0.0086238035
1.8995808e-05
0.00012098836
-0.0086134655
2.1113273e-05
0.00012044882
-0.0086039805
2.3782126e-05
0.00011972655
-0.0085950909
2.7243252e-05
0.00011879372
-0.0085866594
3.183805e-05
0.00011761496
-0.0085785816
3.7817754e-05
0.00011618763
-0.0085706548
4.532794e-05
0.00011453339
-0.0085625134
5.4554582e-05
0.00011273437
-0.0085533908
6.5485382e-05
0.00011090109
-0.0085421472
7.7916219e-05
0.0001092203
-0.0085271214
9.1337826e-05
0.00010793613
-0.0085059508
0.00010478135
0.00010744528
-0.0084751245
0.00011648584
0.00010842619
-0.0084298474
0.00012346804
0.00011197709
-0.0083647217
0.0001215438
0.00011898811
-0.0082833051
0.00010937547
0.00012794049
-0.0082245461
9.1358467e-05
0.00013444966
-0.0082418245
7.0415004e-05
0.00013638719
-0.0083212269
5.016564e-05
0.0001351164
-0.0084133262
7.8662167e-06
0.0001340196
-0.0084813605
2.4599618e-06
0.00013502038
-0.0084859199
-0.00010643946
0.00013824975
-0.0084208459
-1.1765612e-05
0.0001317405
-0.0081566829
-0.00016769084
0.00010525265
-0.0078028896
2.3468557e-05
5.8147825e-05
-0.0072441963
-7.4118006e-05
3.2677642e-05
-0.0068054758
0.00010037498
-0.0064779198
6.1671949e-06
-0.00010930582
-0.0067023308
0.0002343063
-0.00016739255
-0.0069431899
5.2487034e-05
-0.00019089561
-0.0073001922
0.00016043778
-0.00019798239
-0.0074296523
3.4286127e-05
-0.00020076773
-0.0075390261
4.4638539e-05
-0.00019846199
-0.0075038781
1.3159303e-05
-0.00019638937
-0.0074859272
-1.8850726e-05
-0.00019583955
-0.0074848809
-1.0065891e-05
-0.0001967991
-0.0075008014
-0.00013869729
-0.00019803073
-0.0075340327
-3.4317779e-05
-0.00019430173
-0.0074230828
-0.00022010101
-0.00018647856
-0.0072924336
3.2832561e-06
-0.00016264498
-0.0069348695
-9.553495e-05
-0.00010440256
-0.0066935992
7.8742563e-05
-0.0064690202
-1.3523352e-05
2.7432326e-05
-0.0067972893
0.00018340684
5.2131347e-05
-0.0072379399
3.4636449e-05
9.8102412e-05
-0.0078009367
0.00013793668
0.00012333198
-0.008163197
3.9151351e-05
0.00012830603
-0.0084422342
4.6399722e-05
0.00012323969
-0.0085318837
1.9499377e-05
0.00012001788
-0.0085668114
1.8693163e-05
0.00011878741
-0.0085592142
2.0596944e-05
0.00011884994
-0.0085474253
2.4769986e-05
0.0001193062
-0.0085390727
2.7523284e-05
0.00011994644
-0.0085363739
2.9191049e-05
0.00012064478
-0.0085372609
2.9792279e-05
0.00012135681
-0.0085402309
2.9526537e-05
0.00012203833
-0.0085442438
2.8616726e-05
0.00012264978
-0.0085488622
2.7264967e-05
0.00012315614
-0.0085538502
2.5565365e-05
0.00012353789
-0.0085590603
2.3683132e-05
0.00012379467
-0.0085644413
2.1693977e-05
0.00012393539
-0.0085698962
1.9735109e-05
0.00012397747
-0.0085754972
1.7866796e-05
0.00012394874
-0.0085811623
1.6125584e-05
0.00012387568
-0.0085868387
1.45094e-05
0.00012378307
-0.0085924915
1.309987e-05
0.00012368503
-0.0085981347
1.1914147e-05
0.0001235902
-0.0086038383
1.1100022e-05
0.00012350042
-0.0086097566
1.0849947e-05
0.00012341165
-0.0086163055
1.1189669e-05
0.00012331962
-0.008624446
1.2510745e-05
0.00012322574
-0.0086356595
1.1164572e-05
0.00012322521
-0.0086520058
6.7955818e-06
0.00012351434
-0.0086711984
-2.4201448e-05
0.00012500238
-0.0086854545
-2.062966e-05
0.00012840112
-0.008655784
-0.00012465992
0.00013356514
-0.0085696717
-2.3339695e-05
0.00012841312
-0.0082901661
-0.0001778513
0.00010260395
-0.0079249534
1.9220945e-05
5.5628819e-05
-0.0073546736
-7.7378231e-05
3.0326322e-05
-0.0069077902
9.9386982e-05
-0.0065744901
1.3133268e-06
-0.00010887902
-0.0068036569
0.00023091482
-0.00016819644
-0.0070508042
4.4542763e-05
-0.00019259062
-0.007417429
0.00015332867
-0.00020055587
-0.0075544407
2.4722391e-05
-0.00020428054
-0.0076722944
3.5650723e-05
-0.0002028206
-0.0076438065
4.555645e-06
-0.00020151098
-0.0076330585
-2.6648859e-05
-0.00020160284
-0.0076393097
-1.5927599e-05
-0.00020306571
-0.0076622325
-0.00014548603
-0.00020459092
-0.0077017282
-3.6907827e-05
-0.00020072738
-0.0075917532
-0.0002254458
-0.00019242014
-0.007459011
3.8068028e-06
-0.00016739395
-0.0070913466
-0.00010711988
-0.006840727
8.4582741e-05
-0.0001290839
-0.0072327984
0.0002210538
-0.00020359121
-0.0076161169
0.00022276624
-0.00022754263
-0.0079365572
0.00021896083
-0.00022971921
-0.0081138429
0.00012688477
-0.00022615316
-0.0081685796
6.2359315e-05
-0.00022083688
-0.0081538854
-4.6292855e-06
-0.00021684244
-0.0081241907
-7.1497321e-05
-0.00021681856
-0.0081176532
-0.0001355335
-0.00022080809
-0.0081346421
-0.0002266781
-0.00022626389
-0.008137992
-0.00022960918
-0.00023025055
-0.008074754
-0.00022672363
-0.00022878324
-0.007893245
-8.9311527e-05
-0.00020600962
-0.0075736135
-0.00013308021
-0.0071947026
0.0001841534
-5.1948866e-05
-0.0077693271
0.00033150441
-0.0001146486
-0.0082496322
0.00038780902
-0.00011820448
-0.0086088893
0.00033429969
-0.00010620058
-0.0087910697
0.00022370461
-9.476217e-05
-0.0088414535
0.00010836679
-8.6327588e-05
-0.0088290313
4.7436539e-06
-8.1454838e-05
-0.0088103369
-9.895069e-05
-8.127783e-05
-0.008817259
-0.00021501363
-8.5748488e-05
-0.0088493973
-0.00032675566
-9.3607116e-05
-0.0088738123
-0.00038151944
-0.00010416233
-0.0088324172
-0.00032622435
-0.00011500119
-0.0086546006
-0.00017984432
-0.00010981337
-0.0082940967
-4.5099691e-05
-0.0078084245
0.00027595767
1.9271759e-05
-0.0083698355
0.00045450291
1.2169505e-05
-0.0089099886
0.00051039063
2.775381e-05
-0.0092979035
0.00042623624
4.6598263e-05
-0.0094751387
0.00027574604
5.7986814e-05
-0.0095061166
0.0001263194
6.3592848e-05
-0.0094728811
-4.85309e-06
6.5932585e-05
-0.0094365054
-0.00013585217
6.5537577e-05
-0.0094293225
-0.00028439374
6.2345337e-05
-0.0094517695
-0.00043348158
5.5678334e-05
-0.0094726317
-0.00051613065
4.2895326e-05
-0.0094324694
-0.00045914307
2.2389009e-05
-0.0092509672
-0.00027973407
4.7661286e-06
-0.0088648172
9.7480868e-06
-0.0083307223
0.00033822679
6.5617516e-05
-0.0087404309
0.00053839707
7.2624648e-05
-0.009288064
0.00059381805
9.8125269e-05
-0.0096782676
0.00049088608
0.00011745068
-0.0098551848
0.0003173217
0.00012635587
-0.0098889533
0.0001496714
0.00012905776
-0.0098630484
4.825537e-06
0.00012981634
-0.0098378363
-0.00014037874
0.00013037278
-0.0098450548
-0.00030899155
0.00013081043
-0.0098842298
-0.00048410036
0.00012956852
-0.0099224531
-0.00058867788
0.00012249434
-0.0098976772
-0.0005344005
0.00010530556
-0.0097246999
-0.0003349889
8.2239953e-05
-0.009332298
7.7608798e-05
-0.0087782791
0.00035227189
6.7083301e-05
-0.0090119648
0.00056250133
8.9297341e-05
-0.0095577871
0.00061710813
0.00010738337
-0.0099421647
0.00050424117
0.00011741694
-0.010109103
0.00031943255
0.00011929646
-0.010129963
0.00014428353
0.00011734424
-0.010089043
-4.5689996e-06
0.00011526943
-0.010048323
-0.00015306528
0.00011459803
-0.01004127
-0.00032723467
0.00011522639
-0.010068384
-0.00051046286
0.00011541392
-0.010097397
-0.00062165745
0.00011135668
-0.010068001
-0.00056592417
9.8773477e-05
-0.0098975793
-0.0003550359
7.7888306e-05
-0.009515718
5.31504e-05
-0.0089763286
0.00035287983
3.5480713e-05
-0.0090797349
0.00056725108
5.1445128e-05
-0.009609211
0.00062326919
6.4175609e-05
-0.0099815778
0.00051006396
7.0263591e-05
-0.010145621
0.00032527205
7.1128864e-05
-0.010171097
0.00015130336
6.990522e-05
-0.010139396
4.2957711e-06
6.9083434e-05
-0.010110649
-0.00014307491
6.9863061e-05
-0.010117406
-0.00031801447
7.2362121e-05
-0.010159161
-0.00050436668
7.5621625e-05
-0.010202157
-0.00061921428
7.723634e-05
-0.010184627
-0.00056428166
7.4045971e-05
-0.010023569
-0.00035049399
6.4413288e-05
-0.0096484374
5.1155612e-05
-0.0091126181
0.00034598449
2.9352145e-05
-0.0091348712
0.00055961023
3.8018074e-05
-0.0096677776
0.00061371059
4.0973653e-05
-0.010036986
0.00049844062
4.0001294e-05
-0.010193481
0.00031305681
3.688327e-05
-0.010208182
0.00014036984
3.3523142e-05
-0.01016355
-4.0957087e-06
3.1185033e-05
-0.010121146
-0.00014819869
3.0279321e-05
-0.010114743
-0.0003199309
3.0678368e-05
-0.010144854
-0.00050379137
3.1717624e-05
-0.010178898
-0.00061746213
3.2060254e-05
-0.010156895
-0.00056230755
2.9833975e-05
-0.0099979258
-0.00034812939
2.355045e-05
-0.0096317023
1.2074123e-05
-0.0091050297
0.00034523512
-6.2486846e-07
-0.009098848
0.00055794536
5.3971741e-06
-0.0096245441
0.0006117504
8.1621893e-06
-0.009987606
0.00049783582
8.7589106e-06
-0.010143276
0.00031516754
8.3634634e-06
-0.010162724
0.00014559234
7.9581986e-06
-0.010126962
4.0350062e-06
8.1121842e-06
-0.010095857
-0.00013788098
9.1673717e-06
-0.010101881
-0.00030839818
1.1257399e-05
-0.01014452
-0.00049255851
1.4298248e-05
-0.010190121
-0.00060804186
1.7775218e-05
-0.010177298
-0.00055529
2.0652099e-05
-0.010023577
-0.00034315826
2.1394355e-05
-0.0096573015
1.8247081e-05
-0.009125473
0.00034156553
1.3718943e-05
-0.0091055295
0.00055224997
1.3789665e-05
-0.0096382516
0.0006038932
1.1268636e-05
-0.010003624
0.00048831428
7.6954351e-06
-0.010156133
0.00030508791
4.2631989e-06
-0.010168095
0.00013607042
1.4805178e-06
-0.010122165
-4.1565694e-06
-4.8134125e-07
-0.010079623
-0.00014402151
-1.7085195e-06
-0.01007399
-0.00031209718
-2.3385509e-06
-0.010105776
-0.00049384365
-2.5378336e-06
-0.010142634
-0.00060785676
-2.5140449e-06
-0.010124747
-0.00055511887
-2.6828918e-06
-0.0099708423
-0.00034376331
-3.821648e-06
-0.0096089443
-6.8007274e-06
-0.0090822917
0.00034308801
-9.1600684e-06
-0.0090672205
0.00055354688
-8.0511909e-06
-0.0095941851
0.00060567158
-7.5762605e-06
-0.0099556918
0.00049170759
-7.3504658e-06
-0.010108767
0.00031058181
-6.977468e-06
-0.010125798
0.00014339843
-6.3157353e-06
-0.010088278
4.4580357e-06
-5.3181298e-06
-0.010056007
-0.00013479739
-3.894553e-06
-0.010061243
-0.00030293956
-1.9052257e-06
-0.010103479
-0.00048556224
7.98288e-07
-0.010149286
-0.00060113082
4.1924893e-06
-0.010137456
-0.00055019859
7.9880665e-06
-0.0099851918
-0.00034057843
1.1319317e-05
-0.0096199076
1.3137949e-05
-0.0090868812
0.00033980874
1.3964267e-05
-0.0090716588
0.00054867665
1.1275343e-05
-0.0096046103
0.00059918509
7.5388287e-06
-0.0099699834
0.00048366362
3.5735875e-06
-0.010122426
0.00030140741
8.0190364e-08
-0.010134513
0.00013374378
-2.7241533e-06
-0.01008907
-4.9908964e-06
-4.8698996e-06
-0.01004725
-0.0001434532
-6.5189568e-06
-0.010042419
-0.00031012276
-7.8120584e-06
-0.010075079
-0.00049082824
-8.8086531e-06
-0.010113028
-0.00060465239
-9.4878091e-06
-0.010096482
-0.00055278458
-9.8526572e-06
-0.0099438405
-0.00034282769
-1.0078449e-05
-0.0095825906
-1.0334177e-05
-0.0090557462
0.00034276763
-1.12526e-05
-0.0090471378
0.00055248986
-1.1377887e-05
-0.0095735874
0.00060430734
-1.1237269e-05
-0.0099345259
0.00049067429
-1.0749193e-05
-0.010086838
0.00031029695
-9.8429647e-06
-0.010103039
0.00014396962
-8.5832264e-06
-0.010064754
5.8147414e-06
-7.0225791e-06
-0.01003174
-0.00013263141
-5.1130784e-06
-0.010036164
-0.00030001041
-2.7126544e-06
-0.010077528
-0.00048203634
3.3655063e-07
-0.010122511
-0.00059752145
4.0753605e-06
-0.010110019
-0.00054731329
8.2759702e-06
-0.0099572818
-0.00033902659
1.2276912e-05
-0.0095918539
1.5367591e-05
-0.0090592053
0.00033809384
1.709712e-05
-0.009048376
0.00054583867
1.3819074e-05
-0.0095806539
0.00059576759
9.5622186e-06
-0.0099460613
0.00048029051
5.0197624e-06
-0.010099075
0.0002984331
8.9934034e-07
-0.010111984
0.00013127171
-2.5122037e-06
-0.010067472
-6.9436012e-06
-5.2474905e-06
-0.010026565
-0.00014483919
-7.459243e-06
-0.010022543
-0.0003108636
-9.2906799e-06
-0.010055902
-0.00049092712
-1.0785133e-05
-0.010094502
-0.00060432623
-1.1872327e-05
-0.010078616
-0.00055244419
-1.245198e-05
-0.0099266317
-0.00034280569
-1.2558586e-05
-0.0095660673
-1.2279394e-05
-0.0090400856
0.0003428989
-1.3509015e-05
-0.0090337228
0.00055253652
-1.3854596e-05
-0.0095592167
0.00060455029
-1.3769266e-05
-0.0099193696
0.00049143036
-1.3124627e-05
-0.010071008
0.00031171153
-1.1883814e-05
-0.010086575
0.00014601984
-1.0163388e-05
-0.010047655
8.413549e-06
-8.0443841e-06
-0.010013951
-0.00012954989
-5.4835381e-06
-0.010017581
-0.00029649008
-2.3355392e-06
-0.010058052
-0.00047819492
1.5758821e-06
-0.010102131
-0.00059369566
6.2326918e-06
-0.010088852
-0.00054408358
1.1216868e-05
-0.0099356372
-0.00033692164
1.5774455e-05
-0.0095703087
1.9200566e-05
-0.0090384425
0.0003354221
2.1970097e-05
-0.0090291391
0.00054191471
1.8333152e-05
-0.0095605462
0.00059115879
1.3192249e-05
-0.0099256709
0.00047561619
7.5613574e-06
-0.010078981
0.00029407964
2.2414652e-06
-0.010092553
0.00012740599
-2.2466065e-06
-0.01004886
-1.0243714e-05
-5.8658459e-06
-0.010008796
-0.00014749411
-8.8244469e-06
-0.010005549
-0.00031279128
-1.1255302e-05
-0.010039601
-0.00049211296
-1.3219457e-05
-0.010078849
-0.00060490687
-1.4616528e-05
-0.010063614
-0.00055271129
-1.5272821e-05
-0.0099123428
-0.00034302207
-1.5192058e-05
-0.0095526265
-1.4806086e-05
-0.0090276196
0.00034317242
-1.6486613e-05
-0.0090216125
0.00055293386
-1.6939502e-05
-0.0095461312
0.00060534273
-1.7061625e-05
-0.0099053908
0.00049292047
-1.6396335e-05
-0.010056271
0.00031405671
-1.4910862e-05
-0.010071158
0.00014922903
-1.2735868e-05
-0.010031574
1.2420337e-05
-9.9836055e-06
-0.0099971713
-0.00012482705
-6.5772521e-06
-0.01000004
-0.00029115335
-2.3635252e-06
-0.010039711
-0.00047246843
2.8758248e-06
-0.010083055
-0.00058805206
9.0374322e-06
-0.010069257
-0.0005392394
1.5472408e-05
-0.0099159512
-0.00033354892
2.1145844e-05
-0.0095511449
2.5162382e-05
-0.0090202754
0.00033122265
2.9531165e-05
-0.0090117003
0.00053599387
2.4937081e-05
-0.0095419191
0.00058433079
1.8308001e-05
-0.0099063033
0.00046874501
1.0707606e-05
-0.010059529
0.00028773798
3.4172018e-06
-0.010073507
0.00012186411
-2.7733556e-06
-0.010030496
-1.4903173e-05
-7.7066206e-06
-0.0099912174
-0.00015114655
-1.1577836e-05
-0.0099887344
-0.00031542914
-1.4621976e-05
-0.010023501
-0.00049378257
-1.6980262e-05
-0.010063438
-0.00060580225
-1.8550591e-05
-0.010048911
-0.00055315547
-1.9178153e-05
-0.009898437
-0.00034331156
-1.891802e-05
-0.0095396437
-1.8329318e-05
-0.0090156128
0.00034341659
-2.0462444e-05
-0.0090095823
0.00055332179
-2.1224498e-05
-0.0095331218
0.00060619419
-2.1522762e-05
-0.0098914462
0.0004945904
-2.1004048e-05
-0.010041513
0.00031678057
-1.9460392e-05
-0.010055665
0.00015309813
-1.6996754e-05
-0.01001535
1.750424e-05
-1.3640356e-05
-0.0099801858
-0.0001186685
-9.2476196e-06
-0.0099822533
-0.00028396049
-3.5416832e-06
-0.01002112
-0.00046453705
3.7588533e-06
-0.010063789
-0.00058004575
1.2504943e-05
-0.010049647
-0.00053219113
2.1712573e-05
-0.0098965603
-0.00032844983
2.9824641e-05
-0.0095326992
3.5286297e-05
-0.0090032256
0.00032529842
4.2206124e-05
-0.0089944689
0.00052794773
3.5465326e-05
-0.0095231
0.00057537717
2.5476597e-05
-0.0098863908
0.00046007318
1.4241344e-05
-0.010039348
0.00028008445
3.7497514e-06
-0.010053711
0.00011551436
-4.8190969e-06
-0.010011458
-1.9936387e-05
-1.1339666e-05
-0.0099730799
-0.00015485154
-1.6200643e-05
-0.0099714974
-0.00031791396
-1.9777349e-05
-0.010007113
-0.00049519154
-2.2280714e-05
-0.010047845
-0.00060641059
-2.3722319e-05
-0.010034097
-0.00055335588
-2.4046489e-05
-0.0098844522
-0.00034341864
-2.3387155e-05
-0.0095266021
-2.2420942e-05
-0.0090035601
0.00034329187
-2.4543122e-05
-0.008997635
0.0005531659
-2.574126e-05
-0.0095201786
0.00060632003
-2.6663793e-05
-0.0098775339
0.00049540132
-2.6596722e-05
-0.010026721
0.00031858589
-2.5359995e-05
-0.010040018
0.00015610232
-2.2932347e-05
-0.0099988037
2.186984e-05
-1.923819e-05
-0.0099626441
-0.00011279444
-1.399296e-05
-0.0099636094
-0.00027650907
-6.6812562e-06
-0.010001326
-0.00045571958
3.2187875e-06
-0.010042961
-0.00057061483
1.5725068e-05
-0.010028172
-0.00052347678
2.9510786e-05
-0.0098751951
-0.0003219094
4.1846491e-05
-0.0095124231
5.0402959e-05
-0.0089846553
0.00031849428
6.0084519e-05
-0.0089726166
0.00051911298
4.9103719e-05
-0.009499533
0.00056620055
3.3595349e-05
-0.0098620251
0.00045199437
1.6771941e-05
-0.010015431
0.00027378126
1.9935438e-06
-0.010031092
0.00011101979
-9.3037584e-06
-0.0099904735
-2.2866322e-05
-1.7303877e-05
-0.0099537224
-0.00015649849
-2.2783486e-05
-0.0099535869
-0.00031852878
-2.6441881e-05
-0.0099904329
-0.00049502824
-2.8670353e-05
-0.010032221
-0.00060579059
-2.960596e-05
-0.010019427
-0.00055266495
-2.9354009e-05
-0.009870725
-0.00034296432
-2.8236086e-05
-0.0095138733
-2.6740553e-05
-0.0089918236
0.00034238462
-2.8616026e-05
-0.0089861085
0.00055177277
-3.0385913e-05
-0.0095076728
0.00060469482
-3.1873409e-05
-0.0098640279
0.00049388096
-3.2513434e-05
-0.010012233
0.00031747357
-3.1962801e-05
-0.010024469
0.00015567103
-3.0081497e-05
-0.0099819951
2.2446546e-05
-2.6643094e-05
-0.0099442706
-0.00011077351
-2.1151307e-05
-0.0099432693
-0.00027256095
-1.2683958e-05
-0.0099785909
-0.00044958088
-1.0061296e-07
-0.010017546
-0.00056273863
1.7099253e-05
-0.010000228
-0.0005153339
3.7417246e-05
-0.0098456264
-0.00031539974
5.6909529e-05
-0.0094829154
7.099527e-05
-0.0089567186
0.00031309361
8.2306062e-05
-0.0089346426
0.00051278824
6.4415376e-05
-0.0094604788
0.00056102554
4.0441294e-05
-0.009824354
0.00044929861
1.6372568e-05
-0.0099814654
0.00027358962
-3.0761384e-06
-0.010001719
0.00011264737
-1.6568411e-05
-0.0099654103
-2.0181489e-05
-2.5141811e-05
-0.0099321669
-0.00015332368
-3.0377577e-05
-0.0099347012
-0.0003152232
-3.3424609e-05
-0.0099735331
-0.00049183746
-3.4879433e-05
-0.010016815
-0.00060295547
-3.4985758e-05
-0.010005195
-0.00055045063
-3.3948887e-05
-0.0098575044
-0.00034154592
-3.2151312e-05
-0.0095016445
-3.0122425e-05
-0.0089805557
0.00034044412
-3.0991463e-05
-0.0089752833
0.00054870876
-3.3179859e-05
-0.009495917
0.0006005917
-3.5391233e-05
-0.0098512869
0.00048889168
-3.6804292e-05
-0.0099984503
0.00031172581
-3.7078409e-05
-0.010009413
0.000149317
-3.6058693e-05
-0.0099652217
1.5789089e-05
-3.3512531e-05
-0.009925064
-0.00011712406
-2.8781414e-05
-0.0099205602
-0.00027759894
-2.053397e-05
-0.0099509086
-0.000452106
-6.7303716e-06
-0.0099831926
-0.00056212307
1.4440477e-05
-0.0099580283
-0.00051243543
4.2090689e-05
-0.0097962212
-0.00031227107
7.0877929e-05
-0.0094293742
9.320403e-05
-0.0089030484
0.00031408603
0.00010203856
-0.0088576207
0.00051566795
7.5050098e-05
-0.0093864341
0.00056735843
4.1800494e-05
-0.0097596
0.00045899409
1.149998e-05
-0.0099295953
0.00028513027
-1.0428273e-05
-0.009962292
0.00012438764
-2.3907364e-05
-0.0099356122
-9.2953177e-06
-3.1485142e-05
-0.0099089506
-0.00014377139
-3.5596436e-05
-0.0099157736
-0.0003071293
-3.7651212e-05
-0.0099573849
-0.0004851816
-3.8292415e-05
-0.010002516
-0.00059771239
-3.7724377e-05
-0.0099922039
-0.00054663298
-3.6078234e-05
-0.0098455545
-0.00033914194
-3.3670791e-05
-0.0094906548
-3.1331088e-05
-0.0089704398
0.00033771004
-3.09313e-05
-0.0089662591
0.00054436847
-3.342312e-05
-0.0094861088
0.0005945373
-3.5924661e-05
-0.0098405802
0.00048100174
-3.763906e-05
-0.0099867758
0.00030180435
-3.830656e-05
-0.0099965174
0.00013712366
-3.7843469e-05
-0.0099505361
1.1612008e-06
-3.6095708e-05
-0.0099075466
-0.0001340642
-3.2486606e-05
-0.0098983756
-0.00029610747
-2.5659099e-05
-0.0099210138
-0.0004704731
-1.3053823e-05
-0.0099409778
-0.00057798383
8.3990222e-06
-0.009898222
-0.00052423068
3.9557671e-05
-0.0097156099
-0.00032022494
7.5583132e-05
-0.0093305396
0.00010643002
-0.008794688
0.00033223437
0.00010335109
-0.0087202066
0.00053906379
7.1771594e-05
-0.0092700159
0.00059388613
3.6227816e-05
-0.00967282
0.00048561161
6.5365168e-06
-0.0098706344
0.00030929707
-1.3449212e-05
-0.0099237126
0.00014497413
-2.5086656e-05
-0.0099098092
7.632681e-06
-3.144215e-05
-0.0098904934
-0.00013014464
-3.4894883e-05
-0.0099014693
-0.00029634463
-3.665891e-05
-0.0099454714
-0.00047680627
-3.7235292e-05
-0.0099920515
-0.0005914004
-3.6723601e-05
-0.0099827119
-0.00054213902
-3.5136362e-05
-0.0098368678
-0.00033627024
-3.2622004e-05
-0.0094827729
-2.9848703e-05
-0.008963241
0.00033497162
-2.8462466e-05
-0.0089623059
0.00054023477
-3.1895167e-05
-0.0094815201
0.00058874196
-3.4465387e-05
-0.0098352809
0.00047317344
-3.5755914e-05
-0.0099809269
0.00029148709
-3.5842711e-05
-0.0099901318
0.00012379622
-3.4839576e-05
-0.0099433554
-1.5776842e-05
-3.2709406e-05
-0.0098989874
-0.00015528832
-2.9019546e-05
-0.0098873365
-0.00032217168
-2.2733875e-05
-0.00990532
-0.00050117898
-1.1856458e-05
-0.0099164687
-0.00061148061
6.1355012e-06
-0.0098578437
-0.00055680138
3.2337492e-05
-0.0096502164
-0.00034727831
6.3724769e-05
-0.0092334022
9.1964662e-05
-0.0086696885
0.00035862287
7.4729574e-05
-0.0086862701
0.00057056341
5.1492687e-05
-0.0092486987
0.00062509343
2.6176317e-05
-0.0096630772
0.000513169
4.5015375e-06
-0.0098675088
0.00033212196
-1.1151665e-05
-0.0099231905
0.00016331046
-2.1270764e-05
-0.0099099692
2.2090933e-05
-2.7605627e-05
-0.0098907588
-0.00011899665
-3.1718125e-05
-0.009901722
-0.00028801484
-3.4461856e-05
-0.0099456838
-0.0004707855
-3.6157125e-05
-0.0099921486
-0.00058711183
-3.67042e-05
-0.0099826876
-0.00053903113
-3.5734625e-05
-0.0098369749
-0.00033400913
-3.2788549e-05
-0.0094834947
-2.775898e-05
-0.0089647932
0.00033365783
-3.042669e-05
-0.008971462
0.00053896834
-3.8170101e-05
-0.0094892995
0.00058714998
-4.2396782e-05
-0.0098427315
0.00047038501
-4.3482768e-05
-0.0099890413
0.00028665089
-4.2298642e-05
-0.0099993383
0.00011638535
-3.9762246e-05
-0.0099537682
-2.6007263e-05
-3.6322685e-05
-0.0099109134
-0.0001684609
-3.1890536e-05
-0.0099016831
-0.00033835357
-2.5804664e-05
-0.0099239487
-0.00052021523
-1.682831e-05
-0.0099426618
-0.00063246815
-3.7158637e-06
-0.0098961814
-0.00057729245
1.3797269e-05
-0.009705103
-0.00036332346
3.3961512e-05
-0.0093065109
5.3365424e-05
-0.0087574507
0.00036312233
2.7918804e-05
-0.00883977
0.00057891579
8.2063765e-06
-0.009373626
0.00063557283
-1.0007039e-05
-0.0097553151
0.00052402427
-2.5040838e-05
-0.0099322799
0.00034203664
-3.5881635e-05
-0.0099690542
0.00017134532
-4.3278895e-05
-0.0099443772
2.7641373e-05
-4.8643085e-05
-0.0099185514
-0.000116234
-5.31171e-05
-0.0099255515
-0.00028793268
-5.7163262e-05
-0.0099667739
-0.00047261928
-6.0476353e-05
-0.010010802
-0.00058944418
-6.1830092e-05
-0.0099988299
-0.00054052916
-5.9424514e-05
-0.009850902
-0.00033432745
-5.2053997e-05
-0.0094966754
-3.9237784e-05
-0.0089802699
0.00033663733
-5.8441727e-05
-0.0089795744
0.00054398824
-7.5376268e-05
-0.009496518
0.00059407945
-8.8794348e-05
-0.0098535676
0.00047753041
-9.4768782e-05
-0.010004682
0.00029185728
-9.4472804e-05
-0.01001937
0.00011835683
-9.0965557e-05
-0.0099775739
-2.7522772e-05
-8.6644474e-05
-0.0099383661
-0.00017298821
-8.2432659e-05
-0.0099335939
-0.00034483071
-7.8036766e-05
-0.0099624268
-0.00052700217
-7.2082992e-05
-0.0099915932
-0.00063761435
-6.2347875e-05
-0.0099614525
-0.00057936351
-4.6885834e-05
-0.0097932901
-0.00036228204
-2.6210182e-05
-0.0094212715
-5.2916837e-06
-0.0088958195
0.00036326255
-3.0623918e-05
-0.008902838
0.00057996121
-5.8204868e-05
-0.0094260149
0.00063896027
-8.4228658e-05
-0.0097965104
0.00052919584
-0.00010341443
-0.0099618294
0.00034689483
-0.00011419529
-0.0099889051
0.00017375186
-0.00011978408
-0.0099572985
2.6246776e-05
-0.00012356832
-0.0099265134
-0.00012189496
-0.0001272812
-0.0099293548
-0.00029712974
-0.0001310858
-0.0099662854
-0.00048338754
-0.0001334395
-0.010005261
-0.00059930555
-0.00013062112
-0.0099869411
-0.00054838182
-0.00011842355
-0.0098308667
-0.00034100444
-9.724718e-05
-0.0094680106
-7.1948207e-05
-0.0089486721
0.0003430431
-8.0391773e-05
-0.0088417574
0.00054694902
-8.797805e-05
-0.0093705676
0.00059769324
-0.00011348391
-0.0097425894
0.00048402833
-0.00013223192
-0.009904939
0.00029971564
-0.00013990725
-0.0099273209
0.00012478924
-0.00014066875
-0.0098914401
-2.4231861e-05
-0.00013870891
-0.0098568871
-0.0001724833
-0.00013564069
-0.0098555602
-0.00034513598
-0.00013138756
-0.0098872053
-0.00052540222
-0.00012429707
-0.0099195243
-0.00063310613
-0.00011053977
-0.0098928703
-0.00057476584
-8.6753893e-05
-0.0097260601
-0.00036225746
-5.8010439e-05
-0.009350461
-4.90253e-05
-0.0088200565
0.0003431831
1.2080803e-06
-0.0085985682
0.00054433161
4.7671603e-06
-0.0091358742
0.00060184979
-1.5005383e-05
-0.0095174109
0.00050215118
-3.8472713e-05
-0.0096878494
0.00033163921
-5.4619235e-05
-0.0097161843
0.00016586871
-6.4450612e-05
-0.0096847685
2.1747846e-05
-7.0261803e-05
-0.0096533376
-0.00012316251
-7.2633359e-05
-0.0096535767
-0.00029118952
-7.1595306e-05
-0.0096856333
-0.00046555273
-6.6534399e-05
-0.0097180538
-0.0005707343
-5.4835366e-05
-0.009691146
-0.00052008235
-3.4901043e-05
-0.009522348
-0.00032663764
-1.7280315e-05
-0.0091422111
-2.1687475e-05
-0.0086054925
0.00026943158
4.2464421e-05
-0.0081993272
0.0004426696
0.00010382837
-0.008722636
0.00049518675
0.00010709998
-0.0090988141
0.00041036809
9.5418405e-05
-0.0092722897
0.00026052896
8.4744374e-05
-0.0093057822
0.00011173856
7.7462354e-05
-0.0092787364
-1.8969798e-05
7.4099013e-05
-0.0092499583
-0.00014908927
7.5802872e-05
-0.0092504196
-0.00029577979
8.2581235e-05
-0.0092800124
-0.00044212696
9.3236924e-05
-0.0093076286
-0.00052207984
0.00010699419
-0.0092743918
-0.00046353457
0.00012105382
-0.009100855
-0.00028356487
0.00011917339
-0.0087244122
5.8346617e-05
-0.0082009596
0.00018789447
0.0001354239
-0.0076511172
0.00033571208
0.00020664755
-0.0081214768
0.00039316339
0.00022802245
-0.0084710682
0.0003416781
0.00022800608
-0.0086447716
0.00023319724
0.00022241505
-0.0086875762
0.00011931743
0.00021542907
-0.008667881
1.6360499e-05
0.0002100972
-0.0086417403
-8.7065577e-05
0.00020899404
-0.0086408953
-0.00020281987
0.00021211541
-0.0086654276
-0.00031438394
0.00021693762
-0.0086837029
-0.00037011752
0.00022057752
-0.0086397611
-0.0003178883
0.00021912298
-0.0084653188
-0.00017587499
0.0001969213
-0.0081154347
0.00012540444
-0.007645029
8.3014309e-05
-0.0070786556
0.00021552979
-0.007449411
0.00021560897
-0.0077605664
0.00020995414
-0.0079347012
0.00011787499
-0.0079917144
5.2849899e-05
-0.0079828339
-1.4373736e-05
-0.0079604986
-8.1050622e-05
-0.0079615018
-0.0001444079
-0.0079857899
-0.00023376653
-0.0079964532
-0.00023563838
-0.0079409482
-0.00023105038
-0.0077678739
-9.3423454e-05
-0.0074572689
-0.0070867079
-1.2010424e-05
0.00010354377
5.5127722e-05
-0.00016241156
-0.0070709574
-0.0067793504
3.4096025e-05
-7.2231899e-05
-0.0067869701
3.9461525e-05
-6.4500854e-05
3.2659039e-05
-0.0068006614
2.1150627e-05
-3.6834496e-05
2.9375177e-05
-0.0068065106
1.1532225e-05
-1.9652317e-05
1.3969298e-05
-0.006806268
1.0302884e-05
-1.4647395e-05
4.101941e-06
-0.0068056559
6.1135284e-06
-1.199726e-05
5.2716694e-06
-0.0068070924
5.8141817e-06
-1.0583422e-05
6.2056721e-06
-0.0068087661
4.1375716e-06
-9.2527279e-06
6.7888784e-06
-0.0068103887
3.9101384e-06
-8.5252013e-06
6.2376141e-06
-0.0068115716
3.7997007e-06
-8.3026778e-06
5.6859067e-06
-0.0068123988
3.8527778e-06
-8.3132888e-06
5.2876944e-06
-0.006812995
3.884744e-06
-8.3870497e-06
5.098521e-06
-0.0068134845
3.917211e-06
-8.4584035e-06
5.0307012e-06
-0.0068139364
3.9353912e-06
-8.5109979e-06
5.0274728e-06
-0.0068143917
3.9461417e-06
-8.5420293e-06
5.0512263e-06
-0.0068148696
3.9532933e-06
-8.5588608e-06
5.0835166e-06
-0.006815375
3.9550958e-06
-8.5655949e-06
5.1158869e-06
-0.0068159134
3.9507037e-06
-8.5586298e-06
5.1462824e-06
-0.0068164899
3.9396393e-06
-8.5367217e-06
5.1735907e-06
-0.0068171089
3.9213281e-06
-8.4996867e-06
5.1973456e-06
-0.006817769
3.8939135e-06