/*--------------------------------*- C++ -*----------------------------------*\
| =========                 |                                                 |
| \\      /  F ield         | OpenFOAM: The Open Source CFD Toolbox           |
|  \\    /   O peration     | Version:  v2012                                 |
|   \\  /    A nd           | Website:  www.openfoam.com                      |
|    \\/     M anipulation  |                                                 |
\*---------------------------------------------------------------------------*/
FoamFile
{
    version     2.0;
    format      ascii;
    class       volScalarField;
    location    "200";
    object      k;
}
// * * * * * * * * * * * * * * * * * * * * * * * * * * * * * * * * * * * * * //

dimensions      [0 2 -2 0 0 0 0];


internalField   nonuniform List<scalar> 
48533
(
0.28890608
0.29031668
0.29175076
0.29320911
0.29469199
0.296199
0.29772903
0.29928015
0.30084945
0.3024329
0.30402575
0.30562257
0.30721774
0.30880631
0.31038526
0.31195456
0.31351827
0.31508445
0.31666424
0.31826918
0.31990898
0.32159088
0.32331905
0.32509495
0.32691803
0.32878643
0.33069766
0.46937999
0.46966843
0.47051958
0.4707393
0.4714303
0.47162124
0.47261946
0.47533567
0.47821167
0.47835663
0.47906962
0.47925127
0.47976534
0.47982143
0.48001538
0.47987197
0.48055659
0.48321048
0.48599553
0.48587904
0.48570028
0.485368
0.48594072
0.48854484
0.49127388
0.49101597
0.49046239
0.48980198
0.48997089
0.49235118
0.49486864
0.49435348
0.49460982
0.49697439
0.49941092
0.49974036
0.501359
0.50455094
0.5073882
0.51089989
0.51497327
0.51888736
0.52317438
0.52740725
0.5316681
0.53494178
0.53929983
0.54408895
0.5488453
0.55364995
0.55850957
0.56349937
0.56870379
0.57399391
0.57924855
0.58466424
0.59024301
0.59591083
0.60171375
0.6078154
0.61524982
0.62107705
0.62524933
0.62870459
0.63216377
0.63675858
0.64010676
0.64879107
0.65579295
0.6626627
0.66908046
0.67741103
0.68218321
0.68677252
0.69248864
0.70352059
0.69978049
0.68940264
0.67068764
0.66343593
0.64471218
0.61935115
0.62002834
0.58844571
0.58606004
0.54783995
0.49456206
0.43960757
0.43049762
0.4216258
0.44138265
0.45914414
0.47490961
0.53460376
0.56834665
0.59601491
0.6134127
0.60775104
0.63087564
0.63898486
0.63688882
0.65868638
0.65977272
0.67842768
0.69358272
0.69969984
0.69032986
0.6857904
0.68180962
0.67723192
0.67270349
0.66579033
0.6642261
0.65697479
0.64981296
0.64289661
0.63485159
0.62821368
0.62262101
0.61551281
0.60863819
0.60258338
0.59670688
0.59102803
0.58541892
0.57992358
0.57469411
0.56945207
0.56415825
0.5590806
0.55422317
0.54931327
0.54462643
0.53993533
0.53522979
0.53088299
0.52878657
0.5273568
0.52329354
0.51922284
0.51509432
0.51079609
0.50640372
0.50143065
0.49728434
0.49623859
0.49599917
0.49246045
0.48880177
0.49019432
0.49111645
0.48737467
0.48341934
0.48538511
0.48626286
0.48698816
0.48767454
0.48382067
0.47985633
0.48122901
0.48168202
0.48202919
0.48250846
0.47875618
0.47488531
0.47591293
0.47610903
0.4760518
0.47596281
0.47560574
0.47536798
0.47493043
0.47498052
0.47130619
0.46768744
0.46797494
0.46771784
0.46722411
0.4669478
0.46633615
0.4659408
0.3305942
0.32863223
0.32669602
0.32478496
0.32289835
0.32103535
0.31919505
0.31737645
0.31557849
0.31380015
0.31204043
0.31029841
0.30857336
0.30686468
0.30517199
0.30349509
0.30183399
0.30018881
0.29855981
0.29694735
0.29535165
0.293773
0.29221156
0.29066734
0.28914026
0.28763005
0.28613632
0.28760539
0.28747376
0.28734307
0.28721349
0.287085
0.28695733
0.28682993
0.28670186
0.28657186
0.2864383
0.28629934
0.28615296
0.28599737
0.28583108
0.28565344
0.28546477
0.28526659
0.28506156
0.28568821
0.28587605
0.28607165
0.2862713
0.28647095
0.28666677
0.28685544
0.28703468
0.28720333
0.28736136
0.28750963
0.28764967
0.28778328
0.28791237
0.28803865
0.28816358
0.2882883
0.28841359
0.2885399
0.28866743
0.28879615
0.28892582
0.28905604
0.28918628
0.29064421
0.29051693
0.29038908
0.29026124
0.29013394
0.29000759
0.2898825
0.28975873
0.28963616
0.28951444
0.28939291
0.28927054
0.28914605
0.28901782
0.28888405
0.28874295
0.28859292
0.28843292
0.28826272
0.28808312
0.28789606
0.28770459
0.28751234
0.2873233
0.28714119
0.28696918
0.28680964
0.2866642
0.28653401
0.28642016
0.28632396
0.28624686
0.28619
0.2861536
0.28764698
0.28768261
0.28773824
0.28781358
0.28790751
0.28801858
0.28814549
0.28828717
0.28844244
0.28860963
0.28878631
0.28896922
0.28915462
0.28933856
0.28951754
0.28968877
0.28985059
0.29000251
0.29014501
0.29027928
0.29040699
0.29052993
0.2906498
0.29076813
0.29088608
0.29100454
0.29112407
0.29124496
0.29136726
0.29149084
0.29161539
0.29174046
0.29186552
0.29199
0.29335688
0.29323557
0.29311365
0.29299171
0.29287029
0.29274981
0.29263063
0.29251292
0.29239666
0.29228166
0.29216742
0.29205316
0.29193782
0.29181996
0.29169795
0.29156999
0.29143436
0.29128973
0.2911354
0.29097162
0.29079981
0.29062256
0.2904433
0.29026594
0.2900943
0.28993167
0.28978055
0.28964263
0.28951907
0.2894109
0.28931938
0.2892459
0.28919162
0.28915681
0.2906835
0.29071742
0.29077026
0.29084175
0.29093075
0.29103591
0.29115607
0.29129025
0.29143736
0.29159572
0.2917628
0.29193526
0.29210923
0.29228078
0.29244651
0.29260395
0.29275186
0.29289017
0.29301976
0.29314208
0.29325891
0.29337203
0.29348304
0.2935933
0.29370379
0.29381523
0.29392802
0.29404234
0.29415815
0.29427524
0.29439325
0.29451175
0.2946302
0.29593726
0.29582243
0.29570804
0.29559453
0.29548226
0.29537146
0.29526219
0.29515433
0.2950475
0.29494106
0.29483407
0.29472522
0.29461294
0.29449544
0.29437091
0.29423779
0.29409509
0.29394276
0.29378193
0.29361501
0.29344544
0.29327718
0.29311417
0.29295979
0.29281654
0.29268607
0.29256938
0.29246734
0.29238097
0.29231158
0.29226023
0.29222727
0.29378826
0.29382021
0.29386996
0.29393716
0.29402075
0.29411957
0.29423271
0.29435947
0.29449895
0.29464962
0.29480901
0.29497373
0.29513979
0.29530314
0.29546029
0.2956088
0.29574757
0.2958767
0.29599726
0.29611086
0.29621934
0.29632451
0.29642793
0.29653087
0.29663424
0.29673865
0.29684445
0.29695173
0.29706042
0.29717028
0.29728096
0.297392
0.29887693
0.29876964
0.29866263
0.29855634
0.29845113
0.29834721
0.29824468
0.29814346
0.29804319
0.29794329
0.29784288
0.29774067
0.29763513
0.29752444
0.29740672
0.29728035
0.29714424
0.2969983
0.29684369
0.29668293
0.29651961
0.29635788
0.29620176
0.29605463
0.29591887
0.29579589
0.29568641
0.29559095
0.29551027
0.29544539
0.29539733
0.29536643
0.29696161
0.2969914
0.2970377
0.29710014
0.29717777
0.29726969
0.29737535
0.29749443
0.29762641
0.29777004
0.29792307
0.29808219
0.29824334
0.2984023
0.29855534
0.2986998
0.29883441
0.2989592
0.29907519
0.29918401
0.29928753
0.29938757
0.29948568
0.29958312
0.29968079
0.29977927
0.29987891
0.29997979
0.30008182
0.30018478
0.30028834
0.30039205
0.30193638
0.30183588
0.30173538
0.30163532
0.30153601
0.30143768
0.30134039
0.30124405
0.30114832
0.30105261
0.30095601
0.30085726
0.30075481
0.30064684
0.30053153
0.30040729
0.30027321
0.30012936
0.29997721
0.29981956
0.29966028
0.29950366
0.29935375
0.29921375
0.29908575
0.29897079
0.29886916
0.29878097
0.29870656
0.29864667
0.29860219
0.29857354
0.30020199
0.30022945
0.300272
0.3003292
0.30040021
0.30048445
0.30058177
0.30069229
0.30081598
0.30095202
0.30109854
0.30125248
0.30140986
0.30156636
0.301718
0.30186178
0.30199606
0.30212058
0.30223612
0.30234415
0.30244647
0.30254482
0.30264076
0.30273555
0.30283012
0.30292505
0.30302069
0.30311716
0.30321438
0.30331214
0.30341015
0.303508
0.30510408
0.30500817
0.30491191
0.30481568
0.30471978
0.3046244
0.30452958
0.30443521
0.30434095
0.30424618
0.30414999
0.30405112
0.30394807
0.30383913
0.30372263
0.30359724
0.30346235
0.30331843
0.30316734
0.30301223
0.30285716
0.30270642
0.30256385
0.3024323
0.30231343
0.30220777
0.30211512
0.30203512
0.30196771
0.30191335
0.30187282
0.3018466
0.30350714
0.30353208
0.3035705
0.30362189
0.30368547
0.30376093
0.3038485
0.30394876
0.30406218
0.30418849
0.3043263
0.30447299
0.30462494
0.30477796
0.30492798
0.30507174
0.30520723
0.30533373
0.30545164
0.30556211
0.30566667
0.30576691
0.30586428
0.30595998
0.3060549
0.30614964
0.30624455
0.30633977
0.30643526
0.30653083
0.30662621
0.30672105
0.3083547
0.30825999
0.30816447
0.30806853
0.30797243
0.30787635
0.30778035
0.3076843
0.30758786
0.30749044
0.30739119
0.30728897
0.30718245
0.30707015
0.30695075
0.3068233
0.30668766
0.30654474
0.3063967
0.30624685
0.30609914
0.30595759
0.30582557
0.30570538
0.30559814
0.30550384
0.30542179
0.30535119
0.30529164
0.30524335
0.30520708
0.30518344
0.30687553
0.30689784
0.30693191
0.30697701
0.30703237
0.30709783
0.30717395
0.30726172
0.30736203
0.30747514
0.30760024
0.30773537
0.30787748
0.30802281
0.30816762
0.30830862
0.30844358
0.3085714
0.30869201
0.30880609
0.30891477
0.30901932
0.30912096
0.30922071
0.30931937
0.3094175
0.30951539
0.30961315
0.30971075
0.30980798
0.30990457
0.31000015
0.31165304
0.31155569
0.31145716
0.31135782
0.31125796
0.31115779
0.31105739
0.31095666
0.31085533
0.31075294
0.31064875
0.31054187
0.31043126
0.31031582
0.3101947
0.31006744
0.30993434
0.30979663
0.30965656
0.30951726
0.30938223
0.30925484
0.30913775
0.30903262
0.30893995
0.30885924
0.30878941
0.30872932
0.30867829
0.30863644
0.30860459
0.3085836
0.31030806
0.31032774
0.31035738
0.31039597
0.3104426
0.31049718
0.31056045
0.31063369
0.31071813
0.31081449
0.31092254
0.31104099
0.31116756
0.31129928
0.31143301
0.31156589
0.31169569
0.31182113
0.31194171
0.31205766
0.3121696
0.31227839
0.31238489
0.31248986
0.31259391
0.31269744
0.31280066
0.31290362
0.31300623
0.31310824
0.31320936
0.3133092
0.31496536
0.31486262
0.31475858
0.31465365
0.31454817
0.31444239
0.31433644
0.31423034
0.31412394
0.31401689
0.31390874
0.31379887
0.31368662
0.31357135
0.31345266
0.31333052
0.31320559
0.31307916
0.31295327
0.3128305
0.31271361
0.31260512
0.3125069
0.31241991
0.31234411
0.31227861
0.31222203
0.31217301
0.31213076
0.31209539
0.3120679
0.31204949
0.31380867
0.31382587
0.31385131
0.31388356
0.31392153
0.31396504
0.31401494
0.31407264
0.31413961
0.3142169
0.31430478
0.3144026
0.31450889
0.31462157
0.3147383
0.31485685
0.31497536
0.31509258
0.31520784
0.31532099
0.31543221
0.31554195
0.31565067
0.31575884
0.31586681
0.31597481
0.31608293
0.31619111
0.31629917
0.31640683
0.31651372
0.31661941
0.31827071
0.31816248
0.31805325
0.31794349
0.31783361
0.3177239
0.31761459
0.31750578
0.31739745
0.31728946
0.31718157
0.31707346
0.31696484
0.31685544
0.31674519
0.31663436
0.31652365
0.31641421
0.31630764
0.31620584
0.31611071
0.31602393
0.31594659
0.31587905
0.31582085
0.31577084
0.31572747
0.31568927
0.31565542
0.31562611
0.3156026
0.3155865
0.31738401
0.31739911
0.31742086
0.31744744
0.31747744
0.3175106
0.31754775
0.31759038
0.31764008
0.31769811
0.31776507
0.31784083
0.31792461
0.31801513
0.31811088
0.3182103
0.31831207
0.31841516
0.31851893
0.31862306
0.31872748
0.31883231
0.31893776
0.31904399
0.31915115
0.31925931
0.31936846
0.31947842
0.31958896
0.31969975
0.31981036
0.3199203
0.32157088
0.32146048
0.32134984
0.32123946
0.32112979
0.32102115
0.32091378
0.3208079
0.32070356
0.32060076
0.32049944
0.3203995
0.32030085
0.32020344
0.32010743
0.32001312
0.31992109
0.3198322
0.31974752
0.31966827
0.31959563
0.31953054
0.31947353
0.31942453
0.31938282
0.3193471
0.31931574
0.31928723
0.31926074
0.31923663
0.31921645
0.31920222
0.32104219
0.32105569
0.32107453
0.32109646
0.32111979
0.32114411
0.3211702
0.3211996
0.32123394
0.32127459
0.32132233
0.32137737
0.32143939
0.32150772
0.32158146
0.32165971
0.32174161
0.32182648
0.32191383
0.32200336
0.32209492
0.32218848
0.32228408
0.32399315
0.32390455
0.32381851
0.32373503
0.32365415
0.32357603
0.3235009
0.32342916
0.32336133
0.32329806
0.32324001
0.32318784
0.32314202
0.32310271
0.32306961
0.32304189
0.32301816
0.32299677
0.32297618
0.3229556
0.32293555
0.32291785
0.32290494
0.32479136
0.32480381
0.3248206
0.32483909
0.3248573
0.32487465
0.32489193
0.32491066
0.32493256
0.32495898
0.3249908
0.32502837
0.32507162
0.32512023
0.32517375
0.32523168
0.32529356
0.32535901
0.32542774
0.32549955
0.32557433
0.32565202
0.32573262
0.32750643
0.32743443
0.32736551
0.32729968
0.32723697
0.32717748
0.32712134
0.32706875
0.32701997
0.32697533
0.32693516
0.32689981
0.32686948
0.32684418
0.32682353
0.32680668
0.32679224
0.32677851
0.32676391
0.32674769
0.32673049
0.32671443
0.3267023
0.32863844
0.32865035
0.32866588
0.32868205
0.32869664
0.32870892
0.32871966
0.32873045
0.32874302
0.32875875
0.32877848
0.32880259
0.3288311
0.32886385
0.32890061
0.32894113
0.3289852
0.32903265
0.32908335
0.32913722
0.3291942
0.32925429
0.32931748
0.33116765
0.33111315
0.33106164
0.3310131
0.33096755
0.33092499
0.33088545
0.33084901
0.33081578
0.33078589
0.33075952
0.33073684
0.33071798
0.33070292
0.33069131
0.33068232
0.33067459
0.33066635
0.33065598
0.33064271
0.33062732
0.33061218
0.33060039
0.56451323
0.57262315
0.5808866
0.58929511
0.5979776
0.60687989
0.6160737
0.6254996
0.63523524
0.64524193
0.65556063
0.66615906
0.67715962
0.68850157
0.70028647
0.71246351
0.72510351
0.73817175
0.75173889
0.76577785
0.78035914
0.79546277
0.81111618
0.82732554
0.84423779
0.86179167
0.88005378
0.89901242
0.91872893
0.93919254
0.96045464
0.98252956
1.0054357
1.029196
1.0539321
1.0796363
1.1063692
1.1341491
1.1631099
1.1932864
1.2247581
1.2575416
1.2917163
1.3273502
1.3645188
1.403296
1.4437263
1.4859548
1.5300871
1.5762168
1.6244321
1.6748174
1.7273891
1.7820552
1.8383914
1.8955891
1.951915
2.0032051
2.0451002
2.0679341
2.0681647
2.0443645
2.0335198
1.9757559
1.8675413
1.8372943
1.6464832
1.4765676
1.1725646
0.799095
0.68072414
0.79544741
0.97601054
1.2593299
1.4544045
1.680432
1.9126883
2.0501791
2.1244258
2.1195415
2.0867923
2.0423838
1.9895093
1.9350901
1.878185
1.8215802
1.7662086
1.7127874
1.6614861
1.6123434
1.5652377
1.5201353
1.4768901
1.4354229
1.3956567
1.3574959
1.320896
1.2857616
1.2520656
1.2197375
1.1886704
1.1587814
1.1300765
1.1025227
1.0760597
1.0505603
1.0260225
1.0024336
0.97974456
0.95784426
0.93676004
0.91643072
0.89686839
0.87802139
0.85989457
0.84247999
0.82569682
0.80955498
0.7939863
0.77898063
0.76449581
0.75053871
0.73705739
0.7240593
0.71149298
0.69937397
0.6876465
0.67633212
0.66536551
0.65477858
0.64449287
0.63452795
0.62482654
0.61542226
0.60624988
0.59732656
0.58861667
0.58016966
0.5718837
0.5727607
0.58101991
0.58943967
0.59812751
0.60702178
0.61615779
0.62552665
0.63518475
0.64511152
0.65535021
0.6658994
0.67681116
0.68808304
0.69974598
0.71181494
0.72430435
0.73724421
0.7506356
0.76452845
0.77890988
0.7938437
0.80929732
0.82536108
0.84200522
0.85931052
0.87728361
0.89601406
0.91539977
0.93559659
0.95647452
0.9782242
1.0006566
1.0240913
1.048349
1.0736657
1.0997847
1.1271256
1.155438
1.1850676
1.2156472
1.247633
1.2807318
1.3154506
1.3513249
1.3889713
1.4278551
1.4687281
1.5108858
1.5552928
1.6011044
1.6494991
1.6993696
1.752149
1.806318
1.8627225
1.9193443
1.9746596
2.0268966
2.0676786
2.0900597
2.0685851
1.9078487
1.6267976
1.779883
1.8772242
1.9131082
1.9128417
1.8847322
1.8416353
1.7976292
1.7462523
1.7014301
1.6514669
1.6096133
1.5633406
1.5239049
1.481151
1.4440858
1.4044212
1.3696514
1.3328419
1.3003137
1.266205
1.2358631
1.2043227
1.1760115
1.1466839
1.1202951
1.0932114
1.0687111
1.0435899
1.0207113
0.9974362
0.97619205
0.95462374
0.93476959
0.9147169
0.89619939
0.87759386
0.86035885
0.8431487
0.82711535
0.81111245
0.79617087
0.78130483
0.76735806
0.75352953
0.74050773
0.72763118
0.71544864
0.70343948
0.69203514
0.68082565
0.6701269
0.65963741
0.64957724
0.63971947
0.6302139
0.62092329
0.61191857
0.60311575
0.59455682
0.58624594
0.57810908
0.56512882
0.5731657
0.58135457
0.58970984
0.59832679
0.60717801
0.61632296
0.625717
0.63542723
0.64540616
0.65573459
0.66634965
0.67732126
0.68864332
0.70043365
0.71262753
0.72528588
0.73838003
0.75197063
0.76604231
0.78065861
0.79576381
0.81141065
0.82766363
0.84459726
0.86217534
0.88045373
0.89945148
0.91921904
0.93974878
0.96109712
0.98325357
1.0062564
1.0301485
1.0549864
1.0808073
1.1076845
1.1356447
1.1647664
1.1951714
1.2269037
1.2600188
1.2945579
1.3306562
1.3683456
1.4077228
1.4487937
1.4918479
1.5368964
1.5841376
1.633578
1.6854268
1.739575
1.796036
1.8543367
1.9141272
1.9737701
2.0301397
2.0795728
2.1148969
2.1380152
2.1459185
2.1526008
2.0228886
1.8885842
1.8572973
1.7538167
1.7397841
1.687386
1.5203866
1.0548855
0.90600705
0.69109703
0.47274106
0.39552122
0.36914775
0.35760371
0.34467983
0.33741024
0.33356135
0.33166149
0.33092727
0.33108772
0.33202243
0.28859965
0.29001802
0.29146022
0.29292705
0.29441878
0.29593505
0.29747475
0.29903595
0.30061577
0.30221075
0.30381609
0.30542626
0.30703584
0.30864003
0.31023593
0.31182342
0.31340615
0.31499135
0.31658906
0.31821
0.31986341
0.32155632
0.32329303
0.32507532
0.326903
0.32877461
0.33068799
0.33068351
0.32876958
0.32689707
0.3250681
0.32328409
0.3215452
0.31984966
0.31819329
0.31656917
0.31496825
0.31338006
0.31179476
0.31020525
0.30860787
0.30700268
0.30539252
0.30378206
0.30217659
0.3005816
0.29900172
0.29744044
0.29590062
0.29438414
0.29289209
0.29142482
0.28998208
0.28856309
0.28614234
0.28615557
0.28617814
0.28621241
0.28626042
0.28632376
0.28640386
0.28650241
0.28662125
0.28676215
0.28692616
0.287113
0.28732026
0.28754274
0.28777179
0.28799515
0.28819774
0.28836477
0.28848678
0.28990697
0.28978694
0.28962276
0.28942393
0.28920516
0.28898143
0.28876481
0.28856371
0.2883831
0.28822518
0.28809003
0.28797645
0.28788261
0.28780658
0.28774667
0.2877014
0.2876692
0.28764805
0.28763568
0.2891455
0.28915704
0.28917679
0.28920698
0.28924958
0.2893062
0.28937834
0.28946774
0.2895764
0.28970624
0.28985862
0.29003362
0.29022927
0.29044079
0.29065997
0.29087485
0.29107053
0.29123232
0.29135072
0.29281878
0.2927017
0.29254182
0.29234867
0.29213695
0.29192155
0.29171434
0.29152341
0.29135335
0.29120594
0.29108092
0.2909768
0.29089155
0.29082308
0.29076961
0.29072957
0.29070133
0.29068292
0.29067221
0.29221605
0.29222596
0.29224306
0.29226943
0.29230703
0.29235752
0.29242254
0.29250395
0.29260391
0.29272458
0.2928676
0.29303339
0.29322034
0.293424
0.29363639
0.29384565
0.29403689
0.29419532
0.29431142
0.29582831
0.29571288
0.29555542
0.29536552
0.29515803
0.29494794
0.29474713
0.2945635
0.29440138
0.29426222
0.29414544
0.29404926
0.29397141
0.29390962
0.29386195
0.29382669
0.29380212
0.29378628
0.29377713
0.29535544
0.29536384
0.29537846
0.2954013
0.29543434
0.29547934
0.2955381
0.29561265
0.29570536
0.29581861
0.29595435
0.29611329
0.29629414
0.29649269
0.29670105
0.29690734
0.29709642
0.29725333
0.29736837
0.29892974
0.29881484
0.29865815
0.29846948
0.29826401
0.29805698
0.29786034
0.29768194
0.29752585
0.29739326
0.29728327
0.29719381
0.29712237
0.29706648
0.29702401
0.29699311
0.29697192
0.29695848
0.2969508
0.29856295
0.29856993
0.29858224
0.29860183
0.29863069
0.29867073
0.29872386
0.29879232
0.29887863
0.29898545
0.29911499
0.29926827
0.29944429
0.29963907
0.29984487
0.30004968
0.30023811
0.30039476
0.30050966
0.30210464
0.30198969
0.30183306
0.30164494
0.30144099
0.30123672
0.30104409
0.30087075
0.30072051
0.30059421
0.30049066
0.30040752
0.30034204
0.30029162
0.30025398
0.30022712
0.3002091
0.30019791
0.30019162
0.30183648
0.3018421
0.30185218
0.30186863
0.30189348
0.30192871
0.30197635
0.30203872
0.30211847
0.30221842
0.30234103
0.30248763
0.30265758
0.30284727
0.30304927
0.30325172
0.30343905
0.30359538
0.30371022
0.30532112
0.30520691
0.30505167
0.30486618
0.30466651
0.30446815
0.30428271
0.30411733
0.30397534
0.30385719
0.30376139
0.3036854
0.30362637
0.30358164
0.30354889
0.30352608
0.30351121
0.30350223
0.30349729
0.30517387
0.30517813
0.30518599
0.30519927
0.30522
0.30525017
0.3052918
0.30534716
0.30541888
0.3055098
0.30562249
0.30575856
0.30591776
0.30609712
0.30628987
0.30648484
0.3066668
0.30681966
0.30693231
0.30853936
0.30842963
0.30828107
0.30810498
0.30791726
0.30773263
0.30756165
0.30741054
0.30728195
0.3071759
0.30709072
0.30702386
0.30697254
0.30693423
0.30690676
0.30688818
0.30687653
0.3068698
0.30686624
0.30857459
0.30857744
0.308583
0.30859299
0.30860935
0.30863399
0.30866874
0.30871563
0.30877704
0.3088556
0.30895378
0.30907326
0.30921418
0.30937428
0.30954795
0.30972541
0.30989277
0.31003462
0.31013969
0.31173339
0.31163498
0.31150252
0.31134698
0.31118291
0.31102308
0.31087632
0.31074758
0.31063874
0.31054956
0.31047842
0.310423
0.31038087
0.31034987
0.31032817
0.31031408
0.3103058
0.31030141
0.31029929
0.31204096
0.31204233
0.31204552
0.31205209
0.31206387
0.31208258
0.3121097
0.31214682
0.31219586
0.31225899
0.31233829
0.31243526
0.31255021
0.31268156
0.31282506
0.31297295
0.31311379
0.31323428
0.31332407
0.31491861
0.31483901
0.31473251
0.31460853
0.31447886
0.31435344
0.31423888
0.31413878
0.31405442
0.31398551
0.31393073
0.31388826
0.31385624
0.31383302
0.31381731
0.3138078
0.31380295
0.31380097
0.31380034
0.31557832
0.3155782
0.31557901
0.31558219
0.31558947
0.31560228
0.31562167
0.31564866
0.31568459
0.31573099
0.31578943
0.315861
0.31594594
0.31604322
0.31614985
0.31626037
0.31636642
0.31645786
0.31652641
0.31815743
0.31809999
0.31802362
0.3179354
0.31784379
0.31775559
0.3176752
0.31760498
0.3175458
0.31749748
0.31745912
0.31742947
0.31740727
0.31739153
0.31738148
0.3173763
0.31737472
0.31737507
0.31737592
0.31919417
0.31919261
0.31919116
0.31919123
0.31919447
0.31920199
0.31921439
0.31923217
0.31925602
0.31928693
0.31932587
0.31937353
0.31943004
0.31949469
0.31956567
0.31963958
0.31971106
0.31977328
0.31982028
0.32152151
0.32148376
0.32143413
0.32137753
0.3213194
0.32126379
0.32121317
0.32116891
0.32113153
0.32110099
0.32107677
0.32105811
0.32104429
0.32103484
0.32102956
0.32102808
0.32102939
0.32103189
0.32103414
0.32289681
0.3228939
0.32289042
0.32288784
0.32288778
0.32289114
0.32289804
0.32290845
0.32292262
0.32294107
0.32296435
0.32299286
0.32302659
0.32306515
0.32310761
0.32315226
0.32319619
0.32323519
0.32326516
0.32505293
0.32502918
0.32499879
0.32496521
0.32493164
0.32490006
0.3248715
0.32484651
0.32482541
0.32480818
0.32479458
0.32478417
0.32477659
0.32477181
0.32477005
0.32477142
0.32477514
0.32477956
0.3247831
0.32669384
0.32668966
0.32668435
0.32667961
0.32667715
0.32667763
0.32668074
0.32668603
0.32669339
0.32670307
0.32671538
0.32673052
0.32674845
0.32676898
0.32679186
0.3268166
0.32684203
0.32686574
0.32688474
0.32875925
0.3287437
0.32872497
0.32870576
0.32868785
0.32867177
0.32865751
0.32864509
0.32863463
0.32862618
0.32861959
0.32861461
0.32861109
0.32860925
0.32860974
0.32861308
0.32861874
0.3286249
0.32862971
0.33059134
0.33058586
0.33057885
0.33057238
0.33056835
0.33056717
0.33056811
0.33057033
0.3305735
0.33057774
0.33058326
0.33059015
0.33059837
0.33060785
0.33061877
0.33063151
0.3306461
0.33066125
0.33067445
0.56452108
0.5724589
0.58056026
0.58884294
0.5973695
0.60609834
0.61512562
0.62441132
0.63402518
0.64392685
0.65417619
0.66474205
0.67566078
0.68692726
0.69865709
0.71079621
0.72340498
0.7364486
0.74999135
0.76402253
0.77859615
0.79368693
0.80930563
0.82549334
0.84235941
0.85983008
0.87797944
0.89689729
0.91661699
0.93708927
0.95836396
0.98050318
1.0035386
1.0274939
1.0523546
1.0782321
1.1051991
1.1332996
1.1625326
1.1930627
1.2249537
1.2582834
1.2931028
1.3295951
1.3677299
1.407684
1.4494121
1.4932588
1.5392048
1.5874936
1.6381552
1.6914695
1.7472297
1.8055457
1.8658952
1.9278116
1.989769
2.0489141
2.1021707
2.1452219
2.1780239
2.2061062
2.1615611
2.0044922
1.8746407
1.872773
1.8542441
1.8420266
1.7686001
1.7475393
1.7024942
1.6391251
1.5072945
1.2304233
0.90362504
0.63105749
0.76328923
1.0329276
1.1669152
1.2315301
1.3180779
0.98990307
0.70627413
0.51193386
0.40897074
0.37422933
0.37912487
0.36287646
0.3471395
0.33910499
0.33469159
0.33244334
0.33150592
0.33143962
0.33223177
0.58421751
0.59942572
0.6154659
0.63228983
0.6501262
0.66889937
0.68888164
0.70995496
0.73242597
0.75615387
0.78147302
0.80820052
0.83672278
0.86682166
0.89889127
0.93263134
0.96844399
1.0060622
1.0456743
1.0864873
1.1284244
1.170274
1.2110188
1.2480385
1.2775661
1.2939936
1.2887878
1.2542571
1.1861355
1.0869483
0.9684893
0.83121814
0.61620341
0.46865049
0.39407666
0.36949606
0.35604574
0.35010134
0.34046176
0.33503082
0.33210366
0.33071123
0.33026635
0.33070848
0.33180892
0.33160295
0.33033285
0.32958979
0.32964445
0.33049339
0.33243027
0.33597874
0.34152958
0.35229445
0.36959708
0.40182648
0.46058523
0.55657024
0.64370811
0.70420754
0.74839358
0.78309966
0.81156615
0.83418498
0.85216152
0.86079699
0.86595367
0.86094644
0.85544595
0.84211476
0.83031675
0.8127899
0.79795399
0.7788185
0.76284907
0.74359656
0.72756757
0.70896
0.69344355
0.67580993
0.66105942
0.64464723
0.63087474
0.61568411
0.60283119
0.58883044
0.57690135
0.56398476
0.55288269
0.54089059
0.48309987
0.49448249
0.49668618
0.50873616
0.51047471
0.52320431
0.52432054
0.53768784
0.53800589
0.55190107
0.55118176
0.56542906
0.56339329
0.57767341
0.57397011
0.58782705
0.58205962
0.59484745
0.58659926
0.59745873
0.58645994
0.59461465
0.58092715
0.58598222
0.5702149
0.57280156
0.5545585
0.55354611
0.53180805
0.51827264
0.48552033
0.45545838
0.41930667
0.38955583
0.3701184
0.35824836
0.34975008
0.34086869
0.33576524
0.33217705
0.33001089
0.32891059
0.32854629
0.32896017
0.32998993
0.33141562
0.33125457
0.32969877
0.32842801
0.32759947
0.3273947
0.32786667
0.32899735
0.33103368
0.33416859
0.33860826
0.34433574
0.36395765
0.38683877
0.41494633
0.43811685
0.45423541
0.46648017
0.47580263
0.4822081
0.48561924
0.48633596
0.48470238
0.48115685
0.47604918
0.46972104
0.46246292
0.45452918
0.44612838
0.37548513
0.37861986
0.38138873
0.38372859
0.38558445
0.38690324
0.38762201
0.3876885
0.38705102
0.3856538
0.38351666
0.38031399
0.37556082
0.36875815
0.3600035
0.35148007
0.33649256
0.33371909
0.33110393
0.32890865
0.32734728
0.32641561
0.32598945
0.3261418
0.32685625
0.32800875
0.3294638
0.33112253
0.33101793
0.32928127
0.32769134
0.32630732
0.32521184
0.32450288
0.32425308
0.32447364
0.32503867
0.32589593
0.32692676
0.32794592
0.32884008
0.33933365
0.34230382
0.34474697
0.34641527
0.3474234
0.34788983
0.34797216
0.34774029
0.3472172
0.34642615
0.34538853
0.34412421
0.34265188
0.34098752
0.33914888
0.31980149
0.32126464
0.32264754
0.32394238
0.32514026
0.32623281
0.32721069
0.32806397
0.32878237
0.32936303
0.32975068
0.32991774
0.32984368
0.32948417
0.32175
0.32207915
0.32219297
0.32214759
0.32203067
0.32199557
0.32217622
0.32264972
0.32345398
0.32456112
0.32591434
0.32745684
0.3291425
0.33093653
0.33087302
0.32903763
0.32728532
0.32563653
0.32411659
0.32275468
0.32157975
0.32061181
0.31984068
0.31921934
0.31866449
0.31807961
0.31739016
0.31657159
0.31564003
0.3212326
0.32056132
0.31976489
0.31886504
0.31788045
0.31683687
0.31574476
0.31460809
0.31343005
0.3122135
0.31096143
0.30967676
0.30836249
0.30107289
0.30235429
0.30363215
0.3049056
0.3061737
0.30743512
0.30868814
0.30993029
0.3111582
0.31235827
0.31351555
0.31461519
0.31078114
0.31202302
0.31321038
0.31433513
0.31539483
0.3164052
0.31741163
0.31846924
0.31962226
0.32089519
0.32229443
0.32381369
0.32544023
0.3271595
0.32895754
0.33082216
0.33078004
0.32889529
0.32706649
0.3253011
0.32360696
0.32199118
0.32045853
0.31900902
0.31763513
0.31632007
0.31503887
0.31376195
0.312464
0.31113354
0.30976929
0.30837551
0.30695922
0.30949584
0.30817883
0.306841
0.30549215
0.30414375
0.30279959
0.3014623
0.30013364
0.29881464
0.29750579
0.29620713
0.29297374
0.29430671
0.29565686
0.29702446
0.29840929
0.29981045
0.3012263
0.30265462
0.30409127
0.30552855
0.30390241
0.30541357
0.30692062
0.3084173
0.30989808
0.31135974
0.31280312
0.31423546
0.31567186
0.31713092
0.31862959
0.32018082
0.32179228
0.32346669
0.32520302
0.32699789
0.32884677
0.33074488
0.33071693
0.32881045
0.32694911
0.3251362
0.32337449
0.32166546
0.32000842
0.31839958
0.31683145
0.31529317
0.31377139
0.3122526
0.31072655
0.30918818
0.30763721
0.30607672
0.30451186
0.30294844
0.30139192
0.30239329
0.30089216
0.29940464
0.29793433
0.29648335
0.29505305
0.29364403
0.29225629
0.29088932
0.28961368
0.29100727
0.29242345
0.29386292
0.29532589
0.29681187
0.29831976
0.2998475
0.29981294
0.3008558
0.3026069
0.30541103
0.30979037
0.31662952
0.32785136
0.34778494
0.3896262
0.50307692
0.63796656
0.7631568
0.85967676
0.86447845
0.87040533
0.87295833
0.89172109
0.91130687
0.93165667
0.95283656
0.97490207
0.99785438
1.0217277
1.0465891
1.0724931
1.0994459
1.1275319
1.1567873
1.1873999
1.2193717
1.2528252
1.2878546
1.3246615
1.3631627
1.403545
1.445809
1.4903575
1.5370412
1.5861897
1.6378885
1.692485
1.7496138
1.8094289
1.8714399
1.9352219
1.9992508
2.0612492
2.1191633
2.1700089
2.2180194
2.2678599
2.1448323
1.9552951
1.8423642
1.8690874
1.8529888
1.8384102
1.8158472
1.7366963
1.7332568
1.7060252
1.6728255
1.6158412
1.5408696
1.454845
1.5555707
1.4707937
1.3517589
1.0553865
0.73998023
0.56096021
0.42603758
0.44707794
0.38636572
0.39689322
0.37001694
0.35537532
0.34838005
0.34018544
0.33545347
0.33303458
0.3319734
0.33175371
0.33243354
0.29077179
0.29107225
0.29093474
0.29064146
0.28931305
0.28961157
0.29014877
0.29376796
0.2934794
0.29211518
0.29240995
0.29227511
0.2919876
0.29335497
0.2936362
0.29414324
0.29428811
0.45182833
0.45316274
0.45571035
0.45619438
0.45657113
0.45697082
0.45722281
0.45752153
0.4587445
0.46118529
0.46109859
0.46105186
0.4612524
0.46249444
0.46504995
0.46515023
0.4650309
0.46489746
0.46594066
0.46831108
0.4676165
0.46688676
0.46776019
0.47013768
0.46944221
0.46834261
0.4688956
0.47099895
0.46993596
0.4705222
0.47269005
0.47143787
0.47198239
0.47406861
0.47326472
0.47430831
0.47692234
0.47852531
0.48163313
0.48408336
0.4878538
0.49145757
0.49434405
0.49863892
0.50311285
0.50742147
0.51149753
0.51549
0.51868819
0.5219073
0.52635027
0.53107524
0.53579389
0.54036572
0.54511253
0.54982727
0.55477035
0.5596686
0.56477785
0.57006803
0.57532871
0.58068297
0.58628894
0.59197876
0.59786578
0.60404808
0.61049014
0.61772431
0.62420067
0.63006905
0.63743596
0.64437691
0.65089035
0.65859267
0.66489026
0.67274474
0.67777073
0.68192569
0.68579413
0.68844744
0.69721003
0.68789094
0.67114836
0.66410972
0.64974262
0.62619851
0.62474705
0.59639743
0.59588473
0.56715362
0.54957117
0.47981391
0.52428054
0.55750513
0.57314158
0.53567368
0.53130762
0.49288429
0.51834498
0.532749
0.51457004