/*--------------------------------*- C++ -*----------------------------------*\
| =========                 |                                                 |
| \\      /  F ield         | OpenFOAM: The Open Source CFD Toolbox           |
|  \\    /   O peration     | Version:  v2012                                 |
|   \\  /    A nd           | Website:  www.openfoam.com                      |
|    \\/     M anipulation  |                                                 |
\*---------------------------------------------------------------------------*/
FoamFile
{
    version     2.0;
    format      ascii;
    class       volScalarField;
    location    "200";
    object      nut;
}
// * * * * * * * * * * * * * * * * * * * * * * * * * * * * * * * * * * * * * //

dimensions      [0 2 -1 0 0 0 0];


internalField   nonuniform List<scalar> 
48533
(
0.032255199
0.032275919
0.032297359
0.032319545
0.032342478
0.032366123
0.032390409
0.032415228
0.032440421
0.03246578
0.032491067
0.032516008
0.032540333
0.032563796
0.032586244
0.032607662
0.032628218
0.032648263
0.032668284
0.032688784
0.032710184
0.032732787
0.032756758
0.032782138
0.032808878
0.03283687
0.032865978
0.014833266
0.014901931
0.015100374
0.015170503
0.015368512
0.015438008
0.015507903
0.015539906
0.015579401
0.015632769
0.015814381
0.015878801
0.016053651
0.016117022
0.016284642
0.016341854
0.016397781
0.01641912
0.016448331
0.016493131
0.016628564
0.016673394
0.016714937
0.016723667
0.01674103
0.016770893
0.016852354
0.016872433
0.016886405
0.016873194
0.016872222
0.016877956
0.016877724
0.01684931
0.01683752
0.016837517
0.016830274
0.016801619
0.01678341
0.016720166
0.016687665
0.016655732
0.016617006
0.016572534
0.01652108
0.016484331
0.016450217
0.016408933
0.016365077
0.016318548
0.016269177
0.01621622
0.016163488
0.016107218
0.01604828
0.015987889
0.015928284
0.015866129
0.015802713
0.015732893
0.015630573
0.01554432
0.01549616
0.015476647
0.015408715
0.015352643
0.015333032
0.015177393
0.015074033
0.014968312
0.014869307
0.014692336
0.014535854
0.014354246
0.014133174
0.013832346
0.013548671
0.013154906
0.012346154
0.0090343316
0.0079852268
0.0049186229
0.0037836662
0.0025564029
0.0024163443
0.0030880501
0.0026123636
0.0022371835
0.0021755432
0.0020910114
0.0027644281
0.0020565332
0.0024982421
0.0035804218
0.0022571536
0.0019445112
0.0045146217
0.0034357332
0.0038847631
0.0071493188
0.0054580101
0.008344904
0.010854472
0.012908506
0.013355086
0.013681984
0.014018925
0.014248183
0.01444081
0.014602175
0.014723748
0.014877135
0.014894624
0.01501633
0.01512218
0.015222613
0.015337227
0.015420963
0.015497604
0.015611654
0.015704934
0.015777452
0.015842863
0.015908341
0.015970812
0.016033033
0.016095221
0.016155158
0.016209521
0.016264427
0.01631749
0.016366281
0.016412939
0.016455876
0.016495174
0.016529644
0.016547472
0.016568391
0.016616323
0.016654007
0.016692685
0.01672951
0.016766388
0.01682007
0.016851847
0.016854698
0.01684926
0.016889266
0.016917953
0.016898656
0.016882311
0.016915072
0.016943065
0.016902269
0.016873252
0.016802491
0.016753729
0.0167782
0.01680812
0.01671446
0.016651404
0.01653487
0.016463107
0.016485906
0.016520329
0.016393122
0.01631527
0.01617214
0.016080842
0.015931366
0.015838217
0.015680949
0.015595437
0.015614209
0.01565235
0.015495784
0.015400459
0.015230789
0.015129339
0.014960711
0.01486068
0.032859858
0.032828235
0.032796928
0.032765927
0.032735213
0.032704765
0.032674556
0.032644556
0.032614733
0.032585055
0.032555492
0.032526018
0.032496616
0.032467274
0.032437991
0.032408776
0.032379647
0.032350627
0.032321748
0.032293045
0.032264547
0.032236285
0.032208284
0.032180562
0.032153131
0.032125994
0.032099144
0.03225195
0.032245966
0.032240083
0.032234306
0.032228634
0.032223052
0.032217529
0.032212011
0.032206426
0.032200679
0.032194663
0.032188259
0.032181358
0.032173863
0.032165721
0.032156931
0.032147558
0.032137728
0.03212236
0.03213167
0.032141271
0.032150967
0.032160554
0.032169842
0.032178669
0.03218693
0.032194577
0.032201623
0.032208129
0.032214192
0.032219917
0.03222542
0.032230797
0.032236134
0.032241497
0.032246931
0.032252462
0.032258102
0.03226385
0.032269697
0.032275621
0.032281595
0.032305236
0.032299406
0.032293592
0.032287825
0.032282135
0.03227654
0.032271053
0.032265679
0.032260408
0.032255219
0.032250072
0.03224491
0.032239656
0.032234218
0.03222849
0.032222367
0.032215752
0.032208579
0.032200821
0.03219251
0.032183734
0.032174638
0.0321654
0.032156217
0.03214728
0.032138765
0.032130823
0.032123587
0.032117172
0.032111681
0.032107195
0.032103748
0.032101317
0.032099825
0.032126652
0.032128094
0.032130441
0.032133772
0.032138111
0.032143425
0.032149631
0.032156626
0.032164292
0.032172495
0.032181082
0.032189879
0.032198696
0.032207341
0.032215648
0.032223485
0.032230779
0.032237513
0.032243724
0.032249485
0.032254893
0.032260051
0.032265059
0.032270003
0.032274951
0.032279957
0.032285052
0.032290255
0.032295571
0.032300996
0.032306514
0.032312105
0.032317742
0.032323394
0.032342221
0.032336764
0.03233132
0.03232592
0.032320591
0.032315351
0.032310218
0.032305198
0.032300289
0.032295475
0.032290727
0.032286001
0.032281232
0.03227634
0.03227123
0.032265802
0.032259956
0.032253616
0.032246736
0.03223932
0.03223143
0.032223185
0.032214745
0.032206297
0.03219803
0.032190118
0.032182715
0.032175954
0.032169954
0.032164818
0.032160628
0.032157415
0.032155154
0.032153766
0.032181173
0.032182505
0.032184678
0.03218777
0.03219181
0.032196767
0.032202565
0.032209099
0.032216254
0.032223897
0.032231877
0.032240017
0.03224813
0.032256032
0.032263568
0.032270625
0.03227715
0.032283149
0.032288675
0.032293808
0.032298648
0.032303294
0.032307836
0.032312352
0.032316899
0.032321519
0.032326238
0.032331066
0.032336006
0.032341048
0.032346178
0.032351374
0.032356611
0.03237237
0.032367386
0.032362464
0.032357624
0.032352884
0.03234825
0.032343724
0.032339296
0.032334942
0.032330625
0.03232629
0.032321864
0.032317259
0.032312377
0.03230712
0.032301401
0.032295165
0.0322884
0.032281154
0.032273533
0.032265694
0.032257818
0.032250095
0.032242697
0.032235775
0.03222946
0.032223863
0.032219084
0.032215197
0.032212228
0.032210145
0.032208869
0.032236844
0.032238062
0.032240053
0.032242897
0.032246629
0.032251228
0.032256626
0.032262729
0.032269429
0.032276602
0.0322841
0.032291752
0.03229937
0.032306768
0.032313792
0.032320335
0.03232635
0.032331852
0.032336899
0.032341578
0.032345988
0.032350226
0.032354378
0.032358515
0.032362687
0.032366933
0.032371272
0.032375713
0.032380256
0.032384891
0.032389604
0.032394373
0.032417406
0.032412847
0.032408339
0.032403901
0.032399547
0.032395288
0.032391123
0.032387045
0.032383033
0.032379053
0.032375053
0.032370965
0.032366705
0.032362177
0.032357281
0.032351932
0.032346071
0.032339684
0.03233282
0.032325588
0.032318147
0.032310684
0.032303386
0.032296423
0.032289935
0.032284042
0.032278842
0.032274425
0.032270851
0.032268135
0.032266238
0.032265079
0.032293549
0.032294648
0.032296449
0.032299034
0.032302446
0.032306678
0.032311675
0.032317359
0.032323636
0.032330399
0.032337512
0.032344813
0.032352113
0.032359224
0.032365982
0.032372272
0.032378042
0.032383299
0.032388101
0.032392532
0.03239669
0.032400669
0.032404552
0.032408408
0.032412286
0.032416221
0.032420232
0.032424329
0.032428509
0.032432765
0.032437083
0.032441443
0.032466409
0.032462227
0.032458078
0.03245398
0.032449948
0.032445988
0.0324421
0.032438278
0.032434499
0.032430731
0.032426922
0.032423008
0.032418904
0.032414518
0.032409756
0.032404536
0.032398807
0.032392566
0.032385874
0.032378852
0.032371671
0.032364521
0.032357587
0.032351025
0.032344961
0.032339493
0.032334704
0.032330663
0.032327417
0.032324967
0.032323263
0.032322225
0.032351075
0.032352052
0.032353655
0.032355967
0.032359041
0.032362883
0.032367455
0.032372697
0.032378537
0.032384888
0.032391637
0.032398635
0.032405703
0.032412649
0.032419298
0.032425522
0.03243125
0.032436477
0.032441247
0.032445634
0.032449731
0.032453627
0.032457403
0.032461126
0.032464844
0.032468593
0.032472392
0.032476251
0.032480169
0.032484139
0.03248815
0.032492185
0.032518607
0.032514684
0.032510773
0.03250689
0.032503047
0.032499249
0.032495496
0.032491778
0.032488076
0.032484354
0.032480565
0.032476642
0.032472508
0.032468077
0.032463263
0.032457997
0.032452245
0.032446024
0.032439413
0.032432547
0.032425606
0.032418778
0.032412235
0.032406115
0.032400518
0.032395518
0.032391175
0.032387542
0.032384648
0.032382479
0.032380979
0.032380066
0.032409167
0.032410017
0.032411411
0.032413432
0.032416139
0.032419551
0.032423647
0.032428384
0.032433712
0.032439572
0.032445876
0.0324525
0.032459282
0.03246604
0.032472595
0.032478805
0.032484584
0.032489903
0.032494787
0.032499294
0.032503504
0.032507496
0.032511344
0.032515112
0.032518846
0.032522578
0.032526331
0.032530114
0.032533929
0.032537769
0.032541624
0.03254548
0.03257258
0.032568743
0.032564893
0.032561045
0.032557209
0.032553391
0.032549589
0.032545794
0.032541986
0.032538133
0.03253419
0.032530098
0.032525788
0.032521188
0.032516227
0.032510859
0.032505071
0.032498899
0.032492438
0.032485833
0.032479256
0.032472883
0.032466861
0.032461299
0.03245627
0.03245182
0.032447987
0.032444807
0.032442296
0.032440427
0.032439139
0.032438354
0.032467608
0.03246833
0.032469511
0.032471224
0.032473535
0.032476471
0.032480023
0.032484164
0.032488863
0.032494086
0.032499777
0.032505845
0.032512156
0.032518551
0.032524863
0.03253095
0.032536714
0.032542108
0.032547134
0.032551828
0.032556249
0.03256046
0.032564523
0.032568493
0.03257241
0.032576305
0.032580197
0.032584093
0.032587995
0.032591897
0.032595789
0.032599657
0.03262648
0.032622537
0.03261856
0.032614563
0.032610556
0.032606547
0.032602534
0.032598512
0.032594462
0.032590359
0.032586166
0.032581834
0.03257731
0.03257254
0.032567477
0.032562098
0.032556411
0.032550469
0.03254437
0.032538254
0.032532271
0.032526567
0.032521254
0.032516408
0.032512069
0.03250826
0.032505002
0.032502318
0.032500213
0.032498655
0.032497581
0.032496923
0.032526299
0.032526896
0.032527865
0.032529267
0.032531165
0.032533592
0.032536546
0.032540007
0.032543961
0.032548397
0.032553287
0.032558576
0.032564169
0.03256994
0.032575753
0.032581482
0.032587029
0.032592338
0.03259739
0.0326022
0.032606801
0.032611236
0.032615551
0.032619786
0.032623973
0.032628135
0.032632285
0.032636429
0.032640566
0.032644687
0.032648782
0.032652836
0.032678554
0.032674367
0.032670136
0.032665876
0.032661601
0.032657319
0.032653033
0.032648741
0.032644431
0.032640085
0.032635677
0.032631174
0.032626541
0.032621745
0.032616762
0.03261159
0.032606253
0.032600808
0.032595347
0.032589982
0.032584832
0.032580002
0.032575568
0.032571568
0.032568014
0.032564911
0.032562266
0.032560096
0.032558404
0.032557153
0.032556286
0.032555747
0.032585286
0.032585771
0.032586543
0.032587647
0.032589139
0.032591056
0.032593395
0.03259614
0.032599286
0.032602839
0.032606797
0.032611137
0.032615804
0.032620713
0.032625765
0.032630861
0.032635919
0.032640884
0.032645727
0.032650445
0.03265505
0.032659567
0.03266402
0.032668436
0.032672835
0.03267723
0.032681629
0.032686032
0.032690435
0.032694827
0.032699194
0.032703519
0.032727684
0.032723236
0.032718754
0.032714256
0.032709757
0.03270527
0.032700801
0.032696351
0.032691918
0.03268749
0.032683054
0.03267859
0.032674082
0.032669515
0.032664881
0.03266019
0.032655473
0.032650779
0.032646182
0.032641762
0.032637601
0.032633764
0.032630289
0.032627184
0.03262444
0.032622046
0.032620005
0.032618331
0.032617028
0.032616062
0.032615379
0.032614943
0.032644748
0.032645141
0.032645744
0.032646583
0.032647708
0.032649153
0.032650913
0.032652972
0.032655329
0.032657999
0.032661001
0.032664338
0.032667986
0.0326719
0.032676017
0.032680268
0.032684594
0.032688951
0.03269331
0.032697658
0.032701997
0.032706334
0.032710681
0.03271505
0.032719452
0.032723892
0.032728372
0.032732887
0.03273743
0.032741988
0.032746544
0.032751079
0.03277381
0.032769243
0.032764672
0.032760117
0.032755596
0.032751122
0.032746703
0.032742345
0.032738049
0.032733813
0.032729629
0.032725491
0.032721392
0.032717327
0.032713299
0.032709323
0.032705422
0.032701635
0.03269801
0.0326946
0.032691451
0.032688597
0.032686046
0.032683786
0.032681793
0.032680045
0.032678545
0.03267731
0.032676347
0.032675623
0.03267509
0.032674733
0.03270493
0.032705259
0.032705732
0.032706356
0.032707174
0.032708221
0.032709485
0.032710949
0.03271261
0.032714492
0.032716625
0.032719027
0.0327217
0.032724625
0.032727766
0.032731086
0.032734544
0.032738112
0.032741768
0.032745498
0.0327493
0.032753172
0.032757121
0.032780834
0.032777177
0.03277362
0.03277016
0.032766799
0.032763539
0.032760393
0.032757376
0.032754513
0.032751833
0.032749364
0.032747129
0.032745139
0.032743385
0.032741843
0.032740478
0.032739268
0.032738212
0.032737331
0.032736639
0.032736102
0.032735679
0.032735371
0.03276608
0.032766375
0.032766759
0.032767224
0.032767807
0.032768544
0.032769419
0.032770409
0.032771513
0.032772757
0.032774176
0.032775798
0.032777638
0.032779692
0.032781945
0.032784376
0.032786965
0.032789694
0.03279255
0.032795526
0.032798616
0.032801821
0.032805142
0.032830202
0.032827243
0.032824408
0.032821698
0.03281911
0.032816649
0.032814321
0.032812133
0.032810099
0.032808232
0.032806548
0.032805056
0.032803753
0.032802624
0.032801638
0.032800758
0.032799957
0.032799237
0.032798621
0.032798129
0.032797724
0.032797369
0.032797081
0.032828389
0.032828677
0.032829011
0.032829369
0.032829786
0.0328303
0.032830891
0.032831532
0.032832223
0.032832991
0.032833874
0.032834903
0.032836097
0.032837458
0.032838983
0.032840661
0.032842482
0.032844439
0.032846525
0.032848737
0.032851074
0.032853535
0.032856123
0.03288297
0.032880747
0.032878647
0.032876667
0.032874806
0.032873065
0.032871445
0.03286995
0.032868584
0.032867355
0.032866269
0.032865329
0.032864529
0.032863852
0.032863265
0.032862731
0.032862222
0.032861739
0.032861308
0.032860953
0.032860631
0.032860311
0.032860017
0.011384515
0.011473913
0.011560726
0.011644277
0.011727652
0.011808784
0.011889251
0.011966997
0.012043747
0.012117962
0.012190686
0.012260631
0.012330182
0.012397602
0.012464831
0.01253039
0.012595776
0.012659827
0.01272402
0.012787345
0.012851252
0.012914801
0.012978982
0.013043128
0.013109298
0.013176157
0.013244932
0.013314741
0.013386721
0.013459947
0.013535406
0.013612344
0.013691483
0.013772034
0.013855416
0.013940573
0.014028439
0.014118039
0.014210711
0.014305561
0.014403481
0.014503298
0.014605775
0.014709986
0.014816564
0.014924389
0.015033725
0.015143673
0.015254763
0.015365329
0.015475576
0.015583439
0.015688699
0.015787943
0.015879028
0.01595502
0.016009092
0.016019376
0.01596864
0.01580982
0.015523204
0.015085164
0.014628727
0.0056711122
0.010258024
0.0053649648
0.0049916527
0.007976409
0.0058482477
0.003734726
0.004494416
0.0053724494
0.005708453
0.0075862943
0.011486656
0.010014865
0.0059044839
0.014484385
0.01526928
0.01564045
0.015833228
0.01593174
0.015955644
0.015943552
0.015892974
0.015822249
0.015735877
0.015641555
0.015540482
0.015436387
0.015329008
0.015221026
0.015111817
0.015003281
0.014894991
0.014788296
0.01468278
0.014579532
0.014478081
0.014379472
0.014282555
0.01418818
0.014095912
0.014006796
0.013919809
0.013835253
0.013752506
0.013672586
0.013594421
0.013518239
0.013443552
0.013370848
0.013299503
0.01323004
0.013161743
0.013095456
0.013029681
0.012965421
0.012901193
0.012837756
0.012773854
0.012710409
0.012646036
0.012581668
0.01251592
0.012449856
0.012382045
0.012313696
0.01224327
0.012172176
0.012098624
0.012023885
0.011946509
0.011868065
0.011786937
0.011704377
0.011619436
0.011534179
0.011446043
0.011489031
0.011575958
0.011659112
0.011743085
0.011823631
0.011903582
0.011980043
0.012056279
0.01212918
0.012201702
0.012271154
0.012340606
0.012407419
0.01247428
0.012538875
0.012603686
0.012666662
0.012730104
0.01279223
0.012855201
0.012917382
0.012980699
0.013043763
0.013108538
0.013173473
0.013240763
0.01330891
0.013379173
0.013450541
0.013524031
0.013598843
0.013675575
0.013754245
0.013835587
0.013918873
0.014004252
0.01409213
0.01418278
0.0142759
0.014370958
0.014468128
0.014567515
0.01466932
0.014772604
0.014877856
0.014983771
0.015091094
0.015197684
0.015304695
0.015409411
0.015513047
0.01561181
0.015706705
0.015792637
0.015866133
0.0159212
0.015942134
0.015926417
0.015830346
0.015636201
0.015250165
0.011509197
0.01396789
0.014683666
0.015233892
0.015539938
0.01573281
0.015783842
0.015786383
0.015746742
0.015678709
0.015606469
0.015512152
0.015429411
0.015326996
0.015237056
0.015132493
0.01503941
0.014935127
0.014841462
0.014739367
0.014647013
0.014548767
0.014459116
0.01436565
0.014279085
0.014189747
0.014106764
0.014023064
0.013944451
0.013865605
0.013790268
0.013716225
0.013644896
0.013575351
0.013506622
0.013440531
0.01337443
0.013311843
0.013248262
0.013189048
0.013127572
0.013070527
0.013010284
0.012954739
0.012894823
0.012840035
0.012779708
0.012724772
0.012663161
0.01260744
0.012543931
0.012486815
0.012420825
0.012361911
0.012292952
0.012231494
0.012158944
0.012094839
0.012018522
0.011951133
0.011871057
0.011801944
0.011718918
0.011451415
0.011537953
0.011621829
0.011702787
0.011783223
0.011861658
0.011939388
0.012014655
0.012089005
0.012160752
0.012231644
0.012299851
0.012366986
0.012432214
0.012497648
0.012561631
0.012625558
0.01268835
0.012751347
0.012813695
0.012876764
0.012939286
0.013002427
0.013066089
0.013131651
0.013197988
0.013266192
0.013335657
0.013407434
0.013480581
0.013556064
0.01363297
0.013712142
0.013792915
0.013876158
0.013961152
0.014048918
0.014138502
0.014230801
0.014325512
0.014423326
0.014523273
0.014625846
0.014730524
0.014837739
0.014946415
0.015056598
0.015168255
0.015281501
0.015395236
0.015509296
0.015622375
0.015733829
0.01584083
0.015941102
0.016030114
0.016101283
0.016137299
0.016123084
0.01602197
0.015837583
0.015554066
0.01523918
0.0071260072
0.0063498192
0.0061832293
0.008990918
0.0087839958
0.0074050942
0.0092930276
0.0054508018
0.0042516893
0.0044066134
0.0029261446
0.0028195416
0.0040413612
0.0055087053
0.0084752137
0.012870865
0.018825731
0.026666407
0.033012975
0.03296388
0.032945064
0.032237287
0.032258571
0.032280608
0.032303423
0.032327012
0.032351338
0.032376328
0.032401869
0.032427802
0.032453941
0.032480044
0.032505832
0.032531034
0.032555412
0.032578813
0.032601214
0.032622767
0.032643784
0.032664705
0.032685999
0.032708066
0.032731207
0.032755593
0.032781283
0.032808245
0.032836392
0.032865604
0.032865766
0.032836501
0.032808288
0.032781243
0.032755451
0.032730942
0.032707659
0.032685434
0.032663972
0.032642883
0.032621707
0.032600014
0.032577498
0.032554007
0.032529562
0.032504309
0.032478483
0.03245235
0.032426183
0.032400219
0.032374646
0.032349619
0.032325252
0.032301616
0.032278748
0.032256652
0.032235306
0.032099554
0.03210045
0.032101915
0.032104014
0.03210681
0.032110392
0.032114882
0.032120425
0.032127157
0.032135182
0.032144545
0.032155201
0.032166975
0.032179525
0.03219232
0.032204644
0.032215674
0.032224668
0.032231206
0.032252675
0.032246329
0.032237596
0.032226892
0.032214952
0.032202585
0.032190493
0.032179187
0.032168991
0.032160062
0.032152436
0.032146059
0.032140827
0.032136602
0.032133237
0.032130609
0.032128629
0.032127241
0.032126387
0.032153508
0.032154322
0.032155638
0.032157506
0.032159975
0.032163133
0.032167109
0.03217205
0.032178095
0.032185353
0.032193883
0.032203661
0.032214543
0.032226223
0.032238205
0.032249803
0.032260213
0.032268711
0.032274883
0.032297853
0.032291837
0.032283549
0.032273397
0.0322621
0.032250456
0.032239141
0.032228638
0.032219237
0.032211069
0.032204147
0.032198407
0.032193736
0.032189993
0.032187029
0.03218471
0.032182949
0.0321817
0.032180924
0.032208631
0.032209374
0.03221056
0.032212221
0.032214397
0.03221718
0.032220706
0.032225128
0.032230589
0.032237206
0.032245049
0.032254114
0.032264283
0.03227528
0.032286631
0.032297668
0.032307597
0.032315702
0.03232158
0.032346027
0.03234027
0.032332323
0.032322583
0.032311766
0.032300665
0.032289945
0.032280068
0.0322713
0.032263748
0.032257406
0.032252199
0.032248007
0.032244683
0.03224207
0.032240026
0.032238459
0.03223733
0.03223662
0.03226487
0.032265552
0.032266626
0.032268106
0.032270025
0.03227248
0.032275617
0.032279598
0.032284572
0.032290663
0.032297954
0.032306457
0.032316076
0.032326556
0.032337444
0.032348076
0.032357657
0.03236547
0.032371123
0.032396758
0.032391195
0.032383495
0.032374046
0.032363572
0.032352871
0.032342604
0.032333218
0.032324957
0.032317907
0.032312046
0.032307288
0.032303504
0.032300542
0.032298237
0.032296435
0.032295038
0.032294014
0.032293357
0.032322051
0.032322684
0.032323663
0.032324983
0.032326673
0.032328837
0.032331632
0.032335229
0.032339783
0.032345423
0.032352244
0.032360274
0.032369439
0.032379505
0.032390033
0.032400364
0.032409695
0.032417296
0.032422779
0.032448998
0.03244359
0.032436082
0.032426866
0.032416678
0.032406328
0.032396469
0.032387532
0.032379736
0.032373146
0.032367724
0.032363371
0.032359956
0.032357322
0.032355296
0.032353713
0.032352467
0.032351532
0.032350921
0.032379933
0.032380524
0.032381416
0.03238259
0.032384067
0.032385958
0.032388431
0.032391662
0.032395808
0.032401001
0.032407345
0.032414886
0.032423571
0.032433194
0.032443341
0.032453363
0.032462451
0.032469858
0.032475187
0.032501082
0.032495851
0.032488575
0.032479657
0.032469849
0.032459961
0.032450626
0.032442241
0.032434994
0.032428925
0.03242398
0.032420055
0.032417015
0.032414707
0.032412953
0.032411582
0.03241048
0.032409628
0.032409056
0.032438265
0.032438819
0.032439632
0.032440663
0.032441926
0.032443539
0.032445676
0.032448512
0.032452198
0.032456865
0.032462617
0.032469515
0.032477534
0.032486503
0.032496051
0.032505563
0.032514243
0.032521335
0.032526428
0.032551003
0.032546105
0.032539279
0.032530937
0.032521829
0.032512729
0.032504223
0.032496654
0.03249017
0.032484784
0.032480431
0.032477007
0.03247439
0.032472433
0.032470966
0.032469811
0.032468853
0.032468079
0.032467542
0.032496879
0.032497399
0.032498133
0.032499019
0.032500061
0.032501378
0.032503146
0.03250553
0.032508666
0.032512669
0.032517637
0.032523637
0.032530667
0.032538602
0.03254713
0.032555705
0.032563586
0.032570044
0.032574671
0.03259742
0.03259315
0.032587176
0.03257989
0.032571983
0.032564151
0.032556894
0.032550488
0.032545036
0.032540533
0.032536913
0.032534086
0.032531948
0.032530377
0.032529214
0.032528287
0.032527475
0.03252678
0.032526276
0.032555745
0.032556233
0.03255689
0.032557627
0.032558439
0.032559444
0.032560814
0.032562697
0.032565201
0.032568414
0.032572417
0.03257727
0.032582983
0.032589475
0.032596505
0.032603624
0.032610193
0.032615571
0.032619397
0.032640901
0.032637586
0.03263289
0.03262713
0.032620885
0.03261473
0.032609059
0.03260408
0.032599855
0.032596371
0.032593575
0.0325914
0.032589775
0.032588606
0.032587756
0.03258706
0.032586396
0.032585777
0.032585304
0.032614978
0.032615439
0.032616022
0.032616615
0.032617198
0.032617895
0.032618869
0.032620242
0.032622092
0.032624474
0.03262744
0.032631034
0.032635272
0.032640104
0.03264536
0.032650695
0.032655604
0.032659575
0.032662343
0.032684156
0.032681936
0.032678686
0.032674617
0.032670174
0.032665796
0.032661777
0.032658255
0.032655268
0.032652799
0.032650813
0.032649272
0.032648138
0.03264735
0.032646799
0.032646323
0.032645799
0.032645248
0.032644799
0.032674798
0.032675238
0.032675759
0.032676219
0.032676594
0.032677011
0.032677627
0.032678541
0.032679797
0.032681418
0.032683428
0.032685854
0.032688711
0.032691976
0.032695538
0.032699151
0.032702435
0.032705009
0.032706714
0.032730295
0.03272905
0.032727075
0.032724487
0.03272161
0.032718774
0.032716181
0.032713916
0.032711991
0.032710391
0.032709097
0.032708096
0.032707379
0.032706916
0.03270662
0.032706338
0.032705937
0.032705442
0.032705007
0.032735457
0.032735889
0.032736363
0.03273671
0.032736908
0.032737096
0.032737426
0.032737974
0.032738754
0.032739765
0.032741011
0.032742503
0.032744259
0.032746274
0.03274849
0.03275074
0.03275274
0.032754206
0.032755059
0.032781062
0.032780529
0.032779477
0.032777956
0.03277622
0.032774517
0.03277298
0.03277165
0.032770519
0.032769571
0.032768797
0.032768202
0.032767797
0.03276758
0.032767484
0.032767361
0.032767062
0.032766607
0.032766175
0.032797182
0.032797616
0.032798056
0.032798311
0.032798368
0.032798386
0.032798512
0.032798801
0.032799245
0.032799824
0.03280053
0.032801367
0.032802353
0.032803502
0.032804795
0.032806123
0.032807268
0.032807998
0.032808277
0.032836624
0.032836539
0.032836052
0.032835191
0.032834176
0.032833205
0.032832361
0.032831647
0.032831043
0.03283053
0.032830105
0.03282978
0.032829583
0.03282953
0.032829576
0.032829577
0.032829361
0.032828934
0.032828494
0.032860125
0.032860572
0.032860987
0.032861166
0.032861115
0.032861018
0.032861015
0.032861144
0.032861376
0.032861682
0.032862046
0.03286247
0.032862973
0.032863582
0.032864308
0.032865086
0.03286574
0.03286605
0.032865991
0.01151706
0.011601163
0.0116828
0.011761624
0.0118394
0.011914435
0.011988898
0.012060957
0.012132391
0.012201571
0.012269895
0.012335923
0.01240098
0.012464156
0.012527553
0.01258958
0.012651837
0.012713059
0.012774636
0.012835664
0.012897644
0.012959423
0.013021824
0.013084405
0.013149068
0.013214191
0.013281041
0.013349476
0.013420672
0.013493101
0.013567722
0.013643996
0.013723022
0.013803723
0.013886488
0.013970932
0.01405841
0.014147805
0.014239529
0.01433334
0.014430463
0.014529748
0.014631855
0.014736301
0.014843584
0.014952767
0.015063684
0.015176343
0.015291235
0.015407177
0.015524289
0.015641399
0.015757922
0.015871188
0.015978721
0.016075133
0.016154362
0.016199669
0.016197411
0.016121458
0.015969181
0.015755857
0.010606584
0.008400075
0.0063140406
0.006377135
0.0098600323
0.0083448859
0.010915391
0.010110815
0.009619548
0.0087456326
0.010550896
0.0093452048
0.0061814442
0.003613661
0.0057241608
0.0076683316
0.0091828857
0.0091367388
0.0097909827
0.0078826773
0.0045461868
0.0034930582
0.0027300903
0.0034157217
0.0035501125
0.0049271535
0.0074976076
0.011779919
0.017370121
0.024841064
0.033051461
0.032993077
0.03296694
0.012478073
0.012569854
0.012656112
0.012738993
0.012817531
0.012893786
0.012967453
0.013040249
0.013111941
0.013184329
0.013257268
0.013332315
0.013409464
0.013490061
0.01357379
0.013660399
0.013748091
0.013839548
0.013932759
0.014026756
0.014118034
0.014202755
0.014274118
0.01432357
0.014334858
0.01429106
0.014167377
0.013951136
0.01363857
0.013282584
0.013002718
0.011981048
0.0045425847
0.0033986393
0.0033178391
0.0043200784
0.0061870392
0.006970362
0.010512909
0.015202471
0.021590663
0.029870327
0.03297692
0.032938801
0.032928064
0.032914709
0.032917266
0.032943026
0.032997253
0.025694159
0.018847226
0.013663413
0.0098667104
0.0070040918
0.0046360492
0.0036809089
0.0039475491
0.0054118732
0.010168214
0.013370286
0.013164136
0.013044831
0.012990164
0.012974014
0.012998347
0.013038988
0.013078703
0.013126747
0.013162456
0.0132008
0.013224784
0.013251074
0.013264151
0.013280293
0.013284113
0.013292147
0.013288341
0.013289947
0.013280128
0.01327643
0.013261304
0.013253717
0.013234195
0.013222347
0.013197168
0.013180575
0.013149333
0.013127091
0.013088692
0.013059441
0.013911514
0.013847866
0.013920067
0.013855414
0.013925942
0.013859861
0.013930294
0.013862007
0.013934461
0.01386293
0.013939509
0.013863636
0.013947146
0.013865416
0.013959182
0.013870532
0.013979452
0.013884578
0.014016393
0.01391891
0.014085532
0.013994795
0.01421323
0.014147889
0.01444076
0.014424029
0.014822393
0.01488915
0.015422941
0.013296971
0.0086900815
0.0062760949
0.005005974
0.0049385504
0.0055197412
0.0068612979
0.0088432605
0.010950089
0.013768242
0.0179303
0.023748751
0.031165002
0.032950169
0.03291171
0.032898923
0.032903938
0.032895161
0.032883757
0.032885175
0.032906243
0.032951434
0.029999994
0.023769743
0.018831041
0.015504133
0.013761571
0.013652027
0.0084031987
0.0098728407
0.013836474
0.018829486
0.017565238
0.016661806
0.016008675
0.015542278
0.015216749
0.014989148
0.014830289
0.014721548
0.01464914
0.014603187
0.014576734
0.014564634
0.014562982
0.017841138
0.017982337
0.018159953
0.018381533
0.018655469
0.01899186
0.019403669
0.019905284
0.020514085
0.021250786
0.022126542
0.02318973
0.02451683
0.022461896
0.017703936
0.01503542
0.020485879
0.018827592
0.019380893
0.021818139
0.025737928
0.030898338
0.032941753
0.032895544
0.032870189
0.032864053
0.032871562
0.032888043
0.032882322
0.032861981
0.032847857
0.032842857
0.032850871
0.03287581
0.032918338
0.032972461
0.029832945
0.027260374
0.02652907
0.028223802
0.032437106
0.024300062
0.029849197
0.030334926
0.029463299
0.028578936
0.027725679
0.026917213
0.026167421
0.025488916
0.024884308
0.024351579
0.023886518
0.023484253
0.023140295
0.022850078
0.028079249
0.02838346
0.028719437
0.029084668
0.029476046
0.029888872
0.03031697
0.0307517
0.031181305
0.03159046
0.031975156
0.032315282
0.032592006
0.032807874
0.033029311
0.033043517
0.033033875
0.033006132
0.032966149
0.032921249
0.03287891
0.032845346
0.032825255
0.032818554
0.032822946
0.032835719
0.032854572
0.032877766
0.032874179
0.032848917
0.032826754
0.032808722
0.032796113
0.032790428
0.032793119
0.032805013
0.032825206
0.032850883
0.03287759
0.032900442
0.032915657
0.032921509
0.032918106
0.032991076
0.032929841
0.032846321
0.032742541
0.032621338
0.03248283
0.03232738
0.032158227
0.031978737
0.031792239
0.031601896
0.031410653
0.031221196
0.032294807
0.032379789
0.032460755
0.032536868
0.032607333
0.032671467
0.03272872
0.032778698
0.032821182
0.032856795
0.032885233
0.032905861
0.032772737
0.03278066
0.032784633
0.032784464
0.032780253
0.03277293
0.03276473
0.032758356
0.032756004
0.032758888
0.03276728
0.032780784
0.032798694
0.032820234
0.032844681
0.032871415
0.032869354
0.032841594
0.032815598
0.03279175
0.03277046
0.032752122
0.032737032
0.032725275
0.032716577
0.032710211
0.032705025
0.032699621
0.032692782
0.032683909
0.03267287
0.032659796
0.03264495
0.032761213
0.032746492
0.032728966
0.032708964
0.032686567
0.032661749
0.032634493
0.032604792
0.03257266
0.032538145
0.032501327
0.032451612
0.032473257
0.032494356
0.032514963
0.032535122
0.032554853
0.032574148
0.032592977
0.032611234
0.032628657