/*--------------------------------*- C++ -*----------------------------------*\
| =========                 |                                                 |
| \\      /  F ield         | OpenFOAM: The Open Source CFD Toolbox           |
|  \\    /   O peration     | Version:  v2012                                 |
|   \\  /    A nd           | Website:  www.openfoam.com                      |
|    \\/     M anipulation  |                                                 |
\*---------------------------------------------------------------------------*/
FoamFile
{
    version     2.0;
    format      ascii;
    class       volVectorField;
    location    "200";
    object      U;
}
// * * * * * * * * * * * * * * * * * * * * * * * * * * * * * * * * * * * * * //

dimensions      [0 1 -1 0 0 0 0];


internalField   nonuniform List<vector> 
48533
(
(5.1665271 -0.00039493552 0.012621899)
(5.1747771 -0.00028629565 0.011240837)
(5.182241 -0.00016246697 0.0096566305)
(5.1888012 -2.3314067e-05 0.0078668024)
(5.1943361 0.00012931938 0.0058691052)
(5.1987272 0.00029218255 0.0036652115)
(5.2018547 0.00046554133 0.001260421)
(5.2035718 0.0006495894 -0.0013221381)
(5.203728 0.0008382934 -0.0040163428)
(5.2022748 0.0010369665 -0.0069435175)
(5.1990682 0.0012461619 -0.010028906)
(5.1940562 0.0014566671 -0.013123506)
(5.1872025 0.0016635211 -0.016135183)
(5.1785926 0.0018590046 -0.018928302)
(5.1683781 0.002035357 -0.021364224)
(5.156832 0.0021841364 -0.023295571)
(5.1443383 0.0022959247 -0.02459972)
(5.131304 0.0023648794 -0.025211738)
(5.1182534 0.0023882985 -0.025154387)
(5.1055136 0.0023695026 -0.02452612)
(5.0934108 0.0023128623 -0.023441718)
(5.0821488 0.0022251415 -0.022030271)
(5.0718494 0.0021138693 -0.020416482)
(5.0625578 0.001986205 -0.018706695)
(5.0542635 0.0018485933 -0.016984542)
(5.0469173 0.001706506 -0.015310906)
(5.0404466 0.0015642375 -0.013726077)
(5.6817292 -0.24922642 0.10004895)
(5.6824758 -0.24692618 0.10115564)
(5.6823496 -0.24512586 0.10218836)
(5.6834483 -0.24231081 0.10348943)
(5.68443 -0.23979828 0.10377081)
(5.6850634 -0.23889261 0.10495344)
(5.6930825 -0.23424696 0.10812544)
(5.702764 -0.2216025 0.10888129)
(5.7067765 -0.21386471 0.1100813)
(5.7075021 -0.21086158 0.11114614)
(5.7094068 -0.20743215 0.11236905)
(5.7113332 -0.20448196 0.11353223)
(5.7137477 -0.20153941 0.11518494)
(5.716441 -0.19793308 0.1168862)
(5.7185015 -0.19361432 0.11840521)
(5.7199148 -0.19061327 0.11966939)
(5.7280849 -0.18316782 0.12192914)
(5.7354454 -0.16829763 0.1239068)
(5.7382023 -0.15857778 0.12511404)
(5.7379929 -0.15598896 0.12612886)
(5.741522 -0.15134751 0.12740479)
(5.7441329 -0.14768362 0.12905029)
(5.7532349 -0.13984731 0.13240504)
(5.7631182 -0.1228605 0.13314693)
(5.7667122 -0.1124591 0.13467756)
(5.7674591 -0.10923678 0.13607426)
(5.7708415 -0.10436673 0.13781306)
(5.7732921 -0.099816143 0.14033503)
(5.7818088 -0.08941638 0.14370356)
(5.7909629 -0.073339441 0.14441542)
(5.7945649 -0.060981095 0.14543888)
(5.7949985 -0.056024482 0.14660872)
(5.8016209 -0.046214107 0.14928146)
(5.8113479 -0.031107914 0.15001551)
(5.8155535 -0.019197349 0.15075704)
(5.8163484 -0.012268931 0.15171472)
(5.8225638 0.0018003431 0.15404287)
(5.828047 0.017912081 0.15663429)
(5.8309761 0.026765188 0.15707728)
(5.8348947 0.034414065 0.15716291)
(5.844927 0.061270507 0.16019942)
(5.8493286 0.086266384 0.16175798)
(5.8548506 0.10746769 0.16183257)
(5.8606279 0.13328925 0.16183516)
(5.8686441 0.15220298 0.16667571)
(5.8682776 0.17512058 0.16787235)
(5.8709262 0.19178859 0.16721996)
(5.8769783 0.22505137 0.16634544)
(5.8797307 0.25754506 0.16953171)
(5.8841611 0.28853184 0.16766106)
(5.8860952 0.32706226 0.17345154)
(5.8846359 0.36030057 0.17026712)
(5.8879141 0.39288748 0.16990842)
(5.8918744 0.43634681 0.17096423)
(5.8896927 0.48267107 0.17189783)
(5.8848866 0.52578175 0.16926505)
(5.8820782 0.56896619 0.16947205)
(5.8763227 0.61906233 0.16598861)
(5.8707448 0.66642802 0.16264971)
(5.8626132 0.72750542 0.16259639)
(5.855886 0.77597163 0.15927996)
(5.8311842 0.81887513 0.15846923)
(5.822046 0.84439063 0.14693861)
(5.8223004 0.88874904 0.14320704)
(5.8109734 0.93501196 0.14305728)
(5.793813 0.98026301 0.14148281)
(5.7945904 1.008195 0.12905051)
(5.7636744 1.0668456 0.12041844)
(5.7267326 1.1473483 0.10526405)
(5.68309 1.2242902 0.092479677)
(5.6653023 1.2903619 0.083886144)
(5.6113798 1.3916254 0.062189702)
(5.5478419 1.4972895 0.043161286)
(5.4714814 1.6223783 0.010934285)
(5.4119988 1.724953 -0.022440088)
(5.2831815 1.8699341 -0.059229895)
(5.162805 1.9983042 -0.10258467)
(4.9746318 2.163477 -0.16897118)
(4.829215 2.2979076 -0.24524604)
(4.4482564 2.5625182 -0.35991521)
(4.0764493 2.6441739 -0.47176746)
(3.736552 2.5862636 -0.65377333)
(2.9781314 2.538806 -0.84983644)
(2.5535621 1.9589543 -1.122146)
(1.5819911 0.89343474 -1.439094)
(2.0977899 0.16242796 -1.2574805)
(2.739174 0.22295678 -1.0112367)
(3.2280319 0.21035806 -0.80664159)
(3.3068684 0.16219262 -0.79911774)
(3.4246463 0.13966973 -0.71322964)
(3.310383 0.17674455 -0.75674084)
(2.9911828 0.18136623 -0.92216946)
(2.8839882 0.18964728 -0.94281378)
(2.2312202 0.10456377 -1.154505)
(1.7604377 0.64627196 -1.3820254)
(2.0998817 1.6154655 -1.2209958)
(2.5381191 2.1968695 -0.88512869)
(2.6127575 2.1896312 -1.0920807)
(3.1742678 2.5892155 -0.8463548)
(3.7524561 2.6206164 -0.51689007)
(3.9749765 2.6088068 -0.57409029)
(4.3339457 2.5843046 -0.41014501)
(4.7381021 2.3381226 -0.26093444)
(4.8808855 2.2215534 -0.19113333)
(5.088049 2.0720078 -0.12376881)
(5.248731 1.9203496 -0.068339015)
(5.3840359 1.7619115 -0.025301257)
(5.445828 1.6593453 0.009064554)
(5.5331996 1.5358335 0.04209512)
(5.5931948 1.420892 0.059944033)
(5.6392275 1.3261258 0.078313768)
(5.6687135 1.2608894 0.095367847)
(5.6867084 1.2530008 0.092639001)
(5.7164782 1.1749659 0.10808857)
(5.7538401 1.0892477 0.11989907)
(5.781306 1.012282 0.13455268)
(5.8101291 0.93825968 0.1371005)
(5.8191876 0.86257962 0.14808872)
(5.8284828 0.83759869 0.1551611)
(5.8567813 0.78852752 0.1593041)
(5.8632444 0.74242004 0.16376064)
(5.8707394 0.67917656 0.16564534)
(5.8741929 0.63587389 0.16815118)
(5.8821905 0.58647677 0.17070301)
(5.8851193 0.53769252 0.17062672)
(5.8887805 0.49775193 0.17199174)
(5.893408 0.45162342 0.17388218)
(5.8899217 0.40249012 0.17342976)
(5.8835886 0.36790135 0.17242617)
(5.8871974 0.34171969 0.17253825)
(5.8860204 0.29500887 0.17042871)
(5.8804738 0.26967372 0.17093886)
(5.8786252 0.2330894 0.16873046)
(5.8724635 0.20259402 0.16975978)
(5.8685324 0.17699237 0.16459789)
(5.8653018 0.14953385 0.16462366)
(5.8631682 0.138476 0.16545415)
(5.8613731 0.13259815 0.16537097)
(5.8557312 0.10981124 0.16180833)
(5.8497305 0.091009409 0.16062006)
(5.8465516 0.06869612 0.16053916)
(5.8373125 0.039338643 0.15992917)
(5.8282844 0.018873973 0.15607723)
(5.8231452 -0.0018428259 0.15194953)
(5.8130719 -0.027638747 0.15252445)
(5.8119801 -0.032536114 0.15047581)
(5.8114349 -0.038157011 0.14876842)
(5.801622 -0.052647258 0.14852681)
(5.792636 -0.072563961 0.14680461)
(5.7912741 -0.076917885 0.14599601)
(5.7906137 -0.082523102 0.14355724)
(5.7804947 -0.097141463 0.14278485)
(5.7702413 -0.11591074 0.14087624)
(5.7676414 -0.11980777 0.13931951)
(5.7640882 -0.12613649 0.1365306)
(5.7614338 -0.13087287 0.13466723)
(5.7626325 -0.13262054 0.13213764)
(5.7508688 -0.14863358 0.13232452)
(5.7419077 -0.16211972 0.13015834)
(5.7400855 -0.16492881 0.12829284)
(5.7371796 -0.16837091 0.12520871)
(5.7351373 -0.16987338 0.12463841)
(5.7358621 -0.17349302 0.1241056)
(5.72648 -0.19300714 0.12161527)
(5.7124927 -0.20709551 0.12051223)
(5.711876 -0.20945054 0.11988532)
(5.7078981 -0.21578602 0.11713894)
(5.7042842 -0.21946253 0.11434676)
(5.7019096 -0.22096638 0.11277433)
(5.7005983 -0.22242411 0.11143468)
(5.7005948 -0.22444526 0.11060938)
(5.7004029 -0.22651992 0.10971783)
(5.7016981 -0.22770614 0.10905218)
(5.690484 -0.24230078 0.10875627)
(5.6811081 -0.25161814 0.10686264)
(5.6802532 -0.25228639 0.10470794)
(5.6790912 -0.25353054 0.10248092)
(5.6782885 -0.25465249 0.10241441)
(5.6765137 -0.25876931 0.10236615)
(5.6749555 -0.26449197 0.10090561)
(5.6736714 -0.26843668 0.098747391)
(5.0558946 0.0011875513 -0.0012789978)
(5.0620762 0.0012662912 -0.0013120459)
(5.0685266 0.0013407494 -0.0013350773)
(5.0752077 0.0014089284 -0.0013464283)
(5.0820714 0.0014687375 -0.0013444082)
(5.0890618 0.0015180005 -0.0013273419)
(5.0961085 0.0015545873 -0.0012935746)
(5.1031448 0.0015763382 -0.0012412734)
(5.1100721 0.0015814303 -0.0011695842)
(5.1168095 0.0015687799 -0.0010779462)
(5.1232596 0.0015375329 -0.00096590222)
(5.129326 0.0014874983 -0.00083377864)
(5.1349149 0.001419058 -0.00068241469)
(5.139935 0.0013332506 -0.00051334323)
(5.1443055 0.0012315433 -0.00032843841)
(5.1479498 0.0011161589 -0.00013044583)
(5.1508133 0.00098886823 7.8807189e-05)
(5.1528331 0.00085209639 0.00029676371)
(5.1539848 0.00069599958 0.0005391443)
(5.1541621 0.00057151791 0.00072900622)
(5.1536477 0.00043278947 0.00093967383)
(5.1522424 0.00029368234 0.001147023)
(5.1500024 0.00015846383 0.0013468052)
(5.1469817 3.0797526e-05 0.0015342456)
(5.1432249 -8.7762959e-05 0.0017071607)
(5.1387918 -0.00019590579 0.0018640744)
(5.1337506 -0.00029246094 0.0020036712)
(5.1982394 -0.005354859 0.040667311)
(5.1963973 -0.0053200465 0.042316025)
(5.1944711 -0.0052854356 0.043960578)
(5.1924569 -0.0052499188 0.045610236)
(5.1903499 -0.0052118063 0.047271605)
(5.188145 -0.0051688017 0.048947074)
(5.1858367 -0.005117871 0.050632574)
(5.1834202 -0.0050552901 0.05231655)
(5.1808907 -0.0049766488 0.053976897)
(5.1782454 -0.0048771676 0.055580909)
(5.1754831 -0.0047518059 0.057082116)
(5.1726053 -0.0045958726 0.058422417)
(5.1696166 -0.0044057986 0.059530954)
(5.1665254 -0.0041797336 0.06033027)
(5.1633444 -0.0039184635 0.060739333)
(5.1600904 -0.0036258744 0.06068318)
(5.1567847 -0.0033090166 0.060099609)
(5.1534522 -0.002977496 0.058948126)
(5.1486488 -0.0015815211 0.047002566)
(5.1521461 -0.0018585009 0.050294485)
(5.1557548 -0.0021593114 0.053136158)
(5.1594346 -0.0024776162 0.055474697)
(5.1631449 -0.0028044099 0.057272855)
(5.1668481 -0.0031291146 0.058513939)
(5.1705104 -0.0034406469 0.059209736)
(5.1741028 -0.0037295873 0.059396412)
(5.1776011 -0.0039889698 0.059131756)
(5.180987 -0.0042149614 0.058486207)
(5.1842471 -0.0044067098 0.0575361)
(5.1873733 -0.0045658993 0.056354901)
(5.1903619 -0.0046960138 0.055009847)
(5.1932126 -0.0048014865 0.053555917)
(5.1959283 -0.0048871359 0.052037235)
(5.1985136 -0.0049575268 0.050484827)
(5.200975 -0.0050168265 0.048919627)
(5.2033188 -0.0050685954 0.047352616)
(5.2055522 -0.0051156924 0.045787588)
(5.2076815 -0.0051603016 0.044222146)
(5.2097125 -0.0052039935 0.042649939)
(5.2116502 -0.0052478222 0.041062048)
(5.213499 -0.0052923888 0.039448116)
(5.2152619 -0.0053379877 0.037797286)
(5.2302967 -0.0052417299 0.036525309)
(5.2285307 -0.0051860785 0.038187718)
(5.2266738 -0.0051312384 0.039791951)
(5.2247233 -0.0050771895 0.041348125)
(5.2226753 -0.0050236757 0.042866446)
(5.2205252 -0.0049701957 0.044356745)
(5.2182668 -0.0049157901 0.045827427)
(5.2158934 -0.0048590093 0.047284552)
(5.2133976 -0.0047978156 0.0487302)
(5.2107711 -0.0047295197 0.050160783)
(5.2080057 -0.0046507799 0.051565661)
(5.2050936 -0.0045577369 0.052925143)
(5.2020284 -0.004446099 0.054209705)
(5.1988056 -0.0043113441 0.055378064)
(5.195424 -0.0041493439 0.056378279)
(5.1918866 -0.0039568795 0.057147508)
(5.1882011 -0.0037324724 0.057617251)
(5.1843813 -0.0034770531 0.057716459)
(5.1804472 -0.0031944815 0.057380544)
(5.1764257 -0.0028915902 0.056557329)
(5.1723499 -0.0025775876 0.055215855)
(5.1682589 -0.0022632178 0.053349029)
(5.1641962 -0.0019586855 0.050976749)
(5.1602083 -0.0016724991 0.048138684)
(5.156342 -0.0014104249 0.044888505)
(5.1526417 -0.0011754489 0.041283529)
(5.1491492 -0.00096808073 0.03737733)
(5.1459042 -0.00078733035 0.033215084)
(5.142949 -0.00063225636 0.028836289)
(5.1403347 -0.00050379847 0.024286543)
(5.1381204 -0.00040518589 0.019633771)
(5.1363557 -0.00033904912 0.014979178)
(5.1350586 -0.0003038389 0.010438266)
(5.1342051 -0.00029277293 0.0061109234)
(5.1392862 -0.00019535117 0.0056866858)
(5.14021 -0.0002029018 0.0097204304)
(5.1416173 -0.0002316254 0.013962701)
(5.1435363 -0.00028908436 0.018324112)
(5.1459485 -0.00037730703 0.022700848)
(5.1487994 -0.00049347802 0.02700105)
(5.1520246 -0.0006341455 0.031162925)
(5.1555685 -0.00079847494 0.035144731)
(5.1593847 -0.00098780548 0.038909775)
(5.1634295 -0.0012036634 0.042415313)
(5.1676565 -0.0014461818 0.045609445)
(5.1720157 -0.0017130296 0.048435788)
(5.1764547 -0.0019991073 0.05083975)
(5.1809207 -0.0022965936 0.052779491)
(5.1853645 -0.0025958803 0.05423098)
(5.189742 -0.0028866924 0.055195853)
(5.194016 -0.0031601504 0.055698622)
(5.1981572 -0.0034095114 0.055784688)
(5.2021438 -0.0036308888 0.055511598)
(5.2059618 -0.0038231709 0.054944122)
(5.2096036 -0.003987533 0.054145106)
(5.2130674 -0.0041268521 0.053172686)
(5.2163557 -0.0042448634 0.05207523)
(5.2194743 -0.0043456908 0.050891279)
(5.2224312 -0.0044333348 0.049648666)
(5.2252358 -0.0045112696 0.048366005)
(5.2278975 -0.0045825414 0.047053711)
(5.2304256 -0.0046496919 0.045715466)
(5.2328286 -0.0047145694 0.044349506)
(5.2351138 -0.0047785082 0.04295039)
(5.2372881 -0.0048423408 0.041510265)
(5.2393566 -0.0049065069 0.040020029)
(5.2413235 -0.0049711711 0.038470219)
(5.2431919 -0.0050363159 0.036851511)
(5.2554561 -0.0047682906 0.037061315)
(5.253468 -0.0046931502 0.038628396)
(5.2513736 -0.0046181753 0.040115844)
(5.2491697 -0.0045433798 0.041532031)
(5.2468519 -0.0044686701 0.042885543)
(5.2444145 -0.0043937134 0.044184631)
(5.2418506 -0.004317806 0.045436518)
(5.239152 -0.004239715 0.046645861)
(5.23631 -0.0041577833 0.047813899)
(5.2333141 -0.0040696734 0.0489367)
(5.2301541 -0.0039726777 0.050003885)
(5.2268193 -0.0038636821 0.050997815)
(5.2233003 -0.0037391062 0.051892251)
(5.2195901 -0.0035952968 0.052651632)
(5.2156851 -0.0034289988 0.053231182)
(5.2115862 -0.0032377826 0.053578108)
(5.2073005 -0.0030208758 0.053635716)
(5.2028426 -0.0027796158 0.053346722)
(5.1982354 -0.0025180241 0.052661225)
(5.1935111 -0.0022427115 0.051542204)
(5.1887102 -0.0019621771 0.049972498)
(5.1838818 -0.0016860491 0.047957067)
(5.1790807 -0.0014231555 0.045524369)
(5.1743653 -0.0011804595 0.04271888)
(5.1697936 -0.00096216365 0.039595646)
(5.1654208 -0.0007698501 0.036209705)
(5.1612972 -0.00060264702 0.032610759)
(5.1574703 -0.00045843038 0.0288385)
(5.15399 -0.00033541414 0.024926237)
(5.1509163 -0.000234272 0.020911177)
(5.1483182 -0.00015859727 0.016848102)
(5.1462546 -0.00011133666 0.012818484)
(5.1447448 -8.9993337e-05 0.00891315)
(5.143756 -8.6294445e-05 0.0052098443)
(5.1475455 3.3230999e-05 0.0046845118)
(5.1485927 3.3686376e-05 0.0080233109)
(5.1501951 2.0542864e-05 0.011556212)
(5.15239 -1.5077314e-05 0.015218176)
(5.1551575 -7.6116121e-05 0.018932362)
(5.158435 -0.0001595584 0.022628762)
(5.162149 -0.00026175773 0.026260309)
(5.1662362 -0.00038225835 0.029795004)
(5.1706435 -0.00052334084 0.033203445)
(5.1753203 -0.00068779974 0.036449627)
(5.1802127 -0.0008772698 0.03948664)
(5.1852611 -0.0010910988 0.042261281)
(5.1904025 -0.0013261383 0.044718229)
(5.1955732 -0.0015764741 0.046810399)
(5.2007135 -0.0018342873 0.048504328)
(5.2057698 -0.0020907342 0.049787687)
(5.210698 -0.0023377564 0.050669009)
(5.2154639 -0.0025688793 0.051176034)
(5.2200431 -0.0027799038 0.051349725)
(5.2244208 -0.0029691752 0.051239302)
(5.22859 -0.0031369725 0.050894583)
(5.2325507 -0.0032851308 0.050362792)
(5.2363073 -0.0034163742 0.049684803)
(5.2398678 -0.0035338073 0.048893263)
(5.2432426 -0.0036405297 0.048012757)
(5.2464434 -0.0037392024 0.047060088)
(5.2494809 -0.00383221 0.046045866)
(5.2523662 -0.0039216586 0.04497438)
(5.2551085 -0.0040090202 0.043845167)
(5.2577161 -0.0040953826 0.042654408)
(5.260196 -0.0041813839 0.041395736)
(5.2625541 -0.0042672053 0.040061655)
(5.2647946 -0.0043528561 0.038644775)
(5.272731 -0.0038554577 0.039838677)
(5.2701992 -0.0037583997 0.041082667)
(5.2675378 -0.003660918 0.04223864)
(5.2647412 -0.0035629537 0.043313369)
(5.2618023 -0.003463939 0.044312191)
(5.2587131 -0.0033629275 0.045238051)
(5.2554644 -0.003258676 0.046090427)
(5.2520449 -0.0031492532 0.046864668)
(5.2484436 -0.0030326092 0.047549365)
(5.2446483 -0.0029066594 0.048128739)
(5.2406478 -0.0027688147 0.048579772)
(5.2364337 -0.0026165573 0.048872724)
(5.232001 -0.0024477981 0.048970674)
(5.2273493 -0.0022613887 0.048832376)
(5.2224855 -0.002057662 0.048415167)
(5.2174248 -0.0018386552 0.047678934)
(5.2121926 -0.0016087978 0.046592022)
(5.2068255 -0.0013744657 0.04513743)
(5.2013705 -0.0011432108 0.043316021)
(5.1958849 -0.00092292114 0.041148407)
(5.1904331 -0.00072021624 0.038673284)
(5.185083 -0.00053975215 0.035940596)
(5.1799019 -0.00038345602 0.033005374)
(5.174953 -0.00025095547 0.02991877)
(5.1702932 -0.00013974904 0.026724085)
(5.1659756 -4.6364452e-05 0.023453237)
(5.1620553 3.2027052e-05 0.020131161)
(5.1585989 9.5247076e-05 0.016784041)
(5.1556832 0.00013968421 0.013450532)
(5.1533739 0.00016235096 0.010188398)
(5.1516915 0.00016660836 0.0070595282)
(5.1505943 0.00016182257 0.0041156207)
(5.1528559 0.00029785346 0.003510342)
(5.1539913 0.00030701523 0.0060338354)
(5.1557374 0.00031216525 0.0087315525)
(5.1581398 0.000303567 0.011566118)
(5.1611777 0.00027745034 0.014491197)
(5.1647826 0.00023671333 0.017462085)
(5.168875 0.00018482158 0.020449007)
(5.1733864 0.0001215972 0.023432057)
(5.1782601 4.3662131e-05 0.026391285)
(5.1834413 -5.3181682e-05 0.029299316)
(5.188871 -0.00017234238 0.032116916)
(5.1944834 -0.00031534084 0.034795568)
(5.200208 -0.00048159705 0.037280682)
(5.2059735 -0.00066791205 0.039519683)
(5.2117118 -0.00086903615 0.041468185)
(5.2173627 -0.0010781695 0.043096843)
(5.2228762 -0.0012883614 0.044394545)
(5.2282143 -0.0014932927 0.045366658)
(5.2333502 -0.001688278 0.046034905)
(5.2382682 -0.0018707973 0.04642981)
(5.2429614 -0.0020398417 0.046586317)
(5.2474301 -0.002195747 0.046539693)
(5.2516795 -0.002339897 0.04632271)
(5.2557183 -0.0024742017 0.045962365)
(5.2595574 -0.0026006656 0.045480071)
(5.2632095 -0.0027206944 0.044890487)
(5.2666853 -0.0028360695 0.044206215)
(5.2699959 -0.0029485156 0.043432429)
(5.2731501 -0.0030590786 0.042570695)
(5.2761554 -0.003168568 0.041619124)
(5.2790182 -0.0032775023 0.040573391)
(5.2817438 -0.003385736 0.039427246)
(5.2894397 -0.0028618291 0.038807382)
(5.2865001 -0.0027427799 0.039848163)
(5.2834162 -0.0026227003 0.040776366)
(5.2801831 -0.0025020885 0.041598421)
(5.2767955 -0.0023804047 0.042317467)
(5.2732468 -0.0022569763 0.042934276)
(5.2695288 -0.0021309856 0.043446018)
(5.2656315 -0.0020009262 0.043847414)
(5.2615442 -0.0018651041 0.044123635)
(5.2572549 -0.0017230362 0.044261755)
(5.2527531 -0.0015732209 0.044241637)
(5.2480306 -0.0014144399 0.044038877)
(5.2430825 -0.0012460855 0.043624981)
(5.2379089 -0.0010686478 0.042970731)
(5.2325172 -0.00088393729 0.04204913)
(5.226924 -0.00069507294 0.040839871)
(5.2211566 -0.00050694444 0.039331372)
(5.2152544 -0.00032586821 0.0375309)
(5.2092702 -0.00015808323 0.035459963)
(5.2032665 -9.2157817e-06 0.033157114)
(5.197314 0.0001170171 0.030672439)
(5.1914861 0.0002190192 0.028061174)
(5.1858552 0.00029768513 0.025377001)
(5.1804888 0.00035575669 0.022665539)
(5.1754468 0.00039758209 0.01996141)
(5.1707846 0.00042810056 0.017287171)
(5.1665596 0.00045123148 0.014657341)
(5.1628414 0.0004675854 0.012085443)
(5.1597109 0.00047395229 0.0095919148)
(5.1572383 0.00046756372 0.0072080381)
(5.1554445 0.00045241531 0.0049640911)
(5.1542798 0.00043828273 0.0028814174)
(5.1548151 0.00057898496 0.0022392606)
(5.1560049 0.00059896014 0.003869194)
(5.1578331 0.00062482202 0.0056455674)
(5.1603533 0.00064703993 0.007563077)
(5.1635452 0.00066160703 0.0096081994)
(5.1673386 0.00067112903 0.01176371)
(5.1716525 0.0006784794 0.014018832)
(5.1764175 0.00068259267 0.016366818)
(5.1815766 0.00067899623 0.018798682)
(5.1870748 0.00066201677 0.021297005)
(5.1928524 0.0006263769 0.023831971)
(5.1988419 0.00056805425 0.026361206)
(5.2049704 0.00048462133 0.028832102)
(5.2111635 0.00037596398 0.031187046)
(5.2173496 0.00024419996 0.033370221)
(5.2234646 9.3690579e-05 0.035334282)
(5.2294538 -6.9921048e-05 0.037046798)
(5.2352765 -0.00024051007 0.0384888)
(5.2409052 -0.00041327021 0.039659982)
(5.246322 -0.00058408972 0.040570556)
(5.2515185 -0.00075035547 0.041239305)
(5.2564935 -0.00091070255 0.041689325)
(5.261251 -0.0010649298 0.041944821)
(5.2657979 -0.0012136377 0.04202788)
(5.2701419 -0.0013577911 0.041957907)
(5.2742943 -0.0014967379 0.041745881)
(5.2782671 -0.0016323921 0.041408811)
(5.2820684 -0.0017658206 0.040952199)
(5.2857056 -0.0018977063 0.0403799)
(5.289184 -0.0020286142 0.03969242)
(5.2925075 -0.002159201 0.038887995)
(5.29568 -0.0022882714 0.037959396)
(5.3003481 -0.0016707899 0.036866973)
(5.2969267 -0.0015331267 0.037677388)
(5.2933457 -0.0013931753 0.038353466)
(5.2896031 -0.0012535644 0.038903821)
(5.2856987 -0.0011132621 0.039327849)
(5.2816286 -0.00097165628 0.039623661)
(5.2773874 -0.00082812851 0.039786857)
(5.2729692 -0.0006824811 0.039810046)
(5.2683605 -0.00053237596 0.039677979)
(5.2635512 -0.00037897471 0.03938067)
(5.2585373 -0.00022200022 0.038898592)
(5.253314 -6.1687147e-05 0.038210796)
(5.2478791 0.00010084716 0.037297177)
(5.2422351 0.00026338162 0.036140736)
(5.2363919 0.00042251794 0.03473089)
(5.2303684 0.00057279389 0.033067808)
(5.2241955 0.00070856686 0.031172176)
(5.2179152 0.00082589444 0.029063779)
(5.2115807 0.00091940189 0.026786621)
(5.205256 0.0009858747 0.024396889)
(5.1990119 0.0010247723 0.021956151)
(5.1929223 0.0010378783 0.019524626)
(5.1870592 0.0010291295 0.017153864)
(5.1814888 0.0010037862 0.014883155)
(5.1762697 0.0009680164 0.012737526)
(5.1714555 0.00092815975 0.010729431)
(5.1671021 0.00088918037 0.0088623296)
(5.1632787 0.00085258069 0.0071362458)
(5.1600669 0.00081580731 0.0055517612)
(5.1575397 0.00077635249 0.0041105437)
(5.1557226 0.00073813794 0.0028063547)
(5.1545726 0.00071003332 0.0016278161)
(5.1534249 0.00085958428 0.00092620525)
(5.1545562 0.00088705337 0.0016503629)
(5.1563492 0.00093248961 0.0024915058)
(5.1588545 0.00098639194 0.003469605)
(5.1620477 0.0010439593 0.0046042177)
(5.1658558 0.0011069408 0.0059076113)
(5.170198 0.0011771831 0.0073895517)
(5.1750069 0.0012525744 0.0090575352)
(5.1802283 0.0013275735 0.010914321)
(5.1858113 0.0013951939 0.012953389)
(5.1916996 0.001448328 0.015155223)
(5.1978298 0.0014804361 0.017484803)
(5.2041322 0.0014859803 0.01989255)
(5.2105351 0.0014613364 0.02231699)
(5.2169686 0.0014052162 0.024691355)
(5.2233692 0.0013193123 0.026949574)
(5.2296834 0.0012078678 0.029035739)
(5.2358675 0.0010767911 0.030906053)
(5.2418891 0.00093205334 0.032537016)
(5.2477274 0.00077903179 0.033919422)
(5.2533709 0.0006221921 0.03505548)
(5.2588157 0.00046491599 0.035955962)
(5.2640636 0.00030973512 0.036636737)
(5.2691212 0.0001583704 0.037118285)
(5.273997 1.1049093e-05 0.037422452)
(5.2786946 -0.00013890693 0.037583601)
(5.2832175 -0.00028814445 0.037588521)
(5.2875712 -0.00043591177 0.037448838)
(5.2917593 -0.00058263367 0.037169304)
(5.2957834 -0.00072884043 0.036754372)
(5.2996391 -0.00087535712 0.036207776)
(5.3033264 -0.0010186136 0.03552212)
(5.3044929 -0.00034366598 0.033935276)
(5.3005207 -0.00020097003 0.034498043)
(5.2963911 -6.3386024e-05 0.034948258)
(5.292107 7.9713019e-05 0.035255823)
(5.2876637 0.00022688992 0.035415511)
(5.2830561 0.00037736577 0.035419419)
(5.2782793 0.00053052113 0.035260774)
(5.2733276 0.00068613015 0.034929841)
(5.268199 0.00084461663 0.034410591)
(5.2628926 0.0010040473 0.033695358)
(5.2574043 0.001162924 0.03277245)
(5.2517331 0.0013192937 0.031628869)
(5.2458818 0.0014703271 0.03025353)
(5.2398582 0.0016121706 0.028641303)
(5.233677 0.0017398771 0.026797105)
(5.2273618 0.0018475605 0.024739055)
(5.2209457 0.0019292092 0.022501723)
(5.2144717 0.0019797456 0.020135598)
(5.2079933 0.0019958162 0.017705308)
(5.201572 0.001977058 0.015283236)
(5.1952745 0.001926366 0.012940277)
(5.1891689 0.0018489722 0.010738575)
(5.1833204 0.0017518153 0.0087259209)
(5.1777887 0.001642536 0.0069333858)
(5.1726258 0.0015290059 0.0053757076)
(5.1678792 0.0014187655 0.0040543178)
(5.1636 0.0013178097 0.0029612558)
(5.159853 0.0012288386 0.0020829907)
(5.1567161 0.0011506964 0.0014011972)
(5.1542592 0.0010822199 0.00089189733)
(5.1525032 0.0010283287 0.00052269467)
(5.151394 0.00099758096 0.0002616611)
(5.1485136 0.0011254945 -0.00037599898)
(5.1495893 0.0011595162 -0.00056323756)
(5.1512922 0.0012215961 -0.00065611509)
(5.1536758 0.0013039463 -0.00060768505)
(5.1567221 0.0014016586 -0.00037172545)
(5.1603652 0.0015153484 8.709981e-05)
(5.1645312 0.0016454349 0.00079473926)
(5.1691598 0.0017886555 0.0017699968)
(5.1742041 0.0019386092 0.0030252198)
(5.1796211 0.0020873494 0.0045635004)
(5.1853636 0.0022263612 0.0063745327)
(5.1913779 0.0023470571 0.0084309687)
(5.197604 0.002441283 0.010687041)
(5.2039793 0.0025023828 0.013080289)
(5.2104415 0.0025260197 0.015536518)
(5.216932 0.0025113253 0.01797723)
(5.2233991 0.0024607962 0.020329581)
(5.2297994 0.0023793169 0.02253334)
(5.2360985 0.0022730365 0.024544699)
(5.242271 0.0021482278 0.026337124)
(5.2482997 0.0020104337 0.027898772)
(5.2541742 0.0018641509 0.029229617)
(5.2598886 0.0017127835 0.030337504)
(5.2654406 0.001558657 0.031234873)
(5.2708301 0.0014032 0.031935519)
(5.2760578 0.001246917 0.032454161)
(5.2811235 0.0010901273 0.032803079)
(5.2860267 0.00093301766 0.03299259)
(5.2907662 0.00077573044 0.033029438)
(5.2953406 0.00061856119 0.03291712)
(5.2997489 0.00046204675 0.032654447)
(5.3039835 0.00030821311 0.03223266)
(5.3015963 0.0010359716 0.029991756)
(5.2970683 0.0011890729 0.030264912)
(5.2923709 0.0013413992 0.030390474)
(5.2875092 0.0014933411 0.030367086)
(5.2824882 0.0016448813 0.030192255)
(5.2773112 0.0017960133 0.029860101)
(5.2719808 0.0019466377 0.029362606)
(5.2664994 0.0020964863 0.028689082)
(5.2608699 0.0022448921 0.02782735)
(5.2550956 0.0023905967 0.026764727)
(5.2491806 0.0025316644 0.025489082)
(5.2431313 0.0026652009 0.023991137)
(5.2369573 0.0027872252 0.02226715)
(5.230673 0.0028926752 0.020322714)
(5.2242985 0.0029755538 0.018176296)
(5.2178615 0.0030293846 0.015862075)
(5.2113971 0.0030481105 0.013431758)
(5.2049482 0.0030273105 0.01095295)
(5.1985639 0.0029653348 0.0085049863)
(5.1922986 0.0028641732 0.0061704945)
(5.1862089 0.0027293871 0.0040257604)
(5.180351 0.0025687907 0.0021327635)
(5.1747778 0.0023915047 0.00053511153)
(5.1695365 0.0022068394 -0.00074334395)
(5.1646681 0.0020237885 -0.0016961149)
(5.1602101 0.0018505749 -0.00233012)
(5.1562045 0.0016939083 -0.0026613661)
(5.1527065 0.0015576027 -0.0027132662)
(5.1497846 0.0014420077 -0.0025189557)
(5.1475001 0.0013471123 -0.0021249947)
(5.1458694 0.0012778271 -0.0015914845)
(5.1448413 0.0012411719 -0.00097930602)
(5.1404366 0.0013427238 -0.0015420963)
(5.1414056 0.0013811261 -0.0025502506)
(5.1429468 0.0014562262 -0.0034955352)
(5.1451087 0.0015617764 -0.0043048313)
(5.1478763 0.0016928586 -0.0049053238)
(5.1511931 0.0018488544 -0.0052399468)
(5.1549964 0.0020285932 -0.0052690794)
(5.1592368 0.0022277545 -0.004965374)
(5.1638782 0.0024394204 -0.004309875)
(5.1688891 0.0026552091 -0.0032925637)
(5.1742354 0.0028658676 -0.0019166823)
(5.1798775 0.0030616013 -0.00020292552)
(5.1857704 0.003232623 0.0018074109)
(5.1918654 0.0033702521 0.0040534464)
(5.1981126 0.0034679961 0.0064580809)
(5.2044627 0.0035229317 0.0089362335)
(5.2108696 0.0035358823 0.011403983)
(5.2172916 0.003510753 0.013787919)
(5.2236927 0.0034533592 0.016029697)
(5.2300434 0.0033702231 0.018088736)
(5.2363204 0.0032675461 0.019940692)
(5.2425059 0.003150741 0.021575102)
(5.2485867 0.0030241946 0.022991886)
(5.2545521 0.0028911687 0.024197764)
(5.2603946 0.0027539191 0.025203126)
(5.266108 0.0026139252 0.026020086)
(5.2716861 0.0024720832 0.026660439)
(5.277123 0.0023288742 0.027134492)
(5.2824123 0.0021845237 0.027450208)
(5.2875475 0.0020392239 0.027613244)
(5.2925207 0.0018930705 0.027626698)
(5.2973227 0.0017462522 0.02749122)
(5.2911957 0.0024347234 0.024723877)
(5.2861352 0.0025723582 0.024720744)
(5.2809084 0.0027083978 0.024572054)
(5.2755258 0.0028427724 0.024276368)
(5.2699978 0.0029753744 0.023830163)
(5.2643335 0.0031060351 0.02322739)
(5.2585418 0.0032344941 0.022459887)
(5.2526315 0.0033601507 0.021517652)
(5.2466123 0.0034819036 0.020389564)
(5.2404942 0.0035980571 0.019064872)
(5.2342887 0.0037061079 0.017535)
(5.2280103 0.0038025118 0.015796187)
(5.2216763 0.0038826797 0.013852069)
(5.2153081 0.0039410143 0.011717606)
(5.2089314 0.0039713022 0.009422124)
(5.2025777 0.003967219 0.0070115772)
(5.1962832 0.0039233469 0.0045489674)
(5.1900875 0.0038364028 0.0021117288)
(5.1840332 0.0037063045 -0.00021385311)
(5.1781638 0.0035367254 -0.0023417896)
(5.1725219 0.0033347744 -0.004195659)
(5.1671478 0.0031096463 -0.005716235)
(5.162078 0.0028714825 -0.0068647317)
(5.1573443 0.0026302887 -0.0076231117)
(5.1529733 0.002395368 -0.0079908136)
(5.14899 0.00217509 -0.0079800969)
(5.1454244 0.0019765037 -0.0076121399)
(5.1423198 0.0018043671 -0.0069174268)
(5.1397323 0.0016606642 -0.0059411878)
(5.1377134 0.0015466863 -0.0047497622)
(5.1362765 0.0014673414 -0.0034270802)
(5.1353766 0.0014280607 -0.0020566428)
(5.1297443 0.0014957048 -0.0025172382)
(5.1305681 0.0015349924 -0.0042121882)
(5.1318894 0.0016169286 -0.005873615)
(5.1337498 0.0017369179 -0.0074093158)
(5.1361374 0.0018900362 -0.0087260134)
(5.1390063 0.0020743194 -0.0097495421)
(5.1423068 0.0022870439 -0.010430135)
(5.1460022 0.0025230503 -0.010735079)
(5.1500689 0.0027752921 -0.010641835)
(5.1544884 0.0030355763 -0.010136586)
(5.1592415 0.0032947347 -0.0092180182)
(5.1643047 0.0035428398 -0.0079017658)
(5.1696502 0.0037697207 -0.0062241931)
(5.1752459 0.0039660103 -0.0042421259)
(5.181057 0.0041242873 -0.0020302429)
(5.1870461 0.0042403553 0.00032649454)
(5.193175 0.0043136421 0.0027411968)
(5.1994064 0.004346788 0.0051345751)
(5.2057044 0.0043446476 0.0074404237)
(5.2120364 0.0043131842 0.0096089152)
(5.2183742 0.0042583875 0.011606634)
(5.2246939 0.0041858212 0.013414795)