/*--------------------------------*- C++ -*----------------------------------*\
| =========                 |                                                 |
| \\      /  F ield         | OpenFOAM: The Open Source CFD Toolbox           |
|  \\    /   O peration     | Version:  v2012                                 |
|   \\  /    A nd           | Website:  www.openfoam.com                      |
|    \\/     M anipulation  |                                                 |
\*---------------------------------------------------------------------------*/
FoamFile
{
    version     2.0;
    format      ascii;
    class       volScalarField;
    location    "100";
    object      nut;
}
// * * * * * * * * * * * * * * * * * * * * * * * * * * * * * * * * * * * * * //

dimensions      [0 2 -1 0 0 0 0];


internalField   nonuniform List<scalar> 
229912
(
0.033516864
0.033516939
0.033533571
0.033533415
0.03353348
0.033533389
0.033533497
0.033533446
0.033533551
0.033533546
0.033533563
0.033533552
0.033533543
0.033533538
0.033533536
0.033533535
0.033533535
0.033533535
0.033533535
0.033533535
0.033533535
0.033533535
0.033533535
0.033533535
0.033533535
0.033533535
0.033533535
0.033533535
0.033533535
0.033533535
0.033533538
0.033533543
0.033533552
0.033533563
0.033533546
0.033533551
0.033533446
0.033533497
0.033533389
0.03353348
0.033533415
0.033533571
0.033533565
0.033533784
0.033533776
0.033533903
0.033533884
0.033533888
0.033533863
0.033533847
0.033533837
0.033533834
0.033533833
0.033533833
0.033533833
0.033533834
0.033533834
0.033533835
0.033533835
0.033533836
0.033533836
0.033533836
0.033533837
0.033533837
0.033533838
0.033533838
0.033533838
0.033533839
0.033533839
0.033533839
0.03353384
0.03353384
0.03353384
0.03353384
0.033533841
0.033533841
0.033533841
0.033533841
0.033533842
0.033533842
0.033533842
0.033533842
0.033533842
0.033533842
0.033533842
0.033533842
0.033533842
0.033533842
0.033533842
0.033533842
0.033533842
0.033533842
0.033533842
0.033533842
0.033533842
0.033533842
0.033533842
0.033533842
0.033533842
0.033533842
0.033533841
0.033533841
0.033533841
0.033533841
0.033533841
0.03353384
0.03353384
0.03353384
0.033533839
0.033533839
0.033533839
0.033533838
0.033533838
0.033533838
0.033533837
0.033533837
0.033533836
0.033533836
0.033533837
0.033533841
0.033533851
0.033533867
0.033533892
0.033533888
0.033533907
0.033533779
0.033533788
0.033533569
0.033533575
0.033533419
0.033533485
0.033533395
0.033533506
0.033533459
0.033533569
0.033533571
0.033533595
0.033533592
0.033533593
0.033533597
0.033533605
0.033533615
0.033533626
0.033533637
0.033533648
0.033533657
0.033533666
0.033533674
0.03353368
0.033533685
0.033533687
0.033533688
0.033533686
0.033533681
0.033533675
0.033533666
0.033533658
0.033533651
0.033533645
0.033533642
0.033533611
0.033533602
0.033533486
0.033533527
0.033533412
0.033533499
0.033533432
0.033533588
0.033533583
0.033533803
0.033533797
0.033533926
0.03353391
0.033533917
0.033533895
0.033533883
0.033533876
0.033533876
0.033533878
0.033533881
0.033533885
0.033533888
0.03353389
0.033533892
0.033533894
0.033533896
0.033533897
0.033533898
0.0335339
0.033533903
0.033533911
0.033533927
0.033533955
0.033534002
0.033534069
0.033534158
0.033534267
0.033534394
0.033534533
0.033534678
0.033534825
0.033534963
0.033535076
0.033535112
0.033535116
0.033535115
0.033535114
0.033535112
0.033535111
0.033535109
0.033535108
0.033535106
0.033535104
0.033535103
0.033535101
0.0335351
0.033535098
0.033535096
0.033535089
0.033535049
0.033534935
0.033534794
0.033534645
0.033534497
0.033534356
0.033534228
0.033534117
0.033534026
0.033533958
0.03353391
0.03353388
0.033533862
0.033533854
0.03353385
0.033533848
0.033533846
0.033533845
0.033533844
0.033533842
0.033533841
0.03353384
0.033533839
0.033533838
0.033533837
0.033533837
0.03353384
0.03353385
0.033533865
0.03353389
0.033533885
0.033533904
0.033533776
0.033533785
0.033533565
0.033517125
0.033517191
0.033517415
0.033517503
0.033517592
0.033517585
0.033517567
0.033517536
0.033517514
0.033517501
0.033517496
0.033517496
0.033517497
0.0335175
0.033517503
0.033517506
0.033517509
0.033517512
0.033517515
0.033517519
0.033517527
0.033517543
0.03351758
0.033517655
0.033517787
0.033517996
0.03351829
0.033518673
0.033519134
0.033519658
0.033520221
0.033520803
0.033521378
0.033521912
0.033522338
0.033522478
0.033522504
0.033522512
0.033522517
0.033522521
0.033522524
0.033522528
0.033522532
0.033522536
0.03352254
0.033522544
0.033522548
0.033522552
0.033522556
0.033522556
0.033522537
0.033522404
0.033521985
0.033521457
0.033520889
0.033520313
0.033519754
0.033519237
0.03351878
0.033518402
0.033518112
0.033517909
0.03351778
0.03351771
0.033517676
0.033517662
0.033517657
0.033517655
0.033517652
0.033517649
0.033517646
0.033517642
0.033517636
0.033517631
0.033517626
0.033517622
0.033517621
0.033517629
0.033517644
0.03351767
0.033517682
0.033517683
0.033517589
0.033517497
0.033517268
0.033517201
0.033517013
0.033517035
0.033499458
0.03348075
0.033461116
0.033441213
0.033421307
0.033401765
0.033382673
0.033364097
0.033346029
0.033328413
0.033311169
0.033294149
0.033277211
0.033260313
0.03324355
0.033227621
0.033213282
0.032191018
0.026446987
0.021454955
0.017158001
0.013503113
0.010420235
0.0079282849
0.0058052203
0.0041587999
0.0044458696
0.0047450349
0.0050533924
0.0053750793
0.005707125
0.0060534725
0.0064149207
0.0067910737
0.0071780495
0.0075806392
0.0079968462
0.0084278756
0.0088764608
0.0093419162
0.0098178204
0.010309563
0.01082053
0.011347568
0.011889512
0.012448252
0.013017898
0.013603218
0.014207246
0.014827506
0.015456033
0.016100548
0.016757258
0.017427426
0.018107883
0.018796956
0.019499798
0.020211996
0.020920816
0.021632113
0.022348521
0.023062777
0.023777132
0.024478503
0.025164854
0.025839762
0.02650358
0.027148683
0.027763411
0.028350222
0.028909831
0.02943589
0.029925558
0.030379686
0.030792784
0.031167703
0.031503815
0.031800087
0.032058858
0.03228297
0.032474343
0.032635168
0.032769781
0.032880782
0.032971358
0.033045367
0.033105536
0.033154674
0.033195466
0.033229943
0.033259739
0.033286238
0.033310519
0.03333333
0.033355226
0.033376598
0.033397705
0.033418684
0.033439547
0.033460137
0.033480139
0.033499175
0.033499347
0.033499317
0.033499619
0.033499685
0.033499821
0.033499818
0.033499805
0.033499768
0.033499737
0.033499717
0.033499707
0.033499704
0.033499706
0.033499709
0.033499713
0.033499718
0.033499723
0.033499728
0.033499734
0.033499741
0.033499755
0.033499786
0.033499856
0.033499995
0.03350024
0.033500622
0.033501162
0.03350186
0.033502699
0.033503648
0.033504667
0.033505714
0.03350674
0.033507676
0.033508398
0.03350865
0.033508706
0.033508723
0.033508731
0.033508738
0.033508745
0.033508751
0.033508758
0.033508765
0.033508772
0.033508779
0.033508787
0.033508794
0.033508799
0.033508796
0.033508753
0.033508513
0.033507803
0.033506878
0.033505863
0.033504827
0.033503818
0.033502878
0.033502049
0.033501361
0.03350083
0.033500457
0.033500221
0.03350009
0.033500028
0.033500004
0.033499996
0.033499994
0.033499992
0.03349999
0.033499986
0.033499982
0.033499977
0.033499971
0.033499967
0.033499965
0.03349997
0.033499985
0.033500009
0.033500039
0.033500044
0.033500041
0.033499898
0.033499828
0.033499522
0.03349955
0.033499378
0.033480585
0.033461002
0.033441081
0.033421221
0.033401682
0.033382584
0.033363966
0.033345812
0.033328044
0.033310559
0.033293157
0.033275641
0.033257918
0.033239971
0.033222419
0.033205905
0.03245009
0.026676074
0.021637191
0.017314226
0.01357823
0.010396452
0.0076738968
0.0053856983
0.0057428484
0.0080270069
0.010704502
0.013914384
0.017679256
0.022039676
0.027132117
0.032946318
0.033201792
0.033219637
0.033238149
0.033256733
0.033274898
0.033292701
0.033310281
0.033327886
0.033345729
0.033363926
0.033382564
0.033401661
0.033421192
0.033441052
0.03346101
0.033480671
0.033480608
0.033460923
0.03344096
0.033421106
0.033401586
0.033382497
0.033363856
0.033345644
0.033327778
0.033310143
0.033292509
0.033274644
0.033256365
0.033237609
0.033218767
0.033200355
0.033182582
0.027824382
0.022699623
0.018313881
0.014518375
0.011286241
0.0085441083
0.00630509
0.0058445132
0.0080087481
0.010543442
0.013675713
0.017393359
0.021719669
0.026770832
0.032559045
0.033206616
0.03322303
0.033240486
0.033258307
0.033275929
0.033293368
0.033310706
0.033328155
0.033345899
0.033364039
0.033382648
0.033401738
0.033421268
0.033441111
0.033461
0.033480536
0.033499282
0.033516896
0.033516897
0.033516781
0.033516897
0.033516965
0.03351709
0.033517146
0.033517188
0.033517209
0.033517228
0.033517246
0.033517263
0.033517276
0.033517285
0.033517289
0.033517288
0.033517281
0.033517269
0.033517253
0.033517234
0.033517211
0.033517187
0.033517161
0.033517134
0.033517109
0.033517086
0.033517067
0.033517053
0.033517041
0.033517012
0.03351697
0.033516861
0.033516806
0.033516704
0.033516829
0.033516834
0.033516976
0.033499298
0.033480395
0.033460422
0.033439969
0.033419233
0.033398482
0.03337768
0.033356729
0.033335391
0.033313306
0.033289966
0.033264652
0.033236407
0.033203956
0.033165724
0.033119725
0.033063676
0.032994863
0.032910424
0.032807123
0.032681846
0.03253122
0.032352396
0.032142319
0.03189877
0.031619466
0.031303423
0.030949469
0.030557938
0.030128787
0.029663677
0.029163604
0.028631223
0.028067508
0.027472438
0.027381125
0.027984397
0.028553878
0.029093437
0.029600321
0.030072573
0.030508236
0.030906376
0.031266216
0.03158805
0.031872387
0.032120711
0.032334618
0.032516943
0.032670511
0.032798367
0.032903746
0.032989923
0.033060082
0.033117195
0.033163976
0.0332028
0.033235669
0.033264212
0.033289723
0.033313192
0.033335351
0.033356727
0.033377687
0.03339847
0.033419199
0.033439867
0.033460301
0.033480176
0.033499118
0.033499068
0.03348008
0.033460196
0.033439794
0.033419186
0.033398522
0.033377802
0.033356904
0.033335598
0.033313531
0.033290193
0.033264874
0.033236606
0.03320413
0.03316585
0.033119812
0.033063616
0.032994637
0.0329099
0.032806318
0.032680547
0.032529472
0.032349972
0.032139242
0.031894059
0.031612907
0.03129427
0.030937955
0.030543176
0.030111097
0.029642104
0.029138681
0.02860274
0.028038819
0.027440779
0.027536103
0.02812971
0.02868856
0.02922024
0.029718491
0.030181737
0.030607709
0.030996096
0.031345898
0.031657933
0.031932589
0.032171706
0.03237701
0.032551801
0.032698522
0.032820614
0.032920998
0.033003156
0.033070025
0.033124536
0.033169233
0.033206512
0.033238245
0.033265988
0.033290935
0.033314014
0.0333359
0.033357072
0.033377866
0.033398495
0.033419078
0.033439617
0.033459965
0.033479825
0.033498825
0.033498951
0.033479902
0.033459987
0.033439602
0.033419053
0.03339849
0.03337791
0.033357199
0.033336158
0.033314468
0.033291673
0.033267143
0.033239997
0.033209104
0.033172954
0.033129763
0.033077305
0.033013217
0.032934529
0.032838503
0.03272154
0.032580972
0.032413048
0.032215732
0.031984923
0.031718832
0.031415858
0.03107549
0.03069687
0.030280787
0.029827459
0.02933892
0.028816855
0.02826791
0.027684302
0.027763776
0.028344867
0.028890884
0.029409736
0.029894215
0.03034268
0.030753824
0.031127039
0.0314621
0.031759519
0.032020662
0.032245948
0.032438376
0.032601538
0.032738075
0.032851377
0.032944412
0.033020583
0.033082843
0.033133778
0.033175794
0.033211088
0.033241349
0.033268028
0.033292233
0.03331481
0.033336353
0.033357302
0.033377956
0.033398502
0.033419049
0.033439593
0.033459981
0.033479903
0.033498967
0.03349912
0.033480049
0.033460106
0.033439701
0.033419149
0.033398603
0.03337807
0.033357449
0.033336561
0.033315118
0.033292705
0.033268753
0.03324243
0.033212697
0.033178119
0.033137066
0.033087338
0.033026669
0.032952364
0.032861562
0.032750995
0.032617568
0.032457777
0.032269042
0.03204824
0.031793067
0.031501612
0.031172947
0.030806186
0.030401706
0.029959759
0.029481915
0.028969838
0.028429813
0.027854949
0.027869909
0.028446319
0.028987325
0.029500178
0.029977947
0.030419282
0.030822981
0.03118861
0.031516058
0.031806098
0.03206
0.03227931
0.032466626
0.032625473
0.032757679
0.032866927
0.032956537
0.033029837
0.033089679
0.03313879
0.033179416
0.033213639
0.033243128
0.033269257
0.033293074
0.033315393
0.033336777
0.033357626
0.033378221
0.033398736
0.033419268
0.033439809
0.033460202
0.033480132
0.033499184
0.033499242
0.033480208
0.033460294
0.033439917
0.033419394
0.03339888
0.033378386
0.033357817
0.033337002
0.033315666
0.033293409
0.033269675
0.033243676
0.033214374
0.033180406
0.033140112
0.033091447
0.033032178
0.032959634
0.032870982
0.032762811
0.03263229
0.032475579
0.03229058
0.032073192
0.031821317
0.031533266
0.031208091
0.03084479
0.030443691
0.03000489
0.029529784
0.029019291
0.028477502
0.028458712
0.029005326
0.02951929
0.029997012
0.030437765
0.030840576
0.031205233
0.031531647
0.031820594
0.032073561
0.032291207
0.032476505
0.032633085
0.032763611
0.032871714
0.032960483
0.033032942
0.033092082
0.033140683
0.033180915
0.033214811
0.033244059
0.03327
0.033293686
0.03331591
0.033337215
0.033358002
0.033378546
0.033399017
0.033419509
0.03344001
0.033460367
0.03348026
0.033499273
0.033499301
0.033480305
0.033460431
0.033440095
0.033419614
0.033399145
0.033378698
0.033358181
0.033337424
0.033316154
0.033293977
0.033270352
0.03324448
0.033215321
0.033181557
0.033141514
0.033093169
0.033034224
0.032961839
0.032873432
0.032765693
0.032635363
0.032478769
0.032293226
0.032075793
0.031824421
0.031537124
0.031212644
0.030850091
0.030449472
0.030010314
0.029534101
0.02902197
0.028478435
0.028457466
0.029007483
0.029523348
0.030003185
0.030444289
0.030845539
0.031208658
0.031533211
0.031820527
0.032071937
0.032290059
0.032476293
0.032633707
0.032764885
0.032873416
0.032962366
0.033034863
0.033093789
0.033142057
0.03318199
0.033215685
0.0332448
0.033270638
0.033294237
0.033316386
0.033337626
0.033358356
0.033378849
0.033399272
0.033419719
0.033440179
0.033460496
0.033480353
0.033499332
0.03349937
0.033480406
0.033460566
0.033440269
0.033419829
0.033399403
0.033379003
0.033358537
0.033337839
0.033316636
0.033294534
0.033270984
0.033245206
0.033216193
0.033182611
0.033142846
0.033094723
0.033035903
0.032963696
0.032875102
0.032766874
0.032636271
0.032479605
0.032294609
0.03207751
0.031826152
0.031538407
0.031213483
0.030849715
0.030447879
0.030007462
0.029529746
0.029015393
0.028468081
0.028435017
0.028990403
0.029509785
0.029991174
0.030434175
0.030838558
0.031205453
0.03153328
0.031823387
0.032075964
0.03229357
0.032479106
0.032636004
0.032767237
0.032875744
0.032964287
0.033036372
0.03309515
0.033143251
0.033183029
0.03321661
0.033245591
0.033271322
0.03329483
0.033316891
0.033338059
0.033358726
0.033379165
0.033399541
0.033419944
0.033440364
0.033460642
0.033480463
0.033499411
0.033499453
0.033480524
0.033460721
0.033440463
0.033420065
0.033399685
0.033379336
0.033358928
0.033338298
0.033317178
0.033295179
0.033271751
0.033246123
0.033217284
0.03318389
0.033144355
0.033096503
0.033038145
0.032966388
0.032878477
0.032770596
0.032639851
0.032483
0.032297294
0.032079393
0.031827041
0.03153799
0.031211293
0.03084585
0.03044394
0.03000252
0.029521961
0.029001318
0.028985573
0.029510006
0.029992345
0.03043513
0.030839049
0.031205813
0.03153337
0.031823594
0.032077258
0.032296347
0.032483142
0.032640593
0.032771817
0.032879629
0.032967561
0.033039213
0.033097538
0.033145276
0.033184705
0.033217963
0.03324668
0.033272206
0.033295547
0.033317479
0.033338547
0.033359138
0.033379513
0.033399833
0.033420187
0.033440563
0.033460801
0.033480584
0.033499496
0.033499536
0.033480642
0.033460878
0.033440661
0.033420309
0.033399981
0.033379693
0.033359359
0.033338819
0.033317815
0.033295968
0.033272737
0.033247347
0.033218791
0.033185712
0.033146481
0.033099024
0.033041011
0.032969586
0.032881887
0.03277452
0.032644204
0.032487573
0.032301674
0.032083483
0.031831127
0.031542854
0.031218714
0.030855489
0.030455172
0.030014483
0.02953401
0.029012894
0.029005511
0.029530834
0.030014179
0.030455633
0.030856933
0.031220116
0.031544754
0.031832335
0.032084208
0.032302772
0.032489026
0.032645792
0.032776202
0.03288348
0.032971052
0.033042423
0.033100347
0.033147613
0.033186647
0.033219574
0.033247992
0.033273256
0.033296389
0.033318161
0.033339098
0.033359585
0.033379876
0.033400129
0.033420427
0.033440754
0.03346095
0.033480695
0.033499573
0.033499606
0.033480743
0.033461016
0.033440841
0.033420539
0.033400272
0.033380059
0.033359818
0.033339398
0.033318544
0.033296886
0.033273902
0.033248829
0.033220683
0.033188101
0.033149501
0.033102725
0.033045404
0.032974748
0.032888093
0.032781693
0.032652282
0.032496599
0.0323117
0.032094734
0.03184383
0.031557311
0.031233966
0.030872152
0.030472105
0.0300328
0.029552752
0.029031395
0.029555407
0.030040234
0.030480466
0.030880556
0.031242076
0.031564693
0.031850565
0.032101249
0.032317525
0.032501658
0.032656683
0.032785432
0.032891387
0.032977745
0.033048033
0.033104908
0.033151242
0.033189504
0.033221779
0.033249696
0.033274575
0.03329741
0.033318946
0.033339708
0.033360057
0.033380241
0.03340041
0.033420643
0.033440919
0.033461073
0.033480784
0.033499633
0.033499653
0.033480816
0.03346112
0.033440986
0.033420738
0.033400542
0.033380422
0.033360303
0.033340041
0.033319393
0.033298014
0.033275375
0.033250736
0.033223132
0.033191254
0.033153483
0.033107716
0.033051595
0.032982331
0.032897051
0.032792428
0.03266535
0.032512361
0.032330631
0.03211688
0.031869433
0.031585966
0.031265618
0.030906435
0.030508641
0.030070099
0.029588835
0.029615874
0.030097659
0.030534512
0.030930274
0.031286901
0.031605057
0.031886102
0.032131235
0.032342481
0.032521989
0.032673216
0.032798931
0.032902362
0.032986708
0.03305515
0.033110663
0.033155826
0.033193089
0.033224552
0.033251824
0.033276214
0.033298649
0.033319865
0.033340388
0.033360554
0.0333806
0.033400666
0.033420822
0.033441042
0.033461156
0.033480838
0.033499667
0.033499671
0.03348085
0.03346118
0.033441086
0.033420896
0.033400783
0.033380778
0.033360816
0.033340765
0.033320395
0.033299384
0.033277216
0.033253182
0.033226347
0.033195417
0.033158831
0.033114569
0.033060298
0.032993472
0.032911213
0.032810394
0.032687913
0.03254074
0.032366684
0.032161269
0.031922288
0.031648807
0.031339615
0.030992989
0.030608083
0.030181158
0.027406665
0.028580308
0.030041747
0.031402291
0.031698236
0.031961507
0.032193016
0.032392219
0.032561466
0.032704292
0.032823094
0.03292103
0.033000925
0.033065962
0.033118926
0.033162181
0.033197977
0.03322831
0.033254675
0.033278322
0.033300181
0.033320967
0.033341166
0.033361089
0.033380956
0.033400893
0.033420959
0.033441117
0.033461191
0.033480851
0.033499668
0.033499657
0.033480842
0.033461192
0.033441137
0.033421012
0.033400998
0.033381137
0.033361377
0.033341602
0.033321607
0.033301098
0.033279613
0.033256461
0.033230751
0.033201277
0.033166623
0.033124804
0.033073808
0.033011228
0.032934501
0.032840574
0.032726915
0.032590398
0.032428918
0.032239821
0.032022789
0.030153308
0.028149672
0.026526731
0.025259018
0.023256614
0.024674371
0.02648703
0.028726396
0.031391658
0.032472636
0.032623703
0.032752503
0.03286029
0.032949446
0.033022487
0.03308225
0.033131092
0.033171315
0.033204806
0.033233372
0.033258395
0.033281002
0.033302082
0.03332229
0.033342064
0.033361676
0.033381319
0.033401098
0.033421056
0.033441146
0.033461182
0.033480824
0.033499639
0.033499616
0.0334808
0.033461164
0.033441147
0.033421093
0.033401193
0.033381503
0.033361988
0.033342558
0.033323037
0.033303174
0.033282556
0.033260576
0.033236425
0.033209021
0.033177057
0.033138893
0.033092781
0.033036595
0.032968454
0.032886144
0.032787998
0.032671338
0.030623026
0.027634409
0.025138067
0.023110363
0.02149216
0.020248101
0.018492038
0.019974279
0.021864962
0.024170286
0.026957288
0.030294681
0.032826996
0.032915356
0.032989805
0.033052076
0.033104067
0.033147147
0.033183114
0.033213453
0.033239634
0.03326289
0.033284193
0.033304309
0.033323809
0.033343064
0.033362304
0.033381682
0.03340128
0.033421119
0.033441138
0.033461138
0.03348077
0.03349959
0.03349956
0.033480731
0.033461099
0.033441114
0.03342113
0.033401351
0.03338185
0.033362614
0.03334358
0.033324612
0.03330551
0.033285934
0.033265376
0.033243167
0.033218419
0.033190074
0.033156881
0.033117631
0.033071045
0.033016039
0.032950731
0.030494483
0.026769129
0.023635369
0.021003941
0.01881624
0.017053718
0.015717131
0.013159205
0.014361872
0.016002519
0.018082175
0.020609243
0.023601217
0.027136627
0.031320829
0.033043537
0.033091005
0.033131676
0.033166732
0.033197045
0.033223376
0.033246684
0.033267871
0.033287671
0.033306694
0.033325397
0.033344077
0.033362905
0.033381996
0.033401399
0.033421117
0.033441068
0.033461041
0.033480676
0.033499519
0.033499447
0.033480588
0.033460953
0.033440995
0.03342108
0.033401426
0.033382121
0.033363177
0.033344559
0.033326171
0.033307869
0.033289394
0.033270358
0.033250268
0.033228509
0.033204429
0.033177396
0.03314712
0.03311303
0.032861118
0.028154606
0.024124676
0.020727294
0.017841764
0.015421047
0.013441344
0.011914796
0.0096463709
0.011128662
0.013032122
0.015333406
0.018134331
0.021444685
0.025314157
0.029892697
0.033133002
0.033161265
0.033186965
0.033210948
0.033233018
0.033253418
0.033272579
0.033290943
0.03330893
0.033326879
0.033345007
0.033363434
0.03338224
0.033401446
0.033421036
0.033440914
0.033460855
0.03348049
0.033499364
0.033499191
0.033480325
0.033460721
0.033440823
0.033421
0.03340148
0.033382367
0.033363685
0.033345421
0.033327508
0.033309845
0.033292239
0.033274408
0.033256043
0.033236824
0.033216592
0.033195487
0.033173801
0.03253697
0.027336091
0.022868338
0.019073702
0.015839644
0.013118873
0.01090121
0.0090549891
0.007037664
0.009067644
0.011197364
0.013868417
0.017061048
0.020817361
0.025192972
0.030308319
0.033181482
0.033200671
0.033219907
0.033239005
0.033257553
0.033275515
0.033293059
0.033310454
0.033327961
0.033345752
0.03336392
0.033382525
0.033401579
0.033421053
0.033440842
0.033460717
0.033480304
0.033499155
0.033499012
0.03348021
0.033460684
0.033440862
0.033421113
0.033401669
0.033382642
0.033364067
0.033345938
0.03332819
0.033310735
0.033293391
0.033275928
0.033258146
0.033239951
0.033221599
0.033203652
0.033186265
0.028623633
0.0235408
0.019192841
0.015449959
0.012261709
0.0096690725
0.0074331048
0.0094436124
0.01207637
0.01515438
0.018715417
0.022795053
0.027537272
0.032948663
0.03314441
0.033173818
0.033201118
0.033226015
0.033248558
0.033269315
0.033288891
0.033307695
0.033326154
0.033344609
0.033363245
0.033382196
0.033401515
0.033421212
0.03344121
0.033461299
0.033481088
0.033481077
0.03348094
0.033480874
0.033461112
0.033441072
0.033421153
0.03340158
0.033382443
0.033363755
0.03334549
0.033327559
0.033309839
0.033292093
0.033274051
0.033255505
0.033236333
0.033216716
0.033197181
0.033177977
0.028756355
0.023605744
0.019182173
0.015348088
0.012055641
0.0092695198
0.0069413622
0.006218648
0.008592523
0.011121797
0.014306411
0.018052982
0.022400531
0.027489025
0.033187996
0.033204679
0.033221946
0.033239945
0.033258053
0.033275838
0.033293346
0.033310717
0.033328193
0.033345951
0.033364095
0.033382693
0.033401754
0.033421243
0.03344104
0.033460904
0.03348045
0.033499241
0.033499193
0.033499096
0.033499167
0.033499279
0.033499423
0.033499522
0.033499587
0.033499626
0.033499654
0.033499679
0.033499701
0.033499718
0.033499729
0.033499732
0.033499727
0.033499714
0.033499694
0.033499667
0.033499634
0.033499597
0.033499557
0.033499515
0.033499473
0.033499433
0.033499397
0.033499366
0.03349934
0.033499311
0.033499261
0.033499181
0.033499056
0.033498964
0.033498909
0.03349902
0.033499139
0.033499218
0.033499389
0.033499358
0.033499659
0.033499723
0.033499857
0.033499852
0.033499837
0.033499797
0.033499764
0.03349974
0.033499727
0.033499721
0.033499719
0.033499718
0.033499719
0.033499719
0.03349972
0.033499721
0.033499722
0.033499722
0.033499723
0.033499724
0.033499724
0.033499725
0.033499725
0.033499725
0.033499726
0.033499726
0.033499726
0.033499726
0.033499726
0.033499726
0.033499726
0.033499726
0.033499726
0.033499726
0.033499725
0.033499725
0.033499725
0.033499724
0.033499724
0.033499723
0.033499723
0.033499722
0.033499721
0.033499721
0.03349972
0.033499719
0.033499718
0.033499717
0.033499717
0.033499716
0.033499714
0.033499713
0.033499712
0.033499711
0.03349971
0.033499708
0.033499707
0.033499705
0.033499704
0.033499702
0.033499701
0.033499699
0.033499697
0.033499696
0.033499694
0.033499692
0.03349969
0.033499688
0.033499687
0.033499685
0.033499683
0.033499683
0.033499685
0.03349969
0.033499702
0.033499725
0.033499758
0.033499798
0.033499812
0.033499817
0.033499682
0.033499618
0.033499316
0.033499347
0.033499176
0.033499256
0.03351696
0.033516939
0.033517124
0.03351719
0.033517414
0.033517501
0.03351759
0.033517582
0.033517562
0.03351753
0.033517506
0.033517492
0.033517486
0.033517484
0.033517484
0.033517484
0.033517485
0.033517486
0.033517487
0.033517488
0.033517489
0.033517491
0.033517492
0.033517493
0.033517494
0.033517495
0.033517496
0.033517497
0.033517498
0.033517498
0.033517499
0.0335175
0.033517501
0.033517501
0.033517502
0.033517503
0.033517503
0.033517504
0.033517504
0.033517505
0.033517505
0.033517505
0.033517506
0.033517506
0.033517506
0.033517507
0.033517507
0.033517507
0.033517507
0.033517507
0.033517507
0.033517507
0.033517507
0.033517507
0.033517507
0.033517507
0.033517507
0.033517507
0.033517507
0.033517506
0.033517506
0.033517506
0.033517505
0.033517505
0.033517504
0.033517504
0.033517503
0.033517503
0.033517502
0.033517501
0.033517501
0.0335175
0.033517499
0.033517499
0.033517498
0.033517498
0.033517498
0.0335175
0.033517507
0.033517521
0.033517545
0.033517577
0.033517597
0.033517605
0.033517517
0.03351743
0.033517206
0.033517141
0.033516955
0.033516882
0.033533477
0.033533469
0.033533617
0.03353369
0.033533797
0.033533806
0.033533802
0.033533776
0.033533756
0.033533743
0.033533737
0.033533734
0.033533734
0.033533734
0.033533734
0.033533734
0.033533735
0.033533735
0.033533736
0.033533736
0.033533736
0.033533737
0.033533737
0.033533737
0.033533737
0.033533738
0.033533738
0.033533738
0.033533738
0.033533738
0.033533738
0.033533739
0.033533739
0.033533739
0.033533739
0.033533739
0.033533739
0.033533739
0.033533739
0.033533739
0.033533739
0.033533739
0.033533739
0.033533739
0.033533739
0.033533739
0.033533739
0.033533738
0.033533738
0.033533738
0.033533738
0.033533738
0.033533738
0.033533737
0.033533737
0.033533737
0.033533737
0.033533736
0.033533736
0.033533736
0.033533736
0.033533735
0.033533735
0.033533734
0.033533734
0.033533734
0.033533733
0.033533733
0.033533732
0.033533732
0.033533732
0.033533731
0.033533731
0.03353373
0.03353373
0.03353373
0.03353373
0.033533733
0.033533739
0.033533752
0.033533772
0.033533797
0.033533802
0.033533793
0.033533686
0.033533612
0.033533464
0.033533472
0.033533358
0.033533373
0.033533502
0.033533643
0.033533751
0.03353378
0.033533768
0.033533739
0.033533713
0.033533696
0.033533687
0.033533683
0.033533681
0.033533681
0.033533681
0.033533682
0.033533682
0.033533683
0.033533683
0.033533683
0.033533684
0.033533684
0.033533685
0.033533685
0.033533685
0.033533686
0.033533686
0.033533687
0.033533687
0.033533687
0.033533687
0.033533688
0.033533688
0.033533688
0.033533688
0.033533689
0.033533689
0.033533689
0.033533689
0.033533689
0.03353369
0.03353369
0.03353369
0.03353369
0.03353369
0.03353369
0.03353369
0.03353369
0.03353369
0.03353369
0.03353369
0.03353369
0.03353369
0.03353369
0.03353369
0.03353369
0.03353369
0.03353369
0.03353369
0.03353369
0.03353369
0.033533689
0.033533689
0.033533689
0.033533689
0.033533689
0.033533688
0.033533688
0.033533688
0.033533688
0.033533687
0.033533687
0.033533687
0.033533686
0.033533686
0.033533687
0.033533688
0.033533692
0.033533702
0.033533719
0.033533745
0.033533774
0.033533786
0.033533756
0.033533649
0.033533508
0.033533379
0.033533364
0.033533394
0.033533393
0.033533538
0.03353372
0.033533841
0.033533876
0.033533859
0.033533824
0.033533794
0.033533774
0.033533763
0.033533758
0.033533755
0.033533755
0.033533755
0.033533755
0.033533755
0.033533755
0.033533755
0.033533756
0.033533756
0.033533756
0.033533756
0.033533756
0.033533757
0.033533757
0.033533757
0.033533757
0.033533757
0.033533757
0.033533757
0.033533757
0.033533757
0.033533757
0.033533757
0.033533757
0.033533757
0.033533757
0.033533757
0.033533757
0.033533757
0.033533757
0.033533757
0.033533757
0.033533756
0.033533756
0.033533756
0.033533756
0.033533756
0.033533756
0.033533756
0.033533755
0.033533755
0.033533755
0.033533754
0.033533754
0.033533754
0.033533754
0.033533753
0.033533753
0.033533753
0.033533752
0.033533752
0.033533752
0.033533751
0.033533751
0.03353375
0.03353375
0.033533749
0.033533749
0.033533749
0.033533748
0.033533748
0.033533747
0.033533747
0.033533748
0.03353375
0.033533755
0.033533766
0.033533786
0.033533816
0.033533851
0.033533868
0.033533833
0.033533711
0.033533529
0.033533384
0.033533385
0.033533406
0.033533463
0.033533646
0.033533855
0.033533985
0.03353402
0.033533997
0.033533958
0.033533924
0.033533902
0.033533891
0.033533885
0.033533883
0.033533882
0.033533882
0.033533883
0.033533883
0.033533884
0.033533884
0.033533884
0.033533885
0.033533885
0.033533886
0.033533886
0.033533887
0.033533887
0.033533887
0.033533888
0.033533888
0.033533888
0.033533889
0.033533889
0.033533889
0.03353389
0.03353389
0.03353389
0.033533891
0.033533891
0.033533891
0.033533891
0.033533892
0.033533892
0.033533892
0.033533892
0.033533892
0.033533892
0.033533893
0.033533893
0.033533893
0.033533893
0.033533893
0.033533893
0.033533893
0.033533893
0.033533893
0.033533893
0.033533894
0.033533894
0.033533894
0.033533894
0.033533894
0.033533894
0.033533894
0.033533893
0.033533893
0.033533893
0.033533893
0.033533893
0.033533893
0.033533893
0.033533893
0.033533893
0.033533893
0.033533892
0.033533893
0.033533894
0.033533896
0.033533902
0.033533914
0.033533936
0.033533969
0.033534008
0.033534031
0.033533997
0.033533867
0.033533659
0.033533475
0.033533419
0.033533513
0.033533578
0.03353378
0.033533999
0.03353413
0.03353416
0.033534132
0.033534089
0.033534053
0.03353403
0.033534018
0.033534012
0.03353401
0.033534009
0.033534008
0.033534008
0.033534008
0.033534008
0.033534008
0.033534008
0.033534008
0.033534008
0.033534008
0.033534008
0.033534008
0.033534008
0.033534008
0.033534008
0.033534008
0.033534008
0.033534007