/*--------------------------------*- C++ -*----------------------------------*\
| =========                 |                                                 |
| \\      /  F ield         | OpenFOAM: The Open Source CFD Toolbox           |
|  \\    /   O peration     | Version:  v2012                                 |
|   \\  /    A nd           | Website:  www.openfoam.com                      |
|    \\/     M anipulation  |                                                 |
\*---------------------------------------------------------------------------*/
FoamFile
{
    version     2.0;
    format      ascii;
    class       volScalarField;
    location    "100";
    object      omega;
}
// * * * * * * * * * * * * * * * * * * * * * * * * * * * * * * * * * * * * * //

dimensions      [0 0 -1 0 0 0 0];


internalField   nonuniform List<scalar> 
229912
(
11.130358
11.130298
11.158096
11.157624
11.15797
11.157708
11.158231
11.157969
11.158263
11.158165
11.158216
11.158184
11.158176
11.15817
11.15817
11.158171
11.158171
11.158172
11.158172
11.158172
11.158172
11.158172
11.158172
11.158172
11.158172
11.158172
11.158172
11.158171
11.158171
11.15817
11.15817
11.158176
11.158184
11.158216
11.158165
11.158263
11.157969
11.158231
11.157708
11.15797
11.157624
11.158096
11.15792
11.158585
11.158343
11.158677
11.15855
11.1586
11.158552
11.158542
11.158533
11.158534
11.158535
11.158537
11.158537
11.158538
11.158538
11.158538
11.158539
11.158539
11.158539
11.158539
11.15854
11.15854
11.15854
11.15854
11.15854
11.15854
11.158541
11.158541
11.158541
11.158541
11.158541
11.158541
11.158541
11.158542
11.158542
11.158542
11.158542
11.158542
11.158542
11.158542
11.158542
11.158542
11.158542
11.158542
11.158542
11.158542
11.158542
11.158542
11.158542
11.158542
11.158542
11.158542
11.158542
11.158542
11.158542
11.158542
11.158542
11.158542
11.158541
11.158541
11.158541
11.158541
11.158541
11.158541
11.158541
11.15854
11.15854
11.15854
11.15854
11.15854
11.158539
11.158539
11.158539
11.158538
11.158537
11.158536
11.158535
11.158534
11.158543
11.158553
11.1586
11.158551
11.158677
11.158343
11.158585
11.157921
11.158097
11.157625
11.157971
11.15771
11.158234
11.157974
11.158271
11.158177
11.158231
11.158203
11.1582
11.158199
11.158204
11.15821
11.158216
11.158222
11.158227
11.158232
11.158236
11.15824
11.158243
11.158246
11.158247
11.158247
11.158245
11.158243
11.158238
11.158233
11.158227
11.158227
11.158227
11.158252
11.158194
11.158284
11.157984
11.158241
11.157715
11.157973
11.157627
11.158099
11.157923
11.158589
11.158348
11.158683
11.158559
11.15861
11.158564
11.158556
11.158549
11.158552
11.158555
11.158558
11.15856
11.158562
11.158564
11.158565
11.158566
11.158567
11.158568
11.158568
11.158569
11.158569
11.158569
11.158569
11.158568
11.158566
11.158562
11.158557
11.158549
11.158538
11.158525
11.15851
11.158494
11.158478
11.158466
11.15846
11.158458
11.158457
11.158456
11.158456
11.158455
11.158454
11.158454
11.158453
11.158453
11.158452
11.158452
11.158451
11.158451
11.15845
11.158451
11.158456
11.158468
11.158482
11.158497
11.15851
11.158522
11.158531
11.158538
11.158543
11.158545
11.158547
11.158547
11.158546
11.158546
11.158545
11.158545
11.158544
11.158544
11.158543
11.158542
11.158542
11.158541
11.15854
11.158539
11.158537
11.158536
11.158535
11.158543
11.158553
11.1586
11.158551
11.158677
11.158343
11.158585
11.15792
11.130332
11.130974
11.130891
11.131235
11.131174
11.131218
11.131171
11.131149
11.131132
11.131128
11.131127
11.131128
11.13113
11.131132
11.131133
11.131134
11.131136
11.131137
11.131138
11.131139
11.13114
11.131138
11.131131
11.131114
11.131082
11.13103
11.130955
11.130856
11.130735
11.130597
11.130447
11.130292
11.130137
11.129992
11.129875
11.129839
11.129834
11.129834
11.129835
11.129836
11.129837
11.129839
11.12984
11.129841
11.129843
11.129844
11.129845
11.129847
11.129848
11.129851
11.129859
11.129898
11.130018
11.130166
11.130323
11.130482
11.130634
11.130776
11.130899
11.131001
11.131078
11.131132
11.131166
11.131184
11.131192
11.131195
11.131196
11.131195
11.131193
11.131191
11.131189
11.131187
11.131184
11.13118
11.131176
11.131172
11.13117
11.131171
11.131184
11.131204
11.131247
11.1312
11.131258
11.130911
11.130992
11.130349
11.130314
11.129756
11.100525
11.068712
11.035854
11.001891
10.967932
10.934146
10.900813
10.868006
10.835798
10.804288
10.773634
10.744071
10.715944
10.689767
10.6663
10.646725
10.632775
10.627052
10.633851
10.660643
10.720245
10.836996
11.052716
11.458695
12.229652
18.287217
18.017413
17.748393
17.483501
17.219207
16.958747
16.699291
16.440925
16.18459
15.933596
15.684625
15.439629
15.198039
14.958662
14.722368
14.49303
14.267526
14.044566
13.826328
13.613302
13.404687
13.203332
13.006945
12.814589
12.627363
12.448176
12.274132
12.106669
11.945072
11.790493
11.642991
11.5013
11.366546
11.24142
11.123968
11.01356
10.911438
10.816889
10.731987
10.656176
10.588438
10.52841
10.476745
10.434317
10.400033
10.373236
10.354002
10.341918
10.336261
10.336829
10.342706
10.353366
10.368255
10.386705
10.408097
10.43195
10.457811
10.485239
10.513924
10.543591
10.574009
10.605022
10.636503
10.668361
10.700537
10.732992
10.765701
10.798651
10.83184
10.865277
10.898978
10.932952
10.967164
11.001459
11.035533
11.068759
11.100573
11.100627
11.1011
11.101157
11.101437
11.10144
11.101465
11.101422
11.101389
11.101365
11.101355
11.101351
11.101351
11.101353
11.101355
11.101357
11.101359
11.101361
11.101363
11.101366
11.101367
11.101367
11.101362
11.101346
11.101311
11.101244
11.101137
11.100984
11.100784
11.100541
11.100266
11.099968
11.099661
11.099359
11.099082
11.098867
11.098796
11.098783
11.098782
11.098784
11.098786
11.098788
11.09879
11.098792
11.098794
11.098797
11.098799
11.098802
11.098804
11.098807
11.098813
11.098829
11.098906
11.099125
11.099408
11.099715
11.100026
11.100329
11.100609
11.100857
11.101061
11.101219
11.10133
11.101399
11.101438
11.101456
11.101463
11.101465
11.101464
11.101463
11.101461
11.101458
11.101455
11.101451
11.101447
11.101442
11.101439
11.101438
11.101444
11.101464
11.101493
11.101531
11.101501
11.101495
11.101212
11.101152
11.100677
11.100622
11.068876
11.035774
11.0019
10.967912
10.934147
10.900807
10.867989
10.835769
10.804248
10.773581
10.744
10.715847
10.689629
10.666099
10.646431
10.632313
10.626284
10.632565
10.658485
10.716839
10.832218
11.053974
11.500835
12.49179
12.369316
11.447885
11.028369
10.817608
10.70844
10.653504
10.629548
10.624427
10.631162
10.645699
10.665618
10.689311
10.715635
10.743856
10.773482
10.804177
10.835713
10.867939
10.900754
10.934082
10.967831
11.001825
11.035713
11.068911
11.069231
11.035903
11.001929
10.967887
10.934112
10.90077
10.86794
10.835692
10.80412
10.773374
10.743671
10.715333
10.688833
10.664868
10.644519
10.629309
10.621508
10.624845
10.645653
10.694829
10.792926
10.98047
11.346427
12.090661
12.266024
11.445249
11.040695
10.827577
10.7147
10.657306
10.631848
10.625828
10.632021
10.64623
10.66595
10.68951
10.715746
10.743909
10.773494
10.80416
10.835676
10.867887
10.900692
10.934015
10.967761
11.001724
11.035576
11.068653
11.100403
11.130112
11.129964
11.130367
11.130219
11.13052
11.130503
11.130577
11.13057
11.130573
11.130577
11.130586
11.130596
11.130604
11.130609
11.130611
11.130611
11.130608
11.130603
11.130596
11.130588
11.130578
11.130567
11.130555
11.130542
11.13053
11.130519
11.13051
11.130509
11.130512
11.130526
11.130459
11.130484
11.130191
11.130346
11.129947
11.130099
11.129744
11.100489
11.068627
11.03568
11.001568
10.96738
10.933253
10.899427
10.865916
10.832716
10.799811
10.767202
10.734897
10.702917
10.671289
10.640057
10.609284
10.579054
10.549484
10.52073
10.492993
10.466524
10.441636
10.41869
10.398117
10.380389
10.366039
10.355603
10.349666
10.348768
10.353483
10.364287
10.381678
10.406018
10.437764
10.47752
10.491676
10.449832
10.416433
10.390453
10.371603
10.359475
10.353624
10.353522
10.358627
10.368357
10.382142
10.39941
10.419635
10.442307
10.466989
10.493302
10.520927
10.549599
10.579111
10.6093
10.640045
10.671255
10.702866
10.734832
10.767124
10.799722
10.832617
10.865811
10.899312
10.933124
10.967207
11.001398
11.035398
11.068564
11.100365
11.100151
11.068314
11.035057
11.001068
10.966896
10.932856
10.899083
10.865613
10.832444
10.79957
10.766989
10.734711
10.702756
10.671154
10.639947
10.609198
10.578998
10.549464
10.520754
10.493072
10.466676
10.441879
10.419051
10.398626
10.381121
10.367068
10.357026
10.351547
10.351234
10.356606
10.368222
10.386493
10.411807
10.444226
10.484975
10.475395
10.435627
10.404174
10.379706
10.362311
10.351552
10.34699
10.348054
10.354212
10.364856
10.379425
10.397346
10.418096
10.441172
10.466165
10.492703
10.520488
10.549268
10.578847
10.609076
10.639839
10.671051
10.702653
10.734602
10.76687
10.799439
10.832299
10.865452
10.898905
10.932664
10.966704
11.000902
11.034955
11.068332
11.100333
11.100269
11.068296
11.03492
11.000858
10.966653
10.932612
10.898855
10.865405
10.832256
10.799399
10.766832
10.734564
10.702613
10.671006
10.639782
10.608997
10.578731
10.549087
10.52021
10.492277
10.465531
10.440246
10.416785
10.395523
10.376976
10.361659
10.350119
10.342906
10.340619
10.343787
10.352986
10.368659
10.391239
10.420603
10.458066
10.452164
10.415136
10.386237
10.36414
10.349002
10.340359
10.337712
10.340501
10.348165
10.360117
10.37577
10.394635
10.416146
10.439811
10.465245
10.492104
10.520114
10.549045
10.57872
10.609008
10.639806
10.671038
10.702651
10.734606
10.766878
10.799448
10.832309
10.865462
10.898916
10.93268
10.966734
11.000958
11.03505
11.068468
11.100496
11.100535
11.068533
11.035124
11.001035
10.966814
10.932763
10.899001
10.865549
10.832396
10.799534
10.766962
10.734689
10.702732
10.671117
10.63988
10.609074
10.578774
10.549077
10.520116
10.492061
10.465134
10.439607
10.41582
10.394153
10.375068
10.359065
10.346695
10.338512
10.335112
10.337042
10.344876
10.35909
10.38013
10.407929
10.443707
10.446932
10.410534
10.382207
10.360705
10.346149
10.338053
10.335909
10.339149
10.347202
10.359476
10.375398
10.39443
10.416054
10.439795
10.465303
10.492218
10.520264
10.549215
10.578902
10.609192
10.639989
10.671218
10.702828
10.734781
10.76705
10.799618
10.832476
10.865625
10.899073
10.932829
10.966874
11.001092
11.035181
11.068595
11.1006
11.100604
11.068608
11.0352
11.001117
10.966907
10.93287
10.899122
10.865682
10.83254
10.799688
10.767127
10.734865
10.702922
10.671322
10.640105
10.609324
10.579052
10.549388
10.52046
10.49244
10.465551
10.440055
10.416304
10.394657
10.375612
10.359676
10.347386
10.339297
10.336008
10.338066
10.346055
10.360463
10.381803
10.410255
10.417602
10.387847
10.365472
10.350201
10.341486
10.338801
10.341562
10.349202
10.361126
10.376743
10.395561
10.417021
10.440631
10.466009
10.492804
10.520748
10.549619
10.579241
10.609479
10.640234
10.671431
10.703015
10.734946
10.767198
10.79975
10.832594
10.865728
10.899161
10.932901
10.96693
11.001133
11.03521
11.068614
11.100605
11.10061
11.068623
11.035224
11.001153
10.966956
10.932934
10.899201
10.865776
10.832649
10.799813
10.76727
10.735029
10.703111
10.671545
10.640369
10.609641
10.579437
10.549859
10.521046
10.493169
10.466455
10.441185
10.417714
10.396437
10.377816
10.362342
10.350565
10.343054
10.340401
10.343176
10.352008
10.3674
10.389853
10.419514
10.428009
10.396764
10.373154
10.356714
10.34712
10.343756
10.345888
10.352961
10.364354
10.379483
10.397776
10.418776
10.442012
10.467091
10.493654
10.521419
10.550153
10.579672
10.609832
10.640525
10.671674
10.70322
10.735122
10.767349
10.799883
10.83271
10.865829
10.899248
10.932974
10.96699
11.001181
11.035246
11.06864
11.100622
11.100638
11.068662
11.035275
11.001215
10.967031
10.933021
10.899302
10.865891
10.832779
10.799961
10.767438
10.735224
10.70334
10.671818
10.640699
10.610044
10.579935
10.55048
10.521824
10.494154
10.467708
10.442762
10.419676
10.398832
10.380728
10.36588
10.354851
10.348196
10.346558
10.350475
10.360564
10.37734
10.401343
10.432821
10.445227
10.411591
10.385937
10.367774
10.356504
10.351532
10.35221
10.358054
10.368414
10.382764
10.400474
10.420986
10.443805
10.468521
10.494791
10.52233
10.550882
10.580253
10.610297
10.640902
10.671982
10.703477
10.735339
10.767537
10.800046
10.832855
10.865958
10.899361
10.933074
10.967076
11.001254
11.035307
11.068687
11.100657
11.100676
11.068713
11.03534
11.001294
10.967124
10.933129
10.899424
10.866029
10.832935
10.800139
10.767644
10.735465
10.703627
10.672165
10.641126
10.610574
10.580599
10.551313
10.522871
10.495464
10.469354
10.444841
10.42229
10.402114
10.384813
10.370915
10.361014
10.355684
10.355544
10.360999
10.372847
10.391702
10.418291
10.430931
10.402495
10.382117
10.368879
10.362114
10.361144
10.365521
10.374576
10.387743
10.404436
10.424113
10.446271
10.470469
10.496339
10.523554
10.551848
10.581016
10.610902
10.641385
10.672372
10.703795
10.735603
10.767759
10.800236
10.833019
10.866102
10.899488
10.933185
10.967172
11.001335
11.035373
11.068739
11.100695
11.100712
11.068763
11.035405
11.001374
10.967218
10.933239
10.899551
10.866176
10.833106
10.800339
10.767882
10.735752
10.70398
10.672604
10.641679
10.611277
10.581496
10.552462
10.524343
10.497349
10.471749
10.447867
10.426096
10.406881
10.390735
10.378188
10.369807
10.366087
10.367759
10.375261
10.389406
10.410785
10.440114
10.457441
10.425575
10.401964
10.38595
10.376731
10.37359
10.375985
10.383287
10.394892
10.410202
10.428724
10.449934
10.473362
10.498604
10.525314
10.55321
10.582071
10.611721
10.642022
10.67287
10.704188
10.735917
10.768013
10.800446
10.833194
10.866249
10.899613
10.933292
10.967262
11.00141
11.035434
11.068786
11.100728
11.100742
11.068805
11.03546
11.001443
10.967303
10.933341
10.899673
10.866322
10.833284
10.800557
10.768154
10.736097
10.70442
10.67317
10.642412
10.612227
10.58273
10.554064
10.526417
10.500018
10.47517
10.452232
10.431626
10.413831
10.399386
10.38885
10.382802
10.381836
10.386584
10.39759
10.415466
10.440904
10.474597
10.463756
10.434751
10.413916
10.400283
10.393209
10.392161
10.396459
10.405486
10.418691
10.435466
10.455241
10.47751
10.501822
10.527797
10.555116
10.58353
10.612835
10.642872
10.673519
10.704684
10.736297
10.768307
10.800675
10.833375
10.866393
10.899729
10.933385
10.967338
11.001471
11.035481
11.068821
11.100753
11.100762
11.068834
11.035498
11.001494
10.967369
10.933425
10.899782
10.866463
10.833468
10.8008
10.768474
10.736521
10.704984
10.673921
10.643409
10.613551
10.584479
10.556368
10.529437
10.50396
10.480281
10.458801
10.440003
10.424421
10.412667
10.405346
10.403119
10.40659
10.416413
10.433102
10.457308
10.489734
10.525621
10.488116
10.459338
10.438435
10.424809
10.417958
10.417296
10.422184
10.431936
10.445884
10.463359
10.483783
10.506634
10.531464
10.557896
10.585624
10.614405
10.644044
10.67439
10.705329
10.736774
10.768658
10.800933
10.833564
10.866532
10.899831
10.93346
10.967393
11.001511
11.03551
11.068841
11.100767
11.100768
11.068844
11.035515
11.001521
10.967411
10.933489
10.899877
10.8666
10.833664
10.801077
10.768862
10.73706
10.705726
10.674935
10.644788
10.615413
10.586982
10.559712
10.533876
10.509819
10.487959
10.468796
10.452906
10.440904
10.433555
10.431592
10.435624
10.446205
10.463813
10.4889
10.522168
10.566146
10.527143
10.496665
10.474144
10.458963
10.450613
10.448634
10.452641
10.461923
10.47568
10.493181
10.513754
10.536827
10.561911
10.58861
10.616612
10.645664
10.675571
10.706183
10.737385
10.769091
10.801234
10.83377
10.866669
10.899919
10.933513
10.967422
11.001525
11.035515
11.068841
11.100765
11.100758
11.068834
11.035508
11.001523
10.967428
10.933532
10.899958
10.866739
10.833883
10.801407
10.769347
10.737755
10.706708
10.676306
10.646683
10.618013
10.590526
10.564514
10.540351
10.518501
10.499547
10.484166
10.473161
10.467336
10.467407
10.473886
10.487339
10.508377
10.537561
10.575385
10.595419
10.555361
10.525007
10.503832
10.491136
10.485961
10.487462
10.494882
10.507466
10.524331
10.544627
10.56764
10.592802
10.619662
10.647871
10.677155
10.707309
10.738175
10.769635
10.801599
10.834005
10.866812
10.899998
10.933548
10.96743
11.001515
11.035497
11.068822
11.100747
11.100735
11.068808
11.035483
11.001506
10.967429
10.933564
10.900038
10.866891
10.834139
10.801811
10.769955
10.738647
10.707989
10.678122
10.649231
10.621564
10.595448
10.571311
10.54971
10.531349
10.517119
10.507971
10.504839
10.508686
10.520793
10.542526
10.575053
10.619332
10.676039
10.713637
10.646496
10.596051
10.560583
10.538106
10.526581
10.524071
10.528915
10.539835
10.55576
10.575623
10.598517
10.623744
10.650775
10.67921
10.708749
10.73917
10.770309
10.802042
10.834284
10.866975
10.900081
10.93358
10.967428
11.001496
11.03547
11.068793
11.100722
11.100714
11.068782
11.035458
11.001487
10.967428
10.933597
10.900127
10.867064
10.834438
10.80229
10.770689
10.739737
10.709578
10.680406
10.652488
10.626185
10.601989
10.580563
10.562801
10.54984
10.542908
10.543477
10.553625
10.575902
10.613356
10.669506
10.747986
10.851834
11.064713
10.898216
10.773925
10.685347
10.62545
10.587832
10.567187
10.559461
10.561509
10.570934
10.586172
10.605871
10.628877
10.654353
10.681694
10.71046
10.740334
10.771084
10.802543
10.834592
10.867151
10.900168
10.93361
10.967425
11.001476
11.035444
11.06877
11.100706
11.100693
11.068746
11.035418
11.001452
10.967407
10.933607
10.900193
10.867222
10.834733
10.802787
10.771476
10.740939
10.711369
10.683037
10.656321
10.631754
10.610078
10.59237
10.580015
10.574626
10.578686
10.595738
10.630597
10.69006
10.78345
10.923096
11.123854
11.481308
11.144139
10.920571
10.77598
10.684753
10.630339
10.601149
10.589387
10.589907
10.599041
10.614546
10.634754
10.658344
10.684397
10.712274
10.741531
10.77185
10.803008
10.834849
10.867266
10.90019
10.933575
10.967357
11.001391
11.03535
11.068673
11.100616
11.100566
11.068594
11.035265
11.001308
10.967284
10.933519
10.900166
10.86729
10.834944
10.803207
10.772199
10.742094
10.713148
10.685722
10.660337
10.637744
10.619076
10.605898
10.60023
10.605349
10.62631
10.670854
10.751448
10.888114
11.112339
11.480588
12.018854
11.380466
11.031641
10.830841
10.716329
10.653249
10.621841
10.610575
10.612546
10.623413
10.64059
10.662213
10.686964
10.713968
10.742628
10.772536
10.803408
10.83505
10.867328
10.900156
10.933474
10.967208
11.001202
11.035123
11.06841
11.100328
11.100383
11.068435
11.035149
11.00124
10.967261
10.933543
10.900246
10.867449
10.835218
10.803649
10.772883
10.743134
10.714709
10.68806
10.663851
10.643086
10.627223
10.618381
10.619837
10.637048
10.679132
10.762286
10.916473
11.197544
11.738054
11.212493
10.920155
10.759097
10.670351
10.623664
10.602593
10.597995
10.604281
10.618036
10.637125
10.66004
10.685673
10.713288
10.74238
10.772599
10.803701
10.835517
10.86793
10.900869
10.934282
10.968109
11.002202
11.036232
11.06961
11.0696
11.069571
11.069345
11.036025
11.002043
10.967988
10.9342
10.900841
10.867987
10.835704
10.804082
10.773261
10.743451
10.714955
10.68822
10.663898
10.642986
10.626916
10.6178
10.618943
10.635859
10.677968
10.762534
10.922673
11.226198
11.82494
12.111407
11.352943
10.993466
10.80195
10.70064
10.649282
10.627092
10.622896
10.630161
10.645014
10.665125
10.688931
10.715321
10.74358
10.773223
10.803921
10.835451
10.86766
10.900449
10.933744
10.967453
11.0014
11.035242
11.06841
11.100194
11.100362
11.100431
11.10052
11.100726
11.100837
11.1009
11.100913
11.100914
11.100917
11.100925
11.100935
11.100944
11.10095
11.100953
11.100952
11.100947
11.100939
11.100928
11.100914
11.100898
11.100881
11.100862
11.100844
11.100827
11.100813
11.100805
11.100805
11.100811
11.100807
11.100755
11.100656
11.100461
11.100381
11.100319
11.100448
11.100586
11.10064
11.101113
11.101169
11.101449
11.101451
11.101475
11.101431
11.101397
11.101372
11.10136
11.101356
11.101355
11.101355
11.101355
11.101356
11.101356
11.101357
11.101357
11.101358
11.101358
11.101359
11.101359
11.10136
11.10136
11.10136
11.10136
11.101361
11.101361
11.101361
11.101361
11.101361
11.101361
11.101362
11.101362
11.101362
11.101362
11.101362
11.101362
11.101362
11.101361
11.101361
11.101361
11.101361
11.101361
11.10136
11.10136
11.10136
11.10136
11.101359
11.101359
11.101359
11.101358
11.101358
11.101357
11.101357
11.101356
11.101356
11.101355
11.101355
11.101354
11.101353
11.101353
11.101352
11.101351
11.101351
11.10135
11.101349
11.101348
11.101347
11.101347
11.101346
11.101345
11.101344
11.101344
11.101343
11.101344
11.101349
11.10136
11.101385
11.101419
11.101462
11.101438
11.101436
11.101157
11.1011
11.100627
11.100573
11.100476
11.12974
11.130298
11.130332
11.130974
11.13089
11.131234
11.131173
11.131217
11.131169
11.131146
11.131129
11.131124
11.131122
11.131123
11.131124
11.131125
11.131125
11.131125
11.131126
11.131127
11.131127
11.131128
11.131128
11.131128
11.131129
11.131129
11.13113
11.13113
11.131131
11.131131
11.131131
11.131132
11.131132
11.131132
11.131132
11.131133
11.131133
11.131133
11.131133
11.131134
11.131134
11.131134
11.131134
11.131134
11.131134
11.131134
11.131134
11.131134
11.131134
11.131135
11.131135
11.131134
11.131134
11.131134
11.131134
11.131134
11.131134
11.131134
11.131134
11.131134
11.131133
11.131133
11.131133
11.131133
11.131132
11.131132
11.131132
11.131131
11.131131
11.131131
11.13113
11.13113
11.131129
11.131129
11.131129
11.131128
11.131127
11.131126
11.131128
11.131133
11.13115
11.131173
11.131221
11.131177
11.131238
11.130894
11.130978
11.130336
11.130303
11.130363
11.158107
11.158248
11.1586
11.15869
11.158867
11.158858
11.158857
11.158821
11.158798
11.158784
11.158779
11.158777
11.158777
11.158777
11.158777
11.158778
11.158778
11.158778
11.158779
11.158779
11.158779
11.158779
11.158779
11.158779
11.158779
11.15878
11.15878
11.15878
11.15878
11.15878
11.15878
11.15878
11.15878
11.15878
11.15878
11.15878
11.15878
11.158781
11.158781
11.158781
11.15878
11.158781
11.158781
11.15878
11.15878
11.15878
11.15878
11.15878
11.15878
11.15878
11.15878
11.15878
11.15878
11.15878
11.15878
11.15878
11.158779
11.158779
11.158779
11.158779
11.158779
11.158779
11.158779
11.158778
11.158778
11.158778
11.158778
11.158778
11.158777
11.158777
11.158777
11.158777
11.158777
11.158776
11.158776
11.158776
11.158776
11.158778
11.158783
11.158797
11.15882
11.158856
11.158857
11.158866
11.158689
11.158599
11.158246
11.158106
11.158105
11.15841
11.158713
11.158946
11.159092
11.159127
11.159106
11.159067
11.159035
11.159016
11.159006
11.159002
11.159001
11.159001
11.159
11.159001
11.159001
11.159002
11.159002
11.159002
11.159002
11.159002
11.159002
11.159003
11.159003
11.159003
11.159003
11.159004
11.159003
11.159003
11.159004
11.159004
11.159004
11.159004
11.159004
11.159004
11.159005
11.159005
11.159005
11.159004
11.159005
11.159005
11.159005
11.159005
11.159005
11.159005
11.159005
11.159005
11.159005
11.159005
11.159005
11.159005
11.159005
11.159005
11.159005
11.159005
11.159005
11.159005
11.159005
11.159004
11.159004
11.159004
11.159004
11.159004
11.159004
11.159004
11.159004
11.159003
11.159003
11.159003
11.159003
11.159003
11.159003
11.159002
11.159002
11.159003
11.159004
11.159008
11.159018
11.159037
11.159069
11.159108
11.159129
11.159094
11.158948
11.158715
11.158412
11.158107
11.158287
11.158564
11.158908
11.159195
11.159356
11.159393
11.159363
11.159316
11.159279
11.159256
11.159245
11.15924
11.159238
11.159237
11.159237
11.159237
11.159237
11.159238
11.159238
11.159238
11.159238
11.159238
11.159238
11.159238
11.159239
11.159239
11.159239
11.159239
11.159239
11.159239
11.159239
11.159239
11.159239
11.159239
11.159239
11.159239
11.159239
11.159239
11.159239
11.159239
11.159239
11.159239
11.159239
11.159239
11.159239
11.159239
11.159239
11.159239
11.159238
11.159239
11.159239
11.159239
11.159238
11.159238
11.159238
11.159238
11.159238
11.159238
11.159237
11.159237
11.159237
11.159237
11.159237
11.159237
11.159236
11.159236
11.159236
11.159236
11.159235
11.159235
11.159235
11.159235
11.159235
11.159234
11.159234
11.159235
11.159237
11.159242
11.159253
11.159276
11.159313
11.15936
11.15939
11.159353
11.159192
11.158905
11.158561
11.158284
11.158334
11.158729
11.159125
11.159441
11.159607
11.159636
11.159596
11.159542
11.159501
11.159476
11.159464
11.159459
11.159457
11.159457
11.159457
11.159457
11.159457
11.159457
11.159458
11.159458
11.159458
11.159458
11.159458
11.159459
11.159459
11.159459
11.159459
11.159459
11.159459
11.15946
11.15946
11.15946
11.15946
11.15946
11.15946
11.159461
11.159461
11.159461
11.159461
11.159461
11.159461
11.159461
11.159461
11.159461
11.159461
11.159462
11.159462
11.159462
11.159462
11.159462
11.159462
11.159462
11.159462
11.159462
11.159462
11.159462
11.159462
11.159462
11.159462
11.159462
11.159462
11.159462
11.159462
11.159462
11.159462
11.159462
11.159462
11.159462
11.159461
11.159461
11.159461
11.159461
11.159461
11.159461
11.159461
11.159462
11.159464
11.159469
11.159481
11.159505
11.159547
11.1596
11.159641
11.159612
11.159446
11.15913
11.158734
11.15834
11.158499
11.158886
11.159306
11.159631
11.159791
11.159809
11.159759
11.159698
11.159654
11.159629
11.159617
11.159612
11.15961
11.159609
11.159609
11.159609
11.159609
11.159609
11.159609
11.159609
11.159609
11.159609
11.159609
11.159609
11.159609
11.159609
11.159609
11.159609
11.159609
11.159609
11.159609
11.159609
11.159609
11.159609
11.159609
11.159609
11.159609
11.159609
11.159608
11.159608
11.159608
11.159608
11.159608
11.159608
11.159608
11.159608
11.159608
11.159608
11.159607
11.159607
11.159607
11.159607
11.159607
11.159607
11.159607
11.159607
11.159606
11.159606
11.159606
11.159606
11.159606
11.159605
11.159605
11.159605
11.159605
11.159605
11.159604
11.159604
11.159604
11.159604
11.159603
11.159603
11.159603
11.159603
11.159603
11.159603
11.159605
11.15961
11.159622
11.159647
11.159691
11.159752
11.159802
11.159784
11.159623
11.159298
11.158878
11.158491
11.158519
11.158953
11.159382
11.159704
11.159856
11.159864
11.159806
11.159741
11.159695
11.159669
11.159657
11.159652
11.159651
11.15965
11.15965
11.159651
11.159651
11.159651
11.159651
11.159652
11.159652
11.159652
11.159652
11.159653
11.159653
11.159653
11.159653
11.159653
11.159654
11.159654
11.159654
11.159654
11.159654
11.159655
11.159655
11.159655
11.159655
11.159655
11.159655
11.159656
11.159656
11.159656
11.159656
11.159656
11.159656
11.159656
11.159657
11.159657
11.159657
11.159657
11.159657
11.159657
11.159657
11.159657
11.159658
11.159658
11.159658
11.159658
11.159658
11.159658
11.159658
11.159658
11.159658
11.159658
11.159659
11.159659
11.159659
11.159659
11.159659
11.159659
11.159659
11.159659
11.159659
11.159659
11.159659
11.15966
11.159662
11.159667
11.159679
11.159705
11.159751
11.159816
11.159874
11.159866
11.159714
11.159392
11.158964
11.15853
11.158554
11.158981
11.159408
11.159724
11.159868
11.15987
11.159806
11.159739
11.159691
11.159665
11.159653
11.159648
11.159646
11.159645
11.159645
11.159645
11.159645
11.159645
11.159645
11.159644
11.159644
11.159644
11.159644
11.159644
11.159644
11.159644
11.159643
11.159643
11.159643
11.159643
11.159643
11.159643
11.159642
11.159642
11.159642
11.159642
11.159642
11.159642
11.159641
11.159641
11.159641
11.159641
11.159641
11.15964
11.15964
11.15964
11.15964
11.15964
11.15964
11.159639
11.159639
11.159639
11.159639
11.159639
11.159638
11.159638
11.159638
11.159638
11.159638
11.159637
11.159637
11.159637
11.159637
11.159636
11.159636
11.159636
11.159636
11.159635
11.159635
11.159635
11.159635
11.159634
11.159634
11.159634
11.159634
11.159634
11.159636
11.15964
11.159652
11.159678
11.159725
11.159793
11.159856
11.159854
11.15971
11.159394
11.158967
11.15854
11.158524
11.158953
11.159376
11.159688
11.159827
11.159826
11.15976
11.159691
11.159643
11.159617
11.159606
11.159601
11.1596
11.159599
11.159599
11.1596
11.1596
11.1596
11.159601
11.159601
11.159601
11.159601
11.159602
11.159602
11.159602
11.159602
11.159603
11.159603
11.159603
11.159603
11.159604
11.159604
11.159604
11.159604
11.159605
11.159605
11.159605
11.159605
11.159606
11.159606
11.159606
11.159606
11.159606
11.159607
11.159607
11.159607
11.159607
11.159608
11.159608
11.159608
11.159608
11.159609
11.159609
11.159609
11.159609
11.15961
11.15961
11.15961
11.15961
11.159611
11.159611
11.159611
11.159611
11.159612
11.159612
11.159612
11.159612
11.159612
11.159613
11.159613
11.159613
11.159613
11.159613
11.159614
11.159614
11.159615
11.159616
11.159621
11.159634
11.15966
11.159708
11.159777
11.159843
11.159845
11.159706
11.159395
11.158972
11.158543
11.158534
11.158959
11.159379
11.159687
11.159824
11.15982
11.159753
11.159684
11.159636
11.15961
11.159598
11.159593
11.159591
11.15959
11.15959
11.15959
11.159589
11.159589
11.159589
11.159588
11.159588
11.159588
11.159587
11.159587
11.159587
11.159586
11.159586
11.159586
11.159585
11.159585
11.159585
11.159584
11.159584
11.159584
11.159583
11.159583
11.159583
11.159582
11.159582
11.159582
11.159581
11.159581
11.159581
11.159581
11.15958
11.15958
11.15958
11.15958
11.159579
11.159579
11.159579
11.159578
11.159578
11.159578
11.159578
11.159577
11.159577
11.159577
11.159577
11.159576
11.159576
11.159576
11.159576
11.159575
11.159575
11.159575
11.159574
11.159574
11.159574
11.159574
11.159573
11.159573
11.159573
11.159572
11.159572
11.159572
11.159574
11.159578
11.15959
11.159616
11.159663
11.159733
11.159799
11.159803
11.159666
11.159357
11.158936
11.158511
11.158502
11.158925
11.159343
11.159651
11.159787
11.159784
11.159717
11.159648
11.1596
11.159574
11.159563
11.159559
11.159557
11.159557
11.159557
11.159558
11.159558
11.159558
11.159558
11.159559
11.159559
11.159559
11.15956
11.15956
11.15956
11.159561
11.159561
11.159561
11.159562
11.159562
11.159562
11.159562
11.159563
11.159563
11.159563
11.159564
11.159564
11.159564
11.159564
11.159565
11.159565
11.159565
11.159566
11.159566
11.159566
11.159567
11.159567
11.159567
11.159568
11.159568
11.159569
11.159569
11.159569
11.15957
11.15957
11.159571
11.159571
11.159571
11.159572
11.159572
11.159573
11.159573
11.159574
11.159574
11.159575
11.159575
11.159575
11.159576
11.159576
11.159577
11.159577
11.159578
11.159578
11.159578
11.159579
11.15958
11.159582
11.159586
11.159599
11.159625
11.159672
11.159742
11.159809
11.159813
11.159678
11.15937
11.158952
11.15853
11.158532
11.158951
11.159368