/*--------------------------------*- C++ -*----------------------------------*\
| =========                 |                                                 |
| \\      /  F ield         | OpenFOAM: The Open Source CFD Toolbox           |
|  \\    /   O peration     | Version:  v2012                                 |
|   \\  /    A nd           | Website:  www.openfoam.com                      |
|    \\/     M anipulation  |                                                 |
\*---------------------------------------------------------------------------*/
FoamFile
{
    version     2.0;
    format      ascii;
    class       volScalarField;
    location    "100";
    object      p;
}
// * * * * * * * * * * * * * * * * * * * * * * * * * * * * * * * * * * * * * //

dimensions      [0 2 -2 0 0 0 0];


internalField   nonuniform List<scalar> 
229912
(
-0.20923347
-0.20912298
-0.2090642
-0.20941481
-0.20952677
-0.20976694
-0.21016272
-0.21073947
-0.21149685
-0.21243769
-0.21353746
-0.2147869
-0.21616971
-0.21767622
-0.21929565
-0.22101679
-0.22282713
-0.22471331
-0.22666129
-0.22865661
-0.23068448
-0.23272999
-0.23477818
-0.23681421
-0.23882341
-0.24079141
-0.24270424
-0.24454848
-0.24631131
-0.2479808
-0.24954593
-0.25099705
-0.25232503
-0.2535215
-0.25457285
-0.25546904
-0.25619203
-0.25673889
-0.25712047
-0.25735257
-0.25747867
-0.25726104
-0.2568576
-0.25620205
-0.25527037
-0.25405248
-0.25255292
-0.25080301
-0.24881206
-0.24659357
-0.24414932
-0.24148176
-0.23859329
-0.2354882
-0.23217186
-0.22865048
-0.22493077
-0.2210198
-0.21692484
-0.21265335
-0.20821295
-0.20361131
-0.19885615
-0.19395525
-0.18891633
-0.18374708
-0.17845511
-0.17304791
-0.16753287
-0.1619172
-0.15620794
-0.15041197
-0.14453594
-0.13858632
-0.13256937
-0.12649115
-0.12035752
-0.11417412
-0.10794646
-0.10167988
-0.095379551
-0.089050546
-0.082697768
-0.076325896
-0.069939678
-0.063543926
-0.057143382
-0.050742788
-0.044346928
-0.037960661
-0.031588933
-0.02523681
-0.018909509
-0.012612409
-0.006351083
-0.00013130853
0.0060409211
0.012159374
0.01821755
0.024208701
0.030125822
0.035961628
0.041708546
0.047358681
0.05290396
0.058335951
0.063646295
0.068826611
0.073867823
0.07876079
0.08349633
0.088065189
0.0924581
0.096665806
0.10067913
0.10448905
0.10808682
0.11146418
0.11461377
0.11752934
0.12020697
0.12264224
0.12483317
0.12676089
0.12842224
0.12977018
0.13081468
0.13153388
0.131988
0.13221462
0.13329319
0.13533375
0.13866671
0.14348282
0.14985785
0.15782263
0.16723613
0.17805452
0.19019191
0.20361517
0.21828488
0.2341571
0.25117456
0.26926877
0.28835763
0.30834477
0.32913867
0.35062316
0.37265835
0.39510243
0.41780253
0.44059058
0.46328611
0.48569794
0.5076263
0.52886588
0.5492103
0.56845935
0.58640972
0.60286385
0.61754249
0.63022598
0.64055187
0.64842709
0.65390264
0.65719215
0.65880511
0.65783577
0.65606646
0.65317761
0.64911963
0.64384126
0.63741301
0.62999404
0.62166642
0.61252456
0.60261514
0.59198678
0.58068778
0.56877505
0.55630737
0.54334441
0.52994516
0.51616649
0.50206273
0.48768528
0.47308237
0.45829898
0.44337678
0.42835412
0.41326616
0.39814495
0.38301952
0.36791614
0.35285793
0.33786558
0.32295764
0.30815029
0.29345776
0.27889236
0.26446464
0.25018346
0.23605628
0.22208936
0.20828766
0.19465517
0.18119504
0.16790961
0.15480056
0.14186898
0.12911551
0.11654049
0.10414401
0.091926013
0.079886384
0.068025086
0.056342232
0.044838139
0.03351345
0.022369191
0.011406789
0.00062818188
-0.009964085
-0.020366901
-0.030576506
-0.040588462
-0.05039769
-0.059998434
-0.069384289
-0.078548225
-0.087482597
-0.096179222
-0.10462943
-0.11282408
-0.12075355
-0.12840786
-0.1357776
-0.14285339
-0.14962342
-0.156078
-0.16220715
-0.16800101
-0.17345019
-0.17854602
-0.18328109
-0.18764959
-0.19164877
-0.19527554
-0.19852794
-0.20138347
-0.20383027
-0.20581566
-0.20733862
-0.20840495
-0.20846094
-0.20738822
-0.20586458
-0.20387522
-0.20143884
-0.19858348
-0.19533338
-0.1917032
-0.18769925
-0.18332498
-0.17858435
-0.17348306
-0.16802846
-0.16222922
-0.15609463
-0.1496344
-0.14285874
-0.13577725
-0.1284006
-0.12073921
-0.11280275
-0.10460124
-0.096144288
-0.087440932
-0.078499855
-0.069329235
-0.059936669
-0.050329255
-0.040513489
-0.030494992
-0.02027885
-0.0098696152
0.00072905687
0.011514112
0.022482986
0.033633741
0.044964978
0.056475722
0.068165345
0.080033557
0.092080325
0.10430563
0.11670964
0.1292926
0.14205428
0.15499436
0.16811235
0.18140719
0.19487728
0.20852022
0.22233282
0.23631131
0.25045084
0.26474507
0.27918638
0.29376614
0.30847401
0.32329751
0.33822235
0.3532325
0.36830911
0.38343216
0.39857886
0.41372234
0.42883377
0.4438812
0.45882922
0.47363945
0.48827034
0.50267685
0.51681056
0.53061985
0.5440504
0.55704533
0.56954573
0.58149196
0.59282518
0.60348894
0.61343113
0.62260101
0.63094039
0.63837467
0.64479905
0.65010373
0.65419433
0.65710523
0.65890067
0.6597857
0.66311297
0.6694972
0.6795102
0.69359993
0.71217478
0.73532659
0.7633575
0.79660484
0.83561617
0.88108975
0.9338952
0.99510302
1.0660235
1.1483385
1.2440069
1.3559904
1.4865425
1.6471016
1.8528115
2.1024085
2.3990321
2.757363
3.1930434
3.725575
4.3837034
-1.1551419
-1.1749888
-1.1931233
-1.209432
-1.2238002
-1.2361113
-1.24625
-1.2541191
-1.259643
-1.2626543
-1.2628817
-1.2604318
-1.2553689
-1.24754
-1.236908
-1.2234229
-1.2071263
-1.1880412
-1.1662714
-1.1419188
-1.1151594
-1.0861777
-1.0552219
-1.0225482
-0.98846535
-0.9532827
-0.9173471
-0.88094938
-0.84440014
-0.80805408
-0.77220439
-0.73710365
-0.70297326
-0.66999928
-0.63832577
-0.60806114
-0.57927768
-0.55202094
-0.5263075
-0.50213064
-0.47946199
-0.45825782
-0.4384648
-0.420022
-0.40285982
-0.38690598
-0.37208846
-0.35833436
-0.345572
-0.33373262
-0.32275059
-0.31256402
-0.30311516
-0.29434997
-0.28621866
-0.27867589
-0.27168001
-0.26519321
-0.25918143
-0.25361403
-0.24846339
-0.24370493
-0.23931684
-0.23527973
-0.23157649
-0.22819193
-0.22511265
-0.22232679
-0.21982388
-0.21759476
-0.21563218
-0.21393177
-0.21249274
-0.21131758
-0.21040855
-0.20975591
-0.20933709
-0.20867546
-0.20759612
-0.20605787
-0.20405777
-0.2016163
-0.19875924
-0.19550449
-0.19186617
-0.18785135
-0.18346413
-0.17870912
-0.17359236
-0.16812138
-0.16230488
-0.15615221
-0.14967321
-0.1428783
-0.13577784
-0.1283809
-0.12069895
-0.11274207
-0.10451993
-0.096042081
-0.087317733
-0.078355657
-0.069164092
-0.059750646
-0.05012246
-0.040286135
-0.030247196
-0.020010662
-0.0095811531
0.0010377446
0.011843081
0.022832272
0.034003355
0.045355108
0.056886745
0.068597594
0.080487432
0.092556463
0.10480473
0.11723248
0.12984024
0.14262775
0.15559469
0.16874089
0.18206547
0.19556691
0.20924284
0.22309018
0.2371054
0.25128397
0.2656195
0.28010435
0.29473017
0.30948703
0.32436241
0.33934209
0.35441045
0.369549
0.38473727
0.39995221
0.41516748
0.4303544
0.44548101
0.46051177
0.47540821
0.49012879
0.50462825
0.51885785
0.53276545
0.54629635
0.5593932
0.57199636
0.58404531
0.59548005
0.60624268
0.61627858
0.62553477
0.63395289
0.64146067
0.6479582
0.65333347
0.65750152
0.66046562
0.66230835
0.66873258
0.67874406
0.69282599
0.71129272
0.7343453
0.76224207
0.79536325
0.83423552
0.87954342
0.93214134
0.99308693
1.0636764
1.1455649
1.2406906
1.3519603
1.4814677
1.6403915
1.8436735
2.0906236
2.3848863
2.7412554
3.1797506
3.7355836
4.4742162
4.3701515
3.6705326
3.1317811
2.7031667
2.3550436
2.067205
1.825316
1.6267122
1.4710253
1.3435274
1.2336429
1.1396408
1.0586381
0.98875076
0.92836678
0.87622058
0.83127848
0.79270386
0.75982398
0.7321168
0.70920251
0.69082851
0.67680284
0.66684187
0.66379727
0.6736556
0.68754938
0.70574326
0.72841413
0.75580528
0.78828789
0.82637235
0.87071215
0.92211631
0.98158025
1.0503197
1.1298721
1.2220391
1.3295374
1.454022
1.604635
1.7956603
2.0291705
2.3061128
2.6387365
3.0445239
3.5487579
4.1844544
4.3147352
3.654122
3.1331611
2.7092128
2.3621124
2.0739644
1.8312792
1.631267
1.4744206
1.346389
1.236204
1.1418975
1.0606447
0.99055104
0.92999785
0.87771323
0.83265742
0.79398843
0.76103019
0.73326136
0.71030707
0.691914
0.67789087
0.6679234
0.66154235
0.6582076
0.65485806
0.64933052
0.64140395
0.6310092
0.61831459
0.60358541
0.58709157
0.56907617
0.54975596
0.52933825
0.50802728
0.48602884
0.46354968
0.44079007
0.41794128
0.39518406
0.37268706
0.3506048
0.32907884
0.30824346
0.28821489
0.26909173
0.25096778
0.23392326
0.21802645
0.20333424
0.18989308
0.17774359
0.16693019
0.1575136
0.14956873
0.14317198
0.13834724
0.13500089
0.13296068
0.13193419
0.13090097
0.12883638
0.12559804
0.12107148
0.11517152
0.10793299
0.09934212
0.089394709
0.078048862
0.065252807
0.050948877
0.035079052
0.017585017
-0.0015908434
-0.022504697
-0.045210119
-0.069756757
-0.096188647
-0.12454282
-0.1548473
-0.18711958
-0.2213642
-0.25757112
-0.29571382
-0.33574981
-0.37761649
-0.42123169
-0.46649166
-0.51327283
-0.56142917
-0.61079612
-0.66118808
-0.71240494
-0.76422249
-0.81643671
-0.81676983
-0.76439971
-0.71242731
-0.66106243
-0.61052859
-0.56102821
-0.51274708
-0.46585176
-0.42048829
-0.37678106
-0.33483337
-0.29472858
-0.25652968
-0.22027777
-0.18599656
-0.15369682
-0.12337514
-0.095012577
-0.068579377
-0.044037539
-0.021342342
-0.00044301842
0.018714934
0.03618887
0.052037561
0.06632001
0.079094801
0.090418349
0.10034082
0.10889974
0.11611439
0.12198665
0.12651726
0.12976394
0.13185543
0.13388525
0.13179377
0.12855586
0.12403776
0.11818809
0.11100629
0.10248909
0.092613728
0.081339951
0.068616074
0.054384481
0.038585146
0.021157363
0.0020406121
-0.018824518
-0.041495039
-0.066023597
-0.09245678
-0.12083518
-0.15119053
-0.18354303
-0.21789916
-0.25425197
-0.29257709
-0.33283201
-0.37495619
-0.41886578
-0.46445729
-0.51160499
-0.56016174
-0.60995799
-0.6608061
-0.71249956
-0.76481184
-0.81752887
-0.81882841
-0.76552279
-0.71263258
-0.66037979
-0.60899625
-0.55869519
-0.5096688
-0.46209059
-0.41611057
-0.37185666
-0.32943374
-0.28892569
-0.25039143
-0.21387114
-0.17938646
-0.1469439
-0.11653241
-0.088129261
-0.061700126
-0.037198825
-0.014574615
0.0062290808
0.025272822
0.042619212
0.058332373
0.072475894
0.08511199
0.096300651
0.10609605
0.11454137
0.12166245
0.12746363
0.13194552
0.13515748
0.13723609
0.1420898
0.14004374
0.13687386
0.13245198
0.12673107
0.11970568
0.1113718
0.10169888
0.090639779
0.078137289
0.064128055
0.048545745
0.031322562
0.01239025
-0.0083188459
-0.030870594
-0.055329447
-0.081749525
-0.11018129
-0.14066551
-0.17323139
-0.20789479
-0.24465419
-0.28349049
-0.32436533
-0.36722088
-0.41197468
-0.45852029
-0.50672687
-0.55643985
-0.60748056
-0.65964951
-0.71272449
-0.76646472
-0.82063877
-0.82299777
-0.76765134
-0.71276253
-0.65857812
-0.60535128
-0.55331545
-0.50267964
-0.45362989
-0.40632712
-0.36090627
-0.3174729
-0.27611183
-0.23688
-0.19981071
-0.16491788
-0.13219681
-0.10162519
-0.073166232
-0.046771293
-0.022382185
6.3916586e-05
0.020637649
0.039412792
0.05646381
0.071865207
0.085690409
0.098010822
0.1088944
0.11840261
0.12658562
0.13347656
0.13908629
0.14342015
0.1465251
0.14852426
0.15650095
0.15456396
0.15154363
0.1473236
0.14185821
0.13513689
0.12714759
0.11785202
0.10719528
0.095110764
0.081524875
0.06635994
0.049535444
0.03096904
0.010577798
-0.011720385
-0.036005202
-0.062353835
-0.09083281
-0.12149998
-0.15440182
-0.18956978
-0.2270172
-0.26673685
-0.30870053
-0.35285416
-0.39911305
-0.44736961
-0.49748387
-0.5492874
-0.60258427
-0.65715292
-0.71274504
-0.769092
-0.82592878
-0.82943932
-0.77078788
-0.71266249
-0.6553546
-0.59915187
-0.54432156
-0.49110053
-0.43969733
-0.39028941
-0.34302274
-0.29800897
-0.25532913
-0.21503465
-0.17714695
-0.14166445
-0.10856356
-0.077802937
-0.049324085
-0.023053585
0.0010892599
0.023191977
0.043346093
0.061645033
0.078182181
0.093049415
0.10633579
0.11812644
0.12850253
0.13753726
0.14529023
0.15180256
0.15709156
0.16116773
0.16408164
0.16594728
0.17679476
0.17501095
0.17222307
0.16831504
0.16323847
0.15697903
0.14951392
0.1407966
0.13076066
0.11932636
0.10640552
0.091903922
0.075722404
0.057757896
0.037904684
0.016056276
-0.0078929
-0.034046409
-0.062500568
-0.09334239
-0.12664589
-0.16247261
-0.20085637
-0.24180783
-0.28531357
-0.33132905
-0.3797752
-0.43053654
-0.48346045
-0.53835838
-0.59500611
-0.65314694
-0.71249068
-0.77272823
-0.77493471
-0.71222141
-0.65048916
-0.59007866
-0.53130699
-0.47445432
-0.41976313
-0.36743579
-0.31763265
-0.27047167
-0.22603079
-0.18434614
-0.14542037
-0.10923353
-0.075727953
-0.044826314
-0.016436944
0.0095461606
0.033238159
0.054759872
0.074234221
0.091783878
0.10752904
0.12158576
0.1340647
0.14507022
0.15469922
0.16303891
0.17016231
0.17612192
0.18094644
0.18465512
0.18729762
0.18898848
0.20248401
0.20090112
0.19842797
0.19495258
0.19042329
0.18481533
0.17809353
0.17019877
0.16105089
0.15055448
0.13860303
0.12508094
0.10986453
0.092822979
0.07381945
0.052712909
0.029360457
0.0036199179
-0.024646377
-0.055567496
-0.089259153
-0.12581903
-0.16532153
-0.20781148
-0.25329789
-0.30175296
-0.35310291
-0.40722696
-0.46395507
-0.52306843
-0.58430182
-0.64734647
-0.71185088
-0.77743944
-0.78027477
-0.71136726
-0.64365986
-0.5775754
-0.51350619
-0.45179564
-0.3927366
-0.3365672
-0.28346934
-0.23356561
-0.18692456
-0.14356231
-0.1034522
-0.066525818
-0.032683862
-0.0018013857
0.026265007
0.051672115
0.074584246
0.095168693
0.11359168
0.13001539
0.14459558
0.15747978
0.16880614
0.17870265
0.18728627
0.19466119
0.20091517
0.20611439
0.21030107
0.21350609
0.21578329
0.21724089
0.23321245
0.23189909
0.2298469
0.22695261
0.22316025
0.21843237
0.21271921
0.20594726
0.19802082
0.1888264
0.17823588
0.16610785
0.15228824
0.13661094
0.11889886
0.098965618
0.076618052
0.051659456
0.023893819
-0.0068687363
-0.040805494
-0.07807458
-0.11880704
-0.16309853
-0.21099974
-0.26250943
-0.31756671
-0.37604741
-0.43775758
-0.50243616
-0.56975744
-0.63933483
-0.71072589
-0.78345273
-0.78703511
-0.70992777
-0.63430693
-0.56072265
-0.48967717
-0.42161021
-0.35688849
-0.29580119
-0.23855591
-0.18527774
-0.13601591
-0.090750446
-0.049401012
-0.011836872
0.022112119
0.052644795
0.079979618
0.10434606
0.12597731
0.14510445
0.16195166
0.17673252
0.18964805
0.20088487
0.21061429
0.21899202
0.22615793
0.23223506
0.2373272
0.24151548
0.24485744
0.24739741
0.24919328
0.25034217
0.26856228
0.26759933
0.2660933
0.2639545
0.26112347
0.25754886
0.25316519
0.24788377
0.24159276
0.2341595
0.2254321
0.21523981
0.2033929
0.1896825
0.17388134
0.1557449
0.13501389
0.11141742
0.084678637
0.054520832
0.020676024
-0.017104907
-0.059040635
-0.10530705
-0.15602297
-0.21123726
-0.27091655
-0.33493683
-0.40307447
-0.47500634
-0.55031509
-0.62849558
-0.70897248
-0.70786798
-0.62181178
-0.53835104
-0.45815752
-0.38181581
-0.30980567
-0.24249152
-0.18011477
-0.12279487
-0.070542555
-0.023270717
0.01918919
0.057070503
0.090653054
0.12024787
0.14618285
0.16879074
0.18839967
0.20532619
0.21986961
0.23230857
0.24289891
0.25187339
0.25944112
0.26578825
0.27107861
0.27545421
0.27903455
0.28191571
0.28417099
0.28585857
0.28703905
0.28779368
0.30794574
0.30742288
0.30660529
0.3054218
0.30381126
0.30170882
0.29903377
0.29568323
0.29153084
0.28642589
0.28019301
0.2726308
0.26351023
0.25257375
0.23953465
0.22407671
0.2058558
0.18450318
0.15963099
0.13083972
0.097729069
0.059911794
0.017031307
-0.031219003
-0.085072801
-0.14466938
-0.21002988
-0.28104201
-0.35744466
-0.43882452
-0.52462267
-0.61415147
-0.70662026
-0.70525377
-0.60538698
-0.50885842
-0.41661463
-0.32946931
-0.24807976
-0.17292042
-0.10427281
-0.042235517
0.013257841
0.062415652
0.10555736
0.14308395
0.17544845
0.20313155
0.22662089
0.24639497
0.26291108
0.27659719
0.28784694
0.29701723
0.30442752
0.31036079
0.31506557
0.31875789
0.32162366
0.32382105
0.32548221
0.32671563
0.32760888
0.32823302
0.32864851
0.32891418
0.35058229
0.35060028
0.35062781
0.3506202
0.35051966
0.35024972
0.34971699
0.3488088
0.34738892
0.34529362
0.34232817
0.33826348
0.33283266
0.32572736
0.31659439
0.30503368
0.29059745
0.272791
0.25107756
0.22488583
0.19362266
0.15669208
0.11352012
0.0635847
0.0064528096
-0.058176984
-0.13043604
-0.21025071
-0.29731963
-0.39109146
-0.49078015
-0.59540857
-0.70383951
-0.58414691
-0.47008012
-0.36174471
-0.26032005
-0.16675799
-0.081708039
-0.0054873343
0.061868289
0.12058263
0.17108767
0.21396508
0.24989351
0.27959968
0.30382162
0.32327856
0.33865056
0.35056532
0.35959089
0.36623343
0.3709378
0.37409047
0.3760239
0.37702145
0.3773225
0.3771278
0.37660412
0.37588931
0.37509824
0.37432861
0.37366103
0.37314961
0.37282272
0.3954922
0.39615391
0.39719013
0.39859144
0.40030915
0.40226013
0.40434432
0.40644721
0.4084325
0.41013409
0.41134919
0.41183163
0.41128514
0.40935622
0.40562686
0.39960754
0.39073127
0.37834984
0.36173355
0.34007627
0.31250798
0.27811672
0.23598333
0.18522644
0.12506574
0.054887784
-0.025662109
-0.11660715
-0.21763075
-0.32792279
-0.44629388
-0.57132243
-0.55789175
-0.41967946
-0.28920424
-0.16831029
-0.058569461
0.039012141
0.12426928
0.19730674
0.25866456
0.30920981
0.34998655
0.38214029
0.40683399
0.42519132
0.43826096
0.44699351
0.45223114
0.45470698
0.4550493
0.45378997
0.45137435
0.44817191
0.44448637
0.44056525
0.43660842
0.43277675
0.42920091
0.42599189
0.42324942
0.42105717
0.41945645
0.41843501
0.44148154
0.44288625
0.44508908
0.44812669
0.45196752
0.45652976
0.46171698
0.46742579
0.47353597
0.47989766
0.48632048
0.49256285
0.49832129
0.50321811
0.50678777
0.50846173
0.50755338
0.50324318
0.49456762
0.48041379
0.45952406
0.43051637
0.39192058
0.34225231
0.28011751
0.20427084
0.1137878
0.0083779332
-0.11136407
-0.24392282
-0.38765204
-0.34427592
-0.18497311
-0.039896037
0.088876679
0.20087141
0.2964505
0.37529862
0.43760134
0.48545508
0.52075972
0.5454437
0.56136286
0.57020885
0.57348019
0.57246797
0.56826067
0.56176094
0.55370597
0.54469059
0.53518938
0.52557717
0.51614684
0.5071246
0.49868323
0.49095452
0.48404245
0.47803805
0.4730309
0.46909817
0.4662591
0.4644497
0.48714674
0.48937855
0.49288295
0.49775365
0.50398654
0.51151228
0.52025221
0.53013288
0.5410733
0.55296796
0.56567165
0.57898518
0.59263973
0.60627845
0.61943394
0.63150158
0.64170903
0.64908159
0.65240891
0.65021167
0.6407222
0.62188402
0.59134835
0.54646811
0.48499749
0.40619392
0.30881064
0.19053659
0.050363335
-0.11108323
0.15802799
0.31484217
0.44260402
0.5419659
0.61661414
0.67198301
0.71107657
0.73513778
0.74617727
0.74742506
0.74136088
0.73003976
0.71512859
0.69794361
0.67950896
0.6606076
0.64182954
0.62361251
0.60627574
0.59004711
0.57508474
0.56149464
0.54934668
0.53869139
0.5295789
0.52207248
0.51623019
0.51203816
0.50937036
0.53091171
0.53402394
0.53891768
0.54575369
0.55456666
0.56531336
0.57795057
0.59245771
0.60882264
0.62702141
0.64700026
0.66865852
0.69182957
0.71625658
0.74156077
0.76720074
0.79242066
0.81618461
0.83710621
0.85334699
0.86258327
0.86151406
0.8483142
0.82200121
0.77748209
0.70613008
0.60133057
0.46045724
0.28320529
0.63348912
0.78846248
0.89813292
0.96717949
1.0015546
1.0101528
1.0042073
0.99019548
0.96812118
0.93945827
0.90712525
0.87307633
0.8387103
0.80501478
0.77266554
0.74211041
0.71363188
0.68739464
0.6634806
0.64191463
0.62268416
0.60575643
0.59109699
0.57869077
0.5685563
0.56071828
0.55511862
0.55156042
0.57110619
0.5751048
0.58140368
0.59023618
0.60168627
0.61575115
0.63244143
0.65181362
0.67395662
0.69897062
0.72694902
0.75796217
0.79203877
0.82914041
0.86912525
0.91169591
0.95632765
1.0021624
1.0479021
1.0912341
1.1310207
1.1687649
1.1990988
1.2086894
1.1871263
1.1250216
1.0128006
0.84172449
1.0951555
1.2845659
1.3961025
1.4449489
1.4449316
1.4121606
1.355819
1.2882183
1.2230525
1.1615162
1.1002849
1.0411041
0.98513309
0.93295077
0.88483708
0.84086875
0.80099582
0.76509306
0.73299419
0.70451417
0.67946488
0.65766893
0.63897603
0.62328315
0.61054677
0.60074478
0.59376505
0.58933773
0.60603499
0.61087447
0.61850414
0.62923131
0.64319851
0.66045495
0.68107991
0.70522656
0.73311179
0.76499816
0.80118038
0.84197571
0.88771346
0.93871925
0.9952871
1.0576329
1.1258211
1.1996937
1.2778579
1.3642539
1.4620671
1.5614843
1.6494085
1.7160422
1.7472274
1.7225431
1.6180946
2.0351476
2.1194814
2.1022982
2.0240731
1.9107049
1.7810334
1.6459193
1.5134203
1.3966199
1.2976273
1.2083909
1.127361
1.0545911
0.98949324
0.93149163
0.87999746
0.8344521
0.79434239
0.75920569
0.72863264
0.70227084
0.67983414
0.66111764
0.64600504
0.63441893
0.62618534
0.62095922
0.63383687
0.63941627
0.64818908
0.6605416
0.67667885
0.69670554
0.72077437
0.74914071
0.78215886
0.82027097
0.86400279
0.91396778
0.97087367
1.0355349
1.1088674
1.191887
1.2857525
1.3907163
1.5146255
1.6636871
1.8315288
2.0093424
2.1922375
2.3686235
2.5174807
2.5999395
3.1913658
2.9919416
2.74023
2.4819566
2.2350899
2.0089559
1.8046049
1.624216
1.4750316
1.3537705
1.2482244
1.155748
1.0749784
1.0043668
0.94268129
0.88884868
0.84197216
0.80129376
0.7661784
0.73610104
0.71064526
0.68950962
0.67250763
0.65950889
0.65028078
0.64440214
0.65247868
0.65859397
0.66817599
0.68167467
0.69934607
0.72134424
0.74788538
0.77930867
0.81608136
0.85879754
0.90818516
0.96512769
1.0306889
1.1061812
1.1931269
1.2936586
1.4092348
1.5460066
1.7171863
1.9248307
2.1645112
2.4401504
2.7570565
3.1137494
3.5084738
3.3008845
2.8847594
2.5379844
2.245551
1.9961052
1.7807727
1.6000493
1.4549312
1.33405
1.2285419
1.1370191
1.057288
0.98775775
0.92708851
0.87418259
0.82812958
0.78817168
0.75367802
0.72412931
0.69911441
0.6783362
0.66161037
0.64881084
0.63972825
0.64738818
0.65402651
0.65952494
0.66923865
0.6829339
0.70086233
0.72318773
0.75014001
0.78207574
0.81948615
0.86299804
0.9133839
0.97158886
1.038763
1.1163444
1.2060309
1.3102598
1.4308141
1.5748124
1.7559112
1.9783719
2.2413038
2.554079
2.9316299
3.3936884
3.9679272
3.9910052
3.4399313
2.9850078
2.6038154
2.2850888
2.0162062
1.787255
1.598607
1.4495641
1.326437
1.2198905
1.1283955
1.0493388
0.98096994
0.92178787
0.87060103
0.82643032
0.78847813
0.75609991
0.72879337
0.70619382
0.68806261
0.67422284
0.66439268
0.65810941
0.65715948
0.6514584
0.64329789
0.63270002
0.61986019
0.60501401
0.58839831
0.57023639
0.55074688
0.53014497
0.50864589
0.4864634
0.46380662
0.44087777
0.41786977
0.39496421
0.37233024
0.35012226
0.32848755
0.30754948
0.28742611
0.2682208
0.25002481
0.23291773
0.21696828
0.20223486
0.18876704
0.17660799
0.1657976
0.15637909
0.14841222
0.14195861
0.13705892
0.1336728
0.13163773
0.1306596
0.1302288
0.12951438
0.12848518
0.12714018
0.12549859
0.12358196
0.12140605
0.11898074
0.11631206
0.11340495
0.11026466
0.10689751
0.10331088
0.099512951
0.095512311
0.091317846
0.086938706
0.082384159
0.077663449
0.072785754
0.067760226
0.062595831
0.057301464
0.051885836
0.046357387
0.040724418
0.034994924
0.029176665
0.023277202
0.017303761
0.011263281
0.0051624635
-0.0009921727
-0.0071944151
-0.013438342
-0.019718227
-0.026028521
-0.032363857
-0.038719061
-0.045089114
-0.051469104
-0.057854243
-0.064239738
-0.070620782
-0.076992767
-0.083350971
-0.089690651
-0.096007135
-0.10229543
-0.10855048
-0.11476721
-0.12094026
-0.1270641
-0.13313314
-0.13914159
-0.14508324
-0.15095189
-0.15674112
-0.16244421
-0.16805425
-0.17356424
-0.17896695
-0.18425501
-0.18942083
-0.19445678
-0.19935522
-0.20410828
-0.20870822
-0.21314728
-0.2174177
-0.22151191
-0.22542242
-0.22914183
-0.23266314
-0.2359797
-0.23908531
-0.24197457
-0.24464306
-0.24708738
-0.24930456
-0.25129037
-0.25303732
-0.25453086
-0.25575337
-0.25669183
-0.25735253
-0.25775934
-0.25794666
-0.25757787
-0.25737381
-0.2569681
-0.25630937
-0.25537554
-0.25415557
-0.25266246
-0.25091466
-0.24892769
-0.24670968
-0.24426495
-0.24159646
-0.23870733
-0.23560181
-0.23228523
-0.22876375
-0.225044
-0.221133
-0.21703807
-0.2127667
-0.20832646
-0.20372504
-0.19897019
-0.19406967
-0.18903123
-0.18386258
-0.1785713
-0.17316494
-0.16765085
-0.16203626
-0.15632821
-0.15053357
-0.14465903
-0.13871104
-0.13269581
-0.12661947
-0.12048786
-0.11430659
-0.10808118
-0.10181697
-0.095519134
-0.08919286
-0.082843167
-0.076474462
-0.070091394
-0.06369888
-0.057301599
-0.050904351
-0.044511955
-0.038129234
-0.031761126
-0.02541268
-0.019089096
-0.01279576
-0.0065382407
-0.00032229939
0.0058460854
0.011960684
0.018015001
0.024002287
0.029915559
0.035747547
0.04149067
0.047137104
0.05267884
0.058107518
0.063414677
0.068591705
0.073629608
0.078519338
0.083251733
0.087817563
0.092207568
0.096412486
0.10042314
0.10423057
0.10782613
0.11120165
0.1143498
0.11726441
0.11994066
0.12237387
0.12455833
0.12648217
0.12813114
0.12947988
0.13051688
0.1312418
0.13169156
0.13272053
0.13305798
0.13259066
0.131854
0.13080181
0.12944162
0.12777954
0.12584561
0.1236508
0.12120596
0.11851686
0.11558837
0.11242537
0.1090341
0.10542197
0.10159721
0.097568552
0.093345026
0.08893588
0.084350391
0.079597907
0.074687805
0.069629228
0.064431198
0.059102637
0.053652581
0.048089883
0.042422604
0.036658591
0.030805791
0.024871764
0.018863858
0.012789111
0.0066542593
0.00046583869
-0.0057698655
-0.01204688
-0.01835941
-0.024701876
-0.031068901
-0.037455259
-0.043855838
-0.050265711
-0.056680093
-0.063094146
-0.069503106
-0.075902296
-0.082286972
-0.088652353
-0.094993575
-0.10130576
-0.10758396
-0.11382302
-0.12001756
-0.126162
-0.13225081
-0.13827814
-0.14423785
-0.15012372
-0.15592933
-0.16164798
-0.16727284
-0.17279686
-0.17821272
-0.18351311
-0.18869056
-0.19373743
-0.19864598
-0.20340853
-0.2080173
-0.21246454
-0.21674258
-0.2208438
-0.22476072
-0.22848606
-0.23201281
-0.23533432
-0.23844446
-0.2413379
-0.24401035
-0.24645865
-0.24867997
-0.25066985
-0.25241954
-0.25391439
-0.25513524
-0.2560703
-0.25672896
-0.25713715
-0.25690293
-0.25649536
-0.25583576
-0.25489692
-0.2536706
-0.25217004
-0.25041521
-0.24842089
-0.24619408
-0.2437393
-0.24105938
-0.23815767
-0.23503854
-0.23170739
-0.22817039
-0.22443419
-0.22050577
-0.21639244
-0.21210172
-0.20764128
-0.20301878
-0.19824195
-0.19331861
-0.18825645
-0.1830632
-0.17774652
-0.17231385
-0.16677257
-0.16113001
-0.15539324
-0.149569
-0.14366399
-0.13768471
-0.13163739
-0.12552813
-0.11936272
-0.11314666
-0.10688557
-0.10058488
-0.094249721
-0.087884956
-0.081495383
-0.075086029
-0.068661721
-0.062227146
-0.055786938
-0.049345829
-0.042908655
-0.036480198
-0.030065376
-0.023669337
-0.017297332
-0.010954694
-0.004647055
0.0016197471
0.0078397496
0.014006639
0.02011385
0.02615462
0.032121835
0.038008183
0.043806175
0.049507961
0.055105251
0.060589386
0.065951742
0.071183515
0.076275648
0.081218958
0.086004197
0.090621869
0.095062492
0.09931668
0.10337505
0.10722847
0.11086807
0.11428544
0.11747299
0.12042422
0.12313383
0.12559635
0.12780688
0.12975813
0.13143557
0.13281361
0.13388178
0.13463905
0.13511753
0.13846024
0.13797207
0.1371974
0.1361116
0.13471177
0.13301131
0.13103399
0.12879474
0.12630186
0.12355822
0.12056956
0.11734166
0.11388136
0.11019655
0.1062959
0.1021886
0.097884011
0.093391657
0.088721142
0.083882118
0.078884215
0.07373695
0.068449677
0.063031591
0.057491671
0.051838713
0.046081261
0.040227533
0.034285624
0.028263432
0.022168292
0.016007383
0.0097875583
0.0035153912
-0.0028027846
-0.0091609371
-0.015553192
-0.021973903
-0.028417705
-0.034879372
-0.041353793
-0.047835983
-0.054321091
-0.060804358
-0.067281108
-0.073746684
-0.080196366
-0.086625346
-0.093028709
-0.099401631
-0.10573921
-0.11203632
-0.11828759
-0.12448749
-0.1306304
-0.13671058
-0.14272203
-0.14865845
-0.15451329
-0.16027988
-0.16595147
-0.17152104
-0.17698129
-0.18232476
-0.18754395
-0.19263124
-0.19757892
-0.20237925
-0.20702439
-0.21150657
-0.21581812
-0.21995137
-0.22389876
-0.22765298
-0.23120697
-0.23455406
-0.23768801
-0.24060337
-0.24329566
-0.24576147
-0.24799797
-0.25000083
-0.25176426
-0.25327229
-0.25450711
-0.25545121
-0.25611215
-0.25652023
-0.25597062
-0.25555815
-0.25489278
-0.25393893
-0.25269483
-0.25117592
-0.24940255
-0.2473863
-0.24513502
-0.24265272
-0.23994223
-0.23700697
-0.23385149
-0.2304813
-0.22690267
-0.22312237
-0.2191475
-0.21498543
-0.21064368
-0.20612993
-0.20145194
-0.19661753
-0.19163453
-0.18651075
-0.1812539
-0.17587163
-0.17037149
-0.16476092
-0.15904718
-0.1532373
-0.14733812
-0.14135629
-0.1352983
-0.12917042
-0.12297868
-0.11672888
-0.11042658
-0.10407728
-0.097686266
-0.091258642
-0.084799341
-0.078313219
-0.071805114
-0.0652798
-0.05874196
-0.052196254
-0.04564736
-0.039100027
-0.032559108
-0.026029583
-0.019516556
-0.013025276
-0.0065611773
-0.00012990562
0.0062626644
0.01261041
0.018906928
0.02514555
0.03131932
0.03742094
0.043442731
0.049376875
0.055215424
0.060949815
0.066571297
0.072070891
0.077439373
0.082667312
0.087745102
0.092663037
0.097411168
0.10197953
0.10635823
0.11053736
0.11450702
0.1182578
0.12178077
0.12506765
0.1281112
0.13090506
0.13344362
0.13572446
0.13773894
0.13947141
0.14089748
0.14200269
0.14278833
0.14327846
0.1496581
0.14916857
0.14837097
0.14724326
0.14578362
0.14400945
0.14194507
0.13960943
0.13701057
0.13414985
0.1310331
0.12766743
0.12406077
0.12022197
0.1161606
0.11188644
0.10740961
0.10274047
0.097889348
0.092866516
0.087682263
0.082346829
0.076870134
0.071261918
0.065531703
0.059688739
0.053741997
0.047700172
0.04157166
0.035364431
0.029086215
0.022744403
0.016346076
0.0098980132
0.003406703
-0.0031216528
-0.0096811247
-0.016266028
-0.022870844
-0.029490286
-0.036119274
-0.042752867
-0.049386223
-0.056014602
-0.062633321
-0.069237724
-0.075823153
-0.082384897
-0.088918178
-0.09541814
-0.10187985
-0.10829825
-0.11466811
-0.12098397
-0.12724025
-0.13343117
-0.13955071
-0.14559263
-0.15155046
-0.15741756
-0.16318706
-0.16885191
-0.17440483
-0.17983841
-0.18514506
-0.19031711
-0.19534678
-0.20022625
-0.20494764
-0.2095031
-0.2138848
-0.21808505
-0.22209627
-0.22591105
-0.22952222
-0.23292295
-0.23610692
-0.23906854
-0.24180321
-0.2443075
-0.24657859
-0.24861192
-0.25040126
-0.2519346
-0.25319097
-0.25415445
-0.25482728
-0.25524476
-0.25434949
-0.25392641
-0.25324475
-0.25226902
-0.25099781
-0.24944724
-0.24763832
-0.24558267
-0.24328707
-0.24075559
-0.23799104
-0.23499688
-0.23177774
-0.22833932
-0.224688
-0.22083069
-0.2167746
-0.21252722
-0.20809618
-0.20348925
-0.19871428
-0.19377917
-0.18869185
-0.1834602
-0.17809204
-0.17259507
-0.16697691
-0.16124499
-0.15540656
-0.14946873
-0.14343839
-0.13732216
-0.13112647
-0.12485758
-0.11852146
-0.11212386
-0.10567038
-0.099166418
-0.092617159
-0.086027609
-0.079402694
-0.072747242
-0.066065967
-0.059363519
-0.052644535
-0.045913644