/*--------------------------------*- C++ -*----------------------------------*\
| =========                 |                                                 |
| \\      /  F ield         | OpenFOAM: The Open Source CFD Toolbox           |
|  \\    /   O peration     | Version:  v2012                                 |
|   \\  /    A nd           | Website:  www.openfoam.com                      |
|    \\/     M anipulation  |                                                 |
\*---------------------------------------------------------------------------*/
FoamFile
{
    version     2.0;
    format      ascii;
    class       volScalarField;
    location    "433";
    object      nut;
}
// * * * * * * * * * * * * * * * * * * * * * * * * * * * * * * * * * * * * * //

dimensions      [0 2 -1 0 0 0 0];


internalField   nonuniform List<scalar> 
227544
(
0.0040596707
0.002256828
0.0016290177
0.0012116623
0.00097363533
0.00045025203
0.00050326328
0.00063275425
0.00084952178
0.00096720284
0.0015389126
0.0015979222
0.0020485198
0.0020371408
0.002302729
0.0027346725
0.0028308393
0.0031176366
0.0031550365
0.0032267889
0.003457916
0.003515187
0.0035799929
0.0037895284
0.0038427411
0.0038896699
0.0039607087
0.0041681376
0.0042002925
0.0042345837
0.0042737952
0.0043250502
0.0044702015
0.0045210617
0.0045588783
0.0045963326
0.0046441417
0.0047780669
0.0048092292
0.0048416781
0.0048750556
0.0049114838
0.0049540333
0.0050739656
0.0051199877
0.0051549742
0.005189622
0.0052233045
0.0052549446
0.0052861831
0.0053227384
0.0054125166
0.00544796
0.0054834934
0.0055183186
0.0055720722
0.0057053562
0.0057555444
0.0057761887
0.005802377
0.0058337268
0.0058610258
0.0058883998
0.0059143168
0.0059394747
0.0059650256
0.0059917243
0.0060165034
0.0060417216
0.0060673966
0.0060936396
0.0061181635
0.0061425831
0.0061682851
0.0062257516
0.0062678643
0.0062953359
0.0063267537
0.00635621
0.0063964955
0.0064907892
0.0065479949
0.0065695958
0.0065898764
0.0066133211
0.0066383499
0.0066654189
0.0066944619
0.0067244451
0.0067567469
0.0067888875
0.0068223195
0.0068563648
0.0068906528
0.0069269625
0.0069622816
0.0069983322
0.0070355746
0.0070720575
0.0071088841
0.0071451559
0.0071776698
0.007209363
0.0072402976
0.0072451459
0.0072617692
0.0073292738
0.0073681126
0.0073897446
0.0074149727
0.0074527062
0.007482782
0.0075060621
0.0075280398
0.0075487424
0.0075702583
0.0075897666
0.0076093816
0.0076281705
0.0076474626
0.0076664048
0.0076869065
0.0077057885
0.007724735
0.0077431036
0.0077622342
0.007781712
0.007804114
0.0078319927
0.007877532
0.0079397375
0.0079642896
0.0079846676
0.0080032418
0.0080199965
0.0080363071
0.0080386036
0.0080498397
0.0080919502
0.0081160918
0.0081295165
0.0081456008
0.0081699348
0.0081900131
0.0082060448
0.0082218113
0.0082365851
0.0082509333
0.0082644849
0.0082782888
0.0082915415
0.0083051648
0.008318459
0.0083335794
0.0083397097
0.0083470883
0.0083612354
0.0083943594
0.0084617301
0.0084816985
0.0084908286
0.0085000427
0.0085002814
0.0085053418
0.0085301926
0.0085352167
0.0085428444
0.0085605756
0.00857328
0.0085849122
0.0085956537
0.0086055792
0.008614822
0.0086246697
0.0086344491
0.0086459551
0.0086609795
0.0086886573
0.0087303129
0.0087448117
0.0087527902
0.0087494847
0.0087505208
0.0087720249
0.0087841708
0.0087980946
0.00879908
0.0088009041
0.0088135126
0.0088217876
0.0088286918
0.0088340895
0.008839641
0.0088449868
0.0088522632
0.0088635612
0.0088869392
0.008924896
0.0089382157
0.0089424909
0.0089341798
0.0089287
0.0089427884
0.0089468715
0.0089425526
0.0089370419
0.0089401572
0.0089428796
0.0089434392
0.0089439195
0.0089435893
0.0089436389
0.0089428602
0.0089398392
0.008923093
0.0089026724
0.0088916587
0.0089088424
0.0089713554
0.0089769454
0.0089645584
0.0089556464
0.0089722968
0.0089741089
0.008964419
0.0089529001
0.0089534734
0.0089545725
0.0089535005
0.0089525969
0.0089514464
0.0089531598
0.0089574269
0.0089743834
0.0090100946
0.0090128924
0.0089958787
0.0089805419
0.0089913343
0.0089877362
0.0089716689
0.008952621
0.0089470474
0.0089433651
0.0089381839
0.0089336657
0.0089294405
0.008929444
0.0089327643
0.0089501343
0.0089884095
0.0089940364
0.0089775891
0.0089638266
0.007286252
0.0070253544
0.006434675
0.0064931429
0.0065869901
0.0064477115
0.0057147932
0.0061129877
0.0039606406
0.0010414269
0.00051011472
0.00027188674
0.00060972784
0.001588307
0.0017893423
0.0017547527
0.0022772422
0.002451121
0.0025429388
0.0026100868
0.0026701153
0.0036673902
0.0024812802
0.0025056045
0.0015169016
0.001313461
0.00079258627
0.00091340238
0.00061602536
0.00056811199
0.00064561504
0.0012562793
0.001381233
0.0016132511
0.0025376655
0.0026613017
0.0041254081
0.0044602617
0.0031979548
0.0031595642
0.0021289463
0.0019516321
0.0013758742
0.0012376797
0.00085616499
0.00098699741
0.0012285482
0.00068758933
0.00079506724
0.00068150336
0.00066352952
0.0007072206
0.00066753616
0.00040890382
0.00058287464
0.00061977599
0.00050918343
0.00066442098
0.00053848671
0.00064516883
0.00069733386
0.00084419897
0.00093293257
0.001335753
0.0014276253
0.0021594724
0.0021765989
0.0022811274
0.0024725589
0.0027575623
0.0028150582
0.0028862152
0.0029408165
0.0031663002
0.0032525601
0.0033185611
0.0035187899
0.0035802865
0.0036590551
0.0037308677
0.0039236948
0.0039644964
0.004024565
0.0040806571
0.0041330919
0.0042745484
0.0043367282
0.0043878746
0.0044405236
0.0044895175
0.0046145847
0.0046440826
0.004694087
0.0047354166
0.0047794548
0.0048229929
0.0049320286
0.0049727924
0.0050258361
0.005068259
0.0051079641
0.0051463825
0.0051845325
0.0052207039
0.0053025948
0.0053321408
0.0053763968
0.0054161789
0.0054562674
0.0055662263
0.0055783408
0.0054739153
0.0053510881
0.0053142553
0.0052731526
0.0052284685
0.005129338
0.0051011697
0.005068171
0.0050238187
0.0049859735
0.0049493699
0.0049125501
0.0048615743
0.0047266356
0.0046928103
0.0046560726
0.0046106021
0.0045745844
0.0045324736
0.0043898977
0.0043557605
0.0043169768
0.0042670953
0.0042186395
0.0041868347
0.0040314305
0.0039829803
0.0039321183
0.003882226
0.0036857351
0.0036440568
0.0035964062
0.0035323279
0.0033285697
0.003286648
0.0032450321
0.0031913386
0.0029302596
0.002878511
0.0025013073
0.0021392321
0.002542067
0.0023035112
0.0020238695
0.0013181881
0.0014561651
0.0009824957
0.00089446018
0.00074825734
0.0005270857
0.0010812758
0.00085124824
0.0010523779
0.0011322267
0.00063499948
0.00054600367
0.00097831306
0.00081038423
0.00089257109
0.0011759385
0.0016600404
0.0020403068
0.0025280343
0.004281859
0.032926247
0.032914695
0.032903058
0.032891284
0.032879329
0.032867156
0.032854732
0.032842034
0.032829046
0.032815761
0.032802178
0.032788306
0.032774159
0.032759758
0.03274513
0.032730307
0.032715325
0.032700222
0.032685039
0.032669818
0.032654602
0.032639434
0.032624355
0.032609404
0.032594615
0.032580026
0.032565666
0.032551564
0.032537742
0.032524222
0.032511017
0.032498141
0.032485601
0.0324734
0.032461537
0.032450008
0.032438805
0.032427917
0.032417328
0.03240702
0.032396973
0.032387163
0.032377565
0.032368152
0.032358894
0.032349761
0.032340723
0.032331748
0.032322805
0.032313863
0.032304891
0.032295859
0.032286739
0.032277503
0.032268124
0.032258579
0.032248843
0.032238894
0.03222871
0.032218271
0.032207553
0.032196534
0.032185184
0.032188606
0.032199953
0.032210966
0.032221673
0.0322321
0.032242268
0.0322522
0.032261917
0.032271441
0.032280797
0.032290008
0.032299103
0.032308107
0.03231705
0.032325962
0.032334873
0.032343815
0.032352819
0.032361917
0.032371138
0.032380514
0.032390073
0.032399842
0.032409848
0.032420112
0.032430657
0.032441501
0.032452657
0.032464137
0.032475951
0.032488102
0.032500591
0.032513415
0.032526565
0.032540031
0.032553796
0.032567842
0.032582144
0.032596674
0.032611402
0.032626294
0.032641314
0.032656421
0.032671576
0.032686735
0.032701857
0.032716898
0.032731819
0.03274658
0.032761145
0.032775484
0.032789569
0.032803379
0.0328169
0.032830124
0.03284305
0.032855688
0.032868052
0.032880167
0.032892063
0.03290378
0.032915362
0.03292686
0.032928207
0.032916831
0.032905374
0.032893785
0.032882018
0.032870035
0.032857804
0.032845302
0.032832512
0.032819426
0.032806044
0.032792372
0.032778427
0.032764227
0.032749801
0.032735179
0.032720397
0.032705493
0.032690509
0.032675487
0.032660468
0.032645496
0.03263061
0.03261585
0.032601253
0.032586853
0.03257268
0.032558761
0.032545119
0.032531775
0.032518744
0.032506037
0.032493662
0.032481623
0.032469918
0.032458543
0.03244749
0.032436748
0.0324263
0.03241613
0.032406217
0.032396538
0.032387066
0.032377774
0.032368635
0.032359617
0.032350689
0.032341822
0.032332983
0.03232414
0.032315265
0.032306326
0.032297295
0.032288144
0.032278847
0.03226938
0.032259718
0.032249842
0.032239727
0.032229353
0.032218698
0.032207738
0.032196446
0.032209658
0.032220863
0.032231736
0.032242303
0.032252589
0.032262614
0.032272399
0.032281967
0.032291338
0.032300535
0.032309584
0.032318509
0.032327338
0.032336101
0.032344826
0.032353545
0.032362288
0.032371086
0.032379971
0.032388974
0.032398124
0.032407451
0.032416981
0.032426739
0.03243675
0.032447034
0.032457608
0.032468488
0.032479685
0.032491207
0.03250306
0.032515243
0.032527754
0.032540584
0.032553724
0.032567157
0.032580863
0.03259482
0.032609002
0.032623377
0.032637914
0.032652575
0.032667319
0.032682107
0.032696897
0.032711647
0.032726315
0.032740861
0.032755247
0.032769436
0.032783398
0.032797107
0.032810541
0.032823687
0.032836538
0.032849094
0.032861365
0.032873367
0.032885125
0.032896669
0.032908041
0.032919286
0.032930456
0.032933758
0.032922897
0.032911969
0.032900923
0.032889712
0.032878293
0.032866635
0.032854712
0.032842506
0.032830008
0.032817216
0.032804136
0.032790783
0.032777176
0.032763342
0.032749311
0.032735118
0.032720801
0.032706401
0.032691957
0.032677512
0.032663106
0.032648781
0.032634575
0.032620527
0.032606669
0.03259303
0.032579636
0.032566511
0.032553673
0.032541137
0.032528915
0.032517013
0.032505435
0.032494181
0.032483244
0.032472617
0.032462289
0.032452245
0.032442467
0.032432934
0.032423622
0.032414508
0.032405564
0.032396761
0.032388069
0.032379458
0.032370897
0.032362354
0.032353799
0.0323452
0.032336529
0.032327757
0.032318857
0.032309803
0.03230057
0.032291136
0.032281483
0.032271586
0.032261426
0.032250983
0.032240231
0.032266389
0.032276996
0.032287289
0.032297296
0.032307034
0.032316523
0.032325786
0.032334841
0.03234371
0.032352418
0.03236099
0.032369454
0.032377837
0.032386169
0.03239448
0.032402801
0.032411164
0.0324196
0.032428138
0.032436809
0.03244564
0.03245466
0.032463893
0.032473361
0.032483086
0.032493085
0.032503373
0.032513961
0.032524857
0.032536066
0.03254759
0.032559424
0.032571562
0.032583994
0.032596705
0.032609675
0.032622882
0.032636302
0.032649905
0.032663659
0.032677527
0.032691469
0.032705446
0.032719416
0.032733338
0.032747173
0.032760881
0.032774425
0.032787771
0.032800888
0.032813752
0.032826343
0.032838648
0.032850661
0.032862384
0.032873828
0.032885012
0.032895963
0.032906716
0.032917313
0.032927803
0.032938239
0.032944025
0.032934141
0.032924221
0.032914209
0.032904053
0.03289371
0.032883143
0.032872321
0.032861226
0.032849844
0.032838173
0.032826217
0.032813989
0.032801506
0.032788794
0.032775881
0.032762801
0.032749589
0.032736284
0.032722925
0.032709551
0.032696203
0.032682923
0.032669749
0.032656716
0.032643858
0.0326312
0.032618769
0.032606587
0.03259467
0.032583035
0.032571691
0.032560645
0.0325499
0.032539455
0.032529305
0.032519442
0.032509855
0.03250053
0.032491448
0.03248259
0.032473933
0.032465452
0.03245712
0.03244891
0.032440791
0.032432734
0.032424708
0.032416681
0.032408624
0.032400505
0.032392294
0.032383965
0.03237549
0.032366843
0.032358001
0.032348942
0.032339647
0.032330096
0.032320268
0.032310147
0.032299708
0.032340431
0.032350703
0.032360646
0.032370285
0.032379637
0.03238872
0.032397554
0.032406157
0.032414553
0.032422765
0.032430817
0.032438736
0.032446552
0.032454292
0.032461988
0.03246967
0.03247737
0.032485117
0.032492942
0.032500874
0.032508941
0.03251717
0.032525583
0.032534205
0.032543055
0.03255215
0.032561504
0.032571128
0.032581031
0.032591216
0.032601686
0.032612436
0.032623461
0.03263475
0.03264629
0.032658063
0.032670047
0.032682218
0.032694549
0.032707011
0.032719565
0.032732177
0.032744805
0.032757408
0.032769948
0.032782385
0.032794684
0.03280681
0.032818731
0.03283042
0.032841853
0.032853013
0.032863889
0.032874479
0.032884787
0.032894827
0.032904621
0.0329142
0.032923604
0.032932881
0.032942084
0.032951271
0.032968602
0.032960199
0.032951874
0.032943559
0.032935191
0.032926714
0.032918076
0.032909236
0.03290016
0.032890821
0.032881206
0.032871306
0.032861122
0.032850663
0.032839946
0.03282899
0.032817822
0.032806472
0.032794973
0.03278336
0.03277167
0.03275994
0.032748214
0.032736529
0.032724922
0.032713428
0.032702076
0.032690892
0.0326799
0.03266912
0.03265857
0.032648263
0.032638209
0.032628415
0.032618882
0.03260961
0.032600596
0.03259183
0.032583302
0.032574999
0.032566904
0.032558997
0.032551257
0.03254366
0.032536179
0.032528788
0.032521457
0.032514157
0.032506857
0.032499527
0.032492136
0.032484654
0.032477051
0.032469299
0.03246137
0.032453241
0.032444887
0.032436287
0.032427423
0.032418273
0.03240882
0.032399048
0.032388935
0.032445566
0.03245556
0.032465194
0.032474489
0.03248346
0.032492125
0.032500506
0.032508619
0.032516487
0.032524133
0.032531582
0.032538861
0.032546
0.032553027
0.032559973
0.032566868
0.032573743
0.032580627
0.032587551
0.032594541
0.032601626
0.032608831
0.032616179
0.032623692
0.032631387
0.032639281
0.032647387
0.032655716
0.032664274
0.032673067
0.032682093
0.032691352
0.032700836
0.032710536
0.032720438
0.032730526
0.032740781
0.032751178
0.032761694
0.032772299
0.03278296
0.032793642
0.032804309
0.032814918
0.032825429
0.032835809
0.032846023
0.032856042
0.032865837
0.032875384
0.032884665
0.032893666
0.032902381
0.032910811
0.032918967
0.032926868
0.032934541
0.032942025
0.032949367
0.03295662
0.032963847
0.032971115
0.032978497
0.032990552
0.03298442
0.032978447
0.032972552
0.032966662
0.032960709
0.032954631
0.032948377
0.032941905
0.032935182
0.032928184
0.032920898
0.032913319
0.032905449
0.032897299
0.032888884
0.032880227
0.032871352
0.032862289
0.032853067
0.032843722
0.03283429
0.032824817
0.032815338
0.032805885
0.03279649
0.032787182
0.032777984
0.032768919
0.032760005
0.03275126
0.032742695
0.032734321
0.032726145
0.032718168
0.032710391
0.032702809
0.032695418
0.032688206
0.032681161
0.032674269
0.032667511
0.032660867
0.032654315
0.032647829
0.032641384
0.032634952
0.032628504
0.032622011
0.032615441
0.032608765
0.032601953
0.032594975
0.032587803
0.032580409
0.032572769
0.032564857
0.032556652
0.032548136
0.032539289
0.032530094
0.032520535
0.032510592
0.032583843
0.032593864
0.032603469
0.032612679
0.032621508
0.032629975
0.032638099
0.032645897
0.032653393
0.032660612
0.032667579
0.032674321
0.032680868
0.032687248
0.032693491
0.032699628
0.032705688
0.032711702
0.032717697
0.0327237
0.032729736
0.032735828
0.032742
0.032748268
0.032754651
0.032761162
0.032767813
0.032774613
0.032781568
0.032788679
0.032795947
0.032803369
0.032810938
0.032818643
0.032826473
0.03283441
0.032842437
0.032850532
0.032858671
0.032866827
0.03287497
0.032883067
0.032891089
0.032898986
0.032906721
0.03291426
0.032921576
0.032928642
0.032935434
0.032941936
0.032948132
0.032954019
0.032959596
0.032964873
0.032969869
0.032974613
0.032979143
0.032983509
0.03298777
0.032991995
0.032996259
0.033000645
0.033005242
0.033023188
0.033020478
0.03301804
0.033015774
0.033013584
0.033011384
0.033009093
0.033006645
0.033003979
0.03300105
0.032997821
0.032994267
0.032990374
0.032986135
0.032981552
0.032976635
0.0329714
0.032965865
0.032960056
0.032953999
0.032947728
0.03294128
0.032934709
0.032928041
0.032921306
0.032914533
0.03290775
0.03290098
0.032894244
0.03288756
0.032880944
0.03287441
0.032867968
0.032861625
0.032855385
0.03284925
0.032843217
0.032837282
0.032831438
0.032825675
0.032819979
0.032814336
0.032808727
0.032803133
0.032797532
0.032791899
0.032786209
0.032780435
0.032774547
0.032768518
0.032762315
0.032755911
0.032749275
0.032742378
0.032735192
0.032727691
0.03271985
0.032711647
0.032703063
0.032694078
0.032684674
0.032674837
0.032664546
0.032750774
0.03276163
0.032771987
0.032781862
0.032791271
0.032800233
0.03280877
0.032816899
0.032824644
0.03283203
0.032839085
0.032845837
0.032852315
0.03285855
0.03286457
0.032870406
0.032876086
0.032881637
0.032887085
0.032892455
0.032897769
0.032903048
0.032908309
0.032913567
0.032918837
0.032924128
0.03292945
0.032934808
0.032940204
0.03294564
0.032951112
0.032956616
0.032962143
0.032967681
0.032973217
0.032978735
0.032984217
0.032989641
0.032994983
0.033000218
0.033005316
0.033010248
0.033014988
0.033019487
0.0330237
0.033027595
0.033031144
0.033034325
0.033037119
0.033039515
0.033041505
0.033043093
0.033044289
0.033045113
0.033045599
0.033045792
0.033045747
0.033045535
0.033045238
0.03304495
0.033044772
0.033044817
0.033045202
0.033070408
0.033072338
0.033074816
0.033077701
0.033080853
0.033084137
0.03308743
0.033090619
0.033093606
0.033096306
0.033098652
0.033100589
0.033102077
0.033103089
0.033103611
0.033103636
0.03310317
0.033102222
0.033100811
0.033098958
0.033096692
0.033094049
0.033091083
0.033087831
0.033084323
0.033080588
0.033076655
0.03307255
0.033068297
0.033063917
0.03305943
0.033054853
0.033050199
0.033045483
0.033040714
0.033035898
0.033031041
0.033026144
0.033021208
0.033016228
0.033011201
0.033006118
0.033000967
0.032995737
0.032990413
0.032984976
0.032979407
0.032973683
0.03296778
0.032961674
0.032955336
0.032948737
0.032941848
0.032934639
0.032927081
0.032919144
0.0329108
0.032902022
0.032892786
0.032883071
0.032872856
0.032862121
0.032850851
0.032839028
0.032923384
0.032936714
0.032949427
0.032961542
0.032973076
0.03298405
0.032994488
0.033004412
0.033013849
0.033022828
0.033031378
0.033039531
0.033047317
0.033054765
0.033061905
0.033068765
0.033075372
0.033081747
0.033087912
0.033093887
0.033099689
0.033105332
0.033110825
0.033116178
0.033121397
0.033126487
0.033131448
0.03313628
0.033140978
0.033145538
0.03314995
0.033154205
0.03315829
0.03316219
0.033165888
0.033169365
0.033172602
0.033175574
0.033178258
0.033180627
0.033182652
0.033184304
0.033185552
0.033186371
0.033186696
0.033186485
0.033185709
0.033184343
0.033182369
0.033179775
0.033176558
0.033172723
0.033168288
0.033163283
0.033157755
0.033151764
0.033145393
0.03313874
0.033131923
0.033125077
0.033118352
0.033111912
0.033105932
0.033100586
0.033138088
0.033147595
0.033157792
0.033168454
0.033179365
0.033190324
0.033201151
0.033211687
0.033221797
0.033231367
0.033240308
0.033248554
0.033256056
0.033262783
0.033268722
0.033273867
0.033278226
0.033281814
0.033284652
0.033286767
0.033288194
0.033288981
0.0332892
0.033288863
0.033288001
0.033286643
0.033284818
0.033282555
0.03327988
0.033276819
0.033273395
0.033269631
0.033265547
0.033261163
0.033256497
0.033251565
0.033246381
0.033240957
0.033235303
0.033229425
0.03322333
0.033217019
0.033210493
0.033203748
0.033196778
0.033189576
0.033182129
0.033174423
0.033166439
0.033158156
0.033149551
0.033140596
0.033131263
0.033121521
0.033111338
0.03310068
0.033089515
0.03307781
0.033065536
0.033052666
0.033039174
0.033025033
0.033010226
0.032994734
0.033039661
0.033058074
0.033075724
0.033092631
0.03310882
0.033124323
0.033139173
0.0331534
0.033167043
0.033180138
0.033192725
0.03320484
0.03321652
0.033227798
0.033238702
0.03324926
0.033259494
0.033269423
0.03327906
0.033288416
0.033297496
0.033306303
0.033314835
0.033323088
0.033331054
0.03333872
0.033346073
0.033353096
0.033359769
0.03336607
0.033371977
0.033377462
0.0333825
0.033387061
0.033391117
0.033394637
0.03339759
0.033399945
0.033401671
0.033402733
0.033403102
0.033402743
0.033401628
0.033399757
0.033397065
0.033393496
0.033389008
0.033383571
0.033377156
0.033369746
0.033361328
0.033351899
0.033341469
0.033330062
0.033317721
0.033304514
0.033290531
0.033275892
0.033260746
0.033245272
0.033229674
0.03321419
0.033199086
0.033184643
0.033241883
0.033261875
0.03328235
0.033302967
0.033323421
0.033343455
0.033362851
0.033381424
0.033399018
0.033415517
0.033430836
0.033444918
0.033457727
0.033469249
0.033479486
0.033488446
0.033496146
0.033502612
0.033507874
0.033511971
0.033514954
0.033516887
0.033517794
0.033517674
0.033516564
0.033514504
0.033511536
0.033507703
0.03350305
0.033497623
0.033491466
0.033484627
0.033477148
0.033469075
0.03346045
0.033451315
0.033441708
0.033431665
0.03342122
0.033410402
0.033399239
0.033387752
0.033375962
0.03336388
0.033351517
0.033338877
0.03332596
0.03331276
0.033299265
0.033285459
0.033271319
0.033256817
0.033241921
0.03322659
0.033210784
0.033194457
0.033177562
0.033160049
0.033141872
0.033122987
0.033103351
0.033082925
0.03306168
0.033039587
0.032969827
0.03299625
0.033021724
0.033046285
0.033069976
0.033092849
0.033114967
0.033136387
0.033157175
0.033177398
0.033197117
0.033216392
0.033235278
0.033253825
0.033272072
0.033290056
0.033307803
0.033325332
0.033342654
0.033359775
0.033376692
0.033393397
0.033409873
0.033426099
0.033442046
0.033457681
0.033472962
0.033487845
0.03350228
0.033516213
0.033529585
0.033542332
0.033554388
0.033565684
0.03357615
0.033585713
0.033594301
0.033601839
0.033608257
0.033613485
0.033617459
0.033620119
0.03362141
0.033621289
0.033619802
0.033616901
0.033612518
0.033606599
0.033599104
0.033590003
0.033579274
0.033566905
0.03355289
0.033537234
0.033519961
0.033501124
0.033480792
0.033459074
0.033436122
0.033412126
0.033387291
0.033361865
0.033336156
0.033310529
0.03328541
0.033358224
0.033388572
0.033418796
0.033448503
0.033477372
0.033505145
0.033531612
0.033556561
0.033579773
0.033601107
0.033620472
0.033637792
0.033653002
0.033666064
0.033676975
0.033685742
0.033692378
0.033696915
0.033699404
0.033699917
0.033698549
0.033695403
0.033690443
0.033683624
0.033675038
0.033664789
0.033652986
0.033639748
0.033625192
0.033609439
0.033592607
0.033574811
0.033556164
0.033536771
0.033516734
0.033496146
0.033475095
0.033453662
0.03343192
0.033409932
0.033387757
0.033365442
0.033343029
0.03332055
0.033298029
0.033275483
0.033252917
0.03323033
0.033207712
0.033185044
0.033162294
0.033139424
0.033116386
0.033093121
0.033069562
0.033045633
0.033021251
0.032996328
0.032970773
0.032944494
0.032917405
0.03288942
0.032860463
0.032830474
0.032799405
0.032491367
0.032526836
0.032561026
0.032594009
0.03262587
0.032656717
0.032686673
0.032715861
0.032744413
0.032772458
0.032800122
0.032827521
0.032854764
0.03288195
0.032909165
0.032936482
0.032963966
0.032991668
0.033019627
0.033047873
0.033076422
0.033105284
0.033134455
0.033163922
0.033193661
0.03322364
0.033253813
0.033284125
0.033314508
0.033344882
0.033375156
0.033405224
0.03343497
0.033464264
0.033492966
0.03352092
0.033547961
0.033573913
0.033598588
0.033621793
0.033643328
0.033662991
0.033680583
0.033695914
0.033708879
0.033719731
0.033728304
0.033734394
0.03373782
0.033738444
0.033736172
0.033730956
0.033722777
0.033711638
0.033697592
0.033680738
0.033661246
0.033639238
0.033614834
0.033588447
0.033560395
0.033530853
0.03349999
0.033467993
0.033435095
0.032583476
0.032109663
0.031859973
0.03181258
0.031937963
0.032219384
0.032640785
0.033204116
0.033680068
0.033696442
0.033709268
0.033718288
0.033723022
0.033723353
0.033719238
0.03371077
0.033698121
0.033681536
0.033661352
0.033637976
0.033611856
0.033583411
0.033552775
0.0335194
0.033483758
0.033446193
0.033407037
0.033366604
0.033325188
0.033283062
0.033240471
0.033197638
0.033154762
0.033112017
0.033069558
0.033027518
0.032986012
0.032945136
0.032904972
0.032865578
0.032826999
0.032789262
0.032752382
0.032716364
0.032681198
0.032646865
0.032613336
0.032580571
0.032548519
0.032517116
0.032486287
0.032455943
0.032425985
0.032396294
0.032366745
0.032337194
0.032307485
0.032277453
0.032246922
0.032215711
0.032183633
0.032150515
0.032116182
0.032080485
0.0320433
0.032004537
0.031296356
0.031336243
0.031374073
0.031409968
0.031444098
0.031476672
0.031507925
0.0315381
0.031567453
0.031596235
0.031624685
0.031653032
0.031681491
0.031710262
0.031739528
0.031769462
0.031800219
0.031831944
0.031864763
0.03189879
0.031934125
0.031970861
0.032009077
0.032048853
0.032090257
0.03213335
0.032178183
0.032224795
0.032273207
0.032323417
0.032375399
0.032429102
0.032484457
0.032541373
0.03259974
0.03265942
0.032720243
0.032782
0.032844439
0.032907263
0.032970127
0.033032636
0.033094347
0.033154769
0.033213364
0.033270075
0.033325564
0.033379202
0.033430105
0.03347732
0.03351989
0.033556915
0.033587586
0.033611268
0.033546936
0.032628167
0.031800098
0.031055928
0.030383
0.029803513
0.029321195
0.028950448
0.028723185
0.028654375
0.028764437
0.029092828
0.026278163
0.02583765
0.025650305
0.025667504
0.025848038
0.02617227
0.026617971
0.027161691
0.027786273
0.02848975
0.029260381
0.030076415
0.030926352
0.031828551
0.032820593
0.033113766
0.033023193
0.032927808
0.032829602
0.032730372
0.032631659
0.032534648
0.032439719
0.032344418
0.03224985
0.032156606
0.032065177
0.031975974
0.031889333
0.031805523
0.03172475
0.031647152
0.031572813
0.031501768
0.031434021
0.03136956
0.031308372
0.031250441
0.031195738
0.031144201
0.031095728
0.031050185
0.031007419
0.030967268
0.030929571
0.030894167
0.030860901
0.030829621
0.030800174
0.030772402
0.030746132
0.030721172
0.030697311
0.030674321
0.030651961
0.030629978
0.030608102
0.030586054
0.030563529
0.03054021
0.030515763
0.03048985
0.030462138
0.030432309
0.030400081
0.030365233
0.030327611
0.02906819
0.029099064
0.029126121
0.029149555
0.029169654
0.029186793
0.029201394
0.029213899
0.029224754
0.029234387
0.029243199
0.029251569
0.02925985
0.029268382
0.029277497
0.029287524
0.029298778
0.02931155
0.029326098
0.029342648
0.029361396
0.029382544
0.029406308
0.029432939
0.029462715
0.029495938
0.029532925
0.029574003
0.029619472
0.029669566
0.029724429
0.029784136
0.029848773
0.029918489
0.029993502
0.030074062
0.030160393
0.030252666
0.030350978
0.030455352
0.030565743
0.030682053
0.030804138
0.030931786
0.031064689
0.031201306
0.031344505
0.031496488
0.031656616
0.031823447
0.031995009
0.031636621
0.030470311
0.02947379
0.028576727
0.027742755
0.026935278
0.026157552
0.025418381
0.024735775
0.024122521
0.023599175
0.02318075
0.022898316
0.022773916
0.022836226
0.023133981
0.023704006
0.020597059
0.020166661
0.020013821
0.020084069
0.020331589
0.020731718
0.021249753
0.021860996
0.022547377
0.023278721
0.024041047
0.024828854
0.025671511
0.026622581
0.027695105
0.028899782
0.030254031
0.030151864
0.029899311
0.029665104
0.029449998
0.029254201
0.029076407
0.028908174
0.028750897
0.028604375
0.028468266
0.028342197
0.028225852
0.028118982
0.028021356
0.027932692
0.027852606
0.027780592
0.02771604
0.027658315
0.0276069
0.027561534
0.027522216
0.027489026
0.027461863
0.027440352
0.027423943
0.027412054
0.027404145
0.027399734
0.027398397
0.02739978
0.027403623
0.027409744
0.027417977
0.027428097
0.027439786
0.027452647
0.027466245
0.027480142
0.02749391
0.027507138
0.027519414
0.027530305
0.02753933
0.027545954
0.027549595
0.027549665
0.027545595
0.027536898
0.027523206
0.027504298
0.025636581
0.025645385
0.02564722
0.025642048
0.025630109
0.025611861
0.025587954
0.025559168
0.025526305
0.025490132
0.025451307
0.025410361
0.025367736
0.025323848
0.02527917
0.025234251
0.025189703
0.02514616
0.025104185
0.025064148
0.02502616
0.024990164
0.024956186
0.024924483
0.024895539
0.024869976
0.02484851
0.024831996
0.024821439
0.024817837
0.024821745
0.02483288
0.024850423
0.024873889
0.024903624
0.024940654
0.02498623
0.025041456
0.025107144
0.025183834
0.025271872
0.025371587
0.025483515
0.02560855
0.025747947
0.025903086
0.026075181
0.026261155
0.02647111
0.0267114
0.026983825
0.02728987
0.027631056
0.028009569
0.026792396
0.025436085
0.02420946
0.023116373
0.022181203
0.021361166
0.020589131
0.019844301
0.019147065
0.018520539
0.017998376
0.017628159
0.017432872
0.017432103
0.017706618
0.018315715
0.015510808
0.015056111
0.014943769
0.015088793
0.015421677
0.015943014
0.016588591
0.017292573
0.018033012
0.018834912
0.019771797
0.020897608
0.022175266
0.023598394
0.025106595
0.024704141
0.024229176
0.023817229
0.02346079
0.023153444
0.022890221
0.022667471
0.022481558
0.022316602
0.022174277
0.022053074
0.021950734
0.021864474
0.021791767
0.021731039
0.021681761
0.021644069
0.021618129
0.021603669
0.021599792
0.0216048
0.021616365
0.021632361
0.021652094
0.021677185
0.021710627
0.021753877
0.021805921
0.02186478
0.021928706
0.021996433
0.02206697
0.022139414
0.022213022
0.022287527
0.022363326
0.022441123
0.022521187
0.022603062
0.02268583
0.022768483
0.022850116
0.022930006
0.023007648
0.023082726
0.023154942
0.023223797
0.023288476
0.023347919
0.023400967
0.023446502
0.023483627
0.023511796
0.023530818
0.023540914
0.021293944
0.021282924
0.021263071
0.021233298
0.021192578
0.021140256
0.021076325
0.021001389
0.020916729
0.020824039
0.02072512
0.020621589
0.02051448
0.02040405
0.020290099
0.02017262
0.02005214
0.019929641
0.019806483
0.019684353
0.019564958
0.019449052
0.019335396
0.019221627
0.019106555
0.018990759
0.018875622
0.018762438
0.018652289
0.018546701
0.018448814
0.018362939
0.018291966
0.018231295
0.018172075
0.01811141
0.01805171
0.017997466
0.017952715
0.017919691
0.017898874
0.017889687
0.017890399
0.017899425
0.017917061
0.017946113
0.017991494
0.018058208
0.018149418
0.018266461
0.018402716
0.018574658
0.018786853
0.019043702
0.019352248
0.019723222
0.020172359
0.020719021
0.021375534
0.02197963
0.020396916
0.018914341
0.017614669
0.016520756
0.015648827
0.014880611
0.014149089
0.013501526
0.013002859
0.012694162
0.01264353
0.012959212
0.011227426
0.010664437
0.01051091
0.010767189
0.011258078
0.011793755
0.012393857
0.0132097
0.014320871
0.015686509
0.017278498
0.018952475
0.018048541
0.01725341
0.016543256
0.015949343
0.015491083
0.015140321
0.014862179
0.014636638
0.014453074
0.014305273
0.014189576
0.014097809
0.014032621
0.013995218
0.013986419
0.014003822
0.014039187
0.014081797
0.014125558
0.01417083
0.014221904
0.01428445
0.014360653
0.014450593
0.014552529
0.014661236
0.014766982
0.014861902
0.014947806
0.015045135
0.015169463
0.015311945
0.015462385