/*--------------------------------*- C++ -*----------------------------------*\
| =========                 |                                                 |
| \\      /  F ield         | OpenFOAM: The Open Source CFD Toolbox           |
|  \\    /   O peration     | Version:  v2012                                 |
|   \\  /    A nd           | Website:  www.openfoam.com                      |
|    \\/     M anipulation  |                                                 |
\*---------------------------------------------------------------------------*/
FoamFile
{
    version     2.0;
    format      ascii;
    class       volScalarField;
    location    "433";
    object      omega;
}
// * * * * * * * * * * * * * * * * * * * * * * * * * * * * * * * * * * * * * //

dimensions      [0 0 -1 0 0 0 0];


internalField   nonuniform List<scalar> 
227544
(
13.849491
17.254177
26.408289
51.808168
104.27483
371.0082
495.65381
406.1275
436.15026
379.7981
370.45099
318.34401
312.62382
303.69626
269.73981
257.97296
220.97629
214.81313
209.4107
201.36041
183.41257
177.82285
172.6986
160.2278
155.8723
152.33028
148.14423
138.85668
136.41224
134.12072
131.86025
129.35608
123.82316
121.28045
119.3212
117.54254
115.61173
111.40923
109.81219
108.27445
106.80188
105.36105
103.8332
100.6829
99.071402
97.739417
96.46925
95.305468
94.137576
93.069085
92.01634
89.972974
88.802311
87.707871
86.691422
85.402308
82.864051
81.498439
80.696861
79.943581
79.045116
78.215196
77.437069
76.701632
75.970097
75.275392
74.614844
73.939197
73.276403
72.641613
72.038177
71.433234
70.861242
70.341618
69.498932
68.728449
68.13196
67.503268
66.945057
66.266627
64.997597
64.00398
63.364414
62.729036
62.078586
61.403922
60.715901
60.026603
59.328906
58.649926
57.962457
57.289267
56.624199
55.966654
55.333785
54.698405
54.078665
53.476908
52.884787
52.319104
51.778724
51.274406
50.799003
50.373302
50.196704
49.935224
49.34713
48.954979
48.730305
48.467213
48.109915
47.795213
47.523902
47.262583
47.018251
46.781842
46.54252
46.299526
46.061538
45.823484
45.593555
45.375078
45.1525
44.924209
44.696161
44.463747
44.228346
43.983902
43.708994
43.329708
42.833901
42.529348
42.252704
41.992401
41.739234
41.499811
41.385514
41.237889
40.944499
40.722558
40.580738
40.423817
40.223704
40.040016
39.877014
39.721407
39.573716
39.42048
39.269156
39.116699
38.967904
38.817917
38.670482
38.51273
38.419765
38.312946
38.168749
37.951523
37.570838
37.366456
37.205737
37.057288
36.979424
36.874285
36.68012
36.580118
36.469793
36.321318
36.190614
36.069002
35.957366
35.837174
35.715194
35.589669
35.461025
35.32475
35.173903
34.980091
34.73743
34.574577
34.435949
34.363208
34.270878
34.109741
33.983461
33.853089
33.784418
33.697922
33.577704
33.468756
33.364647
33.261546
33.156172
33.04826
32.935356
32.815074
32.660209
32.452343
32.30864
32.19085
32.129051
32.051591
31.923821
31.823443
31.757434
31.682508
31.589424
31.499805
31.416605
31.332708
31.251197
31.169434
31.091476
31.011118
30.958513
30.904367
30.833035
30.731162
30.542896
30.451028
30.402394
30.342972
30.243336
30.157354
30.099454
30.035081
29.953267
29.873637
29.798901
29.723109
29.647825
29.578821
29.495459
29.387801
29.245514
29.159399
29.11543
29.060348
28.971398
28.903238
28.859573
28.809744
28.745352
28.682927
28.62464
28.565568
28.507077
28.461241
28.404676
28.327905
28.227575
28.1708
28.147739
28.12248
28.08763
28.07353
28.078654
28.080697
28.073412
28.080145
28.111423
28.155595
28.413748
31.101439
40.351288
112.55916
192.14546
171.25938
164.54641
160.84858
118.99876
107.34613
100.56679
95.381975
90.822756
15.028969
19.590285
20.084952
25.574986
48.547273
80.54954
131.27103
207.49273
282.91661
131.96536
88.822051
40.018752
32.106662
18.844856
17.822928
14.465461
13.682704
17.696624
16.470189
22.305574
25.939085
47.086443
62.56807
101.52668
83.440177
105.54894
152.69315
180.47792
233.4048
138.48155
247.37211
245.82427
439.80135
615.83727
488.8323
361.96612
334.80191
392.9553
499.90325
425.2007
473.45568
427.88978
430.70007
376.01792
363.03708
352.27603
308.98597
293.4014
252.61716
243.45544
233.03728
225.46043
203.71891
194.75211
188.78738
174.78154
169.51211
163.55625
158.76566
148.88852
145.87189
142.14963
138.90445
136.11308
130.24718
127.09659
124.54298
122.10212
119.9388
115.80379
114.20992
112.05455
110.26402
108.49065
106.84292
103.82666
102.27675
100.45965
98.959295
97.596406
96.272936
94.988629
93.85571
91.979312
90.932718
89.600407
88.448819
87.37187
85.208845
84.395073
86.895252
89.277888
90.353405
91.617489
93.045659
95.369339
96.264166
97.43084
98.963521
100.33915
101.73806
103.21005
105.09567
108.91994
110.25767
111.85241
113.87927
115.67193
117.78538
122.73638
124.36159
126.43187
129.08336
131.87823
133.99996
140.5778
143.44664
146.88253
150.47976
161.1263
164.25715
168.17034
173.96817
188.40136
192.36827
197.07259
203.50206
228.43372
235.91009
245.55491
278.56822
284.68915
294.81979
350.10084
362.37039
430.35559
439.85276
533.55966
522.84405
637.76779
497.01329
371.57682
236.91041
251.09053
183.84891
399.60323
201.85228
173.92363
137.69441
69.626167
35.980241
21.583383
16.184311
14.099179
10.052343
10.027206
10.002184
9.9772567
9.9524045
9.9276103
9.9028595
9.8781407
9.8534454
9.8287681
9.8041063
9.7794604
9.7548335
9.7302309
9.70566
9.6811301
9.656652
9.6322373
9.6078986
9.5836489
9.5595011
9.5354687
9.5115639
9.4877986
9.4641826
9.4407266
9.4174395
9.3943286
9.3714001
9.3486586
9.3261075
9.3037485
9.2815822
9.2596076
9.2378223
9.2162228
9.1948044
9.173561
9.1524858
9.1315707
9.1108071
9.0901854
9.0696957
9.0493274
9.0290697
9.0089113
8.9888412
8.9688483
8.948922
8.9290516
8.9092271
8.8894393
8.8696795
8.8499398
8.8302135
8.8104947
8.7907785
8.7710611
8.7513398
8.7316131
8.7118802
8.6921415
8.6723981
8.6733114
8.6930579
8.7127994
8.7325345
8.7522633
8.7719864
8.791705
8.8114219
8.831141
8.8508671
8.8706061
8.8903648
8.9101509
8.9299733
8.9498411
8.9697643
8.9897534
9.0098194
9.0299731
9.0502255
9.070588
9.0910714
9.1116863
9.1324426
9.1533497
9.1744164
9.1956505
9.2170593
9.2386485
9.2604228
9.2823859
9.3045401
9.3268865
9.3494243
9.3721519
9.3950659
9.4181618
9.4414332
9.464873
9.4884721
9.5122209
9.5361087
9.5601237
9.5842536
9.6084852
9.6328054
9.6572011
9.6816599
9.7061703
9.7307212
9.7553034
9.7799096
9.8045346
9.8291752
9.8538312
9.8785051
9.9032022
9.9279314
9.9527042
9.9775346
10.00244
10.02744
10.052556
10.053014
10.027944
10.002991
9.9781333
9.9533504
9.9286247
9.9039428
9.8792933
9.8546668
9.8300579
9.805464
9.7808855
9.7563253
9.7317885
9.7072823
9.6828157
9.6584003
9.6340473
9.6097687
9.5855781
9.5614884
9.5375126
9.5136629
9.4899511
9.4663881
9.4429839
9.4197472
9.3966849
9.373803
9.3511063
9.3285981
9.3062798
9.2841524
9.2622149
9.240465
9.2188986
9.1975113
9.1762974
9.1552499
9.1343605
9.1136205
9.0930207
9.0725514
9.0522019
9.0319611
9.0118179
8.9917613
8.9717804
8.9518645
8.9320028
8.9121855
8.8924033
8.8726475
8.8529104
8.8331851
8.8134659
8.7937478
8.7740271
8.754301
8.7345683
8.7148285
8.6950817
8.675329
8.6787022
8.6984642
8.7182194
8.7379663
8.7577047
8.777435
8.7971584
8.8168778
8.8365967
8.85632
8.8760536
8.8958041
8.9155794
8.9353881
8.9552393
8.9751431
8.9951101
9.0151511
9.0352768
9.0554984
9.0758267
9.0962729
9.1168476
9.1375603
9.1584204
9.1794367
9.2006172
9.221969
9.2434977
9.2652076
9.2871029
9.3091858
9.3314575
9.3539169
9.3765627
9.3993914
9.4223986
9.4455781
9.4689232
9.4924256
9.5160754
9.5398612
9.5637711
9.5877932
9.6119145
9.6361222
9.6604032
9.6847455
9.7091374
9.7335678
9.7580279
9.7825104
9.8070103
9.831525
9.8560542
9.8806008
9.9051705
9.9297727
9.9544184
9.9791221
10.003902
10.028778
10.053772
10.054895
10.030009
10.005245
9.9805793
9.9559914
9.9314628
9.9069785
9.8825268
9.8580982
9.8336866
9.8092888
9.7849048
9.760537
9.7361902
9.7118716
9.68759
9.6633561
9.6391813
9.6150779
9.5910585
9.5671358
9.5433224
9.5196305
9.4960718
9.4726581
9.4493988
9.4263022
9.4033749
9.380623
9.358051
9.335662
9.3134578
9.291439
9.2696044
9.2479518
9.2264775
9.2051768
9.1840441
9.1630725
9.1422541
9.1215802
9.1010415
9.0806283
9.0603301
9.0401362
9.0200355
9.000017
8.9800699
8.9601836
8.9403474
8.9205514
8.9007863
8.8810435
8.8613155
8.8415954
8.8218773
8.8021567
8.7824298
8.7626941
8.7429483
8.723192
8.7034257
8.7101018
8.7298825
8.7496508
8.7694063
8.789149
8.8088803
8.8286026
8.8483195
8.8680355
8.8877564
8.9074889
8.9272408
8.9470205
8.9668372
8.9867011
9.0066224
9.0266117
9.0466801
9.0668382
9.0870972
9.1074675
9.1279595
9.148583
9.1693471
9.1902605
9.2113308
9.2325647
9.253968
9.2755452
9.2972999
9.3192345
9.3413498
9.3636456
9.38612
9.4087699
9.4315908
9.454577
9.4777215
9.5010166
9.5244528
9.5480187
9.5717023
9.5954915
9.6193738
9.6433367
9.6673679
9.6914556
9.7155882
9.7397556
9.763949
9.7881617
9.812389
9.8366285
9.8608808
9.8851494
9.9094409
9.9337653
9.9581356
9.9825674
10.007079
10.031693
10.056431
10.058424
10.033876
10.009456
9.985142
9.9609109
9.9367439
9.9126239
9.8885372
9.8644729
9.840424
9.8163864
9.7923594
9.7683447
9.7443468
9.7203721
9.696429
9.6725275
9.6486785
9.6248937
9.601185
9.5775646
9.5540451
9.5306386
9.5073569
9.4842112
9.4612108
9.4383635
9.4156757
9.3931534
9.3708008
9.3486211
9.326616
9.3047859
9.2831299
9.2616458
9.2403301
9.2191783
9.1981848
9.177343
9.1566454
9.1360836
9.1156485
9.0953304
9.0751193
9.0550047
9.0349757
9.0150216
8.9951316
8.9752951
8.9555018
8.9357419
8.916006
8.8962857
8.8765734
8.8568623
8.8371469
8.8174225
8.7976857
8.7779344
8.7581673
8.7383843
8.7185863
8.728976
8.7487942
8.7685942
8.7883751
8.8081366
8.8278797
8.8476065
8.8673202
8.8870255
8.906728
8.926434
8.9461513
8.9658883
8.9856542
9.0054588
9.0253124
9.0452254
9.0652085
9.0852723
9.1054274
9.1256843
9.1460528
9.1665422
9.1871617
9.2079191
9.228822
9.2498768
9.2710888
9.2924624
9.3140009
9.3357064
9.3575799
9.3796207
9.4018273
9.4241965
9.4467241
9.4694044
9.4922308
9.5151959
9.5382906
9.5615038
9.5848241
9.6082394
9.631737
9.6553048
9.6789313
9.7026053
9.7263162
9.7500546
9.7738123
9.7975834
9.821364
9.8451525
9.8689505
9.8927625
9.9165963
9.9404635
9.9643784
9.9883594
10.012427
10.036604
10.060915
10.088155
10.063964
10.039944
10.016064
9.9922986
9.968623
9.945015
9.9214555
9.8979288
9.8744229
9.8509289
9.8274414
9.8039584
9.7804807
9.7570117
9.7335569
9.7101239
9.6867216
9.6633603
9.6400506
9.6168037
9.5936314
9.570547
9.5475623
9.5246882
9.5019358
9.4793138
9.4568296
9.4344896
9.4122993
9.390263
9.3683838
9.3466634
9.3251025
9.3037002
9.2824546
9.2613625
9.2404198
9.2196212
9.1989607
9.1784311
9.1580246
9.1377325
9.1175457
9.0974546
9.0774491
9.0575186
9.0376526
9.0178408
8.9980728
8.9783385
8.958628
8.9389324
8.9192431
8.8995526
8.8798545
8.8601432
8.8404142
8.8206646
8.8008923
8.7810965
8.7612777
8.7414374
8.7562136
8.7760767
8.7959143
8.8157249
8.8355072
8.8552622
8.8749918
8.8946986
8.914387
8.9340625
8.9537315
8.9734014
8.9930807
9.0127787
9.0325046
9.0522686
9.072081
9.0919518
9.1118913
9.1319098
9.1520172
9.1722229
9.1925357
9.2129636
9.2335144
9.2541947
9.2750105
9.2959665
9.3170666
9.3383139
9.35971
9.3812554
9.4029495
9.4247905
9.4467752
9.4688994
9.4911576
9.5135435
9.5360499
9.5586679
9.5813871
9.6041967
9.6270854
9.6500391
9.6730464
9.6960962
9.7191783
9.7422833
9.7654023
9.7885286
9.8116572
9.8347853
9.8579128
9.8810426
9.9041811
9.927338
9.9505267
9.9737641
9.9970708
10.020471
10.043991
10.067659
10.091507
10.095552
10.072119
10.048876
10.025791
10.002832
9.9799692
9.957177
9.934433
9.9117185
9.8890187
9.8663226
9.8436226
9.8209148
9.7981987
9.7754762
9.7527514
9.7300308
9.7073224
9.6846353
9.6619793
9.6393649
9.6168036
9.5943108
9.5718969
9.5495726
9.5273478
9.5052315
9.4832309
9.4613522
9.4396007
9.417981
9.3964961
9.3751481
9.3539379
9.3328652
9.3119285
9.2911253
9.2704521
9.2499044
9.2294769
9.209163
9.1889558
9.1688473
9.1488293
9.1288926
9.1090279
9.0892251
9.0694743
9.0497655
9.0300887
9.0104339
8.9907918
8.9711533
8.95151
8.9318546
8.9121809
8.8924832
8.8727572
8.8530004
8.8332112
8.813389
8.793535
8.7736515
8.7942061
8.8141039
8.8339678
8.8537952
8.8735844
8.8933357
8.9130505
8.9327312
8.9523822
8.972009
8.9916178
9.0112161
9.0308119
9.0504143
9.0700324
9.0896761
9.1093555
9.12908
9.1488592
9.1687028
9.1886198
9.2086188
9.2287076
9.2488936
9.2691833
9.2895827
9.3100967
9.3307293
9.3514833
9.3723609
9.3933631
9.4144899
9.43574
9.4571112
9.4786
9.500202
9.5219116
9.5437225
9.5656275
9.5876176
9.6096831
9.6318136
9.6539997
9.6762241
9.6984752
9.7207428
9.7430175
9.7652907
9.7875548
9.8098042
9.8320354
9.8542472
9.8764414
9.8986229
9.9208005
9.9429869
9.9651988
9.9874569
10.009786
10.032215
10.054776
10.077503
10.100433
10.106343
10.084022
10.061919
10.039992
10.018203
9.996516
9.9748989
9.9533237
9.9317672
9.9102105
9.8886391
9.8670424
9.8454143
9.823752
9.8020556
9.7803279
9.758574
9.7368007
9.7150164
9.6932302
9.6714521
9.6496942
9.6279763
9.6063064
9.5846948
9.5631511
9.5416845
9.5203025
9.4990116
9.4778173
9.4567245
9.435737
9.4148575
9.3940878
9.3734284
9.3528787
9.3324372
9.3121017
9.2918686
9.2717339
9.2516921
9.2317374
9.211863
9.1920617
9.1723255
9.152646
9.1330138
9.1134199
9.093855
9.0743092
9.0547732
9.0352378
9.015694
8.9961336
8.9765493
8.9569347
8.9372842
8.9175939
8.8978614
8.8780854
8.8582658
8.8384047
8.818505
8.8473953
8.8672764
8.8871143
8.9069052
8.926647
8.9463396
8.965984
8.9855826
9.0051394
9.02466
9.0441509
9.0636194
9.0830738
9.1025229
9.1219758
9.1414418
9.1609303
9.18045
9.2000099
9.2196186
9.2392838
9.259013
9.2788128
9.2986888
9.3186464
9.3386901
9.3588233
9.3790487
9.3993678
9.4197815
9.4402897
9.4608911
9.4815833
9.502363
9.5232259
9.5441668
9.5651796
9.5862576
9.6073928
9.6285759
9.6497969
9.6710458
9.6923135
9.7135814
9.7348348
9.7560632
9.7772574
9.7984097
9.8195135
9.8405643
9.8615601
9.8825015
9.9033926
9.924241
9.945059
9.9658632
9.9866754
10.007522
10.028434
10.049449
10.070607
10.091952
10.11353
10.1433
10.122327
10.101658
10.081241
10.06102
10.040946
10.02097
10.001053
9.9811576
9.9612534
9.941316
9.921326
9.9012693
9.8811369
9.8609235
9.8406279
9.8202514
9.799798
9.7792741
9.7586875
9.7380473
9.7173647
9.69666
9.675948
9.6552399
9.6345462
9.6138769
9.5932419
9.5726498
9.5521078
9.5316227
9.5112003
9.4908456
9.4705626
9.4503544
9.4302231
9.4101697
9.3901942
9.3702961
9.3504737
9.3307244
9.3110446
9.29143
9.2718756
9.2523758
9.232924
9.213513
9.1941347
9.1747812
9.1554437
9.1361136
9.1167815
9.0974387
9.0780763
9.058686
9.0392606
9.0197932
9.0002782
8.9807114
8.9610906
8.9414144
8.9216833
8.9019001
8.8820687
8.9241767
8.9439162
8.9636024
8.9832307
9.0027981
9.0223041
9.0417499
9.061138
9.0804728
9.0997602
9.1190069
9.1382208
9.1574099
9.1765831
9.195749
9.2149165
9.2340941
9.2532894
9.2725101
9.2917634
9.3110557
9.3303926
9.3497785
9.3692176
9.3887131
9.4082675
9.4278824
9.4475582
9.4672946
9.4870904
9.5069436
9.5268512
9.5468091
9.5668122
9.5868551
9.6069309
9.6270323
9.647151
9.6672777
9.6874021
9.7075135
9.7276008
9.7476524
9.7676551
9.7875819
9.8074201
9.8271606
9.8467951
9.8663175
9.8857242
9.9050138
9.9241884
9.943254
9.9622211
9.9811054
9.9999291
10.01872
10.037513
10.05635
10.075278
10.094351
10.113629
10.133175
10.153053
10.165182
10.146668
10.128515
10.110646
10.092984
10.075461
10.058015
10.040589
10.023136
10.005618
9.9880022
9.9702649
9.9523882
9.9343606
9.9161759
9.8978315
9.8793285
9.8606707
9.8418642
9.8229174
9.80384
9.7846464
9.7653749
9.7460349
9.7266388
9.7071982
9.6877248
9.6682294
9.6487219
9.6292118
9.6097072
9.5902158
9.5707441
9.5512978
9.5318824
9.5125019
9.4931594
9.4738574
9.4545973
9.4353796
9.4162043
9.3970699
9.3779748
9.358916
9.3398898
9.3208923
9.3019178
9.2829602
9.264013
9.2450694
9.2261211
9.2071599
9.1881776
9.1691655
9.1501152
9.1310193
9.1118704
9.0926625
9.0733909
9.0540529
9.0346471
9.0151741
8.9956372
8.9760414
9.0408621
9.0602609
9.079595
9.0988584
9.1180481
9.1371634
9.156206
9.1751787
9.1940865
9.2129358
9.231734
9.2504885
9.2692075
9.2878994
9.3065715
9.3252313
9.3438861
9.3625412
9.3812022
9.3998738
9.4185594
9.4372621
9.4559841
9.4747266
9.49349
9.5122741
9.5310775
9.5498983
9.5687336
9.5875801
9.6064331
9.6252875
9.6441371
9.6629751
9.6817938
9.7005849
9.7193394
9.7380469
9.7566971
9.7752783
9.7937784
9.8121851
9.8304858
9.8486787
9.8667076
9.8845553
9.9022113
9.9196679
9.9369188
9.9539604
9.9707919
9.9874159
10.003839
10.020073
10.036138
10.052059
10.067873
10.083622
10.099361
10.115152
10.131067
10.147187
10.163602
10.180405
10.199687
10.185038
10.170803
10.156869
10.143132
10.129498
10.115888
10.10223
10.088465
10.074541
10.060422
10.046078
10.031489
10.016643
10.001532
9.9861545
9.970509
9.9545985
9.9384272
9.922002
9.9053334
9.8884462
9.8714197
9.8542407
9.8369223
9.8194771
9.8019175
9.784255
9.7665007
9.7486649
9.7307575
9.7127873
9.6947626
9.6766911
9.65858
9.6404354
9.6222633
9.6040688
9.585856
9.5676289
9.5493904
9.5311429
9.5128882
9.4946268
9.4763589
9.4580838
9.4398
9.421505
9.4031956
9.3848681
9.3665171
9.3481371
9.3297216
9.3112637
9.292756
9.2741913
9.2555625
9.2368632
9.2180883
9.1992346
9.1803001
9.1612857
9.1421948
9.1230343
9.2284492
9.2473721
9.2662219
9.2849919
9.3036779
9.3222796
9.3407987
9.3592386
9.3776043
9.3959016
9.4141365
9.432315
9.4504425
9.4685236
9.486562
9.5045607
9.5225213
9.5404442
9.5583293
9.5761752
9.5939798
9.6117403
9.6294529
9.647114
9.6647183
9.6822601
9.6997338
9.7171329
9.7344508
9.7516802
9.7688138
9.7858436
9.8027615
9.8195589
9.836227
9.8527567
9.8691385
9.8853624
9.901418
9.9172951
9.932983
9.9484708
9.9637476
9.9788032
9.9936051
10.008084
10.022227
10.036034
10.049503
10.062639
10.075444
10.087926
10.100093
10.111958
10.123541
10.134875
10.146
10.156973
10.167866
10.17876
10.189742
10.200913
10.212392
10.224311
10.236812
10.265031
10.255936
10.247496
10.239555
10.231967
10.224599
10.217333
10.210059
10.202672
10.195092
10.187269
10.179163
10.170736
10.16196
10.152818
10.143295
10.133375
10.12304
10.112271
10.101055
10.089381
10.077261
10.064825
10.052076
10.03902
10.025664
10.012014
9.9980783
9.9838647
9.9693819
9.9546389
9.9396453
9.9244106
9.9089451
9.8932588
9.8773621
9.861266
9.8449813
9.8285191
9.8118904
9.7951064
9.7781782
9.7611166
9.7439322
9.726635
9.7092347
9.6917402
9.6741598
9.6565008
9.6387698
9.6209718
9.6031111
9.5851902
9.5672102
9.5491706
9.53107
9.5129054
9.494673
9.4763685
9.4579881
9.439529
9.4209884
9.4023676
9.3836704
9.3649034
9.5424866
9.5613219
9.5801059
9.5988324
9.617498
9.6361028
9.6546488
9.673138
9.6915724
9.7099532
9.7282797
9.7465491
9.7647564
9.7828948
9.8009548
9.8189244
9.8367901
9.8545374
9.8721496
9.8896094
9.9068982
9.9239971
9.9408862
9.9575453
9.9739538
9.990091
10.005936
10.021469
10.03667
10.05152
10.066
10.080092
10.093781
10.107052
10.119889
10.13228
10.144213
10.155679
10.166669
10.177177
10.1872
10.196736
10.205787
10.214358
10.222511
10.230004
10.236819
10.242988
10.248559
10.253586
10.258123
10.262225
10.265935
10.269283
10.272302
10.275038
10.277557
10.279904
10.282134
10.284401
10.286845
10.289598
10.292815
10.296661
10.301317
10.348591
10.348862
10.350444
10.35306
10.356468
10.360455
10.364847
10.369501
10.374331
10.379314
10.384429
10.389615
10.394587
10.399305
10.4037
10.407679
10.411115
10.413858
10.415764
10.416707
10.416584
10.415342
10.413083
10.410154
10.406401
10.401812
10.396379
10.390101
10.382983
10.375035
10.36627
10.356706
10.346366
10.335273
10.323456
10.31094
10.297758
10.283939
10.269519
10.254531
10.239013
10.223003
10.206537
10.189655
10.172394
10.15479
10.13688
10.1187
10.100282
10.08166
10.062867
10.043932
10.024882
10.005745
9.986543
9.9672951
9.9480167
9.9287196
9.9094121
9.8900986
9.8707806
9.8514578
9.8321279
9.8127897
9.7934439
9.7740948
10.075956
10.096594
10.117327
10.13816
10.159095
10.18014
10.201296
10.22256
10.243927
10.265382
10.286907
10.308475
10.330055
10.351609
10.373094
10.394464
10.415668
10.436656
10.457372
10.477762
10.497767
10.517331
10.536391
10.554886
10.572751
10.589918
10.606322
10.621893
10.636566
10.650277
10.662965
10.674572
10.685044
10.694325
10.702361
10.709098
10.714486
10.718482
10.721048
10.722156
10.721785
10.719925
10.716576
10.711751
10.705477
10.697729
10.687975
10.676238
10.66267
10.647491
10.630983
10.613479
10.595335
10.577064
10.559218
10.541844
10.525005
10.508761
10.493146
10.478066
10.463542
10.449683
10.436649
10.424679
10.414067
10.405151
10.465557
10.484317
10.505914
10.529894
10.555909
10.583697
10.613094
10.644031
10.676484
10.710433
10.745859
10.782708
10.820888
10.860595
10.901467
10.942757
10.982671
11.019986
11.054192
11.084923
11.111937
11.135124
11.154681
11.171912
11.186465
11.198357
11.207624
11.214314
11.218488
11.220216
11.21958
11.216673
11.2116
11.204472
11.195403
11.184502
11.17187
11.157601
11.141791
11.124539
11.105957
11.086158
11.065262
11.043383
11.020635
10.997122
10.972946
10.9482
10.922973
10.897351
10.871419
10.845261
10.818961
10.7926
10.766254
10.739992
10.71388
10.687971
10.662313
10.636941
10.611882
10.587152
10.562756
10.538691
10.514943
10.491496
10.468333
10.976272
11.003838
11.032016
11.060853
11.090391
11.120657
11.151658
11.183382
11.215801
11.248867
11.282519
11.316684
11.351277
11.386199
11.421342
11.456585
11.491804
11.526871
11.561665
11.596067
11.629964
11.663234
11.695741
11.727334
11.757844
11.787086
11.814867
11.840984
11.865241
11.887462
11.907502
11.925234
11.940524
11.953206
11.963073
11.9699
11.973455
11.973522
11.969904
11.962422
11.95091
11.935207
11.915153
11.890592
11.861383
11.827978
11.788959
11.742991
11.689896
11.629766
11.562863
11.489547
11.410988
11.331366
11.252229
11.174895
11.100334
11.029159
10.961749
10.898274
10.838752
10.783073
10.731091
10.682693
10.637933
10.597052
10.560484
10.528827
10.641218
10.698136
10.762858
10.834956
10.914326
11.001241
11.096369
11.200433
11.31387
11.436723
11.568543
11.708341
11.854218
12.003319
12.151428
12.293874
12.423312
12.539098
12.642192
12.732529
12.810171
12.875371
12.929048
12.975515
13.014094
13.045153
13.0691
13.086341
13.097246
13.102141
13.101328
13.095124
13.083879
13.068001
13.047938
13.024133
12.996966
12.966685
12.933412
12.897227
12.858283
12.816849
12.773267
12.727892
12.681056
12.633059
12.584166
12.534603
12.484548
12.434137
12.383491
12.332747
12.282074
12.231661
12.181703
12.132386
12.083877
12.036319
11.989831
11.944515
11.90046
11.857747
11.816431
11.776537
11.738055
11.700933
11.665084
11.630396
12.423508
12.46727
12.512839
12.560464
12.610386
12.662784
12.717747
12.77528
12.835311
12.897724
12.962398
13.029219
13.098072
13.168812
13.241243
13.315112
13.390117
13.465935
13.542263
13.618884
13.695695
13.772661
13.849704
13.926616
14.003061
14.078614
14.152781
14.22498
14.294537
14.360787
14.423299
14.482091
14.537458
14.589516
14.637899
14.681843
14.720437
14.75283
14.778336
14.796431
14.806692
14.808685
14.801849
14.785398
14.758357
14.719699
14.668493
14.606557
14.528055
14.429309
14.309352
14.167469
14.002928
13.814524
13.596354
13.351182
13.084032
12.811299
12.542408
12.285521
12.045243
11.824441
11.624587
11.445769
11.286372
11.143972
11.01701
10.904894
10.806875
10.722988
10.917322
11.060488
11.229984
11.429579
11.66355
11.930612
12.235736
12.585865
12.981552
13.416384
13.880531
14.361015
14.844319
15.299723
15.711835
16.06697
16.367063
16.622335
16.836157
17.011827
17.151949
17.258544
17.333965
17.390423
17.426105
17.442399
17.441342
17.425434
17.397057
17.357888
17.308746
17.249889
17.181521
17.104157
17.018797
16.92704
16.830895
16.732188
16.631639
16.528267
16.420168
16.306519
16.188203
16.066771
15.943626
15.819812
15.696122
15.573252
15.451753
15.331854
15.21336
15.095902
14.979362
14.864044
14.750505
14.639346
14.531086
14.426119
14.324687
14.226899
14.132807
14.042509
13.956199
13.87412
13.796478
13.72334
13.654559
13.589785
13.528487
13.470107
14.632205
14.703797
14.778382
14.85648
14.938998
15.027201
15.122263
15.224897
15.335273
15.453089
15.577786
15.708779
15.845721
15.988667
16.137896
16.293527
16.455306
16.622623
16.794554
16.969868
17.147302
17.326283
17.50773
17.693453
17.884454
18.080331
18.279967
18.482234
18.686081
18.889893
19.090439
19.283367
19.465688
19.641227
19.818346
19.999897
20.183293
20.363608
20.536271
20.69843
20.849049
20.988254
21.117444
21.237854
21.34851
21.445324
21.521734
21.571197
21.589419
21.574359
21.533949
21.449271
21.315443
21.12835
20.881879
20.56714
20.171905
19.683397
19.0999
18.425205
17.679077
16.886343
16.054807
15.23019
14.44714
13.744539
13.141127
12.618331
12.150907
11.772085
11.468131
11.219672
11.360895
11.71788
12.162172
12.736112
13.514649
14.548526
15.551817
16.757667
18.144938
19.590686
20.963173
22.216331
23.343701
24.386151
25.359917
26.193381
26.826171
27.282768
27.611436
27.842005
27.991125
28.069142
28.08302
28.049027
27.961814
27.820206
27.623954
27.379312
27.103786
26.819209
26.537926
26.25963
25.977049
25.681744
25.37144
25.04638
24.710027
24.37103
24.044527
23.741715
23.458801
23.166248
22.845851
22.50954
22.1718
21.839644
21.5145
21.197369
20.89
20.594994
20.313796
20.043801
19.778008
19.512963
19.25058
18.994272
18.746706
18.509268
18.282824
18.067673
17.863036
17.667483
17.480355
17.302411
17.135167
16.980089
16.838103
16.709144
16.591843
16.483536
16.381328
16.283366
16.188829
16.097442
17.918554
18.037084
18.158367
18.282156
18.409367
18.543573
18.691338
18.858691
19.048123
19.259173
19.489558
19.735711
19.993726
20.261413
20.541076
20.837992
21.153979
21.487839
21.838044
22.203385
22.579109
22.95429
23.322414
23.695698
24.096842
24.528165
24.985346
25.464717
25.967172
26.498063
27.066993
27.684628
28.271928
28.648354
29.056491
29.550203
30.128346
30.750046
31.349578
31.908674
32.449262
32.957775
33.466946
33.990919
34.565658
35.226073
35.934055
36.550719
37.037496
37.423027
37.716454
37.912275
38.032085
38.082308
38.047829
37.90832
37.635727
37.171906
36.383945
35.25138
33.994115
32.672502
31.19603
29.451728
27.470388
25.261688
22.785034
20.43617
18.744941
16.260927
14.571907
13.410047
12.604285
11.927272
12.043551
12.895082
14.261773
15.782187
18.332509
22.019793
26.257584
28.408595
28.939456
29.415333
31.282389
32.580783
34.440893
35.596521
37.271034
37.531274
39.244447
38.573387
40.410368
39.490732
41.165597
40.281215
41.962144
41.313548
43.087021
42.568654
44.198022
43.224393
44.3142
42.954282
43.785815
42.56683
43.319871
42.219833
42.893218
41.875217
42.47048
41.52781
42.048362
41.166368
41.618341
40.785979
41.174461
40.378446
40.707772
39.928238
40.203647
39.425575
39.660347
38.845464
39.004155
38.100164
38.181935
37.281349
37.379354
36.561911
36.684353
35.936266
36.063772
35.357745
35.480488
34.793804
34.901933
34.227654
34.277954
33.704848
33.764849
33.164926
33.219827
32.54997
32.598062
31.906385
31.953982
31.311583
31.367639
30.796318
30.864174
30.363983
30.450185
30.311387
31.579638
33.525484
33.958667
31.59762
31.052271
30.485955
29.938635
29.402627
28.86722
28.333748
27.802763
27.315472
26.888736
26.48789
25.962803
25.420787
24.923864
24.459742
24.022181
23.612531
23.234115
22.884181
22.547129
22.215481
21.894928
21.5959
21.325282
21.087669
20.886045
20.717223
20.567865
20.421534
20.273596
20.124889
19.977661
19.833389
21.985148
22.146894
22.314169
22.485175
22.653601
22.809735
22.928464
23.092064
23.310019
23.584138
23.906145
24.2713
24.682322
25.090466
25.427218
25.787589
26.190579
26.615075
27.052336
27.491835
27.932853
28.391233
29.73296
29.892825
29.330666
29.26399
28.771845
28.716097
28.279837
28.228908
27.815664
27.77077
27.382056
27.341597
26.956397
26.921411
26.558912
26.532837
26.205662
26.195656
26.029714
26.537863
27.317171
27.397631
26.35781
26.028115
25.722257
25.440287
25.198673
25.018842
24.93169
24.886324
24.757931
24.608039
24.472757
24.3546
24.250021
27.892584
27.676562
27.444374
27.210155
26.986394
27.436151
30.412713
49.59211
47.80854
45.292579
41.260642
37.428924
29.928085
29.075808
28.223928
28.082339
28.037819
28.00815
28.002841
28.022175
28.003511
27.905027
27.964229
27.979361
28.085525
28.092661
27.869206
27.985664
28.076413
28.254833
28.32931
28.387104
28.448283
28.507579
28.572245
28.630059
28.696168
28.761906
28.767488
28.694701
28.799256
28.856357
29.012157
29.032969
28.740456
28.92009
29.064699
29.300636
29.40333
29.485074
29.568825
29.6451
29.729037
29.803909
29.89106
29.9747
29.983573
29.898092
30.037747
30.112212
30.287601
30.312268
29.987834
30.201409
30.366304
30.655232
30.787266
30.885846
30.980884
31.063856
31.157745
31.242555
31.337355
31.421774
31.519598
31.614379
31.626369
31.53121
31.688607
31.775897
31.98751
32.01764
31.629304
31.832191
32.003242
32.197693
32.530611
32.679076
32.798152
32.92176
33.028071
33.143764
33.245652
33.361033
33.463654
33.612332
33.631975
33.515257
33.611315
33.813872
33.916098
34.186368
34.222056
33.719652
33.998227
34.190465
34.395336
34.805949
34.99137
35.13759
35.287231
35.414011
35.553141
35.67454
35.810079
35.927609
36.066826
36.191761
36.375385
36.401695
36.287024
36.418599
36.769383
36.808121
36.175505
36.523014
36.698757
36.892168
37.183712
37.771063
38.030268
38.212592
38.380494
38.52591
38.692304
38.83935
39.006717
39.154577
39.323523
39.471261
39.646027
39.803428
40.004026
40.213208
40.218352
39.919455
40.303599
40.468155
41.054079
41.109909
39.988417
40.4804
40.73319
41.030971
41.340075
41.675912
42.016299
42.851259
43.19561
43.449235
43.709771
43.922418
44.165435
44.37155
44.611804
44.816602
45.058261
45.269262
45.522942
45.740821
46.000111
46.220025
46.484167
46.710963
46.995744
47.242276
47.581067
47.964616
47.920762
47.181119
47.945814
48.186498
49.526584
49.619432
46.921168
47.750824
48.064078
48.464454
48.939816
49.45491
49.980458
50.526694
51.076963
51.642478
52.215384
52.800062
53.391574
54.005246
54.623222
55.260213
55.902545
56.558109
57.220104
57.888336
58.557373
59.23533
59.934231
60.669569
61.368346
61.336824
61.475587
61.351143
61.375952
61.554961
61.746843
61.871457
61.810921
61.351536
60.01625
59.816314
59.362316
58.126298
56.247386
54.224925
51.977381
49.618425
46.290595
41.824694
33.788663
40.959794
56.644829
54.167723
50.128723
45.146085
40.064761
34.622422
29.313543
24.044441
18.671218
17.129758
14.521191
13.039459
12.75421
14.479404
15.518769
16.539709
18.451522
21.749823
24.72188
21.680797
31.675103
40.156126
48.337778
55.557854
60.926139
66.75863
71.302793