/*--------------------------------*- C++ -*----------------------------------*\
| =========                 |                                                 |
| \\      /  F ield         | OpenFOAM: The Open Source CFD Toolbox           |
|  \\    /   O peration     | Version:  v2012                                 |
|   \\  /    A nd           | Website:  www.openfoam.com                      |
|    \\/     M anipulation  |                                                 |
\*---------------------------------------------------------------------------*/
FoamFile
{
    version     2.0;
    format      ascii;
    class       volScalarField;
    location    "433";
    object      p;
}
// * * * * * * * * * * * * * * * * * * * * * * * * * * * * * * * * * * * * * //

dimensions      [0 2 -2 0 0 0 0];


internalField   nonuniform List<scalar> 
227544
(
5.2354148
6.3065296
7.5903409
9.3525846
11.318083
13.047821
12.345587
10.255801
8.9360188
7.4621271
6.202865
4.9611119
4.1496405
3.0160084
2.4969672
1.9980547
1.5626033
1.2652882
0.37287729
-0.028897939
-0.10833054
-0.50855238
-0.76118767
-1.0943574
-1.1180967
-1.5558612
-1.720748
-1.9156038
-1.8964725
-2.2612175
-2.2908368
-2.7022197
-2.5275097
-2.7547894
-2.8956211
-2.9493446
-3.2649686
-3.0861484
-3.2350279
-3.380633
-3.3715589
-3.6194836
-3.619592
-3.5532329
-3.7641876
-3.7649797
-3.7554098
-4.0217947
-3.931795
-3.8823872
-4.1632283
-4.1066914
-4.0300126
-4.1538747
-4.272802
-4.2191488
-4.2663309
-4.266402
-4.2957328
-4.4471767
-4.4385001
-4.3457339
-4.496097
-4.5273985
-4.4523101
-4.4675603
-4.678833
-4.5255101
-4.496384
-4.591577
-4.6837897
-4.5623568
-4.5417006
-4.5762631
-4.7738902
-4.5965026
-4.5585599
-4.574451
-4.7403139
-4.6707801
-4.5664249
-4.590149
-4.6479706
-4.5753007
-4.6499189
-4.5959829
-4.5795293
-4.609878
-4.5217439
-4.6159946
-4.4976116
-4.5087743
-4.4926504
-4.4109121
-4.5057018
-4.3717523
-4.3579535
-4.3823582
-4.2769661
-4.2863019
-4.2689703
-4.1797516
-4.174214
-4.2063515
-4.1352567
-4.0888404
-4.0560906
-4.0730217
-4.163563
-4.0695344
-3.9901272
-3.9611323
-3.9376997
-3.9315513
-3.9849361
-4.0117378
-3.8913714
-3.8447533
-3.8137408
-3.8020041
-3.7857036
-3.9122039
-3.7880943
-3.732169
-3.6950864
-3.6716452
-3.6504637
-3.6797975
-3.6611838
-3.5817528
-3.5358382
-3.4947514
-3.5015265
-3.4535548
-3.3906488
-3.3460505
-3.3169212
-3.3773788
-3.3280105
-3.2569123
-3.2286636
-3.200605
-3.1698225
-3.1557229
-3.1382889
-3.1852704
-3.161054
-3.0800558
-3.0401339
-3.0090943
-2.9826966
-2.966665
-2.9565951
-2.9599099
-2.9896613
-2.8927421
-2.8547389
-2.8286622
-2.7931953
-2.7635262
-2.73733
-2.7430904
-2.6990256
-2.6673434
-2.6026175
-2.5771545
-2.5614676
-2.5413749
-2.5299486
-2.5158351
-2.5562462
-2.4506445
-2.4176917
-2.3891918
-2.3535454
-2.3257691
-2.3023177
-2.2786782
-2.2991518
-2.1960392
-2.151483
-2.1211463
-2.1038971
-2.0677702
-2.0508158
-2.0319547
-2.0711423
-1.9814339
-1.9441864
-1.9116732
-1.8807595
-1.8479829
-1.8207294
-1.7971688
-1.7738696
-1.7926993
-1.7412008
-1.6595285
-1.6068573
-1.5634928
-1.5280249
-1.51709
-1.4777487
-1.4915684
-1.4430474
-1.3895801
-1.3553637
-1.3220355
-1.286834
-1.2579623
-1.2321413
-1.2094006
-1.1995929
-1.1845024
-1.1200743
-1.0852134
-1.0496641
-1.0051674
-0.98003993
-0.9361628
-0.90264313
-0.89009912
-0.9107296
-0.81484074
-0.76973757
-0.73255375
-0.68411872
-0.64551296
-0.60533092
-0.57145811
-0.52708216
-0.55345814
-0.45267377
-0.38927626
-0.32429773
-0.25815543
-0.20237236
-0.16505557
-0.15357588
-0.095686543
-0.024865136
0.026819121
0.095824699
0.15291579
0.21221308
0.2651169
0.33992475
0.33473705
0.45271174
0.55063213
0.65068819
0.74953418
0.8448157
0.90388265
0.96405671
1.1004675
1.2227733
1.3201449
1.4487813
1.5721578
1.7095368
1.8266349
2.0231527
1.9549666
3.5717669
-0.5577844
5.9732985
2.8714723
2.2999856
2.3614345
1.9130221
1.6472232
1.447987
1.2705924
1.1235899
5.6228955
7.1795591
7.120868
8.0454953
9.4079836
11.095576
11.766003
12.847155
12.776613
11.542811
10.794271
8.9319314
8.2524603
6.7740954
6.5124003
5.3344383
5.0419744
6.1791407
6.1941124
7.3498135
7.7376205
9.0319729
9.7252151
11.454124
10.812176
10.777289
11.710208
11.967529
12.630589
12.118017
13.131751
12.993467
13.405957
13.079376
12.834787
13.143863
13.040419
13.207215
12.364689
10.551845
9.0325127
7.5294821
6.234409
4.9482125
4.2357629
2.9668358
2.3150181
1.8789801
1.4265369
1.2406613
0.38653003
-0.11574769
-0.25416301
-0.51258205
-0.90447614
-1.2306799
-1.1157156
-1.5564292
-1.8109292
-2.0413218
-1.9008144
-2.2201324
-2.3850518
-2.630586
-2.6512951
-2.7325974
-2.9083504
-3.0110402
-3.2407948
-3.2071896
-3.2186368
-3.3713854
-3.4482052
-3.5521317
-3.6586075
-3.6389274
-3.7052158
-3.7928341
-3.7948042
-3.9615766
-3.9877533
-3.9179267
-4.0780464
-4.2023996
-4.0563305
-4.1002011
-4.2333579
-4.3133679
-4.2385176
-4.2277261
-4.2876125
-4.3496411
-4.1763556
-4.0867442
-4.2559745
-4.1384551
-4.022227
-3.9882252
-4.0287059
-3.8743587
-3.834634
-3.7935478
-3.7391902
-3.7853023
-3.6377761
-3.5158986
-3.5120536
-3.3233115
-3.4246356
-3.1990069
-3.2386821
-3.0094043
-2.923431
-2.7198595
-2.7875651
-2.5364471
-2.4987328
-2.1344646
-2.0806354
-2.1212905
-1.8184711
-1.5398615
-1.4294009
-1.2301128
-0.91883942
-0.4592357
-0.3800183
-0.081453002
0.4543637
0.56296176
1.3904673
1.9222747
2.2812141
3.1277578
3.8358871
4.9901226
6.1453926
7.5514202
9.4011328
11.006261
10.222522
10.27965
8.4767419
8.3784694
9.0308327
9.2873511
8.8039775
8.9599136
9.1662659
8.2902612
7.6712881
6.7804667
6.0725317
5.2249217
-0.85131729
-0.90372254
-0.95576447
-1.0071806
-1.0577215
-1.1071471
-1.1552177
-1.2016984
-1.2463694
-1.2890238
-1.3294696
-1.3675306
-1.4030479
-1.4358802
-1.4659047
-1.4930173
-1.5171312
-1.5381803
-1.5561116
-1.5708997
-1.5825139
-1.5909846
-1.5962598
-1.5985229
-1.5979064
-1.5941014
-1.5872175
-1.5774912
-1.564981
-1.5497766
-1.5319888
-1.5117292
-1.4891156
-1.4642719
-1.4373276
-1.4084154
-1.3776745
-1.3452445
-1.3112682
-1.2758909
-1.2392594
-1.2015216
-1.1628262
-1.1233218
-1.0831568
-1.0424783
-1.0014312
-0.96016144
-0.91880167
-0.8775147
-0.83643635
-0.79566612
-0.75533285
-0.71555313
-0.676437
-0.63808755
-0.60059987
-0.56406062
-0.52854782
-0.4941304
-0.46086812
-0.42881117
-0.39800067
-0.39715663
-0.42798769
-0.460071
-0.49336563
-0.52782173
-0.56337906
-0.59996826
-0.63751124
-0.67592112
-0.71510264
-0.75495237
-0.79535966
-0.83620729
-0.87736699
-0.9187378
-0.96018366
-1.0015421
-1.0426793
-1.0834491
-1.1237063
-1.1633037
-1.2020928
-1.2399247
-1.27665
-1.3121198
-1.3461877
-1.3787084
-1.4095391
-1.4385405
-1.4655729
-1.4905027
-1.5132006
-1.5335412
-1.5514067
-1.5666855
-1.5792674
-1.5890592
-1.5960142
-1.5999817
-1.6006022
-1.5983075
-1.5930334
-1.5846042
-1.5730176
-1.5582484
-1.540323
-1.5192688
-1.4951379
-1.4679965
-1.4379314
-1.4050466
-1.3694652
-1.3313284
-1.2907959
-1.2480437
-1.2032645
-1.156665
-1.1084654
-1.0588988
-1.0082069
-0.95663762
-0.90444259
-0.85187985
-0.8529444
-0.90584749
-0.95837591
-1.0102798
-1.0613056
-1.1111913
-1.159686
-1.2065572
-1.2515854
-1.2945631
-1.3352961
-1.3736071
-1.4093361
-1.442342
-1.4725021
-1.4997131
-1.5238888
-1.5449635
-1.5628879
-1.5776362
-1.5891925
-1.5975902
-1.6028548
-1.6051113
-1.6042542
-1.6001495
-1.593082
-1.583152
-1.5704198
-1.5549835
-1.5369533
-1.5164414
-1.4935666
-1.4684547
-1.4412367
-1.4120452
-1.3810196
-1.3483015
-1.3140345
-1.2783647
-1.2414386
-1.203405
-1.1644142
-1.1246162
-1.0841598
-1.0431925
-1.0018605
-0.96031064
-0.91867781
-0.87712562
-0.83579025
-0.79477329
-0.75420444
-0.71420188
-0.67487706
-0.63633428
-0.59866942
-0.56196988
-0.52631409
-0.491772
-0.45840436
-0.42626088
-0.39538254
-0.39242566
-0.42338422
-0.45562988
-0.48912137
-0.52380823
-0.55962969
-0.59651554
-0.63438623
-0.67315328
-0.71271966
-0.75297968
-0.7938207
-0.83512291
-0.87675367
-0.91861056
-0.96055748
-1.0024287
-1.0440876
-1.0853864
-1.1261774
-1.1663118
-1.2056399
-1.2440104
-1.2812724
-1.3172766
-1.3518752
-1.3849217
-1.4162708
-1.4457815
-1.4733131
-1.4987305
-1.5219025
-1.5427022
-1.5610092
-1.5767096
-1.5896911
-1.5998552
-1.607128
-1.6114214
-1.612534
-1.6104484
-1.6052718
-1.5969354
-1.5854192
-1.5706909
-1.5527576
-1.5316411
-1.5073858
-1.480055
-1.4497328
-1.4165215
-1.3805432
-1.3419389
-1.300869
-1.2575122
-1.2120638
-1.1647327
-1.1157386
-1.0653292
-1.0137609
-0.96129203
-0.90818158
-0.85468463
-0.85722207
-0.91159864
-0.96557071
-1.0188762
-1.0712439
-1.122416
-1.1721349
-1.2201445
-1.2662142
-1.3101322
-1.3517005
-1.3907391
-1.4270869
-1.4606029
-1.4911662
-1.5186763
-1.5430526
-1.5642353
-1.582184
-1.5968813
-1.6083251
-1.6165405
-1.6215395
-1.6233669
-1.6219468
-1.617369
-1.6097846
-1.5992766
-1.5859289
-1.5698445
-1.5511351
-1.5299169
-1.5063125
-1.48045
-1.4524625
-1.422487
-1.3906642
-1.3571374
-1.3220528
-1.2855588
-1.247805
-1.2089414
-1.1691201
-1.1284932
-1.0872122
-1.0454281
-1.0032903
-0.96094784
-0.91854043
-0.87623578
-0.83417039
-0.7924497
-0.75120918
-0.7105703
-0.6706474
-0.63154912
-0.59337428
-0.55621313
-0.52014669
-0.48524587
-0.45157188
-0.41917572
-0.4135126
-0.44610854
-0.48002534
-0.51521212
-0.55160662
-0.58913652
-0.62771888
-0.66726115
-0.70766167
-0.74881003
-0.79058873
-0.83287267
-0.87552274
-0.91842854
-0.96145312
-1.0044279
-1.0472079
-1.0896424
-1.1315794
-1.1728657
-1.2133481
-1.2528731
-1.2912867
-1.3284363
-1.3641703
-1.3983393
-1.4307954
-1.4613937
-1.4899919
-1.5164509
-1.5406357
-1.562416
-1.5816665
-1.5982676
-1.6121056
-1.6230737
-1.6310801
-1.6360424
-1.6378368
-1.6363426
-1.6316025
-1.6235773
-1.6122548
-1.5976148
-1.5796545
-1.5583903
-1.5338579
-1.506113
-1.4752324
-1.4413137
-1.4044762
-1.3648602
-1.3226275
-1.2779602
-1.2310601
-1.1821469
-1.1314644
-1.0792605
-1.0258027
-0.97136398
-0.91622839
-0.86065922
-0.86499882
-0.92208092
-0.97869687
-1.0345734
-1.0894071
-1.1429179
-1.1948315
-1.2448848
-1.2928284
-1.3384347
-1.3814975
-1.4218325
-1.4592774
-1.4936928
-1.5249621
-1.5529911
-1.5777074
-1.5990604
-1.6170192
-1.631573
-1.642723
-1.6504908
-1.6548945
-1.6559755
-1.6537227
-1.6482656
-1.6397198
-1.6281688
-1.6137107
-1.5964569
-1.5765245
-1.5540367
-1.5291218
-1.5019128
-1.4725476
-1.4411675
-1.4079167
-1.3729423
-1.336394
-1.2984237
-1.2591847
-1.2188318
-1.1775203
-1.135407
-1.0926474
-1.0493971
-1.0058109
-0.96204186
-0.91824202
-0.87458065
-0.83119537
-0.78820444
-0.74575058
-0.7039622
-0.6629607
-0.62286023
-0.58376571
-0.5457726
-0.50896658
-0.47342171
-0.43920065
-0.40635535
-0.39769768
-0.43083941
-0.46542387
-0.50139866
-0.53869925
-0.57724915
-0.61695976
-0.65773213
-0.69945725
-0.74201642
-0.78528309
-0.82912293
-0.87339201
-0.91796144
-0.96269248
-1.0074149
-1.0519684
-1.096197
-1.1399426
-1.1830464
-1.2253495
-1.2666934
-1.3069203
-1.3458729
-1.3833957
-1.4193347
-1.4535377
-1.4858553
-1.5161407
-1.5442501
-1.5700428
-1.5933822
-1.6141366
-1.6321786
-1.647387
-1.6596442
-1.6688475
-1.6749154
-1.6777161
-1.6771299
-1.6731392
-1.6656969
-1.6547764
-1.6403534
-1.6224198
-1.6009815
-1.5760634
-1.5477108
-1.5159908
-1.4809931
-1.442831
-1.4016425
-1.3575897
-1.3108593
-1.2616634
-1.2102353
-1.1568321
-1.1017322
-1.0452197
-0.98759422
-0.92918139
-0.87027069
-0.81525195
-0.87651746
-0.93759372
-0.99812925
-1.0578205
-1.1163177
-1.1732975
-1.2284522
-1.2814921
-1.3321499
-1.3801843
-1.4253802
-1.4675489
-1.5065286
-1.5421838
-1.5744056
-1.6031098
-1.6282366
-1.6497474
-1.6676238
-1.6818672
-1.6924933
-1.6995332
-1.7030247
-1.7030236
-1.6995783
-1.6927843
-1.6828037
-1.6697162
-1.6536257
-1.6346588
-1.612942
-1.5886071
-1.5617901
-1.5326311
-1.5012741
-1.4678658
-1.4325554
-1.3954955
-1.3568413
-1.3167482
-1.2753741
-1.2328784
-1.1894217
-1.1451659
-1.1002731
-1.0549052
-1.0092247
-0.96339061
-0.91757255
-0.87194211
-0.82663968
-0.78180517
-0.7375877
-0.69412686
-0.65155507
-0.60999645
-0.56956483
-0.530364
-0.49248673
-0.45601213
-0.4210065
-0.38752321
-0.37577075
-0.40964012
-0.44512516
-0.48217133
-0.52070992
-0.56065844
-0.60191967
-0.64438407
-0.6879313
-0.7324306
-0.77774236
-0.82371994
-0.87020867
-0.91705657
-0.96412058
-1.0112273
-1.0581967
-1.1048662
-1.1510689
-1.1966389
-1.2414107
-1.2852195
-1.3279017
-1.3692952
-1.4092397
-1.4475767
-1.4841491
-1.5188018
-1.5513828
-1.581742
-1.6097319
-1.6352086
-1.6580318
-1.6780626
-1.6951682
-1.7092196
-1.7201104
-1.7277473
-1.7319518
-1.7326411
-1.7297422
-1.7231891
-1.7129312
-1.6989274
-1.681152
-1.6595945
-1.6342632
-1.6051876
-1.5724201
-1.5360379
-1.4961441
-1.4528705
-1.4063778
-1.3568559
-1.3045244
-1.249633
-1.1924605
-1.133312
-1.0725152
-1.010422
-0.9474022
-0.88378884
-0.81997346
-0.82540501
-0.89217389
-0.95872412
-1.0246162
-1.0894738
-1.1529083
-1.2145366
-1.2740082
-1.3310002
-1.3852208
-1.4364123
-1.484351
-1.5288464
-1.5697408
-1.6069079
-1.6402519
-1.669705
-1.695225
-1.7167936
-1.734414
-1.7481084
-1.757915
-1.7638872
-1.7660894
-1.7646002
-1.7595094
-1.7509098
-1.7389633
-1.723806
-1.7055405
-1.684299
-1.6602209
-1.6334516
-1.6041363
-1.5724229
-1.538462
-1.5024072
-1.4644139
-1.4246398
-1.3832446
-1.3403893
-1.2962366
-1.2509512
-1.2046995
-1.1576496
-1.1099708
-1.0618328
-1.0134079
-0.96486287
-0.91638827
-0.86816032
-0.82032588
-0.77304994
-0.72649418
-0.68081368
-0.63615654
-0.59266162
-0.55045671
-0.5096583
-0.4703694
-0.43267704
-0.39665283
-0.36235258
-0.34715855
-0.3819343
-0.41855901
-0.45697523
-0.4971077
-0.53886394
-0.58213378
-0.62679238
-0.67270262
-0.71971593
-0.76767417
-0.81641231
-0.86575998
-0.91553888
-0.96559614
-1.0157516
-1.0658047
-1.1155829
-1.164909
-1.2136086
-1.2615087
-1.3084381
-1.3542272
-1.3987089
-1.4417183
-1.4830918
-1.5226676
-1.5602853
-1.5957864
-1.6290144
-1.6598142
-1.688033
-1.7135218
-1.7361286
-1.755707
-1.7721243
-1.7852712
-1.7949694
-1.8010823
-1.8034977
-1.8021113
-1.79683
-1.7875739
-1.7742752
-1.7568807
-1.7353538
-1.7096772
-1.6798553
-1.6459176
-1.60792
-1.5659484
-1.5201212
-1.4705914
-1.417548
-1.361218
-1.301867
-1.2398004
-1.1753601
-1.1089222
-1.0409049
-0.97171929
-0.90179278
-0.83162148
-0.8387191
-0.91279421
-0.98658361
-1.0595256
-1.1311345
-1.200971
-1.2685782
-1.3335518
-1.3955293
-1.4541918
-1.5092668
-1.5605262
-1.6077845
-1.6508964
-1.6897544
-1.7242857
-1.7544492
-1.7802316
-1.8016453
-1.8187246
-1.8315235
-1.8401123
-1.844576
-1.8450112
-1.8415271
-1.8342431
-1.8232881
-1.8087985
-1.7909497
-1.7698957
-1.7457619
-1.7186996
-1.6888664
-1.656418
-1.6215116
-1.584306
-1.5449609
-1.5036375
-1.4604988
-1.4157087
-1.3694326
-1.3218379
-1.2730939
-1.223373
-1.1728495
-1.1217003
-1.0701043
-1.0182435
-0.96629922
-0.91447904
-0.86296819
-0.81193079
-0.76155677
-0.71202726
-0.66351911
-0.61620231
-0.57023717
-0.52577219
-0.48294254
-0.44186705
-0.40264507
-0.3653565
-0.33006081
-0.3109162
-0.34677659
-0.38479518
-0.42490983
-0.46703495
-0.51106272
-0.55686344
-0.6042894
-0.65317841
-0.70335588
-0.75463754
-0.80683274
-0.85974728
-0.91317972
-0.96695199
-1.020872
-1.074726
-1.1283231
-1.1814763
-1.2340019
-1.2857195
-1.3364516
-1.3860237
-1.4342642
-1.4810042
-1.5260766
-1.5693155
-1.6105561
-1.6496345
-1.686388
-1.7206543
-1.7522718
-1.7810776
-1.8069093
-1.8296213
-1.8490681
-1.8650623
-1.8774451
-1.8860643
-1.8907766
-1.8914464
-1.8879468
-1.8801623
-1.8679887
-1.8513358
-1.8301293
-1.8043145
-1.7738588
-1.7387557
-1.6990275
-1.65473
-1.6059561
-1.5528394
-1.4955586
-1.4343399
-1.369461
-1.3012534
-1.2301008
-1.1564379
-1.0807648
-1.0035557
-0.92536126
-0.84681924
-0.77267573
-0.85607626
-0.93972088
-1.0229269
-1.1049691
-1.1852247
-1.263176
-1.3382766
-1.4100592
-1.4781191
-1.542114
-1.6017646
-1.65685
-1.7072038
-1.752709
-1.7932919
-1.8289187
-1.8595903
-1.8853373
-1.9062163
-1.9223061
-1.9337045
-1.9405245
-1.942892
-1.9409434
-1.9348247
-1.924689
-1.9106954
-1.8930093
-1.8717977
-1.8472415
-1.8195251
-1.7887983
-1.755221
-1.718962
-1.6801885
-1.6390658
-1.5957591
-1.5504345
-1.5032582
-1.4543975
-1.4040206
-1.3522975
-1.2994014
-1.2455086
-1.1907993
-1.135457
-1.07967
-1.0236306
-0.96753907
-0.91161601
-0.85606232
-0.80107077
-0.74685594
-0.69362733
-0.64159184
-0.59095074
-0.54189583
-0.49460591
-0.44924413
-0.40595362
-0.36485293
-0.32603492
-0.28956511
-0.2658287
-0.30295289
-0.34264394
-0.38483187
-0.42941465
-0.47626018
-0.52520854
-0.57607749
-0.6286678
-0.68276701
-0.73815349
-0.79460127
-0.85188323
-0.90976959
-0.96805233
-1.02652
-1.0849437
-1.1431147
-1.2008352
-1.2579131
-1.3141616
-1.3693991
-1.4234477
-1.4761336
-1.5272865
-1.5767378
-1.6243196
-1.6698648
-1.713206
-1.7541761
-1.7926063
-1.8283238
-1.8611596
-1.8909607
-1.9175413
-1.9407089
-1.9602846
-1.9760877
-1.9879388
-1.995662
-1.9990854
-1.9980421
-1.9923726
-1.9819272
-1.9665663
-1.9461658
-1.9206185
-1.8898396
-1.8537694
-1.8123786
-1.7656738
-1.7137027
-1.6565598
-1.5943924
-1.5274102
-1.4558893
-1.3801791
-1.3007044
-1.217966
-1.1325594
-1.0450561
-0.95615702
-0.86668705
-0.77742596
-0.7829299
-0.87890732
-0.97502811
-1.0703895
-1.1640525
-1.2552328
-1.3432935
-1.4275895
-1.5075865
-1.582842
-1.6530059
-1.7178122
-1.7770703
-1.8306603
-1.8785193
-1.9206324
-1.957027
-1.9877668
-2.0129454
-2.0326814
-2.0471138
-2.0563976
-2.0607017
-2.0602021
-2.0550842
-2.045537
-2.0317528
-2.0139249
-1.9922481
-1.9669151
-1.9381194
-1.9060452
-1.8708933
-1.8328476
-1.7920654
-1.74872
-1.7029843
-1.6550274
-1.6050168
-1.5531197
-1.4995035
-1.444336
-1.3877873
-1.330031
-1.2712448
-1.2116116
-1.1513201
-1.0905659
-1.0295526
-0.96849533
-0.90763267
-0.84718926
-0.78738816
-0.7284769
-0.67070254
-0.61431367
-0.55955604
-0.50666738
-0.45587192
-0.40737556
-0.36135938
-0.31797263
-0.27732926
-0.23950514
-0.21036638
-0.24893724
-0.29061975
-0.3353302
-0.38293914
-0.43327538
-0.48613097
-0.5412705
-0.59843897
-0.65736788
-0.71778253
-0.77940819
-0.84197441
-0.90521389
-0.96888841
-1.0327577
-1.0965724
-1.1601132
-1.2231712
-1.2855479
-1.3470536
-1.4075055
-1.4667272
-1.5245466
-1.5807955
-1.6353078
-1.6879177
-1.7384592
-1.7867652
-1.8326645
-1.8759844
-1.9165646
-1.9542251
-1.9887627
-2.0199888
-2.047705
-2.0717084
-2.0917928
-2.1077477
-2.119361
-2.126419
-2.1287083
-2.1260163
-2.1181371
-2.1048701
-2.0860249
-2.0614263
-2.0309168
-1.994363
-1.9516598
-1.9027389
-1.8475743
-1.7861866
-1.7186555
-1.6451431
-1.5658943
-1.4812495
-1.3916654
-1.2977086
-1.2000718
-1.0994708
-0.99677846
-0.89306289
-0.78938053
-0.79705486
-0.90960533
-1.0220094
-1.1330172
-1.2414166
-1.3462417
-1.4466881
-1.5420287
-1.6316702
-1.7151439
-1.7921337
-1.8624284
-1.9259041
-1.98254
-2.0323729
-2.0754778
-2.1119721
-2.142009
-2.1657683
-2.1834514
-2.195275
-2.2014681
-2.2022671
-2.1979108
-2.1886407
-2.1746962
-2.1563134
-2.133724
-2.1071545
-2.0768251
-2.0429496
-2.0057342
-1.9653781
-1.9220722
-1.8760141
-1.8273805
-1.7763309
-1.7230339
-1.667657
-1.6103636
-1.5513162
-1.490678
-1.4286135
-1.3652917
-1.3008862
-1.2355781
-1.1695571
-1.1030226
-1.0361879
-0.96927555
-0.90254445
-0.83625298
-0.77065625
-0.70604208
-0.64270808
-0.58095964
-0.52110586
-0.46345263
-0.4082931
-0.35589992
-0.30651515
-0.26033852
-0.21751987
-0.17815318
-0.14256886
-0.18278409
-0.22684988
-0.27465833
-0.32603291
-0.38073635
-0.43848254
-0.49895183
-0.56180337
-0.62668617
-0.69325012
-0.76115388
-0.8300681
-0.89968812
-0.96973306
-1.0399254
-1.1100053
-1.1797435
-1.248925
-1.3173506
-1.3848328
-1.4511944
-1.5162664
-1.5798852
-1.6418914
-1.7021268
-1.7604338
-1.8166513
-1.8706165
-1.9221749
-1.971156
-2.0173697
-2.0606287
-2.1007368
-2.1374891
-2.1706711
-2.2000585
-2.2254175
-2.2465048
-2.263069
-2.2748506
-2.281583
-2.2829936
-2.2788081
-2.2687509
-2.2525508
-2.2299437
-2.2006795
-2.1645258
-2.1212729
-2.0707467
-2.0128153
-1.9473681
-1.8743456
-1.7938238
-1.7059553
-1.6109926
-1.5094068
-1.401815
-1.2889704
-1.1717845
-1.051334
-0.9289961
-0.80625578
-0.68463392
-0.68413759
-0.81779636
-0.95239462
-1.0861103
-1.2171873
-1.3440833
-1.465628
-1.5808698
-1.689156
-1.7897999
-1.8822414
-1.9663118
-2.0419471
-2.1091412
-2.1680911
-2.2190083
-2.2620809
-2.2975442
-2.3256718
-2.346755
-2.3610987
-2.3690179
-2.3708318
-2.3668581
-2.3574087
-2.3427891
-2.3232941
-2.2992072
-2.2707998
-2.2383316
-2.2020495
-2.1621876
-2.118968
-2.0726006
-2.0232846
-1.9712081
-1.9165504
-1.8594918
-1.800193
-1.7388009
-1.6754696
-1.6103518
-1.5435981
-1.4753607
-1.4057955
-1.3350647
-1.2633393
-1.1908015
-1.1176482
-1.0440942
-0.97037418
-0.89674524
-0.82350359
-0.75095797
-0.67943274
-0.60929098
-0.54091621
-0.47470705
-0.41106954
-0.35040392
-0.29309018
-0.23947141
-0.1898341
-0.14439121
-0.10326999
-0.05985431
-0.10194652
-0.14892218
-0.20062719
-0.25679824
-0.31708327
-0.3810645
-0.44828447
-0.518269
-0.59054493
-0.66465496
-0.74016785
-0.81669232
-0.89386757
-0.97135703
-1.0488636
-1.1261242
-1.2029034
-1.2789895
-1.3541917
-1.4283354
-1.5012592
-1.5728106
-1.6428441
-1.7112171
-1.7777875
-1.8424125
-1.9049552
-1.9652678
-2.0231833
-2.0785341
-2.1311438
-2.1808243
-2.2273751
-2.2705827
-2.3102187
-2.3460399
-2.3777872
-2.4051854
-2.4279431
-2.4457529
-2.4582912
-2.4652184
-2.4661841
-2.4608223
-2.4487653
-2.42964
-2.4030814
-2.368734
-2.3262532
-2.2753406
-2.215745
-2.1470941
-2.0690101
-1.9815663
-1.8847771
-1.7785324
-1.6634005
-1.5397856
-1.4082378
-1.2700289
-1.1265876
-0.97970565
-0.83151577
-0.68420656
-0.52106029
-0.68083256
-0.8440798
-1.0080764
-1.1701733
-1.3278161
-1.4789785
-1.6220233
-1.755858
-1.8796902
-1.9926948
-2.0940146
-2.1841996
-2.2640104
-2.3334899
-2.3932255
-2.4436715
-2.4850755
-2.5178046
-2.5422917
-2.5589664
-2.5682499
-2.5705794
-2.5663874
-2.5560802
-2.5400509
-2.518674
-2.4923024
-2.4612668
-2.4258773
-2.3864235
-2.3431755
-2.2963843
-2.2462835
-2.1930877
-2.1369979
-2.0781999
-2.0168668
-1.9531582
-1.8872267
-1.8192237
-1.7492807
-1.677521
-1.6040745
-1.5290716
-1.4526452
-1.3749342
-1.2960873
-1.2162671
-1.1356546
-1.0544538
-0.97289712
-0.89125018
-0.80981713
-0.72894342
-0.649029
-0.57051075
-0.49386485
-0.41961644
-0.34832176
-0.28054765
-0.21685084
-0.15774789
-0.10368023
-0.054980487
-0.011841309
0.041351836
-0.0029246302
-0.053588057
-0.11038981
-0.17289916
-0.24055193
-0.31270009
-0.38865857
-0.46774311
-0.54929759
-0.63273077
-0.71749824
-0.80310971
-0.88915087
-0.97526143
-1.0611334
-1.1465042
-1.2311501
-1.3148795
-1.3975265
-1.478945
-1.5590035
-1.6375804
-1.7145585
-1.7898223
-1.8632628
-1.9347722
-2.0042158
-2.0714574
-2.1363582
-2.1987668
-2.2585165
-2.3154254
-2.3692927
-2.4199053
-2.4670263
-2.5103981
-2.5497414
-2.5847537
-2.6151081
-2.6404522
-2.6604041
-2.6745531
-2.6824659
-2.6836824
-2.6777175
-2.6640677
-2.6422282
-2.6116816
-2.5719081
-2.5225864
-2.4636808
-2.3942371
-2.3123095
-2.2175917
-2.1104273
-1.9904077
-1.8574975
-1.7127175
-1.5570909
-1.3916542
-1.2180357
-1.0383048
-0.85534178
-0.67259473
-0.49378045
-0.26876237
-0.46282683
-0.66571121
-0.87219901
-1.0775189
-1.2775136
-1.4690787
-1.649909
-1.8182707
-1.9731433
-2.1140088
-2.2404558
-2.3529993
-2.4515429
-2.535826
-2.6061578
-2.6641461
-2.7116847
-2.7491465
-2.7768426
-2.7953918
-2.8053952
-2.8074348
-2.8020922
-2.7899197
-2.7714266
-2.7470858
-2.7173468
-2.6826198
-2.6432759
-2.599657
-2.5520757
-2.5008181
-2.446147
-2.3883004
-2.3274861
-2.2639055
-2.1977338
-2.1291304
-2.0582321
-1.9851657
-1.9100449
-1.8329965
-1.7541265
-1.673516
-1.5912606
-1.5074589
-1.4222115
-1.3356273
-1.247831
-1.1589668
-1.0692071
-0.97875965
-0.88787656
-0.79686324
-0.70608738
-0.6159881
-0.52708473
-0.43998717
-0.35539404
-0.27406548
-0.19683073
-0.12454266
-0.058025536
0.0019861293
0.054919965
0.10044403
0.16633551
0.11942573
0.063820929
-2.0716169e-05
-0.071318426
-0.14909745
-0.23229523
-0.31984587
-0.41075261
-0.50409246
-0.59907818
-0.69503995
-0.7914235
-0.88777568
-0.98373105
-1.0789974
-1.1733426
-1.2665836
-1.3585759
-1.4492049
-1.5383733
-1.626
-1.7120104
-1.7963281
-1.8788854
-1.9596211
-2.0384326
-2.1152138
-2.189865
-2.2622799
-2.3323459
-2.3999121
-2.4648137
-2.5268428
-2.5858021
-2.6414563
-2.693538
-2.7417564
-2.785795
-2.8253016
-2.8598908
-2.8891263
-2.9125132
-2.9295385
-2.9396497
-2.9422306
-2.9365866
-2.9220275
-2.8978245
-2.8630978
-2.8171715
-2.7599825
-2.6896297
-2.6044483
-2.5045793
-2.3890324
-2.2572346
-2.108728
-1.9434766
-1.7617256
-1.5642696
-1.3527307
-1.1296801
-0.89845113
-0.66382691
-0.43190851
-0.20935514
-0.0029709069
0.095608747
-0.14334332
-0.40125587
-0.66877122
-0.93699377
-1.1983872
-1.4476012
-1.6809623
-1.8959585
-2.0912412
-2.2665163
-2.4219659
-2.5580312
-2.6754855
-2.7754301
-2.8581094
-2.926548
-2.983679
-3.0275764
-3.0586063
-3.0783718
-3.0880544
-3.0885051
-3.0805236
-3.0649133
-3.0423664
-3.0134641
-2.9787599
-2.9388124
-2.8940842
-2.8449688
-2.7918203
-2.7349488
-2.6746459
-2.6111816
-2.5447778
-2.4756142
-2.4039255
-2.3298573
-2.2535561
-2.1750852
-2.094523
-2.0119562
-1.9274753
-1.8411756
-1.7531004
-1.6632879
-1.5717877
-1.4786421
-1.3838986
-1.2876219
-1.1898855
-1.0907966
-0.99050209
-0.88920189
-0.78716099
-0.6847267
-0.58235105
-0.48060967
-0.38023096
-0.28210942
-0.18730215
-0.097057611
-0.012706872
0.064374211
0.13286857
0.19168188
0.24015955
0.36086858
0.32337938
0.27309032
0.21033341
0.13607563
0.051893494
-0.040418728
-0.13905748
-0.24231913
-0.34872026
-0.457023
-0.56623432
-0.67557938
-0.78448659
-0.8925286
-0.99939891
-1.1048773
-1.2088093
-1.3110984
-1.4116819
-1.5105462
-1.6076612
-1.7030184
-1.7966172
-1.8884397
-1.9784729
-2.0666988
-2.1530308
-2.2373811
-2.3196714
-2.3998502
-2.4779671
-2.5538662
-2.6274387
-2.6983757
-2.7665176
-2.8316833
-2.8935964
-2.9519521
-3.0064731
-3.0568243
-3.1026208
-3.1433862
-3.17846
-3.2072383
-3.2291451
-3.2434376
-3.2492114
-3.2456159
-3.2317349
-3.2062294
-3.167323
-3.113006
-3.0444424
-2.9625005
-2.8653618
-2.7486582
-2.6099135
-2.4492128
-2.2651055
-2.0569201
-1.8242165
-1.5676383
-1.2893265
-0.993219
-0.68508909
-0.37379028
-0.071155754
0.20965055
0.4558903
0.63319356
0.34134159
0.0058701588
-0.35350717
-0.71884028
-1.0746324
-1.4104051
-1.7195671
-1.9994233
-2.2488578
-2.4679729
-2.6588796
-2.8216402
-2.9590082
-3.0767005
-3.175641
-3.256884
-3.3207945
-3.3675866
-3.3992049
-3.4175427
-3.4241631
-3.4205921
-3.4076173
-3.3860773
-3.3570381
-3.3212352
-3.2791623
-3.2315402
-3.1792428
-3.1227612
-3.0624532
-2.9986187
-2.9314534
-2.8612633
-2.7883044
-2.7126506
-2.6344747
-2.5542571
-2.4720402
-2.3880766
-2.3019789
-2.2137912
-2.1236031
-2.0315831
-1.9378118
-1.8422534
-1.7449024
-1.6457349
-1.5446974
-1.4417607
-1.3369226
-1.2300959
-1.1213034
-1.0105751
-0.89800656
-0.78374425
-0.66802065
-0.55120518
-0.43382033
-0.31665634
-0.20078645
-0.087643624
0.02099086
0.12302334
0.2160357
0.29759677
0.3653641
0.41785288
0.45435665
0.57973132
0.57723641
0.56074173
0.52605076
0.47078905
0.39646703
0.30550451
0.2013227
0.087360932
-0.033242492
-0.15788909
-0.28454413
-0.41155625
-0.53784288
-0.66258245
-0.78539185
-0.90601671
-1.0243564
-1.1403732
-1.2539736
-1.3652366
-1.4741489
-1.5810044
-1.6857985
-1.7885751
-1.889471
-1.9885863
-2.0859011
-2.1815205
-2.2753904
-2.3671115
-2.4568453
-2.5442875
-2.630508
-2.7150167
-2.79789
-2.8783259
-2.9560134
-3.0312124
-3.1038369
-3.1732978
-3.2394073
-3.30216
-3.3612404
-3.416228
-3.46586
-3.5091887
-3.5459534
-3.5755359
-3.5966208
-3.6084514
-3.6106249
-3.6013154
-3.5788579
-3.5416436
-3.4879665
-3.4152835
-3.3196278
-3.2008186
-3.0594091
-2.8935727
-2.702456
-2.4770527
-2.2126665
-1.9101413
-1.5691541
-1.1904065
-0.77854232
-0.34872084
0.084253486
0.49246824
0.84592963
1.4353724
1.1058656
0.66364312
0.15562961
-0.37104146
-0.87935644
-1.3558605
-1.7777954
-2.1474551
-2.4672893
-2.7401573
-2.9749742
-3.1735561
-3.342292
-3.4821711
-3.5935862
-3.6784499
-3.7394812
-3.7816227
-3.8077439
-3.8194563
-3.8182207
-3.8061589
-3.7852344
-3.7548954
-3.7162811
-3.671065
-3.6190953
-3.5601814
-3.4962494
-3.4293795
-3.3597713
-3.2875497
-3.2126893
-3.1345754
-3.0543208
-2.9719006
-2.8861581
-2.7981084
-2.7090198
-2.6188405
-2.5290716
-2.4351744
-2.338567
-2.2403956
-2.1411131
-2.0402195
-1.9374599
-1.8330568
-1.7267645
-1.6183132
-1.5076979
-1.3949924
-1.2794058
-1.1613669
-1.0403304
-0.91644332
-0.78959279
-0.65968776
-0.52690769
-0.39124636
-0.25357908
-0.11477242
0.023221758
0.15817937
0.28692106
0.40542332
0.50891464
0.59222562
0.65129985
0.68282184
0.69120522
0.68334284
0.66455297
0.76364318
0.79680559
0.81925757
0.82398015
0.79800849
0.73342279
0.63768574
0.51730955
0.38055625
0.23373983
0.081980299
-0.070914865
-0.22343427
-0.37269396
-0.51827935
-0.65958243
-0.79658216
-0.92967024
-1.0589646
-1.1854268
-1.3087427
-1.4288783
-1.5442992
-1.6582773
-1.7700509
-1.8793147
-1.9864741
-2.092177
-2.1959155
-2.2983442
-2.4005145
-2.5023897
-2.5930498
-2.6890752
-2.7835149
-2.8772638
-2.9709861
-3.0628065
-3.1496425
-3.2330753
-3.317131
-3.3988244
-3.47709
-3.5530569
-3.6271014
-3.700735
-3.7696049
-3.8289142
-3.8814444
-3.9292784
-3.9695124
-3.9994908
-4.0220837
-4.0356139
-4.0368082
-4.0248114
-3.998151
-3.9532319
-3.8810537
-3.7803431
-3.653653
-3.4988555
-3.3089195
-3.0795597
-2.8017241
-2.4725303
-2.0864345
-1.6088198
-1.0458821
-0.43596426
0.21116108
0.86363125
1.4253052
1.8271901
2.5981672
2.3364655
1.7783415
1.0787295
0.20366931
-0.58567757
-1.2854508
-1.7576893
-1.589407
-2.0109889
-2.2005037
-2.474927
-2.6115898
-2.8788029
-2.9859497
-3.2100665
-3.2645757
-3.4735452
-3.5021202
-3.6735989
-3.6857143
-3.8342816
-3.8364635
-3.9654973
-3.9612037
-4.0759942
-4.0632834
-4.159551
-4.13347
-4.2040464
-4.1700838
-4.2247475
-4.1904336
-4.2298717
-4.1953925
-4.2240188
-4.1873145
-4.2083597
-4.1631911
-4.1835095
-4.1331702
-4.1513868
-4.1027333
-4.1041879
-4.0586865
-4.0546526
-4.0033973
-4.0015726
-3.948086
-3.9399541
-3.8892804
-3.8692654
-3.8119431
-3.7906656
-3.7308576
-3.7098307
-3.6530892
-3.6296968
-3.5726284
-3.5497191
-3.4923694
-3.4655401
-3.4084535
-3.3806949
-3.3251097
-3.2956535
-3.2421475
-3.208717
-3.1540264
-3.1168171
-3.0592573
-3.018444
-2.9606759
-2.9207004
-2.8639707
-2.8241332
-2.7680986
-2.7303616
-2.6734701
-2.6596554
-2.6079278
-2.6279489
-2.6466876
-2.5599178
-2.4611832
-2.3562287
-2.2496994
-2.1420909
-2.0325937
-1.9230521
-1.8098812
-1.6942194
-1.5772277
-1.4565065
-1.3389795
-1.2103651
-1.0787782
-0.94517987
-0.80700972
-0.66404833
-0.51530856
-0.3600265
-0.19951887
-0.030798052
0.13985588
0.3120176
0.48129788
0.6422782
0.78653992
0.90084601
0.97327593
0.98927269