/*--------------------------------*- C++ -*----------------------------------*\
| =========                 |                                                 |
| \\      /  F ield         | OpenFOAM: The Open Source CFD Toolbox           |
|  \\    /   O peration     | Version:  v2012                                 |
|   \\  /    A nd           | Website:  www.openfoam.com                      |
|    \\/     M anipulation  |                                                 |
\*---------------------------------------------------------------------------*/
FoamFile
{
    version     2.0;
    format      ascii;
    class       volScalarField;
    location    "0";
    object      p;
}
// * * * * * * * * * * * * * * * * * * * * * * * * * * * * * * * * * * * * * //

dimensions      [0 2 -2 0 0 0 0];


internalField   nonuniform List<scalar> 
24787
(
-3.4615904
-4.8149574
-3.73698
-2.2179448
-1.6037433
-2.0237994
-2.4558755
-2.380182
-1.6803297
-1.7643209
-1.8663697
-1.960382
-2.0150008
-2.0166318
-1.9777538
-1.9147091
-1.871945
-1.9348195
-2.0734547
-2.1906456
-2.0837248
-2.3806513
-2.1732114
-2.622828
-4.0642313
-2.7943371
-1.3957988
-0.97449061
-1.4068801
-1.7595818
-1.6497071
-0.92599401
-0.99600938
-1.0789206
-1.1371933
-1.1418712
-1.1090625
-1.0949163
-1.1633459
-1.269591
-1.322599
-1.252554
-1.5483563
-1.8739552
-3.3620499
-1.7523435
-0.37192439
-0.10538064
-0.41823098
-0.62753138
-0.49361873
0.086582274
0.11901655
0.13672833
0.20939474
0.28399547
0.34164355
0.39772737
0.40230902
0.54399804
0.45829992
1.2775992
1.4206087
0.76459594
0.19020597
0.030787516
-0.18215037
-0.31950356
-0.36333282
-0.35779704
-0.33230698
-0.30362701
-0.28454713
-0.27289721
-0.26574634
-0.28920147
-0.30238371
-0.31925989
-0.34204603
-0.37299837
-0.41379557
-0.46499764
-0.52614964
-0.59661901
-0.67615242
-0.76457575
-0.86117575
-0.96442453
-1.0723258
-1.1824972
-3.3097277
-4.1478333
-3.6383149
-3.7576473
-3.5822848
-3.6836147
-3.5238009
-3.7187647
-3.4488074
-3.5793593
-3.5837872
-2.6281972
-2.8274061
-3.2844395
-3.6304488
-3.6304648
-3.6473819
-3.6466516
-3.6832916
-3.7073781
-3.7450797
-3.7112432
-3.6046671
-2.7994615
-2.8727146
-2.943995
-2.9040628
-2.8627388
-2.820521
-2.8140905
-2.8288034
-2.8744169
-2.7193533
-2.7265656
-3.2463777
-3.5631159
-3.0977465
-2.9213086
-3.0801616
-2.9202227
-2.9561723
-2.7761016
-2.9208034
-2.9116296
-3.2004852
-2.9996026
-2.3934453
-1.6693766
-2.1248982
-3.0063537
-2.2242973
-1.9247748
-1.881673
-2.1196523
-1.9881911
-1.8049294
-1.7382383
-1.7034333
-1.7240327
-1.7373889
-1.7827938
-1.9329317
-2.1518061
-2.579072
-2.4881689
-2.3629378
-2.2639562
-2.1815448
-2.1254184
-2.0491017
-2.0345472
-2.2441127
-2.0416176
-1.9094896
-2.0743686
-2.1086886
-2.0805008
-2.0556898
-2.0260975
-2.0065111
-2.0505231
-2.2811517
-2.739455
-2.773288
-2.5151259
-2.3875186
-2.1214649
-2.0567651
-1.9804857
-1.9853292
-1.9070929
-1.874174
-2.0778799
-2.1837108
-2.0234829
-2.0809652
-2.1087192
-2.2096208
-2.1105419
-2.1169099
-2.0345249
-1.9705642
-1.9352434
-1.6502739
-1.5967819
-1.5551659
-1.5158553
-1.4100676
-2.2278463
-2.8221657
-2.0963092
-1.9955043
-1.8811569
-1.7559154
-1.6225296
-1.4838079
-1.3425731
-1.2016858
-1.0639381
-0.93175699
-0.80730332
-0.69254587
-0.58905366
-0.49791467
-0.41967438
-0.35431432
-0.3012797
-0.25956055
-0.22782334
-0.20456032
-0.1882193
-0.17730899
-0.17048287
-0.1665882
-0.16716328
-0.17071624
-0.17707069
-0.18737334
-0.20298629
-0.22543976
-0.2563376
-0.29725559
-0.34961075
-0.41448727
-0.49248479
-0.58363532
-0.68737827
-0.80258914
-0.92765281
-1.0605571
-1.1990941
-1.3408132
-1.4829062
-1.6224903
-1.756736
-1.8828344
-1.9980366
-2.0996897
-2.106904
-2.0034262
-1.8863918
-1.7584633
-1.6223804
-1.4809485
-1.3370066
-1.193476
-1.0532118
-0.91871917
-0.79230821
-0.67608782
-0.57178021
-0.48059808
-0.40314161
-0.33934916
-0.28851458
-0.24938368
-0.22034971
-0.19968005
-0.18565515
-0.17665783
-0.17130627
-0.16847232
-0.17080169
-0.17250466
-0.17627758
-0.18319874
-0.19466228
-0.21238976
-0.23831464
-0.27445872
-0.32273718
-0.38469348
-0.4612369
-0.55248313
-0.65774084
-0.77562527
-0.90423527
-1.0413056
-1.1843622
-1.3308036
-1.4777376
-1.6221214
-1.7611354
-1.8919833
-2.0119611
-2.1183617
-2.1337624
-2.0234494
-1.8994796
-1.7646341
-1.6216018
-1.4731635
-1.3221554
-1.171695
-1.0247595
-0.88409061
-0.7523752
-0.6320837
-0.52539834
-0.43401536
-0.35880431
-0.29958322
-0.25511933
-0.22337955
-0.20195452
-0.18840354
-0.18050298
-0.17639918
-0.17472521
-0.17446528
-0.17978147
-0.1784614
-0.17768536
-0.17835671
-0.18177091
-0.18987364
-0.20525924
-0.23093221
-0.27003236
-0.32538543
-0.39878738
-0.49049275
-0.59923733
-0.72277518
-0.85852575
-1.0038042
-1.1557134
-1.3112316
-1.46726
-1.6206763
-1.768663
-1.9084621
-2.0373516
-2.1524279
-2.1735296
-2.0529318
-1.9183255
-1.77283
-1.6191969
-1.4601379
-1.2983591
-1.1367771
-0.97875715
-0.82784819
-0.68717047
-0.55945656
-0.44774094
-0.35529972
-0.28426235
-0.23428871
-0.20256509
-0.18498003
-0.17734159
-0.17594605
-0.17779081
-0.18092663
-0.18423214
-0.18703764
-0.19644703
-0.19253227
-0.18696082
-0.18002455
-0.17245805
-0.1660254
-0.16398311
-0.17090304
-0.19247433
-0.23487931
-0.30287388
-0.39700138
-0.51306797
-0.64582899
-0.7921396
-0.9497813
-1.1153173
-1.2840871
-1.4520983
-1.6170015
-1.776645
-1.9283341
-2.0694339
-2.196221
-2.2200117
-2.0860159
-1.9376045
-1.7794863
-1.6139607
-1.4436557
-1.2689808
-1.0915947
-0.91711048
-0.75173852
-0.5992203
-0.46020307
-0.33727796
-0.239743
-0.17593169
-0.14481213
-0.1375223
-0.14439041
-0.1579919
-0.17310662
-0.18639512
-0.19664877
-0.20377671
-0.20805108
-0.22154927
-0.21786982
-0.21030034
-0.19801262
-0.17988963
-0.15624087
-0.13006104
-0.10616901
-0.093118927
-0.10598157
-0.16262935
-0.2666383
-0.40028032
-0.54718221
-0.70691117
-0.88186258
-1.0675741
-1.2547057
-1.4353053
-1.6093926
-1.7803794
-1.9449446
-2.1022464
-2.2448767
-2.2700326
-2.1167608
-1.9488211
-1.7774287
-1.6016452
-1.4296319
-1.2457945
-1.0468656
-0.84658662
-0.65964143
-0.48741813
-0.32610688
-0.17602382
-0.066424489
-0.027707446
-0.045482496
-0.086383179
-0.12836225
-0.16434424
-0.19299467
-0.21430848
-0.22762707
-0.23418961
-0.23611284
-0.25006355
-0.25053048
-0.2459986
-0.23493473
-0.21615262
-0.18707527
-0.14483427
-0.086951044
-0.012651605
0.052834041
0.050927256
-0.061268323
-0.22953782
-0.40734257
-0.60490574
-0.81403435
-1.0359485
-1.2507796
-1.4348006
-1.5886113
-1.7669381
-1.9565149
-2.1283025
-2.2697153
-1.5330593
-1.4535716
-1.3684848
-1.2796557
-1.1888833
-1.0978635
-1.0081594
-0.92121241
-0.8381689
-0.75989722
-0.6871128
-0.62029425
-0.55969064
-0.50533829
-0.45708656
-0.41463042
-0.37754727
-0.34533515
-0.31744915
-0.16675229
-0.16710833
-0.16770287
-0.16857572
-0.1697475
-0.1712207
-0.17299008
-0.17505196
-0.17740735
-0.18006087
-0.18301887
-0.31138423
-0.31401222
-0.31583767
-0.31694207
-0.34470694
-0.34333917
-0.34107921
-0.3378277
-0.333592
-0.32847388
-0.32261524
-0.22758943
-0.22142217
-0.21562499
-0.21020475
-0.20516216
-0.20049349
-0.19619196
-0.19224905
-0.18865544
-0.18540183
-0.1824795
-0.17988108
-0.1776018
-0.17564142
-0.17400522
-0.17270051
-0.1717263
-0.1710616
-0.17066395
-0.17751057
-0.17795463
-0.17869579
-0.17977968
-0.1812275
-0.18303818
-0.18520162
-0.18771048
-0.19056396
-0.19376686
-0.19732758
-0.20125681
-0.20556674
-0.21027046
-0.21538117
-0.22091118
-0.22687059
-0.23326572
-0.24009723
-0.24735829
-0.25503291
-0.26309427
-0.27150348
-0.28020901
-0.2891464
-0.29823826
-0.30739466
-0.31651366
-0.32548225
-0.33417759
-0.34246781
-0.35021041
-0.35724771
-0.36340433
-0.36850375
-0.37241999
-0.3751425
-0.37679034
-0.41374223
-0.41180858
-0.40861336
-0.40401638
-0.39803003
-0.39080368
-0.38254832
-0.37347626
-0.36378141
-0.35364131
-0.34322136
-0.33267527
-0.32214261
-0.31174638
-0.30159134
-0.29176349
-0.28233025
-0.27334168
-0.26483171
-0.25682002
-0.2493144
-0.24231316
-0.23580739
-0.22978325
-0.22422393
-0.21911141
-0.21442771
-0.21015596
-0.20628109
-0.20279038
-0.19967437
-0.19692829
-0.19455406
-0.19256141
-0.19096361
-0.18976424
-0.18894172
-0.18844637
-0.20481474
-0.20536368
-0.20626991
-0.20758695
-0.20933677
-0.21151323
-0.21409991
-0.21708479
-0.22046487
-0.22424497
-0.22843557
-0.23305125
-0.23810975
-0.24363152
-0.2496391
-0.25615615
-0.26320616
-0.27081076
-0.27898749
-0.28774714
-0.29709082
-0.30700664
-0.31746625
-0.32842135
-0.33980119
-0.35151047
-0.36342829
-0.37540898
-0.38728463
-0.39886938
-0.40996344
-0.42035415
-0.42981214
-0.43808986
-0.44494427
-0.45020514
-0.45386006
-0.45607113
-0.50420726
-0.50174374
-0.49766936
-0.49180045
-0.48414714
-0.47489624
-0.46431797
-0.45269081
-0.44027611
-0.42731931
-0.41405325
-0.40069571
-0.38744337
-0.37446552
-0.36190021
-0.34985317
-0.33839934
-0.32758544
-0.31743443
-0.30795028
-0.29912289
-0.29093224
-0.28335221
-0.2763536
-0.26990657
-0.26398236
-0.25855444
-0.25359935
-0.2490972
-0.245032
-0.24139254
-0.23817392
-0.23537998
-0.23302451
-0.23112651
-0.22969418
-0.22870524
-0.22810336
-0.25986543
-0.26051856
-0.26158604
-0.26312644
-0.26516297
-0.26768656
-0.27067666
-0.27411841
-0.27800741
-0.28234847
-0.28715305
-0.29243767
-0.29822338
-0.30453556
-0.31140362
-0.31886045
-0.32694133
-0.33568229
-0.34511742
-0.3552754
-0.36617492
-0.37781914
-0.39018987
-0.40324093
-0.41689248
-0.43102732
-0.44548974
-0.460087
-0.47459496
-0.48876629
-0.50233876
-0.51503914
-0.52658031
-0.53665993
-0.5449878
-0.5513665
-0.55579063
-0.55846386
-0.61899965
-0.6161772
-0.61150245
-0.60475483
-0.59593256
-0.58523649
-0.57296737
-0.55944198
-0.54496463
-0.52982886
-0.51431999
-0.4987101
-0.48324757
-0.46814664
-0.45358017
-0.43967683
-0.42652223
-0.41416307
-0.40261413
-0.39186625
-0.38189345
-0.37265971
-0.36412428
-0.35624575
-0.34898499
-0.34230666
-0.33618008
-0.33057964
-0.32548469
-0.32087942
-0.31675308
-0.31310148
-0.30992938
-0.30725197
-0.30508998
-0.30345191
-0.30231255
-0.30161038
-0.35466908
-0.35541627
-0.35662055
-0.35834652
-0.36062197
-0.3634403
-0.36678189
-0.37063181
-0.37498476
-0.37984349
-0.38521661
-0.39111749
-0.39756438
-0.40458089
-0.41219651
-0.42044681
-0.42937249
-0.43901789
-0.44942815
-0.46064447
-0.47269804
-0.48560241
-0.49934473
-0.51387672
-0.52910696
-0.5448963
-0.56105717
-0.57735784
-0.59353132
-0.60928805
-0.62432819
-0.63834756
-0.65103526
-0.66207142
-0.67115562
-0.67809172
-0.68289086
-0.68578576
-0.75857901
-0.7557021
-0.75092808
-0.74401748
-0.7349486
-0.72390457
-0.71117327
-0.69706519
-0.6818859
-0.66593884
-0.64952774
-0.63294997
-0.61648312
-0.60037
-0.5848082
-0.56994485
-0.55587609
-0.5426521
-0.53028537
-0.5187602
-0.50804303
-0.49809044
-0.48885626
-0.48029639
-0.47237156
-0.46504941
-0.45830445
-0.45211776
-0.44647599
-0.44137033
-0.43679595
-0.43275272
-0.42924717
-0.42629392
-0.42391089
-0.42210207
-0.42083701
-0.42004915
-0.49830781
-0.49913487
-0.50046156
-0.50235603
-0.5048508
-0.50794412
-0.51161913
-0.5158607
-0.52065995
-0.52601282
-0.53191843
-0.53837877
-0.54539961
-0.55299212
-0.56117428
-0.56997176
-0.57941799
-0.58955276
-0.60041916
-0.61205878
-0.62450457
-0.63777118
-0.65184532
-0.66667537
-0.68216256
-0.69815664
-0.71445656
-0.73081722
-0.74696096
-0.76259414
-0.77742154
-0.79115306
-0.803501
-0.81417703
-0.82291878
-0.82956454
-0.83414713
-0.83690559
-0.92005343
-0.91751979
-0.91330445
-0.90717866
-0.89909807
-0.889195
-0.87769174
-0.86484362
-0.85090737
-0.83614601
-0.82083261
-0.80524423
-0.78964612
-0.77427501
-0.75932652
-0.74494779
-0.7312365
-0.71824479
-0.70598833
-0.6944556
-0.68361869
-0.67344236
-0.6638915
-0.65493594
-0.64655255
-0.63872667
-0.63145149
-0.62472687
-0.61855725
-0.61294984
-0.60791316
-0.60345726
-0.59959503
-0.59634394
-0.59372176
-0.59172979
-0.59033459
-0.58946597
-0.69297875
-0.69389378
-0.69536892
-0.69747729
-0.70025158
-0.70368783
-0.70776439
-0.71245869
-0.71775164
-0.72362542
-0.7300619
-0.73704253
-0.74455001
-0.75257038
-0.76109542
-0.77012434
-0.77966477
-0.78973222
-0.80034814
-0.81153573
-0.82331372
-0.83568729
-0.84863818
-0.86211431
-0.87602401
-0.89023065
-0.90455462
-0.91877975
-0.9326674
-0.94596904
-0.95844927
-0.96988721
-0.98007314
-0.98880734
-0.99590443
-1.0012652
-1.0049443
-1.0071514
-1.0970546
-1.0952802
-1.0923139
-1.0879736
-1.0821948
-1.0750339
-1.0666187
-1.05709
-1.0466032
-1.0353326
-1.0234688
-1.0112055
-0.99873818
-0.98624814
-0.97388892
-0.96177722
-0.94999375
-0.93858888
-0.92758482
-0.91698586
-0.90678747
-0.89698382
-0.88757293
-0.8785596
-0.86995664
-0.86178464
-0.85407048
-0.84684512
-0.840141
-0.83398996
-0.82842181
-0.82346394
-0.81914401
-0.81549261
-0.81253898
-0.81029331
-0.80872555
-0.80775836
-0.93223559
-0.93325988
-0.93493016
-0.93732925
-0.94048335
-0.94437298
-0.94895776
-0.95419636
-0.96005055
-0.96648135
-0.97344475
-0.98089423
-0.98878062
-0.99705337
-1.0056637
-1.0145673
-1.0237263
-1.0331104
-1.0426964
-1.0524674
-1.062409
-1.072504
-1.0827264
-1.0930361
-1.1033669
-1.1136259
-1.123695
-1.1334398
-1.142719
-1.1513978
-1.1593481
-1.1664605
-1.1726449
-1.1778234
-1.1819468
-1.1850101
-1.1870868
-1.1883222
-1.2793834
-1.2787767
-1.2777395
-1.2761716
-1.2739937
-1.2711585
-1.267642
-1.2634376
-1.2585536
-1.2530157
-1.2468708
-1.2401892
-1.2330473
-1.2255206
-1.2176792
-1.2095823
-1.2012767
-1.1927967
-1.184175
-1.1754454
-1.1666457
-1.1578209
-1.1490243
-1.1403163
-1.1317639
-1.1234388
-1.1154145
-1.1077643
-1.1005586
-1.0938615
-1.0877275
-1.0822079
-1.0773534
-1.0732185
-1.0698569
-1.0672993
-1.0655234
-1.0644405
-1.2022115
-1.2033515
-1.2052303
-1.2079427
-1.2115071
-1.2158816
-1.2209978
-1.2267865
-1.2331822
-1.2401191
-1.2475268
-1.2553234
-1.263418
-1.2717142
-1.2801121
-1.2885109
-1.2968118
-1.3049207
-1.3127505
-1.3202242
-1.3272761
-1.3338519
-1.3399089
-1.3454124
-1.3503386
-1.3546708
-1.3583978
-1.3615139
-1.3640239
-1.3659475
-1.3673251
-1.3682191
-1.3687098
-1.3688939
-1.3688778
-1.3687637
-1.3686341
-1.3685359
-1.4539727
-1.4548343
-1.4562288
-1.4581696
-1.4605742
-1.4632839
-1.4661055
-1.468847
-1.4713312
-1.4733985
-1.4749087
-1.4757434
-1.4758063
-1.4750242
-1.4733462
-1.4707468
-1.4672282
-1.4628194
-1.4575749
-1.451572
-1.4449077
-1.4376939
-1.4300532
-1.422115
-1.4140106
-1.4058702
-1.3978198
-1.3899786
-1.3824558
-1.3753509
-1.368755
-1.3627507
-1.3574187
-1.3528439
-1.3491098
-1.3462686
-1.3443043
-1.3431173
-1.4843629
-1.4855777
-1.4875945
-1.4905154
-1.4943555
-1.4990536
-1.5045126
-1.5106323
-1.5173161
-1.5244658
-1.5319745
-1.5397243
-1.547585
-1.5554152
-1.5630636
-1.5703719
-1.5771769
-1.5833153
-1.5886285
-1.5929691
-1.5962079
-1.5982423
-1.5990039
-1.5984657
-1.5966471
-1.5936162
-1.5894884
-1.5844217
-1.5786116
-1.5722837
-1.5656858
-1.5590826
-1.5527532
-1.5469882
-1.5420681
-1.5382081
-1.5354873
-1.5338266
-1.7205177
-1.7167581
-1.7119039
-1.7061471
-1.6996821
-1.6927001
-1.685385
-1.67791
-1.6704368
-1.6631139
-1.6560763
-1.6494468
-1.6433395
-1.6378661
-1.6331415
-1.6292752
-1.6263365
-1.6243067
-1.6230868
-1.7564624
-1.7576568
-1.7596441
-1.7625286
-1.7663217
-1.7709487
-1.7762901
-1.7822175
-1.7886046
-1.7953227
-1.8022343
-1.8091894
-1.8160241
-1.8225609
-1.8286086
-1.8339635
-1.8384116
-1.9464594
-1.9416771
-1.9362462
-1.9303693
-1.924235
-1.9180182
-1.9118806
-1.9059724
-1.9004349
-1.8954073
-1.8910294
-1.8874305
-1.8846918
-1.8828072
-1.8816761
-1.9959729
-1.9969958
-1.9987064
-2.0011947
-2.0044575
-2.0084052
-2.0129002
-2.0177936
-2.0229365
-2.0281774
-2.033357
-2.0383059
-2.0428433
-2.0467762
-2.118905
-2.1148631
-2.1109125
-2.107208
-2.1039039
-2.1011434
-2.0990253
-2.0975685
-2.0967026
-2.1001623
-1.9985675
-1.8833941
-1.7572969
-1.623034
-1.4834243
-1.3413023
-1.1995522
-1.060981
-0.92804376
-0.80294949
-0.68771152
-0.58394545
-0.49277684
-0.41476721
-0.34988003
-0.29750939
-0.25657603
-0.22566881
-0.20320464
-0.18757391
-0.17725652
-0.17089602
-0.16734037
-0.26065071
-0.2635433
-0.26349266
-0.25964726
-0.24887143
-0.22451011
-0.18188341
-0.11693882
-0.006816117
0.11744386
0.17727872
0.092426177
-0.096032487
-0.30683939
-0.53900757
-0.77813052
-1.0399207
-1.2712676
-1.4681857
-1.5739295
-1.7449118
-1.9893637
-2.1350486
-2.2080802
-2.3562864
-2.5015899
-2.1075636
-2.004124
-1.8870751
-1.7590833
-1.6229157
-1.4814035
-1.3373985
-1.1938359
-1.0535394
-0.91901732
-0.79257754
-0.6763281
-0.5719958
-0.48079701
-0.40333617
-0.33954249
-0.28869684
-0.24955575
-0.22052321
-0.19985365
-0.18581361
-0.17682241
-0.17149666
-0.16869207
-0.26573759
-0.27115213
-0.27745242
-0.283838
-0.28637216
-0.2748665
-0.23799722
-0.17080119
-0.033201394
0.1289082
0.2651859
0.29260514
0.097649712
-0.18939939
-0.46543935
-0.73671315
-0.89275755
-1.0392587
-1.1511574
-1.2251155
-1.2784995
-1.3309197
-1.4783956
-1.6099909
-1.5397289
-1.6849421
-1.9148355
-2.146433
-2.135589
-2.1059406
-2.0450893
-2.031565
-2.0233297
-2.0430853
-2.2077312
-2.459654
-2.4544124
-2.600092
-2.6069894
-2.4817031
-2.1191285
-2.012806
-1.892821
-1.7618457
-1.6226716
-1.4781495
-1.3311758
-1.1846955
-1.0415811
-0.90445424
-0.77578918
-0.65785858
-0.55256676
-0.46130163
-0.38475747
-0.32281301
-0.2745503
-0.23842454
-0.21251904
-0.1948072
-0.18334735
-0.17645842
-0.17273903
-0.17106238
-0.26750552
-0.27515389
-0.28711034
-0.30658074
-0.33239174
-0.35390989
-0.35483022
-0.31892112
-0.2065401
-0.019340925
0.15571485
0.98299654
1.6625693
1.4049375
0.57197357
0.4003434
0.25936341
0.12255534
0.047904678
-0.050636365
-0.13436995
-0.18617851
-0.20673626
-0.28062441
-0.36303967
-0.39327858
-0.42538269
-0.4511277
-0.4714222
-0.48028771
-0.4846511
-0.48035075
-0.48067275
-0.47821657
-0.47944616
-0.47894754
-0.47995448
-0.48047557
-0.48174873
-0.48237498
-0.48306483
-0.48326507
-0.48362019
-0.48330816
-0.48247127
-0.48109336
-0.48140588
-0.48218466
-0.48175152
-0.48187992
-0.48448966
-0.48645011
-0.4873424
-0.48763522
-0.48827841
-0.48879405
-0.48967343
-0.49026833
-0.49116251
-0.4916616
-0.49217073
-0.49274303
-0.4941401
-0.49511055
-0.49608171
-0.49661707
-0.49741461
-0.49806247
-0.49917829
-0.50020284
-0.5016458
-0.50266707
-0.50362215
-0.50504356
-0.50826654
-0.50936041
-0.50785963
-0.50762954
-0.50964086
-0.51091049
-0.51200171
-0.51240117
-0.51258638
-0.51169793
-0.51016944
-0.50763565
-0.50455718
-0.50170925
-0.49747296
-0.49009543
-0.46874174
-0.42518181
-0.39757322
-0.56813568
-0.45813752
-0.39076785
-0.35088607
-0.32646079
-0.31487396
-0.30968707
-0.30797918
-0.30854234
-0.31216179
-0.31772516
-0.32244356
-0.32620311
-0.32918686
-0.33195502
-0.33321672
-0.33326353
-0.33265171
-0.33019194
-0.32593792
-0.31752034
-0.30293516
-0.28285666
-0.25286822
-0.23107556
-0.21116203
-0.26436335
-0.38359218
-0.80617412
-2.3249722
-3.036545
-3.1900614
-1.9448724
-0.71624601
-0.34498557
-0.25690629
-0.22071443
-0.23624079
-0.25391601
-0.27123694
-0.28215752
-0.29176126
-0.29868554
-0.3023295
-0.30287751
-0.303533
-0.30367391
-0.30136516
-0.29637107
-0.28972235
-0.28301237
-0.2771173
-0.27197256
-0.26925365
-0.27039278
-0.2739096
-0.28398161
-0.30726436
-0.3560063
-0.44715355
-0.54317611
-0.54024175
-0.34594527
-0.43954507
-0.467043
-0.47739953
-0.48120709
-0.4825142
-0.48394541
-0.48552816
-0.48676291
-0.48752381
-0.48793244
-0.48774415
-0.48727884
-0.48653458
-0.48648314
-0.48683373
-0.48590746
-0.48353263
-0.48284313
-0.48296506
-0.48120498
-0.47825456
-0.4760489
-0.47436583
-0.47299252
-0.47179163
-0.4708164
-0.46967972
-0.46874263
-0.46784144
-0.46706008
-0.46569228
-0.46321529
-0.46095126
-0.4609125
-0.46126819
-0.46095923
-0.46004069
-0.45912256
-0.45810309
-0.45714601
-0.45641018
-0.45637432
-0.45606561
-0.45380463
-0.45163833
-0.45315625
-0.45497967
-0.45411131
-0.4527105
-0.45235441
-0.45237932
-0.45244901
-0.45222096
-0.45186348
-0.45142124
-0.45112253
-0.45148932
-0.45302334
-0.45415669
-0.45428708
-0.45165137
-0.44636087
-0.43618871
-0.42073557
-0.39868894
-0.37061514
-0.33179867
-0.25907095
-0.23609203
-0.18571972
-0.10509605
0.0029300732
0.1112807
0.26482205
0.40860817
0.65385527
0.41422946
0.25345507
0.09031706
-0.031222901
-0.14618504
-0.22914322
-0.28070399
-0.30190192
-0.33217963
-0.31441134
-0.26252187
-0.17499254
-0.050164736
0.086688191
0.24870873
0.40882311
0.77182114
0.40917032
0.23397894
0.06868775
-0.069275992
-0.19788178
-0.28673588
-0.33683912
-0.35383399
-0.36673261
-0.34853796
-0.30010518
-0.21078954
-0.076542919
0.069391931
0.23417972
0.40685141
0.83675979
0.40729989
0.2155367
0.052143781
-0.086664708
-0.21852806
-0.30612626
-0.35388015
-0.37431038
-0.37676386
-0.35457665
-0.30737829
-0.22112183
-0.088878316
0.053745559
0.21717608
0.40866031
0.87777937
0.4114706
0.21323544
0.046753212
-0.093849436
-0.22268758
-0.30647591
-0.35273842
-0.3764902
-0.37429095
-0.34909015
-0.30324426
-0.22055024
-0.092595189
0.050063546
0.21606672
0.41159065
0.89434118
0.41161906
0.20752008
0.044613301
-0.092566091
-0.21785412
-0.29951694
-0.34533921
-0.37141936
-0.36916634
-0.34242961
-0.29649741
-0.21487157
-0.089294147
0.047646716
0.20838433
0.41183056
0.90186375
0.41295329
0.20976325
0.048462678
-0.087855649
-0.21317388
-0.29457332
-0.34049462
-0.3680202
-0.36754447
-0.33887872
-0.29260021
-0.21070864
-0.084326138
0.052908967
0.21167168
0.41117181
0.90104332
0.40886354
0.20806394
0.053540455
-0.08168668
-0.20847779
-0.29095268
-0.33748058
-0.36728646
-0.36719426
-0.33675312
-0.29005702
-0.20672403
-0.079082674
0.056948307
0.21093857
0.40768554
0.89418739
0.40871852
0.21374586
0.058764834
-0.077576241
-0.20564574
-0.28942213
-0.33620833
-0.3670799
-0.36667153
-0.33577314
-0.28876835
-0.20454821
-0.075833982
0.061300683
0.2163249
0.40904101
0.89097287
0.40841858
0.21449143
0.062190252
-0.07451404
-0.20348516
-0.28793588
-0.33529014
-0.36623511
-0.36640987
-0.33490055
-0.28724588
-0.20320131
-0.07434137
0.063268556
0.21559148
0.40887376
0.89102876
0.40896214
0.21680617
0.064571063
-0.07471545
-0.20392369
-0.28653567
-0.33425079
-0.36768597
-0.36912274
-0.33419354
-0.28583904
-0.20427251
-0.075092684
0.065467179
0.21769379
0.40939663
0.89210589
0.41059807
0.21741067
0.064050364
-0.075516854
-0.20303364
-0.28572556
-0.33578837
-0.3689331
-0.36849596
-0.33738029
-0.28621034
-0.20224834
-0.07618428
0.062875778
0.21813355
0.41117214
0.89181304
0.41003373
0.21779659
0.063279077
-0.076996533
-0.20370855
-0.2861677
-0.33685606
-0.37028166
-0.37149661
-0.33645575
-0.28663865
-0.204988
-0.07733575
0.063359094
0.21664041
0.40936525
0.89296906
0.40956023
0.21448792
0.06149059
-0.076965714
-0.2050952
-0.28826029
-0.33686088
-0.37054366
-0.36978052
-0.33749562
-0.29002451
-0.2054212
-0.076916739
0.060177134
0.21387561
0.40924001
0.8927288
0.40795389
0.21351466
0.059549515
-0.077891212
-0.20643443
-0.29094484
-0.33809157
-0.37047493
-0.37154421
-0.33883489
-0.29160452
-0.2072929
-0.078778032
0.059544333
0.21288647
0.40634082
0.89214804
0.4044139
0.21073708
0.058913699
-0.079417841
-0.20800973
-0.29228354
-0.33950905
-0.37255715
-0.37347967
-0.34019943
-0.29331621
-0.20886967
-0.079693821
0.058865409
0.20971248
0.40242698
0.89131793
0.40020098
0.20854378
0.058151272
-0.080300385
-0.21004217
-0.29443119
-0.34074092
-0.37440301
-0.37539713
-0.34157063
-0.29505876
-0.21093334
-0.080829447
0.058067937
0.20730098
0.39792213
0.89044462
0.39547585
0.20497746
0.057186791
-0.082416388
-0.21122983
-0.29459892
-0.34309147
-0.37650211
-0.3776083
-0.34476853
-0.29455902
-0.21156549
-0.08403918
0.056926177
0.20392343
0.39353536
0.89048736
0.39148196
0.20267961
0.056958437
-0.084807111
-0.21397925
-0.29538033
-0.34408578
-0.37954925
-0.38089547
-0.34376956
-0.29706572
-0.21588467
-0.084982672
0.056877487
0.20155085
0.39058083
0.89125098
0.39063358
0.20018714
0.055447467
-0.085321337
-0.2163484
-0.29851938
-0.34458958
-0.38168456
-0.38236933
-0.34593877
-0.29998053
-0.21677887
-0.086239717
0.053673367
0.20024282
0.39165262
0.89113212
0.39204062
0.20064826
0.052625178
-0.087498852
-0.21775326
-0.30103879
-0.34732933
-0.38333022
-0.38432814
-0.34879854
-0.30203057
-0.21853022
-0.088594385
0.051530117
0.20066354
0.39285292
0.89085829
0.39310807
0.19943598
0.050351444
-0.089247922
-0.2191113
-0.30295094
-0.34989008
-0.38539055
-0.38648147
-0.35108194
-0.30393706
-0.21984958
-0.090170312
0.049185664
0.19891696
0.39321658
0.89168084
0.39253244
0.19835054
0.048067576
-0.091294262
-0.22084703
-0.30487992
-0.35208196
-0.3877223
-0.38897371
-0.35297175
-0.30580018
-0.22169229
-0.092230633
0.047124653
0.19791905
0.39208947
0.89193738
0.39196661
0.19670575
0.045887291
-0.093126152
-0.22234805
-0.30666299
-0.35369079
-0.39022367
-0.39168895
-0.35409731
-0.30771772
-0.22339775
-0.094145619
0.044842864
0.19647978
0.39201479
0.89151315
0.39164929
0.19606697
0.043924752
-0.09521113
-0.22510013
-0.30865352
-0.35387687
-0.39368602
-0.39462785
-0.35436963
-0.3099749
-0.22617974
-0.095826988
0.042941621
0.19575057
0.39197027
0.890881
0.39234228
0.19447948
0.041416284
-0.095563419
-0.22646191
-0.3121969
-0.35559005
-0.39386251
-0.39482224
-0.35683445
-0.3134983
-0.22745889
-0.095807765
0.041038535
0.19319067
0.39188661
0.89220963
0.38913696
0.19131292
0.041883507
-0.096922903
-0.22949804
-0.31303032
-0.35753673
-0.39845805
-0.40045715
-0.35856725
-0.31309599
-0.2306173
-0.097900257
0.042222889
0.19044143
0.38777484
0.89335143
0.38713929
0.18970515
0.041454622
-0.098640382
-0.23043545
-0.31380873
-0.36015022
-0.4004111
-0.4005088
-0.3610788
-0.31463788
-0.23051159
-0.099068727
0.041032053
0.19004258
0.38635759
0.89253818
0.38561861
0.19005255
0.040384175
-0.099485507
-0.2310665
-0.31543639
-0.36122802
-0.40092364
-0.40133331
-0.36131915
-0.31612431
-0.2313382
-0.099338968
0.040279511
0.18998605
0.38488694
0.89217389
0.38407245
0.18873087
0.040111343
-0.09928756
-0.2314375
-0.31640603
-0.36139492
-0.40154171
-0.40173525
-0.36184628
-0.31642698
-0.23153817
-0.099682839
0.040699653
0.18864545
0.38300802
0.89264378
0.38132352
0.18855667
0.04104683
-0.10049307
-0.23176322
-0.31626921
-0.36230399
-0.40188964
-0.4023042
-0.36271344
-0.31607001
-0.23165902
-0.10055361
0.041548593
0.18781094
0.37996863
0.89373122
0.37844691
0.18567959
0.0413221
-0.10014824
-0.23154475
-0.31596496
-0.36266041
-0.40300475
-0.40431369
-0.36254386
-0.31594261
-0.23159565
-0.099916777
0.041305559
0.18485818
0.37729541
0.89440028
0.37601387
0.18448301
0.040444659
-0.10105209
-0.232304
-0.3163262
-0.36298068
-0.40674727
-0.41164473
-0.36588064
-0.31800831
-0.23366472
-0.10278926
0.039549719
0.18345464
0.37455044
0.89514392
0.37297115
0.18137356
0.038081637
-0.10488475
-0.23594075
-0.32209038
-0.37316971
-0.42174314
-0.44653653
-0.38822961
-0.32740417
-0.2379892
-0.10654503
0.037233743
0.18068814
0.37249755
0.89708634
0.37278094
0.18195566
0.03770363
-0.10751538
-0.23865535
-0.32809473
-0.39671469
-0.48130074
-0.44820154
-0.35951797
-0.33274628
-0.24029241
-0.10657793
0.040048687
0.18381121
0.37404014
0.90095958
0.37620022
0.18495445
0.04330454
-0.1032891
-0.23963241
-0.33785197
-0.40511765
-0.48464785
-0.46188502
-0.41142073
-0.49618353
-0.43158703
-0.35355833
-0.24345394
-0.10261514
0.045134147
0.18637369
0.37860401
0.90745409
0.38156136
0.18843969
0.044588451
-0.10550876
-0.25029282
-0.36591137
-0.4443914
-0.49758603
-0.38342572
-0.37035743
-0.49764531
-0.45096724
-0.37441381
-0.25657279
-0.10988381
0.041193319
0.18831805
0.38465013
0.91477357
0.3870257
0.18700153
0.037715029
-0.11376203
-0.26190114
-0.38071735
-0.45541274
-0.49834407
-0.36443195
-0.36322659
-0.50070975
-0.45915536
-0.38614468
-0.26794301
-0.11763396
0.034424237
0.18556555
0.38927508
0.9175098
0.39361559
0.18973527
0.033673494
-0.12147844
-0.27417301
-0.39113809
-0.46283286
-0.50433275
-0.36414073
-0.36555749
-0.5065406
-0.46743624
-0.39640556
-0.27950743
-0.1278417
0.028957961
0.19181025
0.3996446
0.91610067
0.40699118
0.19753043
0.025820275
-0.13539295
-0.28415016
-0.40184789
-0.47226602
-0.5076514
-0.36851347
-0.37397302
-0.51096224
-0.47753588
-0.40721364
-0.28785433
-0.14385793
0.016082034
0.20073586
0.41622815
0.90374139
0.41543085
0.20017691
0.013853332
-0.14016948
-0.28502916
-0.41217335
-0.48456241
-0.51844584
-0.38248464
-0.39377099
-0.53128101
-0.49774736
-0.42455367
-0.28319296
-0.10153718
0.033104799
0.13820963
0.39294349
0.91364435
0.53307552
0.32965643
0.19004983
0.10033121
0.21889126
0.2551366
0.26765213
0.26941507
0.27144538
0.25187376
0.23775575
0.18376023
0.15519426
0.089174166
0.078221708
0.032521948
0.057147158
-0.0058790279
-0.35202948
-1.3923414
-1.6369776
-1.7042087
-1.0658769
-0.11340413
0.27240662
0.32868355
0.22202908
0.28142024
0.25453729
0.33034287
0.33545673
0.40243714
0.41149985
0.43819864
0.42484976
0.40206725
0.3595574
0.28739417
0.30190565
0.44962265
0.91512154
0.46971554
0.3522545
0.39296034
0.47373243
0.81429569
0.47651671
0.41519879
0.41849537
0.44326069
0.67981727
0.41324589
0.38513931
0.38343841
0.38081809
0.54107203
0.31748071
0.30010137
0.30558321
0.28217001
0.41927405
0.222255
0.21646716
0.25955103
0.19523349
0.2622692
0.12255952
0.17587542
0.23712182
0.010739486
0.014403937
-0.29863596
0.017211605
0.20141318
0.022353964
0.0097914766
0.38874473
0.36167421
0.92762446
1.0099846
1.2730178
1.5089884
1.6779996
1.8599405
1.9531618
2.0116259
2.0033323
2.0373288
2.0428186
2.0464709
2.0379229
2.0324568
2.0278899
2.025778
2.0235462
2.0220861
2.020921
2.020391
2.0196077
2.0191038
2.0186595
2.0200212
2.0212951
2.0227217
2.0231043
2.0241405
2.0253218
2.0267905
2.0271712
2.0275129
2.0269962
2.0270377
2.0267245
2.0275604
2.0270482
2.028312
2.0265023
2.0327784
2.0368418
2.051058
2.0550555
2.0557181
2.0303213
1.956985
1.8063889
1.5373195
2.1581955
1.3513328
-0.38732134
1.5750884
2.4360526
2.5645761
1.6194801
-0.53897701
1.6390116
2.6194903
2.6285367
1.6395383
-0.55048802
1.632182
2.6185556
2.6059945
1.6200967
-0.55118549
1.6129588
2.5916102
2.5842269
1.6026401
-0.56194312
1.6008558
2.5782915
2.5759689
1.5934464
-0.57532505
1.5946379
2.5759034
2.5755452
1.592548
-0.58496155
1.5904121
2.5733539
2.5706279
1.5880166
-0.58934651
1.5838364
2.5667959
2.5631681
1.5808475
-0.59276192
1.5765634
2.5594174
2.5557524
1.5740131
-0.59646162
1.5710417
2.5537403
2.5516631
1.5690521
-0.60067975
1.5652207
2.5483416
2.5450277
1.5627123
-0.60467294
1.5598303
2.5428822
2.5411122
1.5581788
-0.60933174
1.5552777
2.5386799
2.5355642
1.5528687
-0.61339914
1.5490192
2.5325506
2.5304959
1.5471053
-0.6175304
1.544859
2.5290733
2.5273988
1.5436923
-0.62097899
1.5419741