/*--------------------------------*- C++ -*----------------------------------*\
| =========                 |                                                 |
| \\      /  F ield         | OpenFOAM: The Open Source CFD Toolbox           |
|  \\    /   O peration     | Version:  v2012                                 |
|   \\  /    A nd           | Website:  www.openfoam.com                      |
|    \\/     M anipulation  |                                                 |
\*---------------------------------------------------------------------------*/
FoamFile
{
    version     2.0;
    format      ascii;
    class       volVectorField;
    location    "0";
    object      U;
}
// * * * * * * * * * * * * * * * * * * * * * * * * * * * * * * * * * * * * * //

dimensions      [0 1 -1 0 0 0 0];


internalField   nonuniform List<vector> 
24787
(
(5.915697 -0.43220507 0.097140392)
(6.1998241 -0.37840563 0.050078786)
(6.1370582 -0.34670483 -0.040683291)
(5.5959639 -0.42101609 -0.099839452)
(5.4367704 -0.39618244 -0.0018317756)
(5.4266379 -0.37422475 0.0024444861)
(5.4334542 -0.34405658 0.056167804)
(5.3363873 -0.36525823 0.028236343)
(5.3945343 -0.43466473 0.070103334)
(5.470218 -0.41705197 -0.00016218552)
(5.4704656 -0.43848336 0.00013008742)
(5.4730003 -0.44638982 -0.00029480476)
(5.4717821 -0.45416024 -0.0040016457)
(5.4665429 -0.45195094 -0.0078495428)
(5.4537983 -0.47274306 -0.0093563379)
(5.4424751 -0.47914723 -0.011683951)
(5.4499817 -0.500079 -0.014159833)
(5.5122912 -0.52538793 -0.0071709204)
(5.5534672 -0.51507637 -0.012254574)
(5.7337525 -0.5185118 0.089180443)
(5.8073011 -0.4656284 0.034009369)
(5.6145894 -0.49343826 -0.072605814)
(5.5626321 -0.45308065 0.046832748)
(5.5912947 -0.64440538 0.092085053)
(5.9073971 -0.54923487 0.031036809)
(5.8254758 -0.52220424 -0.032405773)
(5.3558736 -0.55146676 -0.092116543)
(5.2158804 -0.54602785 -0.010505873)
(5.2189316 -0.49852524 0.020420544)
(5.2091146 -0.4718991 0.040717895)
(5.0817946 -0.49753437 0.023786933)
(5.1372254 -0.56628265 0.058457765)
(5.2111722 -0.54901163 -0.0032230796)
(5.212233 -0.5614336 -0.0047123948)
(5.2103926 -0.56631849 -0.0080903323)
(5.1998037 -0.57761802 -0.0092698044)
(5.1927073 -0.58004354 -0.012722864)
(5.19993 -0.59895374 -0.016416227)
(5.2529911 -0.6312656 -0.0047198032)
(5.273534 -0.58535958 -0.0059405965)
(5.365509 -0.57871039 0.077042148)
(5.4317815 -0.57379006 0.031303952)
(5.2447106 -0.57517203 -0.077815591)
(5.2989551 -0.68452213 0.16820011)
(5.5988508 -0.63088023 0.0099917411)
(5.4511489 -0.58778515 -0.030327206)
(5.016467 -0.60410437 -0.067636344)
(4.8822682 -0.61044918 -0.005410295)
(4.8619248 -0.53866433 0.024893234)
(4.821092 -0.54947581 0.03211391)
(4.7189289 -0.5526776 0.021242037)
(4.7381408 -0.61153953 0.051834043)
(4.7787302 -0.59674979 -0.0027361812)
(4.7525426 -0.60367713 -0.0089886893)
(4.7247894 -0.61229826 -0.011711874)
(4.7036581 -0.62870426 -0.014752916)
(4.7201724 -0.64689077 -0.010378208)
(4.7173529 -0.62503063 -0.01996437)
(4.8591747 -0.66795163 0.067402555)
(4.9212648 -0.61156171 0.024273925)
(4.7249354 -0.61519118 -0.069439978)
(4.3074211 -0.66784167 -0.033534564)
(4.40513 -0.059965233 -0.019339243)
(4.734365 -0.11401085 -0.040275929)
(4.7316364 -0.020549 -0.018741863)
(4.7856568 -0.076855835 -0.021761001)
(4.8722081 -0.051714272 -0.0041248973)
(4.9417775 -0.026802056 -0.0022412964)
(4.9720225 -0.010685733 -0.0044541093)
(4.9789813 -0.0037967028 -0.0027105059)
(4.9756971 0.0008303123 -0.0024311737)
(4.9698202 8.3632606e-05 -0.0012943659)
(4.9672328 -0.00024172279 -0.00084181431)
(4.9667661 -0.00062796702 -0.00028907222)
(4.9681264 -0.0010093314 -0.00012283363)
(5.0258952 -0.00094624591 0.0058808537)
(5.0291661 -0.0011495621 0.0072335067)
(5.0332945 -0.0013839891 0.0089090867)
(5.0385171 -0.0016363181 0.010853713)
(5.0450184 -0.0018827239 0.012923498)
(5.0528659 -0.0020948794 0.014914452)
(5.0619771 -0.0022500668 0.016631086)
(5.0721562 -0.0023415016 0.017987179)
(5.0832103 -0.0023801679 0.019052699)
(5.0950285 -0.0023810275 0.019923033)
(5.1075498 -0.0023524577 0.020625123)
(5.1206882 -0.0022942162 0.021101672)
(5.1342871 -0.0022019438 0.021269767)
(5.1481241 -0.0020716952 0.021063962)
(5.161937 -0.0019014882 0.020450654)
(5.7813656 -0.52768651 0.11016098)
(6.062572 -0.39817966 -0.00280213)
(5.9208669 -0.31315439 -0.073994343)
(5.95317 -0.33746994 -0.0073579154)
(5.8936449 -0.34709051 -0.040701357)
(5.9367281 -0.36165042 -0.075346611)
(5.8964911 -0.35516912 -0.092683463)
(5.9829072 -0.37633441 -0.10441746)
(5.9153814 -0.36454815 -0.15036434)
(6.0095156 -0.4227458 -0.23241236)
(6.0197939 -0.34206166 -0.29153922)
(5.7186707 -0.42292912 -0.18562498)
(5.4297606 -0.20264172 0.42915115)
(5.8551705 -0.41895225 0.13773821)
(5.9034488 -0.29422449 -0.028885942)
(5.8845194 -0.2864374 -0.00022698011)
(5.8931214 -0.28949694 0.012426738)
(5.9025232 -0.28892989 0.020394745)
(5.9164457 -0.28876479 0.026053167)
(5.9282891 -0.29006798 0.04110336)
(5.9397689 -0.28597922 0.059347912)
(5.932938 -0.28008079 0.075533949)
(5.9187827 -0.28881476 0.054832715)
(5.6050491 -0.22521922 0.044493928)
(5.652933 -0.22479842 0.07805945)
(5.6882518 -0.22632736 0.054517094)
(5.6600204 -0.2318443 0.03764795)
(5.6406037 -0.23260179 0.032969636)
(5.6155302 -0.23427811 0.029785335)
(5.5851869 -0.2343045 0.031089709)
(5.568113 -0.24376567 0.06322895)
(5.6251125 -0.26096696 0.10657698)
(5.5904807 -0.35238485 0.19188595)
(5.8230616 -0.46890686 0.12831867)
(5.8239836 -0.24109729 0.23234638)
(5.9497281 -0.16971023 0.088737895)
(5.8118085 -0.25153356 -0.032087754)
(5.7554253 -0.27864958 -0.097981184)
(5.7525397 -0.27579229 -0.12382636)
(5.7095804 -0.2771017 -0.14721964)
(5.6737892 -0.27577865 -0.172007)
(5.5513735 -0.26617126 -0.16306963)
(5.6332772 -0.26789662 -0.17231879)
(5.6858851 -0.23865328 -0.30127682)
(5.7535452 -0.32203249 -0.39421607)
(5.5325729 -0.31967375 -0.3804884)
(5.482222 -0.44934698 -0.33644069)
(5.4967607 -0.40320899 -0.084314618)
(5.519033 -0.49327564 -0.027039175)
(5.6552619 -0.24609585 0.18818782)
(5.3369141 -0.37492972 0.12573599)
(5.2727552 -0.3532378 0.064184279)
(5.2419451 -0.34779725 0.11906895)
(5.3766149 -0.30263171 0.026245054)
(5.4490362 -0.35748931 -0.17147624)
(5.3442633 -0.29773486 -0.17868435)
(5.3227056 -0.30703339 -0.069753578)
(5.3168227 -0.31105566 -0.0086270292)
(5.3181532 -0.3156303 0.035549858)
(5.3149949 -0.31836572 0.073264989)
(5.320883 -0.32612511 0.10400268)
(5.3256427 -0.33164584 0.13970344)
(5.2915145 -0.3264409 0.20762785)
(5.3913402 -0.2989872 0.1934089)
(5.5147555 -0.35085707 -0.0068590267)
(5.4556308 -0.30161321 -0.031794342)
(5.4193132 -0.31106747 0.027747074)
(5.4008892 -0.31169302 0.036523608)
(5.386919 -0.31459205 0.044989173)
(5.3586634 -0.31472485 0.071882956)
(5.295313 -0.30854353 0.12960042)
(5.3804498 -0.26424496 0.085647913)
(5.4665083 -0.30682032 -0.062491232)
(5.4668423 -0.37888176 -0.019135931)
(5.607901 -0.4299728 0.025433908)
(5.564326 -0.33742945 0.030597994)
(5.5411736 -0.34862665 0.035193232)
(5.5303184 -0.35378163 0.031218765)
(5.5136015 -0.36226699 0.020542904)
(5.4825126 -0.38021857 0.022627602)
(5.4486588 -0.41416477 0.094744514)
(5.5840523 -0.42522964 0.17441971)
(5.6983462 -0.46542616 0.17952662)
(5.6388035 -0.0400897 0.12712923)
(5.5549576 -0.1912004 0.067608437)
(5.5947491 -0.18090535 0.036115485)
(5.5558562 -0.19180289 0.010906556)
(5.5289927 -0.21065211 -0.030797411)
(5.512261 -0.22487803 -0.07728871)
(5.4917297 -0.2382886 -0.12780146)
(5.458965 -0.27527704 -0.16926737)
(5.4337112 -0.40564697 -0.22076942)
(5.5739241 -0.47058434 -0.24550693)
(5.5581148 -0.37223306 -0.26668785)
(5.5600461 -0.41277391 -0.21835501)
(5.4802169 -0.32692358 -0.0052724663)
(5.4496391 -0.27800411 -0.023895296)
(5.5092575 -0.14432283 -0.049541754)
(5.3686419 -0.065170833 -0.022783148)
(5.4094068 -0.20653494 0.04837511)
(5.3848124 -0.23415857 0.13236347)
(5.4503834 -0.60497548 0.098265131)
(5.4096087 -0.29506373 0.054921318)
(5.4030271 -0.41239711 0.0021498768)
(5.4378547 -0.34945743 0.007187853)
(5.2674023 0.13826951 0.1015936)
(5.797333 0.4580938 0.012230019)
(5.4924782 0.24816564 -0.11284311)
(5.6677846 0.064737641 0.0050140855)
(5.6736658 -0.31370585 0.049702362)
(5.2888488 -0.0064758492 0.0012771131)
(5.2762183 -0.0073503044 0.0013021207)
(5.2617804 -0.008078326 0.0013132118)
(5.2458458 -0.0086549165 0.0013120491)
(5.2287375 -0.0090778101 0.001300218)
(5.2107851 -0.0093468108 0.0012789106)
(5.1923186 -0.0094647781 0.001249353)
(5.1736605 -0.0094378858 0.0012129857)
(5.1551196 -0.0092755831 0.0011714507)
(5.136984 -0.0089895237 0.0011260951)
(5.1195158 -0.0085934705 0.0010779983)
(5.1029446 -0.0081036418 0.001028049)
(5.0874624 -0.00753867 0.00097712531)
(5.0732175 -0.0069190713 0.00092585206)
(5.0603114 -0.0062661411 0.00087464947)
(5.0487975 -0.0056007499 0.00082372424)
(5.0386819 -0.0049440293 0.00077383886)
(5.0299265 -0.0043149511 0.00072590247)
(5.0224577 -0.003725912 0.00067964508)
(5.0161773 -0.0031851056 0.00063476904)
(5.0109703 -0.0026997704 0.00059232161)
(5.0067118 -0.0022732483 0.00055311543)
(5.0032762 -0.0019035644 0.00051684906)
(5.0005446 -0.0015853975 0.00048263366)
(5.0000093 -0.0048463495 0.00050517385)
(5.0026515 -0.0058243551 0.00054707001)
(5.0059887 -0.006958579 0.00059041915)
(5.0101424 -0.0082726314 0.00063973451)
(5.0152458 -0.0097755731 0.00069665582)
(5.0214319 -0.011453259 0.00075768553)
(5.0288205 -0.013277533 0.00081867588)
(5.0375147 -0.0152285 0.00088221891)
(5.0475974 -0.017272616 0.00095088254)
(5.0591146 -0.019346045 0.0010211653)
(5.0720622 -0.021379723 0.0010903744)
(5.0863869 -0.023310784 0.0011589401)
(5.1019868 -0.025073675 0.0012263969)
(5.1187111 -0.026603722 0.0012912898)
(5.1363642 -0.027842554 0.0013518949)
(5.1547118 -0.028740095 0.0014069543)
(5.1734879 -0.02925435 0.001455116)
(5.1924003 -0.029348406 0.001494161)
(5.2111353 -0.028991517 0.0015213018)
(5.2293644 -0.028163985 0.0015346563)
(5.2467519 -0.026858 0.0015337624)
(5.2629636 -0.025076387 0.0015185756)
(5.2776719 -0.022825184 0.0014871879)
(5.29056 -0.020117309 0.0014370524)
(5.2943098 -0.035185477 0.0014859545)
(5.2808527 -0.039865535 0.0015226298)
(5.2655486 -0.043746064 0.0015441808)
(5.2487295 -0.046803818 0.0015443844)
(5.2307287 -0.049028884 0.0015225858)
(5.2118894 -0.050419512 0.001487821)
(5.1925619 -0.050992645 0.0014450518)
(5.1730896 -0.050782952 0.0013957246)
(5.1537972 -0.049843068 0.0013378769)
(5.1349843 -0.048237779 0.0012730658)
(5.1169251 -0.046042022 0.0012067912)
(5.0998645 -0.043342948 0.0011410915)
(5.0840075 -0.040241519 0.0010758471)
(5.0695095 -0.036850378 0.0010098542)
(5.0564715 -0.033287207 0.00094533928)
(5.0449492 -0.02966813 0.00089461919)
(5.0349469 -0.026109173 0.00084719753)
(5.0263955 -0.022711988 0.00078238159)
(5.019184 -0.019545396 0.00072046995)
(5.0132058 -0.016654173 0.00068310898)
(5.0083374 -0.014073907 0.00064682552)
(5.0044216 -0.011817624 0.00059710837)
(5.0013004 -0.0098707747 0.00054078251)
(4.9988492 -0.0082037062 0.00050240976)
(4.9970076 -0.011421127 0.00041921753)
(4.9991217 -0.013765058 0.00044038657)
(5.0018825 -0.016525801 0.00046198194)
(5.0054263 -0.019732349 0.00048248074)
(5.0099161 -0.02340386 0.00049538936)
(5.0155242 -0.027541006 0.00050576065)
(5.022412 -0.032114797 0.00051684688)
(5.0307274 -0.03704932 0.00052760441)
(5.0405978 -0.042231907 0.00053956602)
(5.0521064 -0.047524589 0.00055470997)
(5.0652719 -0.052761786 0.00057549036)
(5.0800468 -0.057761268 0.00060243356)
(5.0963218 -0.062344506 0.00063464492)
(5.1139287 -0.066348567 0.00067459018)
(5.1326481 -0.069629948 0.000723392)
(5.1522216 -0.072063661 0.00078008219)
(5.1723606 -0.073537599 0.00084170834)
(5.1927486 -0.07395618 0.00090658434)
(5.2130425 -0.073243418 0.00097397665)
(5.2328816 -0.071346126 0.0010395221)
(5.251898 -0.068234247 0.0011012358)
(5.2697288 -0.06390113 0.0011509026)
(5.2860201 -0.058361914 0.0011886529)
(5.3004155 -0.051653277 0.0012220133)
(5.308955 -0.069467205 0.0010802049)
(5.2932143 -0.078197378 0.00099729337)
(5.2755127 -0.085359171 0.00091361507)
(5.2562386 -0.090906424 0.00082079075)
(5.2357753 -0.094824827 0.00072351089)
(5.214514 -0.097128816 0.00062729681)
(5.192849 -0.097861995 0.00053706056)
(5.1711675 -0.097100179 0.00045613871)
(5.1498372 -0.094949297 0.00038573467)
(5.1291963 -0.09154176 0.00032837087)
(5.10955 -0.087030354 0.0002871544)
(5.0911741 -0.081569441 0.00026072435)
(5.0743109 -0.075344308 0.00024850375)
(5.0591524 -0.068572541 0.00024923359)
(5.0458214 -0.061501187 0.00025940005)
(5.0343583 -0.0543859 0.00027739082)
(5.0247187 -0.047464067 0.00029981666)
(5.0167832 -0.040928482 0.00032244446)
(5.0103828 -0.034918271 0.00034150738)
(5.0053201 -0.029527298 0.00035663776)
(5.0013881 -0.024784284 0.00036606452)
(4.9983875 -0.020676541 0.00036928611)
(4.9961394 -0.017168824 0.00036736114)
(4.9944918 -0.014208723 0.00036176715)
(4.9913963 -0.016456119 0.00036629352)
(4.9924437 -0.019948585 0.00036880405)
(4.994019 -0.024124136 0.00036477101)
(4.996288 -0.029065074 0.00035275795)
(4.9994522 -0.034837026 0.00033293025)
(5.0037482 -0.041484888 0.00030884813)
(5.0094487 -0.049014276 0.00028864177)
(5.0168178 -0.05727848 0.00026315142)
(5.0260855 -0.066130324 0.00024098155)
(5.0374368 -0.075313205 0.00022508935)
(5.0509566 -0.084492462 0.00022111054)
(5.066607 -0.093303874 0.00022696108)
(5.0842383 -0.1014154 0.00024642825)
(5.1036176 -0.10854765 0.0002792317)
(5.1244603 -0.11447539 0.00032672259)
(5.1464741 -0.11907092 0.0004052451)
(5.1693462 -0.1220975 0.000496753)
(5.1927101 -0.1233717 0.00059485021)
(5.216164 -0.12276782 0.00070825366)
(5.2392851 -0.12018376 0.00083133183)
(5.2616441 -0.11554948 0.00095201194)
(5.2828167 -0.10884409 0.0010645077)
(5.3023831 -0.10008236 0.0011722766)
(5.3199045 -0.089307768 0.0012836627)
(5.3332169 -0.11214221 0.0017712243)
(5.3134383 -0.1250139 0.0016449388)
(5.2915292 -0.13536484 0.0015245743)
(5.2679827 -0.14317959 0.0013895927)
(5.2432516 -0.14842668 0.0012389899)
(5.2178155 -0.15113106 0.0010863948)
(5.1921503 -0.15143969 0.00095660565)
(5.1666987 -0.14951906 0.00087438125)
(5.1419129 -0.14530464 0.00072028426)
(5.118247 -0.13911171 0.00055023948)
(5.0959518 -0.13134119 0.0003009107)
(5.0752934 -0.12226406 0.0002458201)
(5.0566722 -0.11201244 0.00026033693)
(5.0403933 -0.10080348 0.00025711947)
(5.0266705 -0.089079178 0.00023555296)
(5.0155485 -0.077396965 0.00020495854)
(5.0068706 -0.066263688 0.00017677448)
(5.0003205 -0.056051035 0.00015743726)
(4.9956117 -0.046974381 0.00026666246)
(4.9923857 -0.039117748 0.0003091325)
(4.9902352 -0.032419301 0.00035361767)
(4.9888987 -0.026753675 0.00038098539)
(4.9881589 -0.022016007 0.00038919652)
(4.9878383 -0.018095496 0.00038656377)
(4.9839604 -0.018978965 0.00037191386)
(4.98344 -0.023139199 0.00034258801)
(4.9831989 -0.028203432 0.00026373873)
(4.9834245 -0.03437308 0.0001845269)
(4.9843025 -0.041877254 0.00018350956)
(4.9861176 -0.050954484 0.00022112716)
(4.9893543 -0.061813068 0.0003204189)
(4.994569 -0.074458878 0.0004768865)
(5.0023028 -0.08856708 0.0006708544)
(5.0130427 -0.10355797 0.00085574829)
(5.0270671 -0.1185626 0.00097082518)
(5.0442685 -0.13259041 0.00097041505)
(5.0641376 -0.14497931 0.00086183374)
(5.0861128 -0.15584488 0.00072045925)
(5.1099732 -0.16553472 0.00063031688)
(5.1356974 -0.17357877 0.00061202931)
(5.1630026 -0.17947879 0.00083582689)
(5.1910465 -0.18269265 0.0014509848)
(5.2192727 -0.18288208 0.0015903601)
(5.2474789 -0.18030846 0.0017795068)
(5.2750979 -0.17460855 0.0019864431)
(5.3015252 -0.16574404 0.0021531398)
(5.3262951 -0.15381428 0.0022663036)
(5.3489091 -0.13877904 0.0023718436)
(5.3671683 -0.16975781 0.0028186847)
(5.3409244 -0.18712585 0.0029342432)
(5.3127194 -0.2007151 0.0029128504)
(5.2828242 -0.21058757 0.0026873923)
(5.2516917 -0.2164265 0.002349825)
(5.2202548 -0.21834259 0.0020862486)
(5.1886633 -0.21696408 0.0012563509)
(5.1573494 -0.21194223 0.0010628882)
(5.1275849 -0.20420394 0.0011617892)
(5.0999692 -0.19446058 0.0014132014)
(5.0746927 -0.18348273 0.0018909882)
(5.0511779 -0.17231798 0.0025690379)
(5.0292432 -0.15869567 0.003076941)
(5.0102378 -0.14132389 0.0031447623)
(4.9955133 -0.12154318 0.0027727508)
(4.9853251 -0.10147523 0.0021291067)
(4.9790884 -0.082822551 0.0014260201)
(4.9759199 -0.066572516 0.00082832746)
(4.974922 -0.053204932 0.00042799078)
(4.975182 -0.042806241 0.00024167156)
(4.9760524 -0.034610553 0.0001845142)
(4.9772499 -0.028156926 0.00018840408)
(4.9785949 -0.023017166 0.00021531053)
(4.9799804 -0.018866523 0.00026077385)
(4.976152 -0.017706557 0.00022997189)
(4.9738131 -0.021597277 0.00019338633)
(4.9711909 -0.026540556 0.00016907689)
(4.9682592 -0.032994994 0.00021214993)
(4.9650629 -0.041716617 0.00043659837)
(4.9615333 -0.053401737 0.0010156034)
(4.9587327 -0.071149936 0.0023136276)
(4.9585208 -0.094081371 0.0042111134)
(4.9623648 -0.12120736 0.0063913986)
(4.9719822 -0.15063979 0.0083442115)
(4.9887685 -0.17867655 0.0094267071)
(5.012222 -0.20009667 0.0090698471)
(5.0384027 -0.21086128 0.0071389274)
(5.0631733 -0.21644204 0.0045621698)
(5.0886711 -0.22752713 0.0029614268)
(5.117844 -0.23844946 0.0020797924)
(5.150045 -0.24772978 0.0016339094)
(5.1845827 -0.2542747 0.0014243186)
(5.2198513 -0.25752679 0.0022957063)
(5.2553369 -0.25706034 0.0026091037)
(5.2909397 -0.25191406 0.0033264927)
(5.3251682 -0.24113555 0.0037887809)
(5.3575311 -0.22538554 0.0034951084)
(5.3887297 -0.20492766 0.0023884952)
(5.4180925 -0.24518735 -5.9150853e-06)
(5.3771342 -0.26849735 0.0034862317)
(5.3391635 -0.28778953 0.0042637076)
(5.2987839 -0.29804546 0.0025132552)
(5.2574941 -0.29963466 0.0007837221)
(5.2176699 -0.29838399 0.0010197405)
(5.1789449 -0.2951055 0.0018622107)
(5.1414116 -0.28764983 0.0024529087)
(5.107005 -0.27688645 0.003304575)
(5.0772586 -0.26613208 0.0055414143)
(5.0495386 -0.26257852 0.010101828)
(5.0181483 -0.27101827 0.013875605)
(4.9849711 -0.26321447 0.014541855)
(4.9583929 -0.23275345 0.013423046)
(4.9430987 -0.19008262 0.011181109)
(4.9379526 -0.14647818 0.0085199548)
(4.9390101 -0.10799153 0.0059928843)
(4.9430038 -0.076784806 0.0039403091)
(4.9481301 -0.053526795 0.0023385843)
(4.9541837 -0.038479962 0.00094901288)
(4.9603988 -0.029113006 0.00031807654)
(4.9654649 -0.023226527 0.00015563)
(4.96944 -0.018942559 0.00016110539)
(4.9726952 -0.015626776 0.0002070867)
(4.9699578 -0.012750041 0.00015756212)
(4.9659944 -0.015128526 0.0001015146)
(4.9608034 -0.018158123 0.00012152873)
(4.9543867 -0.023607366 0.00045778283)
(4.9474403 -0.034091733 0.0010103854)
(4.9399045 -0.052354577 0.0017672342)
(4.9314123 -0.079990905 0.0033774682)
(4.9221712 -0.11834194 0.0060028047)
(4.9131544 -0.16783697 0.0094738562)
(4.9087323 -0.22838673 0.013043756)
(4.91899 -0.29491427 0.015762866)
(4.9499289 -0.34412178 0.016684824)
(4.9904097 -0.34953679 0.015447612)
(5.0230915 -0.32006897 0.012487215)
(5.0577028 -0.31744481 0.0070602352)
(5.0954995 -0.31603642 0.0028799099)
(5.1317126 -0.33324494 0.0042132941)
(5.1741803 -0.3420258 0.0038477103)
(5.2159892 -0.33869581 0.0012754215)
(5.2563013 -0.33812274 -0.0017479208)
(5.3029078 -0.34448193 -0.0019485688)
(5.3541593 -0.33862074 0.0012234315)
(5.3995867 -0.31330262 0.0026099133)
(5.4454183 -0.29061437 0.00030597671)
(5.1803521 -0.00085501938 0.0018568094)
(5.1730952 -0.0010547897 0.0020059538)
(5.1650678 -0.0012233758 0.0021202716)
(5.1564344 -0.0013594456 0.0021999443)
(5.1473599 -0.0014625084 0.0022460429)
(5.1380054 -0.0015329813 0.002260559)
(5.1285241 -0.0015720398 0.0022461218)
(5.1190576 -0.0015816656 0.0022060063)
(5.1097338 -0.0015643971 0.0021437106)
(5.1006642 -0.0015234647 0.0020629837)
(5.0919426 -0.0014623207 0.0019677556)
(5.0836442 -0.0013848184 0.0018618432)
(5.0758256 -0.0012948564 0.0017487565)
(5.0685257 -0.0011963387 0.0016318243)
(5.0617663 -0.0010929053 0.0015138816)
(5.0555544 -0.00098791075 0.001397393)
(5.0498839 -0.00088422284 0.0012842712)
(5.0447384 -0.00078422602 0.0011760461)
(5.040093 -0.00068973812 0.001073721)
(5.0005908 -0.001614735 0.0014383672)
(5.0006886 -0.0016506946 0.0024479038)
(5.0008491 -0.0016715019 0.0035181878)
(5.0010821 -0.0016742919 0.004644308)
(5.001391 -0.0016706593 0.0058065925)
(5.0017737 -0.0016697896 0.0069790136)
(5.002226 -0.0016727343 0.0081419034)
(5.0027438 -0.001676835 0.0092855587)
(5.0033247 -0.0016804842 0.010406651)
(5.0039669 -0.0016835636 0.011504612)
(5.0046698 -0.0016864866 0.012579785)
(5.0382463 -0.00080752783 0.010444251)
(5.0390479 -0.00075849818 0.0079916696)
(5.0396035 -0.00072190718 0.0055742179)
(5.0399391 -0.00070110282 0.0032654966)
(5.0445747 -0.00079843551 0.0035767689)
(5.044218 -0.00082441712 0.0061048341)
(5.0436271 -0.00086912817 0.008750695)
(5.0427742 -0.00092908409 0.011432536)
(5.0416593 -0.00099909819 0.014035208)
(5.0403077 -0.001078152 0.016454057)
(5.0387573 -0.001166422 0.018617152)
(5.0158113 -0.0020187644 0.021584022)
(5.0145205 -0.0020253759 0.020659298)
(5.0133146 -0.0020277954 0.019690525)
(5.0121881 -0.0020273579 0.018688128)
(5.0111359 -0.0020251378 0.017658961)
(5.0101535 -0.0020220527 0.016607037)
(5.009237 -0.0020187195 0.015534239)
(5.0083841 -0.0020155611 0.014440946)
(5.007593 -0.0020127607 0.013326561)
(5.006863 -0.0020102778 0.012189969)
(5.0061944 -0.0020077439 0.011029868)
(5.0055882 -0.0020046694 0.0098451833)
(5.0050463 -0.002001105 0.0086359567)
(5.0045719 -0.0019988698 0.0074053908)
(5.0041695 -0.002000875 0.0061638798)
(5.0038441 -0.0020056731 0.0049328141)
(5.0035982 -0.0020023979 0.0037402872)
(5.0034284 -0.0019779075 0.0026065085)
(5.0033247 -0.0019363403 0.0015348826)
(5.0067633 -0.0023115389 0.001637317)
(5.0068731 -0.0023592103 0.0027748096)
(5.0070522 -0.0023876933 0.0039750909)
(5.0073112 -0.0023913081 0.0052369314)
(5.0076532 -0.0023848259 0.0065396596)
(5.0080753 -0.0023811291 0.0078528272)
(5.0085718 -0.0023821609 0.0091531177)
(5.0091374 -0.002384701 0.010429454)
(5.0097686 -0.0023867653 0.011678806)
(5.0104629 -0.0023883323 0.012901753)
(5.0112188 -0.002390015 0.014100203)
(5.0120361 -0.002392222 0.015276418)
(5.0129152 -0.0023950661 0.016432581)
(5.0138578 -0.0023983437 0.017570375)
(5.0148666 -0.0024015883 0.018690543)
(5.0159456 -0.0024040723 0.019792269)
(5.0170999 -0.0024047714 0.020872437)
(5.0183354 -0.0024023592 0.021924803)
(5.0196587 -0.0023952422 0.022939074)
(5.0210762 -0.00238152 0.02390007)
(5.0225935 -0.0023591379 0.024787096)
(5.0242144 -0.0023260642 0.025573625)
(5.0259394 -0.0022804787 0.026227536)
(5.0277648 -0.0022209196 0.026712053)
(5.0296813 -0.0021466866 0.0269874)
(5.0316731 -0.0020579205 0.027013142)
(5.0337179 -0.0019558521 0.026751043)
(5.0357871 -0.0018427351 0.026168137)
(5.0378468 -0.0017217791 0.025239452)
(5.0398597 -0.0015968877 0.023949991)
(5.0417866 -0.0014724901 0.022295847)
(5.0435873 -0.0013533106 0.020285411)
(5.0452206 -0.0012437781 0.017942513)
(5.0466441 -0.0011461428 0.015313671)
(5.0478179 -0.0010603621 0.012478907)
(5.0487153 -0.00098768756 0.00955405)
(5.0493368 -0.00093353177 0.0066663665)
(5.0497118 -0.00090166087 0.0039061328)
(5.0553759 -0.0010088398 0.0042503626)
(5.0549867 -0.0010474028 0.0072534029)
(5.0543416 -0.0011122586 0.010394324)
(5.0534095 -0.0011995474 0.01357394)
(5.0521895 -0.0013035473 0.016652424)
(5.0507088 -0.001422884 0.019501985)
(5.0490086 -0.0015573464 0.022033879)
(5.0471334 -0.0017038598 0.024195925)
(5.0451265 -0.0018569534 0.02596112)
(5.0430308 -0.0020106558 0.02731996)
(5.0408883 -0.0021593166 0.028277308)
(5.0387391 -0.002297943 0.028851238)
(5.0366193 -0.002422442 0.029071646)
(5.0345596 -0.0025300205 0.0289778)
(5.0325832 -0.0026192506 0.028614911)
(5.0307061 -0.0026901278 0.028030352)
(5.0289371 -0.0027437483 0.027270197)
(5.0272792 -0.0027821423 0.02637639)
(5.0257303 -0.0028077246 0.025384908)
(5.0242854 -0.0028231595 0.024324804)
(5.0229375 -0.002831015 0.023218104)
(5.021679 -0.0028336189 0.022080329)
(5.0205026 -0.0028328977 0.02092142)
(5.0194015 -0.0028303938 0.019746782)
(5.0183703 -0.0028272803 0.018558394)
(5.0174048 -0.0028244045 0.017355814)
(5.0165022 -0.0028222512 0.016137022)
(5.0156609 -0.0028210519 0.014899099)
(5.0148807 -0.0028206344 0.013638712)
(5.0141623 -0.0028205212 0.012352513)
(5.0135074 -0.0028199874 0.011037672)
(5.0129189 -0.0028190078 0.0096928999)
(5.012401 -0.0028197757 0.0083209976)
(5.0119597 -0.0028258082 0.006933752)
(5.0116014 -0.0028345438 0.0055565709)
(5.0113297 -0.0028307675 0.0042225116)
(5.0111415 -0.0027977374 0.002952804)
(5.0110256 -0.002742949 0.0017465626)
(5.0162359 -0.0032314265 0.0018628685)
(5.0163575 -0.0032944298 0.003140344)
(5.0165544 -0.0033328312 0.0044820726)
(5.016838 -0.003336622 0.0058911121)
(5.0172117 -0.0033250073 0.0073453877)
(5.017671 -0.0033159386 0.008808968)
(5.0182087 -0.0033127361 0.010254153)
(5.0188184 -0.0033115788 0.011668415)
(5.0194951 -0.0033100185 0.013049292)
(5.0202354 -0.0033081282 0.014398842)
(5.0210373 -0.0033067454 0.015720916)
(5.0218996 -0.0033064846 0.017019976)
(5.0228222 -0.0033074871 0.018300604)
(5.0238066 -0.003309542 0.019567076)
(5.0248553 -0.0033121052 0.020822846)
(5.0259726 -0.003314256 0.022069814)
(5.0271643 -0.0033146418 0.023307345)
(5.0284374 -0.0033115027 0.024531132)
(5.0298003 -0.0033025241 0.025731862)
(5.0312615 -0.0032849242 0.02689388)
(5.0328291 -0.003255509 0.027993964)
(5.0345097 -0.0032108875 0.029000531)
(5.0363065 -0.0031478971 0.029873566)
(5.0382175 -0.0030638424 0.030565545)
(5.0402346 -0.0029570973 0.031023521)
(5.0423415 -0.0028275189 0.031192407)
(5.044514 -0.00267677 0.031019253)
(5.04672 -0.0025083141 0.030457838)
(5.0489212 -0.002327306 0.029472888)
(5.0510751 -0.0021400922 0.028043086)
(5.0531373 -0.0019537457 0.026162763)
(5.0550632 -0.0017756819 0.023842922)
(5.0568077 -0.0016126349 0.021114317)
(5.0583253 -0.0014685654 0.018035325)
(5.0595742 -0.0013439405 0.014704101)
(5.0605274 -0.0012402492 0.011260827)
(5.0611866 -0.0011635074 0.0078583816)
(5.0615841 -0.001117668 0.0046049402)
(5.0683432 -0.001225089 0.0049639263)
(5.0679448 -0.0012787726 0.0084711904)
(5.0672838 -0.0013683771 0.012139324)
(5.0663268 -0.001490059 0.01585114)
(5.0650712 -0.0016374442 0.019440648)
(5.0635431 -0.00180906 0.022754896)
(5.0617837 -0.0020040931 0.025685944)
(5.0598386 -0.002217697 0.02816851)
(5.0577534 -0.0024417409 0.030167554)
(5.0555738 -0.002667188 0.031670089)
(5.0533459 -0.0028852397 0.032682395)
(5.0511138 -0.0030880011 0.033228987)
(5.0489176 -0.003269019 0.033350838)
(5.0467905 -0.0034239954 0.033101707)
(5.0447577 -0.0035509333 0.032542992)
(5.0428352 -0.003650271 0.031738157)
(5.0410308 -0.0037241595 0.030747562)
(5.0393454 -0.003776116 0.02962469)
(5.0377746 -0.0038101547 0.028413754)
(5.0363108 -0.0038305606 0.027148804)
(5.0349446 -0.0038411948 0.02585408)
(5.0336667 -0.0038453832 0.02454514)
(5.0324682 -0.0038458126 0.023230408)
(5.0313417 -0.0038445341 0.021912827)
(5.0302814 -0.0038430419 0.02059144)
(5.0292833 -0.0038423541 0.019262725)
(5.0283449 -0.0038430335 0.017921661)
(5.0274654 -0.0038453219 0.016562501)
(5.0266452 -0.0038490281 0.015179371)
(5.0258859 -0.0038534737 0.013766623)
(5.0251903 -0.0038576685 0.012319391)
(5.0245621 -0.0038615316 0.01083479)
(5.0240068 -0.0038677989 0.0093149262)
(5.0235314 -0.0038806023 0.0077730863)
(5.023144 -0.0038957578 0.0062394103)
(5.0228495 -0.0038921938 0.0047529241)
(5.0226448 -0.0038479377 0.0033366599)
(5.0225183 -0.0037758557 0.0019851643)
(5.0299888 -0.0043711828 0.0021117621)
(5.0301194 -0.004452975 0.0035405494)
(5.0303308 -0.0045033059 0.005033768)
(5.0306346 -0.0045063313 0.0065997404)
(5.0310336 -0.0044870618 0.0082146399)
(5.0315222 -0.0044699148 0.0098362264)
(5.032092 -0.0044600889 0.011431874)
(5.0327354 -0.0044530266 0.012987464)
(5.0334465 -0.0044456794 0.014501192)
(5.0342209 -0.0044381439 0.015976711)
(5.0350553 -0.004431515 0.01741991)
(5.0359475 -0.0044265635 0.018837609)
(5.0368965 -0.0044235508 0.020237048)
(5.0379025 -0.0044222294 0.02162548)
(5.0389672 -0.0044220103 0.023009622)
(5.0400945 -0.0044217779 0.024394793)
(5.0412899 -0.0044198701 0.025783753)
(5.0425609 -0.0044139831 0.027175184)
(5.0439164 -0.004400975 0.028561833)
(5.0453667 -0.0043769574 0.0299285)
(5.0469218 -0.0043372405 0.031250125)
(5.0485903 -0.0042766811 0.032490278)
(5.0503775 -0.0041901798 0.033600413)
(5.0522837 -0.0040733377 0.03452087)
(5.0543014 -0.003923304 0.035183325)
(5.0564148 -0.0037394662 0.035515438)
(5.0585983 -0.003524187 0.035446811)
(5.0608179 -0.0032827661 0.03491574)
(5.0630325 -0.0030231922 0.033875384)
(5.0651969 -0.0027551625 0.03229811)
(5.0672648 -0.0024893835 0.030177452)
(5.0691901 -0.0022367003 0.027528919)
(5.0709279 -0.0020067724 0.024392542)
(5.0724341 -0.0018053342 0.020840911)
(5.0736691 -0.001633459 0.016992166)
(5.0746086 -0.0014926364 0.013012023)
(5.0752568 -0.0013894901 0.0090793788)
(5.075647 -0.0013277204 0.005319966)
(5.0834742 -0.0014216827 0.0056642983)
(5.0831026 -0.001491618 0.0096680135)
(5.0824845 -0.0016086226 0.013857773)
(5.081587 -0.0017692279 0.018099881)
(5.0804045 -0.0019666482 0.022203212)
(5.0789585 -0.0021994597 0.025989595)
(5.0772852 -0.0024663751 0.029330668)
(5.0754261 -0.0027608249 0.032146024)
(5.0734241 -0.0030715717 0.034390077)
(5.0713237 -0.0033858686 0.036044167)
(5.0691707 -0.0036909142 0.03711442)
(5.0670103 -0.0039749257 0.037631307)
(5.0648835 -0.0042281978 0.037647467)
(5.0628247 -0.0044442434 0.037232731)
(5.0608592 -0.0046202282 0.036466872)
(5.0590027 -0.0047568724 0.035431562)
(5.057262 -0.0048578303 0.034203294)
(5.0556362 -0.0049284372 0.032848218)
(5.054119 -0.0049749826 0.031419077)
(5.0527013 -0.0050035946 0.029954649)
(5.0513724 -0.0050198464 0.028480603)
(5.0501221 -0.0050282504 0.027011483)
(5.0489414 -0.0050324145 0.025553091)
(5.047823 -0.005034932 0.024104899)
(5.0467619 -0.0050376609 0.022662133)
(5.0457551 -0.0050416988 0.021217522)
(5.0448017 -0.0050477615 0.019762564)
(5.043902 -0.0050560051 0.018288444)
(5.0430581 -0.005066169 0.016786577)
(5.042273 -0.0050773556 0.015249005)
(5.0415506 -0.0050883454 0.013668926)
(5.0408959 -0.0050989735 0.012041967)
(5.0403152 -0.005112689 0.010369752)
(5.0398166 -0.0051345213 0.0086672814)
(5.0394088 -0.0051582937 0.0069698146)
(5.0390976 -0.0051559695 0.0053228629)
(5.0388807 -0.0050991637 0.0037510024)
(5.0387464 -0.0050071055 0.002242649)