/*--------------------------------*- C++ -*----------------------------------*\
| =========                 |                                                 |
| \\      /  F ield         | OpenFOAM: The Open Source CFD Toolbox           |
|  \\    /   O peration     | Version:  v2012                                 |
|   \\  /    A nd           | Website:  www.openfoam.com                      |
|    \\/     M anipulation  |                                                 |
\*---------------------------------------------------------------------------*/
FoamFile
{
    version     2.0;
    format      ascii;
    class       volScalarField;
    location    "100";
    object      omega;
}
// * * * * * * * * * * * * * * * * * * * * * * * * * * * * * * * * * * * * * //

dimensions      [0 0 -1 0 0 0 0];


internalField   nonuniform List<scalar> 
11834
(
33.249038
33.193723
33.174553
33.043642
32.691046
32.380794
32.110738
32.035505
31.937112
31.621893
31.368168
31.170914
30.99171
30.827072
30.686596
30.554818
30.436601
30.317737
30.310104
30.303024
30.30292
30.2187
29.620976
28.290977
28.128689
28.112716
28.127276
28.048443
27.8293
27.644884
27.613124
27.571777
27.401906
27.268281
27.184085
27.12612
27.086239
27.073569
27.060378
27.078396
27.00005
26.643559
29.0525
29.828295
28.078224
25.360948
24.630737
24.116093
23.65787
23.209445
33.923678
33.704809
33.844541
34.774206
34.848773
35.583082
35.57684
35.176702
35.093788
34.052251
33.948778
33.021198
32.943311
32.623686
32.524422
31.472967
31.329136
30.440117
30.336937
29.955058
29.912859
29.849816
29.834754
29.772535
29.688238
29.010294
28.816744
27.811647
27.535047
27.283828
27.292218
27.369376
27.242147
26.687761
26.522052
25.7132
25.571426
25.157813
25.04978
24.602563
24.534346
24.421958
24.38961
24.287211
24.266679
24.225953
24.198346
24.086882
24.058608
24.119432
24.46486
24.784977
24.767886
24.795935
24.807419
24.894103
24.913212
24.998971
25.032451
25.201079
25.238896
24.73077
24.772732
24.720721
24.591468
24.535028
24.471463
24.438847
24.375963
24.356642
24.359412
24.42256
23.915085
23.4809
23.636002
23.673478
23.776283
23.819925
23.873412
23.901806
24.003869
24.054343
24.160605
24.262234
24.631678
24.793333
25.147641
25.364291
26.030371
26.287014
26.779853
27.033709
26.688058
26.216856
26.952323
27.299418
28.122067
28.427122
28.990282
29.121209
29.183892
29.209785
29.277235
29.349405
29.679798
29.851949
30.624918
30.863532
31.776202
31.948809
32.256351
32.390959
33.235259
33.42062
34.394507
34.542604
34.998237
35.020904
34.485826
34.374377
33.595538
33.507541
33.341323
33.322013
32.889657
32.572063
32.320172
32.293238
32.381705
32.592337
32.959581
33.332832
33.42834
33.56807
33.445124
32.890896
32.589811
31.759939
31.418996
30.74263
30.50114
30.193667
29.904329
29.24051
28.868139
28.279741
27.976097
28.010134
28.322028
28.194245
28.097802
28.047573
27.971416
27.800701
27.361926
26.98996
26.373205
25.971437
25.406548
25.024337
24.63704
24.595548
24.746453
24.304901
24.01565
23.737547
23.524975
23.27054
23.132683
23.029435
22.948841
22.85046
22.938508
23.181907
23.108533
23.04662
22.958865
22.910229
22.816697
22.789076
22.797088
22.925343
23.235318
23.263109
23.294297
23.337333
23.409636
23.585741
23.937868
23.971757
23.963145
24.017957
24.190747
24.583483
24.761692
24.237818
24.222584
24.243912
24.203373
24.070195
24.009686
23.962937
23.927429
23.880011
23.852309
23.855519
23.435552
23.0238
23.051298
23.163025
23.206652
23.304892
23.364706
23.440607
23.462423
23.582068
23.645498
23.751153
23.873278
24.189089
24.379035
24.696494
24.95369
25.520269
25.828593
26.286326
25.830024
25.348743
25.717662
26.332655
26.712451
27.395231
27.749484
28.229361
28.388636
28.463613
28.505789
28.59963
28.716738
28.972549
29.2023
29.885724
30.184912
30.979707
31.204158
31.505931
31.682541
32.44171
32.690389
33.583684
33.785458
34.280985
34.33118
33.979642
33.849393
33.215045
33.030937
32.742571
32.355888
30.161409
30.371464
30.431649
31.075061
31.557634
32.701164
33.168095
33.11949
31.854321
27.515994
28.702529
9.2529113
9.186757
9.1222251
9.0590606
8.9969474
8.9355583
8.8745723
8.8137224
8.7528443
8.6918734
8.6308541
8.5699104
8.5092034
8.4489015
8.3891644
8.4017189
8.4615066
8.5218808
8.5826702
8.6436934
8.704772
8.7657639
8.8266132
8.8873807
8.9482292
9.0094266
9.0712946
9.1341568
9.198326
9.2640538
9.2893358
9.2245133
9.161114
9.0988993
9.03757
8.9768113
8.9163029
8.8557745
8.795063
8.7341111
8.6729944
8.611889
8.5510038
8.4905384
8.4306735
8.486745
8.5464696
8.6068246
8.6676136
8.7286084
8.7895482
8.8501966
8.9104558
8.9703895
9.0301655
9.0900541
9.1503674
9.2113999
9.2734168
9.336626
9.4224097
9.3621319
9.3027142
9.2440199
9.1858493
9.1279489
9.0700183
9.0117704
8.9530035
8.8935934
8.8336483
8.7734966
8.7134744
8.6538435
8.5948131
8.8154319
8.8730906
8.9311175
8.9892771
9.0472514
9.1045803
9.1608179
9.2159374
9.2702844
9.3241618
9.3778543
9.4315437
9.4853522
9.5393431
9.5934964
9.9925039
9.9488489
9.9034618
9.8569152
9.8094934
9.761449
9.7131827
9.6646251
9.6152284
9.5638281
9.5100167
9.4543902
9.3976162
9.3401448
9.282304
10.249504
10.319427
10.387777
10.453994
10.517317
10.576316
10.63019
10.681335
10.734088
10.789847
10.847833
10.904516
10.958679
11.009422
11.052793
14.029067
13.813188
13.612426
13.448
13.292702
13.150547
12.966276
12.836155
12.734338
12.646578
12.545813
12.437237
12.324942
12.210524
12.094989
15.063517
15.269577
15.481008
15.699075
15.914023
16.010935
15.880798
15.738434
15.652756
17.273543
17.604193
17.903577
18.235072
18.459899
18.749642
19.021028
19.478007
19.969168
20.708825
21.432661
22.26683
8.3216275
8.3282729
8.3339564
8.3388904
8.3433846
8.3476567
8.3518683
8.3560864
8.3603246
8.3645298
8.3686532
8.3725954
8.3763067
8.3797357
8.3828396
8.3854751
8.3874566
8.3886685
8.4483604
8.4471342
8.4451517
8.4425229
8.4394281
8.4359949
8.4322748
8.4283126
8.4241683
8.4199325
8.415664
8.4114111
8.4071653
8.4028606
8.3983393
8.3933775
8.3876789
8.381019
8.4410318
8.4476787
8.4533747
8.4583533
8.4629001
8.4672393
8.4715213
8.4758105
8.4801106
8.484376
8.4885428
8.4925234
8.4962533
8.4996905
8.5027811
8.5054082
8.5073943
8.5086323
8.5693206
8.5680707
8.5660794
8.5634518
8.5603631
8.5569236
8.5531847
8.5491865
8.5449978
8.5407031
8.536371
8.5320449
8.5277267
8.5233539
8.5187871
8.5138056
8.5081357
8.5015362
8.5624147
8.5689208
8.5745342
8.5794994
8.5840765
8.5884771
8.592829
8.5971895
8.6015521
8.6058736
8.6100828
8.6140958
8.6178411
8.6212809
8.6243661
8.6269946
8.6289916
8.6302532
8.6912664
8.6899927
8.6879913
8.6853643
8.682287
8.6788516
8.6751046
8.671082
8.6668573
8.6625149
8.6581271
8.6537384
8.6493602
8.6449428
8.6403708
8.6354478
8.6299296
8.6235733
8.6849671
8.6911097
8.6964865
8.7013348
8.7058791
8.7102963
8.7146876
8.7190926
8.7234951
8.7278481
8.7320791
8.7361022
8.7398423
8.7432647
8.7463264
8.7489455
8.750949
8.7522343
8.8131102
8.8118158
8.8098163
8.8072139
8.8041796
8.8007832
8.7970636
8.7930541
8.7888321
8.7844846
8.7800846
8.7756815
8.7712976
8.766904
8.7624159
8.7576794
8.7524931
8.7466285
8.8142013
8.8191521
8.8237398
8.8281402
8.832482
8.8368325
8.8412092
8.8455834
8.8499034
8.8540954
8.8580716
8.8617526
8.8651057
8.868097
8.8706703
8.8726594
8.8739602
8.9349468
8.9336435
8.9316749
8.9291467
8.9262186
8.9229313
8.919313
8.9153962
8.9112622
8.9069993
8.9026819
8.8983632
8.8940784
8.8898209
8.8855415
8.8811365
8.8764559
8.9439269
8.948124
8.9522522
8.9563921
8.9605765
8.9648019
8.9690276
8.9731994
8.977243
8.98107
8.9845974
8.9877926
8.990634
8.9930982
8.995035
8.9963363
9.058448
9.0571543
9.0552617
9.052881
9.0501508
9.0470751
9.0436682
9.039963
9.0360433
9.0319974
9.0278987
9.0238017
9.0197513
9.0157588
9.011805
9.0078293
9.0731327
9.0768866
9.0806511
9.0844724
9.0883595
9.0922957
9.0962337
9.1001203
9.1038829
9.1074344
9.1106911
9.1136198
9.1162145
9.1184923
9.1203293
9.1216096
9.1861362
9.1848741
9.1831028
9.1809447
9.1785061
9.1757472
9.1726648
9.1692924
9.1657126
9.1620108
9.1582577
9.1545048
9.1507994
9.1471611
9.1435869
9.1400395
9.2119972
9.2153979
9.218859
9.2223811
9.2259448
9.2295046
9.2330111
9.236396
9.239576
9.2424703
9.2450457
9.2473147
9.2493422
9.2510417
9.2522823
9.2635646
9.1978407
9.1336732
9.0708118
9.0089443
8.9477474
8.8869009
8.8261368
8.765291
8.704302
8.6432262
8.5822069
8.5214242
8.461061
8.4012894
9.2625798
9.1968354
9.1326499
9.0697751
9.0078994
8.9466992
8.8858537
8.8250942
8.7642552
8.7032736
8.642204
8.5811886
8.5204078
8.460045
8.4002727
19.048655
19.416898
19.804201
20.219974
20.735987
21.702818
22.895725
22.377992
20.673947
20.561334
20.594742
20.593768
20.602035
20.622589
20.658135
20.707625
20.776603
20.867202
20.975656
20.785324
20.663175
20.48853
20.369433
20.195344
20.083251
19.934341
19.833553
19.700267
19.622619
19.535535
19.477476
19.40414
19.358848
19.312647
19.283973
19.259731
19.277011
19.283309
19.260219
19.235117
19.222515
19.223163
19.230527
19.242817
19.271111
19.299533
19.355206
19.413573
19.531455
19.602149
19.695484
19.746378
19.822687
19.867183
19.9366
19.988607
20.099093
20.184459
20.371972
20.535261
20.916426
21.223713
21.897324
22.434684
23.626056
24.528114
26.417311
27.456657
29.290182
31.588318
33.006733
33.261021
32.352456
31.346205
29.142283
27.362678
26.23144
24.455777
23.50465
22.399779
21.832589
21.212204
20.889768
20.538735
20.369115
20.196234
20.106766
20.008743
19.957322
19.893851
19.845538
19.773841
19.720714
19.630615
19.555069
19.442077
19.376978
19.32352
19.291934
19.263825
19.250287
19.24339
19.242078
19.256869
19.297679
19.270193
19.264038
19.257119
19.278635
19.302654
19.344573
19.388235
19.454127
19.508744
19.586667
19.660883
19.782218
19.880973
20.017001
20.127052
20.286895
20.404822
20.565422
20.688669
20.606416
20.542562
20.496514
20.462975
20.443506
20.436004
20.437177
20.408778
20.409795
20.303681
20.329139
20.325347
20.329366
20.345543
20.375475
20.419555
20.482727
20.334424
20.28025
20.242091
20.216558
20.204836
20.204419
20.211056
20.188669
20.199657
20.103616
20.123494
20.110958
20.108206
20.114959
20.134305
20.168245
20.218159
20.072068
20.032721
20.0066
19.993997
19.991686
19.999775
20.015854
19.999844
20.021113
19.929169
19.941
19.921222
19.904971
19.902903
19.909069
19.929411
19.964577
19.839287
19.811394
19.798308
19.796102
19.803926
19.823051
19.84809
19.838205
19.871467
19.781169
19.786735
19.756629
19.732218
19.71789
19.713565
19.720678
19.743436
19.632794
19.618172
19.617967
19.62655
19.646086
19.675349
19.708214
19.704023
19.750563
19.667052
19.669822
19.632176
19.598279
19.573122
19.558131
19.552211
19.561245
19.4911
19.487659
19.497525
19.514928
19.543311
19.579338
19.619882
19.62083
19.680958
19.603076
19.600857
19.555626
19.514715
19.48101
19.45688
19.441142
19.439596
19.380085
19.385101
19.404082
19.42991
19.46697
19.509871
19.55748
19.563461
19.623363
19.548958
19.544371
19.493411
19.445239
19.405194
19.373009
19.348871
19.340183
19.302774
19.312738
19.338017
19.370145
19.410737
19.46033
19.512305
19.519944
19.584088
19.523011
19.513773
19.45927
19.407219
19.360887
19.324788
19.293433
19.279418
19.262093
19.277152
19.30772
19.344054
19.388765
19.443074
19.496167
19.503995
19.573125
19.527651
19.522221
19.466907
19.408789
19.361687
19.319605
19.287785
19.269212
19.27295
19.290356
19.32012
19.355837
19.401609
19.455801
19.511009
19.515002
19.584872
19.539089
19.536436
19.47879
19.421482
19.372002
19.332342
19.295717
19.270026
19.255245
19.247332
19.265694
19.290399
19.325432
19.365357
19.414319
19.470184
19.526493
19.532535
19.598857
19.558406
19.556944
19.498435
19.438928
19.386633
19.343903
19.302756
19.272782
19.249279
19.255582
19.277042
19.30623
19.344533
19.387642
19.438668
19.49584
19.553879
19.55821
19.629202
19.597859
19.596597
19.535757
19.474886
19.419304
19.37286
19.328198
19.295484
19.271125
19.299529
19.323955
19.35455
19.393148
19.436776
19.490069
19.549297
19.608834
19.612779
19.688157
19.66359
19.665205
19.603574
19.541678
19.485419
19.437859
19.394943
19.361493
19.333264
19.386245
19.411874
19.443496
19.482819
19.5268
19.58047
19.640068
19.698614
19.697437
19.7805
19.781474
19.788551
19.729704
19.668829
19.612013
19.564595
19.51952
19.483537
19.453578
19.560757
19.583362
19.612628
19.65039
19.693142
19.745167
19.802066
19.856655
19.847519
19.92555
19.942591
19.959901
19.904413
19.845459
19.789807
19.744865
19.702585
19.668455
19.639733
19.726996
19.750629
19.780943
19.818368
19.860438
19.910943
19.966319
20.017816
19.999678
20.058053
20.079512
20.103668
20.050515
19.992587
19.938843
19.892843
19.848583
19.81229
19.782482
19.850436
19.873386
19.902255
19.938652
19.979715
20.029262
20.083229
20.132664
20.109629
20.143252
20.16046
20.190856
20.142482
20.088497
20.038231
19.996212
19.955397
19.924356
19.898773
19.9561
19.974274
19.996482
20.026893
20.063325
20.106046
20.157309
20.199539
20.171835
20.197375
20.225863
20.261574
20.219052
20.168791
20.12437
20.088574
20.055492
20.028094
20.007832
20.098251
20.105781
20.124211
20.149297
20.179117
20.218895
20.260969
20.300847
20.264139
20.302081
20.356803
20.40118
20.365515
20.322905
20.283238
20.253675
20.223445
20.202765
20.190126
20.349122
20.34919
20.358167
20.377477
20.398371
20.430507
20.468325
20.497668
20.452564
20.517905
20.627333
20.682118
20.653032
20.618398
20.587399
20.565723
20.543675
20.53107
20.524653
20.85303
20.837681
20.831638
20.834774
20.84339
20.860802
20.883912
20.90116
20.842186
20.93506
21.144583
21.217972
21.211194
21.192908
21.180341
21.17462
21.169757
21.173343
21.182995
21.761836
21.715148
21.680863
21.657994
21.640967
21.632858
21.632515
21.61798
21.526546
21.664411
22.068022
22.181616
22.207853
22.220538
22.235197
22.258387
22.281995
22.311847
22.346992
23.382547
23.288158
23.20902
23.14322
23.086308
23.039687
22.996347
22.937662
22.790363
23.000312
23.732687
23.912311
23.988594
24.044804
24.099217
24.159275
24.218993
24.287739
24.362664
26.033399
25.865804
25.721162
25.59776
25.486684
25.388067
25.293731
25.177007
24.955345
25.231841
26.390701
26.607246
26.709265
26.787743
26.861928
26.94266
27.023819
27.12163
27.230931
28.949104
28.794778
28.677883
28.589193
28.512591
28.444908
28.37955
28.285551
28.099313
28.822146
30.209197
30.410779
30.370634
30.398364
30.442239
30.495701
30.56551
30.695147
30.934863
32.304974
32.792816
33.143036
32.763119
32.59683
32.161769
32.103088
32.075969
32.063109
32.061734
32.089059
32.159664
32.560767
33.056091
33.47794
33.15302
31.958042
32.399432
33.470499
33.698659
33.943683
33.938189
32.892592
33.148131
33.314683
33.280781
31.814587
33.092832
30.261387
29.086568
27.829569
28.873971
31.166333
32.671056
33.897462
35.030307
35.768451
35.672428
34.567285
34.82527
33.637359
29.940902
26.205272
25.58407
23.608229
22.558746
22.033433
21.729341
21.546844
21.482472
21.441679
21.374015
21.259193
21.135764
21.055675
21.017029
20.999083
20.996712
21.01663
21.053894
21.117936
21.198933
21.303203
21.449707
21.630492
21.841097
22.065184
22.560752
21.398855
20.20175
21.187798
22.325236
22.107937
20.978484
19.80676
20.813143
21.924215
21.772581
20.660419
19.521284
20.569682
21.66817
21.576094
20.478735
19.350968
20.423498
21.505122
21.459507
20.379671
19.266155
20.36619
21.439015
21.436631
20.364221
19.251713
20.379823
21.453058
21.490099
20.415456
19.308495
20.480582
21.566536
21.689929
20.583448
19.4527
20.681241
21.809647
21.891013
20.753041
19.584946
20.799045
21.930475
22.005766
20.891361
19.8365
21.080588
22.193201
22.516931
21.440701
20.829332
22.050181
23.126028
24.292807
24.278405
22.488298
22.024651
21.996546
20.465861
19.350423
19.065988
18.937899
18.809678
18.759895
18.778517
18.863993
19.031234
19.309503
19.695596
19.284896
18.902738
18.539132
19.687225
20.067368
20.467628
20.898927
21.439087
22.436939
23.718254
23.177958
21.402644
21.287594
21.338299
21.339074
21.351828
21.374129
21.4089
21.45903
21.522383
21.608913
21.710556
21.463179
21.316632
21.108238
21.170574
21.299366
21.458802
21.609182
21.556846
21.261825
21.205767
20.904363
20.845642
20.535467
20.47893
20.209828
20.158199
19.913308
19.871202
19.696251
19.664401
19.523131
19.499778
19.407805
19.390669
19.320285
19.308848
19.263418
19.258272
19.242221
19.242099
19.248962
19.254447
19.285442
19.297239
19.368075
19.392955
19.540528
19.570495
19.689625
19.713484
19.817875
19.838425
19.943099
19.968972
20.135059
20.177942
20.45818
20.536833
21.094196
21.239772
22.22246
22.470797
24.113169
24.535935
26.973084
27.559863
27.572473
26.761047
24.59111
23.906109
22.476403
22.075736
21.239635
21.008187
20.535945
20.411811
20.176143
20.109746
19.969137
19.927983
19.839828
19.8067
19.716619
19.678326
19.572275
19.521913
19.389168
19.3483
19.285594
19.265898
19.237183
19.227788
19.220229
19.219655
19.232421
19.240645
19.275105
19.29035
19.34724
19.37204
19.447141
19.483229
19.598956
19.646151
19.786435
19.849624
20.050881
20.12895
20.350237
20.43697
20.693588
20.78392
21.034373
21.122221
21.375211
21.194139
21.048034
20.846116
20.970224
20.863642
20.727691
20.537998
20.647606
20.539818
20.420015
20.227499
20.318517
20.215935
20.115857
19.951538
20.026622
19.934403
19.850756
19.702187
19.761676
19.688591
19.623526
19.524075
19.570543
19.515677
19.464898
19.381919
19.416884
19.374393
19.33645
19.28278
19.310078
19.283055
19.252689
19.21588
19.233239
19.217168
19.209235
18.861269
18.877409
18.930546
18.962927
19.02771
19.074323
19.172198
19.232148
19.345999
19.424256
19.590644
19.688802
19.863192
19.971212
20.183233
20.296284
20.488592
20.596917
20.797945
20.907829
21.104673
21.383114
21.524668
21.703495
21.878575
22.01968
22.290126
22.693767
23.082812
23.444831
23.7578
24.074354
24.412103
24.773448
25.157372
25.563084
25.987679
26.441056
26.920378
27.46138
27.520104
27.612768
27.739565
27.180863
27.423599
27.718403
28.261728
28.646221
29.254502
29.554103
29.861483
30.116336
30.745351
31.109196
31.896118
32.233066
32.819152
32.981818
32.943042
32.866296
32.578224
32.175927
32.077425
32.176608
31.8189
31.533684
31.307254
31.107112
30.92578
30.76109
30.609242
30.480156
30.35113
30.356365
30.255792
30.193156
30.052939
29.85045
29.389026
28.86814
28.156442
27.551575
26.97367
26.483906
26.097906
25.757994
25.493594
25.183348
24.865238
24.529804
24.225866
23.949091
23.718437
23.4937
23.270413
23.365853
23.547243
23.769041
24.033406
24.331977
24.648117
24.95658
25.248954
25.514101
25.83756
26.217293
26.69187
27.266622
27.870963
28.594577
29.133192
29.621048
29.854919
30.029488
30.147245
30.354133
30.355354
30.416166
30.267761
29.76975
30.105493
29.944555
29.559332
28.450698
28.199853
28.163916
28.158442
27.820051
27.775894
26.869134
26.800438
25.66823
25.60025
24.760229
24.707877
24.142454
24.099705
23.673371
23.628391
23.185169
23.130973
22.676274
22.617188
22.236578
22.184313
21.932429
21.792791
22.04422
22.137209
22.481125
22.58033
22.985049
23.077988
23.470374
23.548113
23.930454
24.006668
24.516476
24.610349
25.381208
25.508224
26.569868
26.700108
27.569593
27.658024
28.00064
28.076383
28.138739
28.168679
27.872395
27.712325
27.702488
27.597785
27.505992
27.187558
26.996936
26.236873
25.976366
25.087119
24.845963
24.219135
24.044467
23.653066
23.51752
23.221215
23.087503
22.790695
22.636516
22.323586
22.159613
21.876364
21.909537
22.008008
22.323913
22.452615
22.816374
22.937511
23.287885
23.391135
23.736305
23.838652
24.297204
24.426006
25.130408
25.303814
26.290384
26.474472
27.297013
27.422756
27.745266
27.801454
27.634958
27.561774
27.250419
27.085104
26.309047
26.074947
25.155052
24.937099
24.285461
24.126277
23.710924
23.585528
23.270777
23.146357
22.830161
22.686105
22.356358
22.20476
21.83149
21.963539
22.278013
22.405019
22.703064
22.810694
23.102804
23.210212
23.577101
23.714959
24.276469
24.470183
25.322831
25.530961
26.262534
26.402838
26.666675
26.667355
26.734334
26.685646
27.02419
27.77374
28.143871
28.09421
27.053125
24.605183
25.462657
25.954652
28.106222
28.786466
29.049957
29.18221
29.21629
29.319783
29.454926
29.612318
29.794974
29.992401
30.229178
30.521193
31.144626
31.032088
29.942026
27.83922
25.202644
26.246162
27.905588
29.219455
29.326976
31.456281
31.181661
31.199209
27.799938
21.871578
16.655336
15.70906
15.633079
16.063595
9.2892283
9.2244079
9.1610091
9.0987953
9.0374679
8.9767121
8.9162093
8.8556887
8.7949839
8.7340356
8.6729194
8.611814
8.5509312
8.4904737
8.4306247
22.036364
22.463824
22.913181
23.410915
24.087611
25.344635
27.11678
26.352893
24.013019
23.864964
23.98119
24.02486
24.076505
24.144188
24.233304
24.339986
24.474343
24.644552
24.904934
25.748863
26.033649
26.769066
26.978471
27.294313
27.413714
27.652447
27.452791
27.304024
27.199098
27.12564
27.074029
27.047288
27.031474
27.111347
27.088835
26.751772
26.873536
26.86937
26.893553
26.940838
27.009389
27.109044
27.243828
27.115361
26.975418
26.863663
26.77193
26.702745
26.653491
26.609547
26.442343
26.39019
28.681196
29.210147
28.012337
25.132367
26.921382
28.781338
28.035693
25.807251
25.797155
25.965881
26.035981
26.108028
26.193969
26.297247
26.420925
26.573348
26.799205
26.657538
26.543689
26.448143
26.372618
26.312494
26.251248
26.084649
25.262202
25.616536
25.92668
26.331388
26.359983
26.520513
26.599875
26.40437
26.106608
26.326402
26.34148
26.327851
26.327576
26.349653
26.414338
26.518031
26.686601
27.03647
26.945909
26.24842
24.744733
23.81079
20.803695
20.981442
21.869232
22.564319
23.087079
23.30719
23.528204
23.882673
24.420103
25.857277
25.882779
25.230377
25.308137
24.791644
24.93347
24.550033
24.720834
24.586834
25.6916
26.903059
27.036086
27.161836
27.276964
27.381761
27.596444
27.773783
28.081915
28.333897
28.777124
29.217325
26.731121
26.698115
28.895413
28.257599
28.081026
27.564634
27.41505
26.994355
26.876714
26.554539
26.463652
26.206268
28.463844
28.876867
29.780699
30.140357
30.348414
30.217941
30.039195
30.157139
30.225652
30.096035
30.340406
30.354364
30.3602
30.253245
29.776564
30.080907
30.07108
30.410634
29.547147
28.186253
25.688623
24.084178
18.975593
15.564751
14.74056
14.698993
15.015473
14.962643
15.338164
15.275898
16.258908
14.614553
11.186636
9.9935306
9.5515085
9.3655905
9.2742764
9.2122694
9.1512481
9.0909455
9.0310674
8.9713032
8.9113811
8.8511264
8.7904735
8.7295238
8.6685158
8.6077141
8.5473516
8.4876269
22.929585
23.368435
23.83905
24.369477
20.056838
19.698524
20.055696
22.936201
22.775135
22.337304
22.390108
22.417187
22.576296
22.94723
19.075907
18.997354
18.187919
18.312733
17.945781
18.178384
17.877255
18.600011
16.635852
12.898397
10.651188
9.5885541
9.1135862
8.8968263
8.8367949
8.7765591
8.7164649
8.6567843
8.5977279
20.38435
20.778149
21.193483
21.643314
22.211566
23.283717
24.647133
24.072851
22.199396
22.121079
22.190602
22.203674
22.221423
22.249999
22.292748
22.347506
22.422031
22.521067
22.680381
22.954076
23.094368
23.369734
23.513966
23.873989
24.060143
23.925808
23.818808
23.732376
23.662268
23.6094
23.570112
23.540554
23.453884
23.341405
23.225329
23.314818
23.347293
23.3897
23.44595
23.518484
23.611126
23.727674
23.395088
23.300751
23.225653
23.164825
23.117934
23.083651
23.059031
22.984951
22.907312
22.831189
22.90867
22.928786
22.961253
23.007595
23.067294
23.144605
23.243594
22.98757
22.903256
22.835609
22.780445
22.73912
22.710838
22.692746
22.617581
22.548955
22.475127
22.55108
22.568945
22.593916
22.631995
22.684663
22.753177
22.841685
22.586913
22.512898
22.454313
22.4075
22.375209
22.353185
22.335834
22.265424
21.722774
21.922756
22.060165
22.257938
22.401878
22.610115
22.810859
23.165704
23.489311
24.233062
24.341427
24.374641
24.413396
24.468656
24.543074
24.635094
24.753684
25.553715
25.861285
25.725521
25.618232
25.528313
25.457184
25.4004
25.34574
25.202498
24.906442
24.805542
24.951795
25.013127
25.079931
25.162907
25.27153
25.398508
24.890417
25.185322
25.849959
26.050942
26.328171
26.390724
26.520387
25.512029
25.559046
25.928329
24.701321
23.97799
23.978555
23.526019
23.628043
23.388256
23.615283
23.711775
24.59346
25.293103
25.242385
25.180434
25.190011
25.23297
25.38855
25.415451
25.091294
25.029189
24.856607
24.910433
24.863671
26.056098
26.425856
24.382022
23.133269
19.154319
16.670179
13.054818
10.720058
9.6433274
9.1704714
8.956323
8.9604231
8.8519203
8.7944924
8.7335382
8.6724138
8.6112975
8.5504024
8.489932
8.4300706
8.4882182
8.547966
8.6083626
8.7199793
8.6601778
8.6010166
8.3984499
8.3957669
8.4555362
8.4582141
8.5185708
8.5158966
8.512591
8.4522245
8.3924368
8.3887159
8.4484858
8.5088421
8.537911
8.5423633
8.5461266
8.5488791
8.4884044
8.4285345
8.4873848
8.4844233
8.4257726
21.19193
21.845315
23.471235
24.980595
25.368677
25.627577
25.890607
25.991364
26.138139
29.940508
29.803292
29.656308
29.04203
28.644952
28.121109
27.963898
24.693276
24.9024
25.860089
27.825757
32.510846
32.785286
32.953975
33.329846
33.757527
35.675684
36.073305
36.064828
36.00837
35.959752
35.942141
35.922362
35.949062
36.053663
36.325755
36.137231
36.180053
36.268014
36.426729
36.501258
36.69564
37.045179
38.53955
39.820512
37.875222
37.373524
38.760033
38.884976
39.403166
39.132672
39.209831
37.890324
39.334637
38.349807
46.255023
53.80462
64.475519
52.713033
42.143467
39.280003
37.816148
40.113281
39.889139
40.405025
39.355794
39.161437
39.479182
37.661179
39.566126
39.274304
34.358923
29.912948
26.470684
23.098858
21.720072
23.941529
24.117523
21.702708
20.29128
17.740253
16.759171
16.464905
16.397317
16.371511
16.398631
16.486907
16.639988
16.885422
17.251459
17.697173
18.134769
18.612054
19.095945
19.514268
23.047008
24.173184
25.665755
25.024073
25.675655
26.337345
24.711739
23.205367
23.73798
24.61138
27.96278
27.286582
24.02557
24.77279
25.224464
25.488917
25.004262
24.923582
22.959043
18.759595
18.91596
23.259463
23.352713
20.558268
16.351679
12.749886
10.579834
9.5317614
9.0556743
8.9971759
8.9385772
8.8801986
8.8222686
8.8310408
8.889597
8.9486359
8.9532319
8.7209
8.6075588
8.5471526
8.5441991
8.4856478
8.481883
8.422
21.132682
21.538684
21.969842
22.439887
19.091053
19.637693
16.355634
16.067785
12.60303
10.506321
9.4735523
9.4146198
9.3553883
9.2961259
18.790788
19.07977
19.376573
19.657552
15.788162
12.46028
10.431785
10.356788
10.281557
17.932716
18.275684
18.638479
18.908201
18.535447
18.181036
17.777953
18.117165
18.475468
18.390448
18.031362
17.690768
17.669463
18.009616
18.369337
18.41416
18.048493
17.702188
17.802131
18.15552
18.530148
18.654859
18.271314
17.907536
18.191677
18.570096
18.969939
20.137088
19.493571
19.06304
17.680581
18.612908
18.780642
18.863758
18.905053
18.99188
19.149215
19.357381
19.678117
19.949338
20.366403
16.636719
16.117683
16.272578
15.835195
15.951513
15.695387
15.834754
15.742067
15.969032
16.355128
14.556092
14.720715
9.3374764
9.3383884
9.2888341
9.2239976
9.1605814
9.0983512
9.037009
8.9762414
8.9157299
8.8552026
8.9122037
8.9721523
9.0319401
9.0918368
9.1937901
9.1893376
9.1314223
9.0734609
9.0151637
9.2262411
9.2811553
9.295745
9.077786
9.0193867
9.2401347
9.1836136
9.1259402
8.9007912
8.7912371
8.7302511
8.6692041
8.7802213
8.8406098
9.0672123
9.0079473
9.0130198
8.7812066
8.6684078
8.6097747
8.5793456
8.6403566
8.6376832
8.5766728
8.5733668
8.6343796
8.6306222
8.5696135
8.5987984
8.6032618
8.6070241
8.6681432
8.6708918
8.7294627
8.7265052
8.6654572
8.6046108
8.717429
8.6575796
8.6610426
8.6018217
8.8350227
8.8302183
8.5983633
8.4796324
8.4736243
8.4175731
12.186884
15.280705
15.412183
12.24463
10.314541
9.3145482
9.3231816
10.326553
10.306068
9.3149672
8.8177067
8.5911794
8.5816475
8.8006126
26.530519
30.913528
43.01064
45.438113
46.549806
47.418771
57.518748
51.653692
52.596209
49.182925
57.223925
59.198138
66.097459
68.454868
84.740226
84.077473
77.561688
76.348422
77.412773
79.427757
66.603079
54.934915
47.359925
44.741922
43.649272
42.942427
41.924245
41.948872
42.175253
42.098759
41.641029
40.690341
40.543249
40.626613
39.462372
39.346877
39.305497
39.458302
39.294807
41.167831
40.901106
40.609088
39.503679
38.81617
38.974441
36.576961
36.98042
37.247567
37.446309
37.641418
37.827568
33.808162
33.519737
33.070471
32.738304
32.231729
31.806332
31.158283
35.952753
34.861786
36.63815
37.303894
39.551974
38.898046
38.784536
38.895954
38.939929
36.846779
36.322957
36.176234
36.143915
33.545365
31.894734
33.072909
32.791022
33.642215
36.930574
40.609635
38.441282
37.377198
36.895082
36.297467
36.97736
36.131371
37.322907
37.538266
31.342477
29.720989
29.145301
28.34861
30.070315
30.608982
27.216351
26.902973
24.916968
25.436146
26.050923
26.719482
9.4258465
9.6056682
9.6216708
9.4301862
9.3700019
9.2751933
9.2131832
9.1521534
9.2519793
9.24751
9.3061927
9.4974445
9.4434743
9.3895309
9.335493
9.3506983
9.1358287
9.1369809
9.0311669
8.9747508
8.9448771
8.8840128
8.8232439
8.7624021
8.7014224
8.6987504
8.7597377
8.756456
8.6954543
8.6916967
8.752708
8.8136156
8.817341
8.8205962
8.8813943
8.942304
9.0035989
9.0061083
9.0355482
9.0910773
9.0882062
9.0329611
8.9721031
8.9115304
8.9142219
8.8536855
8.7929718
8.7320167
8.7904559
8.8511454
8.8481772
8.7902349
8.7292717
8.7874938
8.8983488
8.9018847
8.8416545
9.072773
9.0678683
8.8381407
8.7777174
9.0082023
8.9485002
8.889125
8.8938979
9.3862439
9.3761779
9.437921
10.47696
10.395587
12.392592
12.321802
15.527599
15.701544
16.013598
12.544491
12.565329
10.498322
9.4497501
9.441952
9.37834
10.393039
10.411974
12.402317
12.246837
15.323352
62.782764
69.425659
73.055837
77.649765
90.859265
79.049271
76.491237
64.792722
59.726199
57.371825
70.913582
59.12609
57.755195
40.104532
34.897387
41.243653
50.977512
58.146549
60.252018
64.777566
59.892295
58.858717
56.181421
61.525634
61.401615
62.421353
62.152474
68.358999
76.286645
90.2359
84.211334
77.859
58.540719
56.228058
37.543859
38.926606
30.312907
30.59372
35.784095
43.243564
44.380985
41.173706
68.012085
50.602618
50.11449
49.393764
47.074941
29.408408
30.050566
30.493453
30.675791
23.217038
23.424888
23.65811
24.03869
24.37496
24.815207
30.679295
39.766099
56.219061
71.960334
64.7983
57.335937
50.671914
47.596198
46.01143
45.009241
43.703878
43.416938
43.150752
42.854345
42.197495
9.2610246
9.1952088
9.1309577
9.0680274
9.0656018
9.1286355
9.1930068
9.2589532
9.2564546
9.1903402
9.1258143
9.0626463
9.0005335
8.939153
8.8781812
8.8744961
8.9355316
8.9970018
9.0251312
9.0294118
8.9684734
8.9078428
8.8472399
8.8509656
8.9084672
8.9114285
8.9713772
8.9684315
9.0282522
9.1333687
9.0753538