/*--------------------------------*- C++ -*----------------------------------*\
| =========                 |                                                 |
| \\      /  F ield         | OpenFOAM: The Open Source CFD Toolbox           |
|  \\    /   O peration     | Version:  v2012                                 |
|   \\  /    A nd           | Website:  www.openfoam.com                      |
|    \\/     M anipulation  |                                                 |
\*---------------------------------------------------------------------------*/
FoamFile
{
    version     2.0;
    format      ascii;
    class       volScalarField;
    location    "100";
    object      p;
}
// * * * * * * * * * * * * * * * * * * * * * * * * * * * * * * * * * * * * * //

dimensions      [0 2 -2 0 0 0 0];


internalField   nonuniform List<scalar> 
11834
(
-2.9874548
-2.979768
-2.9487021
-2.7816989
-2.7627363
-2.6477078
-2.5703002
-2.5385721
-2.4780304
-2.3577747
-2.3034983
-2.2520753
-2.1280243
-2.0619829
-2.0122323
-1.888864
-1.8159638
-1.7782075
-1.698169
-1.6138815
-1.5296347
-1.4846153
-1.3783783
-1.290436
-1.1672441
-1.0882152
-1.0544529
-0.93796703
-0.86917333
-0.72890252
-0.63023161
-0.56607207
-0.4229693
-0.28098066
-0.16076524
-0.0053201025
0.18137354
0.34331558
0.56680292
0.81107918
1.074746
1.461157
1.8652955
3.8660506
1.7622032
1.00081
0.90891941
0.7171126
0.53178
0.41884565
-2.984192
-2.9320891
-2.9148183
-2.9256332
-2.9375957
-2.9462066
-2.9518563
-2.9575324
-2.9628251
-2.9714602
-2.9830482
-2.9916821
-3.0012026
-3.0139942
-3.034558
-3.0452511
-3.0548914
-3.068601
-3.0836247
-3.0958738
-3.1175908
-3.1329823
-3.1563235
-3.169962
-3.1798912
-3.1961585
-3.2156124
-3.2207816
-3.2211301
-3.291758
-3.3703221
-3.4052025
-3.4414271
-3.457299
-3.4865669
-3.508679
-3.5393588
-3.5520836
-3.5750183
-3.5929726
-3.62212
-3.6374721
-3.6739398
-3.6922462
-3.7208442
-3.7436196
-3.7725432
-3.7931137
-3.8131837
-3.9443479
-4.0495194
-4.0706403
-4.1189863
-4.1517548
-4.2073713
-4.2336497
-4.2648312
-4.2956056
-4.3547062
-4.3740304
-4.3921209
-4.3828495
-4.4072579
-4.3811926
-4.3372639
-4.2967173
-4.2491194
-4.2210251
-4.1829565
-4.140096
-4.1023631
-4.1226313
-3.9389295
-3.7852732
-3.8149424
-3.7890942
-3.752727
-3.728216
-3.7010485
-3.6545827
-3.6294372
-3.6329961
-3.6066816
-3.5698511
-3.5425655
-3.5271285
-3.5011482
-3.4718163
-3.4496977
-3.4303572
-3.4074454
-3.4161723
-3.2949574
-3.1903058
-3.222629
-3.2214062
-3.2001184
-3.1806076
-3.1618105
-3.1450989
-3.1287425
-3.1074304
-3.0773548
-3.0722995
-3.0711955
-3.05085
-3.0321276
-3.0211191
-3.0095031
-2.9962605
-2.9804868
-2.9689567
-2.9603274
-2.9474255
-2.9365698
-2.93169
-2.9228688
-2.9140475
-2.9057393
-2.8988196
-2.8965293
-2.8917718
-2.8590538
-2.7768023
-2.7564142
-2.6465783
-2.580592
-2.5558249
-2.5417661
-2.5914769
-2.6127729
-2.6270912
-2.6350074
-2.6423303
-2.6502076
-2.6576666
-2.6604101
-2.6704554
-2.6799944
-2.6871508
-2.6959812
-2.7083214
-2.7183684
-2.7267196
-2.7332385
-2.7455453
-2.7435296
-2.825339
-2.8436539
-2.8659348
-2.8740526
-2.8816515
-2.8953277
-2.9128432
-2.9328807
-2.9481956
-2.9653057
-2.9847131
-3.0042545
-3.0189948
-3.0306282
-3.126246
-3.1486281
-3.1776447
-3.1925954
-3.2150094
-3.232023
-3.2488994
-3.2726221
-3.3071881
-3.3204976
-3.3390044
-3.4162135
-3.4172405
-3.4646522
-3.4937008
-3.5285933
-3.559134
-3.5906781
-3.6176908
-3.641717
-3.7565223
-3.7785167
-3.8306373
-3.8573251
-3.8918665
-3.915644
-4.0103914
-4.0457794
-4.1013071
-4.1471168
-4.1837844
-4.3430443
-4.3494946
-4.4064419
-4.3031581
-4.248501
-4.2008585
-4.1594313
-4.1177922
-4.0860642
-4.0433854
-4.0141646
-3.9767353
-3.9394388
-3.9152404
-3.7910492
-3.698529
-3.6755644
-3.6427136
-3.6021554
-3.5736777
-3.5583762
-3.5339344
-3.511121
-3.4862448
-3.4465607
-3.4277687
-3.4118113
-3.3814037
-3.3651612
-3.346429
-3.322937
-3.2995546
-3.2899578
-3.2815209
-3.1930808
-3.109612
-3.0877249
-3.0679058
-3.0511209
-3.0329855
-3.0101365
-2.9941902
-2.9916669
-2.9797132
-2.9591633
-2.9492356
-2.9307706
-2.9049995
-2.8983845
-2.8879179
-2.8799348
-2.8667356
-2.8519457
-2.8408258
-2.8328315
-2.8214186
-2.8108572
-2.7997202
-2.7942254
-2.7856847
-2.7729158
-2.7626954
-2.7572747
-2.7522704
-2.750115
-2.6442829
-2.5869838
-2.5016581
-2.4999715
-2.5134919
-2.598585
-2.7016208
-2.7499379
-2.836166
-2.7839852
-2.7408883
-2.6581336
-2.7856351
-1.4893101
-1.3982367
-1.2905639
-1.1704038
-1.0423701
-0.91072201
-0.78050337
-0.65575507
-0.53906107
-0.43333106
-0.34034819
-0.26074241
-0.19416879
-0.13967489
-0.095963625
-0.088173648
-0.13076634
-0.18429507
-0.2502032
-0.32964582
-0.42321346
-0.53034809
-0.64917627
-0.77665821
-0.91000152
-1.0450061
-1.1765044
-1.3001299
-1.4112292
-1.5055526
-1.5408495
-1.4395192
-1.3211045
-1.1900447
-1.0510899
-0.90881053
-0.76863099
-0.63505223
-0.51142579
-0.4011181
-0.3062522
-0.22719658
-0.16276371
-0.11135188
-0.071205431
-0.043355391
-0.079188194
-0.12676079
-0.18832746
-0.26631384
-0.36320564
-0.47903868
-0.61092139
-0.7548874
-0.90676653
-1.0613029
-1.2127347
-1.3562352
-1.4868429
-1.5998121
-1.6830676
-1.5532936
-1.4052614
-1.2439595
-1.0745155
-0.90210463
-0.73292437
-0.57322942
-0.4285521
-0.30419053
-0.20473964
-0.12939922
-0.073036395
-0.031823673
-0.0028316262
0.049688608
0.030988696
-0.0001739982
-0.047479975
-0.11684946
-0.21889562
-0.35617647
-0.51978093
-0.70221419
-0.8957311
-1.0929631
-1.2869697
-1.4723806
-1.6439564
-1.7965062
-1.9303765
-1.7504527
-1.5510953
-1.3372697
-1.113673
-0.88504889
-0.65923671
-0.44526934
-0.25397012
-0.097047029
0.0064101841
0.063004897
0.095096271
0.11137164
0.11555956
0.18558512
0.20090172
0.20658335
0.19984501
0.16817609
0.068539128
-0.11985423
-0.35311992
-0.61015673
-0.87688755
-1.1450926
-1.4055869
-1.654553
-1.890176
-2.1062417
-2.2990087
-2.0477639
-1.7735386
-1.4878487
-1.1902496
-0.86859578
-0.54431904
-0.23151713
0.065439176
0.30973245
0.39324252
0.37442311
0.34612201
0.30976621
0.26804918
0.32799955
0.39684798
0.47080523
0.55695139
0.65810825
0.63461718
0.30434837
-0.10743632
-0.50355222
-0.82492067
-1.0023957
-1.1924022
-1.3687469
-1.5454986
-1.7078106
-1.8803965
-2.036974
-2.2095169
-2.3693249
-2.5406559
-2.6800405
-0.2059889
-0.19506404
-0.18481271
-0.17515682
-0.16606534
-0.15747115
-0.14933745
-0.14164258
-0.13438499
-0.12758471
-0.12127449
-0.11550436
-0.11034056
-0.10586747
-0.10219372
-0.099390794
-0.097528542
-0.09638181
-0.14012033
-0.14133673
-0.1433194
-0.14629228
-0.15018687
-0.15491028
-0.16034366
-0.16638617
-0.17296
-0.18000159
-0.18746647
-0.19532408
-0.20356895
-0.21221879
-0.22131412
-0.23092817
-0.24110808
-0.25195884
-0.30717293
-0.29672691
-0.28689076
-0.27754087
-0.26861911
-0.26005364
-0.2518056
-0.24386783
-0.23625807
-0.22902166
-0.22221807
-0.21592745
-0.21024126
-0.2052794
-0.20117129
-0.19803438
-0.19592983
-0.19464694
-0.26126148
-0.26260516
-0.26483016
-0.2681192
-0.27242452
-0.27760247
-0.28351168
-0.29001183
-0.29699472
-0.30436079
-0.31203128
-0.31994155
-0.32805509
-0.33636005
-0.34488506
-0.35369038
-0.36283704
-0.37245648
-0.44819195
-0.43992823
-0.43189893
-0.42398443
-0.41613127
-0.40830531
-0.40050039
-0.39275716
-0.3851368
-0.37773155
-0.37064259
-0.36399261
-0.35790731
-0.35255122
-0.34807786
-0.34465702
-0.34231767
-0.3409202
-0.43396522
-0.435405
-0.43784426
-0.44136582
-0.4459623
-0.45143875
-0.45763034
-0.46434636
-0.47144158
-0.47876699
-0.48619475
-0.4935993
-0.50088529
-0.50797242
-0.51482996
-0.52144909
-0.52786168
-0.53415098
-0.62914218
-0.62549186
-0.62123738
-0.61635619
-0.61085574
-0.60480587
-0.59828702
-0.591434
-0.58438158
-0.57729532
-0.57033155
-0.56366991
-0.55747438
-0.55196376
-0.54731246
-0.54373945
-0.54122797
-0.53976276
-0.65650354
-0.65796312
-0.66049679
-0.66404494
-0.66865076
-0.67407072
-0.68012337
-0.68656257
-0.69320493
-0.69984102
-0.70628375
-0.71232647
-0.7177867
-0.7224688
-0.72623159
-0.72892843
-0.73050075
-0.7309327
-0.84062744
-0.84218282
-0.84204434
-0.84033374
-0.83729205
-0.83312922
-0.82811051
-0.82247011
-0.81645953
-0.81029614
-0.80422003
-0.79843277
-0.79320714
-0.78872866
-0.78526475
-0.78274372
-0.7813037
-0.91155112
-0.91292673
-0.91536019
-0.91863031
-0.9228259
-0.92766955
-0.93297463
-0.93844306
-0.94385916
-0.94895603
-0.95348881
-0.95716412
-0.95969824
-0.96075827
-0.96005812
-0.95725263
-0.95215837
-1.0690114
-1.075116
-1.0786106
-1.0799379
-1.0794531
-1.0775454
-1.0745374
-1.0707571
-1.0664681
-1.0619573
-1.057447
-1.0532557
-1.0495581
-1.0466577
-1.0444285
-1.0431884
-1.1711957
-1.172238
-1.174147
-1.1765036
-1.1794673
-1.1827206
-1.1861041
-1.1892878
-1.1920523
-1.1941007
-1.1951605
-1.1948802
-1.1929109
-1.1888259
-1.1822126
-1.1725537
-1.2628232
-1.276251
-1.2862931
-1.2935184
-1.2983845
-1.301342
-1.3027409
-1.3029358
-1.3021879
-1.3007914
-1.2989512
-1.2969944
-1.2950575
-1.2934622
-1.292023
-1.2912764
-1.3988159
-1.3991622
-1.3999659
-1.4005616
-1.4011594
-1.4014511
-1.4013224
-1.4004733
-1.3987052
-1.3957389
-1.391347
-1.3851834
-1.3769376
-1.3661654
-1.352378
-1.334992
-1.4054039
-1.4234911
-1.4385097
-1.4508747
-1.4608967
-1.4688401
-1.475115
-1.4799139
-1.4834873
-1.4860092
-1.4877793
-1.488876
-1.4895481
-1.4895963
-1.4897269
-1.50681
-1.4125169
-1.301395
-1.1776973
-1.0460761
-0.91093786
-0.77743354
-0.6497792
-0.53078424
-0.42349689
-0.32983746
-0.25033875
-0.18440649
-0.13087262
-0.088286249
-1.5071626
-1.4132792
-1.3024737
-1.1789782
-1.0474667
-0.91238055
-0.77886362
-0.65116108
-0.53212321
-0.42477938
-0.33105292
-0.25149247
-0.18550601
-0.13191964
-0.089282108
0.40381689
0.52587769
0.74392813
0.92798572
0.99046299
2.3013754
3.8632589
1.7201339
1.2645648
0.77864762
0.52764816
0.29858385
0.10272882
-0.076760911
-0.23857194
-0.3774061
-0.51233373
-0.67510559
-0.74191253
-0.74749648
-0.75529656
-0.76242041
-0.77116098
-0.78214618
-0.7906709
-0.79916343
-0.81018194
-0.81962523
-0.8269901
-0.83542548
-0.8423878
-0.84814255
-0.85340519
-0.86249802
-0.87039468
-0.88419411
-0.88701521
-1.0128403
-1.0124619
-1.0362222
-1.0495378
-1.0585718
-1.0665431
-1.0779795
-1.0922727
-1.1036538
-1.1125175
-1.1232746
-1.1354407
-1.1479027
-1.1596318
-1.1702887
-1.1768015
-1.1868142
-1.2037828
-1.2124784
-1.2122621
-1.2300423
-1.247659
-1.2656149
-1.2778084
-1.290201
-1.2967836
-1.31442
-1.3294123
-1.3550617
-1.3797088
-1.3989588
-1.4224919
-1.4514093
-1.4225769
-1.40962
-1.3988292
-1.3632514
-1.3291412
-1.2976143
-1.2713617
-1.2431443
-1.2351675
-1.2432972
-1.2296914
-1.2164757
-1.1959637
-1.1924675
-1.1858643
-1.1675595
-1.1484221
-1.149483
-1.1409766
-1.1252662
-1.1095237
-1.0967374
-1.0850785
-1.0751114
-1.0649982
-1.0525214
-1.0367712
-1.0249163
-1.016959
-1.0086766
-0.99916707
-0.98531653
-0.9716358
-0.96352202
-0.95619618
-0.81093332
-0.81720236
-0.81852385
-0.81339772
-0.78804325
-0.77952286
-0.77549846
-0.76245336
-0.75195154
-0.7429739
-0.7326543
-0.72393684
-0.71901635
-0.71243636
-0.70675277
-0.70290037
-0.69643737
-0.68946603
-0.68464687
-0.51767358
-0.38364238
-0.24527139
-0.084694466
0.097213017
0.29235891
0.52067449
0.77292128
1.2516583
0.764561
0.51603792
0.28555373
0.090657458
-0.0912175
-0.25109716
-0.38934605
-0.52552355
-0.53434701
-0.39606463
-0.2534929
-0.098316622
0.083546592
0.27843111
0.50895891
0.75971535
1.245204
0.75087552
0.49874609
0.27771378
0.077973383
-0.10688474
-0.25730245
-0.40680901
-0.54288358
-0.55375692
-0.41727459
-0.26123177
-0.11751085
0.077016207
0.26822453
0.49305329
0.74538723
1.2347219
0.7371165
0.49089979
0.25171286
0.074611056
-0.12467455
-0.26990677
-0.42209539
-0.56275145
-0.57013152
-0.42717457
-0.28228755
-0.12850557
0.06361903
0.24868015
0.47968862
0.73087655
1.2190196
0.72286849
0.47319329
0.24354002
0.052506662
-0.13434825
-0.29109833
-0.43495104
-0.5775988
-0.58391449
-0.44338121
-0.30059439
-0.13956255
0.043821181
0.23459677
0.46791452
0.71542099
1.2013802
0.7070511
0.4595835
0.22924413
0.034735182
-0.14477824
-0.30898808
-0.4541687
-0.58902655
-0.59629993
-0.46455467
-0.31619503
-0.1517959
0.026834608
0.22271945
0.4492096
0.6987673
1.1830369
0.68893494
0.44053741
0.21531031
0.017964347
-0.16033176
-0.32491102
-0.47198447
-0.60504688
-0.61384492
-0.47683352
-0.33545604
-0.16878772
0.0085079468
0.20804328
0.43227305
0.68155834
1.1686973
0.67503668
0.42670763
0.19601545
0.0058931768
-0.17954602
-0.34428064
-0.47867218
-0.63326764
-0.64722573
-0.48558758
-0.35497249
-0.18779711
0.00080196939
0.18612192
0.42016712
0.66906064
1.1558286
0.65566553
0.41476037
0.1812073
-0.016329257
-0.18886462
-0.37273298
-0.4952159
-0.64713062
-0.66776704
-0.50565309
-0.3755955
-0.20303442
-0.018940226
0.16486115
0.4120355
0.6489497
1.1446065
0.64294129
0.40594819
0.15386868
-0.021050048
-0.22063483
-0.37388523
-0.52312468
-0.68834263
-0.68809393
-0.53985647
-0.38476118
-0.22469847
-0.035972937
0.15592654
0.39322758
0.63911336
1.125529
0.62970526
0.38537821
0.15007432
-0.047117054
-0.23118286
-0.39591605
-0.54771002
-0.69285864
-0.82063012
-0.82995062
-0.69953341
-0.55318642
-0.40627559
-0.23888881
-0.056898483
0.14207578
0.38005018
0.62456687
1.1178014
0.6181506
0.37375184
0.13586969
-0.064787225
-0.24786772
-0.41578068
-0.56258281
-0.70742669
-0.83760468
-0.84514017
-0.71493093
-0.57514534
-0.42433868
-0.25647719
-0.071036263
0.12985996
0.36449651
0.61391532
1.1021268
0.60637319
0.35715221
0.12201658
-0.079024064
-0.26446961
-0.43313082
-0.58723823
-0.72430432
-0.85440534
-0.86605224
-0.73473224
-0.59556668
-0.43959658
-0.2731609
-0.087738093
0.11387634
0.34827546
0.60074051
1.0870472
0.59487514
0.34081866
0.10420909
-0.096602433
-0.28218984
-0.44711381
-0.60314573
-0.74358835
-0.88138311
-0.89213358
-0.7519388
-0.6122031
-0.45615878
-0.29069366
-0.10603377
0.096530897
0.33353969
0.58897617
1.0751517
0.57953936
0.3265085
0.089882789
-0.11542565
-0.30117618
-0.46741687
-0.62343706
-0.76199191
-0.89729107
-0.90428892
-0.77151218
-0.63369993
-0.47845038
-0.31032592
-0.12238329
0.082748199
0.31879149
0.57354111
1.0601601
0.56786169
0.31146839
0.073996587
-0.13101443
-0.31954221
-0.4867854
-0.64497787
-0.78307557
-0.91472317
-0.92721465
-0.79369628
-0.65566208
-0.49211933
-0.32997309
-0.1383569
0.065149488
0.30252786
0.56042546
1.0449086
0.55221804
0.29391671
0.054991924
-0.14726564
-0.34127188
-0.50170598
-0.66563053
-0.80431387
-0.94080896
-0.95003678
-0.81335774
-0.67321521
-0.51315951
-0.34941059
-0.15770462
0.046874634
0.28679703
0.54598667
1.0374076
0.53431913
0.28010123
0.035942244
-0.16730991
-0.36073103
-0.52647222
-0.6818511
-0.82614898
-0.95709572
-0.95900766
-0.84198704
-0.69245344
-0.53243929
-0.37412247
-0.16828271
0.018691418
0.27661124
0.52307522
1.0247518
0.51797745
0.26409457
0.01168286
-0.18216351
-0.38326794
-0.53919094
-0.71321142
-0.84659502
-0.98044607
-1.0114696
-0.8426073
-0.72943331
-0.54940305
-0.38585281
-0.20208222
0.014917925
0.24796042
0.51532561
1.0030953
0.50054032
0.24483049
-0.002462155
-0.215424
-0.39115868
-0.5704372
-0.73356155
-0.86013847
-1.022244
-1.0222785
-0.87918266
-0.73553063
-0.58694681
-0.3982656
-0.22532856
-0.019681784
0.23537202
0.48855401
0.97114879
0.47792446
0.21171348
-0.030614709
-0.2367834
-0.41816895
-0.59710165
-0.75113705
-0.89474781
-1.0365056
-1.043204
-0.9062203
-0.76537582
-0.60039733
-0.43344714
-0.24275595
-0.043739053
0.19952535
0.46044798
0.94935761
0.43653441
0.19251222
-0.06843033
-0.25270025
-0.44854483
-0.61591157
-0.78387976
-0.92213385
-1.0551806
-1.0712603
-0.92858155
-0.79597557
-0.6309615
-0.4573567
-0.26623021
-0.087100254
0.17383832
0.40794332
0.86644068
0.38692254
0.14325803
-0.10094372
-0.29302839
-0.47519282
-0.64039564
-0.81198387
-0.94547464
-1.0960739
-1.1114456
-0.96236987
-0.81758925
-0.65413457
-0.48740491
-0.30992926
-0.11265386
0.11873316
0.37035083
0.81513978
0.33678284
0.097045971
-0.13839249
-0.32500403
-0.50428042
-0.68380836
-0.83072143
-0.98304272
-1.1330006
-1.1470805
-0.99632693
-0.84738328
-0.6975637
-0.52269582
-0.34417063
-0.15655521
0.072328821
0.33055421
0.76428432
0.29546851
0.054942337
-0.18014781
-0.37170199
-0.54783614
-0.70982864
-0.87034469
-1.0140164
-1.1552496
-1.1680555
-1.0291696
-0.89208884
-0.72174824
-0.57252326
-0.396402
-0.2039131
0.017845168
0.29799667
0.68580651
0.23345872
-0.011680896
-0.24103109
-0.42705122
-0.6002136
-0.74339328
-0.91186248
-1.0518827
-1.1904174
-1.1922511
-1.358097
-1.4106924
-1.1937897
-1.0492535
-1.0632963
-0.92201188
-0.78129811
-0.62641227
-0.46123959
-0.29380012
-0.073159134
0.089994066
0.14445483
0.22838567
0.17240852
0.23450764
0.44604629
0.65715904
0.41691141
0.42165121
0.50225338
0.42606907
0.85399898
0.75402917
1.0734759
1.0358029
1.3797007
1.1382521
1.1041731
1.1292142
1.4678285
2.0747722
4.2224523
3.6585466
2.5524383
2.4479944
2.597182
3.0190077
1.7478121
3.0851471
3.2837862
3.2839177
1.1684718
1.196762
1.2555131
1.3666954
1.4026345
1.4329958
1.4495835
1.4703364
1.4816258
1.4923016
1.4974186
1.5073053
1.5122601
1.5240543
1.5438995
1.562194
1.5837597
1.6107214
1.6334274
1.6483253
1.6629968
1.675714
1.6889308
1.7085426
3.8538235
2.2898253
0.98243771
2.2740134
3.8422963
3.8305086
2.2615045
0.97332258
2.2429352
3.818922
3.8093675
2.2300534
0.96616166
2.2102669
3.7977675
3.7869492
2.197026
0.95948967
2.1766432
3.7738854
3.763013
2.1623698
0.94775534
2.1422094
3.7531099
3.740675
2.1277276
0.93141689
2.1100773
3.7226131
3.7052795
2.0974265
0.91585399
2.082443
3.6881527
3.675111
2.0695004
0.90355989
2.0570137
3.6612302
3.6502602
2.0451091
0.89969296
2.0344821
3.6354959
3.6263203
2.0221715
0.9084515
1.9989355
3.6071614
3.5961347
1.9678771
0.96164272
1.8181447
3.4480865
3.3719219
1.5348222
1.1712488
0.98927356
0.92818696
0.86555781
0.83172969
0.82485545
0.82440064
0.83293796
0.84462028
0.85809867
0.8724644
0.88776203
0.90324125
0.9172697
0.73114002
0.51653391
0.39680225
0.41022093
0.53466107
0.75537746
0.93493854
0.9951847
2.3249787
3.8786103
1.7460954
1.2859355
0.81389319
0.54529988
0.32629319
0.12904591
-0.059200871
-0.19951699
-0.36466776
-0.48943133
-0.63304068
-0.73166308
-0.72725841
-0.73241649
-0.73750987
-0.83535708
-0.96304077
-1.1085344
-1.1687197
-1.1829991
-1.1912984
-1.1991935
-1.2044393
-1.2122498
-1.219425
-1.2299387
-1.2379893
-1.2480807
-1.2551562
-1.2643916
-1.2702662
-1.2833107
-1.2916584
-1.3112754
-1.3205228
-1.3242067
-1.3378119
-1.3537193
-1.3562143
-1.3735664
-1.388495
-1.4032429
-1.4114191
-1.4259602
-1.4353078
-1.4495546
-1.4588242
-1.4735124
-1.4779867
-1.4857842
-1.4916611
-1.5108296
-1.5187575
-1.5301748
-1.5475993
-1.5596756
-1.5512413
-1.5808334
-1.596906
-1.6112151
-1.6134437
-1.6346386
-1.6444678
-1.6656959
-1.6814878
-1.7053871
-1.7306792
-1.7061858
-1.6680865
-1.6475376
-1.6289357
-1.6156874
-1.6162331
-1.5942711
-1.5802336
-1.5635414
-1.5593798
-1.5439255
-1.5352148
-1.5229236
-1.5071511
-1.4877336
-1.4772092
-1.4655916
-1.4574855
-1.447435
-1.4371544
-1.4238251
-1.4111509
-1.399499
-1.3909396
-1.3817697
-1.3690956
-1.3523295
-1.3368205
-1.324572
-1.3138081
-1.2985377
-1.2794523
-1.2642311
-1.2543836
-1.2453682
-1.2405512
-1.2395312
-1.2316539
-1.2209997
-1.211549
-1.2044183
-1.1938884
-1.1819803
-1.1741555
-1.167317
-1.1589307
-1.1480043
-1.1357633
-1.1247294
-1.1169517
-0.9691732
-0.84364093
-0.85208599
-0.97581187
-0.98028591
-0.85982311
-0.86909995
-0.98504826
-0.99275537
-0.87702157
-0.88391899
-1.0019402
-1.0097759
-0.89113079
-0.89754534
-1.0195155
-1.028278
-0.90350578
-0.91178708
-1.0373242
-1.048839
-0.91988404
-0.92804547
-1.0598793
-1.0684678
-0.93847279
-0.94960057
-1.0803595
-1.0870093
-0.96586146
-0.9777192
-1.096903
-1.1180117
-0.97993461
-0.9993961
-1.1162702
-1.1081752
-1.0096518
-0.9360399
-0.92743958
-0.9182099
-0.90766083
-0.89996712
-0.8876648
-0.8796441
-0.86829427
-0.86188021
-0.85195242
-0.84547908
-0.83571397
-0.8302331
-0.82106253
-0.8151967
-0.80543633
-0.79972043
-0.79087117
-0.78509646
-0.77547399
-0.7714837
-0.83350537
-0.95025804
-1.0996196
-1.1641926
-1.280211
-1.470204
-1.6632298
-1.8119506
-1.9065557
-2.0217089
-2.1067943
-2.2028928
-2.3008698
-2.378383
-2.4815798
-2.570449
-2.6369624
-2.735565
-2.8487026
-2.8201271
-2.7884326
-2.7911983
-2.6940761
-2.6984849
-2.6976095
-2.6888108
-2.6815626
-2.6669269
-2.6489099
-2.6356376
-2.6314891
-2.6203017
-2.6100641
-2.6016219
-2.5951518
-2.5889811
-2.5795197
-2.5686946
-2.5679604
-2.5662585
-2.475591
-2.480118
-2.4776595
-2.3667158
-2.3191939
-2.2391192
-2.1284102
-2.0755827
-1.9945626
-1.8860316
-1.823649
-1.7660949
-1.6979184
-1.6823723
-1.6852602
-1.6847261
-1.6859131
-1.6867349
-1.689331
-1.6933317
-1.6969763
-1.7028683
-1.7079451
-1.7110788
-1.7141781
-1.7209028
-1.7272757
-1.7316813
-1.7338067
-1.7393612
-1.7449827
-1.7383121
-1.7190849
-1.7025515
-1.7332148
-1.716392
-1.6881265
-1.6884429
-1.6870702
-1.6803338
-1.6726746
-1.6657067
-1.6568851
-1.6471239
-1.636793
-1.630665
-1.6295981
-1.6303934
-1.6291799
-1.6238921
-1.6174447
-1.6154037
-1.6186581
-1.6130665
-1.615811
-1.5440476
-1.4840072
-1.4141799
-1.4139671
-1.5272114
-1.5119577
-1.413714
-1.3149781
-1.1561456
-1.0570629
-1.0460457
-1.0504749
-1.0490429
-1.0513191
-1.0488094
-1.0491139
-1.0480205
-1.0500718
-1.0518036
-1.0592033
-1.0655791
-1.0718929
-1.076055
-1.0819964
-1.0930613
-1.1017888
-1.1077153
-1.1159506
-1.1416924
-1.1601998
-1.0884767
-1.0896511
-1.0874166
-1.0705481
-1.0606358
-1.0535902
-1.0483297
-1.0412904
-1.0328914
-1.0254772
-1.020065
-1.018288
-1.0106783
-0.99669084
-0.99942202
-1.0051038
-1.0020755
-1.0006174
-1.0007628
-1.006378
-1.0081547
-0.994155
-0.91726147
-0.86497214
-0.7431022
-0.64572368
-0.64756239
-0.65346556
-0.65587654
-0.65803363
-0.66036324
-0.66370821
-0.6656701
-0.6661646
-0.6659741
-0.66785648
-0.67199019
-0.6796991
-0.68860401
-0.69444218
-0.69833766
-0.70245594
-0.70308524
-0.70476362
-0.72208805
-0.81190998
-0.92213795
-0.91972381
-0.91577788
-0.90976877
-0.90409957
-0.89961209
-0.89704042
-0.8935168
-0.88801381
-0.88613533
-0.88749364
-0.88654072
-0.87848934
-0.8717795
-0.87259398
-0.87325795
-0.87131247
-0.87059955
-0.86525497
-0.74021708
-0.74099758
-0.74468307
-0.74681704
-0.74852991
-0.74962995
-0.74916103
-0.74734264
-0.74610985
-0.75117957
-0.76076976
-0.76603602
-0.77107886
-0.77694684
-0.78357018
-0.79055438
-0.79974156
-0.81049901
-0.74490162
-0.73709986
-0.7319339
-0.724346
-0.72017503
-0.71438044
-0.71052694
-0.70470955
-0.70072765
-0.69641051
-0.69457249
-0.69200815
-0.69093039
-0.6885889
-0.68746579
-0.68553761
-0.68355048
-0.68415053
-0.68527136
-0.68469516
-0.82070274
-0.89643642
-0.96321372
-0.96079743
-0.93623473
-0.85875874
-1.068531
-1.2560607
-1.4112434
-1.5003709
-1.5894063
-1.6885275
-1.7674551
-1.8532198
-1.9452124
-2.0229287
-2.1010744
-2.1967875
-2.2694209
-2.3459653
-2.4118572
-2.4571668
-2.4265859
-2.4052329
-2.2910165
-2.473247
-2.4922064
-2.5815603
-2.6739588
-2.6795916
-2.5892905
-2.584952
-2.4949354
-2.3756992
-2.251035
-2.2410217
-2.3976188
-2.5157339
-1.5442137
-1.4425469
-1.3236792
-1.1921427
-1.0526749
-0.90989682
-0.76924013
-0.63528569
-0.51123638
-0.40055014
-0.30547532
-0.22635142
-0.16195862
-0.11063738
-0.07060892
0.41842918
0.54351122
0.76365245
0.94125739
0.99917682
2.3678597
3.9417822
1.7799955
1.3313214
0.85591207
0.60882325
0.37858446
0.17970045
0.0026427894
-0.15673314
-0.29862399
-0.43855509
-0.59643939
-0.59072276
-0.58782415
-0.58682286
-0.58624085
-0.58368551
-0.57927772
-0.56806659
-0.56006388
-0.42563903
-0.2928178
-0.14737089
0.00095815818
0.18590943
0.37187138
0.58188435
0.75997335
0.88036984
0.88092907
0.61630813
0.38698614
0.18705771
0.0047581222
-0.14274621
-0.29214973
-0.42655579
-0.42510738
-0.28546339
-0.14725015
0.010445965
0.19203499
0.39196508
0.62543789
0.87944518
1.3571837
1.804091
3.8911761
2.0818284
1.0152423
2.2462978
3.8108562
1.8383578
1.3511866
0.87618286
0.62216113
0.39155678
0.19533763
0.014832973
-0.15117725
-0.29135995
-0.42327399
-0.42276378
-0.28852548
-0.14969745
0.01361316
0.19491863
0.39353294
0.62610904
0.87927559
0.81695423
0.81747522
0.82091437
0.82077474
0.76951505
0.7560505
0.81681328
0.90035365
0.95848779
0.77946081
0.56722027
0.36516621
0.18883143
0.014115474
-0.14072388
-0.27994745
-0.41113678
-0.50067698
-0.56487858
-0.55141336
-0.55931358
-0.60689399
-0.59128172
-0.80464858
-1.031626
-1.2226624
-1.4134654
-1.600211
-1.7746081
-1.9471312
-2.1138013
-2.1311164
-2.0433378
-1.9605569
-1.871895
-1.7893277
-1.6975507
-1.6190279
-1.5198744
-1.4562304
-1.3589078
-1.4931771
-1.5643172
-1.6619015
-1.7348955
-1.8276072
-1.9090872
-1.9952509
-2.0743497
-2.1663089
-2.2422185
-2.3354829
-2.3068372
-2.2160844
-2.2361773
-2.1516533
-2.0637146
-1.9805338
-1.8953367
-1.8094099
-1.7197954
-1.6394918
-1.5426546
-1.4602635
-1.4915018
-1.5756339
-1.5911228
-1.5813628
-1.6034928
-1.5884453
-1.6049209
-1.56189
-1.5246998
-1.5203072
-1.5280033
-1.5307286
-1.5396428
-1.5131018
-1.513354
-1.5046575
-1.4847371
-1.5127312
-1.4936434
-1.4740214
-1.4385447
-1.4247111
-1.3746607
-1.3157951
-1.3102467
-1.4754166
-1.6312908
-1.7939488
-1.9406099
-2.1013563
-2.1089096
-2.055251
-1.8991683
-1.7579587
-1.6514745
-1.5602999
-1.4920352
-1.3604883
-1.2159922
-1.0635053
-0.9079802
-0.75528284
-0.61041768
-0.47764067
-0.36122945
-0.2640492
-0.18604495
-0.12466018
-0.077337195
-0.041785527
0.42222512
0.54465332
0.75410641
0.94196232
0.78469299
0.78584837
1.0272711
1.6152373
1.2746566
0.9635807
0.57643673
0.22915677
-0.074105619
-0.34997198
-0.33687445
-0.13013629
0.16740041
0.38984814
0.7415158
0.90140907
1.2049487
1.2144891
0.62261056
0.29861023
0.062151568
-0.098291371
-0.21715104
-0.3014919
-0.20179683
-0.1265846
-0.070585301
-0.029748384
-0.0011213428
0.41428351
0.54068879
0.76337816
0.93801179
0.99505079
2.3424952
3.9018399
1.7789032
1.2989352
0.82965738
0.57646193
0.34550884
0.14846942
-0.03210766
-0.18820587
-0.33291623
-0.4674712
-0.62334776
-0.6141614
-0.60802205
-0.60597334
-0.60562717
-0.6068248
-0.60686315
-0.60328244
-0.44103291
-0.30161908
-0.15950476
-0.003795378
0.17774698
0.37734406
0.60662928
0.86021256
1.3403692
0.84994679
0.60096984
0.37280969
0.17556263
-0.0074550291
-0.16350452
-0.30508494
-0.44349819
-0.44750163
-0.30985497
-0.16771453
-0.010243925
0.17330966
0.36813022
0.59570426
0.84780529
1.332883
0.84772
0.58875192
0.36207603
0.16899283
-0.013499413
-0.17048245
-0.31525224
-0.45236671
-0.45867859
-0.31911982
-0.17299654
-0.016521246
0.16272999
0.35669989
0.58567311
0.85129411
1.3152756
0.84663382
0.58622062
0.35309064
0.15599491
-0.019873136
-0.17618931
-0.32188873
-0.46502377
-0.46777013
-0.32683432
-0.18128236
-0.025167694
0.15105865
0.34961356
0.58155224
0.83819639
0.77388132
0.77977184
0.78524185
0.78549468
0.78922343
0.79023711
0.79800326
0.7953217
0.80278893
0.86633257
0.61364004
0.3802273
0.18344086
0.0090910516
-0.15498519
-0.29697829
-0.43477814
-0.42919089
-0.42550401
-0.29410923
-0.15184348
0.014200177
0.19286233
0.38787671
0.61969416
0.87458618
1.336288
0.86523707
0.61616208
0.38247073
0.18838548
0.012643392
-0.15302327
-0.29588163
-0.28259757
-0.28088218
-0.27905549
-0.27763078
-0.27649073
-0.28095497
-0.28448208
-0.2722577
-0.28209961
-0.42328526
-0.44131387
-0.27762142
-0.14613012
0.02217008
0.16584326
0.36226932
0.53025733
0.74655204
1.0157601
0.73050231
0.55458692
0.36083761
0.18529626
0.016745293
-0.13509528
-0.12991455
0.033494025
0.19287819
0.38460391
0.57243923
0.77706387
0.74040934
0.77348933
0.81353055
0.56995013
0.40468676
0.30352978
0.06206693
-0.1230486
-0.25443652
-0.35465776
-0.42648606
-0.42735977
-0.47849648
-0.51224721
-0.40145989
-0.30630098
-0.22711872
-0.16268997
-0.11134073
-0.071289145
-0.042212272
-0.077747944
-0.12506486
-0.070993744
-0.030185759
-0.0015823428
-0.091012821
-0.093806391
-0.13672134
-0.13375624
-0.18745509
-0.19058897
-0.19476417
-0.14066757
-0.097519609
-0.10203276
-0.1454468
-0.19980081
-0.17683326
-0.17162472
-0.16735013
-0.16426738
-0.112834
-0.072716228
-0.043365261
-0.046058643
-0.07545325
0.36878888
0.50931776
0.65796362
0.76728843
0.84759468
0.95528265
0.98238199
0.95497316
1.5379785
1.4037753
0.95988025
1.0399602
1.0498065
0.99880555
0.93343324
0.75195254
0.63446099
0.5894146
0.57996057
0.6198889
0.66181087
0.87321697
1.1917013
1.2098698
1.1701587
1.0323855
1.045554
0.92662525
0.94023109
1.0030422
1.1211225
1.2460097
1.4476354
1.6599697
2.1184716
1.9904876
1.5665335
1.2719065
1.0742826
1.0518015
0.84606241
0.77790497
0.47102478
0.86186276
1.1613233
0.94857816
1.0448418
0.90880155
0.97229686
1.2120539
1.1795053
0.94790278
1.1559539
1.0482718
0.97922332
0.60040028
0.98489812
0.65770169
0.83929756
1.4317865
1.1958942
0.84449849
0.98037358
0.89534409
1.3617796
1.2553532
1.1549605
1.1026222
1.283938
1.1651943
1.0400221
1.0614083
0.95702106
0.84986233
0.91282922
0.99563515
1.0272712
1.0320499
0.87314841
0.8815626
0.86559257
0.86875047
0.88103385
0.89731888
0.91496763
0.93208115
0.94797516
0.96234242
0.97568697
0.98864473
1.0003295
1.0108572
1.0201957
1.0364978
0.99296944
2.3611211
3.9239749
1.7838884
1.7940432
3.9548411
2.3799911
2.4788061
2.4785771
2.495889
3.9226529
1.7814654
1.6866891
1.7382137
1.7589634
1.837241
1.2927323
1.2319659
0.93619133
0.73511924
0.91461788
1.2559313
1.5494247
1.030848
0.6631726
0.38263879
0.16244421
0.0046940606
-0.11512674
-0.046020227
0.00088930134
0.031774061
0.050267203
0.049511975
0.030984728
7.3920372e-05
-0.0020020269
-0.07240524
-0.12634217
-0.078951487
-0.081816923
-0.1157425
-0.11975828
-0.079213418
0.41875256
0.54552381
0.76832546
0.94031892
0.79080184
0.79029045
0.53761562
0.54599615
0.36529321
0.19415794
0.060922337
0.092825979
0.10926134
0.11372537
0.39876405
0.50156403
0.63524292
0.63620958
0.46619671
0.33858978
0.20146036
0.19660913
0.18209084
0.38071327
0.49628027
0.70166173
0.71699863
0.50664575
0.38894121
0.37217633
0.48545058
0.68617068
0.67207629
0.47488339
0.36379969
0.35581157
0.46516586
0.65989239
0.65035364
0.45773773
0.34942349
0.34414952
0.4522065
0.64305618
0.64259068
0.4532539
0.34298914
0.34326718
0.4575683
0.64311686
0.66426917
0.47469394
0.3500455
0.28260409
0.28137327
0.33384401
0.38568196
0.33429192
0.25535961
0.11624385
-0.033372948
-0.20991581
-0.35867301
-0.5029904
-0.52268213
-0.36114619
-0.26872389
-0.08905042
-0.018791884
0.12602897
0.15039731
0.23246686
0.19411021
0.24321655
-0.23887631
-0.43107597
-1.605856
-1.6089789
-1.5456669
-1.4442941
-1.3255922
-1.194027
-1.0544495
-0.9115223
-0.77066344
-0.63646501
-0.61152611
-0.75673806