/*--------------------------------*- C++ -*----------------------------------*\
| =========                 |                                                 |
| \\      /  F ield         | OpenFOAM: The Open Source CFD Toolbox           |
|  \\    /   O peration     | Version:  v2012                                 |
|   \\  /    A nd           | Website:  www.openfoam.com                      |
|    \\/     M anipulation  |                                                 |
\*---------------------------------------------------------------------------*/
FoamFile
{
    version     2.0;
    format      ascii;
    class       surfaceScalarField;
    location    "100";
    object      phi;
}
// * * * * * * * * * * * * * * * * * * * * * * * * * * * * * * * * * * * * * //

dimensions      [0 3 -1 0 0 0 0];
oriented        oriented;


internalField   nonuniform List<scalar> 
34367
(
0.0021523964
0.00068893138
0.00047440432
0.00073016209
0.00035789833
0.001064336
0.00036162394
0.0002469109
0.00012162726
0.00042125459
7.2136222e-06
-6.6844277e-05
0.00055377237
-5.7333502e-05
-7.5184277e-05
0.00064812341
-3.030509e-05
-6.4045951e-05
0.00070165938
-2.7993303e-05
-2.5542663e-05
0.00047946821
-1.0070774e-05
0.00023226194
0.00050612304
-2.64286e-05
-2.2623267e-07
0.00058437063
-1.8948396e-06
-7.6352751e-05
0.00064371535
-6.3139843e-06
-5.3030732e-05
0.00067898919
-2.706681e-06
-3.2567162e-05
0.00070116084
-5.3980788e-07
-2.1631843e-05
0.00071629802
6.0457324e-07
-1.5741751e-05
0.00072577345
1.6697448e-06
-1.1145173e-05
0.00072650664
4.2884434e-06
-5.0216393e-06
0.00070816461
1.0375874e-05
7.9661608e-06
0.00063071785
1.5590699e-05
6.1856054e-05
0.00035781577
2.6684443e-05
0.00024621764
0.00032492192
8.2950656e-06
2.4598783e-05
0.00030983258
4.6940024e-05
-3.1850679e-05
0.00059623367
-4.7065048e-05
-0.00023933605
0.0014840387
-0.00050214386
-0.00038566118
0.002565791
-0.00033942905
-0.00074232322
0.001903343
0.00042728292
0.00023516502
0.00066050216
0.000309512
0.00093332888
0.00032909934
0.00023017354
0.00010122929
0.00039077527
6.005087e-06
-6.7681017e-05
0.00052784304
-6.1615974e-05
-7.5451799e-05
0.00063121983
-5.3774935e-05
-4.9601859e-05
0.00044019697
-1.0456367e-05
0.00020147923
0.00046466406
-1.9783074e-05
-4.684016e-06
0.00053869633
1.426465e-06
-7.5458729e-05
0.00059383629
-3.9667008e-06
-5.1173257e-05
0.00062062757
1.2611646e-06
-2.8052446e-05
0.00062654442
7.3261781e-06
-1.3243034e-05
0.00061171936
1.6641727e-05
-1.8166663e-06
0.00057514953
3.2716847e-05
3.8529804e-06
0.00054332508
4.9165028e-05
-1.734057e-05
0.00062042328
-4.932481e-05
-2.7773393e-05
0.0013656971
-0.00052101523
-0.00022425864
0.0022908523
-0.00047774293
-0.00044741225
0.0024501341
-0.00017766549
1.8383699e-05
0.002786848
-9.8916925e-05
-0.00023779699
0.0059018388
-0.00083055041
-0.0022844404
0.01029515
-0.0021990556
-0.0021942551
0.011370679
-0.00061144721
-0.00046408241
0.01164949
-0.00017839183
-0.00010041881
0.011720886
-4.675939e-05
-2.4637137e-05
-6.4482778e-06
-1.0804731e-05
0.0016863609
0.0017782641
0.00016108775
0.00088524562
6.6254603e-05
0.00091664001
0.0010613646
3.088973e-05
0.0008114169
0.0010022121
-4.4668171e-06
0.00082757778
-0.0017790199
0.00098679863
-2.2075597e-05
0.00083269457
-0.0017912146
0.00097612881
-2.1284451e-05
0.00082804072
-0.0017860714
0.00095723952
-3.2598606e-05
0.00081988484
-0.0017623589
0.00095378821
-1.6083533e-05
0.00081310619
-0.00178343
0.00095380869
-2.6490016e-05
0.00080671518
-0.0017380245
0.00094171576
-1.7045307e-05
0.00080434488
-0.0017531267
0.00093933714
-1.8145181e-05
0.00080395893
-0.0017537626
0.00095090357
-6.0687756e-06
0.00080248997
-0.0017632178
0.00094865138
-1.235572e-05
0.00079882859
-0.0017250324
0.00093249073
-9.9524887e-06
0.0007982532
-0.0017321774
0.00093152094
-8.135102e-06
0.00080031682
-0.0017465424
0.00094440815
-6.0064148e-07
0.00080085418
-0.0017530129
0.0009446243
-5.6608184e-06
0.00080015507
-0.0017277395
0.00093264459
-9.6363194e-06
0.00080260712
-0.0017344767
0.0009358451
-1.4719622e-05
0.00080634507
-0.0017533821
0.00095212032
-1.0883751e-05
0.00080741445
-0.0017626398
0.00095138946
-2.0941979e-05
0.000804672
-0.0017300211
0.0009354073
-1.794498e-05
0.00080399754
-0.0017400438
0.00093304928
-1.9567379e-05
0.0008053123
-0.0017487956
0.00094510567
-1.0741667e-05
0.00080444368
-0.0017561992
0.00094292981
-2.1209386e-05
0.0007987933
-0.0017139646
0.00092563903
-2.3119423e-05
0.00079469818
-0.0017130205
0.00092023231
-4.0454153e-05
0.00079010591
-0.0016968766
0.00092410545
-0.00012866641
0.0007980846
0.00091545539
-0.0016253277
-0.00064659117
0.00089612014
0.00098291743
-0.0013611128
-0.00066270893
0.0003479012
-0.00053326595
0.00020148251
-0.00071233939
0.00011313153
-0.00015336563
8.986456e-05
-0.00012393112
0.00045824764
-0.0017780998
0.0007314439
-5.9581899e-05
0.00068637885
-0.0016244759
0.00087374778
-2.2638778e-05
0.00075240583
-0.0016998857
0.00091053677
-3.0053978e-05
0.0007755535
-0.0016789327
0.00091079445
-2.4709767e-05
0.00078693487
-0.0017096036
0.00091732449
-3.181415e-05
0.00079431118
-0.0017234365
0.00093622966
-1.8874708e-05
0.0007979753
-0.0017496188
0.00093870404
-3.5066745e-05
0.00079748537
-0.0017087611
0.00092746781
-2.6365157e-05
0.00079936161
-0.0017368912
0.00092882798
-3.6828157e-05
0.00080313118
-0.0017377725
0.00094510433
-2.0313247e-05
0.00080551199
-0.0017698571
0.00094783019
-4.2731908e-05
0.00080566092
-0.0017207869
0.00093754461
-3.5833687e-05
0.00080571596
-0.001751243
0.00093862877
-5.3817407e-05
0.00080462107
-0.0017369585
0.00095032119
-3.7972678e-05
0.00080124297
0.0009443666
-0.0017614543
-6.8472978e-05
0.00079172047
0.00092074356
-0.0016819637
-0.00015139464
0.0008007232
0.00091248385
-0.0016302854
-0.00066789882
0.00090373573
0.0010104823
-0.0013977138
-0.00068479372
0.0003438547
0.00019519324
-0.00052215304
-0.00075323502
0.00010842948
-0.00011868168
7.8693502e-05
-0.00013707423
0.00046987266
-0.0018499266
0.00076389319
-8.6881107e-05
0.00069889888
-0.001632541
0.00088344903
-4.4582152e-05
0.00076599135
-0.0017298071
0.00092151681
-5.2483309e-05
0.00079284951
-0.0017334175
0.00094846918
-3.057547e-05
0.00080285237
-0.0017789784
0.00095421819
-5.1062117e-05
0.00080300134
-0.0017253201
0.00094280537
-4.4499901e-05
0.00080351987
-0.0017531898
0.00094310772
-7.8768966e-05
0.00080031568
-0.0017167888
0.00095074221
-0.0001566546
0.00080854881
-0.0016727005
0.00094203728
0.00090298969
-0.0013808374
0.0010074174
2.5597737e-05
2.6990717e-05
0.0010494865
-0.00011666164
8.0096639e-05
0.00099853155
-0.00015004076
5.5650397e-05
0.00096903294
-0.00013603788
2.9865989e-05
0.00096438845
-0.00013828836
2.4228633e-05
0.00095277173
-0.0001436145
2.4157949e-05
0.00094782526
-0.00014475324
2.3233788e-05
0.00094681593
-0.0001430394
1.8661356e-05
0.00093700565
-0.00013958371
8.9229522e-06
0.00090871113
-0.00013298138
-1.763516e-05
0.00083950063
-0.00011404363
0.00061841727
-5.7750292e-05
0.00097960015
7.9872973e-05
-9.7201147e-05
9.8635299e-06
3.9634153e-05
0.0010539244
-0.00012382192
6.4633852e-05
0.0010102568
-0.00016129137
4.9656852e-05
0.00096326247
-0.00014756226
3.9775522e-05
0.0009471391
-0.0001455373
3.8199422e-05
0.00094612989
-0.00014331082
2.6328224e-05
0.00095706151
-0.00014056925
1.294477e-05
0.0009622073
-0.00014310789
1.1690944e-05
0.00095556549
-0.00014865075
1.3831141e-05
0.0009540002
-0.00015062841
1.5188371e-05
0.00095163113
-0.00014985719
1.582269e-05
0.00094755372
-0.00014882643
1.5978895e-05
0.00094590866
-0.00014857949
1.6639781e-05
0.00094572129
-0.00014840688
1.6444891e-05
0.00094163121
-0.00014712514
1.421651e-05
0.00093359845
-0.00014443519
9.1025045e-06
0.0009215653
-0.00014089779
-5.8093148e-07
0.00089689414
-0.00013480488
-2.5911036e-05
0.00082747645
-0.0001157675
0.0006049707
-5.9502557e-05
0.00096599396
8.7641434e-05
-0.00010076349
-5.1819094e-07
4.7408114e-05
0.0010436857
-0.00012458167
5.3703779e-05
0.001003104
-0.00016120579
3.5838748e-05
0.00096437702
-0.00014842739
2.1957219e-05
0.00095118046
-0.00014719302
1.6061643e-05
0.00094812709
-0.00014753333
1.2846566e-05
0.00095020455
-0.00014819616
1.2490344e-05
0.00095363296
-0.00014883306
1.3473421e-05
0.00095296187
-0.00014863264
1.6291419e-05
0.00094842937
-0.00014724982
1.8853468e-05
0.0009459899
-0.00014387995
1.0408785e-05
0.00095670525
-0.00014084612
-1.5778422e-06
0.00096190315
-0.00014357146
-2.026416e-06
0.00095112944
-0.00014807374
9.6516728e-07
0.00094627935
-0.00014911587
3.3716196e-06
0.00094741027
-0.00014896254
4.7829974e-06
0.00094757949
-0.00014867404
5.8284838e-06
0.00094539935
-0.00014819163
6.8964586e-06
0.00094602821
-0.00014826759
8.7303447e-06
0.00094945664
-0.00014880055
1.0780085e-05
0.0009509391
-0.0001490299
1.3637155e-05
0.00095043957
-0.00014895176
1.6614273e-05
0.00095331176
-0.0001495737
2.041403e-05
0.00096028176
-0.00015097533
2.3280397e-05
0.00096981776
-0.00015279928
2.5285497e-05
0.00098036713
-0.00015433151
2.494661e-05
0.00098790176
-0.0001548683
2.5401204e-05
0.0009811423
-0.00015401911
4.2587289e-05
0.00094700172
-0.0001527709
0.00019308562
0.00085562769
-8.9486014e-05
0.00042295902
1.7037497e-05
0.00046638129
-3.6208642e-05
0.00068663418
-0.0001912331
-8.6353287e-05
0.00077446081
-4.6022287e-05
-7.2109436e-05
0.00072225002
3.3313106e-05
-9.0956222e-06
-3.4537001e-05
0.00046326332
0.00028345293
-0.00032446947
-0.0008729639
0.00060395777
0.0005589386
-0.00034500262
-0.00025844839
0.00019749722
8.1484323e-05
-7.7915442e-05
0.00033222351
0.0004250591
-0.0010243698
-3.9625667e-05
0.00051476917
0.00052108702
-0.001074146
-2.6582996e-05
0.00055333035
0.0005341258
-0.0011004988
-1.7914111e-05
0.00055895124
-0.0011006331
0.00053301294
-1.1821082e-05
0.00055730505
-0.0010934835
0.00053008546
-8.1442234e-06
0.00055493022
-0.0010864076
0.00052780048
-6.3177893e-06
0.00055343234
-0.0010816234
0.00052636461
-5.4240137e-06
0.00055321526
-0.0010808227
0.00052671367
-4.5489556e-06
0.00055365421
-0.001082949
0.00052841969
-3.9993248e-06
0.00055404359
-0.0010830474
0.00052845414
-4.337286e-06
0.00055424553
-0.0010807061
0.00052679854
-5.0908454e-06
0.00055443421
-0.0010804649
0.00052678425
-5.7109829e-06
0.00055447949
-0.0010820426
0.00052818326
-7.3552081e-06
0.00055367278
-0.0010795828
0.00052755425
-1.334298e-05
0.00055245597
-0.0010717456
0.00052527737
-4.9289319e-05
0.0005574678
-0.0010493223
0.00052780086
-0.00031216889
0.00062017846
-0.00094609361
0.00058879472
-0.00031856264
0.00021022702
-0.0002986376
9.4804335e-05
-4.6312559e-05
-0.00098924597
0.00032019647
0.00039679941
-1.4819213e-05
-0.00099285812
0.00048571547
0.0004756493
-1.035121e-05
-0.0010126038
0.0005196859
0.00048844994
-9.4137509e-06
-0.0010253763
0.00052995871
0.00049448014
-1.0088667e-05
-0.0010299216
0.00053403795
0.00049655861
-1.2673663e-05
-0.0010292767
0.00053579317
0.00049606857
-1.661193e-05
-0.0010302764
0.00053721273
0.00049700198
-2.0297145e-05
-0.0010358292
0.0005392636
0.00050025081
-2.1556062e-05
-0.0010445599
0.00054204104
0.00050377774
-2.0187596e-05
-0.0010546347
0.00054505494
0.00050821129
-2.0108971e-05
-0.0010654313
0.0005482969
0.00051705582
-5.0921944e-05
-0.0010566391
0.00055668072
0.00053077137
-0.00031512534
0.00062162426
0.00059659959
-0.00095402045
-0.00032582105
0.00021185561
0.00010244689
-0.0003036068
-4.7881982e-05
0.00032534614
0.00041572777
-0.001019013
-1.7139825e-05
0.00049425399
-0.0010274013
0.00050240516
-1.2514491e-05
0.00053013186
-0.0010532812
0.00051852399
-1.1318291e-05
0.00054124869
-0.0010664633
0.0005240184
-1.1648255e-05
0.00054573919
-0.0010706385
0.00052522923
-1.269475e-05
0.00054763748
-0.0010734098
0.00052681879
-1.4357429e-05
0.00054871424
-0.0010758022
0.00052875065
-1.9937282e-05
0.00054895531
-0.0010719759
0.00052860043
-5.5751691e-05
0.0005537891
-0.0010480244
0.0005300497
-0.00031744365
0.00061534039
-0.00094274684
0.0005890984
-0.00032674437
0.000205545
-0.00028619053
8.9946263e-05
-5.7726073e-05
-0.00098982611
0.00031964062
0.00040116719
-2.9196259e-05
-0.00099574036
0.00048524619
0.00048196436
-2.7863273e-05
-0.0010163082
0.0005207029
0.00049427227
-2.7896965e-05
-0.0010353945
0.00053317214
0.000502256
-2.509079e-05
-0.0010557243
0.00054069026
0.00051222787
-2.3753118e-05
-0.001069997
0.00054609956
0.00052255979
-5.4872349e-05
-0.0010581878
0.00055535158
0.00053395549
-0.00032016069
0.00062087813
0.0006001066
-0.00095569639
-0.00033203387
0.00021000169
-0.00029890413
0.00010077561
-5.3772996e-05
0.00032659861
-0.0010260287
0.00042116922
-2.4846966e-05
0.00049480687
-0.0010311363
0.00050740344
-2.7680975e-05
0.00052900503
-0.0010456361
0.00051946508
-6.4249482e-05
0.00054457345
-0.0010355582
0.00052755327
-0.00032390782
0.00060937582
-0.0009402306
0.00059051312
-0.00033808875
0.00020007028
-0.00027032803
8.4438679e-05
-7.1685322e-05
-0.00099317486
0.00032063924
0.00040613219
-4.3531474e-05
-0.0010088714
0.0004885454
0.00049217212
-6.9838515e-05
-0.0010237994
0.00053270691
0.00051739952
-0.00032689152
-0.00094339207
0.00060827561
0.00059216947
-0.00033925366
-0.00028096023
0.00020148779
9.1834577e-05
0.00032394455
0.00042222175
0.001115765
-2.0743393e-05
-5.042705e-06
-0.00010354457
5.8011534e-05
-3.7367104e-05
9.1675499e-05
-4.4003789e-05
8.8452329e-05
-2.0918754e-05
1.5578524e-05
0.0010987407
-6.1478477e-05
2.373186e-05
0.0010479866
-0.00010336823
3.0741731e-05
0.0010399496
-9.913421e-05
3.2358354e-05
0.0010391792
-9.3979876e-05
1.4715428e-05
0.0010431901
-8.8541487e-05
-1.8946591e-05
0.0010307303
-8.8357152e-05
0.00099039702
-8.9970016e-05
0.0010758748
3.415055e-05
-7.9994129e-05
8.8016204e-06
3.2510693e-05
-2.3625396e-05
3.6736897e-05
-4.4007912e-05
5.5804e-05
-6.4534634e-05
5.4341873e-05
-7.0669855e-05
5.3623361e-05
-6.8450546e-05
6.3232302e-05
-5.9219414e-05
6.0398794e-05
-2.9931086e-05
-4.6575207e-06
0.0010952916
-6.8027958e-05
6.7544807e-06
0.0010551446
-0.00011099115
1.4330093e-05
0.001054292
-0.00010786738
1.7081858e-05
0.0010553733
-0.00010649396
1.8085698e-05
0.001052265
-0.00010571508
1.927343e-05
0.0010501855
-0.00010546456
2.1198504e-05
0.0010488979
-0.00010510166
2.345851e-05
0.0010425653
-0.00010319414
2.3651825e-05
0.0010315198
-9.811464e-05
5.8307603e-06
0.0010322977
-9.2911309e-05
-2.745466e-05
0.0010232076
-9.302802e-05
0.00098196882
-9.4305594e-05
0.0010699013
4.1348676e-05
-8.1873064e-05
1.1209595e-06
3.938708e-05
-2.7245833e-05
2.7154857e-05
-4.7779537e-05
4.3957924e-05
-6.8333798e-05
3.8711638e-05
-7.4936554e-05
2.886984e-05
-7.4806927e-05
2.1446991e-05
-7.4726509e-05
1.7378014e-05
-7.5003217e-05
1.6189953e-05
-7.5100617e-05
1.8087078e-05
-7.4311565e-05
2.5471261e-05
-7.155866e-05
4.0937091e-05
-6.2334043e-05
4.0911373e-05
-3.2514998e-05
-1.9557901e-05
0.001090363
-6.799058e-05
-6.9805163e-06
0.0010499097
-0.00011135763
1.1052518e-06
0.0010466362
-0.00010844266
4.3676706e-06
0.0010518228
-0.00010767496
5.7701269e-06
0.0010534809
-0.00010730389
6.5748988e-06
0.0010513439
-0.00010674933
7.5544202e-06
0.0010518963
-0.00010684765
9.0489512e-06
0.0010552249
-0.00010726281
1.1287889e-05
0.0010559882
-0.00010728804
1.4390492e-05
0.0010544275
-0.00010709054
1.8906067e-05
0.0010563942
-0.00010759802
2.4879044e-05
0.0010631214
-0.00010881259
3.2520641e-05
0.0010725455
-0.0001103693
4.1808621e-05
0.0010828632
-0.0001117841
5.2933674e-05
0.0010896643
-0.00011288764
6.8744998e-05
0.0010780425
-0.00011271157
9.6551464e-05
-0.00011665097
0.0010358462
0.00089453321
-0.00013358716
0.0010045004
-4.5711171e-05
-0.00011027832
-9.3598773e-05
7.3239066e-05
-0.0012328038
-0.00051852117
0.0015493033
3.5183862e-05
3.0841476e-05
-0.00017437804
-0.0007534919
0.0009611719
-0.00053821027
0.00064715539
-0.00010364631
-0.00047437286
-9.507606e-05
-3.2807302e-05
-0.0003618771
-0.00015480278
-3.2877263e-05
-0.00026303489
-0.0001434195
-2.2266987e-05
-0.00021829363
7.6886002e-05
0.00063170904
0.0002143333
-0.00014700624
0.00054217698
9.3118794e-05
-0.0039024437
-0.00054447816
0.0033114211
0.00083512411
0.00015337046
-0.00018692108
0.00058235466
0.012478995
4.6618762e-05
-1.2194857e-05
0.012436256
5.4870093e-05
-1.2131342e-05
0.012387101
6.1078572e-05
-1.1923264e-05
0.012333532
6.5162921e-05
-1.1593832e-05
0.012277619
6.7107335e-05
-1.1194799e-05
0.012221391
6.6969244e-05
-1.0741064e-05
0.012166757
6.4881569e-05
-1.0247933e-05
0.012115382
6.1118421e-05
-9.7426483e-06
0.012068541
5.6091271e-05
-9.2506811e-06
0.012027057
5.0276e-05
-8.7924932e-06
0.011991249
4.4163605e-05
-8.3550064e-06
0.011960998
3.8192326e-05
-7.9415621e-06
0.011935924
3.2623565e-05
-7.5490594e-06
0.011915507
2.7591529e-05
-7.1749928e-06
2.3151749e-05
-6.8134721e-06
-0.012271965
4.516476e-05
-6.3662627e-06
-0.012291523
5.3739722e-05
-6.5902115e-06
-0.012315613
6.3535165e-05
-6.8216691e-06
-0.012344865
7.4513803e-05
-7.0695039e-06
-0.012379863
8.6508548e-05
-7.3468112e-06
-0.01242097
9.9061418e-05
-7.6787295e-06
-0.012468078
0.00011128696
-8.0870748e-06
-0.012520492
0.00012211852
-8.5862867e-06
-0.012576933
0.00013048453
-9.1616343e-06
-0.012635616
0.00013542634
-9.7743653e-06
-0.012694441
0.00013631392
-1.0381941e-05
-0.012751164
0.0001328399
-1.0954166e-05
-0.012803472
0.00012485809
-1.1471171e-05
-0.012849096
0.00011238463
-1.1890588e-05
9.560239e-05
-1.2186536e-05
0.013438155
0.00015082722
-1.3914925e-05
0.013386981
0.00017711011
-1.3551234e-05
0.013328762
0.00019608274
-1.3006174e-05
0.013266422
0.00020749628
-1.2316173e-05
0.013202784
0.00021147105
-1.1519063e-05
0.013140541
0.00020830699
-1.0638238e-05
0.013082211
0.0001985391
-9.7239573e-06
0.013029844
0.00018342093
-8.9356162e-06
0.012984565
0.00016481577
-8.2495721e-06
0.012946646
0.00014467793
-7.6979309e-06
0.012915586
0.00012487198
-7.3029592e-06
0.012890327
0.00010679561
-7.0228243e-06
0.012869824
9.084714e-05
-6.8095367e-06
0.012853219
7.6975136e-05
-6.6301501e-06
6.5003221e-05
-6.4689875e-06
-0.013420466
7.995365e-05
-6.6347549e-06
-0.013430406
9.3619451e-05
-6.7037727e-06
-0.01344261
0.00010984486
-6.7936942e-06
-0.013458255
0.00012936826
-6.9283036e-06
-0.013479233
0.00015302123
-7.1710447e-06
-0.013507905
0.00018099103
-7.6412549e-06
-0.013546151
0.00021149897
-8.4368602e-06
-0.01359472
0.00024156575
-9.5755782e-06
-0.013652992
0.00026766734
-1.08569e-05
-0.01371859
0.00028608402
-1.2178337e-05
-0.013788237
0.00029455466
-1.3436612e-05
-0.0138586
0.00029235556
-1.4496992e-05
-0.013926096
0.00027888636
-1.5307542e-05
-0.013986422
0.00025336771
-1.5931413e-05
0.00021583058
-1.6413163e-05
0.014299033
0.00029439336
-1.8891271e-05
0.014224178
0.00034624841
-1.8025393e-05
0.014143004
0.00037731378
-1.7253719e-05
0.014062518
0.00038926401
-1.6422111e-05
0.013986836
0.00038564197
-1.5405404e-05
0.013919571
0.00036738629
-1.4036605e-05
0.013865383
0.00033409683
-1.2241936e-05
0.01382745
0.00028959799
-1.0098804e-05
0.013804992
0.00024215583
-8.1993989e-06
0.013794821
0.00019818565
-7.0238434e-06
0.013792643
0.0001617248
-6.5252022e-06
0.013793952
0.0001344718
-6.4124563e-06
0.013795868
0.00011435209
-6.4236264e-06
0.01379703
9.8928259e-05
-6.4708659e-06
8.6492814e-05
-6.5394938e-06
-0.013955929
8.287929e-05
-6.6869346e-06
-0.013940913
9.0532856e-05
-6.6211468e-06
-0.01392101
0.00010114352
-6.69413e-06
-0.013897166
0.00011749106
-6.8629929e-06
-0.013872585
0.00014417205
-7.0285034e-06
-0.01385392
0.00018701908
-7.4982452e-06
-0.013849406
0.00024682225
-9.180618e-06
-0.013866685
0.00031962973
-1.2752548e-05
-0.013910311
0.00039447227
-1.6749561e-05
-0.013975436
0.00045116242
-1.8651516e-05
-0.014054852
0.00048347233
-1.8413885e-05
-0.014146588
0.00049918031
-1.8180722e-05
-0.014248009
0.00049755297
-1.8818358e-05
-0.014347019
0.00046535571
-2.0096907e-05
0.00039397766
-2.2073629e-05
0.014196729
0.00052580584
-2.6700513e-05
0.014056428
0.0006265203
-2.0863949e-05
0.013926064
0.00064527489
-1.7358187e-05
0.013828178
0.00061421445
-1.7147621e-05
0.013753592
0.00058113262
-2.3074203e-05
0.013687495
0.0005503856
-3.3126006e-05
0.013654763
0.0004602906
-3.3086595e-05
0.013673102
0.00032338359
-2.2092519e-05
0.013718862
0.00021577731
-1.4715908e-05
0.013775992
0.00014358473
-1.3695491e-05
0.01383175
0.00010224705
-1.3833136e-05
0.013877459
8.3672791e-05
-1.1890182e-05
0.013912582
7.5248276e-05
-9.2275026e-06
0.013938978
7.1720833e-05
-7.5840438e-06
7.059155e-05
-6.9730015e-06
-0.013753871
5.7359626e-05
-9.0395784e-06
-0.013725677
5.5602373e-05
-1.2074957e-05
-0.01368605
5.5331256e-05
-1.9710301e-05
-0.013624655
5.6220675e-05
-3.3943153e-05
-0.013541158
6.5751853e-05
-4.7001518e-05
-0.013436146
8.1699437e-05
-4.3126665e-05
-0.01333336
0.00014653052
-3.3538849e-05
-0.013244517
0.00028506903
-5.0528827e-05
-0.013181079
0.00051018758
-0.00011333486
-0.013174595
0.00064658493
-0.00010268326
-0.013207383
0.00063817484
-2.4254276e-05
-0.013285979
0.00068886616
3.9437752e-06
-0.013450767
0.00080499619
5.0672124e-06
-0.013673201
0.00085145589
-2.5016731e-06
0.00070182797
-2.405111e-05
0.011301529
0.0018576599
-0.0010194895
0.00010439203
0.01095278
-0.00087146178
0.001905823
0.00016584399
0.010791081
0.0017436945
-0.00093440398
0.00015740482
0.010811408
0.0016054717
-0.0010686828
0.00013175063
0.010839625
-0.0010945593
0.0016300982
7.441887e-05
0.011467489
-0.00053409614
0.0016268647
-0.0010740482
0.012421079
5.4630405e-05
-0.00049803295
0.012532952
0.00027565246
-0.00010245585
0.012755486
3.0275977e-06
-7.9031004e-05
0.013042877
-3.0197692e-05
-0.0001754937
0.013228008
7.3767811e-05
-0.0001931479
0.013311153
7.320897e-05
-0.00010013309
0.013338244
7.1222483e-05
-4.2982313e-05
0.013360421
5.1153277e-05
-1.77271e-05
4.5845294e-05
-8.8862089e-06
-0.0127679
3.8998649e-05
-1.2801409e-05
-0.012740224
5.6018842e-05
-3.2541346e-05
-0.012706847
0.00013306843
-9.5223487e-05
-0.012607663
0.00027311148
-0.00029908629
-0.011403761
-0.00032237455
-0.00080775978
-0.01026408
-0.0015252381
0.001233603
-0.00087824397
-0.0099004673
-0.001373787
0.0011259509
-0.00011274851
-0.0099537504
-0.00098402307
0.0013460456
-3.308693e-05
-0.004450372
-0.00023189878
0.0019014344
-0.00098172556
-0.0061365581
-0.0043478091
0.00083351718
-0.00044860917
-0.00048747092
-0.0043828888
0.00046125826
-0.00031644169
-0.00010973681
-0.0043346194
0.00029176953
-0.00030028822
-3.9750702e-05
-0.0042750241
8.6936947e-05
-4.5881852e-07
-0.00014607348
-0.0041609006
6.9972097e-05
-0.00020572924
2.1633672e-05
-0.0041615001
0.00016505047
-0.00018455233
2.0101381e-05
-0.0041089868
0.00028032046
-0.00035275591
1.9922116e-05
-0.0041678452
0.00041276747
-0.00037484784
2.0938792e-05
-0.0041889155
0.00053796481
-0.00053970898
2.281442e-05
-0.0043387073
0.00062059858
1.9373826e-05
-0.00049018061
-0.0044387493
-0.00049085669
4.6420526e-05
-0.00027053227
7.4529322e-05
0.00015585315
-0.016002061
3.0884021e-05
0.00014800725
-0.016002693
3.3776138e-05
0.00013846991
-0.01600703
3.5422862e-05
0.00012826821
-0.016013252
3.6031384e-05
0.00011807371
-0.016020712
3.5947507e-05
0.00010824383
-0.016029085
3.5478995e-05
9.8900962e-05
-0.016038901
3.4860339e-05
9.0019271e-05
-0.016051668
3.4243131e-05
8.1499229e-05
-0.016070471
3.3711618e-05
7.3213517e-05
-0.01609993
3.3306895e-05
6.5041785e-05
-0.016143389
3.3034597e-05
5.6885451e-05
-0.016193783
3.2870561e-05
4.8652858e-05
-0.016215258
3.2759665e-05
4.0230599e-05
-0.016116561
3.2588989e-05
3.1533212e-05
-0.015744288
3.2088698e-05
2.2718482e-05
-0.014964156
3.0753495e-05
1.4296311e-05
-0.013836545
2.8270556e-05
-0.012688717
2.5175849e-05
-1.5108668e-05
-0.012710917
3.013343e-05
-2.4073711e-05
-0.013861514
3.3933702e-05
-3.3445643e-05
-0.01499177
3.6986768e-05
-4.2649289e-05
-0.015773711
3.862712e-05
-5.1520507e-05
-0.016146917
3.9227219e-05
-6.0160493e-05
-0.016246012
3.9394012e-05
-6.8695476e-05
-0.016224713
3.9464508e-05
-7.7219313e-05
-0.016174443
3.9577895e-05
-8.5833701e-05
-0.016131115
3.9799258e-05
-9.4664264e-05
-0.016101797
4.0157029e-05
-0.00010384812
-0.01608313
4.0645532e-05
-0.00011349928
-0.016070473
4.1223951e-05
-0.00012365935
-0.016060732
4.1806492e-05
-0.0001342231
-0.016052387
4.2238812e-05
-0.00014484805
-0.016044906
4.2278905e-05
-0.00015486493
-0.016038617
4.160377e-05
-0.0001632359
-0.016034172
3.9850154e-05
-0.016033417
3.6781001e-05
0.00017044982
-0.016070727
4.3253824e-05
0.00016157703
-0.016071835
4.6534931e-05
0.00015111627
-0.016076574
4.8418272e-05
0.00014011174
-0.016083082
4.9180568e-05
0.00012922278
-0.016090703
4.9205367e-05
0.00011877536
-0.016099114
4.8830138e-05
0.00010885662
-0.016108858
4.8303002e-05
9.9405273e-05
-0.016121462
4.7783025e-05
9.0291947e-05
-0.016140041
4.7357066e-05
8.1368353e-05
-0.016169257
4.7065568e-05
7.2502413e-05
-0.01621249
4.6913463e-05
6.3591736e-05
-0.016262671
4.6868371e-05
5.4540228e-05
-0.016283814
4.6853046e-05
4.5209641e-05
-0.016184284
4.6697866e-05
3.5475599e-05
-0.015809969
4.5991352e-05
2.5510497e-05
-0.01502582
4.4014595e-05
1.5965035e-05
-0.013892297
4.0328768e-05
-0.012738251
3.5750405e-05
-1.6869703e-05
-0.012771265
4.1941975e-05
-2.7026814e-05
-0.013929472
4.7331787e-05
-3.7614497e-05
-0.015066915
5.1683219e-05
-4.7900543e-05
-0.015853693
5.4010238e-05
-5.7702829e-05
-0.016229304
5.4821865e-05
-6.7165729e-05
-0.016329308
5.4957323e-05
-7.6442264e-05
-0.016308297
5.4903475e-05
-8.5630947e-05
-0.016258162
5.4860209e-05
-9.4835712e-05
-0.01621497
5.4917968e-05
-0.00010419425
-0.016185799
5.5116986e-05
-0.00011386408
-0.016167246
5.5454479e-05
-0.00012399233
-0.016154619
5.588986e-05
-0.00013466157
-0.01614478
5.6334865e-05
-0.00014580392
-0.016136187
5.662637e-05
-0.00015711179
-0.016128285
5.6510258e-05
-0.00016794204
-0.016121375
5.5631463e-05
-0.00017725441
-0.016116103
5.3580946e-05
-0.016114353
5.0038054e-05
0.00018335579
-0.016164309
5.6739637e-05
0.00017371231
-0.016167049
6.0589253e-05
0.00016262563
-0.016173135
6.2845865e-05
0.00015117538
-0.016180716
6.3881105e-05
0.00013984173
-0.016188981
6.4127199e-05
0.0001290478
-0.016197942
6.3955757e-05
0.0001187923
-0.016207992
6.3627677e-05
0.00010897005
-0.016220735
6.3310642e-05
9.9418246e-05
-0.016239339
6.3091793e-05
8.99686e-05
-0.016268535
6.3014182e-05
8.0481275e-05
-0.016311752
6.3077487e-05
7.0852505e-05
-0.016361904
6.3235055e-05
6.098307e-05
-0.016382819
6.338058e-05
5.0702932e-05
-0.016282308
6.3284533e-05
3.9848357e-05
-0.015905221
6.2382916e-05
2.8616006e-05
-0.015115399
5.9716222e-05
1.7823737e-05
-0.013973386
5.4706651e-05
-0.012810322
4.852596e-05
-1.8817101e-05
-0.012855483
5.5184881e-05
-3.0261735e-05
-0.014024
6.205827e-05
-4.2161457e-05
-0.015171151
6.7651378e-05
-5.3590925e-05
-0.015964408
7.0616484e-05
-6.4345051e-05
-0.016343135
7.1581367e-05
-7.4610539e-05
-0.016444164
7.1609872e-05
-8.4571599e-05
-0.016423286
7.1343039e-05
-9.4326273e-05
-0.016373039
7.1041472e-05
-0.0001039724
-0.016329716
7.0827879e-05
-0.00011365084
-0.016300413
7.0752393e-05
-0.00012353972
-0.016281661
7.0815524e-05
-0.00013381514
-0.016268691
7.0975161e-05
-0.00014460315
-0.016258299
7.1144835e-05
-0.00015588783
-0.01624885
7.1154195e-05
-0.00016741877
-0.016239922
7.0736949e-05
-0.00017859748
-0.016231461
6.9505308e-05
-0.00018840124
-0.016224254
6.7008532e-05
-0.016220149
6.2823752e-05
0.00019199172
-0.016280841
6.7637082e-05
0.00018227184
-0.01628669
7.2155827e-05
0.00017123194
-0.016295332
7.491052e-05
0.00015987594
-0.016304932
7.6366715e-05
0.0001487772
-0.016314743
7.6991578e-05
0.00013815107
-0.01632486
7.7187341e-05
0.0001279843
-0.016335745
7.7220398e-05
0.00011813093
-0.016349072
7.7264358e-05
0.00010840472
-0.016368089
7.7401458e-05
9.8623672e-05
-0.01639761
7.7675042e-05
8.8648356e-05
-0.016441143
7.8079949e-05
7.8385115e-05
-0.016491584
7.8561351e-05
6.7740704e-05
-0.016512499
7.8980178e-05
5.6519553e-05
-0.016410966
7.9052352e-05
4.451773e-05
-0.016030477
7.8070307e-05
3.1956422e-05
-0.015233471
7.4881308e-05
1.9851657e-05
-0.014080718
6.8822491e-05
-0.012906298
6.1416071e-05
-2.0924962e-05
-0.012961819
6.6703474e-05
-3.3665386e-05
-0.014142426
7.4448994e-05
-4.6862865e-05
-0.015301078
8.0804983e-05
-5.9422558e-05
-0.016102021
8.4103721e-05
-7.1098703e-05
-0.016484329
8.5039052e-05
-8.2097438e-05
-0.016586327
8.4826377e-05
-9.2622641e-05
-0.01656528
8.4221086e-05
-0.00010276195
-0.016514527
8.3522672e-05
-0.00011260304
-0.016470652
8.2882516e-05
-0.000122282
-0.016440773
8.2362865e-05
-0.00013198207
-0.016421346
8.1973882e-05
-0.00014189279
-0.01640751
8.1676015e-05
-0.00015217538
-0.016395967
8.1389269e-05
-0.0001628696
-0.016384992
8.0943303e-05
-0.00017379338
-0.016374082
8.0073377e-05
-0.00018440359
-0.016363093
7.8371342e-05
-0.00019373079
-0.016352728
7.5365031e-05
7.0551942e-05
0.00018470284
-0.016420217
7.6072906e-05
0.00017485083
-0.016432551
7.930981e-05
0.00016464947
-0.016445157
8.1276843e-05
0.00015460682
-0.016457383
8.243326e-05
0.00014487131
-0.016469414
8.3182871e-05
0.00013538117
-0.016481799
8.3779137e-05
0.00012596736
-0.016496319
8.4386639e-05
0.00011644116
-0.016516323
8.5076859e-05
0.00010662451
-0.016546722
8.588675e-05
9.6386362e-05
-0.016591089
8.6800703e-05
8.5646108e-05
-0.016642293
8.7754007e-05
7.4329204e-05
-0.016663595
8.8585069e-05
6.2227241e-05
-0.016561216
8.8988087e-05
4.9137985e-05
-0.016177106
8.8174758e-05
3.5336127e-05
-0.015372175
8.4898806e-05
2.1994917e-05
-0.01420753
7.8445541e-05
-0.013020651
7.057891e-05
-2.3032298e-05
-0.013081003
7.2643669e-05
-3.6940293e-05
-0.014274042
8.0419754e-05
-5.1302301e-05
-0.015444593
8.6779501e-05
-6.4876877e-05
-0.016253437
8.9905952e-05
-7.7356683e-05
-0.016639252
9.0515825e-05
-8.8939077e-05
-0.016741887
8.9874192e-05
-9.9828341e-05
-0.016720182
8.8777359e-05
-0.0001100858
-0.01666836
8.7527848e-05
-0.00011978192
-0.016623323
8.6297055e-05
-0.00012903723
-0.01659222
8.5152443e-05
-0.00013802242
-0.016571445
8.4111558e-05
-0.00014691922
-0.016556043
8.314099e-05
-0.00015589859
-0.016542617
8.2182044e-05
-0.00016498665
-0.016529379
8.1083818e-05
-0.00017420262
-0.016515548
7.960645e-05
-0.00018293944
-0.016501177
7.7362628e-05
7.3921672e-05
0.00017166341
-0.016566203
7.2273516e-05
0.0001638418
-0.016582542
7.4815467e-05
0.00015586683
-0.01659806
7.6656359e-05
0.00014784678
-0.016612752
7.8155436e-05
0.00013970963
-0.016627437
7.9530992e-05
0.00013129142
-0.016643948
8.0920772e-05
0.00012242554
-0.01666572
8.2365943e-05
0.00011295373
-0.016697747
8.3895852e-05
0.00010276883
-0.016743664
8.5488923e-05
9.1811418e-05
-0.016796299