/*--------------------------------*- C++ -*----------------------------------*\
| =========                 |                                                 |
| \\      /  F ield         | OpenFOAM: The Open Source CFD Toolbox           |
|  \\    /   O peration     | Version:  v2012                                 |
|   \\  /    A nd           | Website:  www.openfoam.com                      |
|    \\/     M anipulation  |                                                 |
\*---------------------------------------------------------------------------*/
FoamFile
{
    version     2.0;
    format      ascii;
    class       volVectorField;
    location    "100";
    object      U;
}
// * * * * * * * * * * * * * * * * * * * * * * * * * * * * * * * * * * * * * //

dimensions      [0 1 -1 0 0 0 0];


internalField   nonuniform List<vector> 
11834
(
(5.5569489 -0.40731268 0.004107695)
(5.533293 -0.42135937 0.0018128125)
(5.5102839 -0.44334178 0.0020607369)
(5.4992428 -0.44831832 -0.00054764873)
(5.4905314 -0.45955487 0.0003590817)
(5.4746202 -0.46731053 0.0012700474)
(5.4665922 -0.47078511 0.00051359491)
(5.4553595 -0.47771891 -0.00020254725)
(5.4400854 -0.48978556 0.0011974565)
(5.4253555 -0.49347183 0.001950737)
(5.4173146 -0.49728944 0.00085028191)
(5.4032447 -0.50663548 0.00151286)
(5.3848347 -0.5118513 0.0013709188)
(5.3747747 -0.51531102 0.00020612402)
(5.3600504 -0.52418513 0.0011916312)
(5.340291 -0.52895659 0.0013458424)
(5.3299424 -0.53194422 0.00049243202)
(5.3179572 -0.53870979 0.00050626112)
(5.2988938 -0.54536405 -0.00084716572)
(5.2823577 -0.55308009 -0.0015093502)
(5.2713229 -0.55667729 -0.0019154635)
(5.2627053 -0.56202436 0.00066106474)
(5.2472407 -0.56420318 0.0023661387)
(5.2323955 -0.56163098 0.0040633636)
(5.2120527 -0.56154008 0.003738248)
(5.1864433 -0.56640731 0.0010935181)
(5.1656142 -0.57807533 0.00071333556)
(5.1518112 -0.58453049 -0.00021464872)
(5.1358817 -0.59124606 0.00047922894)
(5.1140369 -0.5915545 -0.0004134133)
(5.0944738 -0.59354077 -0.0015456867)
(5.074494 -0.60336575 0.000149487)
(5.0490797 -0.60766013 0.001578123)
(5.0252008 -0.60789623 0.00042017174)
(4.9992892 -0.61025821 0.00069966543)
(4.9669746 -0.61292431 0.00034389534)
(4.932962 -0.61232208 -0.00079135359)
(4.8952921 -0.61499586 -1.3677144e-05)
(4.8497846 -0.61376175 0.00028400875)
(4.8031285 -0.61162265 0.0024944869)
(4.7397784 -0.60416788 0.0034733364)
(4.6992305 -0.57366448 0.017275272)
(4.489549 -0.55756499 0.013600083)
(4.3743692 -0.15147347 -0.020946138)
(4.6685129 -0.033527992 -0.0044038447)
(4.8237183 -0.017228553 -0.019229222)
(4.8555048 -0.0085444923 -0.015688586)
(4.893735 3.9288594e-05 -0.011036025)
(4.9322191 0.0024159594 -0.0079756787)
(4.9559217 0.0028243871 -0.0064656792)
(5.5531335 -0.4049252 0.0055548056)
(5.5298972 -0.41926989 0.006750139)
(5.5313075 -0.41611802 0.0069545284)
(5.5319561 -0.4141549 0.0081054004)
(5.5320921 -0.41165159 0.011773945)
(5.5311758 -0.41046277 0.01305838)
(5.5308642 -0.40809273 0.016310138)
(5.5293636 -0.40633965 0.017870618)
(5.5287496 -0.40426696 0.021082528)
(5.5281233 -0.40237925 0.022501824)
(5.5286127 -0.40016202 0.025804564)
(5.5284376 -0.39845195 0.027226572)
(5.5294361 -0.39580264 0.030052527)
(5.5297828 -0.39328769 0.030884953)
(5.5310123 -0.39093127 0.034053136)
(5.5316534 -0.38901599 0.035739966)
(5.5328286 -0.38653144 0.038897353)
(5.53262 -0.38420031 0.04055287)
(5.5338857 -0.38163672 0.04363472)
(5.5332561 -0.38045296 0.043837076)
(5.5332383 -0.37871526 0.046358709)
(5.5336409 -0.3755641 0.047635889)
(5.5344043 -0.37294068 0.049876183)
(5.5341224 -0.37108164 0.049788412)
(5.5347364 -0.36866225 0.051837999)
(5.5342078 -0.36609638 0.053193087)
(5.5354623 -0.36347046 0.056141259)
(5.5371289 -0.36032213 0.056892932)
(5.5362374 -0.35958107 0.059089298)
(5.5452599 -0.35584825 0.062405032)
(5.5581918 -0.34288436 0.061207909)
(5.5641747 -0.33183871 0.064993537)
(5.5639035 -0.3279915 0.069716354)
(5.5657493 -0.32371874 0.072623857)
(5.5676993 -0.32038698 0.077433875)
(5.5689598 -0.31746823 0.079526645)
(5.5725298 -0.314093 0.083640756)
(5.5758746 -0.31113117 0.084344587)
(5.5793186 -0.30782513 0.087170627)
(5.5819808 -0.30377055 0.08791224)
(5.5863254 -0.29967227 0.090967482)
(5.5891396 -0.2966042 0.09080948)
(5.5907112 -0.29400834 0.092705827)
(5.5922102 -0.28989629 0.09238447)
(5.5962008 -0.2849698 0.093853344)
(5.5985933 -0.28098879 0.092522485)
(5.6010507 -0.27674313 0.093888589)
(5.6025856 -0.27158015 0.093466577)
(5.6031983 -0.26821635 0.09433994)
(5.6165771 -0.26104766 0.098519737)
(5.6369109 -0.24274556 0.098085223)
(5.6459525 -0.22787181 0.10066093)
(5.646158 -0.22360101 0.10042443)
(5.649833 -0.21588227 0.10157602)
(5.6545877 -0.2097135 0.10271779)
(5.6596161 -0.20333294 0.10227835)
(5.6646065 -0.19790796 0.10259198)
(5.6696329 -0.19026618 0.10297105)
(5.6753008 -0.18568681 0.103456)
(5.6821432 -0.17961159 0.10232982)
(5.6874541 -0.17420696 0.10251166)
(5.6774902 -0.20651828 0.10020536)
(5.6728806 -0.20936242 0.10092673)
(5.6647763 -0.21661551 0.099303227)
(5.6568453 -0.22244222 0.097984093)
(5.6519503 -0.22740123 0.098071658)
(5.6467073 -0.23338012 0.097903459)
(5.641773 -0.238641 0.098716776)
(5.6363138 -0.24443296 0.097753649)
(5.6327067 -0.25002864 0.097176688)
(5.6301675 -0.25562338 0.097521042)
(5.6326112 -0.25891533 0.096852686)
(5.6100292 -0.27624968 0.096707106)
(5.5898691 -0.29645477 0.095179635)
(5.5895098 -0.29753031 0.093746839)
(5.5862994 -0.30314354 0.090866956)
(5.584077 -0.30769312 0.090166475)
(5.5824468 -0.31123945 0.089970891)
(5.5800311 -0.31531509 0.089586449)
(5.5773322 -0.31789795 0.088909806)
(5.5751144 -0.32171071 0.090169149)
(5.5722726 -0.32744187 0.089064741)
(5.5693296 -0.32981907 0.08707633)
(5.5665224 -0.33184507 0.084823838)
(5.5631835 -0.33563856 0.084101521)
(5.5600721 -0.33869985 0.082188089)
(5.5566222 -0.3410285 0.080240567)
(5.5538905 -0.34403207 0.077024117)
(5.5522985 -0.34763355 0.074568003)
(5.5516448 -0.35009519 0.070436761)
(5.5508947 -0.35264438 0.067813161)
(5.5534979 -0.35519271 0.062983904)
(5.5389407 -0.3678513 0.062754637)
(5.523411 -0.38088757 0.063470283)
(5.5243308 -0.38060565 0.060890377)
(5.5226942 -0.3835622 0.056751285)
(5.5204331 -0.38591762 0.054134384)
(5.5190796 -0.38886118 0.051575945)
(5.5193481 -0.39119172 0.049975007)
(5.5195831 -0.39234564 0.04854841)
(5.5197341 -0.39392774 0.04770134)
(5.5193541 -0.39647681 0.045499894)
(5.5194254 -0.39772693 0.044659467)
(5.5194319 -0.40099636 0.043908687)
(5.5188264 -0.40491521 0.042008026)
(5.5182357 -0.40662848 0.03870363)
(5.518663 -0.40804697 0.037151108)
(5.5179206 -0.40996318 0.034823377)
(5.5170525 -0.41190831 0.032678863)
(5.5162075 -0.41435986 0.029754565)
(5.5158946 -0.41621666 0.028520299)
(5.5152608 -0.41811501 0.026452457)
(5.5150179 -0.41998676 0.024615816)
(5.5147469 -0.42193959 0.021591416)
(5.5150908 -0.42380662 0.020135384)
(5.5158032 -0.42587806 0.017404995)
(5.516909 -0.42754931 0.015431332)
(5.5169325 -0.43000486 0.012592791)
(5.5174903 -0.43151027 0.010905338)
(5.5179145 -0.43382314 0.0078244701)
(5.5171873 -0.43630187 0.0064015085)
(5.5140377 -0.43844774 0.0042395821)
(5.5027013 -0.44611591 0.00092616934)
(5.4972035 -0.44847181 -0.0016819864)
(5.491143 -0.45709828 0.0014475424)
(5.4766221 -0.46364707 0.0035776245)
(5.4689358 -0.46877998 0.0023372903)
(5.4555163 -0.47742204 0.0027060241)
(5.456758 -0.47220466 0.0037072915)
(5.4657328 -0.46986226 0.0045184531)
(5.4705041 -0.46400071 0.0050197254)
(5.4713547 -0.46191385 0.0064286567)
(5.4709638 -0.46029941 0.0087705217)
(5.4706099 -0.45829655 0.010588659)
(5.4702082 -0.45624601 0.013008733)
(5.4692995 -0.4548835 0.015596159)
(5.4685731 -0.45333376 0.017383239)
(5.4680248 -0.45154864 0.01860196)
(5.4680549 -0.44953584 0.021222229)
(5.468441 -0.4479465 0.023740228)
(5.4687297 -0.44690808 0.025244862)
(5.469235 -0.44498843 0.026483289)
(5.4700973 -0.44241535 0.028977024)
(5.4708924 -0.44037608 0.031579538)
(5.4711122 -0.43889648 0.033143624)
(5.4704241 -0.43707839 0.034591348)
(5.4691177 -0.43465249 0.035158687)
(5.4779766 -0.43390065 0.038532643)
(5.4832101 -0.42577987 0.040805309)
(5.4826022 -0.42407919 0.041909072)
(5.4831124 -0.42032619 0.043347262)
(5.4835193 -0.41657765 0.044992597)
(5.4839216 -0.41455793 0.046518607)
(5.4843341 -0.41345899 0.047408541)
(5.4846531 -0.41147281 0.048393836)
(5.4854078 -0.40874317 0.050881063)
(5.4871147 -0.40659998 0.053751985)
(5.4891026 -0.40524668 0.05650401)
(5.4911687 -0.40301843 0.058398675)
(5.4922752 -0.39996691 0.060746625)
(5.4926928 -0.39734127 0.061827633)
(5.5024781 -0.39423639 0.065079437)
(5.5090835 -0.38713429 0.067947459)
(5.5099202 -0.38426869 0.069524275)
(5.5117446 -0.38083991 0.072272876)
(5.5144602 -0.37866991 0.074540824)
(5.5173602 -0.37665691 0.07579938)
(5.5201791 -0.3730492 0.07653573)
(5.5218332 -0.37063804 0.077909188)
(5.5241949 -0.36927049 0.079887559)
(5.5280426 -0.36574075 0.08063095)
(5.5306205 -0.36225923 0.078842911)
(5.5405037 -0.35626717 0.080907072)
(5.5454017 -0.34477595 0.084743631)
(5.5473525 -0.34230737 0.083955476)
(5.5498416 -0.33945991 0.083958634)
(5.5521512 -0.33549352 0.083840694)
(5.5545626 -0.33112032 0.084721091)
(5.5577411 -0.32745473 0.08510301)
(5.5602059 -0.32456204 0.083388274)
(5.5618189 -0.32027131 0.080611095)
(5.5740172 -0.3131193 0.082728751)
(5.5819213 -0.30133059 0.085714408)
(5.5852428 -0.29801199 0.085437691)
(5.589654 -0.29374955 0.084714864)
(5.5939688 -0.28824036 0.083877474)
(5.5990118 -0.28159991 0.082913895)
(5.6125288 -0.27366935 0.08562468)
(5.6222649 -0.25839625 0.089645967)
(5.6294952 -0.25348341 0.08747227)
(5.6375452 -0.24745476 0.084975592)
(5.6422621 -0.24106126 0.078702202)
(5.6607806 -0.23189016 0.080796218)
(5.6738125 -0.21372517 0.084573657)
(5.6808032 -0.2024466 0.094207563)
(5.6638636 -0.22368425 0.086051561)
(5.6581418 -0.22760284 0.091713665)
(5.6502824 -0.23209276 0.094587383)
(5.6390193 -0.23959717 0.094623961)
(5.6307362 -0.2459307 0.093109441)
(5.6272008 -0.25020312 0.093477675)
(5.6224913 -0.25563831 0.093642775)
(5.6174248 -0.26053337 0.09457643)
(5.6127785 -0.26585712 0.093776603)
(5.6101601 -0.27114033 0.093473444)
(5.6087313 -0.27572507 0.095456668)
(5.5914105 -0.29421946 0.092111892)
(5.5776821 -0.30968324 0.087488692)
(5.5748484 -0.3122122 0.089784635)
(5.5717096 -0.3149163 0.089193463)
(5.5684281 -0.31963458 0.087574544)
(5.5657899 -0.32469371 0.087619026)
(5.5628623 -0.32890674 0.08769451)
(5.5575661 -0.33445922 0.087177007)
(5.5555506 -0.33884652 0.08534118)
(5.5556114 -0.34067308 0.08591282)
(5.5535518 -0.34158077 0.085444866)
(5.5510017 -0.34422674 0.084587958)
(5.5483166 -0.34792764 0.082223892)
(5.5454485 -0.3508531 0.081132839)
(5.5424389 -0.35321061 0.079878042)
(5.5392877 -0.35592856 0.077762481)
(5.5367787 -0.3593806 0.074692607)
(5.5353247 -0.36303685 0.072468668)
(5.535377 -0.36541353 0.069118532)
(5.5359839 -0.36750552 0.066718914)
(5.5227243 -0.37935905 0.06541867)
(5.5084775 -0.38938714 0.062908914)
(5.5079432 -0.3914027 0.060748362)
(5.5063387 -0.39268335 0.058997989)
(5.5035152 -0.39479651 0.055512751)
(5.5012986 -0.39725504 0.052552449)
(5.5003006 -0.39983792 0.050037623)
(5.4999986 -0.40243265 0.049226581)
(5.499644 -0.40453819 0.047972715)
(5.4998639 -0.40633756 0.04628591)
(5.5009088 -0.40839812 0.044340679)
(5.5018216 -0.41100833 0.043561712)
(5.4998218 -0.41412099 0.042164297)
(5.4969728 -0.41712681 0.039649066)
(5.497654 -0.41887074 0.03765688)
(5.4977883 -0.42089311 0.03604055)
(5.4970449 -0.42261375 0.033741206)
(5.4959604 -0.42446022 0.031285449)
(5.4952144 -0.42663098 0.0286161)
(5.4949957 -0.42864648 0.027422831)
(5.4948701 -0.43005518 0.025444576)
(5.4943364 -0.43164044 0.023393298)
(5.494141 -0.43377822 0.020532773)
(5.4944077 -0.43565258 0.019088373)
(5.4949867 -0.43738601 0.016663136)
(5.4959607 -0.43901714 0.014307845)
(5.4962122 -0.44101238 0.011597885)
(5.4966326 -0.4426927 0.01012772)
(5.4969274 -0.44510914 0.0077598367)
(5.4959789 -0.44823809 0.0064348026)
(5.4943455 -0.45211829 0.004723003)
(5.4786785 -0.45982305 0.0047708052)
(5.4705254 -0.46554118 0.0034685291)
(5.4754188 -0.45717996 0.0051088861)
(5.4738991 -0.46024431 0.0038174148)
(5.4721976 -0.46392712 0.0020542119)
(5.487441 -0.45776878 0.0023815602)
(5.5014317 -0.45239084 0.0021327396)
(5.5092785 -0.44771543 0.00057690084)
(5.5134444 -0.44569383 0.0016037008)
(5.5275924 -0.42776564 0.0012305335)
(5.5231911 -0.43451933 0.0016141629)
(5.5247962 -0.40909852 0.0026495793)
(5.5475622 -0.39878373 0.0036672864)
(5.3229411 -0.0087230608 0.0020722228)
(5.306121 -0.010257067 0.0020701512)
(5.2861453 -0.011432138 0.0020431556)
(5.2637834 -0.01223939 0.0019964017)
(5.2398344 -0.012676034 0.0019358143)
(5.2151858 -0.012749138 0.0018639923)
(5.1904999 -0.012473063 0.0017845848)
(5.1667296 -0.011879983 0.0017018321)
(5.1444377 -0.011022719 0.0016165603)
(5.1241992 -0.0099735398 0.0015322778)
(5.1063736 -0.0088194138 0.0014503104)
(5.0910991 -0.007647658 0.0013714444)
(5.0783245 -0.0065235307 0.0012958351)
(5.0678783 -0.0054895914 0.0012237056)
(5.0595169 -0.0045707437 0.0011553476)
(5.0595802 -0.013892112 0.0011014432)
(5.0677781 -0.016717315 0.0011673552)
(5.0781107 -0.019904413 0.0012401602)
(5.0908516 -0.023377901 0.0013204426)
(5.1062104 -0.027008605 0.0014087433)
(5.1242813 -0.030595462 0.0015051966)
(5.1449353 -0.033861525 0.0016078804)
(5.1677891 -0.036530643 0.0017159158)
(5.1922347 -0.038377781 0.0018247238)
(5.217672 -0.03924003 0.0019302748)
(5.2431015 -0.039024889 0.0020276202)
(5.267838 -0.037692876 0.0021131382)
(5.2909708 -0.035226901 0.0021838889)
(5.3116832 -0.031639937 0.0022336511)
(5.3291836 -0.026964073 0.0022568079)
(5.3407105 -0.047439174 0.0026262917)
(5.3218612 -0.055503145 0.0025473938)
(5.2997202 -0.061670722 0.0024417178)
(5.2751127 -0.065889136 0.0023144613)
(5.2488872 -0.068138893 0.0021721742)
(5.2219876 -0.068444091 0.0020178585)
(5.1951589 -0.066857322 0.0018539697)
(5.1694753 -0.063535322 0.0016835298)
(5.1456268 -0.058756696 0.0015234045)
(5.1242843 -0.052909982 0.0013836019)
(5.1058778 -0.046511085 0.0012653028)
(5.0905026 -0.040085708 0.001168836)
(5.0779608 -0.03398755 0.0010896383)
(5.0679586 -0.028431182 0.0010243256)
(5.060161 -0.02354049 0.00097026553)
(5.0606569 -0.033154015 0.00085521153)
(5.0676769 -0.040266217 0.00089109537)
(5.0769897 -0.048441049 0.00094219186)
(5.0890354 -0.057521576 0.0010142316)
(5.1042655 -0.067226473 0.0011154769)
(5.1231031 -0.077034409 0.0012575212)
(5.1455298 -0.086049565 0.0014360162)
(5.1709971 -0.093406311 0.0016443236)
(5.1987055 -0.098538807 0.0018819191)
(5.2278174 -0.10105823 0.0021261291)
(5.257159 -0.10076108 0.002354521)
(5.2858497 -0.097600573 0.0025738294)
(5.3129195 -0.091560824 0.0027831906)
(5.3374725 -0.082677528 0.0029728248)
(5.3586324 -0.071023799 0.0031337945)
(5.3830749 -0.099457009 0.003622051)
(5.3585363 -0.11485034 0.0033827361)
(5.3304818 -0.12650125 0.0031199426)
(5.2998342 -0.134335 0.002842339)
(5.2675407 -0.1382947 0.0025571335)
(5.2346191 -0.13835345 0.002268564)
(5.2021031 -0.1345386 0.0019667075)
(5.1713271 -0.12705127 0.0016830632)
(5.1433901 -0.11637831 0.0014408772)
(5.1193551 -0.10325169 0.0012340309)
(5.1000324 -0.089102477 0.0010815749)
(5.0852653 -0.075429932 0.0009860329)
(5.0741822 -0.062909322 0.00092323942)
(5.066068 -0.051835968 0.00088165876)
(5.0603295 -0.042369592 0.00085502364)
(5.058423 -0.049986462 0.001081124)
(5.0621824 -0.061853182 0.0011205407)
(5.0683234 -0.076066344 0.0011662304)
(5.0776423 -0.092514173 0.0012222761)
(5.0912549 -0.11103328 0.0012998565)
(5.110892 -0.13090528 0.0014346355)
(5.1371179 -0.14952795 0.0016348089)
(5.1685335 -0.16443517 0.0018737818)
(5.203585 -0.17484419 0.0021699137)
(5.2407497 -0.18021786 0.0024884551)
(5.2784857 -0.18044434 0.002812865)
(5.3156046 -0.17561794 0.0031396997)
(5.3510279 -0.16590492 0.0034690889)
(5.3837819 -0.1514148 0.0037912116)
(5.4129055 -0.13221694 0.0041038513)
(5.4458838 -0.17403411 0.0045713214)
(5.4112369 -0.19654062 0.0041839229)
(5.3728471 -0.21329114 0.0038154428)
(5.3316738 -0.22439377 0.0034530108)
(5.2886155 -0.22967314 0.0030987108)
(5.2447823 -0.22872788 0.0027409968)
(5.201509 -0.22131148 0.0024181524)
(5.160623 -0.20723169 0.0021552024)
(5.1243328 -0.18681691 0.001974195)
(5.0950995 -0.16042882 0.0018361264)
(5.0757542 -0.13280658 0.0017561442)
(5.0646169 -0.10835299 0.0016840826)
(5.0583154 -0.08755729 0.0015964024)
(5.055215 -0.070180693 0.0015051614)
(5.0543223 -0.05611983 0.0014146417)
(5.0474852 -0.057308901 0.0020097913)
(5.0445323 -0.073037601 0.0021791931)
(5.0431696 -0.093457147 0.0023308175)
(5.0445226 -0.11899778 0.0024530143)
(5.050846 -0.15022274 0.0025087295)
(5.0684922 -0.18883232 0.002421591)
(5.1018277 -0.22679732 0.0024265384)
(5.1451018 -0.25418889 0.0024191661)
(5.1935866 -0.27252491 0.0024986612)
(5.2443162 -0.28236303 0.0026590906)
(5.2954416 -0.2836737 0.0030288389)
(5.3453539 -0.2770655 0.0033795624)
(5.3931914 -0.26395566 0.0037150307)
(5.4383128 -0.24451365 0.00406285)
(5.4798581 -0.218463 0.0044802682)
(5.5167911 -0.27661119 0.0011894353)
(5.4675624 -0.30281132 0.0011407083)
(5.4145263 -0.32284098 0.0013793139)
(5.3591042 -0.33722508 0.0016020209)
(5.3012202 -0.34424506 0.0017547579)
(5.2394566 -0.34454391 0.0015745845)
(5.1783923 -0.3333847 0.0017085344)
(5.1199703 -0.31122331 0.0020717807)
(5.0650545 -0.27404519 0.0024958787)
(5.0251323 -0.21837005 0.0029548019)
(5.0124743 -0.16543763 0.0031797721)
(5.0146204 -0.1265478 0.0029221934)
(5.0206145 -0.097204769 0.0025624828)
(5.0283046 -0.074933261 0.0022570593)
(5.0364221 -0.058460454 0.0020021058)
(5.0182504 -0.04509527 0.0026045906)
(5.0041443 -0.059619387 0.0030965899)
(4.9881688 -0.081315456 0.0039028567)
(4.9697782 -0.1151529 0.0056909306)
(4.9521395 -0.16154493 0.0083887416)
(4.9502088 -0.23177409 0.010116932)
(5.0044024 -0.32391727 0.0056579513)
(5.0791428 -0.371455 0.0010939371)
(5.1550889 -0.39924185 -0.0014067879)
(5.2026672 -0.44153431 0.00099488153)
(5.2388713 -0.44113888 0.0025262517)
(5.2723842 -0.44038467 0.0028388322)
(5.3069178 -0.43729084 0.003168255)
(5.3402752 -0.43038607 0.0034839376)
(5.3724915 -0.42297844 0.0035793388)
(5.40374 -0.41342416 0.0036543113)
(5.4343948 -0.40475066 0.0035437979)
(5.4644184 -0.39381503 0.0035014488)
(5.494312 -0.38362041 0.0033135941)
(5.5239504 -0.36929315 0.0033654744)
(5.55122 -0.35496352 0.0035232168)
(5.024505 -0.0043844542 0.050065801)
(5.0260997 -0.004795579 0.047947996)
(5.027988 -0.0050366851 0.045123124)
(5.0301221 -0.005134024 0.041950651)
(5.0324527 -0.0051328489 0.038705659)
(5.034929 -0.0050746565 0.0355408)
(5.037506 -0.0049922075 0.032525465)
(5.0401408 -0.0049067379 0.029667793)
(5.0427926 -0.0048296288 0.026943476)
(5.0454192 -0.004766036 0.024312662)
(5.0479771 -0.0047167689 0.021731848)
(5.0504167 -0.0046821189 0.01915983)
(5.0526817 -0.0046643337 0.016563837)
(5.0547032 -0.0046653536 0.013922681)
(5.0564139 -0.0046778534 0.011241485)
(5.0577545 -0.0046806758 0.0085704096)
(5.0587072 -0.0046594987 0.0059642623)
(5.0592775 -0.0046075708 0.0035052574)
(5.0676418 -0.0055390419 0.0037121222)
(5.0670854 -0.0056030705 0.0063215146)
(5.0661564 -0.0056310786 0.009083178)
(5.0648554 -0.005627164 0.011912005)
(5.0631961 -0.0056093154 0.01474223)
(5.0612345 -0.0056024235 0.017523033)
(5.0590338 -0.0056150598 0.02024709)
(5.0566604 -0.0056446818 0.02293689)
(5.0541677 -0.0056886424 0.025625668)
(5.0516024 -0.0057467648 0.028356857)
(5.0490052 -0.005818335 0.031176792)
(5.046416 -0.0058983968 0.034129184)
(5.0438734 -0.0059755416 0.037243357)
(5.0414199 -0.0060280062 0.040516402)
(5.0390999 -0.0060225045 0.043884854)
(5.0369664 -0.0059148752 0.04719889)
(5.0350708 -0.005657243 0.050182906)
(5.0334672 -0.0052192887 0.052471597)
(5.044225 -0.006133543 0.054821688)
(5.0459022 -0.0066035494 0.052366545)
(5.0478585 -0.0068813061 0.049231687)
(5.0500345 -0.00700235 0.045788654)
(5.0523778 -0.0070176782 0.04231109)
(5.0548353 -0.0069735797 0.038944673)
(5.0573636 -0.0069044686 0.035745676)
(5.0599224 -0.0068325414 0.032710952)
(5.0624761 -0.0067691998 0.029805421)
(5.0649881 -0.006719186 0.026981191)
(5.0674211 -0.0066829913 0.024188944)
(5.0697318 -0.0066606351 0.021383005)
(5.0718705 -0.0066552009 0.018529945)
(5.0737736 -0.0066700086 0.015606035)
(5.0753819 -0.0066950239 0.012621069)
(5.0766435 -0.0067011072 0.0096260337)
(5.0775487 -0.0066656558 0.006700406)
(5.0780909 -0.0065883268 0.0039301483)
(5.0908684 -0.0077306787 0.0041584149)
(5.09034 -0.0078221754 0.0070998389)
(5.0894582 -0.0078654431 0.010197382)
(5.0882348 -0.0078558435 0.013366338)
(5.0866753 -0.0078214861 0.016510933)
(5.0848273 -0.0077963512 0.019580251)
(5.0827461 -0.0077919978 0.022561792)
(5.0804918 -0.0078042484 0.025480351)
(5.0781099 -0.0078295182 0.028369192)
(5.07564 -0.0078680686 0.031276046)
(5.0731147 -0.007919615 0.034253291)
(5.0705667 -0.0079797781 0.037353078)
(5.0680272 -0.0080370356 0.04061668)
(5.0655328 -0.0080688307 0.044053893)
(5.0631236 -0.0080397676 0.047617176)
(5.0608515 -0.0079010508 0.051166116)
(5.0587678 -0.007598208 0.054431396)
(5.0569362 -0.0070899108 0.057035619)
(5.0716666 -0.0080331878 0.059011475)
(5.0737535 -0.008586067 0.056293001)
(5.0760467 -0.0089192485 0.052933142)
(5.0784804 -0.0090809631 0.04931517)
(5.0810072 -0.0091288727 0.045700855)
(5.0835794 -0.0091143125 0.042224448)
(5.0861623 -0.0090737497 0.038923726)
(5.0887248 -0.0090301581 0.035781846)
(5.0912416 -0.0089948117 0.032751228)
(5.0936855 -0.0089720236 0.029775731)
(5.096029 -0.0089616326 0.026800006)
(5.0982372 -0.0089631843 0.023774631)
(5.1002689 -0.0089805415 0.020666972)
(5.1020678 -0.0090189785 0.017451549)
(5.1035832 -0.0090653173 0.014143702)
(5.1047714 -0.0090802236 0.010794416)
(5.105631 -0.0090293026 0.0075178386)
(5.1061464 -0.0089233968 0.0043958597)
(5.1239761 -0.01010034 0.0046412749)
(5.1234718 -0.010219653 0.0079512215)
(5.122632 -0.010277106 0.011412462)
(5.121474 -0.010254563 0.014946498)
(5.1199951 -0.010193211 0.018419363)
(5.1182353 -0.010137908 0.02177956)
(5.1162408 -0.010103618 0.025008578)
(5.1140641 -0.010083875 0.028132188)
(5.1117413 -0.010074679 0.031181863)
(5.109302 -0.01007662 0.034208192)
(5.1067681 -0.010090282 0.037268859)
(5.1041597 -0.010111691 0.040423495)
(5.101495 -0.010129859 0.043725744)
(5.0987968 -0.010121413 0.047199368)
(5.0960921 -0.010049056 0.050816733)
(5.0934208 -0.0098591599 0.054450749)
(5.0908236 -0.0094910132 0.057849922)
(5.0883638 -0.0088895806 0.060626268)
(5.1067918 -0.0095695744 0.061743717)
(5.1097495 -0.010219377 0.058988774)
(5.1127523 -0.010624678 0.055626383)
(5.1157433 -0.010846847 0.052046743)
(5.1186925 -0.01094902 0.048488386)
(5.1215713 -0.01098653 0.045070558)
(5.124363 -0.010997024 0.041810906)
(5.1270554 -0.011004215 0.038679328)
(5.1296394 -0.011018382 0.035617083)
(5.1321024 -0.011043145 0.032561969)
(5.1344291 -0.011077368 0.029454959)
(5.1365957 -0.011120391 0.026244897)
(5.138571 -0.011176117 0.022902221)
(5.140307 -0.011252241 0.019401371)
(5.1417613 -0.011331918 0.015764435)
(5.1428975 -0.011364984 0.012043873)
(5.1437221 -0.011303283 0.0083948403)
(5.1442186 -0.011172842 0.0048920303)
(5.1665105 -0.012050359 0.0051443049)
(5.1660158 -0.012189022 0.0088406307)
(5.1651979 -0.012251473 0.01267744)
(5.1640701 -0.012204161 0.016582598)
(5.1626224 -0.012102419 0.020378904)
(5.1608876 -0.012001031 0.024012536)
(5.1589048 -0.011918709 0.027457363)
(5.1567179 -0.011846643 0.030738269)
(5.1543529 -0.011781106 0.033882037)
(5.1518277 -0.011722999 0.036939499)
(5.1491512 -0.011674041 0.039969946)
(5.1463278 -0.01163117 0.043036721)
(5.1433562 -0.011584942 0.046202058)
(5.1402368 -0.011511901 0.049501047)
(5.1369734 -0.011374901 0.052925658)
(5.1335807 -0.011117724 0.056364196)
(5.130075 -0.010676358 0.059593578)
(5.1265101 -0.0099842161 0.062230479)
(5.1513184 -0.010780714 0.059569255)
(5.1554093 -0.011254713 0.056580049)
(5.1592719 -0.011549105 0.053381171)
(5.1629075 -0.011726227 0.05017439)
(5.1663186 -0.011841771 0.047064069)
(5.1695149 -0.011931751 0.044050292)
(5.1725101 -0.012018414 0.041094212)
(5.1753163 -0.012109837 0.038132438)
(5.1779375 -0.012208592 0.03510244)
(5.1803717 -0.012312391 0.031946039)
(5.1826066 -0.012419975 0.028613697)
(5.1846211 -0.012534604 0.025082161)
(5.1863752 -0.012666165 0.02132794)
(5.1878325 -0.012794016 0.017381347)
(5.1889636 -0.012859885 0.013298025)
(5.1897817 -0.012801495 0.0092776646)
(5.1902783 -0.012659153 0.0053906683)
(5.2149559 -0.012946581 0.005628211)
(5.2144468 -0.013086528 0.0096987515)
(5.2136112 -0.013135558 0.013893599)
(5.2124495 -0.013046625 0.018143883)
(5.2109451 -0.0128885 0.022226723)
(5.2091254 -0.012721771 0.026084456)
(5.2070259 -0.012568986 0.029682391)
(5.2046829 -0.012419312 0.033042069)
(5.2021142 -0.012270451 0.036182624)
(5.1993271 -0.012123945 0.039151383)
(5.1963182 -0.011982566 0.042004218)
(5.1930763 -0.011844198 0.044800435)
(5.1895792 -0.011703005 0.047602459)
(5.1858005 -0.011538444 0.050450912)
(5.1817166 -0.011316635 0.053351311)
(5.1773059 -0.010983854 0.056205584)
(5.1725537 -0.010481676 0.058838792)
(5.1985577 -0.010268587 0.055181527)
(5.2035605 -0.010642064 0.052777803)
(5.2081405 -0.010914405 0.050272877)
(5.2123379 -0.011135254 0.047758342)
(5.2161892 -0.011335745 0.045226975)
(5.219732 -0.011533964 0.042638836)
(5.2229977 -0.011732807 0.039935037)
(5.2260029 -0.011933964 0.03706231)
(5.2287555 -0.012134486 0.033968411)
(5.2312522 -0.012332501 0.030609133)
(5.2334775 -0.012529015 0.02696993)
(5.2353981 -0.012735661 0.023031638)
(5.236978 -0.012928195 0.01883413)
(5.2381925 -0.013044341 0.014436575)
(5.23906 -0.013010314 0.010084129)
(5.2395907 -0.0128794 0.0058453696)
(5.2635196 -0.012442404 0.0060320127)
(5.2629537 -0.012557109 0.010416367)
(5.2620318 -0.012570086 0.014901515)
(5.260729 -0.012421794 0.019418879)
(5.2590278 -0.012190188 0.02370185)
(5.2569496 -0.011938212 0.02768914)
(5.2545328 -0.011691712 0.031336772)
(5.2518092 -0.011438631 0.034660963)
(5.2487939 -0.011179431 0.037671724)
(5.2454881 -0.010916338 0.04040932)
(5.2418817 -0.010652352 0.042921906)
(5.237955 -0.010385342 0.045253569)
(5.2336697 -0.010116485 0.047458067)
(5.2289807 -0.0098309464 0.049571836)
(5.2238416 -0.0095010002 0.051600329)
(5.2181963 -0.0090828794 0.053457042)
(5.2352918 -0.0074334915 0.05100358)
(5.2416183 -0.0079002162 0.049773362)
(5.2473735 -0.0082940185 0.048288544)
(5.2526248 -0.0086513285 0.046631687)
(5.2574253 -0.0089960607 0.044803214)
(5.2618235 -0.0093393025 0.042772815)
(5.2658609 -0.0096739279 0.040492833)
(5.2695573 -0.010004418 0.037931319)
(5.2729214 -0.010327709 0.035044282)
(5.2759524 -0.010641441 0.031796139)
(5.2786333 -0.010943315 0.02818073)
(5.2809323 -0.011245601 0.02418497)
(5.2828061 -0.011520983 0.019855772)
(5.2842359 -0.011705634 0.015257148)
(5.2852369 -0.011719448 0.010674325)
(5.2858539 -0.011628295 0.0061777565)
(5.3057924 -0.010439502 0.0062652128)
(5.3051053 -0.010499888 0.010830872)
(5.3039959 -0.010454372 0.015465454)
(5.3023942 -0.010229887 0.020094469)
(5.3002895 -0.0099058035 0.02441903)
(5.2976992 -0.0095491179 0.028372065)
(5.2946734 -0.0091879763 0.031905657)
(5.2912467 -0.0088100725 0.035029619)
(5.2874386 -0.0084195971 0.037747298)
(5.2832521 -0.0080188438 0.040089755)
(5.2786832 -0.00761189 0.04209772)
(5.2737139 -0.007188275 0.043788842)
(5.2683052 -0.0067641238 0.045203847)
(5.2624116 -0.0063320238 0.046362481)
(5.2559776 -0.0058716517 0.047255352)
(5.2489319 -0.0053545298 0.047803749)
(5.2660282 -0.0034829976 0.044015553)
(5.2732215 -0.0040072346 0.043737126)
(5.2798604 -0.0045111756 0.043097881)
(5.2859922 -0.0050121422 0.042119891)
(5.2916451 -0.0055134439 0.040800229)
(5.2968515 -0.005987976 0.039105094)
(5.3016326 -0.0064567922 0.03702768)
(5.3059849 -0.0069126386 0.034530867)
(5.3099014 -0.0073529344 0.031585565)
(5.3133576 -0.0077735921 0.028190648)
(5.316316 -0.0081852806 0.024340168)
(5.3187172 -0.0085614099 0.020081192)
(5.3205406 -0.0088266058 0.015485108)
(5.3217933 -0.0089090313 0.010857559)
(5.3225685 -0.0088847798 0.0062779978)
(5.328961 -0.027450089 0.0064776233)
(5.3114865 -0.032195147 0.0064408523)
(5.2907907 -0.03582869 0.0063295719)
(5.2676648 -0.038320142 0.006161852)
(5.2429278 -0.039657249 0.0059550957)
(5.2174922 -0.039858246 0.0057196346)
(5.192045 -0.038965613 0.0054650009)
(5.1675853 -0.037078509 0.005202589)
(5.144715 -0.034352962 0.0049364875)
(5.1240467 -0.031016388 0.0046736387)
(5.1059684 -0.027355861 0.0044172496)
(5.090606 -0.023655992 0.0041705635)
(5.077865 -0.02012304 0.0039347096)
(5.0675337 -0.016886659 0.0037108897)
(5.0593376 -0.014021522 0.0035001518)
(5.32833 -0.027465424 0.011333899)
(5.3109308 -0.03233266 0.011256927)
(5.2902885 -0.036071669 0.01104962)
(5.2671946 -0.038643945 0.010742186)
(5.242473 -0.040037205 0.010363034)
(5.2170394 -0.040271284 0.0099340186)
(5.1915853 -0.039390398 0.0094722645)
(5.16711 -0.037494659 0.0089980873)
(5.1442236 -0.034746264 0.0085186026)
(5.1235359 -0.031378229 0.0080446458)
(5.1054375 -0.027679507 0.0075855171)
(5.0900569 -0.023937618 0.0071470786)
(5.0773002 -0.020362236 0.0067318802)
(5.0669548 -0.017085101 0.0063413565)
(5.0587464 -0.014182263 0.0059761971)
(4.9392174 -0.011104934 -0.01008679)
(4.9140172 -0.016115992 -0.0089778493)
(4.8701679 -0.02786103 -0.0070695559)
(4.8300019 -0.047355942 -0.0052173652)
(4.8013231 -0.063004414 -0.0044817993)
(4.5315178 -0.1131037 0.020925749)
(4.3136242 -0.25075007 -0.0040081117)
(4.4587205 -0.53524825 -0.0014994815)
(4.7054341 -0.55508389 0.00033093124)
(4.7641181 -0.58711831 -0.004166323)
(4.8217179 -0.59963103 0.0036028472)
(4.8663701 -0.60199058 0.0048736839)
(4.9073634 -0.60195152 0.0063588595)
(4.9437102 -0.60052406 0.0077052313)
(4.9765182 -0.59806921 0.009379362)
(5.0052864 -0.59493476 0.010867447)
(5.0309947 -0.59211269 0.012146562)
(5.0570449 -0.58790931 0.013445212)
(5.0786242 -0.57741733 0.015338988)
(5.077893 -0.57672736 0.015327719)
(5.076952 -0.57626467 0.016572164)
(5.0759996 -0.57577915 0.016631096)
(5.0749666 -0.57527039 0.017919703)
(5.073794 -0.57495001 0.01825799)
(5.0727497 -0.57436674 0.019838388)
(5.0718338 -0.57386945 0.019981995)
(5.0709741 -0.57349956 0.021172249)
(5.0703613 -0.57297466 0.021343236)
(5.069981 -0.57223113 0.022571814)