/*--------------------------------*- C++ -*----------------------------------*\
| =========                 |                                                 |
| \\      /  F ield         | OpenFOAM: The Open Source CFD Toolbox           |
|  \\    /   O peration     | Version:  v2012                                 |
|   \\  /    A nd           | Website:  www.openfoam.com                      |
|    \\/     M anipulation  |                                                 |
\*---------------------------------------------------------------------------*/
FoamFile
{
    version     2.0;
    format      ascii;
    class       volScalarField;
    location    "0";
    object      p;
}
// * * * * * * * * * * * * * * * * * * * * * * * * * * * * * * * * * * * * * //

dimensions      [0 2 -2 0 0 0 0];


internalField   nonuniform List<scalar> 
133109
(
0.31806379
0.34719858
0.34159632
0.37795285
0.34501305
0.30296885
0.21096884
0.15322406
0.074040263
0.047690299
0.033684017
0.038060242
0.037906533
0.037514538
0.055012233
0.084742263
0.16659975
0.23171696
0.33166355
0.36811377
0.39629692
0.35930011
0.33306274
0.28624294
0.27508195
0.22471588
0.20163568
0.18717026
0.19250805
0.20166128
0.21280936
0.22478072
0.23819149
0.25274788
0.2682583
0.28459253
0.30163695
0.31931118
0.33753121
0.35620838
0.37527781
0.39465845
0.41423912
0.43386692
0.45341533
0.47280805
0.49189918
0.51052859
0.52859729
0.5460071
0.56266463
0.57837945
0.5926469
0.60545081
0.61762711
0.63306273
0.64455389
0.65744862
0.67578451
0.72759735
0.77811602
0.84834198
0.8863837
0.93379357
0.91530774
0.89665692
0.78998281
0.71019451
0.61357845
0.56152714
0.5231114
0.49907051
0.48120908
0.47108099
0.46159718
0.46138619
0.50398224
0.55531986
0.6422876
0.69282126
0.73706688
0.6859581
0.65428455
0.57461834
0.52554875
0.47820719
0.48063072
0.47775185
0.47514369
0.47361786
0.47563552
0.47422859
0.46874596
0.46016925
0.44930929
0.43662645
0.42244672
0.40711426
0.39091691
0.37407933
0.35688251
0.33957764
0.32237761
0.30545063
0.28893516
0.27294441
0.25759316
0.24299028
0.22920328
0.21628312
0.20430103
0.19331146
0.18343445
0.17499093
0.16773207
0.1624077
0.16062787
0.17845832
0.20554626
0.25978688
0.26967428
0.3168956
0.33095909
0.27828701
0.2661237
0.2111935
0.18623893
0.16979358
0.17207086
0.17857181
0.18739769
0.19695481
0.20738352
0.21860499
0.23066654
0.24359328
0.25736717
0.27196628
0.28733399
0.30335946
0.3199453
0.33699959
0.35438773
0.37192897
0.38941016
0.4065893
0.42319953
0.43898658
0.45365293
0.46685328
0.47821417
0.48721238
0.49314709
0.49539348
0.4945475
0.49621623
0.50045961
0.50902464
0.51552437
0.56772417
0.6063957
0.6838488
0.7084317
0.74973577
0.69488269
0.6168635
0.57154801
0.52294668
0.47332458
0.4240457
0.41096575
0.49387401
0.71834377
1.0530892
1.3110304
1.298652
1.2665309
2.6779813
4.0129582
5.0525842
7.1031821
6.798041
5.5227476
4.3070492
3.5900718
3.0789757
2.4925973
1.8929435
1.4210724
0.72334222
0.40119583
0.17119492
0.11272686
-0.12665665
-0.32785687
-0.48655948
-0.65511347
-1.5080656
-2.0409041
-1.6783228
-1.8452569
-1.0325404
0.11571905
0.59466491
0.02521505
-2.3668178
-2.2436066
0.69045574
-0.42143156
-0.59860667
-1.5846362
-1.8512035
-2.0809606
-2.1571341
-2.1341678
-2.1813086
-2.2347229
-2.2329638
-2.2338218
-2.2644819
-2.2850826
-2.2763232
-2.2512124
-2.2035859
-2.1200414
-2.0288345
-1.9714375
-2.4401592
-3.4207248
-4.4621758
-3.47322
-3.1094403
-2.5887263
-2.8618629
-2.849464
-2.4818635
-2.5307538
-2.5045516
-3.0733941
-3.1564379
-2.5757136
-1.7440464
-1.5474495
-2.8659933
-2.8497753
-2.2228158
-2.2353935
-2.2591975
-2.2805837
-2.3572819
-2.388861
-2.3547028
-2.3346331
-2.3555857
-2.3449057
-2.3056954
-2.2789472
-2.2569634
-2.2257857
-2.1718431
-2.1078623
-2.0614215
-1.9983102
-1.8912475
-1.7854916
-1.7883248
-1.804239
-1.9807672
-1.8579867
-2.2587603
-2.0607733
-2.3911652
-2.7050451
-3.0710438
-4.1871641
-3.5221636
-1.9539782
-1.2057163
-1.6199447
-2.0698792
-1.9011015
-1.0938213
-1.2509626
-1.3622907
-1.4494443
-1.502599
-1.521408
-1.513259
-1.5039308
-1.4948644
-1.5167842
-1.4651383
-1.2293041
-1.7758269
-2.5328091
-2.8679562
-1.7761076
-2.3232791
-4.1839249
-2.499861
-0.92144507
-0.64905057
-1.0991447
-1.4476547
-1.30921
-0.50746856
-0.56088087
-0.64185081
-0.70747455
-0.71920431
-0.69034871
-0.6863769
-0.72285841
-0.63566807
-0.45897744
-0.91912785
-1.5462278
-1.7723157
-0.8496877
-1.3342992
-2.9271842
-1.7620527
-0.39166409
-0.046230907
-0.37535587
-0.5140998
-0.28885267
0.41538343
0.48394507
0.5694428
0.73383276
0.86663965
1.0149258
1.0785189
0.49950655
0.033876779
0.40846604
0.62310414
0.97763056
1.3334559
0.83303699
0.55736195
0.2817668
0.064741293
-0.036361656
-0.063314566
-0.054045377
-0.031557331
-0.01286691
-0.0063598756
-0.0059333429
-0.0099699841
-0.015461058
-0.01977092
-0.022651988
-0.024370883
-0.025248113
-0.025458991
-0.025156787
-0.024471384
-0.023507567
-0.022345763
-0.021045246
-0.019648497
-0.018185738
-0.016677397
-0.015135752
-0.013568005
-0.011978438
-0.010368134
-0.008734422
-0.0070724115
-0.0053765712
-0.0036388772
-0.0018472736
1.7266774e-05
0.0019855234
0.0041009225
0.0063937767
0.009025305
0.012206639
0.016186875
0.02149231
0.028961171
0.039765579
0.055003431
0.074945332
0.098870645
0.12518809
0.15047051
0.17035566
0.17803231
0.16628966
0.14041929
0.12573381
0.060922315
0.0475802
0.056499014
0.037601489
0.045840751
0.031939023
0.036040821
0.036844994
0.041636426
0.044446956
0.04619993
0.04699229
0.047477085
0.047838522
0.04812743
0.048367622
0.048568741
0.048726161
0.048846648
0.048941173
0.049012065
0.04905507
0.049077761
0.049090078
0.049082509
0.049040193
0.048952274
0.048845188
0.0487033
0.048511201
0.048264036
0.047948318
0.047509109
0.046743413
0.045019642
0.042225172
0.037445001
0.036675274
0.03259708
0.04655792
0.038321482
0.057264445
0.048347716
0.061709361
0.046415264
0.05437795
0.026920246
0.028108512
0.0079679302
0.014394042
0.015523142
0.019035429
0.019029969
0.015537596
0.01441447
0.0079961312
0.028141212
0.026958831
0.054421415
0.046463532
0.06176294
0.048393873
0.057317163
0.038362298
0.046594388
0.032632414
0.036713199
0.0374866
0.042270276
0.045067487
0.046794345
0.047561776
0.048002031
0.048317269
0.048563745
0.048759058
0.048909662
0.049017744
0.04908841
0.049125858
0.0491446
0.049142069
0.049117659
0.04906874
0.049002054
0.048910432
0.048788615
0.04863091
0.048433541
0.048196904
0.047906586
0.047543458
0.047057417
0.046265581
0.044511429
0.041699853
0.03690589
0.036099039
0.031994357
0.045897366
0.037663054
0.056574869
0.047649491
0.061002359
0.045737212
0.053681565
0.026268723
0.027455047
0.0073123441
0.013732912
0.014837832
0.018321353
0.018328406
0.014827579
0.013710353
0.0072732938
0.02740859
0.026208237
0.053612006
0.045664467
0.048102181
0.053673948
0.037398811
0.030461478
0.018051419
0.017471487
0.020891502
0.026722772
0.026709282
0.020901167
0.01749661
0.01808851
0.030508522
0.03745564
0.053738848
0.048171103
0.062707611
0.063275174
0.051866449
0.037028044
0.024033147
0.019902121
0.023201608
0.028104136
0.028119049
0.023191902
0.019876999
0.023996538
0.036982452
0.051811772
0.063213564
0.062637824
0.058640881
0.05739478
0.043226313
0.022952201
0.0068564015
0.00063060043
0.0014953055
0.0045105771
0.0045080344
0.0015074156
0.00065639009
0.0068931258
0.022996278
0.043278248
0.057452797
0.058703153
0.056949239
0.047765495
0.027805631
0.0023941312
-0.016314269
-0.023668898
-0.022715351
-0.019945753
-0.019947451
-0.022729132
-0.023695037
-0.016350948
0.0023501096
0.027756946
0.047710353
0.056891214
0.047297339
0.037325706
0.014011116
-0.01440967
-0.034176157
-0.041399871
-0.039865843
-0.036876589
-0.036871185
-0.03985066
-0.041373809
-0.034138438
-0.014372247
0.014060888
0.037379198
0.047353908
0.046742794
0.033472909
0.008292139
-0.020830007
-0.040954872
-0.046939354
-0.044668518
-0.041477871
-0.041484608
-0.04468284
-0.046964287
-0.040992217
-0.020875148
0.0082409081
0.033417793
0.046685294
0.047681575
0.034313312
0.0090349338
-0.019600044
-0.038887232
-0.043939878
-0.040880111
-0.037466107
-0.037461403
-0.040867309
-0.0439152
-0.038850777
-0.019558098
0.0090854719
0.034369156
0.047740876
0.052082978
0.038710559
0.013362549
-0.015221679
-0.03440429
-0.039486223
-0.036171011
-0.032864616
-0.032867933
-0.036183237
-0.039510864
-0.034440773
-0.015263267
0.013311597
0.038653506
0.052021665
0.054760533
0.0417771
0.016696287
-0.011792332
-0.030714564
-0.035824748
-0.032390625
-0.029128229
-0.029125844
-0.032379075
-0.035800355
-0.030677755
-0.011749801
0.016747051
0.041834649
0.054823025
0.056568275
0.043760524
0.018931911
-0.009445398
-0.028241985
-0.033490288
-0.030031829
-0.026763226
-0.026764876
-0.030043149
-0.033514597
-0.028279868
-0.00949159
0.01887977
0.043701871
0.056503863
0.057185454
0.044689825
0.020124856
-0.0081020636
-0.026883412
-0.032519143
-0.028779361
-0.025440295
-0.025439125
-0.02876816
-0.032494745
-0.026845618
-0.008063623
0.020176801
0.044748728
0.057246331
0.057720654
0.045340007
0.020936339
-0.0075007035
-0.025977047
-0.031803395
-0.027960962
-0.024594127
-0.024594937
-0.027971647
-0.031827347
-0.026014041
-0.0075387116
0.02088367
0.045282242
0.057657127
0.058082571
0.045752849
0.021436639
-0.00685847
-0.025355119
-0.031203196
-0.027314334
-0.023923928
-0.023923502
-0.027304051
-0.031179807
-0.025318251
-0.0068089199
0.021487991
0.045810503
0.058147587
0.058488633
0.0461905
0.021907518
-0.0062585118
-0.024823791
-0.030682877
-0.026800268
-0.023424406
-0.023424724
-0.026810374
-0.030706104
-0.024859803
-0.0063073114
0.021857269
0.046133285
0.058423916
0.058690099
0.046419629
0.022159416
-0.0059242926
-0.024507903
-0.030341706
-0.026446838
-0.023068584
-0.023067849
-0.026436798
-0.030318991
-0.024472869
-0.0058769937
0.022208727
0.046475355
0.058752309
0.058955402
0.046681782
0.02242238
-0.0056131217
-0.024226726
-0.030061879
-0.026177922
-0.022812683
-0.022816133
-0.026188527
-0.030084142
-0.024261159
-0.0056593376
0.022375077
0.04662926
0.058895723
0.059055884
0.046786309
0.022530929
-0.0054720301
-0.024086578
-0.029902294
-0.026004417
-0.022634303
-0.022630491
-0.025993349
-0.02987987
-0.024052139
-0.0054261336
0.022577978
0.046838342
0.059115063
0.059237469
0.04695675
0.022692877
-0.0052913969
-0.02392698
-0.029750322
-0.025861715
-0.022500635
-0.022502282
-0.025872675
-0.029772891
-0.023961579
-0.0053372903
0.022644918
0.046900059
0.059175748
0.059271095
0.046992479
0.022731105
-0.0052394425
-0.023871683
-0.029680815
-0.025779125
-0.022408694
-0.022407287
-0.025768228
-0.029658516
-0.023837604
-0.0051940453
0.022777639
0.047045101
0.059329446
0.05939643
0.047108233
0.022838019
-0.0051258031
-0.023775076
-0.029595101
-0.025703667
-0.022342124
-0.022344216
-0.025714609
-0.029616952
-0.023808704
-0.0051703222
0.022793914
0.047063959
0.059345267
0.059385271
0.047100942
0.022832768
-0.0051259791
-0.02376856
-0.029576786
-0.025674415
-0.022304768
-0.022299158
-0.025662611
-0.029555049
-0.023734935
-0.0050812161
0.022879872
0.047156724
0.059447567
0.059471521
0.047178331
0.022900506
-0.0050592385
-0.023715365
-0.029536201
-0.025642788
-0.022277452
-0.022287029
-0.025656049
-0.029558034
-0.0237489
-0.0051033219
0.022852766
0.047116616
0.059403262
0.05942048
0.04713319
0.022861144
-0.0050997526
-0.023747925
-0.029559562
-0.025657963
-0.02228818
-0.022278273
-0.025644841
-0.029538769
-0.023716671
-0.0050596013
0.022901551
0.047178949
0.059472536
0.059450334
0.047156566
0.022884525
-0.0050800206
-0.023738109
-0.029564224
-0.02567041
-0.022301731
-0.022311322
-0.025682611
-0.029583985
-0.02376823
-0.0051186486
0.022850821
0.047130822
0.059418485
0.059365617
0.047075853
0.022802474
-0.0051745353
-0.023820998
-0.029640042
-0.02573998
-0.022367825
-0.02235992
-0.025729367
-0.029619306
-0.023786228
-0.0051275413
0.022849815
0.047125709
0.059417344
0.059349211
0.047057331
0.022776416
-0.0052217382
-0.023876806
-0.029712951
-0.025823322
-0.022454339
-0.022460886
-0.025836627
-0.029735049
-0.023910739
-0.0052693776
0.022722856
0.046989824
0.059278272
0.059182
0.046893401
0.022615353
-0.0054096765
-0.024045549
-0.029879991
-0.025982835
-0.022602023
-0.022600518
-0.025972795
-0.029859888
-0.024014513
-0.0053687702
0.02265842
0.046941616
0.059236974
0.059082509
0.046778635
0.022482748
-0.0055919292
-0.024223909
-0.030081821
-0.026196686
-0.022817946
-0.022818231
-0.02620548
-0.030100875
-0.024252963
-0.0056290923
0.022443909
0.046732683
0.05903004
0.058808022
0.046483749
0.022181144
-0.0059657431
-0.024565384
-0.030429025
-0.026534578
-0.023138759
-0.023138688
-0.026525995
-0.0304101
-0.024536682
-0.0059283698
0.022218031
0.04652566
0.058856766
0.058560091
0.046187996
0.021848083
-0.0064300976
-0.024990411
-0.030872267
-0.026992779
-0.023600002
-0.023600385
-0.027001655
-0.030891179
-0.025019284
-0.0064683681
0.021809316
0.046143629
0.058509875
0.058138567
0.045739559
0.021313011
-0.0071617453
-0.02563125
-0.031468857
-0.027612936
-0.024224276
-0.024223343
-0.027603511
-0.031450173
-0.025602332
-0.0071237178
0.02135198
0.045784498
0.058189345
0.057768537
0.045264946
0.020639387
-0.0076919073
-0.026425323
-0.032096419
-0.028360972
-0.025015492
-0.025017629
-0.028371117
-0.032115147
-0.026453463
-0.0077208209
0.020600008
0.045219991
0.057719289
0.057039879
0.044233749
0.019356701
-0.0090426318
-0.027855316
-0.033114695
-0.029640202
-0.026351259
-0.026345857
-0.029628989
-0.033095326
-0.027826869
-0.0090082685
0.019395875
0.044278125
0.05708912
0.05538151
0.042385898
0.017227569
-0.011329511
-0.030260198
-0.035415214
-0.031985575
-0.028712018
-0.028720534
-0.031997093
-0.035434157
-0.030287325
-0.01136058
0.017190311
0.042343434
0.05533516
0.052630001
0.03925945
0.013836072
-0.014821406
-0.034003447
-0.039106473
-0.035777929
-0.032454166
-0.032445343
-0.035766737
-0.03908791
-0.033977344
-0.01479191
0.013872211
0.039299926
0.052673645
0.048322028
0.034925944
0.0095837672
-0.019124105
-0.03841944
-0.043498688
-0.040443848
-0.037024532
-0.037033089
-0.040454454
-0.043516162
-0.038444635
-0.019152896
0.009549279
0.034887927
0.048281437
0.047322382
0.034013685
0.0088002746
-0.020359047
-0.040511204
-0.046511105
-0.044228681
-0.041029072
-0.04102056
-0.044217648
-0.046493962
-0.040485922
-0.020328807
0.008834628
0.034050479
0.047360473
0.048005873
0.037988506
0.014629591
-0.013927495
-0.033621047
-0.040871954
-0.039342815
-0.036347887
-0.036356371
-0.03935603
-0.040890688
-0.033646502
-0.013952392
0.014596609
0.037953149
0.047968944
0.057612177
0.048394372
0.028373401
0.002936283
-0.015780593
-0.023133726
-0.022184812
-0.019397521
-0.019388555
-0.022169317
-0.02311313
-0.015755245
0.0029655056
0.028405664
0.048430801
0.057650099
0.059429882
0.058163293
0.04394965
0.023613786
0.0075097736
0.0012693934
0.0020490063
0.0051418392
0.0051332453
0.002032522
0.0012465653
0.0074836249
0.02358427
0.043915117
0.05812488
0.059388571
0.063413067
0.063978504
0.052546957
0.037663771
0.024671134
0.020539216
0.023884077
0.028810951
0.028810121
0.023906379
0.020563549
0.024698174
0.037694532
0.052583188
0.064019295
0.063460058
0.048904146
0.054474481
0.038161303
0.031186559
0.018763448
0.018181911
0.021633339
0.027458813
0.027463652
0.02161179
0.018157261
0.018735511
0.031154522
0.038123921
0.054432402
0.048859074
0.14689564
0.12935461
0.17762651
0.19954469
0.19685949
0.17701951
0.15293659
0.1298869
0.10707407
0.085426245
0.066939622
0.052831637
0.043251187
0.036882918
0.032487739
0.02926715
0.026750026
0.024654924
0.022804901
0.021073588
0.01938085
0.017695041
0.015995918
0.014253754
0.012440734
0.01053549
0.0085197148
0.0063828183
0.0041142653
0.0016984299
-0.00087691078
-0.0036201011
-0.0065387442
-0.0096389871
-0.01292482
-0.016397556
-0.02005632
-0.023900419
-0.027934289
-0.032176888
-0.03668172
-0.041567352
-0.047057051
-0.053580305
-0.06182066
-0.072765093
-0.087683163
-0.10799719
-0.13504868
-0.16980534
-0.21267986
-0.26362669
-0.322412
-0.38879181
-0.46243534
-0.54270415
-0.62852312
-0.71850231
-0.81109036
-0.90460258
-0.99739281
-1.0880709
-1.1754013
-1.2582607
-1.3355612
-1.4063997
-1.4696689
-1.5237401
-1.5671555
-1.5982378
-1.6148715
-1.6153393
-1.5979254
-1.560877
-1.5032784
-1.4255507
-1.3298357
-1.2201506
-1.1019577
-0.98158875
-0.86540449
-0.75840222
-0.66352797
-0.58182842
-0.51287683
-0.4553297
-0.40741852
-0.36729831
-0.33323336
-0.30363471
-0.27683162
-0.25113605
-0.2248043
-0.19606816
-0.16316549
-0.12569263
-0.082928123
-0.032797817
0.031979635
0.11265489
0.19897727
0.29765843
0.29502295
0.26692913
0.23435861
0.19427687
0.16480627
0.14834797
0.14439671
0.14916806
0.1583147
0.16911038
0.18063611
0.1927753
0.20558703
0.21915022
0.23352214
0.24868129
0.26458226
0.28115901
0.29833183
0.31597328
0.33393831
0.35205649
0.37013038
0.387943
0.40525901
0.42179432
0.43727146
0.4514143
0.46370059
0.47358431
0.48074621
0.48554809
0.48898302
0.49284502
0.50220724
0.52351843
0.55628667
0.6041596
0.6417256
0.67759608
0.69390375
0.62885062
0.57031961
0.51081645
0.46206691
0.43053496
0.43669351
0.51581863
0.69443517
0.9532801
1.101972
1.17694
1.5105559
1.4550307
2.0166653
2.2887608
2.5477999
2.2968999
2.2790607
1.8629594
1.9622008
2.6375217
3.9229703
5.0654369
7.2064833
6.5448825
6.2414503
5.387291
4.9979562
3.5822149
3.4386813
2.5130744
1.8656139
1.7452695
0.77801027
0.42095912
0.12835012
0.54643133
-0.087826292
-0.19028352
-0.32607059
-0.41707318
-2.6016785
-4.4757008
-2.0705349
-1.2846139
-1.5215426
-0.720114
-0.44986977
-0.36229498
-0.012165593
0.24958749
0.11725607
0.26046891
0.81580414
1.4327304
1.8182103
2.4502358
3.1914241
3.7214792
4.9735869
4.7323874
6.5703494
6.1400643
6.9448042
7.1187488
6.4470805
6.0188077
6.2066778
6.8385777
7.4761114
6.2538696
5.7671921
6.4416327
5.8297239
4.8067155
4.0022702
3.1765073
2.7919733
2.3569873
1.5775315
1.3660839
1.1458682
0.86909762
0.29793612
0.11247087
-0.15081102
-0.020397858
-0.23799808
-0.34296691
-0.54652196
-0.84346931
-1.1863759
-0.8387307
-0.62223049
-0.73007555
-1.2453818
-0.92055817
0.026736719
0.687597
0.67465141
0.13572833
-0.28837775
-0.64827004
-0.41935303
-1.6075796
-1.0064224
-2.7962511
-2.2678759
-2.8821556
-2.3642438
-2.3730923
-1.8742019
-1.1015473
-0.73858777
-0.77808137
-1.0103377
-1.043367
-0.83029125
-0.64097491
-0.19611138
-0.28509703
-0.36601438
0.065295753
0.48557585
0.84400218
1.254116
1.859311
2.4556612
2.6930499
4.148821
3.8287482
5.8962045
5.8447567
5.8264542
5.7852192
6.1197425
5.4355829
4.2228122
3.342035
3.5089522
4.6757974
4.5597076
5.2116845
5.3991647
5.41385
5.6193226
5.5956327
5.5531563
5.1358207
4.011266
2.7576333
1.7108675
1.8722699
1.6267105
1.2383581
1.0385468
0.77709419
0.57366167
0.4705396
0.44953793
0.47174354
0.51490497
0.56504427
0.61857916
0.68140059
0.7068437
0.66498464
0.57047209
0.52114896
0.46655117
0.46403896
0.47038347
0.47801471
0.49352127
0.51593839
0.55494366
0.60631199
0.70557785
0.77889862
0.8865688
0.90619071
0.93351424
0.84709926
0.73113367
0.65711585
0.58497595
0.51853803
0.45167003
0.38180795
0.30976232
0.23201481
0.14692067
0.050302196
-0.060437221
-0.18589971
-0.32505699
-0.47590863
-0.63557413
-0.80033691
-0.96604474
-1.1286435
-1.2842161
-1.4290101
-1.5595978
-1.6732166
-1.7680706
-1.843143
-1.8978881
-1.9322458
-1.9472551
-1.9424527
-1.9182036
-1.8768908
-1.8199557
-1.7489396
-1.6654671
-1.5712314
-1.4679841
-1.357532
-1.2417396
-1.1225221
-1.001823
-0.88165853
-0.7639723
-0.65048206
-0.54279862
-0.44240392
-0.35053339
-0.26812253
-0.19575771
-0.13365113
-0.081643284
-0.039239358
-0.005679232
0.019980414
0.038785368
0.051810903
0.060092402
0.064575806
0.066099908
0.065394655
0.063073039
0.059632772
0.055473217
0.050909215
0.046182025
0.041472641
0.036913992
0.032601707
0.028603288
0.024967176
0.021686699
0.018767982
0.016239082
0.01408806
0.012300394
0.010858846
0.0097447301
0.0089414848
0.0084308107
0.0081942227
0.0082192842
0.0084985774
0.0090318537
0.0098288377
0.010889245
0.012292277
0.014165901
0.016645449
0.020013364
0.024783236
0.031782757
0.042174306
0.057050289
0.076685289
0.10035798
0.12643316
0.15148923
0.17117645
0.17867165
0.16678113
0.14078195
0.12596333
0.11565307
0.15429081
0.17870146
0.18175139
0.16486508
0.14140623
0.11866882
0.096124421
0.074676663
0.056031102
0.041469659
0.031405759
0.024638589
0.019992702
0.01667072
0.014199118
0.012316736
0.010890973
0.0098039636
0.0089823371
0.0084222162
0.0081148801
0.0080607996
0.0082674379
0.0087470021
0.0095167791
0.010595046
0.011998707
0.013745707
0.015853033
0.018334837
0.0212015
0.024440197
0.028037282
0.031986725
0.036254826
0.04077838
0.045465295
0.05018807
0.054772515
0.05898689
0.062525259
0.064998436
0.065921778
0.064688321
0.060569936
0.052734698
0.040232371
0.022004115
-0.0030614554
-0.036049549
-0.077950585
-0.12957088
-0.19144455
-0.26375159
-0.34627864
-0.4384206
-0.53920996
-0.64738153
-0.76142357
-0.87969337
-1.0004539
-1.1217496
-1.2415501
-1.3579057
-1.4689003
-1.572678
-1.6674503
-1.7514821
-1.8230936
-1.8806714
-1.9226374
-1.9474662
-1.9532538
-1.9390883
-1.904991
-1.8505385
-1.7756466
-1.6807402
-1.5667373
-1.4353482
-1.2893302
-1.1321966
-0.96778649
-0.80007864
-0.63327382
-0.47169238
-0.31915222
-0.17862891
-0.052257781
0.058801197
0.15537087
0.24026854
0.31626346
0.3850224
0.44814627
0.50985406
0.57704321
0.65356455
0.73365273
0.83102767
0.79769304
0.70707078
0.63848502
0.5673244
0.50468568
0.44872282
0.39165222
0.32803345
0.25568676
0.17298802
0.077072066
-0.034714653
-0.16295566
-0.30638417
-0.46263914
-0.62840006
-0.79963114
-0.97169786
-1.1400933
-1.3006015
-1.4491544
-1.5821717
-1.6970222
-1.7921139
-1.8666415
-1.9203356
-1.9533051
-1.9658272
-1.9583431
-1.9320747
-1.8886865
-1.8297474
-1.7568612
-1.6716448
-1.5757419
-1.4708443
-1.3587003
-1.2411465
-1.1201006
-0.99752384
-0.87547027
-0.75592851
-0.64068101
-0.53143807
-0.42977965
-0.33704477
-0.25426356
-0.18208409
-0.12072447
-0.069959276
-0.029166283
0.0025658493
0.026326868
0.043295151
0.054660156
0.061530426
0.064872586
0.065493805
0.064111515
0.06131997
0.057579393
0.05325361
0.048630132
0.043922005
0.039287079
0.034840895
0.030664257
0.026810263
0.023309333
0.020173842
0.017411809
0.015028224
0.013014014
0.011353601
0.010030881
0.0090289105
0.0083299477
0.0079164478
0.0077730835
0.007888006
0.0082538352
0.0088695063
0.0097419817
0.010878552
0.01234064
0.014234669
0.01667489
0.019863919
0.024206788
0.030427312
0.039533356
0.05235389
0.068676303
0.087132521
0.10698256
0.13001905
0.15733359
0.18206469
0.18748765
0.16467584
0.12795303
0.088161052
0.14764646
0.17531631
0.16738081
0.14156947
0.11596544
0.094913948
0.077090958
0.06101214
0.047175059
0.036474158
0.028776849
0.023397345
0.019534455
0.016580292
0.014220218
0.012327093
0.010821998
0.0096171332
0.0086709002
0.0079732614
0.007519202
0.0073113579
0.0073570703
0.0076673134
0.0082562167
0.0091398714
0.010335194
0.011859138
0.013727961
0.0159565
0.018553201
0.021520495
0.024859797
0.02855847
0.032586765
0.036903974
0.041447358
0.046120517
0.050786818
0.055261049
0.059298627
0.062577299
0.06466189
0.06498888
0.062891396
0.057570644
0.048026718
0.0330891
0.011464838
-0.018181029
-0.057128571
-0.10647524
-0.16698422
-0.23895575
-0.32216355
-0.41587702
-0.51894837
-0.62991775
-0.74710025
-0.86867958
-0.99281052
-1.1174658
-1.2405009
-1.3599545
-1.4739175
-1.580582
-1.678253
-1.7652981
-1.8401095
-1.90115
-1.9468577
-1.9755229
-1.9854725
-1.9754705
-1.9446478
-1.8924522
-1.8186939
-1.7234449
-1.6073669
-1.4718884
-1.3194452
-1.1535278
-0.97854888
-0.79924787
-0.62067579
-0.44794851
-0.28558129
-0.13748081
-0.0063482967
0.10646832
0.20134552
0.28068891
0.34795495
0.40531756
0.4548449
0.50214058
0.55571047
0.61673527
0.67665424
0.73303785
0.66163911
0.61623899
0.58108831
0.5403052
0.5029327
0.46739738
0.42723613
0.3776784
0.31671871
0.24151276
0.14820651
0.034173472
-0.1010504
-0.25589291
-0.42713771
-0.61010979
-0.79947469
-0.98925823
-1.1735596
-1.3468614
-1.5045366
-1.6431726
-1.7605927
-1.8556763
-1.9280243
-1.9777758
-2.0055343
-2.0121742
-1.9987178
-1.9666414
-1.917782
-1.8538971
-1.7765369
-1.6871308
-1.5871557
-1.4781395
-1.3616991
-1.2396183
-1.113823
-0.98630737
-0.85930029
-0.73488678
-0.61500198
-0.50159675
-0.39649762
-0.3013438
-0.2174795
-0.14578651
-0.086524671
-0.039278818
-0.0030494694
0.02355591
0.042106608
0.054167005
0.061174933
0.064375568
0.064795288
0.063204703
0.060217895
0.056336925
0.051940196
0.047300441
0.042610193
0.038011813
0.033612203
0.029483871
0.025671062
0.022199011
0.019088476
0.016351212
0.013979438
0.011962533
0.010291366
0.0089518111
0.0079276636
0.0072026164
0.0067609254
0.0065878937
0.0066705664
0.0069987908
0.0075655522
0.0083674187
0.0094068158
0.010690825
0.012237973
0.01410852
0.016343669
0.019000346
0.022300091
0.026731929
0.032988464
0.041810518
0.053425627
0.067043598
0.081758956
0.097910978
0.11595144
0.13413661
0.13787177
0.11395927
0.075041819
0.028581007
0.062640276
0.091358355
0.095478424
0.08718473
0.077876805
0.067870343
0.057208899
0.046356633
0.036865241
0.029690985
0.024699962
0.021128973
0.018355265
0.015987301
0.013888311
0.012050095
0.010460567
0.0090929646
0.0079487748
0.0070283383
0.0063316301
0.0058624916
0.0056276476
0.0056364959
0.0059006321
0.0064331015
0.0072483472
0.0083619034
0.0097894303
0.0115452
0.013641425
0.016089186
0.018900847
0.0220791
0.025610733
0.029481514
0.033671845
0.038135862
0.042801635
0.047576819
0.052329434
0.056856679
0.060863734
0.063945439
0.065556511
0.064976792
0.061192533
0.052882911
0.038429135
0.015958472
-0.016513467
-0.060833847
-0.11838282
-0.18975374
-0.27460181
-0.37176309
-0.47957015
-0.59613796
-0.71947891
-0.8475142
-0.97817029
-1.1092784
-1.2385636
-1.3639421
-1.48343
-1.5952418
-1.6978652
-1.7899652
-1.8703104
-1.9376961
-1.9905486
-2.0269341
-2.044915
-2.0427344
-2.0190195
-1.9726276
-1.9025812
-1.8083636
-1.6898909
-1.547803
-1.3838387
-1.2012179
-1.0048187
-0.80102979
-0.59701149
-0.40001193
-0.21669814
-0.052764415
0.087829017
0.20320102
0.2941415
0.36393426
0.416982
0.45671055
0.48551803
0.50606087
0.52478854
0.54606047
0.562326
0.58315324
0.52721685
0.51026531
0.51263808
0.51169036
0.5115037
0.50704854
0.49213671
0.46484713
0.42208478
0.35965471
0.27230505
0.15563102
0.0083338699
-0.16731528
-0.3664127
-0.58190971
-0.80503936
-1.0265883
-1.2377995
-1.4314017
-1.6022537
-1.7475094
-1.866189
-1.9584047
-2.0249555
-2.0669004
-2.0855365
-2.0822852
-2.0588358
-2.0171664
-1.9595638
-1.88827
-1.8047686
-1.7099064
-1.6045403
-1.4897013
-1.3667222
-1.2374581
-1.1040206
-0.96862133
-0.83357326
-0.7011821
-0.57368175
-0.45324693
-0.3419844
-0.24208274
-0.15574826
-0.084678848
-0.029407661
0.010948099
0.038384431
0.05544047
0.06468468
0.068377541
0.068328974
0.065900989
0.062040554
0.057381325
0.052350057
0.047222477
0.0421844
0.037353084
0.032793732
0.02854421
0.02463723
0.021093451
0.017913577
0.015094931
0.01263496
0.010524058
0.0087486969
0.0072945391
0.0061471493
0.0052920247
0.0047143249
0.0043995795
0.0043347784
0.004508637
0.0049111583
0.0055339336
0.0063705516
0.0074164553
0.0086691582
0.010120625
0.011760135
0.013579608
0.015565862
0.017704154
0.020065007
0.022958685
0.026933649
0.032655076
0.040156191
0.048253221
0.054880086
0.058886207
0.059795758
0.058656372
0.049218711
0.028417067
0.022929234
0.016482292
0.0084815437
0.023112458
0.032666055
0.039452759
0.044337348
0.044797473
0.04130614
0.035407206
0.029499861
0.024879527
0.021640318
0.019209294
0.01712051
0.015131254
0.013203859
0.011373337
0.0096776308
0.0081412411
0.0067799858
0.0056066593
0.0046267229
0.0038448531
0.0032669142
0.0028999282
0.0027520959
0.0028329347
0.0031538238
0.0037277859
0.0045686779
0.0056910471
0.0071105741
0.0088437633
0.0109071
0.013316381
0.016086396
0.019232587
0.022769869
0.026708079
0.031054843
0.035818037
0.041002796
0.046592781
0.052526187
0.058681997
0.064819686
0.070477918
0.074835209
0.07658225
0.073763992
0.063656958
0.042893996
0.0079023816
-0.044343276
-0.11525477
-0.20391322
-0.3075739
-0.42309671
-0.54799701
-0.68025722
-0.81771012
-0.95787641
-1.0982557
-1.2364415
-1.3701141
-1.4969527
-1.6149094
-1.7227712
-1.8200037
-1.9065214
-1.9820336
-2.0450039
-2.0927591
-2.1225234
-2.132069
-2.1195315
-2.0832617
-2.0216772
-1.9331209
-1.815807
-1.6684253
-1.4907888
-1.2850704
-1.0564282
-0.81295834
-0.56538463
-0.32598002
-0.10652674
0.083805513
0.23915228
0.35691267
0.43887535
0.49090513
0.52013117
0.5323686
0.53167967
0.51981586
0.50312033
0.48866485
0.47546604
0.48825325
0.46514193
0.45348362
0.47391137
0.50006802
0.53130945
0.5587399
0.57628031
0.58194799
0.57027741
0.53271599
0.45913483
0.34126862
0.1762442
-0.032616264
-0.27795448
-0.54794633
-0.82641704
-1.0966685
-1.3453243
-1.5635694
-1.74683
-1.8942397
-2.0077196
-2.0903056
-2.145222
-2.1747635
-2.1803928
-2.1638515
-2.1270504
-2.0722898
-2.003164
-1.9235685
-1.8349661
-1.7364004
-1.6265206
-1.5053434
-1.3742577
-1.2356541
-1.0921709
-0.94618255
-0.8000678
-0.65675374
-0.51929345
-0.38964747
-0.26912957
-0.16021033
-0.067721552
0.003429839
0.051536595
0.07910066
0.091007256
0.092342619
0.087441753
0.079518381
0.070577438
0.061715908
0.053496928
0.046104848
0.039530587
0.033713166
0.028573453
0.024032382
0.020023841
0.016495462
0.013406239
0.010722483
0.0084147147
0.006456857
0.0048257824
0.0035005645
0.0024619795
0.0016922327
0.0011752247
0.00089672341
0.00084402383
0.0010058273
0.0013725862
0.0019366238
0.0026916919
0.0036325092
0.0047540817
0.0060521514
0.0075197144
0.009144647
0.010907722
0.012776686
0.014710445
0.016650093
0.018617087
0.020828395
0.023691212
0.027726926
0.032744724
0.037467579
0.039270407
0.036459575
0.028767161
0.019606052
0.01009171
0.0017525564
0.019448219
0.019418872
0.0017003371
0.01005822
0.01955614
0.028697889
0.036369189
0.039161062
0.037336144
0.032587464
0.02753867
0.023471546
0.020576108
0.018324824
0.016308337
0.014313057
0.012318806
0.010379878
0.0085363916
0.0068202207
0.0052493249
0.0038328433
0.0025752812
0.0014810306
0.00055310287
-0.00020541332
-0.00079033667
-0.0011959339
-0.001414593
-0.0014368671
-0.0012514048
-0.0008446974
-0.0002008901
0.00069834906
0.001874133
0.0033509319
0.0051573507
0.0073270871
0.0099004184
0.012926946
0.016469972
0.02061522
0.025476702
0.031217027
0.038046654
0.046213561
0.056002061
0.067659897
0.081123092
0.095752165
0.10969662
0.1193232
0.11925424
0.10231232
0.060266336