/*--------------------------------*- C++ -*----------------------------------*\
| =========                 |                                                 |
| \\      /  F ield         | OpenFOAM: The Open Source CFD Toolbox           |
|  \\    /   O peration     | Version:  v2012                                 |
|   \\  /    A nd           | Website:  www.openfoam.com                      |
|    \\/     M anipulation  |                                                 |
\*---------------------------------------------------------------------------*/
FoamFile
{
    version     2.0;
    format      ascii;
    class       volScalarField;
    location    "0";
    object      p;
}
// * * * * * * * * * * * * * * * * * * * * * * * * * * * * * * * * * * * * * //

dimensions      [0 2 -2 0 0 0 0];


internalField   nonuniform List<scalar> 
48533
(
-1.5290274
-1.5991062
-1.6641539
-1.7233345
-1.7756468
-1.8201718
-1.8559453
-1.8814594
-1.89536
-1.8966518
-1.8840733
-1.8565072
-1.8133488
-1.7547249
-1.6817122
-1.5964473
-1.5020635
-1.402333
-1.3013338
-1.2030845
-1.1108736
-1.0269218
-0.95242449
-0.88767242
-0.83226976
-0.78537614
-0.74591981
-3.7366273
-3.7437335
-3.8161076
-3.688169
-3.6381953
-3.5638846
-2.7213074
-2.7826837
-3.2086854
-3.8933389
-3.926483
-3.9423705
-3.9945081
-3.9024545
-3.8501101
-3.7825933
-2.8769587
-2.984899
-3.3986844
-3.7248709
-3.8604764
-3.8719613
-2.9970672
-3.2815537
-3.7064057
-3.9481246
-4.0404597
-4.0388392
-3.1868988
-3.1381458
-3.4912277
-4.0103568
-3.1952626
-3.1497338
-3.7182045
-4.5736758
-4.3824823
-4.4804773
-3.9512556
-2.8934659
-2.7715224
-2.7465847
-2.7709036
-2.9119585
-2.9862995
-3.2493382
-3.3547728
-3.3060942
-3.2022927
-3.1851321
-3.1685911
-3.1742213
-3.220475
-3.2645086
-3.2899039
-3.3077056
-3.3149193
-3.216166
-3.2018715
-3.572809
-3.7660581
-4.0413373
-4.5127653
-4.5754076
-3.6524731
-3.5977109
-2.9148993
-1.705907
-2.1182146
-2.0010246
-2.2536857
-2.7021775
-2.5303358
-2.2640886
-2.0155304
-2.1045486
-1.9590647
-1.4949374
-1.0033265
-0.40510132
0.17559708
1.0494358
2.4696033
3.6417823
4.8256443
5.1027169
5.0859868
4.3927211
4.1818386
4.2250743
4.554902
4.9899641
4.9001297
5.4156197
5.2012795
4.5697324
3.3424338
2.7253061
1.2987852
0.85329188
0.53372746
-0.44794905
-0.74695355
-1.2640756
-1.9308002
-2.0595354
-1.9824644
-2.1134864
-2.3886156
-2.6772529
-2.5304517
-2.1451786
-2.1529599
-2.0985358
-2.3236994
-3.1208811
-3.4707371
-4.1106146
-4.1684424
-3.8198288
-3.4428452
-3.3308958
-3.2870313
-3.3314961
-3.3318006
-3.3151544
-3.2999493
-3.2642345
-3.2244837
-3.2166307
-3.2083194
-3.1979625
-3.2091204
-3.2326922
-3.3642624
-3.519258
-3.2287089
-3.0496548
-2.6242588
-2.8572674
-2.8686715
-3.2630539
-4.072948
-4.1653116
-3.76052
-3.8795966
-3.1203678
-3.2121012
-3.5672945
-3.8954764
-3.176823
-3.2291541
-3.4820912
-3.7617562
-3.282715
-3.1793984
-3.1025005
-2.9078426
-3.2226792
-3.5723997
-3.1200306
-2.9363913
-2.7991855
-2.87744
-3.3424111
-3.4981691
-3.0402872
-3.0601304
-3.0743029
-3.0118761
-3.001711
-3.0247234
-2.6815912
-2.7196943
-3.1412292
-3.2843101
-2.8663612
-2.9121515
-2.9651122
-2.8835516
-2.8522982
-0.89395765
-0.94260206
-0.9946707
-1.0498753
-1.1077954
-1.1678382
-1.2292931
-1.2913487
-1.3530551
-1.4133676
-1.4711776
-1.5253563
-1.5747947
-1.6184463
-1.6553684
-1.6847586
-1.7059845
-1.7186011
-1.7223676
-1.7175299
-1.7037258
-1.6809367
-1.650081
-1.6117374
-1.5665673
-1.5153056
-1.4587589
-1.2652889
-1.2717815
-1.2781879
-1.2844551
-1.2905327
-1.2963746
-1.3019379
-1.3071847
-1.3120823
-1.3166038
-1.3207283
-1.324441
-1.3277323
-1.3305978
-1.3330371
-1.3350543
-1.3366584
-1.3378625
-1.4175261
-1.4200472
-1.4223379
-1.4243253
-1.4259427
-1.4271311
-1.42784
-1.4280279
-1.4276627
-1.4267216
-1.425192
-1.4230709
-1.4203656
-1.4170932
-1.4132802
-1.4089621
-1.404182
-1.3989898
-1.3934406
-1.3875939
-1.3815124
-1.3752602
-1.3689025
-1.3625038
-1.4655822
-1.4718342
-1.4780534
-1.4841669
-1.4901
-1.495777
-1.5011221
-1.5060604
-1.5105203
-1.5144337
-1.5177387
-1.5203817
-1.5223178
-1.5235142
-1.5239507
-1.5236221
-1.5225381
-1.5207244
-1.518222
-1.515088
-1.5113934
-1.5072228
-1.5026718
-1.497845
-1.4928523
-1.487805
-1.4828131
-1.4779857
-1.473438
-1.4693013
-1.4657066
-1.4628191
-1.460708
-1.4593806
-1.516161
-1.5179926
-1.5209056
-1.5249257
-1.5299494
-1.5357985
-1.5422712
-1.5492192
-1.5564973
-1.5639673
-1.5714877
-1.5789117
-1.5860916
-1.5928839
-1.5991549
-1.6047857
-1.6096742
-1.6137392
-1.6169203
-1.6191799
-1.6205018
-1.6208906
-1.6203694
-1.6189781
-1.6167707
-1.6138117
-1.6101748
-1.6059397
-1.6011901
-1.5960121
-1.5904922
-1.5847161
-1.5787679
-1.5727291
-1.676089
-1.6818063
-1.6873724
-1.6926983
-1.6976919
-1.7022587
-1.7063029
-1.7097285
-1.7124411
-1.7143503
-1.7153718
-1.7154304
-1.7144636
-1.712425
-1.7092874
-1.7050469
-1.6997251
-1.6933715
-1.6860642
-1.6779093
-1.6690386
-1.6596061
-1.6497837
-1.639754
-1.6297025
-1.6198111
-1.6102519
-1.6011935
-1.5928004
-1.5852553
-1.5788165
-1.5736807
-1.5699749
-1.5676509
-1.6130302
-1.6157971
-1.6202466
-1.6264446
-1.6342566
-1.6434394
-1.6537225
-1.6648496
-1.6766329
-1.6888858
-1.7014127
-1.7139979
-1.7264186
-1.7384543
-1.7498962
-1.7605564
-1.7702737
-1.7789186
-1.7863961
-1.7926461
-1.7976417
-1.8013867
-1.8039114
-1.8052686
-1.8055286
-1.8047755
-1.8031027
-1.8006098
-1.7973998
-1.7935767
-1.7892439
-1.7845029
-1.7794523
-1.8746036
-1.8786016
-1.8821161
-1.8850408
-1.8872671
-1.8886854
-1.8891864
-1.8886637
-1.8870172
-1.8841559
-1.8800034
-1.8745023
-1.8676195
-1.8593519
-1.8497311
-1.8388273
-1.8267513
-1.8136545
-1.7997251
-1.7851831
-1.7702714
-1.7552459
-1.7403622
-1.7258638
-1.7119763
-1.6988995
-1.6868661
-1.6761683
-1.6670941
-1.659917
-1.6547705
-1.6515743
-1.6826246
-1.686261
-1.6920897
-1.7001634
-1.7103546
-1.7223778
-1.735919
-1.7507075
-1.7664915
-1.7830367
-1.8000838
-1.8173634
-1.8345904
-1.8514781
-1.8677526
-1.8831658
-1.8975048
-1.9105988
-1.9223224
-1.9325959
-1.9413825
-1.9486841
-1.9545347
-1.9589944
-1.9621428
-1.9640748
-1.9648945
-1.964712
-1.9636397
-1.9617901
-1.9592742
-1.9562005
-2.0278679
-2.0298149
-2.0311314
-2.0317094
-2.0314389
-2.0302078
-2.0279039
-2.0244171
-2.0196428
-2.0134859
-2.0058673
-1.9967273
-1.9860334
-1.9737868
-1.9600302
-1.9448524
-1.9283915
-1.910836
-1.8924195
-1.8734135
-1.8541171
-1.8348433
-1.8159034
-1.7975939
-1.7801843
-1.7639368
-1.7490989
-1.7359351
-1.7247724
-1.715915
-1.7095225
-1.7055518
-1.7195464
-1.7238282
-1.730662
-1.7401376
-1.7520794
-1.7661773
-1.7821013
-1.7995601
-1.8182981
-1.838056
-1.8585611
-1.8795043
-1.9005583
-1.9213926
-1.9416895
-1.9611591
-1.9795519
-1.9966681
-2.0123571
-2.0265206
-2.0391087
-2.0501143
-2.0595662
-2.0675195
-2.0740472
-2.0792407
-2.083201
-2.0860345
-2.0878497
-2.0887544
-2.0888536
-2.0882515
-2.1360974
-2.1351285
-2.1333906
-2.1307855
-2.12722
-2.1225943
-2.1168065
-2.1097578
-2.1013556
-2.0915177
-2.0801725
-2.0672741
-2.0528066
-2.0367897
-2.019285
-2.0004018
-1.980301
-1.9591929
-1.9373368
-1.9150318
-1.8926037
-1.8703892
-1.8487182
-1.8278974
-1.8082026
-1.7898827
-1.7731951
-1.7584451
-1.7459747
-1.7360976
-1.7289706
-1.7244879
-1.7206734
-1.7251462
-1.7323369
-1.7423486
-1.7550326
-1.7700674
-1.787102
-1.8058397
-1.8260334
-1.8474438
-1.8698044
-1.8928175
-1.9161606
-1.9395021
-1.962519
-1.9849128
-2.006421
-2.0268255
-2.0459586
-2.0637018
-2.0799829
-2.0947701
-2.1080658
-2.1199014
-2.1303326
-2.1394243
-2.1472498
-2.1538875
-2.1594193
-2.1639336
-2.1675269
-2.1702881
-2.18972
-2.1848823
-2.1791598
-2.1724813
-2.1647671
-2.1559464
-2.1459544
-2.1347307
-2.12222
-2.1083758
-2.0931687
-2.0765852
-2.0586367
-2.0393672
-2.0188598
-1.9972419
-1.9746869
-1.9514136
-1.927681
-1.9037803
-1.8800224
-1.8567231
-1.8341874
-1.8126947
-1.7924924
-1.7738034
-1.7568593
-1.7419406
-1.7293842
-1.719498
-1.7124181
-1.7080238
-1.6867215
-1.690946
-1.6977538
-1.7072724
-1.7193832
-1.7338056
-1.7502318
-1.7684065
-1.7881224
-1.8091821
-1.8313667
-1.8544263
-1.8780849
-1.9020535
-1.9260436
-1.9497807
-1.9730153
-1.9955311
-2.0171497
-2.0377329
-2.0571812
-2.0754308
-2.092448
-2.1082235
-2.1227673
-2.1361051
-2.1482744
-2.1593207
-2.1692946
-2.1782473
-2.1862256
-2.1932837
-2.1808104
-2.1715076
-2.1612608
-2.1500321
-2.137789
-2.1245021
-2.1101461
-2.0947022
-2.0781607
-2.0605234
-2.0418074
-2.0220485
-2.0013055
-1.9796639
-1.9572395
-1.9341807
-1.9106674
-1.886909
-1.8631384
-1.839605
-1.816565
-1.7942703
-1.772957
-1.7528357
-1.7340879
-1.7168771
-1.7013774
-1.6878099
-1.6764448
-1.667528
-1.6611574
-1.6572052
-1.6201111
-1.6236937
-1.6294725
-1.6375711
-1.6479145
-1.6602975
-1.6744948
-1.6903271
-1.7076595
-1.7263696
-1.7463201
-1.7673477
-1.7892646
-1.8118646
-1.8349323
-1.8582508
-1.88161
-1.9048131
-1.9276817
-1.9500599
-1.9718165
-1.9928443
-2.013059
-2.0323968
-2.0508116
-2.0682722
-2.0847595
-2.1002643
-2.1147852
-2.1283271
-2.1409004
-2.1525208
-2.1083725
-2.0944606
-2.0796131
-2.0638375
-2.0471472
-2.0295631
-2.0111135
-1.9918359
-1.9717787
-1.9510028
-1.9295834
-1.9076117
-1.8851966
-1.8624649
-1.8395608
-1.8166445
-1.7938881
-1.7714712
-1.7495755
-1.7283791
-1.7080508
-1.6887448
-1.6705953
-1.6537128
-1.6381858
-1.6240918
-1.6115221
-1.6006097
-1.5915271
-1.5844316
-1.5793772
-1.5762478
-1.5265673
-1.5291795
-1.5334118
-1.5393696
-1.5469977
-1.5562046
-1.5668863
-1.5789546
-1.5923627
-1.6070789
-1.623065
-1.6402649
-1.6586009
-1.6779735
-1.698264
-1.7193369
-1.7410434
-1.7632256
-1.7857222
-1.8083735
-1.8310266
-1.8535384
-1.875779
-1.8976318
-1.9189948
-1.9397792
-1.9599086
-1.9793177
-1.9979515
-2.0157639
-2.0327167
-2.048779
-1.9745948
-1.9566369
-1.9378635
-1.9183281
-1.8980926
-1.8772272
-1.8558117
-1.8339365
-1.8117031
-1.7892245
-1.7666259
-1.744044
-1.7216254
-1.6995231
-1.6778936
-1.6568907
-1.6366606
-1.6173353
-1.5990281
-1.5818305
-1.5658105
-1.551013
-1.5374606
-1.5251562
-1.5140892
-1.5042529
-1.4956517
-1.4883006
-1.4822446
-1.4775329
-1.4741816
-1.4721265
-1.4140429
-1.415518
-1.4179294
-1.4213365
-1.4257519
-1.4311778
-1.4376277
-1.445133
-1.4537371
-1.4634864
-1.4744363
-1.4866335
-1.5001067
-1.5148614
-1.5308782
-1.548109
-1.5664766
-1.5858773
-1.6061844
-1.6272549
-1.6489362
-1.6710717
-1.6935049
-1.7160848
-1.7386695
-1.7611271
-1.7833355
-1.8051834
-1.8265695
-1.8474023
-1.8675988
-1.8870839
-1.7878936
-1.7673544
-1.7462351
-1.7246289
-1.7026367
-1.6803671
-1.6579377
-1.6354758
-1.6131182
-1.5910084
-1.5692978
-1.5481439
-1.5277079
-1.5081404
-1.489584
-1.4721656
-1.4559884
-1.4411271
-1.4276237
-1.4154872
-1.4046949
-1.3951948
-1.3869129
-1.3797602
-1.3736406
-1.3684612
-1.3641424
-1.3606172
-1.3578387
-1.3557547
-1.3543191
-1.3534518
-1.2914763
-1.2917663
-1.2922791
-1.2930909
-1.2942876
-1.2959573
-1.2981918
-1.3010912
-1.3047754
-1.3093705
-1.3150051
-1.3218026
-1.3298728
-1.3393047
-1.3501576
-1.3624577
-1.3761956
-1.3913263
-1.4077708
-1.4254214
-1.4441469
-1.4637985
-1.4842275
-1.5052799
-1.5268037
-1.548654
-1.5706832
-1.5927545
-1.61474
-1.63652
-1.6579797
-1.6790116
-1.5627029
-1.5418005
-1.5206361
-1.4993262
-1.4779964
-1.4567694
-1.4357757
-1.4151516
-1.3950359
-1.3755819
-1.3569404
-1.3392574
-1.3226697
-1.3073098
-1.2932893
-1.2806927
-1.2695731
-1.2599481
-1.251798
-1.245067
-1.2396664
-1.2354818
-1.232378
-1.2302079
-1.2288206
-1.2280671
-1.2278012
-1.2278873
-1.2281873
-1.2285666
-1.2289168
-1.2291677
-1.1674784
-1.1667251
-1.1655758
-1.1640995
-1.1624314
-1.1607482
-1.1592292
-1.1580438
-1.1573494
-1.1573066
-1.1580775
-1.1598215
-1.1626882
-1.1668095
-1.1722926
-1.1792145
-1.1876181
-1.1975106
-1.2088647
-1.2216218
-1.2356977
-1.2509891
-1.267371
-1.1617775
-1.1480602
-1.1355016
-1.1242015
-1.114241
-1.1056801
-1.0985526
-1.0928627
-1.0885824
-1.0856515
-1.0839795
-1.0834489
-1.0839207
-1.0852411
-1.0872484
-1.0897785
-1.092667
-1.0957447
-1.0988244
-1.1016966
-1.1041497
-1.1060159
-1.1072226
-1.0491129
-1.0475069
-1.0450151
-1.0417158
-1.0378041
-1.033527
-1.0291207
-1.024785
-1.0206909
-1.016998
-1.0138633
-1.0114415
-1.0098809
-1.0093186
-1.009874
-1.0116444
-1.0147015
-1.0190893
-1.0248238
-1.031894
-1.0402646
-1.049879
-1.0606632
-0.96547504
-0.95777959
-0.95121201
-0.94582117
-0.94163881
-0.93867723
-0.9369268
-0.93635498
-0.93690593
-0.93850176
-0.94104478
-0.94442032
-0.94850157
-0.9531536
-0.95823726
-0.96361157
-0.96913035
-0.97462904
-0.97990309
-0.98469602
-0.98872835
-0.99177343
-0.99373754
-0.94150977
-0.93921694
-0.93567711
-0.93101223
-0.92548598
-0.91940878
-0.91305081
-0.90661301
-0.90024436
-0.89406911
-0.88820421
-0.88276552
-0.87786771
-0.8736214
-0.87013043
-0.8674883
-0.8657747
-0.8650533
-0.86537
-0.86675211
-0.86920843
-0.87273025
-0.87729291
-0.7968384
-0.79535093
-0.79478194
-0.79513376
-0.79639418
-0.79853589
-0.8015166
-0.80527998
-0.80975744
-0.81487041
-0.82053321
-0.82665675
-0.83315077
-0.83992639
-0.84689742
-0.85397847
-0.86107591
-0.86806619
-0.87476214
-0.8808879
-0.8861034
-0.89009823
-0.89270705
-1.5678642
-1.5785956
-1.5994668
-1.6252255
-1.6401986
-1.6497885
-1.6687593
-1.6933373
-1.7077537
-1.7162052
-1.7337602
-1.7574249
-1.7713279
-1.7787802
-1.7952329
-1.8182337
-1.8315084
-1.8381587
-1.8538261
-1.8764124
-1.8894198
-1.8954205
-1.9103682
-1.9323883
-1.9450289
-1.9505518
-1.965052
-1.98679
-1.9994189
-2.0047377
-2.0192179
-2.041211
-2.054233
-2.0596089
-2.0750055
-2.0986304
-2.113519
-2.12054
-2.1384538
-2.1651071
-2.1839565
-2.1948941
-2.2168537
-2.2484219
-2.274159
-2.2922998
-2.3229209
-2.3648719
-2.4042207
-2.4380986
-2.4884501
-2.5541258
-2.6244235
-2.6952748
-2.7928856
-2.9295967
-3.1173506
-3.3627703
-3.7445671
-4.2760064
-5.1369971
-6.8044814
-12.623903
-15.990839
-10.071361
-12.608282
-13.714421
-10.970551
-4.4272314
-0.76362262
-3.2880347
-4.6552328
-5.518613
-8.7879702
-10.605264
-13.717847
-15.699101
-11.399715
-6.6094576
-5.06325
-4.2051348
-3.6997345
-3.3332918
-3.0972194
-2.9178454
-2.7917886
-2.6936576
-2.6235508
-2.5531075
-2.4904577
-2.4381436
-2.4015316
-2.3623777
-2.3234768
-2.2921354
-2.2715173
-2.2459167
-2.2169887
-2.1946968
-2.1814104
-2.1626301
-2.1387542
-2.1206766
-2.1114145
-2.0963072
-2.0751583
-2.0599916
-2.0524872
-2.0390651
-2.0192871
-2.0052301
-1.9979034
-1.9845613
-1.9649053
-1.9511899
-1.9437431
-1.9303746
-1.9102752
-1.8962783
-1.8883155
-1.8744808
-1.8537215
-1.8390339
-1.8304541
-1.8164976
-1.7953374
-1.7797522
-1.7703663
-1.7558183
-1.7339618
-1.7173031
-1.7068566
-1.6918328
-1.6690897
-1.6508316
-1.6393334
-1.6236111
-1.5996641
-1.5798442
-1.5792391
-1.5998014
-1.6242673
-1.6390863
-1.6501027
-1.669322
-1.6925926
-1.7065289
-1.716496
-1.734251
-1.756609
-1.7700346
-1.7790108
-1.7955316
-1.8171833
-1.8302353
-1.8384693
-1.8536435
-1.8748812
-1.8883654
-1.8957842
-1.9101751
-1.9307273
-1.9438287
-1.9507573
-1.9647303
-1.9848373
-1.9980622
-2.0048174
-2.0191676
-2.0393958
-2.0526915
-2.0596471
-2.0750455
-2.0965382
-2.1117808
-2.1203787
-2.138903
-2.1628899
-2.1819094
-2.194735
-2.2171247
-2.246374
-2.27242
-2.2925363
-2.324408
-2.3638374
-2.4033365
-2.4397333
-2.4934906
-2.5567095
-2.6290543
-2.6997043
-2.8009968
-2.9315782
-3.1151698
-3.3582451
-3.7402538
-4.2687803
-5.2474898
-6.853072
-10.810706
-9.1538969
-7.0998134
-5.5330437
-4.4937339
-3.8955948
-3.4685109
-3.2079525
-2.9987124
-2.8495707
-2.7322315
-2.6565043
-2.5779123
-2.5091681
-2.4473137
-2.4142222
-2.3749077
-2.3302987
-2.2931502
-2.2770417
-2.2538319
-2.2196726
-2.1928585
-2.1846115
-2.1695145
-2.139749
-2.1178205
-2.1135509
-2.1025927
-2.07527
-2.0562822
-2.0537161
-2.0450105
-2.0191743
-2.0012867
-1.9984714
-1.989982
-1.9646207
-1.9471224
-1.9440271
-1.9355073
-1.9098648
-1.8921132
-1.8885908
-1.8797114
-1.8532433
-1.8347141
-1.8305955
-1.8215905
-1.7948079
-1.7756354
-1.7705685
-1.7608412
-1.7333128
-1.7132599
-1.7072443
-1.6967142
-1.6680932
-1.6468993
-1.6399165
-1.6283324
-1.5984659
-1.5761417
-1.5697463
-1.5761514
-1.5987253
-1.6288607
-1.6423873
-1.6473307
-1.6680589
-1.6971819
-1.7099177
-1.7135283
-1.7330673
-1.7615174
-1.7736651
-1.7761963
-1.7946521
-1.8224794
-1.834223
-1.8358478
-1.853331
-1.8807554
-1.8924373
-1.893343
-1.9098183
-1.9368529
-1.9484026
-1.9487844
-1.9646297
-1.9916317
-2.0031657
-2.0031201
-2.0187132
-2.0461693
-2.0582078
-2.0581056
-2.0744594
-2.1039613
-2.1181478
-2.1194875
-2.1378907
-2.1707437
-2.1895998
-2.1946292
-2.2164223
-2.253743
-2.2802976
-2.2927973
-2.3225839
-2.370712
-2.4122344
-2.4395877
-2.4878315
-2.5613799
-2.6358627
-2.7027184
-2.8044616
-2.9545755
-3.1551779
-3.4052119
-3.8007827
-4.3434848
-5.1506859
-6.9727286
-13.566348
-14.984992
-5.2579866
1.6426354
3.711227
3.6125123
4.0235868
4.298289
4.0659447
2.4723906
3.8413293
3.5540501
3.02772
2.2345039
1.2790021
0.52268688
0.08742098
-0.17501552
-0.33326906
-0.4258275
-0.47973019
-0.51190533
-1.5281506
-1.598
-1.6627366
-1.7215189
-1.7733961
-1.8174154
-1.8525853
-1.8770919
-1.8899071
-1.890389
-1.8770442
-1.8489226
-1.8056065
-1.7473792
-1.6754026
-1.5917898
-1.4995252
-1.4021418
-1.3033962
-1.207019
-1.1161442
-1.0329384
-0.95864915
-0.89368657
-0.83779957
-0.79028562
-0.7501874
-0.75115785
-0.79138631
-0.83899164
-0.89491887
-0.95985733
-1.0340475
-1.1170735
-1.2076908
-1.3037472
-1.4021339
-1.4991557
-1.5910915
-1.6744336
-1.7462154
-1.8043298
-1.8476101
-1.8757591
-1.8891816
-1.8888308
-1.8761125
-1.8516823
-1.8166127
-1.7726642
-1.7208641
-1.6621737
-1.5975105
-1.5277152
-1.4592313
-1.460261
-1.4619656
-1.4644229
-1.4676286
-1.471501
-1.4759207
-1.4807607
-1.4858966
-1.4912043
-1.496559
-1.501835
-1.5069091
-1.5116609
-1.515972
-1.5197243
-1.5228085
-1.5251528
-1.526759
-1.5964279
-1.5946105
-1.5919529
-1.5884359
-1.5841238
-1.5791251
-1.5735639
-1.567572
-1.5612902
-1.5548687
-1.5484642
-1.5422358
-1.5363424
-1.5309442
-1.5262032
-1.5222715
-1.5192531
-1.5171564
-1.5158882
-1.5672587
-1.5687607
-1.5712404
-1.5748068
-1.5794489
-1.585043
-1.5914065
-1.5983434
-1.6056597
-1.6131624
-1.6206589
-1.6279609
-1.6348907
-1.6412856
-1.6469984
-1.6518968
-1.6558726
-1.6588712
-1.6609318
-1.7194478
-1.7171155
-1.7137345
-1.7092545
-1.7037219
-1.6972488
-1.6899804
-1.6820825
-1.6737418
-1.6651643
-1.6565692
-1.6481811
-1.6402248
-1.6329257
-1.6265104
-1.6211886
-1.6171011
-1.6142583
-1.6125337
-1.6509667
-1.6528871
-1.6560574
-1.6606227
-1.6665744
-1.6737578
-1.6819398
-1.6908681
-1.7002906
-1.7099545
-1.719606
-1.7289966
-1.7378921
-1.7460801
-1.7533724
-1.7596051
-1.7646521
-1.76846
-1.7710807
-1.8148517
-1.8119152
-1.8076324
-1.8019554
-1.7949586
-1.7867942
-1.777652
-1.7677468
-1.7573182
-1.7466277
-1.7359504
-1.7255646
-1.7157454
-1.7067654
-1.6988964
-1.6923887
-1.6874086
-1.6839629
-1.6818876
-1.7047188
-1.7069051
-1.7105612
-1.7158698
-1.7228276
-1.7312621
-1.7409128
-1.7514962
-1.7627269
-1.774315
-1.7859637
-1.7973761
-1.8082653
-1.8183638
-1.8274264
-1.8352297
-1.8415873
-1.8463973
-1.8497003
-1.8739529
-1.8703334
-1.8650436
-1.8580498
-1.8494874
-1.8395863
-1.8286116
-1.8168439
-1.8045791
-1.792126
-1.7797978
-1.7679013
-1.7567322
-1.7465782
-1.7377225
-1.7304214
-1.7248384
-1.7209653
-1.7186161
-1.7234946
-1.7259227
-1.7299094
-1.7356388
-1.743122
-1.7522052
-1.7626406
-1.7741545
-1.7864668
-1.7992863
-1.8123056
-1.8252042
-1.8376584
-1.8493485
-1.8599611
-1.8691915
-1.8767673
-1.8825191
-1.8864671
-1.8865623
-1.8822427
-1.876021
-1.8679092
-1.8581177
-1.8469596
-1.8347729
-1.8218944
-1.8086569
-1.7953879
-1.7824033
-1.77
-1.7584553
-1.7480337
-1.7389943
-1.7315733
-1.7259203
-1.7220189
-1.7196736
-1.7070071
-1.7092385
-1.7129515
-1.7183472
-1.725458
-1.7341536
-1.7442213
-1.7554265
-1.7675296
-1.7802774
-1.7933946
-1.8065821
-1.8195211
-1.8318766
-1.8432967
-1.8534139
-1.8618718
-1.8684105
-1.8729781
-1.8447751
-1.8401337
-1.8335233
-1.8250329
-1.8149636
-1.8037029
-1.7916353
-1.7791146
-1.7664644
-1.7539816
-1.7419366
-1.7305722
-1.7201077
-1.7107494
-1.7026985
-1.6961367
-1.6911685
-1.6877528
-1.6857001
-1.6561948
-1.6579964
-1.660995
-1.6653603
-1.6711359
-1.6782415
-1.6865307
-1.6958405
-1.7060042
-1.7168431
-1.728156
-1.7397126
-1.751252
-1.7624781
-1.7730546
-1.782601
-1.7907197
-1.7970853
-1.8015774
-1.7437095
-1.7396318
-1.7338833
-1.726605
-1.7181224
-1.7088153
-1.6990337
-1.6890752
-1.6791908
-1.6695927
-1.6604615
-1.6519507
-1.6441941
-1.6373159
-1.6314389
-1.6266733
-1.6230771
-1.620609
-1.6191265
-1.5753025
-1.5764087
-1.5782503
-1.5809359
-1.5845001
-1.5889051
-1.5940759
-1.5999304
-1.6063867
-1.6133571
-1.6207394
-1.6284089
-1.6362123
-1.6439591
-1.651412
-1.6582789
-1.6642299
-1.6689686
-1.6723493
-1.589592
-1.5871705
-1.5838029
-1.5796206
-1.5748605
-1.5697719
-1.564564
-1.5593956
-1.554385
-1.54962
-1.5451666
-1.5410754
-1.5373892
-1.5341488
-1.5313975
-1.5291764
-1.5275054
-1.5263603
-1.5256725
-1.4712912
-1.4715377
-1.4719483
-1.4725475
-1.4733461
-1.4743408
-1.4755227
-1.4768851
-1.478425
-1.4801424
-1.4820365
-1.4840996
-1.4863114
-1.4886328
-1.4909962
-1.4932935
-1.4953797
-1.4971037
-1.498366
-1.4021231
-1.4021301
-1.4021972
-1.4023792
-1.4027237
-1.4032518
-1.4039585
-1.404821
-1.4057999
-1.4068496
-1.4079247
-1.4089771
-1.4099675
-1.4108651
-1.4116413
-1.4122749
-1.4127538
-1.4130818
-1.4132782
-1.3527728
-1.3521522
-1.3511157
-1.3496029
-1.3475968
-1.3451243
-1.3422335
-1.3389915
-1.3354553
-1.3316973
-1.3278002
-1.3238666
-1.3200083
-1.316341
-1.3129795
-1.3100385
-1.3076185
-1.3057776
-1.3045105
-1.2091469
-1.2115425
-1.2149718
-1.2193948
-1.2246586
-1.2305584
-1.2368837
-1.2434348
-1.2500279
-1.2564954
-1.2626883
-1.2684848
-1.2737771
-1.2784721
-1.2824845
-1.2857404
-1.2881968
-1.2898805
-1.2908891
-1.2286786
-1.2273325
-1.2250874
-1.2218147
-1.2174788
-1.2121335
-1.2058839
-1.1988442
-1.1911374
-1.1829031
-1.1743037
-1.1655215
-1.156766
-1.1482734
-1.1403066
-1.1331542
-1.1271072
-1.1223935
-1.1190872
-1.0364526
-1.0404007
-1.0460246
-1.0532309
-1.0617436
-1.071214
-1.0813006
-1.0916946
-1.1021209
-1.112335
-1.1221225
-1.1312974
-1.1396996
-1.1471816
-1.153597
-1.1588127
-1.1627573
-1.1654678
-1.167095
-1.1069525
-1.1051095
-1.1020448
-1.097595
-1.0917299
-1.0845445
-1.0761912
-1.0668365
-1.0566488
-1.0458091
-1.0345235
-1.0230286
-1.0115925
-1.0005149
-0.99013105
-0.98081088
-0.97293132
-0.96678892
-0.96248013
-0.89759699
-0.90200406
-0.90830042
-0.91639993
-0.92601047
-0.93675309
-0.94825132
-0.96016101
-0.97217146
-0.98400232
-0.99540381
-1.0061564
-1.0160646
-1.0249445
-1.0326114
-1.0388912
-1.0436716
-1.0469735
-1.0489633
-0.99371662
-0.99163878
-0.98820109
-0.98324339
-0.97676005
-0.96888159
-0.95979869
-0.94970822
-0.93880328
-0.92728639
-0.91538274
-0.90334645
-0.89146014
-0.88003396
-0.86940719
-0.85994568
-0.85201032
-0.84586938
-0.84158692
-0.79378973
-0.79777246
-0.80351764
-0.81099298
-0.81996682
-0.83010887
-0.84107459
-0.8525385
-0.86419947
-0.87578099
-0.88703276
-0.89773209
-0.90767751
-0.91667517
-0.92452385
-0.93102241
-0.93602316
-0.93951031
-0.9416271
-0.89297606
-0.89085502
-0.88738547
-0.88245244
-0.8760994
-0.86848865
-0.85982319
-0.8502983
-0.84009891
-0.82941662
-0.81846387
-0.80747982
-0.7967287
-0.7864974
-0.77709353
-0.76883702
-0.76202356
-0.75684206
-0.75328665
-1.5716938
-1.5736294
-1.5986677
-1.6336039
-1.6447062
-1.6447183
-1.6679736
-1.7020516
-1.712294
-1.7108014
-1.7329132
-1.7665392
-1.7762956
-1.7736744
-1.7946758
-1.8278832
-1.8373158
-1.8335812
-1.8535576
-1.8864051
-1.8957951
-1.8912673
-1.9102461
-1.9426155
-1.9521936
-1.9472453
-1.9653491
-1.997457
-2.0075594
-2.0022871
-2.0194667
-2.0518593
-2.0627272
-2.0577073
-2.0754561
-2.1097976
-2.1228029
-2.1194891
-2.1395094
-2.1778529
-2.195228
-2.1948973
-2.2181511
-2.2614041
-2.2867487
-2.2935473
-2.3244458
-2.3792513
-2.4216949
-2.442549
-2.4899856
-2.5717688
-2.650062
-2.7137633
-2.8215155
-2.9866004
-3.1998321
-3.453676
-3.8577328
-4.3913229
-5.1212755
-7.786101
-13.646792
-12.822141
-4.0103199
2.6594522
3.5258423
4.5803709
4.7861992
4.7740387
5.0829358
5.5983751
5.879874
6.0969224
5.6362319
5.1602017
5.1544795
5.1246356
5.8880185
5.9367873
6.1535401
5.6554457
5.3685738
4.597838
3.579184
2.5243464
2.6378638
1.3062028
0.49823589
0.083884411
-0.17490189
-0.327641
-0.41618832
-0.4679823
-0.49896684
-1.5688728
-1.6091651
-1.6406702
-1.6787176
-1.708015
-1.7439971
-1.7715363
-1.8056683
-1.8318384
-1.8650675
-1.8901765
-1.9221211
-1.9469633
-1.9782659
-2.0030936
-2.0351255
-2.0609894
-2.0963186
-2.1263243
-2.1691205
-2.2072365
-2.2637623
-2.3183811
-2.4004712
-2.4973008
-2.6389718
-2.839647
-3.1526322
-3.6503269
-4.4166364
-5.4320639
-5.8962444
-4.1911762
-1.0953711
0.54411572
1.3523635
1.2506653
0.89532707
0.40513256
0.056934796
-0.18109438
-0.33449375
-0.42811169
-0.48450398
-0.51874241
-0.52498836
-0.4910153
-0.43692378
-0.35181048
-0.22152495
-0.032269382
0.19828122
0.34527688
0.31903346
-0.32964608
-1.5914387
-3.2378472
-4.3523358
-4.4754768
-4.0657808
-3.6023121
-3.1906818
-2.9139849
-2.6993804
-2.5529739
-2.4408134
-2.3506946
-2.2861585
-2.2266671
-2.1827689
-2.1383871
-2.1059474
-2.0702855
-2.040231
-2.0091746
-1.9818554
-1.9522756
-1.9243705
-1.8940126
-1.8659206
-1.8361018
-1.8064437
-1.775012
-1.7442632
-1.7113325
-1.6789589
-1.6439294
-1.6094449
-1.572677
-1.5356384
-1.5362077
-1.5757069
-1.6102253
-1.6477626
-1.6796695
-1.7143519
-1.7450978
-1.777981
-1.8077779
-1.8395345
-1.8680145
-1.8989785
-1.9272685
-1.9583608
-1.9862971
-2.0167579
-2.046967
-2.0796269
-2.114291
-2.1553987
-2.197774
-2.2491144
-2.3069123
-2.3815608
-2.4665441
-2.5863779
-2.7169269
-2.9202744
-3.1062814
-3.4145003
-3.5987233
-3.7204034
-3.4831084
-2.6665715
-1.609942
-0.58787552
-1.2404006
-0.41481721
-0.10899123
-0.091474077
-0.19129034
-0.30324113
-0.39412815
-0.46001226
-0.50523112
-0.53493616
-0.55059984
-0.52887437
-0.49745133
-0.45604307
-0.40757075
-0.36566889
-0.36470691
-0.48319077
-0.80740574
-1.3709946
-2.033177
-2.4306637
-2.9716795
-2.9481977
-2.7348501
-2.5290762
-2.3671653
-2.246564
-2.1537352
-2.077641
-2.0110497
-1.9490937
-1.8886493
-1.8276417
-1.7647003
-1.6994911
-1.6310034
-1.5579201
-1.5585834
-1.6319451
-1.7012635
-1.7673678
-1.8310864
-1.8931324
-1.954707
-2.0176163
-2.0844818
-2.1586641
-2.2439248
-2.343271
-2.4550079
-2.5599243
-2.6020066
-2.4654377
-2.1569579
-1.8276575
-1.399835
-1.0053421
-0.72950948
-0.58157066
-0.52498435
-0.51651135
-0.52803911
-0.54490747
-0.56047393
-0.57187815
-0.59733089
-0.59691071
-0.59685908
-0.60129365
-0.61769196
-0.65841582
-0.74205058
-0.89063284
-1.1166602
-1.4054307
-1.7090514
-1.9636737
-2.130362
-2.3295737
-2.3732329
-2.3441268
-2.2836285
-2.2140237
-2.1451063
-2.0793174
-2.0164459
-1.9552031
-1.8941215
-1.8320096
-1.7679443
-1.7012394
-1.6312643
-1.5575114
-1.5549961
-1.629016
-1.6992231
-1.7659613
-1.8296269
-1.890663
-1.9495622
-2.0067836
-2.0625772
-2.1165014
-2.1664065
-2.2067572
-2.2272186
-2.210061
-2.0784112
-1.9870089
-1.8376024
-1.6357475
-1.4062063
-1.1842761
-0.99765927
-0.85861834
-0.76464266
-0.70550725
-0.66987054
-0.64850601
-0.63492218
-0.62500011
-0.65289513
-0.67175638
-0.69630934
-0.730145
-0.77834104
-0.84715466
-0.94298278
-1.0701693
-1.2276
-1.4057944
-1.5877099
-1.7524394
-1.8839975
-1.9760158
-2.0306977
-2.1208328
-2.1275466
-2.1105916
-2.0787274
-2.0375021
-1.990152
-1.9384122
-1.8829798
-1.8240728
-1.7616373
-1.6954702
-1.6253759
-1.5512132
-1.5466331
-1.620524
-1.6902564
-1.7554758
-1.8161113
-1.8721693
-1.9234086
-1.9690906
-2.0077951
-2.0373652
-2.0545082
-2.0544204
-1.991422
-1.957854
-1.8982092
-1.8099003
-1.6936654
-1.5551385
-1.4049962
-1.2562952
-1.1203311
-1.00419
-0.91015932
-0.836836
-0.78084834
-0.73824716
-0.70538317
-0.67932784
-0.70287458
-0.73441812
-0.7732594
-0.8216651
-0.88215673
-0.95710998
-1.0481109
-1.1551145
-1.2755891
-1.4041185
-1.5328065
-1.6529119
-1.7570129
-1.8403754
-1.9011868
-1.9400735
-1.9591529
-2.0030564
-1.99707
-1.977165
-1.946215
-1.906442
-1.8595611
-1.8065959
-1.7480036
-1.6840309
-1.615109
-1.5419335
-1.5375195
-1.6097721
-1.6776098
-1.7401752
-1.7966765
-1.8466508
-1.8895527
-1.9241757
-1.9487142
-1.9611418
-1.9317542
-1.9243797
-1.9007473
-1.8592216
-1.7988921
-1.7201235
-1.6250309
-1.5176226
-1.4033457
-1.2884561
-1.1788518
-1.0788376
-0.99087812
-0.9157079
-0.85276068
-0.80068136
-0.75777602
-0.72232651
-0.73679481
-0.77479364
-0.82025652
-0.87450491
-0.93869058
-1.0135474
-1.0990756
-1.1942214
-1.2966563
-1.4027347
-1.5077688
-1.6069224
-1.6958537
-1.7710977
-1.8304943
-1.8731907
-1.8994214
-1.9101603
-1.906768
-1.9247406
-1.9051383
-1.8746685
-1.8350542
-1.7875903
-1.7329429
-1.6717651
-1.6050569
-1.5337357
-1.5308634
-1.6014245
-1.6671445
-1.7271454
-1.7803655
-1.8260116
-1.8632398
-1.890671
-1.8900817
-1.904679
-1.9238357
-1.9460042
-1.9691627
-1.9907646
-2.0082206
-2.0188789
-2.0209133
-2.0140372
-1.9920546
-1.9871075
-1.9865563
-1.9629592
-1.9678927
-1.9698507
-1.9979061
-2.009134
-2.0081804
-2.0244683
-2.052589
-2.0642588
-2.0637611
-2.0807944
-2.1105871
-2.1246443
-2.1262801
-2.1458978
-2.1796911
-2.1979268
-2.2023009
-2.2250199
-2.2642436
-2.2901523
-2.3012858
-2.332481
-2.3836414
-2.4265525
-2.4520872
-2.5000013
-2.5775143
-2.6580508
-2.7321882
-2.8509899
-3.0216676
-3.2468271
-3.5187305
-3.9484916
-4.5067833
-5.466478
-9.0810772
-13.949688
-9.6849747
-1.8909591
2.3030398
3.8752993
4.511543
4.2280997
4.201542
4.7799886
5.2532248
5.458468
5.3853077
4.7122201
4.8698245
5.231651
5.5965539
5.8052904
5.6554032
5.474611
4.8323927
3.8015228
3.8201841
2.6183963
2.5597007
1.8758141
1.2221779
0.49278791
0.084004194
-0.14521008
-0.29193191
-0.3850579
-0.44123275
-0.47516175
-1.4656299
-1.4657382
-1.4721226
-1.4719219
-1.3622463
-1.3616441
-1.3605881
-1.6784782
-1.6768083
-1.5731127
-1.5740024
-1.5802084
-1.5792019
-1.6825874
-1.6844008
-1.6875355
-1.6813647
-2.3058223
-2.6881805
-2.4806611
-2.3256616
-2.2113497
-2.1320439
-2.0747567
-2.0772432
-2.2959574
-2.1163878
-2.1873898
-2.3378618
-2.4931111
-2.8541554
-2.5484837
-2.3697203
-2.2246104
-2.1863024
-2.328475
-2.1118688
-2.1901282
-2.4984893
-2.9161444
-2.6073038
-2.4542351
-2.5036429
-2.7344127
-2.6267104
-2.7852085
-3.0634184
-2.6467543
-2.6365889
-2.7394016
-2.6022884
-2.9057476
-3.1584282
-2.9382673
-3.014627
-2.9418769
-3.1949806
-3.0972602
-3.0704445
-3.2693739
-3.4599504
-3.6194471
-3.4898642
-3.2323106
-3.0529377
-2.9552537
-3.1720551
-3.2640815
-3.3278907
-3.2718265
-3.2231626
-3.2097585
-3.2201262
-3.2443735