/*--------------------------------*- C++ -*----------------------------------*\
| =========                 |                                                 |
| \\      /  F ield         | OpenFOAM: The Open Source CFD Toolbox           |
|  \\    /   O peration     | Version:  v2012                                 |
|   \\  /    A nd           | Website:  www.openfoam.com                      |
|    \\/     M anipulation  |                                                 |
\*---------------------------------------------------------------------------*/
FoamFile
{
    version     2.0;
    format      ascii;
    class       volVectorField;
    location    "0";
    object      U;
}
// * * * * * * * * * * * * * * * * * * * * * * * * * * * * * * * * * * * * * //

dimensions      [0 1 -1 0 0 0 0];


internalField   nonuniform List<vector> 
48533
(
(5.2100777 -0.00072297021 0.013008283)
(5.2178048 -0.00054525801 0.011312197)
(5.224648 -0.00035365186 0.0094272336)
(5.2305158 -0.00011208437 0.0073334464)
(5.2352577 8.8095501e-05 0.005031664)
(5.2387505 0.00031796417 0.002608023)
(5.2409404 0.00053735656 7.3931274e-05)
(5.2417295 0.00075614463 -0.0025927024)
(5.2410171 0.00097905407 -0.0053846847)
(5.2387179 0.0012053112 -0.0082676791)
(5.2347728 0.0014325394 -0.011190031)
(5.2291647 0.0016523123 -0.014065221)
(5.2219286 0.0018599646 -0.016806699)
(5.2131613 0.0020464682 -0.01930099)
(5.2030328 0.0022034965 -0.021434348)
(5.1917818 0.0023262998 -0.023112646)
(5.1797025 0.00241108 -0.024265016)
(5.1671243 0.002455786 -0.024858946)
(5.1543822 0.0024608024 -0.024906696)
(5.141787 0.0024287942 -0.02446278)
(5.1295998 0.0023642098 -0.023613482)
(5.1180163 0.002272736 -0.022462594)
(5.1071616 0.0021601485 -0.021116508)
(5.0970943 0.0020316862 -0.019671988)
(5.087817 0.001892189 -0.018211398)
(5.0792873 0.0017465085 -0.016802402)
(5.0714283 0.001598721 -0.015497237)
(5.9813552 -0.22233206 0.083104896)
(5.9981568 -0.22716079 0.079022094)
(6.0270969 -0.22752204 0.087744092)
(6.0266485 -0.23651431 0.067399583)
(6.0505083 -0.25638369 -0.0079708902)
(6.0488644 -0.20412992 -0.10389953)
(5.7999735 -0.30489693 -0.12919188)
(5.5375774 -0.089612954 0.49809048)
(5.9437958 -0.29674676 0.2552909)
(6.038413 -0.18467361 0.087418508)
(6.034307 -0.17552322 0.10333231)
(6.0453485 -0.17964286 0.091371842)
(6.0734272 -0.17851333 0.091614221)
(6.0846179 -0.18908369 0.073783713)
(6.1111599 -0.20871525 0.0051959475)
(6.1208105 -0.16440776 -0.092070358)
(5.8720934 -0.26201123 -0.12527287)
(5.6455506 -0.035085908 0.46144536)
(6.006062 -0.24585743 0.25691696)
(6.0669187 -0.14504762 0.045168423)
(6.1277007 -0.1479085 -0.016232975)
(6.1538049 -0.094718474 -0.082540427)
(5.9014866 -0.20044464 -0.11105939)
(5.7158718 0.010412449 0.43373523)
(6.0628576 -0.19062871 0.23313136)
(6.1095783 -0.092379526 0.025071168)
(6.162798 -0.084036741 -0.017236178)
(6.1901553 -0.04159567 -0.041111541)
(5.9558158 -0.1629655 -0.057132912)
(5.8444797 0.051577186 0.35595593)
(6.0829568 -0.1875319 0.17089616)
(6.2146344 0.020776395 -0.08839946)
(5.9775489 -0.090115689 -0.020995339)
(5.9609404 0.062076041 0.29301951)
(6.1204589 -0.11319215 0.21400119)
(6.2411224 0.092757439 0.0062826936)
(6.1251966 0.058512882 0.12167405)
(6.1280067 -0.023807895 0.23000169)
(6.2530883 -0.11620236 0.38071221)
(6.1008167 -0.05460701 0.15240028)
(5.9228483 0.013594376 0.003480031)
(5.8623221 0.10684538 0.024989944)
(5.8933895 0.14149719 0.14999717)
(5.8757972 0.076296029 0.1961108)
(5.8500833 0.12460297 -0.03999405)
(5.9925633 0.16046527 -0.21824148)
(6.153124 0.17567885 -0.17536364)
(6.0864169 0.24958644 -0.27016974)
(5.9699454 0.26797122 -0.076440723)
(5.9555028 0.2977435 -0.014411208)
(5.9494967 0.33758646 0.040589311)
(5.9509697 0.37456005 0.088458839)
(5.966105 0.40739841 0.13342993)
(5.9810534 0.44554156 0.17093622)
(5.9895406 0.49174147 0.1954737)
(5.9952768 0.53269797 0.200687)
(5.9965455 0.57254996 0.20605445)
(5.9833582 0.61943709 0.21084339)
(5.9464375 0.66557843 0.21369023)
(6.0776322 0.89896745 0.32962282)
(6.2325901 0.88175149 0.50256124)
(6.1666269 1.030167 0.20051367)
(6.3205065 1.0268942 0.10695231)
(6.3417244 1.0726366 0.21120271)
(6.145432 0.99397506 0.20903707)
(6.0016681 1.0542215 0.24916233)
(6.2157235 0.93488199 0.263564)
(5.9752295 0.92225758 0.078444107)
(5.8996403 1.213789 0.18065196)
(5.8723811 0.95847716 0.21012923)
(5.5987867 1.2347457 0.10498203)
(5.7752415 1.3432629 -0.37754821)
(5.7142815 1.4667832 -0.16522002)
(5.6209705 1.6505146 -0.047425663)
(5.5469787 1.7903068 0.081590451)
(5.6133419 1.9038633 -0.39960566)
(5.4177178 2.0191671 -0.45377485)
(5.1502159 2.0649355 -0.27602843)
(4.8775599 2.3473834 -0.17163895)
(4.5477084 2.5269964 -0.45747126)
(4.2061308 2.440364 -0.56337038)
(3.6819422 2.6749496 -0.63235731)
(3.0344729 2.383375 -0.94144943)
(2.4628916 2.2547054 -1.159167)
(1.4302827 1.8284483 -1.3914827)
(2.4238044 0.21568029 -1.2724453)
(2.591847 0.027382865 -0.95327991)
(3.0361659 0.22341524 -0.91350118)
(3.2064862 0.18172355 -0.76862622)
(3.2854849 0.10521617 -0.8582289)
(2.9712233 0.11305454 -0.90891811)
(2.8006333 -0.022298312 -0.67839137)
(2.7513889 -0.012246663 -0.79092196)
(2.7260215 0.097572168 -0.96385359)
(1.6299537 1.4773043 -1.5206351)
(1.9636209 1.6557699 -1.7018714)
(2.3099353 2.3190413 -1.1000151)
(2.6863417 2.9231657 -0.82573892)
(3.2280185 2.826525 -0.84234441)
(3.7272256 2.7010524 -0.60994533)
(4.0641868 2.8006952 -0.47165389)
(4.486269 2.4828234 -0.5395903)
(4.6838368 2.3379062 -0.25472851)
(5.0848006 2.0561189 -0.27514231)
(5.2837582 2.0942826 -0.21301024)
(5.4291979 1.9295114 -0.41758788)
(5.4693409 1.8040662 0.063946954)
(5.5620993 1.6517627 -0.059491112)
(5.6722228 1.5387201 -0.062718122)
(5.833893 1.4457904 -0.36968471)
(5.8672044 1.3241686 -0.34090291)
(5.6569445 1.2253867 0.087090462)
(5.7156302 1.2782102 0.23114213)
(5.7753562 1.1961819 0.17487781)
(5.9808294 1.0327313 0.021186453)
(6.1278702 1.0898536 0.097251509)
(6.1305192 0.92371423 0.49325227)
(6.2121117 1.000148 0.41955751)
(6.1827092 1.0271093 0.3321333)
(6.0701026 0.77634838 0.51410735)
(6.0219956 0.77399359 0.26496164)
(6.0037095 0.68698249 0.24168571)
(6.0015863 0.63912518 0.21465073)
(6.0053285 0.59024242 0.20518466)
(5.9998748 0.54341815 0.20304842)
(5.9945392 0.50602966 0.20089412)
(5.9888861 0.45827179 0.19104413)
(5.9756087 0.4142368 0.16590782)
(5.9618907 0.38219664 0.13073231)
(5.9572651 0.35803236 0.089439178)
(5.9491488 0.30620394 0.046410282)
(5.9531017 0.27382072 -0.0054281881)
(5.9663997 0.24603899 -0.057786143)
(6.0008533 0.21806244 -0.1469075)
(6.1143209 0.18554153 -0.15918476)
(6.1434811 0.13420789 -0.29541604)
(5.929644 0.073538359 0.15287831)
(5.8251488 0.10613714 0.020224715)
(5.8793279 -0.019846228 0.17189905)
(5.9170471 0.13028235 0.066806778)
(5.9263554 0.094132367 0.094523983)
(6.0671045 -0.078475331 0.10769305)
(6.1908003 -0.020077335 0.018202153)
(6.1389655 0.01274534 0.32269935)
(6.0144005 0.072672856 0.20797476)
(6.0485279 0.039364173 0.13707737)
(5.9213826 0.00093186246 0.094604803)
(6.0358176 -0.05091926 0.24995336)
(5.9834805 0.028536852 0.27250381)
(6.05297 0.0069921668 0.18845572)
(5.8655636 -0.04867732 0.17656616)
(6.0237421 -0.10179292 0.26989069)
(5.9424877 -0.0057716928 0.28770992)
(5.9533519 0.03755982 0.19297323)
(5.8346212 -0.010993208 0.14763852)
(5.8527304 -0.04260731 0.13368521)
(5.767759 -0.11605706 0.16719223)
(5.922651 -0.19911023 0.22677112)
(5.8900933 -0.072890497 0.29918311)
(5.9547225 -0.009010899 0.20345328)
(5.806631 -0.062240657 0.13936878)
(5.818754 -0.090889691 0.15043807)
(5.7505989 -0.16330898 0.20562535)
(5.9644243 -0.27248741 0.2189838)
(5.9269738 -0.069896033 0.25562719)
(5.9027652 -0.03836083 0.15576965)
(5.7884362 -0.10962755 0.10905349)
(5.8134397 -0.11569095 0.074565711)
(5.7538873 -0.11756762 0.067543355)
(5.7021113 -0.12054125 0.093814443)
(5.709536 -0.12759416 0.13071073)
(5.7536068 -0.14522828 0.16657928)
(5.6747937 -0.22527375 0.24312037)
(5.8661986 -0.32448561 0.19298683)
(5.8527217 -0.13929837 0.27086557)
(5.844418 -0.096159674 0.17177081)
(5.7449914 -0.15162445 0.12846443)
(5.7887462 -0.15438137 0.090430103)
(5.7543047 -0.16029912 0.067627424)
(5.7170962 -0.16753951 0.066974145)
(5.6720738 -0.17026945 0.078285472)
(5.0933292 0.0011692133 -0.00193219)
(5.1008709 0.0012283088 -0.0018975068)
(5.1084869 0.0012861458 -0.0018631772)
(5.1161665 0.0013399024 -0.0018253301)
(5.1238833 0.0013870196 -0.001780243)
(5.1315968 0.0014250142 -0.0017251175)
(5.1392546 0.0014513861 -0.0016580526)
(5.1467937 0.0014641472 -0.0015769419)
(5.1541421 0.0014615124 -0.001480311)
(5.1612211 0.0014422427 -0.0013671629)
(5.1679472 0.0014053557 -0.0012371204)
(5.1742353 0.0013505054 -0.0010903911)
(5.1800013 0.0012780508 -0.00092782864)
(5.1851652 0.0011887753 -0.00075065823)
(5.189653 0.0010840243 -0.00056067564)
(5.1934 0.00096567049 -0.00036035413)
(5.1963529 0.00083590557 -0.00015239185)
(5.1984707 0.00069729914 6.0365974e-05)
(5.199726 0.00055255913 0.00027508324)
(5.2001049 0.00040476312 0.00048938936)
(5.1996067 0.00025652911 0.00070081132)
(5.1982446 0.00010884536 0.00090372727)
(5.1960501 -3.7759122e-05 0.0010895355)
(5.1930664 -0.00017955498 0.0012616217)
(5.1893413 -0.00031344736 0.0014201414)
(5.1849318 -0.00043786944 0.0015626054)
(5.1799023 -0.00055139447 0.0016882704)
(5.1863941 -0.0052697207 0.031236953)
(5.1867178 -0.0052262685 0.032376441)
(5.1869906 -0.0051830901 0.033495514)
(5.1872051 -0.0051395755 0.03460436)
(5.1873536 -0.0050947402 0.035712153)
(5.1874289 -0.0050472098 0.036826037)
(5.1874242 -0.0049950348 0.037949737)
(5.187333 -0.0049355095 0.039082145)
(5.1871497 -0.0048655624 0.040215634)
(5.1868693 -0.0047815812 0.041334625)
(5.1864882 -0.0046796364 0.042414411)
(5.1860037 -0.0045558377 0.043420562)
(5.1854149 -0.0044068908 0.044309249)
(5.1847226 -0.0042304404 0.045028755)
(5.1839294 -0.0040257157 0.045522346)
(5.1830401 -0.0037938036 0.045732214)
(5.1820621 -0.0035379441 0.045604261)
(5.181005 -0.0032634534 0.045092889)
(5.1844837 -0.0019792353 0.037392718)
(5.1860785 -0.0022480142 0.039606811)
(5.1876687 -0.0025285981 0.041422855)
(5.189229 -0.0028139752 0.042825933)
(5.1907359 -0.0030965504 0.04381482)
(5.1921689 -0.0033686317 0.044403987)
(5.1935105 -0.0036233734 0.044623131)
(5.1947469 -0.0038553942 0.044514687)
(5.1958678 -0.0040613885 0.044129828)
(5.1968666 -0.0042401386 0.043523559)
(5.1977393 -0.0043923551 0.042750127)
(5.1984853 -0.0045202894 0.041859021)
(5.1991059 -0.0046271472 0.04089215)
(5.1996048 -0.0047167379 0.039882331)
(5.1999871 -0.0047928925 0.038852952)
(5.2002593 -0.0048591242 0.037818559)
(5.2004286 -0.0049184592 0.036785983)
(5.2005031 -0.0049734431 0.035755831)
(5.2004912 -0.0050259203 0.034723958)
(5.2004014 -0.0050772153 0.03368303)
(5.2002423 -0.0051282384 0.032623775)
(5.2000226 -0.0051795101 0.031536014)
(5.1997507 -0.005231186 0.030409439)
(5.199435 -0.0052832494 0.029234257)
(5.2127241 -0.005206868 0.028325958)
(5.2129823 -0.0051464576 0.029523042)
(5.2131968 -0.0050860298 0.030654371)
(5.213359 -0.0050258473 0.031728563)
(5.21346 -0.0049659662 0.032755199)
(5.2134906 -0.0049063329 0.03374437)
(5.2134413 -0.0048464773 0.034706094)
(5.2133026 -0.0047855886 0.035649561)
(5.2130646 -0.0047224447 0.036582156)
(5.2127176 -0.0046553618 0.037508258)
(5.2122521 -0.0045818855 0.0384277)
(5.2116591 -0.0044991417 0.039334441)
(5.2109309 -0.0044037991 0.040215098)
(5.2100607 -0.0042922198 0.041047822)
(5.209044 -0.0041607852 0.041801837)
(5.2078786 -0.00400643 0.042437732)
(5.2065656 -0.0038269999 0.042909039)
(5.2051097 -0.0036219984 0.04316499)
(5.2035196 -0.0033927212 0.043154273)
(5.2018086 -0.0031425018 0.042829787)
(5.1999945 -0.0028766931 0.042153147)
(5.1980997 -0.0026020581 0.041098567)
(5.1961504 -0.0023261112 0.039655142)
(5.1941757 -0.0020562884 0.037826973)
(5.1922068 -0.0017991786 0.035631142)
(5.1902751 -0.0015603169 0.033093682)
(5.1884112 -0.0013441759 0.030244766)
(5.1866449 -0.0011543239 0.027115503)
(5.1850078 -0.00099229108 0.023738322)
(5.1835348 -0.00085289625 0.020148611)
(5.1822637 -0.00074612293 0.016418118)
(5.1812766 -0.00063148608 0.012603301)
(5.1805627 -0.00056627923 0.0088059551)
(5.1801129 -0.00054442752 0.0051578692)
(5.1851744 -0.0004312809 0.0047770099)
(5.185692 -0.00044810174 0.0081659132)
(5.1865076 -0.00050844406 0.011701553)
(5.1876579 -0.00063005982 0.015242259)
(5.1891292 -0.00070408242 0.018719405)
(5.1908589 -0.00083739228 0.022105978)
(5.1927762 -0.00098721986 0.025308506)
(5.1948496 -0.0011619445 0.028295432)
(5.1970451 -0.0013618225 0.031037731)
(5.1993293 -0.001584117 0.03350562)
(5.201667 -0.0018249457 0.035669017)
(5.2040218 -0.0020793624 0.037501006)
(5.2063568 -0.002341182 0.038982491)
(5.2086373 -0.0026034418 0.040106185)
(5.2108313 -0.0028589656 0.040879009)
(5.2129119 -0.0031011645 0.041322043)
(5.2148572 -0.0033248234 0.041468637)
(5.2166509 -0.003526538 0.041360894)
(5.2182824 -0.0037048959 0.041045206)
(5.2197459 -0.0038603633 0.040568046)
(5.2210404 -0.0039947117 0.039972123)
(5.2221685 -0.0041108177 0.039293694)
(5.223136 -0.0042119731 0.038561148)
(5.2239507 -0.0043016314 0.037794519)
(5.2246219 -0.0043829074 0.037006012)
(5.2251599 -0.0044584103 0.036200969)
(5.2255757 -0.0045303448 0.035379084)
(5.2258802 -0.0046003766 0.034535978)
(5.226084 -0.0046695463 0.033664382)
(5.2261978 -0.0047385395 0.032755356)
(5.2262317 -0.0048077148 0.031799193)
(5.2261953 -0.0048771193 0.030786154)
(5.2260981 -0.0049466071 0.029707)
(5.2259489 -0.005015853 0.028553411)
(5.2385889 -0.0047620521 0.028667729)
(5.2386119 -0.0046834106 0.029769507)
(5.2385744 -0.0046042768 0.03078797)
(5.2384674 -0.0045250498 0.031731052)
(5.2382812 -0.0044459506 0.032607541)
(5.2380058 -0.0043669825 0.033426712)
(5.2376307 -0.0042878567 0.034197802)
(5.2371446 -0.0042080565 0.034929337)
(5.2365361 -0.0041266595 0.035628278)
(5.2357932 -0.0040421815 0.036298949)
(5.2349041 -0.0039526942 0.036941839)
(5.2338571 -0.0038557858 0.037552317)
(5.2326416 -0.0037486772 0.038119462)
(5.2312486 -0.0036282766 0.038625169)
(5.2296717 -0.0034916464 0.039043826)
(5.2279075 -0.0033362522 0.039342787)
(5.2259572 -0.0031605508 0.03948388)
(5.2238275 -0.002964405 0.039425967)
(5.2215309 -0.0027493446 0.039128394)
(5.2190865 -0.002518737 0.038555179)
(5.21652 -0.0022776273 0.037678922)
(5.2138633 -0.0020322283 0.036483952)
(5.2111531 -0.0017892283 0.03496792)
(5.2084301 -0.0015550253 0.033141343)
(5.2057362 -0.0013350786 0.031025237)
(5.2031128 -0.0011337065 0.028647026)
(5.2005988 -0.00095391875 0.026035812)
(5.1982307 -0.00079703872 0.023218574)
(5.1960438 -0.00065875861 0.020214347)
(5.1940701 -0.00056324893 0.017078656)
(5.1924148 -0.00049495376 0.013898935)
(5.1911092 -0.00039104639 0.010677486)
(5.1901946 -0.00031496207 0.0074478319)
(5.1896138 -0.0003061273 0.0043467344)
(5.1933656 -0.00017087592 0.0038674075)
(5.1939971 -0.00016807509 0.0066439684)
(5.195016 -0.00025809745 0.009528613)
(5.1964604 -0.00034369759 0.012395939)
(5.1982896 -0.00040516329 0.01524102)
(5.2004675 -0.00045572809 0.018086147)
(5.2029164 -0.00058424832 0.020860543)
(5.2055623 -0.00072150815 0.023481838)
(5.2083747 -0.00087775307 0.025938191)
(5.2113168 -0.001054048 0.028206649)
(5.2143465 -0.0012485314 0.03026)
(5.2174181 -0.0014578489 0.032070879)
(5.220485 -0.0016773729 0.033616596)
(5.2235015 -0.0019014831 0.034883236)
(5.2264259 -0.0021241473 0.035868208)
(5.2292221 -0.0023396325 0.036581059)
(5.2318607 -0.0025431464 0.037042317)
(5.23432 -0.0027313952 0.037280935)
(5.2365855 -0.0029026865 0.037330781)
(5.2386499 -0.0030568856 0.037226878)
(5.2405117 -0.0031951436 0.037002204)
(5.2421746 -0.0033195409 0.03668528)
(5.2436458 -0.0034325933 0.036298655)
(5.2449353 -0.0035369373 0.03585833)
(5.2460546 -0.0036350085 0.035373964)
(5.2470162 -0.0037288498 0.034849559)
(5.2478329 -0.0038201833 0.034284523)
(5.2485173 -0.0039102368 0.033674792)
(5.2490813 -0.0039997784 0.033013875)
(5.2495365 -0.0040892025 0.032293813)
(5.2498937 -0.0041787055 0.03150596)
(5.250163 -0.0042682096 0.030641624)
(5.250354 -0.0043574357 0.029692546)
(5.2607937 -0.0038705704 0.030327721)
(5.2603424 -0.0037705401 0.031104603)
(5.2597946 -0.0036703778 0.031795172)
(5.2591405 -0.0035702359 0.03240746)
(5.2583692 -0.0034700238 0.032949407)
(5.2574694 -0.0033694746 0.033428269)
(5.2564286 -0.0032679856 0.033849904)
(5.2552342 -0.0031645546 0.034217975)
(5.2538728 -0.0030577889 0.034533055)
(5.2523314 -0.0029459896 0.034791663)
(5.2505979 -0.0028271773 0.034985378)
(5.2486617 -0.0026991701 0.035100438)
(5.2465149 -0.0025600436 0.035117613)
(5.244154 -0.0024082227 0.035012903)
(5.2415806 -0.0022430577 0.034759146)
(5.238803 -0.0020650144 0.034328133)
(5.2358372 -0.0018759203 0.033693647)
(5.2327076 -0.0016790327 0.032834671)
(5.2294466 -0.0014787691 0.031738281)
(5.2260943 -0.0012802659 0.03040171)
(5.2226969 -0.0010887298 0.028832798)
(5.2193041 -0.0009087923 0.027048898)
(5.2159669 -0.00074401038 0.025074066)
(5.2127339 -0.00059645396 0.022934979)
(5.2096503 -0.00046604924 0.020654436)
(5.2067459 -0.00034515863 0.018244264)
(5.2040715 -0.00027537508 0.015746563)
(5.2017208 -0.00023629683 0.013238161)
(5.199738 -0.00018922558 0.010750203)
(5.1981706 -0.00012016054 0.0082618531)
(5.1970545 -4.0786325e-05 0.0057661256)
(5.1963743 -2.5307488e-05 0.0033522334)
(5.1985972 0.00012344624 0.0027956149)
(5.199357 7.9161612e-05 0.004819323)
(5.200576 -5.3730797e-06 0.0069001746)
(5.2022498 -5.807122e-05 0.0089833206)
(5.2043583 -8.6404535e-05 0.011089425)
(5.2068509 -0.00010447234 0.013236715)
(5.2096787 -0.0001281202 0.015414981)
(5.2127835 -0.00018805142 0.017578452)
(5.2161015 -0.00029242742 0.019668184)
(5.2195927 -0.0004088522 0.021659072)
(5.2232015 -0.00054023768 0.023539835)
(5.2268798 -0.00068669074 0.025284451)
(5.2305741 -0.00084609639 0.026868174)
(5.2342306 -0.001014973 0.028270377)
(5.2377999 -0.0011891187 0.029477685)
(5.2412385 -0.0013641452 0.030485679)
(5.2445111 -0.0015360477 0.031298967)
(5.2475912 -0.0017016652 0.031929928)
(5.2504612 -0.0018589954 0.032396451)
(5.2531118 -0.0020071257 0.032719237)
(5.2555409 -0.002146245 0.032919216)
(5.257752 -0.0022772115 0.033015503)
(5.2597531 -0.0024014142 0.033023796)
(5.2615547 -0.0025204096 0.032955618)
(5.2631695 -0.0026357135 0.032818116)
(5.2646105 -0.0027486408 0.032614347)
(5.265891 -0.0028602182 0.032343914)
(5.2670238 -0.0029712142 0.032003654)
(5.2680208 -0.0030820497 0.031588471)
(5.2688934 -0.0031928768 0.031091924)
(5.2696518 -0.0033036829 0.030506876)
(5.2703056 -0.0034142303 0.029826014)
(5.2785468 -0.002903052 0.029115861)
(5.2776701 -0.002782322 0.029692376)
(5.2766811 -0.0026612376 0.030164185)
(5.2755708 -0.0025401246 0.030537834)
(5.2743297 -0.0024190649 0.0308196)
(5.2729472 -0.0022980529 0.031015021)
(5.2714119 -0.0021768473 0.031128396)
(5.2697115 -0.0020549608 0.031162199)
(5.2678332 -0.0019316395 0.031116623)
(5.2657641 -0.0018060586 0.030988947)
(5.2634922 -0.0016772174 0.030773212)
(5.2610069 -0.0015441702 0.030460221)
(5.2583008 -0.0014062199 0.030037902)
(5.2553707 -0.0012631615 0.029492281)
(5.2522194 -0.0011154519 0.028809069)
(5.2488575 -0.00096444115 0.027975485)
(5.2453038 -0.00081234618 0.02698248)
(5.2415869 -0.00066219712 0.025826887)
(5.2377442 -0.00051749799 0.024512838)
(5.2338217 -0.00038179272 0.023052316)
(5.229872 -0.0002581834 0.0214643)
(5.2259512 -0.00014879371 0.019772315)
(5.2221163 -5.3737638e-05 0.017998589)
(5.2184224 1.0500983e-05 0.016176006)
(5.214922 7.0915285e-05 0.014322302)
(5.2116754 0.0001061859 0.012452974)
(5.2087289 0.00012207026 0.010609063)
(5.2061167 0.00013188832 0.0088249861)
(5.2038967 0.00015465165 0.0071075368)
(5.2021202 0.00021048795 0.0054206228)
(5.2008072 0.00026141355 0.0037539448)
(5.1999826 0.00026606102 0.0021684048)
(5.200491 0.00040841151 0.0015169895)
(5.2013287 0.00041504557 0.0026371118)
(5.2026795 0.00040893399 0.0038497299)
(5.2045331 0.00038366032 0.0051178292)
(5.2068377 0.00038872147 0.0064408718)
(5.2095447 0.00040691561 0.0078603413)
(5.2126076 0.00039847105 0.0093659107)
(5.2159828 0.00037919063 0.010925953)
(5.2196231 0.00035160693 0.012526816)
(5.2234715 0.00031150972 0.014156247)
(5.2274828 0.00025782122 0.015795397)
(5.2315967 0.00018872315 0.017418188)
(5.2357543 0.00010392678 0.01899744)
(5.2398977 4.359251e-06 0.020505678)
(5.2439727 -0.00010804843 0.02191811)
(5.2479317 -0.00023066854 0.023215065)
(5.2517354 -0.00036054303 0.024383384)
(5.2553539 -0.00049480485 0.025416783)
(5.2587669 -0.00063100841 0.026315128)
(5.2619627 -0.00076734506 0.027082972)
(5.2649375 -0.00090269224 0.027727789)
(5.2676934 -0.001036547 0.028258283)
(5.2702373 -0.0011688812 0.028682806)
(5.2725787 -0.0012999853 0.029008241)
(5.2747289 -0.0014302891 0.029239369)
(5.2766999 -0.0015602077 0.029378611)
(5.2785037 -0.0016900999 0.029426123)
(5.2801514 -0.0018202084 0.029380093)
(5.2816536 -0.0019506022 0.029237109)
(5.2830199 -0.0020811962 0.028992575)
(5.2842587 -0.0022117785 0.028641107)
(5.2853779 -0.0023419868 0.028176911)
(5.290675 -0.0017371866 0.026989898)
(5.2892952 -0.0015986657 0.027334293)
(5.2877893 -0.0014598348 0.027559113)
(5.2861508 -0.0013211138 0.027669394)
(5.2843726 -0.0011827512 0.027669651)
(5.2824463 -0.0010449868 0.02756356)
(5.280363 -0.00090788605 0.027353616)
(5.2781127 -0.00077148131 0.02704094)
(5.2756851 -0.00063575324 0.026625035)
(5.2730694 -0.00050074047 0.026103726)
(5.2702558 -0.00036655996 0.025473384)
(5.2672359 -0.00023361854 0.024729454)
(5.2640046 -0.0001026467 0.023867319)
(5.2605608 2.5108949e-05 0.022883587)
(5.2569099 0.00014783874 0.021777656)
(5.2530647 0.0002632771 0.020553252)
(5.2490468 0.00036877225 0.019219743)
(5.2448873 0.00046163732 0.017792917)
(5.2406264 0.00053951648 0.016294879)
(5.2363126 0.00060076067 0.014752895)
(5.2320005 0.000644665 0.013197317)
(5.2277479 0.00067161186 0.011658896)
(5.2236132 0.00068291886 0.010165968)
(5.2196518 0.00068065347 0.0087422485)
(5.2159128 0.00066708494 0.0074047242)
(5.2124445 0.00064553202 0.0061641468)
(5.2092966 0.00062065684 0.0050277204)
(5.2065257 0.00059803378 0.0040014644)
(5.2041772 0.00057916967 0.0030832674)
(5.2023024 0.00056470285 0.0022591086)
(5.2009527 0.00055704767 0.0015197959)
(5.2001152 0.00055330958 0.00086287396)
(5.1988587 0.00069670962 0.00020913793)
(5.1996924 0.00070266873 0.00040806198)
(5.2010324 0.00071765661 0.0006780984)
(5.2028981 0.00074526323 0.0010420583)
(5.2052585 0.00078681444 0.0015231404)
(5.2080569 0.00083957741 0.0021406795)
(5.2112332 0.00089780735 0.0029051867)
(5.2147337 0.00095559679 0.0038198268)
(5.2185126 0.0010082002 0.0048830672)
(5.2225254 0.0010518011 0.0060879059)
(5.2267244 0.0010831239 0.0074202403)
(5.2310566 0.0010990788 0.008858203)
(5.2354657 0.0010970986 0.01037311)
(5.239895 0.0010754552 0.011931476)
(5.2442908 0.0010335939 0.013497816)
(5.2486048 0.00097216302 0.015037663)
(5.2527964 0.0008928934 0.016520293)
(5.256834 0.00079825383 0.017920703)
(5.2606948 0.00069105178 0.019220502)
(5.2643645 0.00057401268 0.020407847)
(5.2678361 0.00044958923 0.02147657)
(5.2711089 0.00031971978 0.022424826)
(5.274186 0.00018589551 0.023253523)
(5.277074 4.9143985e-05 0.023964912)
(5.2797809 -8.9839842e-05 0.024561465)
(5.2823152 -0.00023060817 0.02504508)
(5.2846856 -0.00037281916 0.025416584)
(5.2869001 -0.00051624794 0.025675575)
(5.288966 -0.0006606158 0.025820391)
(5.2908898 -0.00080562164 0.025848243)
(5.2926771 -0.00095091539 0.025755447)
(5.2943326 -0.0010960606 0.025537642)
(5.2962678 -0.00042726748 0.023806145)
(5.2943251 -0.00027769679 0.023891485)
(5.2922464 -0.00012824982 0.02384807)
(5.2900285 2.0594844e-05 0.023679658)
(5.2876679 0.00016843435 0.023389198)
(5.2851601 0.00031488468 0.022978663)
(5.2825 0.00045954863 0.022448944)
(5.2796818 0.00060193712 0.02179984)
(5.2766992 0.00074143263 0.021030229)
(5.2735459 0.00087715071 0.020138547)
(5.2702163 0.0010078892 0.019123476)
(5.2667067 0.0011320086 0.017985045)
(5.2630158 0.0012473687 0.016725969)
(5.2591469 0.0013513344 0.015353166)
(5.2551089 0.0014408832 0.013879315)
(5.2509174 0.0015129025 0.012323998)
(5.2465963 0.0015644898 0.01071412)
(5.2421776 0.0015934053 0.0090833224)
(5.2377013 0.0015985862 0.0074703168)
(5.2332142 0.0015803644 0.0059161167)
(5.2287683 0.001540523 0.0044607554)
(5.2244176 0.0014820922 0.0031399526)
(5.2202153 0.0014088958 0.0019823607)
(5.2162112 0.0013250916 0.0010079369)
(5.21245 0.0012349109 0.00022765882)
(5.2089726 0.0011429259 -0.00035539416)
(5.2058218 0.00105453 -0.00074460194)
(5.2030492 0.00097600424 -0.00094948717)
(5.2007152 0.00091318115 -0.0009879212)
(5.1988754 0.00086938863 -0.00088941929)
(5.1975558 0.00084393827 -0.00069313991)
(5.1967349 0.00083448898 -0.00043854148)
(5.193771 0.00096353178 -0.0010718504)
(5.194568 0.00097658166 -0.0017704703)
(5.1958499 0.0010124971 -0.0024244071)
(5.1976387 0.0010723145 -0.0029784959)
(5.1999113 0.0011550174 -0.0033777301)
(5.2026146 0.0012572335 -0.003582155)
(5.2056913 0.0013735422 -0.0035669464)
(5.2090931 0.0014974999 -0.0033172024)
(5.2127808 0.0016231091 -0.0028251998)
(5.2167174 0.0017450495 -0.0020903152)
(5.2208624 0.0018582094 -0.0011204791)
(5.2251703 0.00195746 6.6349823e-05)
(5.2295922 0.0020378265 0.0014418642)
(5.2340778 0.0020951046 0.0029686505)
(5.2385785 0.0021263546 0.0046028681)
(5.2430498 0.0021303261 0.0062978156)
(5.2474528 0.0021074319 0.0080077269)
(5.2517557 0.0020595881 0.0096911964)
(5.2559341 0.001989758 0.011313557)
(5.2599705 0.0019013719 0.012848077)
(5.2638541 0.0017979143 0.014276011)
(5.2675792 0.0016825904 0.015585606)
(5.2711439 0.0015581338 0.016770687)
(5.2745494 0.0014267403 0.017828997)
(5.2777982 0.0012900529 0.018760644)
(5.280894 0.0011493463 0.019566784)
(5.2838402 0.0010055072 0.020248714)
(5.2866402 0.00085920914 0.020807152)
(5.2892966 0.00071097928 0.021241886)
(5.2918116 0.00056126658 0.021551617)
(5.2941865 0.00041052942 0.021734028)
(5.2964224 0.00025924842 0.021785859)
(5.2947668 0.00095247836 0.019472893)
(5.2922381 0.0011022537 0.019280676)
(5.2895689 0.0012509492 0.018958175)
(5.2867608 0.0013980483 0.018508264)
(5.2838146 0.0015431061 0.017932772)
(5.2807308 0.0016855779 0.017232437)
(5.2775093 0.0018248659 0.016406942)
(5.2741496 0.0019601102 0.015455196)
(5.2706512 0.0020902245 0.014375886)
(5.2670137 0.0022135887 0.013168338)
(5.2632376 0.0023281977 0.011833686)
(5.2593251 0.002431398 0.01037638)
(5.2552808 0.0025199875 0.0088058798)
(5.2511134 0.0025902615 0.0071383498)
(5.2468359 0.0026384021 0.0053980539)
(5.2424672 0.0026607903 0.0036180695)
(5.2380321 0.0026545524 0.0018398426)
(5.2335617 0.0026180635 0.00011142277)
(5.229093 0.0025515575 -0.0015155266)
(5.2246672 0.0024571215 -0.0029896937)
(5.2203288 0.0023386954 -0.0042642821)
(5.216123 0.0022015006 -0.0053007724)
(5.2120934 0.0020514824 -0.0060714807)
(5.2082801 0.0018945992 -0.0065604253)
(5.2047186 0.0017366944 -0.0067625077)
(5.2014414 0.0015837107 -0.006681635)
(5.1984833 0.0014421854 -0.0063293401)
(5.1958882 0.0013186041 -0.0057253017)
(5.1937097 0.0012178359 -0.0049007562)
(5.1919967 0.0011431664 -0.0039054332)
(5.1907701 0.0010974626 -0.0028092249)
(5.1900077 0.0010811104 -0.0016821492)
(5.1854991 0.0011849834 -0.0022613509)
(5.1862171 0.001204099 -0.0037957376)
(5.1873728 0.0012585594 -0.0053127161)
(5.1889873 0.0013464359 -0.0067285295)
(5.1910429 0.0014629447 -0.0079599038)
(5.193495 0.0016050759 -0.0089481159)
(5.196295 0.0017684626 -0.00965613)
(5.1994038 0.0019466895 -0.0100603)
(5.2027915 0.0021328492 -0.010145935)
(5.2064306 0.0023204644 -0.0099063226)
(5.2102915 0.0025031649 -0.0093440646)
(5.2143402 0.0026743146 -0.0084732352)
(5.2185393 0.0028272549 -0.0073206464)
(5.2228493 0.0029559258 -0.0059253191)
(5.227231 0.0030556083 -0.0043360524)
(5.231647 0.0031234253 -0.0026075559)
(5.2360633 0.0031586608 -0.00079608584)
(5.2404498 0.0031624676 0.001044992)
(5.2447817 0.0031376616 0.0028686521)
(5.2490388 0.0030878749 0.0046364073)
(5.2532058 0.0030171411 0.006319205)
(5.2572716 0.0029294701 0.0078969201)
(5.2612282 0.0028284459 0.0093570603)
(5.2650701 0.0027170129 0.010693094)
(5.2687934 0.0025975202 0.011902591)
(5.2723951 0.0024717997 0.012985624)
(5.2758729 0.002341138 0.013943362)
(5.279224 0.0022065114 0.014777117)
(5.2824458 0.0020685833 0.015487566)
(5.2855352 0.0019279425 0.016074399)
(5.2884887 0.0017850431 0.016536149)
(5.2913027 0.001640384 0.016870176)
(5.2860644 0.0023102088 0.013988456)
(5.2829813 0.0024458655 0.013513239)
(5.2797617 0.0025790057 0.012915294)
(5.2764116 0.002709111 0.012197078)
(5.2729371 0.0028357634 0.011359831)
(5.269344 0.0029583403 0.010403602)
(5.2656379 0.0030761503 0.00932748)
(5.2618243 0.0031881815 0.0081301664)
(5.2579089 0.0032929665 0.0068107427)
(5.2538981 0.0033885366 0.0053698924)
(5.249799 0.0034723343 0.0038113094)
(5.2456205 0.003541195 0.0021435155)
(5.2413736 0.0035913494 0.00038171121)
(5.2370722 0.0036186082 -0.0014505705)
(5.2327336 0.0036189163 -0.0033202624)
(5.2283787 0.0035886356 -0.0051846474)
(5.2240321 0.0035253374 -0.0069923892)
(5.2197219 0.0034280916 -0.0086861866)
(5.2154791 0.0032982124 -0.010206731)
(5.2113364 0.0031391112 -0.01149711)
(5.2073272 0.002956136 -0.0125075)
(5.2034845 0.0027559226 -0.013199)
(5.199839 0.0025456363 -0.013545882)
(5.196418 0.0023323131 -0.013535816)
(5.193245 0.0021227198 -0.013168287)
(5.1903419 0.0019236898 -0.01245225)
(5.1877334 0.0017424024 -0.011404956)
(5.1854532 0.0015851497 -0.010053415)
(5.1835446 0.0014555114 -0.0084391445)
(5.1820473 0.0013561987 -0.0066279699)
(5.180976 0.0012943181 -0.0047161205)
(5.1803106 0.0012734565 -0.0028013816)
(5.1745171 0.0013450757 -0.0032971047)
(5.1751232 0.0013670064 -0.0055616787)
(5.1760997 0.0014347714 -0.0078371384)
(5.1774657 0.0015432365 -0.010013087)
(5.1792088 0.0016830819 -0.01198185)
(5.1812945 0.0018516618 -0.013672035)
(5.1836854 0.0020465144 -0.015038563)
(5.1863534 0.0022614774 -0.016051529)
(5.1892791 0.002489185 -0.016691771)
(5.1924465 0.0027225905 -0.016948796)
(5.1958382 0.0029547766 -0.016821529)
(5.1994337 0.0031784885 -0.016320756)
(5.2032095 0.0033863276 -0.015470967)
(5.2071394 0.0035713047 -0.014310384)
(5.2111962 0.0037277137 -0.01288889)
(5.215352 0.0038516956 -0.011264266)
(5.2195799 0.003941577 -0.0094975982)