/*--------------------------------*- C++ -*----------------------------------*\
| =========                 |                                                 |
| \\      /  F ield         | OpenFOAM: The Open Source CFD Toolbox           |
|  \\    /   O peration     | Version:  v2012                                 |
|   \\  /    A nd           | Website:  www.openfoam.com                      |
|    \\/     M anipulation  |                                                 |
\*---------------------------------------------------------------------------*/
FoamFile
{
    version     2.0;
    format      ascii;
    class       volScalarField;
    location    "0";
    object      p;
}
// * * * * * * * * * * * * * * * * * * * * * * * * * * * * * * * * * * * * * //

dimensions      [0 2 -2 0 0 0 0];


internalField   nonuniform List<scalar> 
49477
(
-0.16648019
-0.16380866
-0.16075769
-0.15742487
-0.15388382
-0.1501893
-0.1463821
-0.1424923
-0.13854071
-0.13454119
-0.13050361
-0.1264349
-0.1223384
-0.11821447
-0.11406241
-0.10988108
-0.10566817
-0.10142105
-0.097135906
-0.092801862
-0.088406884
-0.083950605
-0.079428853
-0.074824117
-0.07013269
-0.065289137
-0.060226104
-0.054898894
-0.049174832
-0.042810207
-0.035337956
-0.025878737
-0.01284878
0.0063606879
0.035071433
0.075061564
0.12236587
0.17028587
0.21306572
0.22364931
0.18763321
0.12201957
0.068028905
0.052122929
0.025306759
0.011966165
0.013391324
-0.0093421306
-0.01295034
-0.026829342
-0.024516485
-0.02343002
-0.021018453
-0.019362439
-0.018685412
-0.018414886
-0.018149493
-0.017892769
-0.017645648
-0.017397837
-0.017164997
-0.016968684
-0.016808238
-0.016680067
-0.016577126
-0.01649797
-0.016435861
-0.016387711
-0.016353029
-0.016332129
-0.016324107
-0.01633064
-0.01635367
-0.01640641
-0.016468376
-0.016560374
-0.016684875
-0.016845303
-0.017045066
-0.017258962
-0.017480469
-0.01770861
-0.017941064
-0.018178298
-0.018840287
-0.020530767
-0.022941084
-0.024000291
-0.026281782
-0.012357271
-0.0087129921
0.014059284
0.012624416
0.025974608
0.016417532
0.026506341
0.017823856
0.027355482
0.018574901
0.020097337
0.019529931
0.021503478
0.022704752
0.023315248
0.023316745
0.022718046
0.021523733
0.01955535
0.020126637
0.01860768
0.027392326
0.01786379
0.026550044
0.016464938
0.026029488
0.012670498
0.01409971
-0.0086763763
-0.012320213
-0.026246896
-0.023962036
-0.022900559
-0.020488886
-0.018796837
-0.018133978
-0.017895434
-0.017661907
-0.017432583
-0.017209426
-0.016994745
-0.016796968
-0.01663482
-0.016508447
-0.016412406
-0.016344326
-0.016305466
-0.016281454
-0.016274097
-0.016281487
-0.01630012
-0.016331997
-0.01637896
-0.016441437
-0.016520629
-0.016621634
-0.016749657
-0.016909582
-0.017105527
-0.017337609
-0.017585314
-0.017832671
-0.018089369
-0.018354613
-0.018624763
-0.019301408
-0.020958437
-0.023370974
-0.024459201
-0.026775012
-0.012893087
-0.0092853645
0.013453654
0.012037174
0.02539514
0.015814498
0.02587
0.017199842
0.026707038
0.017940153
0.019453591
0.0188873
0.020853695
0.02204534
0.022643362
0.022636673
0.022031413
0.020832287
0.018856526
0.019416597
0.017893838
0.026653907
0.017140008
0.025803239
0.015741933
0.0150876
0.029183092
0.033604658
0.038721872
0.034045429
0.032733924
0.03215308
0.033352592
0.034520867
0.035113365
0.035122748
0.034536781
0.033374836
0.03218561
0.032774596
0.034093349
0.038776606
0.033664959
0.029246868
0.01515507
0.01598686
0.02866765
0.037341423
0.039896348
0.036673053
0.033876015
0.03267804
0.033126237
0.03420723
0.0347649
0.034754164
0.034190815
0.03310501
0.032646115
0.033836009
0.036624715
0.039842851
0.037283515
0.028607339
0.015924522
0.00065206451
0.016663486
0.026183399
0.027809796
0.025170569
0.021886229
0.020373138
0.020204383
0.021124878
0.021634651
0.021643416
0.021141152
0.020224342
0.020403054
0.021925103
0.025216577
0.027861765
0.026238908
0.016722005
0.00071155123
-0.0060747501
0.0048320831
0.011851783
0.012232512
0.0085188802
0.00437548
0.0024713065
0.0025519132
0.0034147951
0.0038696931
0.0038619274
0.0033992159
0.0025302527
0.0024403321
0.0043356709
0.0084710985
0.012179365
0.011796001
0.0047748576
-0.0061325474
-0.01864238
-0.0069194002
-0.00041491824
-0.00069610345
-0.0045585536
-0.0088282324
-0.010791302
-0.010595861
-0.0097698208
-0.0093396832
-0.0093322636
-0.0097545054
-0.010573687
-0.010760547
-0.0087894002
-0.0045161455
-0.00064351894
-0.0003592604
-0.0068629063
-0.018586259
-0.020513376
-0.012883556
-0.0068866872
-0.0058274905
-0.009360475
-0.013620319
-0.015496901
-0.015152183
-0.014337153
-0.013927695
-0.01393498
-0.014352637
-0.015174809
-0.015528247
-0.01366093
-0.0094091825
-0.0058809571
-0.0069434921
-0.012941041
-0.020571046
-0.019185191
-0.014002101
-0.0061391165
-0.00474848
-0.0082060414
-0.01217262
-0.013866473
-0.013402692
-0.012670595
-0.012304933
-0.012297598
-0.012654746
-0.013379507
-0.013835323
-0.012132258
-0.0081573983
-0.0046947974
-0.0060818613
-0.01394473
-0.019126422
-0.015107925
-0.0074353122
-0.00088924769
-0.001735165
-0.0057215841
-0.0096475817
-0.011238535
-0.010760194
-0.010101658
-0.0097830572
-0.009790351
-0.010118014
-0.010784149
-0.011270075
-0.0096883566
-0.0057707313
-0.0017889995
-0.00094642938
-0.007493823
-0.015167496
-0.012469532
-0.0025107927
0.0019237289
0.00034970495
-0.0037854033
-0.0077222175
-0.0092618328
-0.0088013579
-0.0081853195
-0.0078840876
-0.0078782984
-0.0081693277
-0.0087772563
-0.0092302347
-0.0076813336
-0.003736101
0.00040369627
0.0019811157
-0.0024512437
-0.012409001
-0.01171523
-0.0017688729
0.0029597635
0.0015046562
-0.0027188391
-0.006661803
-0.0082329777
-0.0077975556
-0.0072112067
-0.0069326852
-0.0069366206
-0.0072263583
-0.0078214949
-0.0082642042
-0.0067024766
-0.0027687117
0.0014502745
0.0029024027
-0.0018282114
-0.011775054
-0.011382161
-0.0014770522
0.0032853539
0.0018492176
-0.0020238258
-0.0056949676
-0.0073375142
-0.006916583
-0.0063302631
-0.0060495657
-0.0060463722
-0.0063158958
-0.0068931393
-0.0073064878
-0.0056541025
-0.0019694997
0.0019036052
0.0033427521
-0.001417844
-0.011322522
-0.010844365
-0.00100086
0.003820045
0.0025057812
-0.0014169163
-0.0048945264
-0.0065163965
-0.0060979347
-0.0055228888
-0.0052968566
-0.0053004802
-0.0055366263
-0.0061206863
-0.006547244
-0.0049348325
-0.0014665561
0.002451962
0.0037626814
-0.0010600736
-0.010904045
-0.010488398
-0.00060663208
0.0042772773
0.0030422684
-0.00090226161
-0.004320995
-0.005883859
-0.0054515241
-0.0048717722
-0.0046814172
-0.0046777139
-0.0048585439
-0.0054292924
-0.0058533211
-0.0042809973
-0.00085344365
0.0030959342
0.0043348772
-0.00054733476
-0.010428679
-0.01007699
-0.00014393749
0.0047852673
0.0035447521
-0.00036005635
-0.0037977455
-0.005326644
-0.0048958952
-0.004323464
-0.0041464918
-0.0041502776
-0.0043363131
-0.0049176981
-0.0053568324
-0.0038374314
-0.00040850199
0.0034909664
0.0047275084
-0.00020334415
-0.010137018
-0.0098317908
0.00013483245
0.0050946953
0.0037945528
-2.5904452e-05
-0.0034820914
-0.0049544613
-0.0045036459
-0.0039160519
-0.0037172516
-0.00371336
-0.0039034267
-0.0044822303
-0.0049246564
-0.0034428052
2.2410671e-05
0.0038483097
0.0051520921
0.00019331443
-0.0097722452
-0.0095112491
0.00044814578
0.0054415068
0.0040798055
0.00029704646
-0.0032997989
-0.004637354
-0.00416683
-0.0035780447
-0.0033716826
-0.0033756508
-0.0035904226
-0.0041879871
-0.0046667714
-0.0033381834
0.00024900421
0.0040261736
0.0053855696
0.00039728616
-0.0095699474
-0.0093499732
0.00064051811
0.00561752
0.0042078235
0.00045585059
-0.0032438009
-0.0044515814
-0.0039459856
-0.0033388113
-0.0031100039
-0.0031059857
-0.0033265711
-0.0039250845
-0.0044223679
-0.0032057613
0.00050340304
0.0042607957
0.0056741775
0.00069813316
-0.0092913993
-0.0091196706
0.00087744949
0.0058554284
0.0044042896
0.00066331595
-0.0031322437
-0.0042572711
-0.0037383391
-0.0031317856
-0.0029001913
-0.0029042515
-0.003143945
-0.0037590214
-0.0042860192
-0.0031698562
0.00061607498
0.0043517453
0.0057990595
0.00081995865
-0.0091776165
-0.0090414856
0.00096015509
0.0059409606
0.0044658921
0.00074153243
-0.0031108073
-0.0041575821
-0.0036137539
-0.0029924532
-0.0027448308
-0.0027407614
-0.0029804256
-0.0035932265
-0.0041289472
-0.0030734461
0.00078840283
0.0045179068
0.0059966787
0.0010170127
-0.0089841382
-0.0088776196
0.0011264296
0.0061073089
0.0046076407
0.00088610667
-0.0030277718
-0.0040292449
-0.0034803788
-0.0028627544
-0.0026173327
-0.0026214007
-0.002874689
-0.0035007264
-0.0040577442
-0.0030651796
0.00083951622
0.004556003
0.0060521943
0.0010694127
-0.0089351864
-0.0088506668
0.0011559754
0.0061385311
0.0046261543
0.0009149453
-0.0030325042
-0.0039808345
-0.0034132714
-0.0027835831
-0.0025263404
-0.0025222909
-0.0027717347
-0.0033930521
-0.0039525675
-0.0029953492
0.0009614369
0.0046775824
0.0061938091
0.0012121041
-0.0087942492
-0.0087300517
0.0012783445
0.0062606199
0.0047306376
0.0010179537
-0.0029761533
-0.0038953261
-0.0033267327
-0.0027024729
-0.0024502894
-0.0024543057
-0.0027142517
-0.0033468543
-0.0039233754
-0.0030126893
0.00097180551
0.0046792247
0.0062047585
0.0012226248
-0.0087857602
-0.0087372024
0.001272966
0.0062561971
0.0047181378
0.0010123546
-0.0030068185
-0.0038831101
-0.0032984541
-0.0026634133
-0.0024017117
-0.0023977324
-0.0026516575
-0.0032784272
-0.0038552353
-0.00297041
0.0010579399
0.0047686196
0.0063105676
0.0013277758
-0.0086823361
-0.0086498399
0.0013617176
0.0063446984
0.0047922959
0.0010827385
-0.002979317
-0.0038306703
-0.0032460968
-0.0026172227
-0.0023624132
-0.0023663738
-0.0026290729
-0.0032661742
-0.0038584388
-0.0030153972
0.0010376943
0.004742921
0.0062926098
0.0013086345
-0.0087025303
-0.0086828689
0.0013286942
0.0063115713
0.0047529387
0.0010487781
-0.0030370224
-0.0038482776
-0.0032490789
-0.0026103532
-0.0023473357
-0.0023433324
-0.0025981622
-0.0032287233
-0.0038202467
-0.003000349
0.0010938084
0.0048019871
0.0063638792
0.0013809238
-0.0086321529
-0.0086270733
0.0013863942
0.006368434
0.0047972342
0.0010920691
-0.0030229196
-0.0038223095
-0.0032261465
-0.0025944768
-0.0023405886
-0.0023448025
-0.0026074949
-0.0032469901
-0.0038499442
-0.0030549768
0.0010478803
0.0047481674
0.0063150461
0.0013338241
-0.0086777802
-0.0086877314
0.0013235335
0.0063031744
0.0047272866
0.0010337033
-0.0030743951
-0.0038656906
-0.0032620099
-0.0026228543
-0.0023604418
-0.0023558491
-0.0026083451
-0.0032406603
-0.0038393525
-0.0030451014
0.0010766084
0.0047761922
0.0063572907
0.0013770268
-0.0086363726
-0.0086627475
0.0013503219
0.006328261
0.0047376501
0.0010446153
-0.0030807438
-0.0038710754
-0.0032725956
-0.002641334
-0.0023905728
-0.0023941238
-0.0026534725
-0.0032919425
-0.0038965462
-0.0031100158
0.0010032908
0.0046906797
0.0062772294
0.0012976737
-0.0087146213
-0.008764057
0.0012515534
0.0062319982
0.0046405681
0.00095252036
-0.0031670256
-0.0039471251
-0.0033418253
-0.0027046507
-0.0024506494
-0.0024466235
-0.002691156
-0.0033216295
-0.0039219685
-0.0031389883
0.00099292522
0.0046867755
0.0062791226
0.0013031747
-0.0087071267
-0.0087795137
0.0012302372
0.0062060574
0.0046320278
0.000919672
-0.0032150028
-0.0039994566
-0.0034015998
-0.0027734568
-0.0025342154
-0.0025384074
-0.0027873007
-0.0034220554
-0.0040250902
-0.0032445577
0.00087860526
0.004585874
0.0061570843
0.0011789611
-0.0088335858
-0.0089322244
0.0010768346
0.0060531592
0.0045104131
0.00078503729
-0.0032888557
-0.0041235689
-0.0035329717
-0.0029034413
-0.0026630226
-0.0026587591
-0.0028897814
-0.0035126958
-0.0040973132
-0.0032546995
0.00082646878
0.0045555295
0.0061003186
0.001126712
-0.0088805396
-0.0090178422
0.00098597557
0.005957161
0.0044502312
0.00070315546
-0.0032863042
-0.0042267796
-0.0036645561
-0.0030499543
-0.0028307381
-0.0028350413
-0.0030630985
-0.0036842904
-0.0042527484
-0.0033206981
0.00066215368
0.0044059134
0.0059097072
0.00093663001
-0.0090673225
-0.0092500276
0.00074592978
0.005715993
0.0042642325
0.00049582008
-0.0033620462
-0.0044276002
-0.003889838
-0.0032798712
-0.0030683434
-0.0030640328
-0.0032675156
-0.0038708662
-0.0044021667
-0.0033284167
0.00053612936
0.0043084555
0.0057629997
0.00079520567
-0.009199792
-0.0094324608
0.0005359817
0.0055035558
0.004117715
0.00030896365
-0.0033905798
-0.0046418835
-0.0041496029
-0.0035597069
-0.0033750988
-0.0033791852
-0.0035711244
-0.0041677271
-0.0046666834
-0.0034232859
0.00026949918
0.0040737799
0.0054569406
0.00049410258
-0.0094806061
-0.0097524586
0.00019349206
0.0051249831
0.0038183023
-4.3464496e-05
-0.0035402814
-0.0049987521
-0.0045413796
-0.0039574696
-0.0037827959
-0.0037792496
-0.0039470059
-0.0045240034
-0.0049745898
-0.0035081239
-4.6007043e-06
0.0038613985
0.0051711043
0.00024064697
-0.0097040887
-0.010030618
-0.0001325568
0.0047589278
0.0035121193
-0.00043995076
-0.0038743712
-0.0054491539
-0.0050206898
-0.0044495903
-0.0042814196
-0.004284394
-0.0044594385
-0.0050375948
-0.0054727964
-0.0039056659
-0.00047825703
0.0034700368
0.0047136944
-0.00017931294
-0.010077974
-0.010466079
-0.00060125513
0.004233569
0.0029203965
-0.00099845128
-0.0044700905
-0.0060953415
-0.0056697242
-0.0050883623
-0.004868121
-0.004865616
-0.0050786925
-0.0056530008
-0.0060720791
-0.0044393338
-0.00096059866
0.0029618519
0.0042779172
-0.00055536978
-0.010419602
-0.010867487
-0.00093523413
0.0038397868
0.0024002744
-0.0014696268
-0.0051597845
-0.0068198535
-0.00640605
-0.0058278542
-0.0055588002
-0.0055602468
-0.0058374773
-0.006422841
-0.0068426822
-0.0051900568
-0.0015069925
0.0023594097
0.0037961411
-0.00098023411
-0.010912929
-0.011268381
-0.0012920598
0.0034585266
0.0020110918
-0.002220806
-0.0061607753
-0.0077302121
-0.0072883519
-0.0066934239
-0.0064050031
-0.0064033742
-0.0066834615
-0.0072714028
-0.0077075085
-0.006130874
-0.0021843829
0.0020510118
0.0035008411
-0.001248083
-0.011224453
-0.011922699
-0.0019348155
0.0025043205
0.00093042154
-0.0032100333
-0.0071593666
-0.0087055977
-0.0082503188
-0.0076401184
-0.0073473778
-0.0073494668
-0.0076504913
-0.0082671961
-0.00872826
-0.0071889473
-0.0032456935
0.00089146631
0.0024628568
-0.0019778085
-0.011966336
-0.014659749
-0.0069661153
-0.00040250421
-0.0012407446
-0.0052253535
-0.0091558638
-0.010744207
-0.010257143
-0.0095891889
-0.0092605989
-0.0092578299
-0.0095782543
-0.010240134
-0.010721651
-0.009126741
-0.0051904141
-0.0012026357
-0.00036201446
-0.0069248481
-0.014617833
-0.018633513
-0.013433701
-0.0055624437
-0.0041569243
-0.0076253937
-0.011608541
-0.013312727
-0.01285427
-0.012126394
-0.011767109
-0.011771458
-0.012137932
-0.012871147
-0.013335017
-0.011637065
-0.0076595239
-0.0041943445
-0.0056024423
-0.013473369
-0.018674076
-0.020040943
-0.01237932
-0.0063716466
-0.0053077858
-0.008839522
-0.013108493
-0.014980059
-0.014632913
-0.013813843
-0.013396395
-0.013390666
-0.013801789
-0.01461608
-0.014957502
-0.013079906
-0.0088052263
-0.0052709748
-0.0063325768
-0.012340168
-0.020001955
-0.01803947
-0.0062947145
0.00022422918
-5.3009898e-05
-0.0038912272
-0.0082316641
-0.01019868
-0.010005139
-0.0091755124
-0.008749781
-0.0087560137
-0.0091880276
-0.010022036
-0.010221078
-0.0082595746
-0.0039280242
-8.960836e-05
0.00018616253
-0.0063330282
-0.01807648
-0.0055324192
0.0053962309
0.012434398
0.012822304
0.0091018078
0.0049440998
0.0030374671
0.0031247895
0.0039963678
0.0044601739
0.0044662387
0.0040094965
0.0031419294
0.0030605898
0.0049724555
0.009135434
0.012858627
0.0124724
0.0054349593
-0.0054942425
0.0013221397
0.017361636
0.026905404
0.0285289
0.025860577
0.022550588
0.021021838
0.0208486
0.02177928
0.022282975
0.022278666
0.021765768
0.020832163
0.02099891
0.022522465
0.02582871
0.028493273
0.026867666
0.01732247
0.0012833484
0.016587571
0.029293625
0.037998058
0.040562809
0.037329536
0.034524248
0.033322668
0.033762501
0.034849881
0.035418964
0.035419707
0.034863341
0.03378092
0.033347665
0.034553836
0.037363658
0.040599973
0.038037604
0.029334082
0.016628559
0.015806647
0.029940098
0.034381209
0.039508291
0.034816566
0.033490777
0.032895244
0.034076042
0.035238652
0.035823967
0.035822986
0.035224744
0.034056092
0.032869191
0.033460018
0.034782212
0.039470177
0.034340265
0.029897447
0.015761917
0.058911521
0.036214009
0.06332048
0.11140684
0.17003441
0.20367316
0.19960315
0.16851616
0.12616313
0.083482216
0.046520666
0.019372022
0.0010635387
-0.011175267
-0.019964822
-0.026907158
-0.032824053
-0.038140587
-0.043088854
-0.047804541
-0.052372781
-0.05684879
-0.061280158
-0.065696656
-0.070106083
-0.074522367
-0.078965172
-0.08345066
-0.087988162
-0.092582479
-0.097248681
-0.10200388
-0.10684902
-0.11178743
-0.11683567
-0.12200372
-0.12729559
-0.13272122
-0.13829463
-0.14402968
-0.14993874
-0.15604054
-0.16236912
-0.093034038
-0.094231262
-0.09536662
-0.096363409
-0.097165136
-0.097730506
-0.098026858
-0.098058723
-0.097819568
-0.097285428
-0.096462283
-0.095357766
-0.093978682
-0.092333598
-0.090434644
-0.088294255
-0.085920781
-0.083320987
-0.08050574
-0.077486976
-0.074268961
-0.070859002
-0.067246164
-0.063402398
-0.059316932
-0.054962633
-0.050265478
-0.045097768
-0.039226626
-0.032194728
-0.023128703
-0.010446834
0.0084582583
0.036905977
0.076662412
0.12374537
0.17144732
0.21402776
0.22442646
0.18823882
0.12247396
0.068356666
0.052348511
0.052680235
0.098110186
0.15728534
0.2078808
0.22306856
0.20622157
0.16689826
0.11972768
0.074438611
0.03621926
0.0084316857
-0.010212626
-0.022802291
-0.031853541
-0.038932823
-0.044875895
-0.050110079
-0.054857757
-0.059250252
-0.063369124
-0.06723485
-0.070863736
-0.074294126
-0.077532973
-0.080567388
-0.083393563
-0.086006221
-0.08839588
-0.090553462
-0.092468373
-0.094129555
-0.095526911
-0.096650902
-0.097493704
-0.098048674
-0.098311725
-0.098296699
-0.098015871
-0.097472656
-0.096689955
-0.095708351
-0.094583706
-0.09339095
-0.092228384
-0.093004621
-0.094174209
-0.095356277
-0.096456773
-0.097404346
-0.098146712
-0.098648186
-0.098888701
-0.098859207
-0.098548289
-0.097948294
-0.097062432
-0.095896805
-0.094460228
-0.092762149
-0.090811786
-0.088619842
-0.086197422
-0.083553904
-0.080696663
-0.077629398
-0.074355868
-0.070887169
-0.067217226
-0.063303417
-0.059124983
-0.054659904
-0.049819834
-0.044472702
-0.038409659
-0.03125639
-0.022317589
-0.010204918
0.0074965133
0.033251075
0.068118501
0.11125263
0.15932857
0.20352515
0.23274686
0.235805
0.20067083
0.14595297
0.085687448
0.093657868
0.19099017
0.24891704
0.26651391
0.2470327
0.20570045
0.15426176
0.10315729
0.06004101
0.027988523
0.0050219172
-0.010950115
-0.022204387
-0.030796402
-0.037891873
-0.044020908
-0.049469222
-0.054412564
-0.058971086
-0.063227129
-0.067205007
-0.070938621
-0.074468898
-0.077795411
-0.080914243
-0.083822906
-0.086518194
-0.088993884
-0.091241169
-0.09324974
-0.095009597
-0.096511343
-0.097745348
-0.098702634
-0.099376892
-0.099765649
-0.0998724
-0.099704802
-0.099273502
-0.098597127
-0.097706612
-0.096648344
-0.095487162
-0.094309608
-0.096235328
-0.097416396
-0.098540773
-0.099532979
-0.10033759
-0.10091553
-0.10124088
-0.10129799
-0.10107826
-0.10057714
-0.099794112
-0.098732976
-0.097400416
-0.095805148
-0.093956777
-0.091864719
-0.089538397
-0.086987018
-0.084218425
-0.081238001
-0.07804801
-0.074649941
-0.071042529
-0.067229016
-0.063174538
-0.05883944
-0.054197026
-0.049182476
-0.043705185
-0.037641726
-0.030808498
-0.022827059
-0.012722431
0.0014265621
0.022232095
0.05307523
0.097724697
0.15268085
0.21087267
0.2613757
0.29163328
0.2818206
0.22141207
0.11637518
0.10861253
0.2312417
0.2992109
0.30784547
0.27346689
0.21719191
0.15355157
0.094959746
0.048291615
0.017365274
-0.0023293664
-0.015086669
-0.024077661
-0.031345271
-0.037777814
-0.043650442
-0.049066394
-0.054094024
-0.058788519
-0.063189828
-0.06732155
-0.071222006
-0.074915717
-0.078399446
-0.081676997
-0.08474704
-0.087608506
-0.090256889
-0.092685293
-0.094885561
-0.096848898
-0.0985662
-0.1000281
-0.10122583
-0.10215204
-0.10280143
-0.10317177
-0.10326424
-0.10308397
-0.10264208
-0.10195798
-0.10106189
-0.099997809
-0.098827119
-0.10208165
-0.10321598
-0.10418744
-0.10495113
-0.10547615
-0.10574239
-0.10573811
-0.10545783
-0.1049007
-0.10406902
-0.1029676
-0.10160329
-0.099984167
-0.098119083
-0.096017165
-0.093687062
-0.0911368
-0.088373579
-0.085403392
-0.082229841
-0.078853661
-0.075275993
-0.071493345
-0.067505019
-0.063303464
-0.058857088
-0.054144662
-0.04915496
-0.043863375
-0.038242129
-0.032230673
-0.025594355
-0.017451964
-0.0055247031
0.013868252
0.045477553
0.093932461
0.15516433
0.22262729
0.28182224
0.31520068
0.30182099
0.22823571
0.10744665
0.10295849
0.22115412
0.29897051
0.31748517
0.28618736
0.22603406
0.15667637
0.093853878
0.044025658
0.011613491
-0.0078988363
-0.019446185
-0.027061019
-0.033235229
-0.038890217
-0.04426679
-0.049415312
-0.05434197
-0.059048948
-0.063526383
-0.067789568
-0.071859844
-0.075731694
-0.0794072
-0.082888479
-0.086174852
-0.089265288
-0.092156797
-0.094844324
-0.097321631
-0.099581505
-0.10161584
-0.10341581
-0.1049725
-0.10627719
-0.10732159
-0.10809847
-0.10860215
-0.10882893
-0.10877807
-0.10845313
-0.10786335
-0.10702548
-0.10596632
-0.11043572
-0.11136886
-0.11202476
-0.11239525
-0.11247796
-0.1122746
-0.11178985
-0.11103055
-0.11000479
-0.10872145
-0.10718984
-0.10541948
-0.1034196
-0.10119909
-0.098766347
-0.09612883
-0.093292925
-0.090263919
-0.087045879
-0.083641403
-0.080051731
-0.076277213
-0.072317337
-0.068171581
-0.063848567
-0.05934441
-0.054650886
-0.049783255
-0.044758216
-0.039576208
-0.034179099
-0.028298665
-0.020959401
-0.0095186544
0.010267269
0.043345546
0.094034067
0.15773231
0.22786747
0.28769469
0.31659505
0.2948176
0.21693413
0.10364539
0.1049318
0.21551496
0.29216166
0.31519655
0.28785754
0.22861187
0.15828411
0.094197942
0.04303457
0.0095021359
-0.010542337
-0.0220007
-0.029224927
-0.034946184
-0.040187674
-0.045246255
-0.050192207
-0.055025429
-0.059717489
-0.064253784
-0.06863666
-0.072855487
-0.076902246
-0.080775459
-0.084474605
-0.087999288
-0.091348562
-0.094520482
-0.097511897
-0.10031847
-0.10293471
-0.1053539
-0.1075682
-0.1095689
-0.11134646
-0.11289049
-0.1141899
-0.11523312
-0.11600806
-0.11650235
-0.11670362
-0.11659984
-0.11617968
-0.11543323
-0.12088338
-0.12137649
-0.12150513
-0.12129548
-0.12077104
-0.11995289
-0.11886002
-0.1175095
-0.11591667
-0.11409529
-0.11205771
-0.10981484
-0.10737627
-0.10475035
-0.10194422
-0.098963733
-0.095813429
-0.092496633
-0.089015492
-0.085371081
-0.081563694
-0.077593349
-0.073460685
-0.069167977
-0.064723308
-0.060142354
-0.05542597
-0.050589429
-0.045664625
-0.040650083
-0.035467666
-0.029803123
-0.022603653
-0.011100736
0.0090975196
0.042862542
0.094236781
0.15845687
0.22878381
0.28766279
0.31434276
0.29106655
0.21539654
0.10590705
0.10589833
0.21538183
0.29102821
0.31428648
0.28759928
0.22870918
0.15836342
0.094132107
0.042754702
0.0089639773
-0.011273058
-0.022796255
-0.030013846
-0.035707106
-0.040923705
-0.045976269
-0.050943469
-0.055827594
-0.060598221
-0.065239451
-0.069750606
-0.074118295
-0.078335125
-0.082399484
-0.086311694
-0.090072758
-0.093683456
-0.097143783
-0.1004527
-0.10360799
-0.10660615
-0.10944227
-0.11211004
-0.11460166
-0.11690781
-0.1190174
-0.12091734
-0.12259236
-0.1240247
-0.12519364
-0.12607499
-0.12664042
-0.12685655
-0.12668384
-0.13270059
-0.13249289
-0.13188704
-0.13093221
-0.12966891
-0.12813069
-0.12634541
-0.12433627
-0.12212261
-0.11972055
-0.11714339
-0.11440206
-0.11150536
-0.10846031
-0.10527233
-0.10194529
-0.098481588
-0.094882291
-0.091147237
-0.087275241
-0.083264015
-0.079110907
-0.074813616
-0.070371628
-0.065789967
-0.061074415
-0.056221721
-0.051246661
-0.046174714
-0.041003731
-0.035662409
-0.029853912
-0.022555416
-0.011030527
0.0090812342
0.042676289
0.093889791
0.15801964
0.22839031
0.28766986
0.31504372
0.29205378
0.21544906
0.10489424
0.10357892
0.21681561
0.29464186
0.3163561
0.28739758
0.22750603
0.15730444
0.093528505
0.042742542
0.0095666367
-0.010312239
-0.021861565
-0.029329543
-0.035355603
-0.040916543
-0.046283049
-0.051515082
-0.056616059
-0.061570439
-0.066368354
-0.071020269
-0.075531948
-0.079902925
-0.084136815
-0.088238629
-0.092213039
-0.096064602
-0.099795249
-0.10340645
-0.10689832
-0.11026958
-0.11351742
-0.11663742
-0.11962346
-0.12246744
-0.12515896
-0.12768489
-0.13002888
-0.13217076
-0.1340859
-0.13574417
-0.13710876
-0.13813479
-0.13876729
-0.14468733
-0.14360996
-0.14215387
-0.14037656
-0.13832521
-0.13603845
-0.13354765
-0.13087811
-0.12805022
-0.12508017
-0.12198056
-0.11876109
-0.11542898
-0.11198941
-0.10844575
-0.10479974
-0.10105159
-0.097200039
-0.093242646
-0.089176686
-0.084995363
-0.080691684
-0.076257662
-0.071685466
-0.066970698
-0.062094004
-0.057032488
-0.051785164
-0.046352834
-0.040724184
-0.034844777
-0.028469932
-0.020676106
-0.0089801711
0.010650865
0.043193994
0.093162796
0.15609448
0.2255427
0.2857809
0.31715886
0.2987339
0.22099486
0.10286582
0.10733406
0.22804075
0.30152979
0.31480106
0.28131826
0.22201556
0.15443874
0.093074252
0.044446157
0.01267675
-0.006868184
-0.018983725
-0.027349368
-0.034235602
-0.04052669
-0.046462092
-0.052107098
-0.05749538
-0.06265255
-0.067593112
-0.07235389
-0.076970957
-0.081453796
-0.085813835
-0.090061459
-0.094206236
-0.098256224
-0.10221526
-0.10608666
-0.1098724
-0.11357322
-0.11718842
-0.12071564
-0.12415068
-0.12748723
-0.13071641
-0.13382627
-0.13680105
-0.13962048
-0.14225895
-0.14468427
-0.14685662
-0.14872742
-0.15023811
-0.15518221
-0.15328454
-0.1510415
-0.14851372
-0.14575182
-0.14279715
-0.13968285
-0.13643486
-0.13307329
-0.12961344
-0.12606658
-0.12244078
-0.11874149
-0.11497198
-0.11113374
-0.1072267
-0.10324925
-0.099198729
-0.095071119
-0.090861703
-0.086562049
-0.082160572
-0.077645649
-0.07300327
-0.068219318
-0.063242896
-0.058023563
-0.052529022
-0.046698374
-0.040457129
-0.033696824
-0.026136842
-0.016884339
-0.0039021646
0.015981335
0.047087744
0.093938401
0.15269189
0.21647407
0.27288012
0.30738464
0.29886818
0.23100912
0.10847694
0.11621853
0.22114758
0.28143737
0.29111927
0.26072124
0.21006731
0.15171226
0.096572068
0.051726877
0.020687145
-0.00033551167
-0.014739953
-0.025138049
-0.033446435
-0.040647786
-0.04712513
-0.05306777
-0.058606602
-0.063840403
-0.068816364
-0.073598725
-0.078248239
-0.082778481
-0.087206583
-0.091543865
-0.095803121
-0.099991991
-0.1041159
-0.10817953
-0.1121862
-0.11613797
-0.1200355
-0.123878
-0.127663
-0.13138582
-0.13503908
-0.13861206
-0.14208984
-0.14545236
-0.14867302
-0.15171727
-0.15454119
-0.15709032
-0.15929883
-0.16244337
-0.16001426
-0.15723811
-0.15418942
-0.15092832
-0.14750214
-0.14394735
-0.14029145
-0.13655474
-0.13275186
-0.12889306
-0.12498525
-0.12103253
-0.11703673
-0.11299808
-0.10891551
-0.10478664
-0.10060772
-0.096373913
-0.092079717
-0.087717023
-0.083276625
-0.078743884
-0.074101937
-0.069336294
-0.064389612
-0.059192927
-0.053678893
-0.047726075
-0.041148552
-0.033654718
-0.024707849
-0.013139036
0.0031129469
0.026322267
0.058582991
0.10190382
0.153208
0.20482648
0.24632564
0.26596079
0.24850408
0.19070052
0.09348236
0.085497594
0.14564592
0.20023576
0.23522403
0.23200194
0.20260402
0.15821773
0.10993077
0.066582989
0.03149685
0.0054864205
-0.012510524
-0.024953515
-0.034266146
-0.041840051
-0.048375867
-0.05425431
-0.059697073
-0.064836548
-0.069740347
-0.074474122
-0.079103409
-0.083637146
-0.088081264
-0.092457393
-0.096774752
-0.10103885
-0.10525501
-0.10942853
-0.11356349
-0.11766233
-0.12172631
-0.1257556
-0.1297489
-0.13370251
-0.13760977
-0.1414607
-0.1452409
-0.14892972
-0.15249867
-0.15590933
-0.15911092
-0.16203716
-0.16460339
-0.15735798
-0.14881203
-0.14108257
-0.13404888
-0.12760461
-0.12165706
-0.116127
-0.11094582
-0.10605295
-0.10139671
-0.096935265
-0.092632882
-0.088456637
-0.084377934
-0.08037358
-0.076423285
-0.072508298
-0.068612237
-0.064718115
-0.060806967
-0.056866303
-0.052880892
-0.048823308
-0.044654694
-0.040323623
-0.035756344
-0.030821372
-0.025276247
-0.018659121
-0.010089622
0.0020270546
0.020297097
0.048065212
0.087152664
0.13355685
0.18043207
0.22231671
0.23169486
0.19405524
0.12695448
0.071550469
0.054271075
0.036351059
0.022124198
-0.029066058
-0.064624762
-0.11153646
-0.12445661
-0.12678405
-0.11758544
-0.10875635
-0.10142079
-0.09599462
-0.092128963
-0.089471702
-0.087628315
-0.086307241
-0.085336378
-0.084624328
-0.08410434
-0.083728404
-0.083461878
-0.083277195
-0.083175175
-0.083130026
-0.083129973
-0.083178426
-0.083275484
-0.08342428
-0.08363088
-0.083905778
-0.084265839
-0.084735386
-0.085348815
-0.086153244
-0.087217795
-0.088622467
-0.090531571
-0.093252142
-0.097183621
-0.10269164
-0.11012305
-0.11904413
-0.12827486
-0.12593874
-0.11305979
-0.066259852
-0.030788507
0.020269978
0.034444648
0.060355404
0.026252544
-0.030975519
-0.097737139
-0.16166303
-0.19849911
-0.21084722
-0.20288643
-0.18906116
-0.17482432
-0.16304625
-0.15439171
-0.14833691
-0.14413075
-0.14115883
-0.13900958
-0.13742992
-0.13625102
-0.13536249
-0.1346874
-0.13417644
-0.13379899
-0.13353063
-0.1333564
-0.13327257
-0.13328174
-0.13337937
-0.13358513
-0.13394401
-0.13445764
-0.13518522
-0.13620809
-0.137636
-0.13963779
-0.14247656
-0.14656609
-0.15251615
-0.16107417
-0.17274536
-0.18679763
-0.20048329
-0.20838561
-0.1960116
-0.15907266
-0.094970843
-0.028006418
0.029333933
0.063537701
0.11170673
0.074482717
0.018143496
-0.047587184
-0.10527756
-0.14610577
-0.1652542
-0.16623401
-0.15620144
-0.14338431
-0.13135064
-0.12164961
-0.114342
-0.10899722
-0.10512622
-0.10232317
-0.10029092
-0.098819299
-0.097763185
-0.097018022
-0.096519081
-0.096210205
-0.096064471
-0.096060607
-0.096190207
-0.096451374
-0.096850151
-0.09740791
-0.098157855
-0.099144813
-0.10043647
-0.10213731
-0.10439188
-0.107409
-0.11147983
-0.11700972
-0.12449218
-0.13435864
-0.14653741
-0.15952052
-0.1696531
-0.16875699
-0.14973975
-0.10911224
-0.051635997
0.013895197
0.070076466
0.10723604
0.16463507
0.12825029
0.078320909
0.021320428
-0.027190269
-0.061695721
-0.080250447
-0.084959156
-0.079968716
-0.070837828
-0.060769368
-0.05155997
-0.043867897
-0.037747164
-0.032991828
-0.0293316
-0.026516752
-0.024346493
-0.022669174
-0.021374343
-0.020384029
-0.019641098
-0.019108564
-0.0187628
-0.018593524
-0.018601357
-0.018800737
-0.019215687
-0.019877268
-0.020854917
-0.022225579
-0.024100293
-0.026629353
-0.030012113
-0.034499959
-0.040364914