/*--------------------------------*- C++ -*----------------------------------*\
| =========                 |                                                 |
| \\      /  F ield         | OpenFOAM: The Open Source CFD Toolbox           |
|  \\    /   O peration     | Version:  v2012                                 |
|   \\  /    A nd           | Website:  www.openfoam.com                      |
|    \\/     M anipulation  |                                                 |
\*---------------------------------------------------------------------------*/
FoamFile
{
    version     2.0;
    format      ascii;
    class       volScalarField;
    location    "100";
    object      k;
}
// * * * * * * * * * * * * * * * * * * * * * * * * * * * * * * * * * * * * * //

dimensions      [0 2 -2 0 0 0 0];


internalField   nonuniform List<scalar> 
11751
(
0.11908962
0.1149602
0.11095505
0.10704694
0.10323249
0.09950336
0.095855285
0.092284355
0.08878779
0.085362998
0.082007557
0.07871938
0.075496568
0.072336917
0.06923916
0.066202382
0.063226358
0.060318048
0.057481306
0.054711484
0.052008197
0.049367447
0.046796336
0.044293799
0.041857405
0.039498058
0.037222922
0.035029262
0.032967335
0.030916283
0.028959147
0.027470765
0.034095536
0.036724754
0.039729117
0.044660959
0.050157228
0.061461949
0.064181477
0.061919312
0.061547415
0.065691498
0.062393168
0.065556941
0.061018455
0.066442979
0.062285199
0.063303538
0.05037523
0.037982656
0.02384954
0.030811232
0.071200053
0.10588053
0.12216754
0.13011087
0.13286267
0.1338784
0.13289533
0.13464732
0.13512555
0.13337335
0.1325903
0.13261761
0.13248828
0.13205992
0.13168318
0.13113383
0.13129735
0.13255907
0.13605949
0.13304828
0.13244476
0.13307131
0.1342778
0.13496131
0.13530251
0.13542506
0.13558833
0.13584786
0.13606765
0.13622066
0.13635313
0.13638495
0.13661997
0.13625441
0.13640781
0.1365088
0.1369504
0.13725642
0.1379501
0.13833488
0.13881
0.13897961
0.13942524
0.1391395
0.1394174
0.13967904
0.14087628
0.14393234
0.1418665
0.14262921
0.14138511
0.1432576
0.14121711
0.14088489
0.13166671
0.11746421
0.089431102
0.057904121
0.060258667
0.090757272
0.11693199
0.13146513
0.13940245
0.13967172
0.14050017
0.14020284
0.1407444
0.14138818
0.1412794
0.14194372
0.14164564
0.14048179
0.13957356
0.13823237
0.13122906
0.11769933
0.093009868
0.063966352
0.068403678
0.097157025
0.11911185
0.13189612
0.13910172
0.14089805
0.14165542
0.14207248
0.14298823
0.14162197
0.14024116
0.14280491
0.1428116
0.14191261
0.14098248
0.1392863
0.13290343
0.12008501
0.098426712
0.07104015
0.074194375
0.10109163
0.12015438
0.13224683
0.13874926
0.14074919
0.14143131
0.14235801
0.14287096
0.14121067
0.13964324
0.14211393
0.14250474
0.14115564
0.14018664
0.1387155
0.13305497
0.12143248
0.10296067
0.07881039
0.083058449
0.10622776
0.12259524
0.13279402
0.13814192
0.1397464
0.14120445
0.14170937
0.14150909
0.13995936
0.13894986
0.14029118
0.14044367
0.14075589
0.13968539
0.13793894
0.13293476
0.12286984
0.10696051
0.0861779
0.085779283
0.10770474
0.12215383
0.13232978
0.13783624
0.13886672
0.13984568
0.14038131
0.14007026
0.13931201
0.13788104
0.13989786
0.14041776
0.13949632
0.13858813
0.13745818
0.13228404
0.12169249
0.10693153
0.085802881
0.086249101
0.10794141
0.12261786
0.13248295
0.13790201
0.13859878
0.13888921
0.13911795
0.13957519
0.13826951
0.13698604
0.13890786
0.13912444
0.13806199
0.13799217
0.13766816
0.13300628
0.122367
0.10721154
0.086728084
0.085670363
0.10732174
0.12123455
0.13142412
0.13657974
0.13752462
0.13740573
0.13800988
0.13864533
0.13754852
0.13671176
0.13844822
0.1385708
0.13745741
0.13719228
0.13644009
0.13127304
0.12075889
0.10655309
0.085753579
0.087182553
0.10750951
0.12226304
0.13177189
0.13742424
0.13817586
0.13867935
0.13870823
0.13846476
0.13813463
0.13749837
0.13874597
0.13901279
0.13862664
0.13854852
0.13667459
0.13035651
0.12083761
0.10700002
0.086224645
0.08271108
0.1027601
0.11698543
0.12724749
0.13409536
0.1366395
0.13758184
0.13834577
0.1379869
0.1367861
0.13707917
0.13755444
0.13805507
0.13732832
0.13661933
0.13263856
0.12324475
0.110062
0.093774314
0.072902405
0.059126677
0.079525497
0.10091544
0.11827313
0.1307285
0.13502391
0.13673758
0.13782973
0.13766942
0.1366439
0.13678633
0.13749103
0.13831997
0.13709889
0.13549974
0.1280881
0.11384372
0.091887728
0.06157605
0.038938715
0.048275359
0.070544799
0.095360409
0.1146883
0.12779942
0.13453556
0.13691997
0.13770443
0.13705146
0.13597514
0.1361273
0.13645314
0.13749789
0.13679985
0.13582784
0.13019272
0.12083725
0.1081308
0.094429367
0.082076342
0.10957338
0.1148933
0.12108361
0.12697578
0.13208396
0.1356203
0.13672584
0.1371219
0.1368019
0.13571066
0.13593299
0.13672567
0.13725351
0.13627036
0.13622961
0.13407436
0.13167169
0.12846682
0.12578559
0.12404631
0.13175277
0.1323399
0.13332705
0.13400189
0.13474961
0.13502674
0.13495959
0.13543682
0.13546345
0.13478346
0.13386563
0.13393599
0.13448414
0.13411293
0.13540855
0.134918
0.13482523
0.13450078
0.13396685
0.13412206
0.13439245
0.13438051
0.13451901
0.13405325
0.13384789
0.13400377
0.1333405
0.13294376
0.13276595
0.13244288
0.13224014
0.13180418
0.13166579
0.13220274
0.13249254
0.13289518
0.13320592
0.13306322
0.13339373
0.13357086
0.13871688
0.13791849
0.14337394
0.14892169
0.15456201
0.16023463
0.16588922
0.17148196
0.17700705
0.18241729
0.18773821
0.19297211
0.19808748
0.20306874
0.20790969
0.21257845
0.21709172
0.22144804
0.22562953
0.2296259
0.23343802
0.23705911
0.24050899
0.2437987
0.24693014
0.24991747
0.25276898
0.25550485
0.25814569
0.26070583
0.26319817
0.26563436
0.26802322
0.27037244
0.27268696
0.26596795
0.26352529
0.26103853
0.25849588
0.25588334
0.25318657
0.25038992
0.2474791
0.24443942
0.24125928
0.23792722
0.23443626
0.2307797
0.22695596
0.22296378
0.21880732
0.21449038
0.21002189
0.20540921
0.20066377
0.19579376
0.19080885
0.1857159
0.18051965
0.1752441
0.16988761
0.16453683
0.1591633
0.15387426
0.14867539
0.14676553
0.15211349
0.15752361
0.16297243
0.16842263
0.17385242
0.17921773
0.18450443
0.18969487
0.19478442
0.19976039
0.2046171
0.20934029
0.21392307
0.21835218
0.22262264
0.22672495
0.23065831
0.23441842
0.23800912
0.24143447
0.24470212
0.24782153
0.25080494
0.25366599
0.2564201
0.25908226
0.26166842
0.2641927
0.26667054
0.26835862
0.26585027
0.26329101
0.26066758
0.25796608
0.25516883
0.25225966
0.24922414
0.24605166
0.24272834
0.23924835
0.23560187
0.23178896
0.22780387
0.22365204
0.21933413
0.21486097
0.21023711
0.2054772
0.20058751
0.19558351
0.19047011
0.18526122
0.17996055
0.17458406
0.16914819
0.16369368
0.15825725
0.15286473
0.14754264
0.14647741
0.15201458
0.15758707
0.16318905
0.1687988
0.17438322
0.17990605
0.18535303
0.19070992
0.19597222
0.20112609
0.20616507
0.2110736
0.215845
0.22046138
0.22491758
0.2292091
0.2333099
0.23724018
0.24099999
0.24459605
0.2480315
0.25131765
0.25446284
0.25748029
0.26038923
0.26319974
0.26592029
0.26856928
0.27116503
0.27517097
0.27241555
0.26960293
0.26671952
0.26375092
0.26068723
0.25751475
0.25422058
0.25079361
0.24722424
0.24350559
0.23963056
0.23559817
0.23140064
0.22702597
0.22249035
0.21780131
0.21297008
0.2080072
0.20292574
0.19773551
0.19244769
0.18706975
0.18161114
0.17607979
0.17049681
0.16489609
0.15932022
0.15378487
0.14830747
0.14633986
0.15194298
0.15759479
0.16328008
0.16898425
0.17467326
0.18031663
0.1858975
0.19140855
0.19683779
0.20218207
0.20742827
0.2125689
0.21759375
0.22249438
0.22725857
0.23187864
0.23635125
0.24068416
0.24484772
0.24886176
0.25273763
0.2564815
0.26010107
0.26360552
0.2670058
0.27031572
0.27354115
0.27669204
0.27978531
0.28344819
0.27981824
0.27613764
0.2724006
0.2685993
0.26472517
0.26077506
0.25673905
0.25260961
0.24837855
0.24404357
0.23959815
0.23503873
0.23037338
0.22560341
0.22072795
0.21574953
0.21068458
0.20553907
0.20031553
0.19501774
0.18966134
0.18423677
0.17877357
0.17327249
0.16774561
0.16222461
0.15674447
0.15132727
0.14594879
0.13673143
0.14208142
0.14748176
0.15291916
0.15839455
0.16388595
0.16936151
0.17480957
0.18024416
0.18563418
0.19098741
0.19629172
0.20155458
0.20676039
0.21191629
0.21700742
0.22203985
0.22700356
0.23190664
0.23674145
0.2415179
0.24622718
0.25087671
0.25547655
0.26003344
0.26456502
0.2690644
0.27353825
0.27799386
0.28244627
0.27049599
0.26519143
0.25994323
0.25475864
0.2496271
0.24453481
0.23948001
0.23444391
0.22941654
0.22439412
0.2193716
0.21436116
0.20935184
0.20433473
0.19930413
0.19426503
0.18921564
0.18415267
0.17907408
0.17398853
0.16889445
0.1637802
0.15863403
0.15346695
0.14828628
0.14310827
0.13798852
0.1329481
0.12798406
0.1229732
0.093848461
0.098361273
0.10289243
0.10751837
0.11221474
0.11694971
0.12169883
0.12645155
0.13119908
0.13594544
0.14071091
0.14545688
0.15022322
0.15500593
0.15981165
0.1646287
0.16946899
0.17434624
0.1792471
0.18417634
0.18914079
0.19414422
0.19919385
0.20429927
0.20946449
0.2147002
0.22002112
0.22541135
0.23089672
0.23649267
0.2704798
0.26810516
0.26573474
0.26336144
0.26097643
0.2585702
0.25613131
0.25364755
0.25110458
0.24848917
0.24578421
0.24297652
0.24004849
0.23698937
0.23378326
0.23042423
0.22689993
0.22321087
0.2193492
0.21531887
0.21112124
0.20676513
0.20225618
0.19760702
0.19282531
0.18792505
0.18291126
0.17779658
0.17258185
0.16729487
0.16192911
0.15658248
0.15121858
0.14595098
0.14078376
0.13798082
0.13745977
0.13821745
0.13936263
0.14010138
0.14041745
0.14056728
0.14072945
0.14099838
0.14122482
0.14138554
0.14152055
0.14155001
0.1417562
0.14143926
0.14160752
0.14171398
0.14215781
0.14246245
0.1431546
0.14353647
0.14401349
0.14416948
0.14465631
0.14430266
0.1446156
0.14471966
0.14580135
0.15118376
0.15018922
0.15014752
0.14988869
0.15024414
0.1497989
0.14962276
0.14918346
0.14876634
0.14811252
0.1477745
0.14736459
0.14721845
0.14706996
0.14733407
0.14712956
0.14713507
0.14696717
0.14682619
0.14656513
0.14631482
0.14611495
0.14596319
0.14559661
0.14485277
0.14367301
0.14291181
0.14335559
0.14878717
0.14844852
0.14920164
0.15040702
0.15114219
0.15156395
0.15172691
0.15196202
0.15220249
0.15249391
0.15262132
0.15281613
0.15278216
0.15297626
0.15276513
0.15288599
0.15307737
0.15344694
0.15382156
0.15442997
0.15488293
0.15528221
0.15548326
0.15587608
0.15553453
0.1557368
0.15574327
0.15666744
0.16215828
0.16131696
0.16135184
0.16120655
0.16153249
0.16119539
0.16098709
0.16060562
0.1601192
0.15956144
0.15914914
0.15882361
0.1585813
0.15849161
0.15864831
0.15845271
0.15852507
0.1582921
0.1581822
0.15785382
0.15762594
0.15735152
0.15718759
0.15670523
0.15598581
0.15475427
0.15401872
0.15428022
0.15974817
0.15958678
0.16030798
0.16155702
0.16226609
0.16280037
0.16296845
0.16327488
0.16349677
0.16385707
0.16395714
0.16422613
0.16412264
0.16431352
0.16421168
0.16428753
0.16456099
0.16484595
0.16528872
0.16580013
0.16632816
0.16670394
0.16689613
0.16719265
0.16686743
0.16695917
0.16689299
0.16767136
0.17312798
0.17242295
0.17252124
0.17247697
0.17283522
0.17254428
0.17236673
0.17196722
0.17144647
0.17096353
0.17051015
0.17024619
0.16997732
0.16988974
0.16993289
0.16976372
0.16988082
0.16959299
0.16949014
0.16911027
0.16888214
0.1685575
0.16836729
0.16780277
0.16709985
0.16584493
0.16513418
0.16524869
0.17065424
0.17058138
0.17130908
0.17253043
0.17325691
0.17384212
0.17405638
0.1743737
0.17463288
0.17500755
0.17514106
0.1754462
0.17532611
0.17547029
0.17548201
0.17555618
0.17585909
0.17611615
0.17656494
0.17703083
0.17752126
0.17794387
0.17810321
0.17835532
0.17800326
0.17800598
0.1778893
0.17854327
0.18384685
0.18326014
0.18339585
0.18342926
0.1837612
0.18355216
0.18341337
0.18298933
0.18251293
0.18203061
0.18161807
0.18134324
0.18103824
0.18097223
0.18092244
0.18078647
0.18090076
0.18058357
0.18042448
0.18004728
0.17976472
0.1794459
0.17920643
0.17860902
0.17785416
0.17667911
0.175941
0.17600117
0.18123064
0.18123283
0.18195156
0.1830927
0.183851
0.18446638
0.18473041
0.18506044
0.18535847
0.18574456
0.18591445
0.18625137
0.18613846
0.18629396
0.18636157
0.18643295
0.18672157
0.18700954
0.18738689
0.18788136
0.18834664
0.18876719
0.18888692
0.18907554
0.18874717
0.18870035
0.18853642
0.18907594
0.19417286
0.19369717
0.19387994
0.19394708
0.19425944
0.19409603
0.19399225
0.19354735
0.19312283
0.19261367
0.19227919
0.19197433
0.19170641
0.19160136
0.19151672
0.19136648
0.19144663
0.1911168
0.19093324
0.19051631
0.19022898
0.18986291
0.1895738
0.18897325
0.1882046
0.18711057
0.18638649
0.18637929
0.19138761
0.19141463
0.19214736
0.19318501
0.19396142
0.19454357
0.19486533
0.1952727
0.19554322
0.19599677
0.1961858
0.19650268
0.19646054
0.19661455
0.19671489
0.19684952
0.19710183
0.19741246
0.19771548
0.1982277
0.19861942
0.19907805
0.19916879
0.1993033
0.19901408
0.19892714
0.19874111
0.19917629
0.20403203
0.20365189
0.20384096
0.20394464
0.20420531
0.20409543
0.20401375
0.20353928
0.20318482
0.20266737
0.20239867
0.20208078
0.20185015
0.20168367
0.20158712
0.20141712
0.20141499
0.20111062
0.20088937
0.2004454
0.20015323
0.19974803
0.19938996
0.19881136
0.19803052
0.19705434
0.19631685
0.19629749
0.20105285
0.20108176
0.20181927
0.20273368
0.20352392
0.20410117
0.20447735
0.2048831
0.20519487
0.20562144
0.20588159
0.20618605
0.20622099
0.20640693
0.20650181
0.20669598
0.20690829
0.20723682
0.20746971
0.20799527
0.20830593
0.20879796
0.20886542
0.20896717
0.20872587
0.20861024
0.20842748
0.20877255
0.21334729
0.21305018
0.21322628
0.2133478
0.21359036
0.21347246
0.21339362
0.2129236
0.21261688
0.21212349
0.21188867
0.21158735
0.21137648
0.21117333
0.21106903
0.21086219
0.2108199
0.21049372
0.21019232
0.20978305
0.20946953
0.20904253
0.20864735
0.20805535
0.20729585
0.20643145
0.20569959
0.20568507
0.21014408
0.21016127
0.21089168
0.21170733
0.2124152
0.21302914
0.21343927
0.21387904
0.21420083
0.21459312
0.21492966
0.2152562
0.21532797
0.21553557
0.215667
0.21588035
0.21608863
0.21635915
0.21660342
0.21705866
0.21736704
0.21780803
0.21790217
0.21801724
0.21780064
0.21767801
0.21751761
0.21778441
0.22204094
0.22181509
0.2219594
0.22207761
0.22225863
0.22215211
0.22204383
0.22163169
0.22132141
0.22090375
0.22065998
0.2204045
0.22019961
0.21997843
0.21982076
0.21961271
0.2195063
0.21918399
0.21882501
0.21843984
0.21810629
0.21763624
0.21721771
0.21661107
0.21594466
0.21516189
0.21445834
0.21445745
0.21859087
0.21859444
0.21925294
0.2200139
0.2206438
0.22123292
0.221655
0.22215644
0.22249894
0.22289388
0.22326229
0.22357489
0.22371719
0.22394047
0.22410758
0.22432965
0.22453736
0.2247865
0.22502135
0.22541452
0.22571554
0.22610976
0.22622036
0.22633067
0.22617694
0.22607616
0.225945
0.22614293
0.23005782
0.22989353
0.2300086
0.23009632
0.23021666
0.23010553
0.22998608
0.22961461
0.22931777
0.22895051
0.22871963
0.22846243
0.22826813
0.22803141
0.227855
0.22763595
0.22745897
0.2271371
0.22676099
0.2263711
0.22600435
0.22550405
0.22506481
0.22449629
0.22388532
0.22317784
0.2225682
0.2225531
0.22632844
0.2263645
0.22692114
0.22757573
0.22816796
0.22871387
0.22917096
0.22966523
0.23005686
0.23044349
0.2308261
0.23115938
0.23136716
0.23158106
0.23176946
0.23202045
0.23219961
0.23246784
0.23269206
0.23303158
0.23332746
0.2336751
0.23380564
0.23391581
0.23383191
0.23375654
0.23366037
0.23381024
0.2373801
0.23725256
0.23732868
0.23739116
0.23743842
0.23732849
0.23718601
0.23686106
0.23656513
0.23625066
0.23602004
0.23576255
0.23557759
0.23533553
0.23513289
0.23491637
0.23468173
0.23433979
0.23395659
0.23356519
0.23314909
0.23266103
0.23219451
0.2316643
0.2310905
0.23048536
0.22998489
0.22994034
0.23337378
0.23343377
0.23388161
0.23443872
0.23499564
0.23551293
0.23598077
0.23646397
0.23690654
0.23730889
0.23768642
0.23803333
0.23829403
0.23851769
0.23872579
0.23895763
0.23914864
0.23939345
0.23963369
0.23993179
0.24022246
0.24052641
0.24067991
0.24079657
0.24077938
0.2407314
0.24067643
0.24079368
0.24404022
0.24393914
0.24397319
0.24400544
0.24400295
0.24387197
0.24370576
0.24342053
0.24314399
0.2428532
0.24260319
0.24236918
0.24218086
0.24194866
0.24173535
0.24149759
0.24123001
0.24087294
0.24049921
0.24007848
0.23962434
0.23913775
0.23866922
0.23815908
0.23763443
0.23711761
0.23671918
0.23665288
0.23977279
0.23985063
0.24020882
0.24068172
0.2411755
0.24167871
0.24214782
0.24264092
0.24310156
0.24353901
0.2439153
0.24427576
0.24455019
0.24479772
0.2450146
0.24524033
0.2454353
0.245662
0.24591828
0.24619506
0.24646688
0.24673664
0.24691277
0.24705085
0.24707965
0.24706538
0.24705199
0.24714587
0.25010946
0.25002685
0.25002111
0.25001731
0.24996156
0.24981789
0.24963312
0.24937666
0.24910652
0.24884411
0.24858668
0.24836216
0.24815753
0.24793802
0.24771931
0.24746335
0.24718555
0.24682579
0.24644236
0.24599377
0.24552236
0.24501645
0.24454727
0.24406272
0.24359251
0.24316084
0.24284078
0.24275821
0.24561268
0.24570228
0.24599038
0.24638631
0.24683294
0.24729706
0.24776745
0.24828548
0.24876544
0.24922431
0.24961498
0.2499791
0.2502555
0.25051834
0.25073822
0.25095241
0.25116746
0.25139298
0.25164835
0.2519006
0.25216692
0.25241136
0.25260517
0.25275594
0.25283477
0.25285727
0.25287871
0.25295631
0.25569236
0.2556222
0.25558877
0.25554299
0.25544982
0.25528618
0.2550898
0.25484964
0.25459294
0.25434186
0.25409116
0.253862
0.25364431
0.25342777
0.25320619
0.25294469
0.25266208
0.25229811
0.25189635
0.2514318
0.25094053
0.25042084
0.24994676
0.24949671
0.24907844
0.24871083
0.24845147
0.2483599
0.25100853
0.25110473
0.25133952
0.25168193
0.25207428
0.25251453
0.25298952
0.25350877
0.25401056
0.25447984
0.25489162
0.25525524
0.255544
0.25580379
0.25602861
0.25624682
0.25646761
0.25669934
0.25694636
0.25719615
0.25744591
0.25768173
0.25788142
0.25805577
0.25816155
0.25822872
0.25827301
0.25834056
0.26091042
0.26084663
0.26079045
0.26070878
0.26058754
0.26040828
0.26020334
0.25997033
0.25972644
0.25947734
0.25923378
0.25899951
0.25877712
0.2585562
0.25832998
0.25807028
0.25777605
0.25741266
0.25699337
0.25651875
0.25600798
0.25548966
0.25501392
0.25458379
0.25420972
0.25389343
0.25367589
0.25358299
0.25609063
0.25618186
0.25638574
0.25668028
0.25704012
0.25745996
0.25793587
0.25845343
0.25897192
0.25945195
0.25987548
0.26023916
0.26053787
0.26079881
0.26102585
0.26124881
0.26147321
0.26170911
0.26195025
0.26219854
0.26243785
0.26267016
0.26287869
0.26306186
0.26319622
0.26329073
0.26335743
0.26342104
0.26588289
0.26582069
0.26574509
0.2656387
0.26549456
0.26530691
0.26509665
0.264864
0.26462705
0.26438006
0.26413973
0.26390344
0.26367637
0.26345184
0.2632229
0.26296048
0.26265912
0.2622945
0.26186669
0.26138151
0.26085942
0.26034194
0.25986703
0.259455
0.2591086
0.25883124
0.25863936
0.25855026
0.26097239
0.26106128
0.26124239
0.26150471
0.26184126
0.26224721
0.26272021
0.26323728
0.26376094
0.26424977
0.2666097
0.26611994
0.26559567
0.2650792
0.26460941
0.26420828
0.26388056
0.26363018
0.26345805
0.26336964
0.26575181
0.2658401
0.2660051
0.26624616
0.26656597
0.26696227
0.26742808
0.26794219
0.26846473
0.26895323
0.27128359
0.27080008
0.27028188
0.2697732
0.2693124
0.26892126
0.26860845
0.26837467
0.26821617
0.26812884
0.27050801
0.27059431
0.27074729
0.27097459
0.27128066
0.27166556
0.27211941
0.27261985
0.27312982
0.27360475
0.26661417
0.26413001
0.26159513
0.25899633
0.25631957
0.25354787
0.25066507
0.24765743
0.24451188
0.2412165
0.23776234
0.2341423
0.23035201
0.22638499
0.22225336
0.21795018
0.21349694
0.20888678
0.20414609
0.19926803
0.19428161
0.18917575
0.18398221
0.17869067
0.17333417
0.16791175
0.16247254
0.15702844
0.15163553
0.14631648
0.14635873
0.14706102
0.1457246
0.14534483
0.14680494
0.1456548
0.14568266
0.14486207
0.14477629
0.1462315
0.14697547
0.14726612
0.14809597
0.14667948
0.14541073
0.14637609
0.14484117
0.14742552
0.14807621
0.14805794
0.14805543
0.14725015
0.14633884
0.14618658
0.14678317
0.147733
0.14783369
0.14648977
0.14558354
0.14519656
0.14659196
0.14694823
0.14670682
0.1450687
0.14419481
0.14445342
0.14311439
0.14522893
0.14538798
0.14559839
0.14579009
0.14607084
0.14530821
0.14433009
0.14528909
0.14579319
0.14575937
0.14488794
0.14404312
0.14409056
0.14433699
0.14445865
0.14479043
0.14339926
0.14221592
0.14268898
0.14189165
0.14374961
0.14385447
0.14422186
0.14446223
0.14343558
0.14344078
0.14305947
0.14283911
0.14333709
0.1438513
0.1428156
0.14263974
0.14860096
0.14920196
0.14939931
0.15017731
0.14997678
0.15030815
0.15112973
0.15112617
0.15147771
0.15218707
0.15213164
0.15212534
0.15045755
0.15054578
0.15132058
0.15090098
0.15113535
0.15662512
0.15653352
0.1578477
0.15786208
0.15712725
0.15176071
0.15248966
0.15235637
0.15133698
0.15704938
0.15704733
0.15627366
0.15624539
0.16200185
0.16202833
0.1627567
0.1621828
0.1621599
0.16767486
0.16782551
0.16900503
0.16877751
0.16802672
0.16263153
0.16339286
0.16351717
0.16282398
0.16853185
0.16848214
0.16776874
0.16778734
0.17348914
0.17349263
0.17414482
0.17342523
0.17316992
0.17859378
0.1789722
0.17997427
0.1795179
0.17878515
0.17348133
0.17423493
0.17459272
0.17420512
0.17977309
0.17978159
0.17916385
0.1791908
0.18479931
0.18480248
0.18533209
0.18444686
0.18396
0.18922834
0.18984371
0.19063648
0.18999485
0.18926785
0.18411574
0.18485373
0.18540807
0.18532838
0.19078783
0.1908339
0.19036672
0.19037907
0.19151042
0.19180069
0.19129567
0.19083873
0.18965377
0.18447603
0.17920741
0.17386534
0.16845474
0.163004
0.15753133
0.1520899
0.15092364
0.15650034
0.1620892
0.16766179
0.16833381
0.16284781
0.1573487
0.15187216
0.15040207
0.15602229
0.16165715
0.16729943
0.1729229
0.17392559
0.17318691
0.17860596
0.18394831
0.18922528
0.189827
0.18464411
0.17936519
0.17843087
0.18383294
0.1891478
0.19087199
0.19109683
0.19105662
0.18591837
0.18570997
0.18048977
0.17519404
0.16982399
0.16440365
0.15893194
0.15349741
0.15282445
0.15847348
0.1590105
0.15898611
0.15353791
0.1535669
0.15297657
0.15272439
0.15855183
0.15793732
0.1580268
0.15882092
0.16476609
0.16453357
0.16414655
0.16976082
0.17000753
0.16998253
0.16454395
0.16464082
0.16426779
0.16450558
0.15903711
0.15357982
0.15327282
0.15885636
0.15899626
0.15843681
0.1529593
0.15344301
0.15223693
0.15255
0.15834929
0.15807767
0.1574582
0.15809901
0.16394561
0.16417865
0.16995388
0.17055402
0.1702223
0.16917525
0.16367373
0.16396406
0.16965731
0.16943605
0.16389281
0.1634015
0.16927175
0.16978136
0.17021532
0.16995119
0.1700545
0.16956746
0.16411104
0.16470786
0.163445
0.16311812
0.16136679
0.15595383
0.15053473
0.14983248
0.15553601
0.16136196
0.16702487
0.16704902
0.1726823
0.17821915
0.17789872
0.17258082
0.17179648
0.16645024
0.16100342
0.1554918
0.1499805
0.14871828
0.15440137
0.16009392
0.1657675
0.17153286
0.17712701
0.17733435
0.18279671
0.183471
0.18370046
0.18906578
0.18884214
0.18818054
0.18778243
0.18256959
0.18362831
0.18446273
0.18465675
0.18511535
0.18573171
0.18598322
0.18077169
0.18069938
0.17540041
0.1755975
0.17541737
0.18084101
0.18115209
0.1866824
0.18618524
0.18654482
0.1811991
0.17578467
0.17498319
0.18059727
0.18063772
0.18150649
0.17611705
0.17526581
0.1752311
0.17570352
0.17551727
0.17549019
0.17510837
0.18049852
0.18114062
0.18100262
0.18644445
0.19186414
0.19204897
0.19223354
0.18697539
0.18624321
0.18615762
0.18436636
0.18309686
0.1832273
0.17776411
0.17226863
0.16673873
0.16117286
0.15559582
0.15004111
0.1445332
0.13681397
0.13663568
0.14354146
0.1445832
0.13757194
0.13878266
0.14485779
0.14436564
0.13819723
0.13906346
0.14439265
0.14382528
0.13879396
0.13889902
0.14363256
0.14356228
0.13833193
0.13826061
0.14314137
0.14360206
0.13845673
0.13902154
0.14335029
0.14228447
0.13744092
0.13723909
0.14211573
0.1483309
0.14843839
0.14957508
0.14992888
0.14936494
0.14991259
0.14982816
0.14995284
0.15056699
0.1503926
0.1508742
0.15059389
0.14925699
0.15504574
0.14777854
0.14776839
0.14231216
0.14227503
0.1285584
0.12725916
0.12217685
0.095331706
0.097944914
0.12324187
0.12507401
0.10239959
0.10396395
0.12633027
0.1263
0.10676252
0.10865983
0.12768278
0.12885291
0.11190489
0.11257181
0.12909899
0.12815529
0.11330917
0.11259538
0.12770232
0.1287782
0.11358152
0.1128289
0.12854258
0.12724445
0.11298748
0.11223372
0.12678048
0.13291811
0.13342564
0.13465568
0.13494622
0.13385593
0.13432343
0.13524492
0.13500971
0.13391904
0.13240931
0.13226283
0.13083422
0.14345548
0.14946164
0.15644567
0.15684012
0.15051195
0.14472173
0.14434549
0.15049538
0.15643977
0.15662768
0.15114424
0.14519363
0.14506812
0.15135171
0.15611862
0.15710898
0.1578713
0.1579791
0.15766476
0.15219982
0.15249026
0.1515261
0.15129692
0.15706562
0.15735326
0.16324879
0.16299478
0.16865555
0.16891675
0.1691826
0.16895402
0.16851767
0.16918829
0.16363217
0.16304939
0.1690661
0.16824609
0.16263712
0.16301849
0.15741184
0.15176282
0.15226511
0.15117591
0.15157775
0.15108041
0.15683905
0.15747021
0.15701557
0.15630495
0.15080073
0.15141891
0.15075899
0.15668465
0.15714315
0.15633591
0.15696903
0.15591056
0.15103276
0.14504823
0.14465503
0.15100163
0.15601399
0.15546638
0.15603684
0.16201205
0.16232033
0.1631846
0.16348955
0.16274543
0.16836782
0.16917189
0.16833034
0.16740636
0.16197349
0.16283257
0.16275823
0.1685668
0.16898778
0.16826105
0.16798851
0.17400446
0.1741356
0.17415024
0.17486825
0.1751249
0.1755441
0.17578567
0.17493592
0.17450087
0.17989765
0.18041803
0.17979374
0.17943535
0.17413652
0.17449752
0.17435172
0.17507423
0.18065012
0.18121962
0.1813491
0.18096664
0.18089746
0.18661684
0.18666469
0.18692556
0.19243779
0.19229822
0.19179879
0.19729824
0.19714234
0.1958706
0.19587148
0.19623026
0.19514912
0.19441804
0.19948701
0.20035504
0.20099013
0.20009853
0.19935028
0.19440524
0.19515149
0.19592584
0.19622441
0.20152034
0.20155408
0.20127975
0.20131444
0.20662728
0.20659992
0.20675145
0.20544569
0.20445361
0.20928057
0.21041593
0.21087022
0.2097193
0.20894836
0.2042468
0.20501594
0.20605086
0.20675545
0.21180766
0.21185548
0.21180825
0.21186033
0.21694222
0.21692257
0.21681082
0.2152503
0.21398247
0.21852552
0.21994093
0.22013469
0.2187671
0.21799047
0.21357167
0.21435444
0.21562103
0.21675537
0.22154287
0.22164621
0.22190257
0.22193914
0.22682021
0.22675218
0.22636229
0.22450727
0.22292349
0.22714494
0.22886688
0.22877494
0.22720183
0.22641106
0.22230198
0.22310549
0.22458125
0.22624355
0.23070576
0.23084635
0.23145438
0.23150312
0.23191664
0.23103933
0.22934524
0.2278375
0.22664184
0.22255358
0.21829959
0.21388631
0.20931488
0.20460264
0.19975344
0.19478638
0.19438356
0.19941668
0.20431959
0.20908595
0.20947207
0.20477063
0.19993799
0.19497921
0.19434641
0.19941693
0.20434395
0.20914308
0.21376735
0.21413086
0.21373035
0.2181743
0.22244825
0.22656734
0.22684122
0.22280038
0.21858056
0.21820962
0.22247008
0.22656486
0.22802042
0.22818024
0.22802628
0.22396838
0.22373538
0.21947421
0.21505922
0.21048056
0.20576782
0.2009165
0.19595807
0.19656188
0.20172945
0.20226181
0.20106967
0.19615888
0.19725638
0.19763633
0.19724588
0.20264684
0.20260321
0.20273877
0.20296924
0.20820165
0.20781952
0.2068521
0.21169151
0.21204341
0.21066851
0.20597804
0.20729036
0.20698392
0.20586475
0.20109318
0.19619792
0.1970738
0.20214205
0.20172325
0.20099915
0.19602766
0.19675922
0.19168477
0.18650088
0.186907
0.19237353
0.19232301
0.19799302
0.19786402
0.19791349
0.20315477
0.20333848
0.20351542
0.20284053
0.19771027
0.19659574
0.19595045
0.19538671
0.1943162
0.19945148
0.19897809
0.19402072
0.19343226
0.19856468
0.19794613
0.19297886
0.19396805
0.19484687
0.19496862
0.18993587
0.1903586
0.19090601
0.18575092
0.18533581
0.19070978
0.19068784
0.19140973
0.1861194
0.1860233
0.18056504
0.1799764
0.17994619
0.18544132
0.1858436
0.19151661
0.19167957
0.19725865
0.20279646
0.20196755
0.201154
0.20055311
0.20008988
0.2010297
0.19596385
0.1960969
0.20140462
0.20240294
0.1970544
0.19674476
0.19646647
0.19577974
0.19064163
0.18975551
0.18889578
0.19001295
0.18475819
0.18541415
0.18008045
0.17920404
0.17385997
0.17470347
0.17394262
0.17299254
0.17840547
0.17942766
0.17965213
0.18013174
0.1746807
0.17421836
0.17343246
0.17259577
0.17208979
0.17068114
0.16530655
0.15985861
0.15436537
0.14888041
0.14781649
0.15350305
0.15920215
0.16488554
0.16464268
0.15917003
0.15367225
0.14818974
0.14746415
0.15311211
0.15877388
0.1644442
0.1700721
0.17024446
0.17064403
0.17622811
0.1762441
0.1817089
0.18709779
0.18691161
0.18167491
0.18094046
0.17571477
0.1756327
0.18119595
0.18660355
0.18632336
0.1871762
0.18739809
0.18796929
0.18279833
0.17752984
0.17813921
0.17803108
0.17695115
0.17165783
0.16626687
0.16671992
0.16128653
0.1557793
0.15027921
0.15015625
0.15601937
0.15575884
0.15523643
0.14973474
0.150143
0.14924822
0.15023708
0.15629789
0.15616624
0.15545658
0.15516841
0.16108604
0.16221036
0.1617099
0.16726591
0.16703031
0.16150189
0.16080918
0.16038829
0.15488476
0.14938915
0.1490512
0.15483602
0.15508204
0.15485826
0.14933457
0.14952193
0.14861796
0.14872341
0.15467053
0.1552225
0.15467073
0.15452604
0.16040666
0.16062268
0.16066071
0.16656201
0.16598944
0.16600571
0.16052655
0.16103175
0.16677541
0.16624902
0.16650035
0.16692523
0.16791603
0.16760412
0.16201288
0.16144673
0.16739258
0.16685144
0.16117138
0.16066951
0.16662601
0.17255594
0.17285508
0.17330704
0.17345381
0.17925438
0.17982972
0.18004405
0.18577863
0.18572356
0.19117266
0.19136451
0.19097925
0.19049053
0.18517943
0.18550149
0.18503775
0.18445577
0.18362931
0.18907141
0.18880468
0.18351165
0.18228013
0.18201247
0.17676805
0.17145426
0.17215433
0.17262713
0.17269814
0.17840427
0.17907063
0.17919694
0.18510009
0.18407122
0.18965413
0.19006325
0.19077569
0.19084525
0.18977181
0.18889564
0.18807987
0.18290068
0.17761489
0.17778994
0.17677214
0.17148236
0.17238226
0.17198106
0.17239222
0.1780321
0.1786402
0.17843439
0.17765007
0.18325161
0.18358367
0.18432659
0.18433569
0.1900608
0.1888297
0.18855919
0.18728039
0.18213285
0.18326584
0.18326391
0.18251533
0.18129214
0.17601266
0.17064515
0.16519451
0.15969196
0.15415385
0.14864333
0.14321231
0.14267352
0.14196686
0.14227129
0.1427999
0.14329794
0.14394657
0.14369401
0.14408234
0.14425661
0.14401562
0.14414624
0.14362403
0.1439313
0.14203493
0.14296678
0.14370277
0.14328882
0.14267472
0.14198534
0.14030997
0.14204195
0.14314956
0.14297138
0.14182313
0.14196687
0.14114717
0.14130047
0.14165005
0.14233293
0.14269308
0.14358043
0.14232853
0.14076032
0.13975211
0.14219408
0.14299949
0.14274876
0.14200189
0.14105297
0.1408399
0.14199404
0.14239144
0.14207516
0.14084686
0.14108298
0.13990623
0.13894906
0.13902602
0.14067788
0.1419358
0.14250294