/*--------------------------------*- C++ -*----------------------------------*\
| =========                 |                                                 |
| \\      /  F ield         | OpenFOAM: The Open Source CFD Toolbox           |
|  \\    /   O peration     | Version:  v2012                                 |
|   \\  /    A nd           | Website:  www.openfoam.com                      |
|    \\/     M anipulation  |                                                 |
\*---------------------------------------------------------------------------*/
FoamFile
{
    version     2.0;
    format      ascii;
    class       surfaceScalarField;
    location    "100";
    object      phi;
}
// * * * * * * * * * * * * * * * * * * * * * * * * * * * * * * * * * * * * * //

dimensions      [0 3 -1 0 0 0 0];
oriented        oriented;


internalField   nonuniform List<scalar> 
33478
(
0.011750076
1.1090993e-06
-1.3045569e-05
0.01176199
4.0752588e-06
-1.5989717e-05
0.011777429
3.2309312e-06
-1.8669757e-05
0.01179125
4.4506328e-06
-1.8271408e-05
0.011804041
4.7049041e-06
-1.7495771e-05
0.011814877
5.4121843e-06
-1.6248568e-05
0.011823877
6.0084649e-06
-1.5008392e-05
0.011831112
6.6298038e-06
-1.3865047e-05
0.011836875
7.1937874e-06
-1.2956224e-05
0.01184146
7.6849418e-06
-1.2269751e-05
0.011845084
8.13867e-06
-1.1763205e-05
0.011847936
8.5639698e-06
-1.1416197e-05
0.011850176
8.9212295e-06
-1.1160986e-05
0.011851905
9.2319623e-06
-1.096081e-05
0.011853186
9.5355803e-06
-1.0816421e-05
0.011854087
9.8273605e-06
-1.0728177e-05
0.011854659
1.0098873e-05
-1.0671121e-05
0.011854901
1.0373155e-05
-1.0614952e-05
0.011854751
1.0662271e-05
-1.0512997e-05
0.011854137
1.0941887e-05
-1.0327344e-05
0.011852749
1.1314302e-05
-9.9267496e-06
0.011851107
1.1206542e-05
-9.5641231e-06
0.011849423
-9.0415399e-06
1.0725811e-05
0.011853573
-1.0595263e-05
6.4450006e-06
0.011858565
-9.9749841e-06
4.9828595e-06
0.01188014
-1.5788697e-05
-5.7859602e-06
0.011903151
-1.512915e-05
-7.8821067e-06
0.011952275
-2.333715e-05
-2.5787499e-05
0.012044668
-3.9555706e-05
-5.2836933e-05
0.012090693
-1.1991453e-05
-3.403324e-05
0.00019653953
0.00021049883
3.873677e-05
7.073426e-05
-0.012655171
0.00042923733
0.0001172966
-0.01343483
0.0001236343
0.00020932434
-0.014391422
0.0003108342
0.00026263989
-0.015011608
0.00010065361
0.00027760633
-0.015458941
0.00010908729
0.0002716831
-0.015579557
5.0437801e-05
0.00026766637
-0.015595404
4.7886086e-05
0.00026542558
-0.015537764
5.0297343e-05
0.00026418554
-0.015474597
5.9248144e-05
0.00026260193
-0.015420505
6.707062e-05
0.00026071239
-0.015378995
7.564908e-05
0.00025812387
-0.01534512
8.7073613e-05
0.00025381441
-0.01531819
0.00010453599
0.00024677044
-0.015297388
0.00013161172
0.00023658338
-0.015281103
0.00017070447
0.00022432308
-0.015262308
0.00022239434
0.00021209617
-0.015237051
0.00028382963
0.0002019474
-0.015194299
0.00034078795
0.0002048765
-0.015107622
0.00031492327
0.00027065352
-0.014732357
0.0002007202
0.0003573831
-0.014777441
5.5321777e-05
0.00034281561
-0.0151795
2.0001813e-05
0.00030738704
-0.015342433
-0.00021473317
0.00029860323
-0.015280738
-4.9581799e-05
0.00027823123
-0.014852642
-0.00037095672
0.00022492704
-0.014235707
-4.878036e-06
0.00013481059
-0.01327958
-0.00017815058
8.6200728e-05
-0.012500709
0.00022267704
-0.011939517
6.3797015e-05
-0.00011811238
-0.012375558
0.00049036285
-0.0001877301
-0.012921629
0.00013759817
-0.00020554479
-0.01368048
0.00025957014
-0.00021453732
-0.014093801
1.7370678e-05
-0.00022147833
-0.014403762
-0.00022607977
-0.0002200114
-0.014400039
-0.00010815973
-0.00021027492
-0.014083159
-0.0004665359
-0.00019908253
-0.013664434
-4.7862135e-05
-0.0001800008
-0.012902431
-0.00021438011
-0.00010991414
-0.012354607
0.00018577275
-0.011918026
2.2023316e-05
7.6892182e-05
-0.012478813
0.00039862331
0.00012353487
-0.013257923
9.2177492e-05
0.00021042642
-0.014216731
0.00027663612
0.00025919475
-0.014843691
7.1164797e-05
0.00027098908
-0.015298939
8.3301331e-05
0.00026390637
-0.015433315
2.9403458e-05
0.00025979672
-0.01546882
3.0146814e-05
0.00025909935
-0.015438395
3.3661138e-05
0.00026067444
-0.015407269
4.063663e-05
0.00026280313
-0.015388258
4.3155421e-05
0.00026492484
-0.015383549
4.2833634e-05
0.0002666144
-0.015387788
4.0460047e-05
0.00026773725
-0.015397045
3.7175798e-05
0.00026830546
-0.01540883
3.3898675e-05
0.00026844729
-0.015422003
3.1397985e-05
0.00026833641
-0.015436556
3.0420958e-05
0.00026809412
-0.015453193
3.1239293e-05
0.00026780015
-0.015474187
3.5075554e-05
0.00026747005
-0.015503276
3.3802147e-05
0.00026725164
-0.015545676
2.8249425e-05
0.00026741615
-0.015598999
-3.3687e-05
0.00026942927
-0.015650128
-2.9466989e-05
0.00027445908
-0.015632618
-0.00024615075
0.00028204029
-0.015512534
-6.7050674e-05
0.00027006016
-0.015063794
-0.00038594506
0.00022025089
-0.014437107
-1.0231896e-05
0.00013142132
-0.013469622
-0.00018299966
8.3511704e-05
-0.012681507
0.00022283587
-0.012112905
5.8857645e-05
-0.00011801827
-0.012560019
0.00049047086
-0.00018969057
-0.013123997
0.0001316191
-0.00020949085
-0.013910413
0.00025740019
-0.00022072533
-0.014351687
1.3687494e-05
-0.00023010711
-0.014691814
-0.00023082058
-0.00023040138
-0.014712818
-0.00010524381
-0.0002214474
-0.014410296
-0.00046788057
-0.00020961324
-0.013995831
-3.669215e-05
-0.00018757891
-0.013215724
-0.00010855671
-0.012628035
0.00017028059
-0.00011188976
-0.013281228
0.00039086938
-0.00020219362
-0.01406447
0.00034957399
-0.00021444728
-0.014762094
0.00025455406
-0.00021072467
-0.015218094
-1.3657359e-05
-0.00021148475
-0.015431225
-0.00028103941
-0.00021131879
-0.015410008
-0.00037449065
-0.00021044543
-0.015158483
-0.00041354769
-0.00021573079
-0.014676011
-0.00019075787
-0.00020794109
-0.013972826
-0.00013029124
-0.013217575
0.0003475585
1.615151e-05
-0.014191236
0.00056812312
-4.6466914e-05
-0.01510793
0.0005951379
-1.8204586e-05
-0.015869427
0.00038016061
1.4030208e-05
-0.016349134
1.362051e-05
2.7532943e-05
-0.016577919
-0.00035415231
2.7863567e-05
-0.016599789
-0.00057176374
1.5355576e-05
-0.016410496
-0.00054702168
-1.409875e-05
-0.015956798
-0.00032848095
-3.6098373e-05
-0.015197788
4.223262e-05
-0.014245816
0.00050060324
0.00013076359
-0.015187179
0.00076372493
0.00014860592
-0.016229039
0.0007711512
0.00020212867
-0.017032939
0.000470498
0.00024767817
-0.017487092
-1.3024748e-05
0.00026715961
-0.017665035
-0.00049481033
0.00026619341
-0.017642987
-0.00079183829
0.0002442685
-0.017425599
-0.00078123922
0.00019450616
-0.016946649
-0.0005156352
0.0001328641
-0.016143629
9.7613375e-05
-0.015143049
0.00062140194
0.00016907929
-0.015828446
0.00091878752
0.00021180939
-0.016848684
0.00091797391
0.00028022225
-0.017657333
0.0005676131
0.0003279038
-0.018130081
1.1919796e-05
0.00034876174
-0.018341533
-0.00054571408
0.00035029983
-0.018363019
-0.00090025697
0.00033323108
-0.018189607
-0.00090483174
0.00029126291
-0.017739677
-0.00061023391
0.00023285948
-0.01692725
0.00020915576
-0.015862952
0.0006461484
0.0001653348
-0.016232402
0.00095850197
0.00021144367
-0.017281161
0.00095193169
0.00025249351
-0.018081523
0.00057662584
0.00027863474
-0.018524368
-1.0596402e-05
0.00028811996
-0.018695919
-0.0005957862
0.00028604365
-0.018675706
-0.00096667033
0.00027150911
-0.018468711
-0.00096916383
0.00023821122
-0.018005553
-0.00065386109
0.00018545229
-0.017211242
0.00011929045
-0.016206496
0.00065245664
7.1004446e-05
-0.016351217
0.00097446712
0.00011262091
-0.017338184
0.00097326482
0.00014507208
-0.018115894
0.00059924952
0.00016358413
-0.018568634
9.5998636e-06
0.00017179727
-0.018770663
-0.00058198294
0.0001744805
-0.018789255
-0.00096039577
0.00017263809
-0.018619436
-0.00096569144
0.00016268654
-0.018183962
-0.00064666403
0.00014341232
-0.017397947
0.00012251668
-0.016368211
0.00064131165
7.5444047e-05
-0.016369209
0.00096073026
8.3274271e-05
-0.017392944
0.00095546028
8.5421889e-05
-0.018169937
0.00057868918
8.3980826e-05
-0.018599309
-9.0699163e-06
8.0523298e-05
-0.018767219
-0.00059500172
7.707504e-05
-0.018750393
-0.00096737089
7.2629096e-05
-0.018553815
-0.00096842158
6.405931e-05
-0.018110339
-0.0006458504
4.75793e-05
-0.017343979
1.9073003e-05
-0.016362413
0.00064192263
-8.311869e-06
-0.016325051
0.00096263553
6.4081892e-06
-0.01730438
0.00096072512
1.3979606e-05
-0.018064142
0.00059044078
1.7830275e-05
-0.018500677
9.2905506e-06
2.0941617e-05
-0.018692398
-0.0005736742
2.5317477e-05
-0.018707459
-0.00094835039
3.1848601e-05
-0.018541012
-0.00095460351
3.9514293e-05
-0.018115532
-0.00063718222
4.7131814e-05
-0.017342899
5.2592936e-05
-0.016321391
0.0006336839
4.400799e-05
-0.016262906
0.0009488602
3.1268108e-05
-0.017285769
0.00094167883
1.8601644e-05
-0.018057123
0.00056877919
7.8005022e-06
-0.018480857
-1.0283567e-05
-5.3690894e-07
-0.018646846
-0.00058755977
-5.9633249e-06
-0.018633464
-0.00095607703
-9.1756785e-06
-0.018445473
-0.00095876239
-1.1440391e-05
-0.018013507
-0.00063997667
-1.4674198e-05
-0.017256926
-2.1566071e-05
-0.016276444
0.0006391639
-2.6836618e-05
-0.016236218
0.00095665955
-2.4681968e-05
-0.017216606
0.00095369205
-2.333897e-05
-0.017971421
0.00058668749
-2.1268516e-05
-0.018400503
1.2296091e-05
-1.7357669e-05
-0.018585741
-0.00056386927
-1.0773461e-05
-0.0185975
-0.00093531106
-1.0221201e-06
-0.018431178
-0.00094306234
1.1653659e-05
-0.018007601
-0.00062987392
2.7052986e-05
-0.017235985
4.4320048e-05
-0.016211948
0.0006255786
4.8431628e-05
-0.016170755
0.00093687356
2.8649191e-05
-0.017196041
0.00092865671
1.1215652e-05
-0.017968311
0.00055843241
-3.2895208e-06
-0.018392348
-1.5518632e-05
-1.4608193e-05
-0.018559547
-0.00058757293
-2.2477704e-05
-0.01854937
-0.00095314656
-2.7240067e-05
-0.018366227
-0.00095588949
-2.9527406e-05
-0.017939167
-0.00063900114
-3.0045488e-05
-0.017185836
-2.990246e-05
-0.016206351
0.0006391941
-3.2759848e-05
-0.016184119
0.00095599853
-3.4127123e-05
-0.017162173
0.00095388936
-3.4106217e-05
-0.017913962
0.00058988203
-3.1662104e-05
-0.01833929
2.0073079e-05
-2.6132676e-05
-0.018520699
-0.00055177365
-1.685739e-05
-0.018529442
-0.00092073614
-3.5276409e-06
-0.018361288
-0.00092931476
1.3470922e-05
-0.0179366
-0.00062007432
3.3382632e-05
-0.017163917
5.5299582e-05
-0.016138432
0.00061198084
6.5306393e-05
-0.016111812
0.00091906774
4.0264042e-05
-0.017137081
0.00091049747
1.6491319e-05
-0.017909465
0.00054334355
-4.1350793e-06
-0.018334538
-2.5891603e-05
-1.9973307e-05
-0.018503613
-0.00059319766
-3.0630197e-05
-0.018496284
-0.00095538158
-3.6612811e-05
-0.018316523
-0.00095655401
-3.8869968e-05
-0.017892881
-0.00063951602
-3.8300562e-05
-0.017142692
-3.6126391e-05
-0.016166177
0.00063970309
-3.9931576e-05
-0.016150525
0.00095705777
-4.2964039e-05
-0.017125503
0.00095691587
-4.4439262e-05
-0.017874028
0.00059674129
-4.2907563e-05
-0.018295949
3.2293628e-05
-3.7004571e-05
-0.01847405
-0.00053353147
-2.5319171e-05
-0.018479909
-0.00089779495
-6.8143405e-06
-0.018309931
-0.00090527941
1.8943304e-05
-0.017884767
-0.00060002622
4.9148302e-05
-0.017113522
7.97987e-05
-0.016090508
0.00058423551
9.9081924e-05
-0.016070915
0.00088893136
5.7616549e-05
-0.017090961
0.00088425591
1.8442674e-05
-0.017860714
0.00052421143
-1.300064e-05
-0.018286054
-3.7590542e-05
-3.3795786e-05
-0.018457312
-0.00059915194
-4.5600999e-05
-0.018453192
-0.00095753853
-5.0492088e-05
-0.018276941
-0.00095687739
-5.0473085e-05
-0.017856793
-0.00063940636
-4.7471623e-05
-0.017109913
-4.3624271e-05
-0.0161364
0.00063828629
-4.7128851e-05
-0.016123957
0.00095534656
-5.2389854e-05
-0.017096114
0.00095607603
-5.7043517e-05
-0.017841331
0.00059864135
-5.8937434e-05
-0.018259647
3.9291624e-05
-5.596398e-05
-0.018433778
-0.00051868849
-4.5460617e-05
-0.018435444
-0.00087351852
-2.3966369e-05
-0.018261797
-0.00087317924
1.2778274e-05
-0.01783511
-0.00056682868
6.3809503e-05
-0.017066525
0.00012291044
-0.016050123
0.00055141358
0.00014919094
-0.01602091
0.00086329637
6.3282605e-05
-0.017033442
0.00087099977
-6.3730492e-07
-0.01780383
0.00052128436
-3.9967169e-05
-0.018235616
-3.4469502e-05
-5.9318994e-05
-0.018414367
-0.00059353509
-6.6856609e-05
-0.018416513
-0.00095162047
-6.72333e-05
-0.018244997
-0.00095194589
-6.3244998e-05
-0.017828661
-0.00063603304
-5.6773559e-05
-0.017085123
-4.9607076e-05
-0.016114248
0.00063272087
-5.1093088e-05
-0.016109537
0.00094678903
-6.0991186e-05
-0.01707911
0.00094409143
-6.92877e-05
-0.017821002
0.00058305691
-7.4953396e-05
-0.018235391
2.0880522e-05
-7.6949968e-05
-0.018403852
-0.00053661323
-7.3332902e-05
-0.018395845
-0.00088403828
-5.949123e-05
-0.018206703
-0.00086785664
-2.3879017e-05
-0.017759774
-0.00054458671
4.9001113e-05
-0.016977574
0.00017007155
-0.015969166
0.00056286896
0.00017013788
-0.015842608
0.00090048585
1.6139315e-05
-0.016863276
0.00091951254
-5.2611201e-05
-0.017694856
0.00056590839
-7.769224e-05
-0.018177843
3.8928263e-07
-8.6100085e-05
-0.01838459
-0.00056867229
-8.7382183e-05
-0.018400149
-0.00093475405
-8.4478036e-05
-0.018234674
-0.00094076287
-7.7907406e-05
-0.017821778
-0.00062883187
-6.7549674e-05
-0.017081354
-5.3013666e-05
-0.016113431
0.0006253217
-6.0895147e-05
-0.016128828
0.00093557176
-8.2534067e-05
-0.017094565
0.0009263808
-9.6409626e-05
-0.017834207
0.0005544042
-0.00010370558
-0.018247088
-2.3981686e-05
-0.00010551597
-0.018411453
-0.00060310495
-0.00010203357
-0.018390456
-0.00097496659
-9.1538168e-05
-0.018166641
-0.00097675597
-6.8171131e-05
-0.017633446
-0.00065152859
-7.6388119e-06
-0.01666386
0.00013332618
-0.015469591
0.00075353624
6.9627303e-05
-0.015584265
0.0010480983
-2.5183565e-05
-0.016755264
0.0010202717
-8.4931214e-05
-0.017680454
0.00063260028
-0.00011955644
-0.018199772
4.2084479e-05
-0.00013866116
-0.018420225
-0.00054470679
-0.00014699212
-0.018439488
-0.00092169123
-0.00014647688
-0.018272806
-0.00093291828
-0.00013639466
-0.017857254
-0.0006233449
-0.00011515907
-0.017116543
-8.0999694e-05
-0.016153982
0.00062437867
-0.00012412702
-0.016169622
0.00093412441
-0.00016995975
-0.01713259
0.00092247218
-0.00020543495
-0.017878146
0.00054290348
-0.00022360015
-0.018299548
-4.8077235e-05
-0.00022589273
-0.018471623
-0.00064122135
-0.00021482497
-0.018459012
-0.0010264633
-0.00018901353
-0.01825412
-0.001044998
-0.00014474705
-0.017778342
-0.00073656557
-8.1071674e-05
-0.016956244
-1.0597431e-05
-0.015922645
0.00069903713
-7.9606746e-05
-0.016053128
0.001021834
-0.00015939219
-0.017038612
0.001016709
-0.00023189093
-0.017819696
0.00063850377
-0.00028460991
-0.018271243
4.6764444e-05
-0.00031472253
-0.01846414
-0.00054525499
-0.0003256941
-0.018469892
-0.0009254403
-0.00031770614
-0.018291401
-0.00093741079
-0.00028605793
-0.017861454
-0.000629063
-0.00023182769
-0.017106045
-0.0001629619
-0.016139315
0.00062964878
-0.00020313593
-0.015979813
0.00093120105
-0.00024790264
-0.016962805
0.00091847672
-0.00031665087
-0.017733392
0.0005429831
-0.00036203283
-0.018173042
-4.1788805e-05
-0.0003768073
-0.018357158
-0.00062492539
-0.00036749888
-0.018356226
-0.00099508338
-0.00033451524
-0.018169211
-0.00099714706
-0.00027346524
-0.017724148
-0.00067912659
-0.00019309804
-0.016947062
-0.00014332976
-0.015960297
0.000634169
-8.2049537e-05
-0.015601077
0.0009334759
-0.0001213865
-0.016598121
0.00093431736
-0.00019048127
-0.017381493
0.00058696488
-0.00024910938
-0.017828363
3.5650934e-05
-0.00027982027
-0.018013952
-0.00051778752
-0.00028690228
-0.018012075
-0.00087152153
-0.00026980617
-0.017823279
-0.00088179721
-0.00022225189
-0.017374632
-0.0005976643
-0.00016070512
-0.016590814
-0.00012407379
-0.015593588
0.00049423608
-3.5854002e-05
-0.014908397
0.00074770386
2.4460095e-05
-0.015885697
0.00074964919
-3.9932549e-06
-0.016663468
0.00044974864
-3.4781682e-05
-0.017118028
-2.9452587e-05
-4.5141471e-05
-0.017312893
-0.00050672597
-4.0192679e-05
-0.017316124
-0.00080070112
-2.0424132e-05
-0.017127236
-0.00078893932
1.77963e-05
-0.016677311
-0.00052268731
5.1060704e-05
-0.01590235
-7.6973249e-06
-0.014926296
0.00035247611
0.00013276278
-0.013985857
0.00057295438
0.00020736684
-0.014878914
0.00060037066
0.00021162196
-0.015612421
0.00038739004
0.00020227017
-0.016062484
2.4025059e-05
0.00019879599
-0.016262105
-0.00034095144
0.00019570576
-0.016258401
-0.00055907904
0.00019333997
-0.016051849
-0.00053993229
0.00019812976
-0.015596297
-0.00032995098
0.00019099861
-0.014859354
0.00011549291
-0.013964832
0.00017684079
-0.013002978
0.0003897288
-0.013738757
0.00034492802
-0.014418689
0.00024704394
-0.01487752
-1.9964454e-05
-0.015107132
-0.00028551574
-0.01511089
-0.00037897272
-0.014888302
-0.00041695818
-0.01443499
-0.00019528273
-0.013758523
-0.013024323
-6.7837942e-06
0.00015408955
6.8965073e-05
-0.00023042046
-0.013010173
-0.012456043
5.010302e-05
-0.00010155242
-0.012446948
6.9165024e-05
-0.00010809907
2.9839274e-05
-0.012452168
4.3058305e-05
-6.8835238e-05
3.0996822e-05
-0.012452109
2.5549869e-05
-4.1850781e-05
1.624137e-05
-0.012449238
2.3505031e-05
-3.2308046e-05
5.932816e-06
-0.012447718
1.255033e-05
-2.4460208e-05
1.0390019e-05
-0.012451235
1.0719828e-05
-1.8992619e-05
1.1789105e-05
-0.012455541
6.1090009e-06
-1.445917e-05
1.2656412e-05
-0.012459988
5.3005218e-06
-1.2067848e-05
1.1214579e-05
-0.01246346
4.8625418e-06
-1.1238144e-05
9.8471094e-06
-0.012466075
4.9544825e-06
-1.1144132e-05
8.8046635e-06
-0.012468105
4.9851228e-06
-1.1244036e-05
8.288983e-06
-0.012469882
5.0045622e-06
-1.1321119e-05
8.0939388e-06
-0.012471618
4.9757226e-06
-1.131995e-05
8.0794856e-06
-0.012473424
4.9052745e-06
-1.1231653e-05
8.1323604e-06
-0.012475372
4.8086611e-06
-1.1065478e-05
8.2048729e-06
-0.012477497
4.6749706e-06
-1.0821437e-05
8.2722445e-06
-0.012479816
4.4983881e-06
-1.0486206e-05
8.3067862e-06
-0.012482363
4.277004e-06
-1.0049705e-05
8.3194266e-06
-0.012485154
3.9967369e-06
-9.4969853e-06
8.2912652e-06
-0.012488198
3.6659374e-06
-8.835e-06
8.2131207e-06
-0.012491464
3.3135767e-06
-8.131381e-06
8.0832579e-06
-0.012494834
2.9964246e-06
-7.5185751e-06
7.8923425e-06
-0.012498049
2.811469e-06
-7.2213617e-06
7.6246593e-06
-0.012500661
2.905314e-06
-7.5716117e-06
7.27911e-06
-0.012501979
3.4578567e-06
-8.9967486e-06
6.8570259e-06
-0.012500958
4.6566228e-06
-1.2027357e-05
6.3493607e-06
-0.012496131
6.6378214e-06
-1.7205983e-05
5.7409378e-06
-0.012485779
9.29897e-06
-2.4698087e-05
5.0474258e-06
-0.012468719
1.1907316e-05
-3.3175888e-05
4.2081948e-06
-0.012446105
1.2826503e-05
-3.8523224e-05
3.0833434e-06
-0.01242306
9.9856895e-06
-3.4531106e-05
1.499581e-06
-0.012407256
2.295967e-06
-1.7497514e-05
-6.0244975e-07
-9.2720878e-06
1.0121038e-05
-3.046698e-06
0.011886329
1.9309408e-05
-6.4699676e-06
0.011876446
1.6026984e-05
-6.1440177e-06
0.011869027
1.3251601e-05
-5.8322109e-06
0.011863628
1.0936927e-05
-5.5374983e-06
0.01185985
9.0292163e-06
-5.2515388e-06
0.011857346
7.4783224e-06
-4.9739922e-06
0.011855836
6.2342999e-06
-4.7246417e-06
0.01185509
5.2366956e-06
-4.4911155e-06
0.011854913
4.4443702e-06
-4.2665965e-06
0.011855127
3.8734833e-06
-4.088111e-06
0.01185562
3.4086027e-06
-3.9016885e-06
0.011856294
3.0552764e-06
-3.7295144e-06
0.011857082
2.7819161e-06
-3.5698428e-06
0.011857936
2.5588355e-06
-3.4125964e-06
0.011858814
2.393209e-06
-3.2715478e-06
0.011859687
2.2788396e-06
-3.1516519e-06
0.011860528
2.198187e-06
-3.0385496e-06
0.011861282
2.1678654e-06
-2.9222852e-06
0.011861843
2.2208134e-06
-2.7813571e-06
0.011862091
2.3998566e-06
-2.6487105e-06
0.011861709
2.8492587e-06
-2.4668534e-06
0.011861191
3.3492283e-06
-2.8314714e-06
0.011860713
4.0574381e-06
-3.5791037e-06
0.011866153
2.7502846e-06
-8.1900024e-06
0.011872546
3.6064644e-06
-1.0000121e-05
0.011895591
-1.9634774e-06
-2.1080918e-05
0.011920196
-1.4015597e-06
-2.3204036e-05
0.011970963
-9.7333004e-06
-4.1033602e-05
0.012065162
-2.6523037e-05
-6.7675418e-05
6.9502572e-07
-4.8438092e-05
-0.012391616
-1.3256853e-05
-0.00015445108
-0.012305302
-2.3593265e-05
-8.9244378e-05
-0.012264646
-6.0775068e-06
-4.4311638e-05
-0.012241292
4.5197368e-06
-2.927515e-05
-0.01222499
5.6708862e-06
-2.3936703e-05
-0.012216791
6.8998915e-06
-1.1492142e-05
-0.012215781
6.6850925e-06
-4.9442443e-06
-0.012217436
6.6014449e-06
-8.8997278e-07
-0.01221966
6.1071054e-06
-5.3342896e-07
-0.012221146
5.4465023e-06
-1.1109833e-06
-0.012221713
4.8915309e-06
-1.9248269e-06
-0.012221565
4.5648108e-06
-2.4923252e-06
-0.012220983
4.4409311e-06
-2.8543985e-06
-0.012220172
4.4625746e-06
-3.0762098e-06
-0.012219247
4.5889136e-06
-3.2349132e-06
-0.012218288
4.8024836e-06
-3.3675517e-06
-0.012217325
5.1117961e-06
-3.5165214e-06
-0.012216392
5.5304513e-06
-3.6814165e-06
-0.012215581
6.0759569e-06
-3.8315026e-06
-0.012214962
6.781834e-06
-3.9925269e-06
-0.012214611
7.6972881e-06
-4.1751709e-06
-0.012214659
8.8584851e-06
-4.3653595e-06
-0.012215228
1.0383723e-05
-4.5780444e-06
-0.01221652
1.2320744e-05
-4.7947895e-06
-0.012218798
1.4763103e-05
-5.006659e-06
-0.012222339
1.780496e-05
-5.2350282e-06
-0.012227466
2.1534111e-05
-5.4701986e-06
-0.012234554
2.6040293e-05
-5.7003502e-06
-0.012244018
3.1417176e-05
-5.9264651e-06
3.7757344e-05
-6.1475387e-06
0.012829225
5.4693532e-05
-6.3112898e-06
0.01282097
4.5814857e-05
-6.1429822e-06
0.012814764
3.8203042e-05
-5.9566965e-06
0.012810298
3.1751016e-05
-5.7514649e-06
0.01280727
2.6362878e-05
-5.5297802e-06
0.012805408
2.1934219e-05
-5.3090701e-06
0.012804467
1.8357104e-05
-5.0951745e-06
0.012804201
1.5519566e-05
-4.8700763e-06
0.012804408
1.3290666e-05
-4.6384401e-06
0.012804964
1.1567047e-05
-4.4266649e-06
0.012805767
1.0222911e-05
-4.2438763e-06
0.012806748
9.1771261e-06
-4.0817605e-06
0.012807829
8.3758364e-06
-3.9266974e-06
0.012808917
7.7773477e-06
-3.7539156e-06
0.012809971
7.3387188e-06
-3.5897899e-06
0.012810965
7.0305226e-06
-3.4352548e-06
0.012811808
6.8508024e-06
-3.2313948e-06
0.012812342
6.8187856e-06
-2.9122322e-06
0.012812296
6.9766996e-06
-2.3661058e-06
0.012811278
7.3847576e-06
-1.4752176e-06
0.012808894
8.0818074e-06
-2.5121386e-07
0.012805119
9.0506048e-06
8.3141606e-07
0.012800968
1.0312847e-05
4.4020971e-07
0.012799501
1.1997055e-05
-3.8446991e-06
0.012806365
1.3999472e-05
-1.3964171e-05
0.012824992
1.5200155e-05
-2.8155963e-05
0.01285372
1.3920541e-05
-3.8128694e-05
0.012895245
6.2513994e-06
-5.3854643e-05
0.012989674
-1.1446011e-06
-0.00011687718
7.9470717e-05
-0.00022705084
-0.013629281
5.5274766e-05
-0.00025693604
-0.013514541
1.9146846e-05
-0.00013503161
-0.01345998
1.5955143e-05
-6.4265099e-05
-0.013420503
1.9565373e-05
-4.5121237e-05
-0.013394462
2.0620256e-05
-3.1461807e-05
-0.01338468
1.9097343e-05
-1.487953e-05
-0.01338577
1.6382012e-05
-3.2950375e-06
-0.013390577
1.3817283e-05
1.3025331e-06
-0.013395013
1.1939664e-05
1.5472297e-06
-0.013397759
1.0673826e-05
1.5384508e-07
-0.013398915
9.8790259e-06
-1.33855e-06
-0.013398979
9.4559041e-06
-2.4146512e-06
-0.013398409
9.3176414e-06
-3.068978e-06
-0.013397504
9.3925174e-06
-3.4467806e-06
-0.013396429
9.6370006e-06
-3.681878e-06
-0.013395271
1.0037131e-05
-3.8566537e-06
-0.013394059
1.0599024e-05
-4.0331465e-06
-0.013392828
1.135901e-05
-4.2138425e-06
-0.013391642
1.2379983e-05
-4.3889098e-06
-0.01339057
1.3719307e-05
-4.5684739e-06
-0.013389684
1.5446592e-05
-4.7660267e-06
-0.01338906
1.7664322e-05
-4.9978398e-06
-0.013388815
2.0516121e-05
-5.24149e-06
-0.01338913
2.4144635e-05
-5.4724864e-06
-0.013390188
2.8690284e-05
-5.6976282e-06
-0.013392168
3.4267117e-05
-5.9241306e-06
-0.01339525
4.0968247e-05
-6.1355861e-06
-0.013399572
4.8841583e-05
-6.3164193e-06
-0.013405202
5.7902973e-05
-6.4585536e-06
6.8202869e-05
-6.5609788e-06
0.013796094
7.5735189e-05
-6.5958064e-06
0.013794748
6.5851201e-05
-6.6019282e-06
0.013793497
5.6631787e-05
-6.5389474e-06
0.013792662
4.8211411e-05
-6.4089369e-06
0.01379237
4.0784354e-05
-6.2249412e-06
0.013792602
3.4463684e-05
-6.0055635e-06
0.013793271
2.9245882e-05
-5.7701471e-06
0.013794271
2.504267e-05
-5.5268312e-06
0.013795493
2.1720144e-05
-5.2778203e-06
0.013796846
1.9129784e-05
-5.0357281e-06
0.013798264
1.7122761e-05
-4.8218004e-06
0.013799692
1.5577217e-05
-4.6246917e-06
0.013801089
1.4397482e-05
-4.4353216e-06
0.013802429
1.3509963e-05
-4.2511733e-06
0.013803688
1.284899e-05
-4.0707175e-06
0.013804839
1.2367599e-05
-3.8814028e-06
0.013805812
1.2047528e-05
-3.6286207e-06
0.013806462
1.1890255e-05
-3.2225611e-06
0.013806519
1.1915252e-05
-2.5167121e-06
0.013805569
1.2171573e-05
-1.3416476e-06
0.013803186
1.2734679e-05
3.218968e-07
0.013799464
1.3699909e-05
1.9619506e-06
0.013796138
1.5164801e-05
1.9783793e-06
0.013797894
1.7094132e-05
-2.4681352e-06
0.013812196
1.897239e-05
-1.4177741e-05
0.013844737
1.9840503e-05
-3.1760966e-05
0.013893146
1.9152307e-05
-4.7995645e-05
0.013961612
1.838549e-05
-7.0896582e-05
0.014102349
2.4644747e-05
-0.00014623436
7.8391825e-05
-0.00027245533
-0.014346602
1.3932157e-05
-0.0002807523
-0.01418431
1.4368775e-05
-0.00015201578
-0.014107116
1.4792176e-05
-7.3601175e-05
-0.014054751
1.5014001e-05
-4.8226209e-05
-0.014019037
1.4988405e-05
-3.0862147e-05
-0.014001643
1.4807845e-05
-1.3229287e-05
-0.013997332
1.4595954e-05
-1.812942e-06
-0.013998949
1.4417044e-05
2.3644942e-06
-0.014001684
1.4304462e-05
2.1307458e-06
-0.01400354
1.4260321e-05
3.296407e-07
-0.014004223
1.4286806e-05
-1.4313583e-06
-0.014004037
1.438546e-05
-2.6567463e-06
-0.014003322
1.4563889e-05
-3.3887655e-06
-0.01400226
1.4797023e-05
-3.8108627e-06
-0.014001092
1.5276383e-05
-4.0773479e-06
-0.013999743
1.5780995e-05
-4.2812746e-06
-0.013998272
1.6509636e-05
-4.4698067e-06
-0.013996684
1.7473741e-05
-4.6647736e-06
-0.01399498
1.8743505e-05
-4.8706548e-06
-0.013993169
2.0402087e-05
-5.0893805e-06
-0.013991233
2.2519073e-05
-5.3255348e-06
-0.013989288
2.5356443e-05
-5.5817704e-06
-0.013987329
2.8936347e-05
-5.8519626e-06
-0.013985394
3.3432602e-05
-6.1217688e-06
-0.013983504
3.8951772e-05
-6.3782333e-06
-0.013981622
4.550748e-05
-6.6058689e-06
-0.013979563
5.2930197e-05
-6.7770048e-06
-0.013976892
6.0831226e-05
-6.8707285e-06
-0.013972821
6.8657821e-05
-6.8779348e-06
7.5946744e-05
-6.8025743e-06
0.013971738
6.9283665e-05
-6.8363654e-06
0.013981094
6.6127541e-05
-6.8256627e-06
0.013987783
6.0942503e-05
-6.8006786e-06
0.013992911
5.4520364e-05
-6.7177481e-06
0.013997153
4.7833233e-05
-6.5675911e-06
0.014000857
4.1608747e-05
-6.3608968e-06
0.014004173
3.6231077e-05
-6.1148042e-06
0.014007167
3.179219e-05
-5.8500683e-06
0.014009873
2.8233243e-05
-5.5827176e-06
0.014012271
2.5448926e-05
-5.3280537e-06
0.014014461
2.330093e-05
-5.0885631e-06
0.014016426
2.1640741e-05
-4.8619303e-06
0.014018185
2.0363e-05
-4.648564e-06
0.014019761
1.9385427e-05
-4.4514026e-06
0.014021165
1.8636146e-05
-4.2591773e-06
0.014022432
1.8059075e-05
-4.0495882e-06
0.014023398
1.7611179e-05
-3.7803254e-06
0.014024082
1.7235217e-05
-3.3559575e-06
0.01402423
1.6856065e-05
-2.6186319e-06
0.014023506
1.6399702e-05
-1.3888646e-06
0.01402161
1.5776817e-05
3.7960467e-07
0.014018839
1.4889971e-05
2.1861911e-06
0.014017191
1.3641154e-05
2.4235725e-06
0.014021487
1.2060592e-05
-1.760677e-06
0.014038885
1.060314e-05
-1.3193483e-05
0.014074641
1.0086058e-05
-3.0853811e-05
0.014127073
1.0823604e-05
-4.8240895e-05
0.014204371
1.114808e-05
-7.3654059e-05
0.01436693
3.9895322e-06
-0.00015217965
-5.0860796e-05
-0.00028109591
-0.014159737
-2.8069196e-05
-0.0002733505
-0.014018362
9.265977e-06
-0.00014665116
-0.013949593
1.3392825e-05
-7.101346e-05
-0.013901
1.0247135e-05
-4.8016567e-05
-0.013868346
9.1485106e-06
-3.1717081e-05
-0.013854022
1.0339545e-05
-1.4060092e-05
-0.013852315
1.265818e-05
-2.3051662e-06
-0.013855726
1.4895772e-05
2.1568884e-06
-0.013859545
1.6570549e-05
2.1379109e-06
-0.013862019
1.7771133e-05
4.8003855e-07
-0.013863047
1.8636496e-05
-1.2086915e-06
-0.01386305
1.927369e-05
-2.4145748e-06
-0.013862438
1.9775509e-05
-3.1525355e-06
-0.013861456
2.0218631e-05
-3.589238e-06
-0.013860213
2.0690542e-05
-3.8740753e-06
-0.013858739
2.1275137e-05
-4.1137575e-06
-0.013857039
2.2018715e-05
-4.3326283e-06
-0.013855097
2.2976667e-05
-4.5555059e-06
-0.013852862
2.4215013e-05
-4.8094411e-06
-0.013850277
2.5798789e-05
-5.0835486e-06
-0.013847282
2.7822636e-05
-5.3683484e-06
-0.013843815
3.0440869e-05
-5.6746624e-06
-0.013839804
3.37876e-05
-6.0060879e-06
-0.013835151
3.7918342e-05
-6.3401276e-06
-0.013829727
4.2844917e-05
-6.6609119e-06
-0.013823339
4.8392319e-05
-6.9463576e-06
-0.013815627
5.3990538e-05
-7.1827978e-06
-0.013805916
5.8621136e-05
-7.3892106e-06
-0.013793165
6.0988813e-05
-7.6122161e-06
6.0259245e-05
-7.9985088e-06
0.013398188
4.9090662e-05
-6.1981359e-06
0.013412455
5.2187352e-05
-5.4662038e-06
0.013424248
5.2076562e-05
-5.2476587e-06
0.013434104
4.9269034e-05
-5.1351742e-06
0.013442403
4.5107382e-05
-5.0137423e-06
0.013449387
4.0693613e-05
-4.8325116e-06
0.013455238
3.6660036e-05
-4.592964e-06
0.013460163
3.3186902e-05
-4.3243249e-06
0.01346431
3.0343595e-05
-4.0500323e-06
0.013467798
2.8143088e-05
-3.8077052e-06
0.013470737
2.6438635e-05
-3.5793365e-06
0.013473211
2.5079047e-05
-3.3380696e-06
0.013475307
2.3993475e-05
-3.1126818e-06
0.013477117
2.313899e-05
-2.9302737e-06
0.013478655
2.2475815e-05
-2.7384502e-06
0.013479914
2.1945248e-05
-2.5141854e-06
0.0134809
2.1493083e-05
-2.2601083e-06
0.013481484
2.1060549e-05
-1.8690756e-06
0.013481371
2.0580349e-05
-1.1938526e-06
0.013480121
1.998336e-05
-9.7016265e-08
0.013477251
1.9229056e-05
1.4127598e-06
0.013472675
1.8335805e-05
2.8108254e-06
0.013467735
1.727192e-05
2.5631474e-06
0.013466559
1.589666e-05
-2.0617365e-06
0.013476351
1.4263082e-05
-1.3716401e-05
0.013502537
1.3365191e-05
-3.0402303e-05
0.013542272
1.4665227e-05
-4.415317e-05
0.013597218
2.1878776e-05
-6.3431619e-05
0.013712746
2.8400051e-05
-0.00013466225
-5.3819626e-05
-0.000257335
-0.013080241
-0.00022517574
3.5872596e-05
-0.012985
-0.00011409442
4.7254312e-05
-0.012943022
-5.0550352e-05
3.0451031e-05
-0.012913981
-3.4643925e-05
2.0267688e-05
-0.012895168
-2.4584398e-05
1.9136885e-05
-0.012888247
-1.0307837e-05
1.7649643e-05
-0.012889746
-1.4215321e-07
1.7538173e-05
-0.012893969
4.1534866e-06
1.7340997e-05
-0.012897822
4.533308e-06
1.7655999e-05
-0.012900266
3.4387338e-06
1.8234005e-05
-0.012901318
2.1990598e-06
1.8835895e-05
-0.012901354
1.2967588e-06
1.9320153e-05
-0.012900733
7.3686621e-07
1.9702538e-05
-0.012899691
3.9751665e-07
2.00537e-05
-0.012898311
1.4480435e-07
2.0420359e-05