/*--------------------------------*- C++ -*----------------------------------*\
| =========                 |                                                 |
| \\      /  F ield         | OpenFOAM: The Open Source CFD Toolbox           |
|  \\    /   O peration     | Version:  v2012                                 |
|   \\  /    A nd           | Website:  www.openfoam.com                      |
|    \\/     M anipulation  |                                                 |
\*---------------------------------------------------------------------------*/
FoamFile
{
    version     2.0;
    format      ascii;
    class       volScalarField;
    location    "340";
    object      nut;
}
// * * * * * * * * * * * * * * * * * * * * * * * * * * * * * * * * * * * * * //

dimensions      [0 2 -1 0 0 0 0];


internalField   nonuniform List<scalar> 
121349
(
0.0087178263
0.0087208238
0.0087233614
0.0087254814
0.0087271428
0.0087283835
0.0087291588
0.0087295047
0.008729373
0.0087287626
0.0087276689
0.0087260833
0.008724001
0.0087214574
0.0087183995
0.0087148598
0.0087107758
0.0087061741
0.008700988
0.0086952446
0.0086888793
0.0086819205
0.0086742967
0.0086659925
0.0086569803
0.0086472399
0.0086367558
0.0086255627
0.0086135869
0.0086008615
0.0085873049
0.0085729467
0.0085577027
0.0085415547
0.0085244769
0.0085065038
0.0084875539
0.008467619
0.0084466828
0.0084247295
0.0084017516
0.0083778055
0.0083528315
0.0083268936
0.0082999284
0.0082718932
0.0082426383
0.0082119792
0.0081798227
0.0081470436
0.0081128902
0.0080822414
0.0080815925
0.0081246187
0.0082028249
0.0083061764
0.0084336009
0.008615505
0.0088168488
0.0090458316
0.0093178445
0.0096196048
0.0099534018
0.010293301
0.010619912
0.01095134
0.011258141
0.011533369
0.011799815
0.012030275
0.012251845
0.012438897
0.012607079
0.012725081
0.012839435
0.012948062
0.013015824
0.013096803
0.013169829
0.013230402
0.013272085
0.013328128
0.013373366
0.013428598
0.013475624
0.013505694
0.013525599
0.01357067
0.01356449
0.013514111
0.013431312
0.013287203
0.013084482
0.01280514
0.012400672
0.011931131
0.011336256
0.010706096
0.010010151
0.0093736388
0.0088462851
0.0085269766
0.0085023301
0.0087685997
0.0093700496
0.010189323
0.011202988
0.012374339
0.013777216
0.015324674
0.016842235
0.018171229
0.019278533
0.020117144
0.020745321
0.021140239
0.021401502
0.021506743
0.021537883
0.021466977
0.021409962
0.021384487
0.021441508
0.021410079
0.02141728
0.021450266
0.021496523
0.021534486
0.021563153
0.021574504
0.021585666
0.021590726
0.021590284
0.021591028
0.021585959
0.021585449
0.021579174
0.021567962
0.021559542
0.02154164
0.021523301
0.021511001
0.021496754
0.021471792
0.021441935
0.021411579
0.021358305
0.021308557
0.021242526
0.021196703
0.021185808
0.021226128
0.021167189
0.021183949
0.021253472
0.021340032
0.021423049
0.021497194
0.02155818
0.021605456
0.021642805
0.021668615
0.021689427
0.021698091
0.021704856
0.021710821
0.021717602
0.021721336
0.021725986
0.021730162
0.021731017
0.021735728
0.021747964
0.021748784
0.021760861
0.021764969
0.02177287
0.021784988
0.021791592
0.021794173
0.021798177
0.021804927
0.021807926
0.021810393
0.021820466
0.021831383
0.021836947
0.02184276
0.02185694
0.021865878
0.021881847
0.021889463
0.021904201
0.021917063
0.021931992
0.021949059
0.02196617
0.02198249
0.021991464
0.021997289
0.022008362
0.022015757
0.022028392
0.022031411
0.022037844
0.022046665
0.022057965
0.022065661
0.022072883
0.022078732
0.022077365
0.022082962
0.022091331
0.02208225
0.022074509
0.022045939
0.022013692
0.021969499
0.021916705
0.021861227
0.021830544
0.02183232
0.021891278
0.021839534
0.021858752
0.021888617
0.021959745
0.021994099
0.022040337
0.022046767
0.022064006
0.022042322
0.022025902
0.021963696
0.021900417
0.02177115
0.0215962
0.021322431
0.020982637
0.020507672
0.019925273
0.019180417
0.018304204
0.017253426
0.016064976
0.014728955
0.01329131
0.011841823
0.010431739
0.0092909553
0.0084674016
0.0084888652
0.0093055318
0.010456984
0.011829933
0.013265278
0.014699748
0.016028528
0.017237415
0.018278254
0.019171279
0.019899518
0.020496995
0.020954133
0.021309451
0.021565811
0.021762526
0.021869072
0.021948928
0.021991649
0.022030855
0.022031031
0.022032437
0.022003411
0.021977283
0.021922323
0.02186905
0.021819193
0.021812524
0.021825186
0.02184748
0.021900531
0.021960519
0.022008046
0.022039699
0.022067057
0.022072671
0.022070579
0.022031354
0.021985246
0.021912135
0.021800926
0.021608478
0.021348463
0.020995794
0.020531535
0.019935367
0.01920022
0.018303944
0.017253275
0.016035544
0.014698546
0.013271814
0.011839568
0.010491881
0.0093447997
0.0085324473
0.008605502
0.0094094973
0.010536185
0.01186674
0.013286023
0.014710889
0.016051564
0.017277664
0.018327816
0.019235523
0.019969824
0.020576124
0.021036335
0.021397142
0.02166691
0.021847357
0.021956705
0.022029485
0.022077306
0.022117741
0.022107424
0.022104238
0.022070718
0.022045895
0.021995363
0.021941635
0.02189007
0.021854759
0.021905818
0.021936008
0.022001273
0.02205073
0.022097705
0.022127992
0.022159124
0.02217556
0.022174452
0.022147158
0.022093612
0.022031112
0.021918017
0.021734239
0.021467644
0.02110306
0.020640499
0.02003047
0.019290297
0.018376515
0.017311375
0.016089844
0.014753328
0.013329849
0.011914449
0.010603747
0.0094981252
0.0087057312
0.0088209695
0.0096051015
0.010691893
0.011981794
0.013387464
0.014802013
0.016141153
0.017355888
0.018430574
0.019345267
0.020091724
0.020698483
0.021161684
0.021527572
0.021789463
0.02197571
0.022090361
0.02215274
0.022206528
0.022236532
0.022237042
0.022228245
0.022188155
0.022159443
0.022111048
0.022054954
0.021984523
0.021963653
0.022004811
0.022033772
0.02209503
0.022146155
0.022195747
0.022240113
0.022269064
0.02226957
0.02227817
0.022249563
0.022204963
0.02212868
0.022022273
0.021847301
0.021575384
0.021208455
0.020729993
0.020125122
0.019389373
0.018474987
0.017407182
0.01619291
0.014856596
0.013461455
0.012076751
0.010797023
0.0097373056
0.0089813984
0.0091703989
0.0099004506
0.0109341
0.012187958
0.013549071
0.014932853
0.016245461
0.017456035
0.018513047
0.019421925
0.02015367
0.02076003
0.021247787
0.021606041
0.021873567
0.022052405
0.022153502
0.022225017
0.022265678
0.022297858
0.022295006
0.022296166
0.022250118
0.022208818
0.02215664
0.022114885
0.022058368
0.022033419
0.022071669
0.022097357
0.022148156
0.022198312
0.022249308
0.022283683
0.022313245
0.02231216
0.02231302
0.022284534
0.022255031
0.022181279
0.022066777
0.021877735
0.02163351
0.021274395
0.020794845
0.020191341
0.019453837
0.018555366
0.017510904
0.016312584
0.015019041
0.013653811
0.012322748
0.011102412
0.010094605
0.0093932027
0.0096480229
0.010319266
0.011288327
0.0124753
0.013776975
0.015116153
0.016387772
0.017568433
0.018596306
0.019486659
0.020212978
0.020811743
0.021293383
0.021651989
0.021887269
0.022064371
0.022181728
0.022254559
0.02229243
0.022316347
0.022322919
0.022318605
0.022296139
0.022258244
0.022215558
0.022154673
0.022107963
0.022074947
0.022091216
0.022123595
0.022175855
0.022232423
0.022279243
0.02229741
0.022332905
0.022329774
0.022335938
0.02230195
0.022273815
0.022190835
0.022083065
0.021893987
0.021657599
0.02130821
0.020842982
0.020244312
0.019518457
0.018647996
0.017633669
0.016474567
0.015221269
0.013911987
0.012642003
0.011498926
0.010568328
0.0099264943
0.010235021
0.010837796
0.011725081
0.012822996
0.014053277
0.01533259
0.0165611
0.017699294
0.018690891
0.019544053
0.020258849
0.020850849
0.02131495
0.021665076
0.021901365
0.022087606
0.022196864
0.022277478
0.022306679
0.022334379
0.022326775
0.022327246
0.022293013
0.022271907
0.022218857
0.022166836
0.022110186
0.022072787
0.022062645
0.022092732
0.022159799
0.022221033
0.022260706
0.022294428
0.022330307
0.022333696
0.02233547
0.022318705
0.022287687
0.022212495
0.022097133
0.02191408
0.021666059
0.021320419
0.020854394
0.020277519
0.019582573
0.018745512
0.017765294
0.016653906
0.015449289
0.014211903
0.013016978
0.011960856
0.011124456
0.010555624
0.010872917
0.011409047
0.012193541
0.013209634
0.014367081
0.015569247
0.016742435
0.017833386
0.018792096
0.019623618
0.02030087
0.020873848
0.021332984
0.021669167
0.021911973
0.022086043
0.022207634
0.022276445
0.022314172
0.022317608
0.022320644
0.022324172
0.022280154
0.022243617
0.022211575
0.022161329
0.022092844
0.022072144
0.02206512
0.022096006
0.022157137
0.022204383
0.022250847
0.022283407
0.022312312
0.022313123
0.022323232
0.022314174
0.022278551
0.022209046
0.022100393
0.021911996
0.021683731
0.021345884
0.020908816
0.020333892
0.019647872
0.018827579
0.017884584
0.016821726
0.01568863
0.014518437
0.013405431
0.01244069
0.011689035
0.011184521
0.011481733
0.011964307
0.01267728
0.013600085
0.014668618
0.015794379
0.016888887
0.017932821
0.018856289
0.019660848
0.020342287
0.020915591
0.021340853
0.021682294
0.021903267
0.022086102
0.022189369
0.022268468
0.022320972
0.022328221
0.022321925
0.022308958
0.02227629
0.022230203
0.022182461
0.022140478
0.022082253
0.022053481
0.022050738
0.022082023
0.022134825
0.022182361
0.022232316
0.022270691
0.022301918
0.022309569
0.022327751
0.022327698
0.022280205
0.022199016
0.022089812
0.021910134
0.021676175
0.021343848
0.020917751
0.020361127
0.019681739
0.018881937
0.017976532
0.016955774
0.0158943
0.014806873
0.013793526
0.012914236
0.012223383
0.011755768
0.012009781
0.012459669
0.013119059
0.013970101
0.014949872
0.015994156
0.017018561
0.018013578
0.018894979
0.019686663
0.020362047
0.020908867
0.021335901
0.021660254
0.02189351
0.022078191
0.022183273
0.022261051
0.022305124
0.022317278
0.022298734
0.022292909
0.022267204
0.022228236
0.022168753
0.022124321
0.022072336
0.022036195
0.022030999
0.022063511
0.022117578
0.02217021
0.022214194
0.022238453
0.022280927
0.022297043
0.022306515
0.022283827
0.022260653
0.022179692
0.022061631
0.021885622
0.02165998
0.021325839
0.020892688
0.020361399
0.019700604
0.018914369
0.01804175
0.017079732
0.016081415
0.015074919
0.014129694
0.013316438
0.012675838
0.012237448
0.012444541
0.012868759
0.013488626
0.014284452
0.015197694
0.016158348
0.017123676
0.018056486
0.018911821
0.019696524
0.020342663
0.020883434
0.021312452
0.021650443
0.021882932
0.022049287
0.022162644
0.022246922
0.022264024
0.022288412
0.022285722
0.022261699
0.022226277
0.022203429
0.022148686
0.022104689
0.022055499
0.022021947
0.022024717
0.022051115
0.022097403
0.022145696
0.022201146
0.022224757
0.022268232
0.022274937
0.022282479
0.022259239
0.02223889
0.022164497
0.022049404
0.021881854
0.021637369
0.021317227
0.020895542
0.020343693
0.019687114
0.018911544
0.018082852
0.017171826
0.016239694
0.015310075
0.014431618
0.013647192
0.013032348
0.012617857
0.012782758
0.013185157
0.013782741
0.014544451
0.015398882
0.016300125
0.017210747
0.018092753
0.018907862
0.01967421
0.020325967
0.020890444
0.021307767
0.021638792
0.02188388
0.02204779
0.022161239
0.022230297
0.022244425
0.022264758
0.022257601
0.022252956
0.022212724
0.022185673
0.022127059
0.022081668
0.022032544
0.022004418
0.022001348
0.02202549
0.022071908
0.022125189
0.022178482
0.022208337
0.022253629
0.022261556
0.022259702
0.022246536
0.022219183
0.022154318
0.022038153
0.021884857
0.021652343
0.021321819
0.020893191
0.020335865
0.019682162
0.01892656
0.018112231
0.0172528
0.016365343
0.015475229
0.014629966
0.013888706
0.013307518
0.012914422
0.013024835
0.013414742
0.013990611
0.01471596
0.01554206
0.016407642
0.017278887
0.018130096
0.018924991
0.01968215
0.020333155
0.02089062
0.021311775
0.021627809
0.021862625
0.022030495
0.022138967
0.022193523
0.02222698
0.022233019
0.022246004
0.022230885
0.022194543
0.022163876
0.022110689
0.022062807
0.022013262
0.021983714
0.021976396
0.021996868
0.022055786
0.022116938
0.022158357
0.022192333
0.022228967
0.022239021
0.022230569
0.022220576
0.022191849
0.022134811
0.022043155
0.02187002
0.021624632
0.021301432
0.020887574
0.020348306
0.019697388
0.018946793
0.018149939
0.017311684
0.016448537
0.015603534
0.01480087
0.014072983
0.01351228
0.013125041
0.013196147
0.013584626
0.014136175
0.014856865
0.015652947
0.016489835
0.017344135
0.018185856
0.018970761
0.019708344
0.020358451
0.020883519
0.021294854
0.021626405
0.021850813
0.022027551
0.022114779
0.022179277
0.022198258
0.022212148
0.022223685
0.02220793
0.022165816
0.022133414
0.02209744
0.022050037
0.021988543
0.021974413
0.021956618
0.021982662
0.022040197
0.022086082
0.022130466
0.022158723
0.022190733
0.022214122
0.022222306
0.022201734
0.022173832
0.022121659
0.022034098
0.021859131
0.021635581
0.021311304
0.020899954
0.020374917
0.01973248
0.019002799
0.018216418
0.01738499
0.016542305
0.015702484
0.014903612
0.01419621
0.013642927
0.013261523
0.013326883
0.013697728
0.014248809
0.014950429
0.015736681
0.016564748
0.017411557
0.01823762
0.019029333
0.01976292
0.020402461
0.020920285
0.021312573
0.021628965
0.021846281
0.022020272
0.022097835
0.02214967
0.022180945
0.022201096
0.022189917
0.022167813
0.02213927
0.022098558
0.022049443
0.022014648
0.021959821
0.021934558
0.021917494
0.021942837
0.022001865
0.022036726
0.022077481
0.022111589
0.022141019
0.022169632
0.022175849
0.022179014
0.022152837
0.022096511
0.021999648
0.021848255
0.021640801
0.021319802
0.020935085
0.020407589
0.019791736
0.019070344
0.018284662
0.017449861
0.016605897
0.015767916
0.014993481
0.014305171
0.013750599
0.01338568
0.013431107
0.013795197
0.014352377
0.015033547
0.015799277
0.016638141
0.017483244
0.0183145
0.019083601
0.019807089
0.020418465
0.020939523
0.021321733
0.021639275
0.021842019
0.021983271
0.022093157
0.022152669
0.022174042
0.022175333
0.022154931
0.02213636
0.022098474
0.022077312
0.022046613
0.021997929
0.021926656
0.021908895
0.021898753
0.021927542
0.021989769
0.022034486
0.022073541
0.022106514
0.022127187
0.02213483
0.022150126
0.022147526
0.022141795
0.022086171
0.021985438
0.02183324
0.021640674
0.021340152
0.020952809
0.020439752
0.019828324
0.01911971
0.018335414
0.017498027
0.016673612
0.015848334
0.015075758
0.014396083
0.013842691
0.013484103
0.013533902
0.013887808
0.014428379
0.015117256
0.015884324
0.016693979
0.017520505
0.018356318
0.019123611
0.019828439
0.02044332
0.020956387
0.021323531
0.021625987
0.021814928
0.021969789
0.022070637
0.022117632
0.022135899
0.022150629
0.022129047
0.022116856
0.022083957
0.022051594
0.022008515
0.021968195
0.021907102
0.021879783
0.021880907
0.021909352
0.021966194
0.022015239
0.022059421
0.022086911
0.022108267
0.022117712
0.022130699
0.022127417
0.022113532
0.022052593
0.021955245
0.02182335
0.021626577
0.021323349
0.020956041
0.020458625
0.019843622
0.019149284
0.018383396
0.017547579
0.016723176
0.015912535
0.01516433
0.014486303
0.013938347
0.013584477
0.013628071
0.01397998
0.014511823
0.015190126
0.015937181
0.016747251
0.017575518
0.018401103
0.01915673
0.019855645
0.020465541
0.020960235
0.021314901
0.021615827
0.021801875
0.021955152
0.02205015
0.022107592
0.022117687
0.022130347
0.022114593
0.022105877
0.022078506
0.022042838
0.022002915
0.021943564
0.02189576
0.021860558
0.021857983
0.021891716
0.021943078
0.021997366
0.022044987
0.022068882
0.022111218
0.022125142
0.02212577
0.022112416
0.022083174
0.022038562
0.021943961
0.021792346
0.02160732
0.021303183
0.020943167
0.020461019
0.019869835
0.01917209
0.01841447
0.017608422
0.016774385
0.015977794
0.015224089
0.014551522
0.01401142
0.013653367
0.013675633
0.01403529
0.014559741
0.015231272
0.015974135
0.016779279
0.01760946
0.018405844
0.019154425
0.019837239
0.020430382
0.020905684
0.021281348
0.0215873
0.021776544
0.021920392
0.022020774
0.022077908
0.022096494
0.022116882
0.02210463
0.022097236
0.022055842
0.022024025
0.021971361
0.021922682
0.0218693
0.021833789
0.021824742
0.021849882
0.021911995
0.021967055
0.022010186
0.022058502
0.022096504
0.022101249
0.022102453
0.022083721
0.022058001
0.021994744
0.021911815
0.021757711
0.021563832
0.021272131
0.02088696
0.020397374
0.01980101
0.019116649
0.018369772
0.017569718
0.016775136
0.015970635
0.015236303
0.014567332
0.014049261
0.013711952
0.013708609
0.014043535
0.014549997
0.015207875
0.015933769
0.01672242
0.017498233
0.018286356
0.019021172
0.019710233
0.020327623
0.020822546
0.021204651
0.021495098
0.021708112
0.021878694
0.021973731
0.02204753
0.022071551
0.022090595
0.022087267
0.022086877
0.022041921
0.021987877
0.021947673
0.021906494
0.021841677
0.021824981
0.021811687
0.021838463
0.021898915
0.021954727
0.021997182
0.022029863
0.022083914
0.022091487
0.022089071
0.022073277
0.022016526
0.021953847
0.021839456
0.021647994
0.021416167
0.021103721
0.020713443
0.020213022
0.019592451
0.018898151
0.018157759
0.017386301
0.016623714
0.015862201
0.015142348
0.014495712
0.013998486
0.013667266
0.013578409
0.013903868
0.014390247
0.015016116
0.0157045
0.016451634
0.017199224
0.017950118
0.018694798
0.019389186
0.020021399
0.020566036
0.020978673
0.021328281
0.021577933
0.021781279
0.021897823
0.021987572
0.022054552
0.02207688
0.02208108
0.022068227
0.022015157
0.021986618
0.021930681
0.021879799
0.021819263
0.021794996
0.021793098
0.021814047
0.021875408
0.021925578
0.021974787
0.022007352
0.022053729
0.022068299
0.022065998
0.022026833
0.021964134
0.021848135
0.021706317
0.021476586
0.021206645
0.02083057
0.020368366
0.01978489
0.019141763
0.018421206
0.017689473
0.016939502
0.016217774
0.015501444
0.014828459
0.014220209
0.013748886
0.013435802
0.013214201
0.013511867
0.013964056
0.014551672
0.015193595
0.015895884
0.01660173
0.017338859
0.018071191
0.018805849
0.01948243
0.020109147
0.020613696
0.021031631
0.021347757
0.021611876
0.021779607
0.021914141
0.021983844
0.022036621
0.022048378
0.022043827
0.022004007
0.021960377
0.021932417
0.02188135
0.02181426
0.021797813
0.021789493
0.021816802
0.021877128
0.021926322
0.021966503
0.022002018
0.022030102
0.022029206
0.02199736
0.021953827
0.021872559
0.021724293
0.021513674
0.021212597
0.020841898
0.020365067
0.019791217
0.019111645
0.018400387
0.017655195
0.01691878
0.016194577
0.015498316
0.014823505
0.014192828
0.013627115
0.013195832
0.012915975
0.012508488
0.012782013
0.0131979
0.013742155
0.014342847
0.015008654
0.015706525
0.016418757
0.017150186
0.017922923
0.018686352
0.019424544
0.020069838
0.020615948
0.021044431
0.021393078
0.021624084
0.021803048
0.021906417
0.021972776
0.022013216
0.022016799
0.021988913
0.02195924
0.021903828
0.021860893
0.021805018
0.021780488
0.021778227
0.021799602
0.021855571
0.021898241
0.021940685
0.021966167
0.021987751
0.021995936
0.021959583
0.021866786
0.021735906
0.021534789
0.02126191
0.020881744
0.02039296
0.019760495
0.019031843
0.018237238
0.017413215
0.016610283
0.015857826
0.015155243
0.014467073
0.013804353
0.013207353
0.012683701
0.012286711
0.012032833
0.011439169
0.011692202
0.012087562
0.012603476
0.013198208
0.013865938
0.014556402
0.015287445
0.016062745
0.016901611
0.01777272
0.018643962
0.019452643
0.020152224
0.020695499
0.021139163
0.021457047
0.021687728
0.02183821
0.021932412
0.021971438
0.021986607
0.02196384
0.021947785
0.021908562
0.021860763
0.021797526
0.021779376
0.021766553
0.021798906
0.021860857
0.02190369
0.021941947
0.021968866
0.021976451
0.021945605
0.021894199
0.021798533
0.021653761
0.021399363
0.021031607
0.020534642
0.019908478
0.019140857
0.018267708
0.017331873
0.016402464
0.015542529
0.014725006
0.013959957
0.013249914
0.012568944
0.011969024
0.011447461
0.011052552
0.010803633
0.010120364
0.010378812
0.010790937
0.011327002
0.011951109
0.012659927
0.013408588
0.014208981
0.015061868
0.015961956
0.016927778
0.017938124
0.018878187
0.019712114
0.020379195
0.020922031
0.021316907
0.021609119
0.021778957
0.021879301
0.021934367
0.021966281
0.021953295
0.021929744
0.021884866
0.021850337
0.021788851
0.021756481
0.021760068
0.02179335
0.021851351
0.021895849
0.021941615
0.021960156
0.021959999
0.021929861
0.021876742
0.021754303
0.021577161
0.021269113
0.020841854
0.020273855
0.019559022
0.018682795
0.017681151
0.016623901
0.015619572
0.014670055
0.013779612
0.012942584
0.012143645
0.011399649
0.010749023
0.010192352
0.0097562508
0.0094880249
0.0089685353
0.0092511806
0.0097016295
0.010286738
0.010964887
0.011747582
0.012592023
0.013480867
0.014406264
0.015390275
0.016426898
0.017521577
0.018556523
0.019461677
0.020206097
0.020797463
0.021234486
0.021547909
0.021729605
0.021864066
0.021923967
0.021958313
0.021955191
0.021926378
0.021882824
0.02182254
0.021771825
0.021739491
0.02174554
0.021770967
0.021821511
0.021875155
0.021927711
0.021947366
0.021966209
0.021944636
0.021879072
0.021739127
0.021542338
0.021226368
0.020786719
0.020208763
0.019460678
0.018542586
0.017482053
0.016360858
0.015292838
0.014283864
0.013329715
0.012407623
0.011531651
0.010725165
0.010012755
0.0094124681
0.0089406126
0.0086493961
0.0086201652
0.0089093927
0.0093804131
0.0099873274
0.010702995
0.01152487
0.012417945
0.013358999
0.014340571
0.015373479
0.016452495
0.017576956
0.018632505
0.019533372
0.020265387
0.020830722
0.021258537
0.021548475
0.021740371
0.021878555
0.021926245
0.021955863
0.021938022
0.021915818
0.021864722
0.021813367
0.021758247
0.021725321
0.021718187
0.021743237
0.021808688
0.021873145
0.021904336
0.021939394
0.021949076
0.021926453
0.021883251
0.021769457
0.021595667
0.021321717
0.020921142
0.020395985
0.019707534
0.018838617
0.017811313
0.016707857
0.015625677
0.014584499
0.013590389
0.012630181
0.011736764
0.010925509
0.010225657
0.0096294471
0.0091753249
0.0088862921
0.0094686987
0.0097358297
0.010162798
0.010723314
0.011402172
0.012181454
0.013053488
0.014002157
0.014995716
0.016043759
0.017107107
0.018160391
0.019126932
0.019925786
0.02055536
0.021034778
0.021395372
0.021642106
0.021794296
0.021905946
0.021940424
0.021956583
0.02192716
0.021895801
0.021863845
0.021811549
0.021743327
0.021724264
0.021718356
0.021748485
0.021811667
0.021864352
0.021915425
0.02194348
0.021966744
0.021964201
0.021935046
0.021841842
0.021706995
0.021497238
0.021193626
0.020760597
0.020208981
0.019495684
0.018634999
0.017665935
0.016645782
0.01562417
0.014634054
0.013695193
0.012848653
0.012085961
0.01143867
0.010920086
0.010529726
0.010292031
0.011284901
0.011504088
0.011867209
0.012356929
0.012982812
0.013726902
0.014555344
0.015475707
0.016432354
0.017382013
0.018301092
0.019146812
0.019891404
0.02049631
0.020965556
0.021339229
0.021588691
0.021775797
0.021889216
0.021961474
0.021969001
0.021966952
0.021943893
0.021898977
0.021840884
0.021794567
0.02173647
0.021708767
0.021709256
0.021737731
0.021787754
0.021843344
0.021900556
0.021944787
0.021988415
0.021994849
0.021977987
0.021928166
0.021846691
0.021691551
0.021493222
0.021182416
0.020793871
0.02029243
0.019688372
0.018968896
0.018187262
0.017344339
0.016479712
0.015622054
0.014829465
0.014099916
0.013486911
0.013015669
0.012670915
0.01245999
0.013849585
0.014053447
0.014381328
0.014835243
0.015414937
0.016083873
0.016793792
0.01753014
0.018273198
0.018978139
0.019621891
0.02019934
0.02066992
0.021077742
0.021381399
0.021629025
0.021774456
0.021889052
0.02194263
0.021978723
0.021991172
0.021979196
0.021934141
0.02189337
0.021826738
0.021778678
0.021732286
0.02169924
0.021696851
0.021726597
0.02177703
0.021834388
0.021889069
0.02194048
0.021986871
0.021998969
0.022000973
0.021973996
0.02193054
0.021855896
0.021741701
0.021549899
0.021323058
0.021014394
0.020640792
0.02018468
0.019689756
0.019127963
0.018530551
0.017921597
0.017328378
0.016758702
0.016269445
0.015869405
0.0155774
0.015395042
0.016886473
0.017035805
0.017275286
0.017605595
0.018004873
0.018459956
0.018933386
0.019416707
0.019876176
0.02029621
0.02067211
0.021016003
0.021293062
0.021518809
0.021688924
0.021831627
0.021900436
0.02195416
0.021981753
0.021990298
0.021982121
0.021964264
0.021921694
0.021879446
0.021814103
0.02176835
0.021720659
0.021687805
0.021684419
0.021711334
0.021759441
0.021812898
0.021871203
0.021917739
0.021954839
0.02196653
0.02200032
0.021986984
0.021982338
0.021946031
0.021896964
0.021794296
0.021682504
0.02152501
0.021320863
0.021072231
0.020804703
0.020493011
0.020150378
0.019777
0.019409051
0.019067884
0.018762955
0.018509853
0.018317289
0.018208395
0.019287494
0.019360337
0.019511619
0.019704124
0.019921609
0.020174071
0.020453801
0.020723564
0.020963032
0.021178289
0.02137374
0.021548236
0.021687106
0.02178917
0.021868664
0.021938541
0.021963868
0.021991364
0.021982456
0.021985977
0.02194478
0.021928406
0.021878988
0.021846605
0.021792539
0.02173262
0.021690959
0.021659742
0.021639221
0.021670284
0.021724161
0.021779281
0.021831478
0.021865222
0.021906473
0.021922152
0.021969786
0.021975799
0.021978101
0.021974688
0.021970273
0.021928019
0.021874693
0.021801192
0.021712065
0.021591118
0.021461043
0.021307869
0.021139736
0.020958179
0.020754154
0.020578384
0.020418097
0.020280043
0.02017063
0.020122649
0.020728871
0.020759476
0.020831967
0.020935293
0.021048981
0.021169833
0.021312671
0.021443542
0.021552558
0.021658934
0.021728332
0.021810575
0.021862241
0.0219187
0.021940692
0.021965058
0.021947705
0.021940444
0.021945571
0.021935004
0.021883614
0.021865109
0.021826976
0.02178207
0.021735268
0.021678018
0.021632681
0.021596911
0.021552259
0.021586251
0.0216382
0.021692794
0.021747138
0.021785701
0.021815385
0.021830128
0.02186581
0.021895606
0.021899255
0.021906555
0.021929161
0.021932643
0.021914029
0.021889106
0.021851246
0.021806754
0.021763631
0.021695626
0.021625724
0.021532571
0.021442564
0.021349546
0.021277886
0.021204732
0.021137184
0.021119298
0.021359849
0.02136632
0.021424839
0.021482154
0.021518281
0.021580781
0.021636383
0.021704308
0.021748238
0.021802581
0.021821543
0.021848063
0.021872473
0.021874955
0.021881806
0.021886817
0.021863391
0.021858498
0.021840367
0.021808564
0.021772522
0.021757949
0.021722602
0.021681891
0.021619443
0.021575989
0.02152525
0.021487279
0.021419066
0.021454974
0.021510414
0.021562963
0.021607869
0.021651702
0.021691333
0.021706434
0.02174609
0.021770753
0.021791127
0.02180267
0.021807377
0.021828413
0.021835894
0.021837353
0.021836094
0.021813205
0.021789793
0.021752689
0.021732344
0.021683197
0.021656611
0.021601342
0.021568066
0.021515327
0.021478689
0.021486444
0.021504964
0.021500566
0.021543739
0.021586173
0.021607342
0.021653783
0.021672145
0.021707746
0.021717698
0.021739072
0.021757811
0.021774091
0.021760773
0.021759808
0.021756187
0.021728183
0.021711124
0.02169935
0.021683489
0.021663417
0.02163215
0.021615482
0.021570634
0.021513867
0.021467266
0.021428347
0.021376449
0.02133545
0.021258003
0.021293753
0.021341246
0.021388149
0.021434512
0.02148515
0.021541007
0.021566719
0.02160831
0.021620623
0.02162746
0.02163211
0.02165797
0.021676994
0.021697088
0.021688619
0.021692627
0.02169679
0.021687671
0.021666398
0.021665274
0.021644859
0.021627095
0.021583083
0.02156128
0.021511883
0.021468865
0.021454319
0.021388639
0.021409499
0.021451817
0.021500461
0.021526774
0.021567394
0.02158078
0.021588268
0.021592763
0.021605712
0.021625578
0.021626755
0.021619756
0.021621667
0.021596049
0.021592103
0.021561714
0.021558454
0.021543547
0.021524257
0.021496908
0.021459682
0.021411781
0.021371672
0.021318181
0.021269496
0.021212501
0.021175305
0.021148765
0.021178917
0.021232004
0.021294257
0.021335377
0.021393467
0.021422164
0.021459118
0.021487893
0.021498435
0.021505184
0.021527774
0.021548242
0.02154901
0.021563419
0.021573535
0.021570397
0.021580017
0.021569836
0.021572222
0.021567354
0.02155581
0.021546946
0.021516015
0.021477913
0.021430312
0.021383174
0.021368993
0.021535149
0.021548514
0.021759267
0.021980626
0.022206316
0.022431357
0.022656509
0.022882756
0.023109604
0.023335996
0.023561424
0.023786597
0.024011515
0.024235279
0.024458864
0.024682375
0.024903148
0.025121883
0.025339285
0.025556444
0.025771989
0.025985438
0.026198459
0.02640984
0.026617273
0.026821872
0.027024042
0.027224226
0.027423224
0.027619402
0.027812387
0.028001878
0.028188062
0.028369274
0.028545656
0.028718285
0.028887588
0.029052565
0.02921258
0.029367652
0.029518234
0.029663079
0.029802242
0.02993633
0.030065816
0.030189598
0.03030815
0.030421107
0.030528418
0.030630108
0.030726121
0.030816739
0.030902042
0.030981838
0.031056242
0.031125957
0.031190931
0.03125118
0.031307239
0.031359507
0.030952254
0.030864494
0.030771396
0.030673021
0.030569159
0.030459939
0.030345175
0.030225051
0.030099401
0.029968478
0.029832147
0.029690715
0.029544067
0.029392563
0.02923609
0.029074988
0.028909149
0.028738994
0.028564473
0.028386087
0.028203863
0.028018321
0.027829352
0.027637346
0.027442155
0.027244229
0.027043479
0.02684042
0.02663501
0.026427662
0.026218173
0.026006918
0.025793811
0.025579357
0.02536341
0.025146333
0.024927972
0.024708773
0.024488551
0.024267661
0.024045952
0.023823832
0.023601071
0.02337785
0.023154196
0.022930281
0.022707129
0.022484786
0.022265021
0.022055859
0.022004752
0.022216911
0.022438047
0.022661428
0.022885399
0.02310985
0.023334079
0.023558017
0.023781158
0.024003953
0.024226345
0.024448329
0.024669311
0.024889468
0.025108674
0.025326929
0.02554368
0.025759221
0.025973353
0.026185955
0.026396215
0.026604446
0.026810443
0.02701445
0.027216046
0.027415016
0.027611085
0.027804126
0.027993813
0.028180196
0.028363163
0.028542623
0.028718131
0.02888946
0.029056354
0.029218685
0.02937615
0.029528749
0.029676348
0.029818817
0.029956056
0.030087989
0.030214553
0.030335671
0.030451327
0.030561509
0.030666252
0.030765569
0.030859541
0.030948944
0.030968249
0.030879851
0.030786293
0.030687421
0.030583148
0.030473437
0.030358264
0.030237614
0.030111537
0.029980097
0.029843361
0.029701252
0.029553963
0.02940158
0.029244298
0.029082253
0.028915669
0.028744681
0.028569473
0.028390253
0.028207605
0.028021319
0.027831634
0.027638661
0.027442622
0.027243705
0.027042168
0.026838215
0.026632388
0.026423991
0.026213316
0.025999811
0.025784551
0.025568193
0.025351053
0.025132163
0.024912369
0.024691508
0.024469902
0.024247376
0.024024897
0.023802242
0.023579526
0.023355628
0.023131293
0.022906567
0.022682333
0.02245898
0.022237953
0.022026307
0.022055403
0.022268129
0.022490586
0.02271553
0.022941261
0.023166857
0.0233928
0.023616737
0.023838687
0.024060102
0.024281901
0.0245052
0.024727825
0.024949229
0.025170325
0.025389113
0.025605327
0.025820188