/*--------------------------------*- C++ -*----------------------------------*\
| =========                 |                                                 |
| \\      /  F ield         | OpenFOAM: The Open Source CFD Toolbox           |
|  \\    /   O peration     | Version:  v2012                                 |
|   \\  /    A nd           | Website:  www.openfoam.com                      |
|    \\/     M anipulation  |                                                 |
\*---------------------------------------------------------------------------*/
FoamFile
{
    version     2.0;
    format      ascii;
    class       volScalarField;
    location    "340";
    object      omega;
}
// * * * * * * * * * * * * * * * * * * * * * * * * * * * * * * * * * * * * * //

dimensions      [0 0 -1 0 0 0 0];


internalField   nonuniform List<scalar> 
121056
(
33.95872
33.197633
32.532622
31.906487
31.312108
30.747622
30.211527
29.702076
29.217471
28.755742
28.314986
27.893459
27.489593
27.101992
26.729415
26.370753
26.025018
25.691324
25.368871
25.056936
24.754866
24.462067
24.177997
23.902162
23.63411
23.373427
23.119731
22.872671
22.631924
22.397188
22.168186
21.944658
21.726366
21.513084
21.304603
21.100729
20.901281
7.9213998
7.9432749
7.9652902
7.9874468
8.0097458
8.0321872
8.0547716
8.0774993
8.10037
8.1233829
8.1465369
8.1698306
8.1932622
8.2168289
8.2405271
8.2643527
8.2883005
8.3123644
8.3365376
8.360812
8.385179
8.4096298
8.4341547
8.4587451
8.4833929
8.508091
8.5328344
8.5576205
8.5824486
8.6073212
8.6322434
8.6572229
8.6822698
8.7073962
8.732616
8.7579438
8.7833954
8.8089867
8.8347333
8.8606504
8.8867529
8.9130544
8.9395672
8.9663022
8.9932692
9.0204757
8.7553963
8.730511
8.7056141
8.6807066
8.6557916
8.6308743
8.6059615
8.5810612
8.5561822
8.5313337
8.5065252
8.4817664
8.4570665
8.4324341
8.4078775
8.3834044
8.3590214
8.3347348
8.3105499
8.2864713
8.2625031
8.2386488
8.2149111
8.1912922
8.1677943
8.1444187
8.1211666
8.0980389
8.0750359
8.0521582
8.0294059
8.006779
7.9842773
7.9619007
7.9396489
7.9175215
7.8955181
7.8736385
7.8518822
7.8302489
7.8087385
7.7873508
7.788764
7.8101518
7.8316628
7.8532969
7.8750541
7.8969347
7.9189393
7.9410684
7.9633219
7.9857005
8.0082044
8.030834
8.0535889
8.0764696
8.0994761
8.1226075
8.1458634
8.1692432
8.1927458
8.2163699
8.240113
8.263973
8.2879474
8.3120328
8.3362247
8.3605188
8.3849096
8.409391
8.433956
8.4585974
8.4833064
8.5080743
8.532892
8.5577497
8.5826377
8.6075467
8.6324677
8.6573929
8.6823148
8.7072284
8.7321302
8.7570199
8.7606018
8.7357052
8.710794
8.6858693
8.6609341
8.6359941
8.611057
8.586131
8.5612252
8.5363494
8.5115133
8.486727
8.4619996
8.4373404
8.4127582
8.3882601
8.3638534
8.3395442
8.3153377
8.2912386
8.2672515
8.2433797
8.2196254
8.1959908
8.1724785
8.1490897
8.1258258
8.1026868
8.0796732
8.056786
8.0340253
8.0113904
7.9888816
7.9664985
7.9442409
7.922108
7.9000999
7.8782164
7.8564563
7.8348192
7.8133057
7.7919155
7.7972448
7.8186376
7.8401538
7.8617937
7.8835571
7.9054445
7.9274567
7.9495941
7.9718571
7.9942461
8.0167614
8.0394034
8.0621724
8.0850685
8.1080918
8.1312416
8.1545175
8.1779192
8.2014457
8.2250954
8.2488662
8.2727559
8.296762
8.3208813
8.3451097
8.3694418
8.3938726
8.4183958
8.4430043
8.4676903
8.4924451
8.5172594
8.5421234
8.5670267
8.5919592
8.6169107
8.6418717
8.6668335
8.6917879
8.7167291
8.7416535
8.7665596
8.7752471
8.7503288
8.725387
8.7004238
8.6754435
8.6504528
8.6254598
8.6004741
8.5755059
8.5505658
8.5256649
8.5008136
8.4760225
8.4513011
8.4266584
8.4021025
8.3776404
8.3532788
8.3290231
8.3048782
8.2808483
8.2569365
8.2331456
8.2094778
8.1859348
8.1625181
8.1392286
8.1160668
8.0930331
8.0701277
8.0473506
8.0247016
8.0021804
7.9797864
7.9575192
7.9353785
7.9133635
7.8914739
7.8697088
7.848068
7.8265509
7.8051573
7.8160428
7.8374307
7.8589421
7.8805777
7.9023381
7.924224
7.9462358
7.9683742
7.9906401
8.013034
8.0355565
8.0582081
8.0809893
8.1039003
8.1269414
8.1501124
8.1734132
8.1968433
8.2204017
8.2440873
8.2678986
8.2918332
8.3158885
8.3400613
8.3643475
8.3887423
8.41324
8.4378341
8.462517
8.4872805
8.5121151
8.5370109
8.5619569
8.5869418
8.611954
8.636982
8.6620147
8.6870419
8.7120546
8.7370452
8.7620087
8.7869426
8.8019446
8.7769937
8.7520058
8.726984
8.7019344
8.6768656
8.6517875
8.6267114
8.6016494
8.5766141
8.551618
8.5266732
8.5017913
8.4769829
8.4522576
8.4276243
8.4030906
8.3786633
8.3543482
8.33015
8.3060728
8.2821196
8.258293
8.2345953
8.2110277
8.1875915
8.1642873
8.1411153
8.1180757
8.0951684
8.0723931
8.0497492
8.0272362
8.0048533
7.9825997
7.9604748
7.9384775
7.9166071
7.8948628
7.8732438
7.8517494
7.8303788
7.8488578
7.8701928
7.8916515
7.9132349
7.9349441
7.9567801
7.9787437
8.0008359
8.0230581
8.0454113
8.0678963
8.090514
8.1132654
8.1361513
8.1591722
8.1823283
8.2056198
8.2290469
8.252609
8.2763052
8.3001343
8.3240942
8.3481824
8.372396
8.3967312
8.4211832
8.4457461
8.4704131
8.4951763
8.5200264
8.5449534
8.5699459
8.5949917
8.6200775
8.6451899
8.6703152
8.6954398
8.7205511
8.7456379
8.7706903
8.7957015
8.8206672
8.8437671
8.8187969
8.793772
8.7686974
8.7435815
8.7184355
8.6932722
8.6681058
8.6429513
8.6178239
8.5927384
8.5677092
8.5427494
8.517871
8.4930849
8.4684004
8.4438257
8.4193678
8.3950325
8.3708247
8.3467478
8.3228049
8.2989981
8.2753291
8.2517991
8.2284083
8.2051569
8.1820444
8.1590708
8.1362351
8.1135367
8.0909743
8.0685468
8.0462529
8.0240915
8.0020611
7.9801602
7.9583873
7.9367414
7.9152212
7.8938257
7.872553
7.9030296
7.9242043
7.9454995
7.9669178
7.988461
8.0101312
8.0319295
8.0538571
8.0759163
8.0981089
8.1204365
8.1429008
8.1655034
8.1882459
8.2111295
8.2341555
8.2573248
8.2806377
8.3040945
8.3276953
8.3514397
8.3753264
8.3993533
8.423518
8.4478171
8.4722464
8.4968
8.5214704
8.5462494
8.5711274
8.5960929
8.6211332
8.6462342
8.67138
8.6965543
8.7217406
8.7469216
8.7720814
8.7972053
8.8222804
8.8472971
8.872249
8.9076484
8.8827575
8.8577909
8.8327563
8.8076649
8.7825318
8.7573738
8.732209
8.7070567
8.6819353
8.6568634
8.6318579
8.606934
8.5821055
8.5573842
8.5327803
8.5083024
8.4839572
8.4597505
8.4356862
8.4117674
8.3879962
8.364374
8.3409013
8.3175781
8.2944039
8.2713782
8.2484994
8.2257662
8.2031765
8.1807287
8.1584206
8.1362504
8.1142155
8.0923136
8.0705428
8.0489012
8.0273859
8.0059947
7.9847254
7.9635759
7.9425435
8.0150023
8.0359575
8.0570247
8.0782079
8.0995111
8.1209365
8.1424875
8.1641665
8.1859764
8.2079205
8.2300018
8.2522231
8.2745863
8.2970938
8.3197487
8.3425531
8.3655096
8.3886191
8.4118832
8.4353025
8.4588773
8.482607
8.5064903
8.5305247
8.5547071
8.579032
8.6034929
8.6280813
8.6527865
8.6775964
8.7024967
8.7274708
8.7525001
8.7775644
8.8026425
8.8277128
8.8527547
8.8777485
8.9026769
8.9275268
8.9522895
9.0097391
8.9851985
8.9605576
8.9358264
8.9110202
8.886159
8.8612653
8.8363632
8.8114775
8.7866316
8.7618483
8.7371476
8.7125474
8.6880628
8.6637064
8.6394885
8.6154174
8.591499
8.5677374
8.5441358
8.5206952
8.4974158
8.4742975
8.4513386
8.4285379
8.4058923
8.3833998
8.3610573
8.3388615
8.3168089
8.2948963
8.2731205
8.2514775
8.2299632
8.2085752
8.1873087
8.1661611
8.1451273
8.1242044
8.1033899
8.0826803
8.1720365
8.1924829
8.2130161
8.2336444
8.2543727
8.2752034
8.2961406
8.3171882
8.3383515
8.3596322
8.3810361
8.4025695
8.4242361
8.4460393
8.4679843
8.4900759
8.5123189
8.534716
8.5572709
8.5799871
8.6028671
8.6259126
8.6491244
8.6725028
8.6960471
8.7197536
8.7436175
8.7676314
8.7917852
8.8160665
8.8404599
8.8649468
8.889505
8.9141097
8.938734
8.9633496
8.9879291
9.0124458
9.0368764
9.0612038
9.1636607
9.1397261
9.1156744
9.0915256
9.0673072
9.0430498
9.0187857
8.9945475
8.9703648
8.9462651
8.9222716
8.8984038
8.8746772
8.851104
8.8276921
8.8044476
8.7813733
8.7584706
8.7357389
8.7131771
8.6907809
8.6685475
8.6464716
8.6245492
8.6027738
8.5811407
8.5596448
8.5382805
8.5170419
8.495924
8.474921
8.4540271
8.4332365
8.412546
8.3919477
8.3714389
8.3510134
8.3306663
8.3103933
8.2901896
8.4458654
8.4659421
8.4860607
8.5062313
8.5264548
8.5467377
8.5670815
8.5874931
8.6079791
8.6285447
8.6491971
8.6699426
8.6907885
8.711741
8.732808
8.7539973
8.7753143
8.7967659
8.8183589
8.840101
8.8619975
8.8840546
8.9062793
8.9286764
8.9512487
8.9739979
8.9969238
9.0200234
9.04329
9.0667141
9.0902817
9.1139738
9.1377664
9.1616303
9.185533
9.2094373
9.2333066
9.2571048
9.2808003
9.4765821
9.4529929
9.4293126
9.4055776
9.3818294
9.358109
9.3344567
9.3109062
9.2874874
9.2642224
9.2411274
9.2182129
9.1954851
9.1729457
9.1505931
9.1284228
9.106429
9.0846043
9.0629404
9.0414275
9.0200575
8.9988204
8.9777064
8.956706
8.9358132
8.9150175
8.8943108
8.8736845
8.8531316
8.832643
8.8122115
8.7918285
8.7714884
8.7511881
8.7309246
8.7106868
8.6904701
8.6702712
8.6500817
8.9157855
8.9365323
8.9572474
8.9779429
8.9986307
9.0193107
9.0399873
9.06067
9.0813665
9.1020808
9.1228139
9.1435755
9.1643764
9.1852257
9.2061349
9.2271104
9.2481641
9.2693021
9.2905378
9.3118864
9.3333618
9.3549747
9.3767386
9.3986678
9.4207738
9.4430693
9.4655663
9.4882747
9.5111996
9.5343419
9.5576992
9.5812625
9.6050147
9.6289301
9.652976
9.677113
9.7012985
9.7254884
9.7496433
10.130263
10.104182
10.078213
10.052389
10.026753
10.001341
9.9761864
9.9513105
9.9267285
9.9024434
9.8784514
9.854742
9.8313003
9.8081082
9.7851455
9.7623902
9.7398212
9.7174167
9.6951565
9.673021
9.650993
9.6290556
9.6071926
9.585388
9.5636298
9.5419053
9.5202084
9.4985219
9.4768368
9.4551472
9.4334518
9.4117377
9.3899975
9.3682237
9.3464156
9.324567
9.302673
9.2807275
9.2587262
9.6966886
9.7210354
9.7453002
9.7695026
9.7936372
9.8177064
9.8417142
9.8656674
9.889559
9.9133991
9.9372025
9.9609802
9.9847266
10.008457
10.03219
10.055929
10.079692
10.10349
10.127344
10.151278
10.175311
10.199467
10.223771
10.248257
10.272953
10.297893
10.323118
10.348664
10.374569
10.400868
10.427594
10.454777
10.482437
10.510584
10.539217
10.568326
10.597894
10.627898
10.658324
11.385545
11.346833
11.309126
11.272378
11.236567
11.201666
11.16764
11.134447
11.102038
11.07035
11.039317
11.008867
10.978934
10.949451
10.920356
10.891589
10.863099
10.834839
10.806767
10.778845
10.751041
10.723328
10.695679
10.668072
10.640492
10.612916
10.585339
10.557737
10.530101
10.502426
10.474706
10.446932
10.419101
10.39121
10.363267
10.335254
10.30717
10.279013
10.25079
10.943166
10.977442
11.011658
11.045837
11.079999
11.114147
11.148275
11.182386
11.216479
11.25056
11.284637
11.318721
11.352809
11.386922
11.421086
11.455307
11.489608
11.523999
11.558513
11.59319
11.628072
11.663188
11.698592
11.734348
11.77052
11.807182
11.844423
11.882341
11.921046
11.960651
12.001275
12.043045
12.086081
12.13049
12.176373
12.22384
12.273009
12.323989
12.376971
13.632903
13.560892
13.491911
13.425696
13.361992
13.300599
13.24135
13.184082
13.128607
13.074728
13.022256
12.971011
12.920831
12.871572
12.823108
12.775333
12.728153
12.681488
12.635269
12.589437
12.543945
12.498746
12.453806
12.409101
12.364598
12.320285
12.276129
12.232124
12.188247
12.144496
12.100849
12.057308
12.013856
11.970489
11.927205
11.884007
11.84089
11.797861
12.833744
12.888887
12.944289
12.999982
13.055947
13.112206
13.168787
13.225696
13.282914
13.340469
13.398388
13.456694
13.515409
13.574566
13.6342
13.694327
13.754988
13.816223
13.878085
13.94064
14.003944
14.068083
14.133161
14.199289
14.266587
14.335207
14.405314
14.477114
14.550839
14.62674
14.705083
14.786134
14.870121
14.95723
15.047639
15.141604
15.23952
15.341814
17.468845
17.328593
17.193232
17.062502
16.936096
16.8139
16.695904
16.582019
16.472023
16.365613
16.262456
16.162228
16.064623
15.969379
15.876251
15.785035
15.695561
15.607678
15.521255
15.43619
15.35237
15.269701
15.188106
15.107521
15.027882
14.949158
14.871278
14.794197
14.717883
14.6423
14.567413
14.493201
14.419641
14.34671
14.274385
14.202672
14.131524
14.060909
15.464141
15.553305
15.643309
15.734233
15.826024
15.918734
16.012402
16.107084
16.202785
16.299542
16.397412
16.496462
16.596729
16.698279
16.801195
16.905533
17.011391
17.118837
17.228007
17.339039
17.45206
17.567225
17.684717
17.804741
17.927532
18.053362
18.182521
18.315362
18.452271
18.593601
18.739703
18.890821
19.046988
19.207985
19.373374
19.542824
19.71636
19.891948
9.0112865
8.9832578
8.9554158
8.9277576
8.9002795
8.8729775
8.8458471
8.8188837
8.7920823
8.7654378
8.7389452
8.7125995
8.6863958
8.6603293
8.6343957
8.6085909
8.5829111
8.5573532
8.531914
8.5065913
8.4813831
8.4562876
8.4313036
8.4064303
8.3816673
8.3570143
8.3324712
8.3080383
8.2837163
8.2595054
8.2354064
8.2114199
8.1875467
8.1637876
8.1401433
8.1166145
8.0932019
8.0699059
8.046727
8.0236659
8.0007228
7.977898
7.9551918
7.9326044
7.9101359
7.8877864
7.8655559
7.8434447
7.8214525
7.7995797
7.7872842
7.8086709
7.8085021
7.8082012
7.8077631
7.807202
7.7917939
7.7933878
7.7949689
7.7965446
7.7981198
7.7996974
7.801279
7.802864
7.8044517
7.8060391
7.807623
7.8091992
7.8107631
7.8123096
7.8138331
7.8153277
7.8167873
7.8182056
7.8195762
7.8208921
7.8221466
7.8233329
7.8244445
7.8254756
7.8264214
7.8272783
7.8280434
7.8287116
7.8292728
7.8297108
7.8300115
7.8301804
7.8518128
7.8516437
7.8513433
7.8509053
7.8503438
7.8496749
7.8489089
7.8480509
7.8471039
7.8460715
7.8449585
7.843771
7.8425152
7.8411982
7.8398267
7.8384075
7.8369471
7.8354519
7.8339278
7.8323808
7.8308164
7.8292396
7.8276552
7.8260672
7.8244789
7.8228931
7.8213107
7.8197319
7.8181554
7.8165781
7.8149953
7.8133994
7.81178
7.8101257
7.824558
7.8265136
7.8283692
7.8301415
7.8318476
7.8335048
7.8351265
7.8367247
7.8383093
7.8398885
7.8414663
7.8430461
7.8446296
7.8462162
7.8478052
7.8493938
7.8509788
7.8525561
7.8541212
7.8556687
7.8571934
7.8586893
7.8601504
7.8615705
7.862943
7.8642611
7.8655181
7.8667068
7.8678212
7.8688549
7.8698031
7.8706622
7.8714292
7.8720988
7.8726608
7.8730991
7.8733996
7.8735686
7.8954477
7.8952785
7.8949779
7.8945394
7.8939769
7.8933065
7.8925385
7.8916783
7.8907289
7.8896938
7.8885783
7.8873883
7.8861302
7.884811
7.8834374
7.8820165
7.8805545
7.8790578
7.8775324
7.8759843
7.8744186
7.8728406
7.8712549
7.8696657
7.8680759
7.8664883
7.8649039
7.8633228
7.8617435
7.8601626
7.858576
7.8569757
7.8553515
7.8536914
7.851982
7.8502057
7.8483455
7.8463846
7.8443059
7.8420956
7.8397426
7.8372408
7.8345907
7.8317984
7.8288774
7.8258471
7.8227329
7.8195639
7.8163721
7.7996826
7.7998982
7.8002537
7.8007723
7.8014629
7.8023253
7.8033558
7.8045523
7.8059159
7.807448
7.8091515
7.8110279
7.8130781
7.8153013
7.8176939
7.8202505
7.8229615
7.8258136
7.8287885
7.831864
7.8350133
7.8382062
7.84141
7.8445915
7.8477183
7.8507612
7.8536943
7.8564978
7.8591583
7.8616693
7.8640305
7.866248
7.8683327
7.8702992
7.872164
7.8739442
7.8756571
7.8773203
7.8789469
7.8805494
7.8821382
7.8837209
7.8853019
7.8868843
7.8884698
7.8900584
7.891649
7.8932391
7.8948254
7.8964042
7.8979705
7.8995193
7.9010455
7.902543
7.9040058
7.9054277
7.9068023
7.9081227
7.909382
7.9105731
7.91169
7.9127263
7.913677
7.9145384
7.9153074
7.9159785
7.9165415
7.9169802
7.9172809
7.9174505
7.9395773
7.9394075
7.9391067
7.9386677
7.9381041
7.9374322
7.9366622
7.9357996
7.9348477
7.93381
7.9326918
7.9314994
7.9302389
7.9289174
7.9275417
7.9261188
7.9246551
7.9231568
7.9216299
7.9200803
7.9185132
7.9169336
7.9153465
7.9137556
7.9121639
7.9105743
7.9089876
7.9074038
7.9058211
7.9042365
7.9026455
7.9010404
7.8994111
7.897745
7.8960286
7.8942443
7.8923749
7.8904028
7.8883121
7.8860875
7.8837182
7.8811981
7.8785273
7.8757126
7.8727676
7.8697122
7.8665728
7.8633788
7.8601629
7.8569588
7.8537993
7.8507147
7.8477318
7.8448731
7.8421563
7.8395951
7.8371985
7.8349721
7.832919
7.8310402
7.8293345
7.8278006
7.8264352
7.825237
7.8242048
7.8233407
7.8226483
7.8221281
7.8217714
7.8215551
7.8435469
7.8437637
7.8441218
7.8446434
7.8453376
7.8462036
7.8472376
7.8484376
7.8498049
7.851341
7.8530489
7.8549305
7.8569866
7.8592166
7.8616175
7.8641839
7.8669067
7.8697725
7.8727636
7.8758574
7.8790274
7.8822429
7.8854708
7.8886773
7.8918293
7.8948971
7.8978539
7.9006795
7.9033606
7.9058897
7.9082669
7.9104987
7.9125954
7.914573
7.9164471
7.9182355
7.9199553
7.9216246
7.9232567
7.9248644
7.9264579
7.9280444
7.9296288
7.9312142
7.9328022
7.9343931
7.9359857
7.9375776
7.9391657
7.9407461
7.9423141
7.9438645
7.9453922
7.9468914
7.9483561
7.94978
7.9511567
7.9524794
7.9537411
7.9549348
7.9560543
7.9570934
7.9580467
7.9589104
7.9596814
7.9603542
7.9609184
7.9613578
7.9616589
7.9618289
7.9842052
7.984035
7.9837337
7.9832938
7.9827289
7.9820552
7.9812832
7.9804183
7.9794638
7.9784234
7.9773026
7.9761076
7.9748446
7.9735207
7.9721428
7.9707178
7.9692522
7.9677521
7.9662235
7.9646721
7.9631032
7.9615218
7.9599328
7.9583398
7.9567459
7.9551537
7.9535641
7.9519771
7.9503908
7.9488021
7.9472062
7.9455958
7.9439607
7.9422883
7.9405648
7.9387722
7.9368935
7.9349104
7.9328077
7.9305689
7.9281838
7.9256457
7.9229546
7.9201184
7.9171498
7.9140698
7.9109052
7.9076863
7.9044462
7.9012193
7.8980388
7.8949353
7.8919358
7.8890625
7.8863333
7.8837615
7.8813559
7.8791219
7.8770624
7.8751778
7.8734673
7.8719289
7.8705595
7.8693575
7.8683217
7.8674539
7.8667579
7.8662345
7.8658749
7.8656576
7.887888
7.8881059
7.8884667
7.8889917
7.8896894
7.890559
7.8915969
7.8928011
7.8941728
7.8957138
7.8974273
7.8993151
7.9013784
7.9036166
7.9060273
7.9086049
7.9113408
7.9142218
7.9172301
7.9203433
7.9235346
7.9267731
7.9300252
7.9332567
7.9364337
7.9395258
7.9425059
7.9453528
7.9480536
7.9506007
7.9529935
7.9552392
7.957348
7.9593363
7.96122
7.9630166
7.964744
7.9664197
7.9680578
7.9696709
7.9712693
7.9728604
7.9744488
7.9760378
7.9776291
7.9792228
7.9808179
7.9824121
7.9840022
7.9855847
7.9871546
7.9887069
7.9902366
7.9917377
7.9932044
7.9946305
7.9960095
7.9973346
7.9985989
7.9997951
8.0009174
8.001959
8.0029148
8.0037809
8.004554
8.0052285
8.0057941
8.0062345
8.0065362
8.0067066
8.0293332
8.0291626
8.0288606
8.0284198
8.0278534
8.0271779
8.0264037
8.0255364
8.0245794
8.0235364
8.0224128
8.0212152
8.0199497
8.0186232
8.0172431
8.0158158
8.014348
8.0128458
8.0113151
8.0097616
8.0081906
8.0066069
8.0050157
8.0034201
8.0018235
8.0002282
7.9986351
7.9970442
7.9954536
7.99386
7.992259
7.9906428
7.9890016
7.9873223
7.9855911
7.9837901
7.9819016
7.979908
7.9777932
7.9755408
7.9731402
7.9705846
7.9678742
7.9650168
7.9620253
7.9589213
7.9557318
7.952488
7.9492236
7.9459736
7.9427714
7.9396482
7.9366308
7.9337419
7.930999
7.9284152
7.9259991
7.9237562
7.9216888
7.9197973
7.9180807
7.9165367
7.9151624
7.9139559
7.9129158
7.9120443
7.9113447
7.9108181
7.910456
7.9102374
7.9327059
7.9329251
7.9332886
7.9338168
7.9345183
7.935392
7.9364344
7.9376436
7.9390207
7.9405678
7.9422881
7.9441835
7.9462555
7.9485035
7.9509253
7.9535157
7.956266
7.9591633
7.9621899
7.9653233
7.9685364
7.9717982
7.9750747
7.9783308
7.9815324
7.9846482
7.9876508
7.9905187
7.9932383
7.9958023
7.9982106
8.0004696
8.0025904
8.0045892
8.0064825
8.0082878
8.0100232
8.0117061
8.0133505
8.0149702
8.0165739
8.0181701
8.019763
8.0213561
8.0229511
8.0245483
8.0261465
8.0277436
8.0293362
8.0309213
8.0324935
8.0340481
8.0355799
8.0370833
8.0385523
8.0399807
8.0413622
8.0426899
8.0439568
8.0451558
8.0462808
8.0473251
8.0482834
8.0491519
8.0499272
8.0506036
8.0511708
8.0516122
8.0519145
8.0520853
8.0749628
8.0747918
8.0744891
8.0740472
8.0734793
8.0728019
8.0720256
8.0711558
8.0701962
8.0691506
8.0680242
8.0668237
8.0655554
8.0642264
8.0628436
8.0614139
8.0599436
8.0584391
8.056906
8.0553501
8.0537765
8.0521902
8.0505958
8.0489971
8.0473971
8.0457979
8.0442007
8.0426053
8.0410098
8.0394109
8.037804
8.036181
8.034533
8.0328463
8.0311068
8.0292969
8.0273989
8.0253948
8.0232681
8.0210027
8.018587
8.0160147
8.013286
8.0104081
8.0073946
8.0042673
8.0010536
7.9977854
7.9944968
7.9912234
7.9879991
7.9848553
7.9818191
7.9789132
7.9761551
7.9735577
7.9711297
7.9688761
7.9667993
7.9648994
7.9631753
7.9616246
7.9602444
7.9590325
7.9579875
7.9571115
7.956408
7.955878
7.9555132
7.9552932
7.9779996
7.9782202
7.9785863
7.9791181
7.9798238
7.9807022
7.9817499
7.9829649
7.9843485
7.985903
7.9876314
7.989536
7.9916182
7.9938777
7.9963124
7.9989171
8.0016834
8.0045984
8.0076443
8.0107987
8.0140342
8.0173194
8.02062
8.0239002
8.0271258
8.0302643
8.0332883
8.0361761
8.0389136
8.0414938
8.0439168
8.0461885
8.0483212
8.0503304
8.0522333
8.0540478
8.0557914
8.0574822
8.0591339
8.0607604
8.0623706
8.0639724
8.0655707
8.0671687
8.0687683
8.0703697
8.0719717
8.0735723
8.0751685
8.0767563
8.0783313
8.0798885
8.0814229
8.0829289
8.0844005
8.0858316
8.0872156
8.0885461
8.0898158
8.0910177
8.0921454
8.0931924
8.0941533
8.0950243
8.0958018
8.0964801
8.0970487
8.0974912
8.0977943
8.0979656
8.1210932
8.1209217
8.1206182
8.1201751
8.1196057
8.1189264
8.1181478
8.1172756
8.1163133
8.115265
8.1141359
8.1129325
8.1116614
8.1103295
8.108944
8.1075116
8.1060385
8.1045311
8.1029952
8.1014364
8.0998599
8.0982704
8.0966723
8.0950697
8.0934655
8.0918617
8.0902595
8.0886586
8.0870575
8.0854525
8.0838387
8.0822087
8.0805531
8.0788581
8.0771102
8.0752911
8.0733834
8.0713687
8.0692304
8.0669523
8.0645224
8.0619345
8.0591886
8.0562912
8.0532569
8.0501074
8.0468703
8.0435781
8.0402656
8.0369687
8.0337219
8.0305568
8.0275008
8.0245765
8.0218019
8.0191894
8.0167477
8.0144818
8.0123939
8.0104841
8.0087511
8.0071924
8.0058051
8.0045867
8.0035361
8.0026551
8.0019471
8.0014134
8.0010458
8.0008245
8.0237677
8.0239899
8.024359
8.0248948
8.0256051
8.026489
8.0275427
8.0287647
8.0301561
8.0317193
8.0334573
8.0353727
8.0374668
8.0397395
8.0421886
8.0448092
8.0475927
8.0505264
8.0535926
8.0567686
8.0600267
8.0633352
8.0666595
8.0699632
8.0732116
8.0763717
8.079416
8.0823224
8.0850764
8.0876718
8.0901084
8.0923927
8.0945365
8.0965567
8.0984694
8.1002931
8.1020455
8.1037448
8.1054045
8.1070383
8.1086561
8.1102643
8.1118686
8.1134723
8.1150774
8.1166837
8.1182904
8.1198952
8.1214953
8.1230866
8.124665
8.1262254
8.1277629
8.1292719
8.1307465
8.1321804
8.1335674
8.1349008
8.1361735
8.1373785
8.1385089
8.1395586
8.1405222
8.1413956
8.1421753
8.1428556
8.1434259
8.1438697
8.1441736
8.1443452
8.1677206
8.1675488
8.1672445
8.1668001
8.166229
8.1655477
8.1647669
8.1638923
8.1629274
8.1618764
8.1607444
8.1595379
8.1582636
8.1569287
8.1555401
8.1541045
8.1526284
8.1511176
8.1495784
8.1480162
8.146436
8.1448425
8.1432402
8.141633
8.1400237
8.1384146
8.1368065
8.1351996
8.1335919
8.1319799
8.1303582
8.1287203
8.1270562
8.1253524
8.1235953
8.1217669
8.1198492
8.1178236
8.1156743
8.113384
8.110941
8.1083385
8.1055768
8.1026617
8.0996081
8.0964377
8.0931785
8.0898635
8.0865278
8.0832078
8.0799383
8.0767515
8.073675
8.0707314
8.0679387
8.0653096
8.0628527
8.0605727
8.0584721
8.0565508
8.0548073
8.0532392
8.0518436
8.0506177
8.0495606
8.0486737
8.0479609
8.0474231
8.0470525
8.0468292
8.0700085
8.0702328
8.0706049
8.0711448
8.0718603
8.0727503
8.0738111
8.0750411
8.0764414
8.0780147
8.079764
8.0816917
8.0837993
8.0860869
8.0885521
8.0911901
8.0939923
8.0969458
8.1000329
8.1032306
8.1065113
8.1098425
8.1131895
8.1165152
8.1197848
8.122965
8.1260274
8.1289507
8.1317198
8.134329
8.136778
8.1390741
8.1412289
8.1432597
8.1451825
8.1470157
8.1487775
8.1504861
8.1521549
8.1537969
8.1554228
8.1570388
8.1586503
8.1602607
8.161872
8.1634842
8.1650963
8.1667062
8.1683109
8.1699066
8.1714889
8.1730531
8.1745942
8.1761067
8.1775846
8.1790219
8.1804121
8.1817486
8.1830245
8.1842325
8.185366
8.1864185
8.1873847
8.1882606
8.1890425
8.1897248
8.1902967
8.1907416
8.1910461
8.1912183
8.2148371
8.2146649
8.2143598
8.2139141
8.2133414
8.2126581
8.2118751
8.210998
8.2100303
8.2089764
8.2078414
8.2066317
8.2053542
8.204016
8.2026241
8.2011851
8.1997053
8.1981909
8.1966478
8.1950815
8.1934968
8.1918986
8.1902913
8.1886786
8.1870634
8.1854479
8.183833
8.1822188
8.1806033
8.1789831
8.1773529
8.1757064
8.1740327
8.1723193
8.1705524
8.1687144
8.1667865
8.1647507
8.1625905
8.1602889
8.1578341
8.1552188
8.1524428
8.149512
8.1464411
8.1432517
8.1399723
8.1366361
8.1332784
8.1299362
8.1266445
8.123436
8.1203383
8.1173745
8.1145626
8.1119155
8.1094417
8.1071462
8.1050312
8.1030967
8.1013413
8.0997624
8.098357
8.0971226
8.0960578
8.0951645
8.0944461
8.093904
8.0935301
8.0933047
8.1167178
8.1169442
8.1173199
8.1178644
8.1185858
8.1194827
8.1205516
8.1217908
8.1232015
8.1247864
8.1265484
8.12849
8.1306128
8.1329166
8.1353993
8.1380557
8.1408775
8.1438514
8.1469596
8.1501789
8.1534814
8.1568342
8.1602023
8.1635484
8.1668368
8.1700347
8.1731134
8.1760511
8.1788336
8.1814546
8.1839146
8.1862215
8.1883868
8.1904276
8.1923606
8.1942036
8.1959756
8.1976939
8.1993727
8.201024
8.2026588
8.2042835
8.2059033
8.2075215
8.2091402
8.2107593
8.2123779
8.2139937
8.2156039
8.2172048
8.2187919
8.2203606
8.2219058
8.2234223
8.2249041
8.226345
8.2277388
8.2290788
8.230358
8.2315692
8.2327058
8.2337611
8.2347301
8.2356084
8.2363926
8.2370768
8.2376505
8.2380968
8.2384023
8.2385748
8.2624288
8.2622561
8.2619502
8.2615034
8.260929
8.2602438
8.2594585
8.258579
8.2576087
8.2565519
8.2554138
8.2542009
8.2529199
8.2515781
8.2501824
8.2487394
8.2472554
8.2457368
8.2441892
8.242618
8.2410282
8.2394244
8.2378111
8.2361919
8.2345698
8.2329468
8.231324
8.2297014
8.2280771
8.2264476
8.2248079
8.2231514
8.2214673
8.2197439
8.2179666
8.2161185
8.2141804
8.2121348
8.2099646
8.2076527
8.2051879
8.2025617
8.1997735
8.1968295
8.1937439
8.1905384
8.1872416
8.1838863
8.1805086
8.1771456
8.1738328
8.170603
8.1674844
8.1645002
8.1616684
8.1590024
8.1565106
8.1541981
8.1520673
8.1501181
8.1483492
8.1467581
8.1453418
8.1440976
8.1430243
8.1421236
8.1413992
8.1408521
8.1404747
8.1402471
8.1638918
8.1641206
8.1644999
8.1650496
8.1657773
8.1666819
8.1677597
8.1690091
8.1704313
8.172029
8.1738051
8.1757621
8.1779013
8.1802227
8.1827239
8.1853997
8.1882414
8.1912359
8.1943648
8.1976047
8.2009273
8.2042998
8.2076864
8.21105
8.2143543
8.2175665
8.220658
8.2236074
8.2264004
8.2290314
8.2315007
8.233817
8.2359919
8.2380421
8.2399851
8.2418384
8.2436213
8.24535
8.2470394
8.2487016
8.2503464
8.251981
8.2536103
8.2552376
8.2568648
8.2584919
8.2601179
8.2617407
8.2633574
8.2649643
8.266557
8.268131
8.269681
8.271202
8.2726881
8.2741331
8.2755309
8.2768746
8.2781574
8.2793721
8.2805119
8.2815702
8.2825418
8.2834226
8.2842089
8.284895
8.2854703
8.2859179
8.2862243
8.2863972
8.3104757
8.3103027
8.3099958
8.3095475
8.3089714
8.3082844
8.307497
8.306615
8.305642
8.3045822
8.3034408
8.3022243
8.3009397
8.2995939
8.298194
8.2967467
8.2952583
8.2937349
8.2921821
8.2906053
8.2890094
8.2873992
8.2857788
8.2841521
8.2825219
8.2808903
8.2792584
8.2776261
8.2759917
8.2743516
8.2727012
8.2710334
8.2693384
8.2676041
8.2658158
8.2639572
8.2620093
8.2599546
8.2577754
8.2554551
8.252982
8.250347
8.2475501
8.2445962
8.2414998
8.2382819
8.2349711
8.2316001
8.2282054
8.2248242
8.2214925
8.218243
8.2151042
8.2120997
8.2092481
8.2065626
8.204052
8.2017215
8.1995736
8.1976086
8.195825
8.1942204
8.1927921
8.1915372
8.1904547
8.189546
8.1888149
8.1882625
8.1878812
8.1876514
8.2115251
8.211756
8.2121394
8.2126946
8.2134291
8.214342
8.2154295
8.21669
8.2181246
8.2197362
8.2215275
8.2235007
8.2256573
8.227997
8.2305171
8.2332122
8.2360735
8.2390876
8.2422357
8.2454942
8.2488343
8.2522232
8.255625
8.2590019
8.2623181
8.2655403
8.2686405
8.2715978
8.2743978
8.2770358
8.2795122
8.2818359
8.284019
8.286078
8.2880307
8.2898947
8.2916883
8.2934286
8.2951294
8.296803
8.2984593
8.3001052
8.3017451
8.3033827
8.3050196
8.306656
8.3082906
8.3099215
8.3115457
8.3131596
8.3147588
8.3163388
8.3178944
8.3194205
8.3209114
8.3223611
8.3237631
8.325111
8.3263976
8.3276158
8.3287589
8.3298202
8.3307945
8.3316777
8.3324662
8.3331542
8.3337311
8.33418
8.3344872
8.3346605
8.358947
8.3587736
8.3584659
8.3580164
8.3574387
8.3567498
8.3559603
8.355076
8.3541003
8.3530375
8.3518928
8.3506727
8.3493841
8.3480341
8.3466298
8.3451776
8.3436841
8.3421551
8.3405965
8.3390132
8.3374105
8.3357927
8.3341643
8.332529
8.3308895
8.329248
8.3276058
8.3259626
8.3243168
8.3226649
8.3210024
8.3193226
8.3176158
8.3158697
8.3140704
8.3122011
8.3102438
8.3081809
8.3059942
8.3036677
8.3011888
8.2985487
8.2957468
8.2927874
8.2896847
8.2864594
8.2831394
8.2797577
8.2763504
8.272955
8.2696075
8.266341
8.2631841
8.260161
8.2572903
8.2545858
8.2520563
8.2497075
8.2475422
8.2455606
8.2437615
8.2421428
8.2407016
8.2394354
8.2383428
8.2374258
8.2366877
8.2361299
8.2357445
8.2355121
8.2596117
8.2598454
8.2602329
8.2607934
8.261535
8.2624564
8.2635539
8.2648261
8.2662738
8.2678997
8.2697066
8.2716965
8.2738707
8.2762284
8.2787671
8.2814807
8.2843602
8.2873917
8.2905563
8.2938298
8.2971835
8.3005839
8.3039952
8.3073799
8.310702
8.3139289
8.3170325
8.3199926
8.3227953
8.3254363
8.3279169
8.3302455
8.3324353
8.3345017
8.3364635
8.3383379
8.340143
8.3418951
8.343608
8.3452943
8.3469632
8.3486215
8.3502735
8.3519226
8.3535705
8.3552173
8.3568618
8.358502
8.3601348
8.3617566
8.3633632
8.3649499
8.3665119
8.3680439
8.3695402
8.3709948
8.3724016
8.3737538
8.3750444
8.3762663
8.3774127
8.378477
8.379454
8.3803395
8.3811299
8.3818196
8.382398
8.3828482
8.3831563
8.38333
8.407803
8.4076291
8.4073206
8.40687
8.4062909
8.4056003
8.404809
8.4039224
8.4029442
8.4018784
8.4007304
8.3995066
8.3982139
8.3968594
8.3954501
8.3939928
8.3924936
8.3909585
8.3893931
8.3878026
8.386192
8.3845659
8.3829284
8.3812831
8.3796332
8.3779808
8.376327
8.3746716
8.3730132
8.3713483
8.3696727
8.3679798
8.3662605
8.3645022
8.3626915
8.3608119
8.3588461
8.3567764
8.3545842
8.3522544
8.3497733
8.3471325
8.3443305
8.3413714
8.3382685
8.335042
8.3317196
8.3283337
8.3249202
8.3215163
8.3181582
8.3148789
8.3117077
8.3086688
8.3057812
8.3030592
8.3005119
8.2981454
8.2959627
8.2939646
8.2921499
8.2905168
8.2890625
8.2877845
8.2866818
8.2857561
8.285011
8.2844475
8.284058
8.2838231
8.3081457
8.3083819
8.3087734
8.3093397
8.3100883
8.3110184
8.3121261
8.3134099
8.3148708
8.3165109
8.3183332
8.3203393
8.3225301
8.3249049
8.3274602
8.33019
8.3330844
8.3361295
8.3393059
8.3425893
8.3459501
8.3493555
8.3527691
8.3561542
8.3594748
8.3626988
8.3657988
8.368755
8.3715546
8.3741937
8.3766743
8.3790045
8.3811982
8.3832706
8.3852402
8.3871249
8.388941
8.3907057
8.3924315
8.3941311
8.3958138
8.3974853
8.3991505
8.4008123
8.4024724
8.4041308
8.4057863
8.4074369
8.4090793
8.41071
8.4123248
8.4139192
8.4154883
8.4170266
8.4185289
8.419989
8.4214008
8.4227576
8.4240524
8.4252781
8.4264278