/*--------------------------------*- C++ -*----------------------------------*\
| =========                 |                                                 |
| \\      /  F ield         | OpenFOAM: The Open Source CFD Toolbox           |
|  \\    /   O peration     | Version:  v2012                                 |
|   \\  /    A nd           | Website:  www.openfoam.com                      |
|    \\/     M anipulation  |                                                 |
\*---------------------------------------------------------------------------*/
FoamFile
{
    version     2.0;
    format      ascii;
    class       volScalarField;
    location    "340";
    object      p;
}
// * * * * * * * * * * * * * * * * * * * * * * * * * * * * * * * * * * * * * //

dimensions      [0 2 -2 0 0 0 0];


internalField   nonuniform List<scalar> 
121056
(
1.6262173
1.5362887
1.2784773
1.0590428
0.92124637
0.80684121
0.71058244
0.6310723
0.56379389
0.50608616
0.45621632
0.41278482
0.37470679
0.34113815
0.31140254
0.28495068
0.26133166
0.24017135
0.2211561
0.20402088
0.18854016
0.17452072
0.16179615
0.15022254
0.13967466
0.13004315
0.12123199
0.11315694
0.10574381
0.098926943
0.092648211
0.086856112
0.081504756
0.076553154
0.07196487
0.067707321
0.06375133
-0.074376577
-0.078238014
-0.082368471
-0.086798146
-0.091562083
-0.096699574
-0.10225491
-0.10827824
-0.11482549
-0.12195993
-0.12975228
-0.13827912
-0.1476248
-0.15788143
-0.1691464
-0.18152138
-0.1951123
-0.21002438
-0.22636536
-0.24423084
-0.26370499
-0.28486345
-0.30776149
-0.33242752
-0.35886491
-0.38704798
-0.41691923
-0.44839199
-0.48135125
-0.51565611
-0.55114325
-0.58763102
-0.62492408
-0.66280786
-0.70108563
-0.73956262
-0.77799374
-0.81614137
-0.85378909
-0.89071607
-0.92670464
-0.96153714
-0.99499598
-1.0268633
-1.05692
-1.0849438
-0.53960377
-0.49563413
-0.45352089
-0.41336545
-0.37524493
-0.3392119
-0.3052959
-0.27350453
-0.2438252
-0.21622699
-0.19066293
-0.16707253
-0.1453838
-0.12551562
-0.10738009
-0.090884447
-0.075932905
-0.062428342
-0.050273746
-0.039373353
-0.029633705
-0.020964407
-0.013278689
-0.0064938891
-0.00053183004
0.0046811024
0.0092138481
0.013130659
0.016491173
0.019350534
0.021759603
0.023765048
0.025409706
0.026732701
0.027769356
0.028555646
0.029111763
0.029477039
0.029672958
0.029706855
0.029597773
0.029379996
0.029492279
0.029723692
0.029843529
0.029827584
0.029647292
0.029294448
0.028753258
0.027992007
0.026978946
0.025681759
0.024065098
0.022090067
0.019714003
0.016890345
0.013568394
0.0096931625
0.0052050492
3.9798426e-05
-0.0058715314
-0.012602561
-0.02023155
-0.028841439
-0.038519413
-0.049356172
-0.061445702
-0.074884545
-0.089770544
-0.10620168
-0.12427494
-0.14408449
-0.1657193
-0.18926203
-0.21478641
-0.24235449
-0.27201474
-0.3037996
-0.33772317
-0.37377872
-0.41193724
-0.45214685
-0.49433108
-0.53838841
-0.53584383
-0.49159165
-0.44924819
-0.4089154
-0.37066907
-0.33455953
-0.30061437
-0.26883832
-0.23921433
-0.21170676
-0.18626376
-0.16281987
-0.14129809
-0.1216125
-0.10367114
-0.087377104
-0.072630853
-0.059332392
-0.047381902
-0.036681396
-0.027135743
-0.018653341
-0.011146198
-0.0045307976
0.0012713476
0.0063339585
0.010726015
0.014511737
0.017750621
0.020497406
0.02280253
0.024712342
0.026269322
0.027512282
0.028476821
0.029195803
0.029699166
0.03001172
0.030146775
0.030126664
0.029981883
0.029726723
0.030115143
0.030413127
0.030605952
0.030677694
0.030600299
0.030354233
0.029921792
0.029278272
0.028395894
0.027243031
0.025784807
0.023982878
0.021795223
0.019175981
0.016075094
0.012438092
0.0082057622
0.0033140572
-0.0023060413
-0.0087285447
-0.016032528
-0.02430223
-0.033626666
-0.044099253
-0.055817033
-0.068880361
-0.083392084
-0.099456009
-0.11717578
-0.13665285
-0.15798455
-0.18126199
-0.20656762
-0.23397298
-0.26353578
-0.29529681
-0.32927772
-0.36547795
-0.40387318
-0.44441504
-0.48702746
-0.53160795
-0.52544071
-0.48038463
-0.43738378
-0.39654173
-0.35793363
-0.32160571
-0.28757748
-0.25584323
-0.22637433
-0.19912201
-0.1740203
-0.15098925
-0.12993791
-0.11076703
-0.093371665
-0.07764361
-0.063473348
-0.050751854
-0.039372113
-0.029230149
-0.020225854
-0.012263661
-0.0052530111
0.00089134634
0.0062492213
0.01089499
0.014897643
0.018320955
0.021223555
0.023659231
0.025677874
0.027324547
0.028640452
0.029662981
0.03042594
0.030959765
0.031291256
0.031444345
0.031438431
0.031293102
0.031031591
0.030670888
0.031397756
0.031838762
0.03218798
0.032429614
0.03254346
0.032510503
0.032310639
0.031920705
0.031314824
0.030463787
0.029335057
0.027892425
0.026095448
0.023900402
0.02125889
0.018117744
0.014418829
0.010098773
0.0050886586
-0.00068618154
-0.0073063334
-0.014858347
-0.023434807
-0.033134071
-0.044059925
-0.056321029
-0.070030151
-0.085303174
-0.1022576
-0.12101074
-0.14167768
-0.16436874
-0.18918647
-0.21622269
-0.24555499
-0.27724319
-0.31132591
-0.34781741
-0.38670431
-0.42794403
-0.47146263
-0.51715491
-0.5066528
-0.46016603
-0.41600468
-0.37427606
-0.33505237
-0.29837131
-0.26423798
-0.23262686
-0.20348603
-0.17674105
-0.15229884
-0.13005225
-0.10988369
-0.091668641
-0.075279057
-0.060586137
-0.047462393
-0.035783486
-0.025429626
-0.016286525
-0.0082459562
-0.0012062908
0.0049273397
0.010242869
0.014821585
0.018738323
0.022061717
0.024854468
0.027173416
0.029071001
0.030594413
0.031786312
0.03268528
0.033325999
0.033739585
0.033953886
0.033993675
0.033881108
0.033635837
0.033275986
0.032819401
0.032280985
0.033303833
0.033955133
0.034536345
0.035033888
0.035431828
0.035713191
0.035859356
0.035849472
0.03566017
0.035265187
0.034635079
0.033736892
0.032533865
0.030985018
0.02904489
0.026662989
0.023783392
0.020344315
0.016277712
0.01150889
0.0059560304
-0.00047040284
-0.0078680317
-0.016341637
-0.026004301
-0.036976748
-0.049386933
-0.063369188
-0.07906298
-0.096611027
-0.11615718
-0.13784348
-0.16180616
-0.18817187
-0.21705349
-0.24854418
-0.28271301
-0.31960005
-0.35921107
-0.40151505
-0.44644161
-0.49388055
-0.4787461
-0.43019336
-0.38437867
-0.34141629
-0.30137435
-0.26427532
-0.23009934
-0.19878773
-0.17024953
-0.14436764
-0.12100475
-0.10001004
-0.081224325
-0.064484404
-0.049627603
-0.03649484
-0.02493276
-0.014795603
-0.0059462928
0.0017429672
0.0083905286
0.014105196
0.018986445
0.02312481
0.0266024
0.029493526
0.031865277
0.033777985
0.035285836
0.036437333
0.037276113
0.037841084
0.038166652
0.038283729
0.038219807
0.037999277
0.0376438
0.037172596
0.036602858
0.035949995
0.035228089
0.034449631
0.035703688
0.036621905
0.037498547
0.038322573
0.039081698
0.039762204
0.040348702
0.040823878
0.04116811
0.041359139
0.041371805
0.041177645
0.04074451
0.040036118
0.039011473
0.03762437
0.035822897
0.033548724
0.030736373
0.027312458
0.023195044
0.018292811
0.012504374
0.0057175261
-0.0021914721
-0.011357732
-0.02192814
-0.034061175
-0.04792591
-0.063700319
-0.081569095
-0.10172057
-0.12434174
-0.14961292
-0.17770182
-0.20875556
-0.24289286
-0.28019627
-0.3207038
-0.36440405
-0.41123115
-0.46106531
-0.44058879
-0.38928874
-0.34131677
-0.29680024
-0.25580115
-0.2183169
-0.18428582
-0.15359473
-0.1260895
-0.10158532
-0.079876686
-0.060747375
-0.043977063
-0.029347899
-0.016649636
-0.0056829664
0.0037385236
0.011786869
0.018619439
0.024379037
0.029194315
0.033180543
0.036440479
0.039065575
0.041136831
0.042725807
0.043895762
0.044702386
0.04519486
0.045416345
0.045404799
0.045193503
0.044811707
0.044285029
0.043635947
0.042884205
0.04204712
0.041139794
0.040175584
0.039166175
0.038122035
0.037052681
0.039713364
0.040936024
0.042143292
0.04332667
0.044476501
0.045581825
0.046629935
0.047606201
0.04849379
0.049273255
0.049922145
0.050414624
0.050720948
0.05080681
0.050632653
0.050153023
0.049315534
0.048060076
0.046317669
0.044009209
0.04104429
0.037319546
0.032717519
0.027105121
0.020332334
0.012231344
0.002615699
-0.0087198151
-0.021998364
-0.037459309
-0.055354983
-0.075945173
-0.099489994
-0.12624197
-0.15643315
-0.19026289
-0.2278842
-0.26938976
-0.31480096
-0.36405965
-0.4170281
-0.39004407
-0.33517863
-0.284478
-0.23809515
-0.19608315
-0.15839554
-0.12489814
-0.0953859
-0.069601333
-0.047252376
-0.028028812
-0.011616902
0.0022898918
0.01398349
0.023736029
0.031796764
0.038390771
0.043719001
0.047959433
0.051268299
0.053781955
0.055618983
0.056881878
0.057658747
0.058025683
0.058047847
0.057781342
0.057274058
0.056566896
0.055695038
0.054688571
0.053573128
0.052370524
0.051099553
0.049776313
0.04841437
0.047025499
0.045619582
0.044205104
0.042789304
0.041378611
0.043099481
0.044705613
0.046338414
0.047993796
0.0496669
0.051351997
0.053042156
0.054728934
0.056402212
0.05804979
0.059657106
0.061206735
0.062677761
0.064045091
0.06527889
0.066343611
0.067196744
0.067787712
0.068056418
0.067931568
0.067328728
0.06614804
0.0642719
0.06156221
0.05785796
0.052972405
0.046690544
0.038767024
0.028924955
0.016856266
0.0022236431
-0.01533489
-0.036197126
-0.06074492
-0.089346318
-0.12233418
-0.15998248
-0.20248196
-0.24991375
-0.30222977
-0.26473498
-0.21060285
-0.16204334
-0.11910076
-0.081643616
-0.049402572
-0.022011263
0.00096100142
0.019979195
0.035513998
0.048019857
0.057922655
0.065611059
0.071432137
0.07569098
0.07865253
0.080544202
0.081559413
0.081861552
0.081587649
0.080852016
0.079749911
0.078359804
0.076746458
0.074963183
0.073053687
0.071053805
0.068992622
0.066893737
0.064776431
0.062656325
0.060545881
0.058454949
0.056391527
0.054361855
0.052370882
0.050422276
0.048518784
0.04666254
0.044855362
0.046626147
0.048637561
0.050721002
0.0528772
0.055106748
0.057410065
0.059786946
0.062236288
0.064755939
0.067342553
0.069991328
0.07269538
0.07544514
0.078227982
0.081027335
0.083821657
0.086583351
0.08927705
0.091858002
0.094270346
0.096444021
0.098291284
0.099703936
0.10054938
0.10066565
0.099856104
0.097883972
0.094467053
0.089272229
0.081911291
0.071939792
0.058859284
0.04212383
0.021152879
-0.004642207
-0.035820054
-0.07287203
-0.11618052
-0.16595011
-0.11524003
-0.064168115
-0.020617922
0.015727648
0.045419555
0.069119464
0.087553129
0.1014672
0.11157774
0.11853802
0.12292781
0.12525088
0.12593539
0.12533946
0.12375877
0.12143484
0.11856278
0.11529855
0.11176598
0.10806242
0.10426438
0.10043133
0.096607643
0.092827303
0.089115659
0.085490792
0.081965547
0.078548313
0.075244236
0.072056227
0.068985121
0.066030225
0.063189942
0.060461887
0.057843115
0.055330342
0.052919855
0.050607892
0.04839124
0.05013103
0.052551377
0.055090427
0.057754257
0.060549552
0.063483314
0.066562688
0.069794831
0.073186711
0.076745255
0.080477141
0.084388082
0.088482417
0.092763161
0.097231069
0.10188329
0.10671248
0.11170539
0.11684137
0.12208946
0.12740467
0.13272631
0.13797239
0.14303287
0.14776356
0.15197773
0.15543655
0.15783814
0.1588054
0.15787344
0.15447905
0.14795454
0.13752331
0.12230366
0.10134695
0.073709262
0.038495929
-0.0051023364
-0.057586576
0.0081274932
0.062165858
0.10551063
0.13897903
0.16379006
0.18115741
0.19230519
0.19843997
0.20064424
0.1998316
0.19675923
0.1920454
0.18618321
0.17955866
0.17246906
0.16514035
0.15774169
0.15039727
0.14319587
0.13620048
0.12945188
0.12297488
0.11678512
0.11088819
0.10528297
0.09996406
0.094923246
0.09014993
0.085632219
0.081357956
0.07731444
0.073488758
0.069868505
0.066441716
0.063197011
0.060123265
0.057210023
0.05444758
0.051827071
0.053464398
0.056279119
0.059258797
0.062414865
0.065759976
0.069308138
0.073074403
0.077074658
0.081325873
0.085846269
0.090655078
0.095772241
0.10121828
0.10701477
0.1131831
0.11974408
0.12671647
0.13411627
0.14195597
0.15024186
0.15896988
0.16812309
0.17766626
0.18753891
0.19764637
0.20784843
0.21794505
0.22765843
0.23661027
0.24429446
0.25004963
0.25303588
0.2521962
0.24620953
0.23354154
0.21261699
0.18179511
0.13918623
0.083397172
0.17017107
0.22800367
0.26907611
0.29588745
0.31144707
0.31794203
0.3173722
0.3116889
0.30248853
0.29096214
0.27801007
0.26431229
0.25036218
0.23650588
0.22298054
0.20994296
0.1974903
0.18567654
0.17452486
0.16403735
0.15420128
0.14499405
0.13638697
0.12834793
0.12084304
0.11383822
0.10729963
0.10119498
0.095492918
0.090164072
0.085180968
0.080517771
0.076150281
0.072056382
0.068215784
0.064609619
0.061220355
0.058031937
0.055030481
0.056516471
0.059694231
0.063079929
0.066690524
0.070545009
0.074664052
0.07907037
0.083788888
0.088846573
0.094273213
0.10010138
0.10636613
0.11310561
0.12036173
0.12817886
0.13660469
0.14568935
0.15548553
0.16604755
0.17743002
0.18968543
0.20286157
0.2169973
0.23211631
0.24821769
0.26526373
0.28316214
0.30174285
0.32072316
0.33965995
0.3578929
0.37450283
0.38820337
0.39709991
0.39871182
0.39056616
0.36986859
0.33172746
0.27140173
0.45417983
0.48680165
0.49799689
0.49578583
0.48345799
0.46397295
0.44048759
0.41517139
0.38930016
0.36372826
0.33903018
0.31554105
0.29343246
0.27277403
0.25356928
0.23577893
0.2193385
0.2041692
0.19018527
0.17729959
0.16542707
0.15448606
0.14439887
0.1350932
0.12650242
0.11856476
0.11122393
0.10442763
0.098128884
0.092285142
0.086857371
0.081810142
0.077111593
0.072732402
0.068645895
0.064828098
0.061257609
0.057915074
0.059216856
0.062709841
0.066449019
0.070455845
0.074754658
0.079372549
0.084339723
0.08968923
0.095457721
0.101686
0.10841944
0.11570783
0.12360701
0.13217944
0.14149285
0.15162354
0.16265519
0.1746806
0.18780193
0.20213084
0.21778889
0.23490761
0.25362678
0.27409134
0.29644649
0.32082971
0.34735518
0.37609242
0.40703351
0.44002263
0.47464859
0.51021909
0.54564517
0.57858708
0.60495819
0.62138183
0.62492062
0.6026728
0.78323412
0.78445585
0.75734495
0.7212043
0.67661117
0.62718347
0.57812209
0.53146122
0.48772221
0.44726804
0.41021614
0.37644726
0.34575334
0.31789705
0.29263112
0.26971288
0.24891384
0.23002307
0.21284812
0.19721461
0.18296731
0.16996702
0.15808794
0.14721836
0.1372589
0.12812053
0.11972397
0.11199753
0.10487744
0.098307115
0.092235703
0.086617756
0.081412413
0.076582598
0.072094966
0.067920189
0.064031595
0.060405435
0.061456914
0.06519596
0.069211388
0.073528295
0.07817546
0.083184277
0.088591313
0.094436869
0.10076514
0.10762544
0.1150742
0.12317431
0.13199611
0.14161976
0.15213452
0.16364202
0.17625649
0.19010847
0.20534762
0.2221416
0.24068144
0.26118789
0.28391299
0.309145
0.33721259
0.3684897
0.40339728
0.44239686
0.4859873
0.53468544
0.58883662
0.64851174
0.71407323
0.78471362
0.85370917
0.91563327
0.97837348
1.0157938
-0.9536549
-0.93858228
-0.92182229
-0.90350177
-0.88375446
-0.86271903
-0.84053767
-0.81735463
-0.79331473
-0.76856192
-0.74323821
-0.71748227
-0.69142917
-0.66520638
-0.6389424
-0.61276827
-0.58678055
-0.56106677
-0.53572456
-0.51083693
-0.4864789
-0.46271638
-0.43960634
-0.41719694
-0.39552761
-0.37462947
-0.3545258
-0.33523253
-0.31675862
-0.29910654
-0.28227277
-0.26624667
-0.25101628
-0.23657494
-0.22289598
-0.20995181
-0.19772036
-0.18617545
-0.1752894
-0.16503369
-0.15537917
-0.14629664
-0.13775695
-0.12973145
-0.122192
-0.11511121
-0.10846253
-0.10222037
-0.096360065
-0.0908578
0.029338612
0.029554286
0.029460632
0.029302975
0.029075594
0.028773283
-0.0044811031
-0.0025070272
-0.00057867142
0.0013015107
0.003132195
0.0049116565
0.0066386165
0.0083116877
0.0099299278
0.011491671
0.012996047
0.014441749
0.015827693
0.017152831
0.018416254
0.019616856
0.020753805
0.02182608
0.02283292
0.023773515
0.02464725
0.025453782
0.026192156
0.026861977
0.027463483
0.02799646
0.028459097
0.028848345
0.029160752
0.029395685
0.029558464
0.029656785
0.029623436
0.029521925
0.029354229
0.029111868
0.028789234
0.028387304
0.02790951
0.027358833
0.026737095
0.026045192
0.025283304
0.024451222
0.023549512
0.022578673
0.021539567
0.020432932
0.019259643
0.018020661
0.016716873
0.015349366
0.013919102
0.012427095
0.010874469
0.0092624237
0.0075918341
0.005864338
0.004080878
0.0022425986
0.00035100913
-0.0015922205
-0.0035859654
-0.0056278182
-0.0077155052
-0.0098473952
-0.020551682
-0.018183516
-0.015851234
-0.01355922
-0.011308898
-0.0091025595
-0.006943251
-0.0048329188
-0.0027731303
-0.00076591354
0.0011870562
0.0030848168
0.0049255358
0.0067081092
0.0084316944
0.010094694
0.011696168
0.013235097
0.014710267
0.016120762
0.017465474
0.018743433
0.019953623
0.02109516
0.022167047
0.023168621
0.024098982
0.024957597
0.02574386
0.026457548
0.027098524
0.027666194
0.028158702
0.028572794
0.028904991
0.029154258
0.029327004
0.029429812
0.029061189
0.028956519
0.028779845
0.028523916
0.028181922
0.027755099
0.027247242
0.026661798
0.026000694
0.025264648
0.024453816
0.02356841
0.022609017
0.021576313
0.020471108
0.019294156
0.018046468
0.016728987
0.015342744
0.013888754
0.012368062
0.010781667
0.0091306937
0.0074161197
0.0056389359
0.003800738
0.001902224
-5.5542655e-05
-0.0020707455
-0.0041425005
-0.0062691711
-0.0084488579
-0.010680445
-0.012961766
-0.015290019
-0.017662568
-0.020078402
-0.022532947
-0.025021145
-0.027540378
-0.030086643
-0.032656883
-0.035243969
-0.037842921
-0.040448934
-0.043054398
-0.045654084
-0.048241524
-0.050808535
-0.090728398
-0.090464436
-0.090030853
-0.089411496
-0.088594946
-0.087586328
-0.086399216
-0.085048837
-0.083545163
-0.081897252
-0.080112854
-0.078200459
-0.076170359
-0.074030181
-0.071791275
-0.069463857
-0.067057487
-0.064582141
-0.06204648
-0.059461045
-0.056834623
-0.054174861
-0.051489211
-0.048785535
-0.046071092
-0.043353137
-0.040637578
-0.037931537
-0.035240632
-0.032569748
-0.029925981
-0.027312093
-0.024732389
-0.022190447
-0.019690343
-0.017235921
-0.014828924
-0.012472066
-0.010167954
-0.0079180785
-0.0057239287
-0.0035869392
-0.0015089674
0.00050926072
0.0024660682
0.0043605503
0.006191724
0.0079584243
0.0096594355
0.011293912
0.012860665
0.014358789
0.015787113
0.017144674
0.01843043
0.019643371
0.020782457
0.021846854
0.022835756
0.023748451
0.024584319
0.025343058
0.026024515
0.026627946
0.027151407
0.027591336
0.027943983
0.028208306
0.028391223
0.028501019
0.027714629
0.027601942
0.027413326
0.027140567
0.026776718
0.02632296
0.025783211
0.025161153
0.024458707
0.023676663
0.022815185
0.02187464
0.020855635
0.019758914
0.018585338
0.017335827
0.016011413
0.014613162
0.013142128
0.011599365
0.0099859348
0.008302877
0.0065512489
0.0047320131
0.0028462783
0.0008951265
-0.0011205003
-0.0031995928
-0.0053408433
-0.0075434035
-0.0098055001
-0.012126081
-0.014503508
-0.016936457
-0.019422633
-0.021959466
-0.024544972
-0.027175385
-0.029847439
-0.0325569
-0.035300047
-0.038073216
-0.040869964
-0.043685283
-0.046512812
-0.04934592
-0.052178255
-0.055001366
-0.057808888
-0.060592708
-0.0633435
-0.06605335
-0.068712938
-0.071311278
-0.073838777
-0.076284872
-0.078639338
-0.080890924
-0.083027576
-0.085040892
-0.086920148
-0.088656094
-0.090240443
-0.091663392
-0.092914357
-0.093977265
-0.094837721
-0.095490205
-0.095946594
-0.09622434
-0.10207803
-0.10178602
-0.10130594
-0.1006192
-0.099713067
-0.098593737
-0.097276523
-0.095778249
-0.094110149
-0.092282849
-0.090305143
-0.088187067
-0.085939623
-0.083572527
-0.081098561
-0.078529962
-0.075876984
-0.073151427
-0.070364148
-0.067525847
-0.064647076
-0.061736312
-0.058803422
-0.055857597
-0.052904907
-0.049954045
-0.047012319
-0.044085641
-0.04118124
-0.038304248
-0.035460394
-0.032654186
-0.029889123
-0.027169057
-0.024497754
-0.021877992
-0.019312444
-0.016802819
-0.014351762
-0.011960027
-0.009629663
-0.0073612589
-0.0051563973
-0.0030160233
-0.00094128189
0.0010669403
0.0030076508
0.004879914
0.0066825914
0.0084147972
0.010075428
0.011663438
0.013177757
0.014617336
0.015981023
0.017267733
0.018476408
0.019606113
0.02065588
0.021624928
0.022512627
0.02331861
0.024042606
0.024683881
0.025240394
0.025708368
0.026083684
0.026365083
0.026559715
0.026675949
0.025350958
0.025231258
0.025030651
0.024740555
0.02435358
0.023871102
0.023297433
0.022636467
0.021890338
0.021059845
0.020145329
0.019147123
0.018065943
0.016902616
0.015658173
0.014333611
0.012930008
0.011448517
0.0098903237
0.0082564919
0.0065481099
0.0047662977
0.002912085
0.00098643305
-0.0010096486
-0.0030752251
-0.0052094068
-0.0074112738
-0.0096799281
-0.012014297
-0.014413235
-0.016876162
-0.019401101
-0.021987458
-0.024632767
-0.027335663
-0.030093437
-0.032903521
-0.035762303
-0.038666197
-0.041612024
-0.044593764
-0.04760726
-0.050646966
-0.053704998
-0.056775891
-0.059851474
-0.062923049
-0.065984342
-0.069024786
-0.072034872
-0.075005238
-0.077924102
-0.080780713
-0.083562964
-0.08625839
-0.088855808
-0.091342031
-0.093703883
-0.095930414
-0.098009965
-0.09993186
-0.10168657
-0.10326291
-0.10464865
-0.10582655
-0.1067799
-0.10750214
-0.1080067
-0.10831351
-0.11495534
-0.11463332
-0.11410344
-0.11334464
-0.11234246
-0.1111044
-0.1096478
-0.1079909
-0.10614687
-0.10412748
-0.10194292
-0.099604749
-0.097124909
-0.094516104
-0.091791651
-0.088965523
-0.08605043
-0.083059183
-0.08000529
-0.076899759
-0.073754914
-0.070581981
-0.06738995
-0.064189774
-0.060989083
-0.057796409
-0.05462043
-0.051466341
-0.048342425
-0.04525461
-0.042206708
-0.039204535
-0.036251658
-0.033351129
-0.030506828
-0.027720761
-0.024995638
-0.022332484
-0.019733723
-0.017199592
-0.014732058
-0.012331686
-0.0099992091
-0.0077357256
-0.0055420008
-0.0034188291
-0.0013670848
0.00061233655
0.0025184704
0.0043503339
0.0061069395
0.0077871498
0.0093898118
0.010913815
0.012357966
0.013721041
0.015001908
0.016199489
0.017312718
0.018340715
0.019282654
0.020138189
0.020906945
0.021588053
0.022179272
0.022676541
0.023075399
0.023374368
0.023581086
0.02370431
0.021696797
0.021569981
0.021357026
0.021049002
0.020638012
0.020125619
0.01951646
0.018814784
0.018022912
0.017141794
0.016171832
0.015113461
0.013967566
0.012735081
0.011417141
0.010014916
0.0085296014
0.0069624725
0.0053147695
0.0035876861
0.0017824071
-9.9948832e-05
-0.0020583454
-0.0040918105
-0.0061994344
-0.008380334
-0.010633676
-0.012958794
-0.015354981
-0.017821409
-0.020357368
-0.022962212
-0.025634692
-0.028374342
-0.031179149
-0.034048048
-0.03697885
-0.039969668
-0.043016807
-0.046117381
-0.049267769
-0.052462096
-0.055697255
-0.05896653
-0.062261848
-0.065577762
-0.068905461
-0.072236099
-0.075561084
-0.078869293
-0.082151503
-0.085394962
-0.088586948
-0.091715958
-0.09476716
-0.097727163
-0.10058188
-0.1033167
-0.10591756
-0.10837042
-0.11066263
-0.11278216
-0.11471791
-0.11645753
-0.11798693
-0.11928683
-0.12033913
-0.12113576
-0.12169148
-0.12202917
-0.12956146
-0.12920783
-0.12862559
-0.12779035
-0.12668674
-0.12532372
-0.12371984
-0.12189572
-0.1198662
-0.11764443
-0.11524198
-0.11267183
-0.10994738
-0.1070839
-0.10409609
-0.10099954
-0.097809558
-0.094540243
-0.091207322
-0.087823406
-0.084401942
-0.080956223
-0.077496519
-0.074033979
-0.070577963
-0.067137737
-0.063722308
-0.060337388
-0.056990938
-0.053689628
-0.050436929
-0.047238152
-0.044097127
-0.041016439
-0.037999651
-0.03504833
-0.032164416
-0.029348788
-0.026603131
-0.023927886
-0.021324095
-0.018791832
-0.016332128
-0.013945535
-0.011632624
-0.009393976
-0.0072303417
-0.0051426156
-0.0031316946
-0.0011984589
0.00065592287
0.0024303753
0.0041236447
0.0057344826
0.0072615764
0.0087035838
0.010059216
0.011327243
0.012506433
0.013595774
0.014594337
0.015501591
0.016317076
0.017039774
0.017667263
0.018195127
0.018618532
0.01893582
0.019155148
0.019285619
0.016424084
0.016289882
0.016064027
0.015737255
0.015301134
0.014757439
0.014111207
0.013367023
0.012527407
0.01159346
0.010565723
0.009444805
0.008231676
0.0069274705
0.0055335218
0.0040511134
0.0024816414
0.00082653826
-0.00091280675
-0.0027350705
-0.004638964
-0.0066233835
-0.0086870695
-0.010829203
-0.013048874
-0.015345194
-0.017717528
-0.020165302
-0.022688136
-0.025285652
-0.027956776
-0.030701726
-0.033519958
-0.036410582
-0.039372827
-0.042405586
-0.045507655
-0.048677314
-0.051911519
-0.055207692
-0.058562164
-0.06197019
-0.065427916
-0.06892827
-0.07246408
-0.076028982
-0.079613981
-0.083209231
-0.086804729
-0.09038959
-0.093951961
-0.097478198
-0.10095394
-0.1043654
-0.10769627
-0.11093147
-0.11405446
-0.11704887
-0.11989882
-0.1225883
-0.12510289
-0.12742877
-0.12955362
-0.13146356
-0.13314305
-0.13457043
-0.13572598
-0.13660049
-0.1372097
-0.13757973
-0.14611205
-0.1457256
-0.14508903
-0.14417499
-0.14296689
-0.14147458
-0.13971875
-0.13772205
-0.13550077
-0.13306965
-0.13044167
-0.12763171
-0.12465479
-0.12152811
-0.1182684
-0.11489317
-0.11141982
-0.10786508
-0.10424554
-0.1005759
-0.096871841
-0.093147299
-0.089415418
-0.08568714
-0.081973208
-0.078283992
-0.074628026
-0.071012564
-0.067444801
-0.063931126
-0.060475796
-0.05708345
-0.053757288
-0.050500058
-0.047313888
-0.044200761
-0.041161493
-0.038196676
-0.035307252
-0.032493378
-0.029755759
-0.027093753
-0.024508349
-0.021999812
-0.019568377
-0.017214572
-0.014938945
-0.012742343
-0.010625728
-0.0085898933
-0.0066361279
-0.0047656117
-0.0029796951
-0.0012798031
0.00033260808
0.001856015
0.0032889213
0.0046299401
0.0058776484
0.007030776
0.0080883035
0.0090494913
0.0099137579
0.01067991
0.011345309
0.01190519
0.012354326
0.012690799
0.012923326
0.01306134
0.0091422214
0.0090002963
0.0087609372
0.0084145514
0.0079521026
0.0073756526
0.0066906421
0.0059020274
0.005012582
0.0040235693
0.0029356535
0.0017496996
0.00046679121
-0.00091165364
-0.0023841513
-0.0039491487
-0.0056050646
-0.0073502637
-0.0091831946
-0.011102338
-0.013106262
-0.015193698
-0.017363354
-0.019614381
-0.02194579
-0.024356802
-0.026846903
-0.029415618
-0.032062858
-0.034788398
-0.037591505
-0.040473049
-0.043432446
-0.046469827
-0.049584735
-0.05277663
-0.056045082
-0.05938823
-0.062804465
-0.066291273
-0.069845669
-0.07346337
-0.077139865
-0.080868945
-0.084643949
-0.088456693
-0.092298628
-0.096159296
-0.1000273
-0.10389112
-0.10773686
-0.1115499
-0.1153136
-0.11901224
-0.12262837
-0.12614396
-0.12954093
-0.1328005
-0.13590484
-0.13883594
-0.14157759
-0.14411428
-0.14643225
-0.14851611
-0.15034851
-0.15190596
-0.15316664
-0.15412042
-0.15478429
-0.15518724
-0.16483447
-0.16441527
-0.16372423
-0.16273096
-0.16141801
-0.15979579
-0.15788731
-0.15571689
-0.15330271
-0.1506609
-0.14780595
-0.14475421
-0.14152293
-0.13813106
-0.13459741
-0.13094199
-0.12718362
-0.12334171
-0.11943459
-0.11547922
-0.11149291
-0.1074911
-0.10348824
-0.099496772
-0.095528525
-0.091593727
-0.087701769
-0.08386147
-0.08007841
-0.076358906
-0.072707833
-0.069128897
-0.065624945
-0.062197942
-0.058849692
-0.055580988
-0.05239265
-0.049284398
-0.046256795
-0.043309016
-0.040441734
-0.037653852
-0.034945738
-0.03231762
-0.029769468
-0.027301673
-0.024914786
-0.022609457
-0.020386733
-0.018247569
-0.016193264
-0.014225169
-0.012344816
-0.010553816
-0.008853846
-0.0072466524
-0.0057339787
-0.0043174904
-0.0029987875
-0.0017793868
-0.00066048598
0.00035693767
0.0012721115
0.0020836939
0.0027887678
0.0033821885
0.003858269
0.0042148002
0.0044611634
0.0046070897
-0.00060827758
-0.00075823353
-0.0010118086
-0.0013787761
-0.0018688164
-0.0024796038
-0.0032051956
-0.004040249
-0.0049816972
-0.0060281143
-0.0071785926
-0.0084320649
-0.0097872008
-0.011242365
-0.012795819
-0.01444576
-0.016190297
-0.018027539
-0.019955694
-0.021973016
-0.024077884
-0.02626883
-0.028544534
-0.030903896
-0.033345886
-0.035869856
-0.038475275
-0.041161834
-0.043929654
-0.046778467
-0.049708372
-0.052720506
-0.055814366
-0.058991156
-0.062250624
-0.065593388
-0.069018894
-0.07252679
-0.076115543
-0.079783471
-0.083528188
-0.087346289
-0.091232768
-0.095181718
-0.099187688
-0.10324113
-0.10733307
-0.11145274
-0.11558795
-0.11972543
-0.12385009
-0.12794579
-0.13199413
-0.13597738
-0.13987603
-0.14366952
-0.14733807
-0.15086049
-0.15421697
-0.15738777
-0.16035435
-0.16309986
-0.16560889
-0.16786458
-0.16984785
-0.1715338
-0.17289807
-0.17393019
-0.17464794
-0.1750832
-0.18596239
-0.18551152
-0.18476786
-0.18369823
-0.18228406
-0.18053637
-0.17848023
-0.17614152
-0.17354022
-0.1706938
-0.16761841
-0.16433151
-0.16085294
-0.15720298
-0.15340274
-0.14947465
-0.1454392
-0.14131785
-0.13713171
-0.13289918
-0.12863979
-0.12437041
-0.1201066
-0.11586262
-0.11165072
-0.10748273
-0.10336714
-0.099313234
-0.095327327
-0.091414671
-0.087580256
-0.083827079
-0.080157212
-0.07657186
-0.073072476
-0.069658752
-0.066331072
-0.063088354
-0.059930666
-0.056856315
-0.05386564
-0.050957591
-0.048131532
-0.045387727
-0.042725975
-0.04014655
-0.037649989
-0.035236949
-0.032908455
-0.030665751
-0.02851022
-0.026443457
-0.024467186
-0.022583301
-0.020793728
-0.019100504
-0.017505676
-0.016011216
-0.014619026
-0.013330855
-0.012148195
-0.011072216
-0.01010397
-0.009244945
-0.008498372
-0.0078698341
-0.0073655221
-0.0069879027
-0.0067269652
-0.0065728786
-0.013360341
-0.013518652
-0.013787093
-0.014175566
-0.01469446
-0.015341142
-0.016109147
-0.016992645
-0.017988248
-0.019094366
-0.0203098
-0.021633264
-0.023063105
-0.024597432
-0.026234179
-0.027971167
-0.029806202
-0.031737083
-0.033761735
-0.035878089
-0.038084308
-0.040378644
-0.042759622
-0.045225858
-0.047776324
-0.050410278
-0.05312722
-0.05592688
-0.058809492
-0.061774934
-0.064824111
-0.067958052
-0.071176823
-0.074482355
-0.077874942
-0.08135588
-0.084925242
-0.088583804
-0.092330447
-0.096164123
-0.10008353
-0.10408572
-0.10816606
-0.11231961
-0.1165396
-0.12081703
-0.12514357
-0.12950653
-0.13389352
-0.13828967
-0.14267871
-0.14704279
-0.15136164
-0.15561606
-0.15978353
-0.16384146
-0.16776827
-0.17154095
-0.17513711
-0.17853551
-0.18171544
-0.18465872
-0.18734845
-0.18976667
-0.19189256
-0.1936993
-0.19516118
-0.19626672
-0.19703497
-0.19750071
-0.20972609
-0.20924671
-0.2084553
-0.20731625
-0.2058096
-0.20394753
-0.20175615
-0.19926317
-0.19649016
-0.1934556
-0.190177
-0.18667344
-0.18296605
-0.1790773
-0.17503056
-0.17084946
-0.16655697
-0.16217652
-0.1577317
-0.15324295
-0.14873124
-0.14421521
-0.13971199
-0.13523686
-0.13080263
-0.12642219
-0.12210433
-0.11785765
-0.11368914
-0.10960356
-0.10560494
-0.10169601
-0.097877962
-0.09415119
-0.090516553
-0.086972623
-0.083519153
-0.080154382
-0.076877773
-0.073687229
-0.070582168
-0.067561564
-0.064624313
-0.061770464
-0.058999685
-0.056312298
-0.053708761
-0.051189957
-0.048756935
-0.046411194
-0.044154365
-0.04198835
-0.039915137
-0.037936956
-0.03605608
-0.034274886
-0.03259573
-0.031020992
-0.029552929
-0.028193597
-0.026944812
-0.025807985
-0.02478447
-0.023876011
-0.023086135
-0.022420907
-0.021887093
-0.021487453
-0.021211275
-0.021048741