/*--------------------------------*- C++ -*----------------------------------*\
| =========                 |                                                 |
| \\      /  F ield         | OpenFOAM: The Open Source CFD Toolbox           |
|  \\    /   O peration     | Version:  v2012                                 |
|   \\  /    A nd           | Website:  www.openfoam.com                      |
|    \\/     M anipulation  |                                                 |
\*---------------------------------------------------------------------------*/
FoamFile
{
    version     2.0;
    format      ascii;
    class       volScalarField;
    location    "100";
    object      k;
}
// * * * * * * * * * * * * * * * * * * * * * * * * * * * * * * * * * * * * * //

dimensions      [0 2 -2 0 0 0 0];


internalField   nonuniform List<scalar> 
49454
(
0.048279724
0.045907925
0.043536299
0.040723791
0.040077624
0.038056016
0.036104818
0.035278976
0.034224836
0.032945929
0.031549276
0.030100476
0.028623089
0.027174052
0.025980155
0.024904458
0.025548392
0.033730757
0.034086856
0.032607461
0.030983398
0.029378895
0.027515417
0.026957628
0.025599923
0.024292318
0.02361882
0.022808811
0.021901026
0.020951329
0.01998302
0.018988361
0.018027181
0.017085619
0.016196232
0.01526136
0.014180802
0.015535657
0.02089043
0.019966001
0.019001037
0.018074809
0.017043646
0.01687962
0.016083414
0.015357343
0.01506529
0.014645318
0.014113652
0.013535674
0.013073699
0.012759562
0.012634765
0.013300006
0.015971368
0.015798205
0.01540578
0.016963833
0.025961826
0.026420923
0.025442531
0.024167778
0.022842447
0.021559958
0.020325858
0.019149789
0.018026408
0.016956508
0.015938587
0.014972535
0.014057863
0.013193998
0.012380197
0.011615543
0.010898907
0.09806967
0.10315625
0.10829544
0.11351947
0.11874073
0.12405262
0.12942501
0.13484606
0.14032108
0.14587635
0.15151826
0.15719191
0.16289812
0.16863604
0.17438975
0.18014952
0.18592877
0.19169212
0.19743926
0.20317312
0.20883236
0.21446629
0.22005221
0.2255721
0.23105749
0.23648216
0.24177932
0.24697256
0.25209198
0.25828256
0.25345364
0.24849053
0.24340324
0.2382079
0.23291487
0.22754003
0.22209403
0.21659246
0.21104499
0.20546599
0.1998655
0.1942569
0.18864817
0.18305033
0.17746959
0.17191495
0.16639116
0.16090553
0.1554618
0.15006604
0.14472135
0.1394329
0.13420351
0.12903779
0.12393831
0.11890554
0.11393502
0.11710709
0.12222123
0.12738351
0.13260904
0.13789518
0.14323859
0.14863568
0.15408277
0.15957579
0.16511036
0.17068155
0.17628401
0.18191167
0.18755772
0.19321429
0.1988724
0.20452299
0.21015882
0.21575868
0.22131203
0.22680815
0.23223364
0.23757523
0.24282067
0.24795597
0.25297061
0.2578942
0.25884611
0.25398361
0.24898475
0.24385986
0.23862293
0.23328419
0.22785948
0.22236191
0.21680643
0.21120379
0.20556404
0.1999168
0.194263
0.18861685
0.1829859
0.17737695
0.17179643
0.16624967
0.16074213
0.15527878
0.14986447
0.14450332
0.13919938
0.13395665
0.12877912
0.12366943
0.1186227
0.11788843
0.12308996
0.12833556
0.13364079
0.13900288
0.1444188
0.14988422
0.1553937
0.16094785
0.16653729
0.17215959
0.17780661
0.18347364
0.1891552
0.19486673
0.20057339
0.20627041
0.21197448
0.21763725
0.22324858
0.2288005
0.23427258
0.23965718
0.24493559
0.25009572
0.25512328
0.26003204
0.26188316
0.25705069
0.25205908
0.24692057
0.24165449
0.2362755
0.23082436
0.22528432
0.21968944
0.21402783
0.20831167
0.20260332
0.19687635
0.19116633
0.18545956
0.17975489
0.17407178
0.16841197
0.16278642
0.15720086
0.15168355
0.14621036
0.14077806
0.13539884
0.13008011
0.12482351
0.11963058
0.11828287
0.12366696
0.12911861
0.13462738
0.14018937
0.14580121
0.15145827
0.1571522
0.16288541
0.16865969
0.17441556
0.18017984
0.18595904
0.19174255
0.1975564
0.2033651
0.20916033
0.21496419
0.22072069
0.22642293
0.23205603
0.23760245
0.24305463
0.24838434
0.25357491
0.25861068
0.26350887
0.26564922
0.2607811
0.25573957
0.25053769
0.24519369
0.23972206
0.2341478
0.22848614
0.22275354
0.21695975
0.21112582
0.20530241
0.19945853
0.19363147
0.1878037
0.18197093
0.17615477
0.17035851
0.16459239
0.15886295
0.15320152
0.14758344
0.14200323
0.13647695
0.13101113
0.12561019
0.12027736
0.11868447
0.12420234
0.12976634
0.13539301
0.14107911
0.14682049
0.15261383
0.15845391
0.16434
0.1702611
0.17620477
0.18216885
0.18816756
0.19413624
0.20012218
0.20610222
0.21206395
0.21804484
0.22393967
0.22975814
0.23550154
0.24116616
0.24675047
0.25220561
0.25751416
0.26266068
0.26764899
0.27051276
0.26548478
0.26027112
0.25488744
0.24935385
0.24368731
0.23791644
0.23205294
0.22611705
0.22012034
0.21407775
0.20804663
0.2019989
0.19597542
0.18997277
0.18397966
0.17802365
0.17208283
0.16616207
0.16027842
0.1544419
0.14865937
0.14296363
0.1373304
0.13175457
0.12624845
0.12081603
0.11915246
0.12475822
0.13044713
0.13621187
0.14204056
0.14793461
0.15389501
0.15989871
0.16594511
0.17204798
0.17814031
0.18425638
0.19040188
0.19656667
0.20277731
0.20899388
0.21520536
0.22143414
0.2276206
0.23374661
0.23980583
0.24576273
0.25161016
0.25732083
0.26287678
0.26826116
0.27347674
0.27748658
0.27216661
0.26665016
0.26095642
0.25510563
0.24912015
0.24304745
0.23687124
0.23063382
0.22432515
0.21796538
0.21162845
0.20528335
0.19897347
0.192679
0.18640483
0.18017328
0.17398892
0.16785357
0.16177509
0.15575829
0.14980756
0.14392867
0.13812619
0.13240498
0.12679712
0.12128352
0.12011845
0.12584982
0.13166428
0.13754842
0.14350442
0.14953476
0.15563856
0.16180923
0.16804439
0.17434168
0.18069334
0.1870936
0.19356775
0.2000701
0.20661512
0.21317751
0.21974492
0.22633873
0.23288809
0.23938347
0.24580444
0.25213029
0.2583458
0.26442505
0.27035079
0.27610399
0.28169318
0.28647354
0.2807229
0.27478685
0.26868185
0.26242918
0.25604398
0.24954862
0.24295842
0.23629613
0.22957872
0.22282998
0.21611459
0.20940836
0.20275123
0.19612453
0.18953327
0.18302793
0.17658268
0.17019416
0.16387832
0.15764186
0.1514845
0.14541469
0.13943329
0.13354576
0.12778162
0.12210994
0.12017483
0.12606386
0.13204317
0.13813914
0.14432388
0.15061299
0.15694081
0.16334298
0.1698294
0.17639587
0.18305427
0.18980708
0.19663609
0.20347442
0.21036441
0.21728662
0.22422639
0.23119818
0.23813524
0.24501069
0.25180985
0.25851359
0.26510943
0.27158058
0.27791428
0.28409216
0.29011539
0.29596935
0.30163177
0.30394411
0.29810157
0.29208415
0.28591423
0.27960782
0.2731713
0.26661672
0.25995499
0.25319624
0.24635495
0.23944066
0.23246411
0.22544425
0.21845305
0.21147385
0.20455009
0.19766172
0.19080625
0.18401656
0.17730236
0.17067529
0.16413829
0.15769801
0.15135626
0.14511464
0.138977
0.13294953
0.1270615
0.12128279
0.11624374
0.12212242
0.12810696
0.13422969
0.14046267
0.14680183
0.15324279
0.15978378
0.16642446
0.17315387
0.17996244
0.18683972
0.1937919
0.20075954
0.20777942
0.21482778
0.22189248
0.22892578
0.23587226
0.24271654
0.24948139
0.2561706
0.26277466
0.26928554
0.27570436
0.28203096
0.28827965
0.29443832
0.30049842
0.28661915
0.2807781
0.27481895
0.26884615
0.26294616
0.25700828
0.25100967
0.24492408
0.23874396
0.23240194
0.22587608
0.21915403
0.21234828
0.2055509
0.19876116
0.19201879
0.18530954
0.17863785
0.17202956
0.16549407
0.15904626
0.15269421
0.1464678
0.14034663
0.13432441
0.12841401
0.12262205
0.11697378
0.11144717
0.093795799
0.09900261
0.10431895
0.10976208
0.11531033
0.12095881
0.12670023
0.13253229
0.13845087
0.14444458
0.15050265
0.15661515
0.16278415
0.1689575
0.17516171
0.18136459
0.18758705
0.19385045
0.201165
0.20713616
0.21247286
0.21732738
0.22184188
0.22599903
0.22969196
0.23327075
0.23918988
0.24468721
0.24948565
0.25365763
0.22658481
0.22920344
0.22285697
0.22533009
0.21892189
0.2204405
0.21406306
0.2148517
0.20846567
0.20532247
0.18310365
0.14684811
0.13354523
0.17476181
0.1738913
0.17153772
0.168828
0.16592675
0.16181267
0.15582125
0.1486945
0.1443922
0.14037131
0.13605078
0.13151507
0.1268645
0.12216132
0.11744584
0.11273788
0.10806593
0.10342833
0.098844484
0.094313764
0.089841569
0.085442232
0.081124916
0.076909215
0.072790424
0.042148198
0.045072062
0.048084685
0.051179438
0.054344637
0.057577819
0.06085068
0.064167355
0.067518285
0.070895131
0.074297217
0.077707206
0.081115462
0.084460066
0.087591088
0.090105816
0.091382988
0.069847837
0.044080974
0.025736714
0.022709354
0.022594658
0.022958169
0.016415218
0.014652436
0.015412875
0.015350454
0.015782331
0.016544884
0.017275112
0.017826446
0.018078017
0.017025594
0.018080359
0.021432012
0.021186938
0.017929271
0.018984565
0.021169887
0.036125065
0.033788122
0.033441683
0.022646361
0.019938257
0.020514455
0.021614049
0.023242378
0.024562616
0.02569082
0.026683349
0.027463799
0.027913019
0.026456739
0.028160911
0.033179607
0.032908381
0.028175554
0.029869248
0.032946825
0.056397849
0.054926911
0.05589172
0.05416678
0.035434776
0.031626183
0.032388547
0.034171273
0.036049484
0.037896646
0.039522559
0.040958122
0.04191047
0.042360716
0.039820442
0.04242019
0.05019068
0.049505018
0.041908354
0.044451998
0.049114237
0.084006713
0.07921323
0.25099339
0.24596651
0.24081864
0.23556732
0.23023864
0.22483214
0.21936629
0.21385035
0.20830611
0.2027332
0.19715215
0.19156024
0.1859755
0.18039469
0.17483394
0.1692889
0.16376755
0.15827456
0.15281515
0.14739541
0.1420277
0.136711
0.13145677
0.12626396
0.12114248
0.11609218
0.11112218
0.10623249
0.10142633
0.097321612
0.0950066
0.095108301
0.094779883
0.095070086
0.099875567
0.099402884
0.10010074
0.099833773
0.1001327
0.10005973
0.10229362
0.10730187
0.10517468
0.10521104
0.10495005
0.10518289
0.10454097
0.10497601
0.10506921
0.10470479
0.10434585
0.10437498
0.10389728
0.10401402
0.10366266
0.10438461
0.10468943
0.10483019
0.10528393
0.10473008
0.10445232
0.10400011
0.10366653
0.10394761
0.1041492
0.1048815
0.10473222
0.1049282
0.10611141
0.10691599
0.10747551
0.10866728
0.10947657
0.11071446
0.11242556
0.11507277
0.12022728
0.11765617
0.11597882
0.11475753
0.11393283
0.11272949
0.11221927
0.11144377
0.11130693
0.11099864
0.11052399
0.11061966
0.11032666
0.11037632
0.11020817
0.11055166
0.11049128
0.11015255
0.10982365
0.11006072
0.11013354
0.11016176
0.10998596
0.11009792
0.10939831
0.10917458
0.10889104
0.10925132
0.10963628
0.10991954
0.11051762
0.11001713
0.10988457
0.10962481
0.10886927
0.10924454
0.10905547
0.10955198
0.10955446
0.10986586
0.11019644
0.11012391
0.10973326
0.11034306
0.11013696
0.11036831
0.11035998
0.11241352
0.1175659
0.11561319
0.11558582
0.11539192
0.1155621
0.11499206
0.11533244
0.11541198
0.11507313
0.11476615
0.11477906
0.11429471
0.11449131
0.11415852
0.11488104
0.11516974
0.11525236
0.11576365
0.11519891
0.11487625
0.11455723
0.11418262
0.11445371
0.11470945
0.11536376
0.11524735
0.1154865
0.11544014
0.11535975
0.11518008
0.11546369
0.1158162
0.11586218
0.11555927
0.11571443
0.11569133
0.1159641
0.11589821
0.11633878
0.11666092
0.11681791
0.11755621
0.11803566
0.11925019
0.1200862
0.12129011
0.12293236
0.12544959
0.13071219
0.1282695
0.12666176
0.12547681
0.1246288
0.12340209
0.12294603
0.12226146
0.12205858
0.12173847
0.12133559
0.12136031
0.12111783
0.12110248
0.12097153
0.12122285
0.12120893
0.12083428
0.12057895
0.12071718
0.12078774
0.12087601
0.12056081
0.12071135
0.12007958
0.11981296
0.11957547
0.11994633
0.12017872
0.12054746
0.12105832
0.12055617
0.12051285
0.12020643
0.11951277
0.11981245
0.11962835
0.12008105
0.12002301
0.12035214
0.12067042
0.12061275
0.12031212
0.12085173
0.1207081
0.12087442
0.12092882
0.12281555
0.12809656
0.12630416
0.12621559
0.12608262
0.12619192
0.12569058
0.12594575
0.12598335
0.12573054
0.12537838
0.1254351
0.12502445
0.12518556
0.12492979
0.12558236
0.12591583
0.12595665
0.12641841
0.12596437
0.12558104
0.12535763
0.12503694
0.1252285
0.12551074
0.126111
0.12594309
0.12632743
0.12621039
0.12613133
0.1260371
0.12626041
0.12661646
0.12667424
0.12640725
0.12658089
0.12656807
0.12684811
0.12679534
0.12719804
0.12753437
0.12777137
0.12840334
0.12883064
0.13006742
0.13092629
0.132089
0.13366475
0.13605536
0.14143174
0.13911477
0.13757106
0.13643089
0.13560029
0.13431964
0.1339495
0.13334702
0.13309766
0.13273119
0.13231707
0.13240959
0.13207968
0.13213165
0.13190411
0.13219795
0.13206169
0.13174351
0.13157082
0.13161785
0.13172891
0.13185476
0.1314082
0.13155894
0.13101649
0.13071759
0.13055372
0.13083922
0.13102737
0.13144203
0.13186862
0.13140948
0.13139103
0.13102159
0.1304013
0.1306235
0.13047799
0.1308536
0.13077763
0.13116535
0.13134995
0.13134658
0.13112327
0.13159827
0.13151324
0.13162438
0.13173526
0.13347235
0.13886889
0.13721863
0.13707716
0.1369874
0.13704803
0.13660653
0.13679645
0.13677192
0.13664881
0.13623552
0.13631883
0.13598667
0.13611008
0.13592762
0.13650666
0.13686655
0.13690887
0.13735222
0.13697875
0.13653152
0.13637203
0.13612848
0.13625892
0.13653491
0.13706827
0.13696502
0.13739827
0.13730459
0.13715389
0.1371131
0.13731587
0.13760216
0.13773379
0.13748903
0.13769328
0.13767922
0.13798229
0.13793179
0.13831032
0.13871355
0.13897652
0.13954266
0.13986576
0.14116978
0.14198884
0.14310486
0.14461558
0.1468829
0.15235916
0.15016328
0.14868435
0.14758983
0.14677877
0.14548461
0.1451971
0.14465739
0.1444001
0.14395059
0.14359283
0.14360949
0.14333236
0.14330947
0.14312799
0.14332966
0.14317853
0.14296287
0.14268762
0.14275377
0.14293695
0.14299364
0.14257974
0.14265881
0.1420897
0.14185423
0.14176888
0.14196109
0.14214121
0.14256417
0.14286961
0.142465
0.14237228
0.14204691
0.14149978
0.14165273
0.14154151
0.14184351
0.14177501
0.14219806
0.14224026
0.14229503
0.14213217
0.14254196
0.14249988
0.14257913
0.14274715
0.14434339
0.14988079
0.14832758
0.14816911
0.14807723
0.1481135
0.14770825
0.14787109
0.14778287
0.1477428
0.14735696
0.14740189
0.14714403
0.14723067
0.14712028
0.14762524
0.14792624
0.14802682
0.14843442
0.14819028
0.14774383
0.14762922
0.14741257
0.14753505
0.14772426
0.14829795
0.14824515
0.14862999
0.14861307
0.14840023
0.14834225
0.14860243
0.14879338
0.14896766
0.14881893
0.14896571
0.14903692
0.14927576
0.14929622
0.1496306
0.15008467
0.15038388
0.15088741
0.15119042
0.15243452
0.15323339
0.15430341
0.15575454
0.15790346
0.1634638
0.16138484
0.15996146
0.15891523
0.15812802
0.15693777
0.15663143
0.15615188
0.15579198
0.15535329
0.15505673
0.1549912
0.15477828
0.15467358
0.15454734
0.15466519
0.15447797
0.15427423
0.15407485
0.15409771
0.1543236
0.15431325
0.15395105
0.15399284
0.15343988
0.15327899
0.15309717
0.15335401
0.15336729
0.15386507
0.15403702
0.15363205
0.15351871
0.15325088
0.15277238
0.15285754
0.15277837
0.15300837
0.15297105
0.15333328
0.15339951
0.1535015
0.15331316
0.15373305
0.15363671
0.15378827
0.15393988
0.15547385
0.16106934
0.15958482
0.15943255
0.15923023
0.15933838
0.15894436
0.1591161
0.15905241
0.15895252
0.15861732
0.15864513
0.15844729
0.15851591
0.15845909
0.1589118
0.15915838
0.15931954
0.15967845
0.15953894
0.15905795
0.15907301
0.15885582
0.159015
0.15919382
0.15971637
0.15969638
0.16002316
0.16009743
0.15987211
0.15985212
0.15999426
0.16024735
0.16040241
0.16031285
0.16041242
0.1605559
0.16073561
0.16080483
0.16115083
0.16156846
0.16195932
0.16238876
0.16272343
0.16385842
0.16463074
0.16565479
0.1670496
0.16908374
0.17470908
0.17274277
0.17137482
0.17037434
0.16961576
0.16853668
0.16815381
0.16779481
0.16741048
0.16700191
0.16656012
0.16651856
0.16637821
0.16618193
0.16612161
0.16617255
0.16605451
0.16576961
0.16565621
0.16566098
0.16584102
0.16576809
0.1654711
0.16547837
0.16497376
0.16478579
0.16464272
0.16483044
0.16481451
0.16525476
0.16534346
0.16504299
0.16482854
0.16461066
0.16418598
0.16420403
0.16415573
0.16431088
0.16430141
0.16459919
0.16472783
0.16475452
0.16460504
0.16497821
0.16489232
0.16512097
0.16524985
0.16672901
0.17233681
0.17092537
0.17078845
0.17057782
0.1706357
0.17029144
0.17040775
0.1704253
0.17029875
0.16997097
0.1700356
0.16985197
0.16995214
0.16989957
0.1703389
0.17055706
0.1707962
0.17107012
0.17098802
0.17059982
0.17060262
0.17045465
0.17057324
0.17077891
0.17125511
0.17127528
0.17152811
0.17159627
0.17147695
0.17148985
0.17161814
0.17189354
0.17199951
0.17191721
0.17200925
0.17218829
0.17233013
0.17237453
0.17282759
0.17326807
0.17364718
0.17394003
0.17437517
0.17539902
0.17614026
0.1771129
0.17845967
0.1803833
0.18604989
0.18419277
0.182868
0.18192201
0.18119695
0.18023278
0.17977364
0.17952557
0.17916018
0.17867874
0.17824092
0.17817862
0.17801202
0.17786864
0.17772814
0.17785806
0.17776082
0.17747831
0.17735279
0.17732625
0.17739303
0.17731385
0.17709741
0.17705543
0.1766127
0.17637944
0.17629908
0.17639961
0.17640038
0.17674478
0.17680886
0.17658163
0.17634389
0.17609811
0.17562814
0.17573352
0.17556219
0.17579305
0.17565302
0.17602669
0.17615356
0.17608106
0.17599489
0.17631696
0.17628338
0.17647035
0.17662058
0.17799048
0.18362274
0.18233057
0.18216013
0.18200566
0.18200624
0.18171374
0.18175701
0.18184008
0.18172546
0.18138251
0.18153136
0.1813217
0.1814962
0.18141006
0.18187245
0.18215074
0.18233729
0.18256871
0.18250951
0.18221388
0.18220438
0.18211407
0.1822346
0.18242168
0.18286601
0.18293976
0.1831111
0.18323761
0.18313507
0.18316966
0.18333738
0.18359635
0.1836876
0.18358972
0.18370321
0.18388266
0.18404012
0.18412221
0.18453521
0.18500991
0.18536654
0.18560169
0.18610696
0.1870093
0.18771227
0.18863574
0.18993611
0.19175159
0.19742964
0.19567755
0.1944004
0.19350153
0.19281408
0.19197717
0.19141054
0.19121011
0.19084005
0.19039505
0.19002269
0.18990111
0.18977701
0.18954307
0.18945617
0.1895178
0.18942818
0.18921219
0.18896066
0.18894568
0.1891039
0.18891842
0.18878171
0.18868493
0.18823105
0.18811233
0.18790782
0.18801804
0.18804552
0.1882883
0.18832665
0.18809843
0.1879632
0.18764996
0.18720081
0.18726367
0.18709035
0.18727501
0.18712103
0.18742469
0.1875075
0.18744047
0.18743849
0.18770639
0.18773427
0.18786022
0.18804641
0.18929458
0.19493305
0.19376586
0.19355709
0.19346887
0.19340287
0.19316944
0.19312303
0.19317952
0.19312105
0.19286516
0.19301707
0.19286426
0.19302897
0.19299622
0.19342216
0.19377872
0.1938553
0.19410141
0.19406075
0.19383271
0.19383656
0.19373078
0.19394804
0.19407877
0.19450396
0.19462191
0.19471545
0.19492486
0.19480199
0.19478687
0.19503931
0.19529223
0.19534263
0.19531993
0.19537168
0.19562348
0.1957925
0.19588274
0.19629217
0.19667411
0.19704377
0.19721671
0.19783966
0.19861237
0.19928146
0.2001583
0.20141061
0.20312585
0.2087819
0.20715729
0.20590453
0.20504238
0.20438993
0.20369929
0.20302972
0.20285332
0.20251201
0.20219556
0.20172194
0.20168707
0.2014273
0.20118556
0.20118384
0.20115816
0.20116431
0.20085565
0.20059188
0.20065065
0.20070926
0.20049748
0.20046203
0.20031337
0.19991893
0.19977783
0.1995774
0.19965653
0.19958158
0.1998305
0.19985476
0.1996007
0.19959871
0.19918416
0.1987801
0.19878779
0.19862784
0.19875408
0.19860028
0.19881664
0.19884034
0.19880489
0.19889067
0.19909791
0.19919303
0.19925191
0.19947448
0.20059835
0.2062164
0.20516764
0.20492929
0.20490436
0.20477507
0.20460004
0.20447481
0.20449385
0.20449734
0.20432674
0.20447498
0.2043812
0.20452939
0.2045545
0.2049226
0.20536353
0.20536582
0.20558183
0.20558602
0.2053444
0.20545113
0.20540611
0.20557828
0.2057444
0.20609605
0.20623994
0.20630372
0.20647764
0.20647786
0.20637874
0.20664282
0.20697201
0.20694494
0.20698362
0.20702459
0.2072452
0.20751763
0.20757074
0.20803428
0.20836327
0.20864116
0.20885733
0.20949781
0.21014233
0.21077481
0.21161793
0.21286759
0.21443263
0.22000965
0.21852207
0.21728839
0.21646543
0.21585683
0.21525682
0.21466138
0.21442172
0.21420095
0.21383379
0.21338791
0.21331772
0.21302148
0.21283591
0.212723
0.21269051
0.21272342
0.21240893
0.21217409
0.21229715
0.21220826
0.2120828
0.21195857
0.2118498
0.21153321
0.21135294
0.21120158
0.21121973
0.21111095
0.2113299
0.2112715
0.21110528
0.21107554
0.21063348
0.21029782
0.21024601
0.21010743
0.21017291
0.21002867
0.21016215
0.21012135
0.21012091
0.2102961
0.21042517
0.21060101
0.21057918
0.21084508
0.21183551
0.21742135
0.21645601
0.2162286
0.21623315
0.21607445
0.21592917
0.21577482
0.21572512
0.21579739
0.2157055
0.215837
0.21580695
0.21592676
0.21600936
0.21630908
0.21675475
0.21681438
0.21695963
0.21703025
0.21683737
0.21693717
0.21695679
0.21707722
0.21728314
0.21755799
0.21763837
0.2178248
0.21792303
0.21802988
0.21792653
0.21812685
0.21843752
0.21843134
0.21842023
0.21860377
0.21875584
0.21907123
0.21916502
0.21958094
0.21995029
0.22015209
0.22042508
0.22096811
0.2215255
0.22211245
0.22290906
0.22412472
0.22555528
0.23100834
0.22966105
0.22848555
0.22769863
0.22713281
0.22662207
0.22612539
0.22582187
0.22561554
0.22527029
0.22488359
0.22477942
0.22447311
0.22434012
0.22407794
0.22413808
0.22408796
0.22378957
0.22362519
0.22370775
0.22362603
0.22353785
0.2232826
0.22319885
0.22298519
0.22274566
0.22266728
0.22260498
0.2225129
0.22268424
0.22259464
0.2224807
0.22238104
0.22193452
0.22168502
0.22156404
0.22145719
0.22145657
0.22133858
0.22139915
0.22130635
0.22140885
0.22151375
0.22169773
0.22181611
0.22185179
0.22201542
0.22300611
0.2284707
0.22754835
0.22738505
0.22737446
0.22723052
0.22707794
0.22695751
0.22687393
0.22695459
0.2269264
0.22702013
0.22705628
0.22714335
0.22727371
0.22754416
0.22795267
0.22808574
0.22817217
0.22827324
0.22813369
0.22820912
0.2282821
0.2283868
0.22859876
0.22877942
0.22890127
0.22915632
0.22925636
0.2293135
0.22926757
0.22942438
0.22970598
0.22973788
0.22969812
0.22996839
0.23012032
0.23041012
0.23053605
0.23088403
0.23121572
0.2314183
0.23175599
0.23220537
0.23267886
0.23320945
0.2340208
0.23512304
0.23640283
0.24167991
0.24048301
0.23948639
0.23865716
0.2381384
0.23770683
0.2373086
0.23693222
0.23673005
0.23641776
0.23610379
0.23596096
0.23568564
0.23550807
0.23523883
0.23525472
0.23523006
0.23497252
0.23481988
0.23482471
0.23479545
0.23467449
0.23444971
0.23429755
0.23412568
0.23394802
0.2337872
0.23372698
0.23367146
0.2337837
0.23369986
0.23361864
0.23343638
0.23308022
0.23276071
0.23264356
0.23259288
0.23251718
0.23244464
0.23244884
0.23238232
0.23243399
0.23258042
0.23268731
0.23286534
0.23284103
0.23301616
0.23388524
0.23923797
0.23841979
0.23826033
0.23830189
0.23810668
0.23802139
0.23787639
0.23782637
0.23786537
0.23787981
0.23792611
0.23801711
0.23810212
0.23820034
0.23854756
0.23887276
0.23908499
0.23914658
0.23925453
0.23913596
0.23920249
0.23923794
0.23943392
0.23960939
0.23977981
0.23992672
0.24014722
0.24027166
0.24030183
0.24030016
0.24045185
0.24064022
0.24066814
0.24068919
0.24095517
0.24116554
0.24141706
0.24157993
0.24186067
0.24215887
0.24238326
0.24273544
0.24311449
0.24352598
0.24400123
0.2448152
0.24573692
0.24687213
0.2519223
0.250858
0.2499948
0.24922477
0.24882678
0.24840843
0.2480335
0.24772816
0.24746914
0.24718376
0.24693486
0.2467525
0.24652937
0.24628818
0.24602919
0.24598816
0.24597301
0.24349727
0.24334521
0.2432441
0.24324476
0.2431801
0.24317344
0.24322054
0.24335933
0.24342111
0.24359508
0.24357512
0.24372166
0.24451796
0.24966724
0.24892077
0.2487786
0.2487881
0.24863472
0.24860763
0.24846415
0.24843034
0.24843957
0.25127616
0.25154511
0.2517831
0.25200796
0.25219186
0.25242922
0.25268858
0.2529618
0.25324073
0.25361548
0.2540105
0.2543591
0.25508369
0.2558859
0.25689529
0.25689637
0.25195803
0.24689612
0.24171316
0.23642539
0.23103671
0.22556864
0.22003156
0.21444137
0.20879988
0.20313466
0.19746431
0.19179318
0.18612827
0.18048015
0.17485374
0.16925831
0.16369689
0.15817755
0.15270343
0.14728142
0.14191364
0.13660623
0.13136191
0.1261865
0.1210814
0.11604189
0.013273515
0.014235567
0.015263728
0.016361754
0.017528355
0.018760514
0.020060656
0.021433441
0.022867505
0.024373738
0.025952247
0.027614228
0.029358854
0.03115099
0.032919691
0.034377242
0.034451761
0.031486432
0.029517791
0.029485613
0.026794024
0.026233499
0.025380839
0.026277332
0.027517177
0.028711927
0.029823687
0.030771287
0.03180194
0.034145999
0.034517033
0.034985633
0.035219881
0.035652875
0.035889232
0.035736668
0.03590339
0.035684163
0.035883088
0.035618233
0.035797059
0.035615944
0.035814029
0.035414409
0.035590249
0.035694685
0.035901815
0.035471423
0.035641033
0.035738345
0.035952561
0.035523387
0.035707897
0.035867526
0.036149634
0.036333992
0.036596916
0.03679775
0.037042625
0.036927385
0.037175208
0.037561728
0.037836874
0.037594061
0.037762606
0.037476557
0.037686704
0.037433012
0.037636698
0.037652286
0.037869294
0.037308409
0.037468302
0.037270512
0.037460044
0.036817943
0.036956223
0.036516755
0.036727771
0.036702427
0.036880755
0.036361545
0.03654884
0.036257604
0.036427361
0.036119056
0.03632333
0.036071183
0.036270236
0.036313284
0.036585046
0.036835192
0.037106811
0.037513161
0.037774515
0.037565283
0.037772638
0.037703768
0.0379343
0.037663982
0.037844999
0.037667178
0.03789298
0.037701843
0.037898931
0.037772048
0.038026616
0.038144005
0.038389964
0.038550072
0.038831128
0.038913462
0.039161862
0.039264065
0.039527936
0.039501678
0.039719957
0.039634925
0.039869934
0.039627489
0.039943869
0.040948686
0.041354325
0.041446561
0.041737669
0.041900532
0.04226484
0.042503769
0.042877546
0.04355701
0.04399928
0.044544029
0.044943351
0.045476822
0.045852565
0.045482848
0.04578951
0.046451209
0.046899474
0.04672203
0.047086037
0.047308829
0.047698401
0.047222223
0.047239745
0.043916362
0.043635647
0.04224223
0.041950206
0.035251001
0.033763571
0.024046412
0.021586071
0.017016808
0.016025627
0.014343173
0.014976248
0.01524633
0.015651534
0.015224758
0.014836455
0.01441293
0.014197864
0.013157631
0.013882532
0.014645866
0.013471818
0.014027518
0.015307068
0.015974209
0.021007714
0.023842183
0.032622339
0.034278025
0.040326911
0.040723941
0.042216943
0.042580006
0.045746319
0.045791849
0.046146758
0.045805089
0.045635392
0.045227484
0.045480822
0.045031
0.044353388
0.044108928
0.044447771
0.044073934
0.043600604
0.043227504
0.042721046
0.042183193
0.041602938
0.041216217
0.041090856
0.040719118
0.040486173
0.040261742
0.040104914
0.039752318
0.038728356
0.038485896
0.038646644
0.038487449
0.038501312
0.038365484
0.038330587
0.038144157
0.038044693
0.037771744
0.037770767
0.037441724
0.037333286
0.037048582
0.036967606
0.036671846
0.036836277
0.036618364
0.036836252
0.036578862
0.036786178
0.036577704
0.036859591
0.036602632
0.036683919
0.036488655
0.036725524
0.036393216
0.03606168
0.035749468
0.03553918
0.035226292
0.035243057
0.035030188
0.035303886
0.035062829
0.03540181
0.035209404
0.035509845
0.035306079
0.035833797
0.0356479
0.035694111
0.03546134
0.03590265
0.035762348
0.036368428
0.036151831
0.036368847
0.036196376
0.036741627
0.036481618
0.03650819
0.036276492
0.036531673
0.03634612
0.036547936
0.036475426
0.036689561
0.036369967
0.036053638
0.035761579
0.035909494
0.035693614
0.035507472
0.03521643
0.035083644
0.034762703
0.034652122
0.034504417
0.034837411
0.034687588
0.034533931
0.034439889
0.034792688
0.034648271
0.034500951
0.034435445
0.034797076
0.034547131
0.034761539
0.034548004
0.03481676
0.034645447
0.034805925
0.034715898
0.034787083
0.03461401
0.034196821
0.03394942
0.033541562
0.033191779
0.032384556
0.031293919
0.030071577
0.028811402
0.027979045
0.029009926
0.029293912
0.033139537
0.029763466
0.029081747
0.028105318
0.02901522
0.030390557
0.031644252
0.032754018
0.033186422
0.032149507
0.03100444
0.029842018
0.029074224
0.030169219
0.030857683
0.035054719
0.030824435
0.029823206
0.028840078
0.029713754
0.031061532
0.032302914
0.033405586
0.033804152
0.032706446
0.031504896
0.030326102
0.02960286
0.030604854
0.031561
0.036262154
0.031516339
0.030242699
0.029333519
0.030125055
0.031495418
0.032787086
0.033953075
0.033905739
0.032818069
0.031656327
0.030511184
0.029909382
0.030903361
0.032234659
0.037309765
0.031991494
0.030393967
0.029507049
0.030163609
0.031517121
0.03277904
0.033943931
0.033799518
0.032726935
0.0315641
0.030396673
0.029928428
0.030881488
0.032542557
0.038137814
0.032327832
0.030416926
0.029601473
0.030157146
0.031543245
0.032809276
0.033964354
0.033708262
0.032638758
0.031526431
0.030382994
0.030080681
0.031067177
0.033135624
0.039154202
0.032786469
0.030586709
0.029785132
0.030128246
0.031502235
0.032742882
0.033916066
0.033700395
0.032612048
0.031465785
0.030334643
0.030224957
0.031146675
0.033371695
0.039826278
0.033028935
0.030766998
0.029996833
0.030143582
0.031524068
0.032820957
0.033986968
0.033657345
0.032582742
0.031442766
0.030299566
0.030365705
0.031236639
0.033443495
0.040067117
0.032851574
0.030607156
0.029880533
0.029923651
0.031290392
0.032544873
0.033689977
0.033858445
0.032800759
0.031661945
0.03049317
0.03059849
0.031447176
0.033631058
0.040341696
0.033128536
0.030891374
0.030169207
0.030195785
0.031575261
0.032836962
0.033968508
0.033646313
0.032597912
0.031481711
0.030380237
0.030509694
0.031359024
0.033565603
0.040307597
0.033038625
0.030768251
0.030045569
0.03004277
0.031317695
0.032540549
0.033694655
0.03386366
0.03278066
0.0316409
0.030528663
0.030629298
0.031459073
0.033640954
0.040546569
0.033235316
0.030955289
0.030226089
0.030226606
0.031566678
0.032823107
0.03398671
0.033736524
0.032702654
0.0315966
0.030480159
0.030594552
0.031442704
0.033660381
0.040649613
0.033241935
0.030931717
0.030186702
0.030179872
0.03147228
0.032692516
0.03382136
0.033987285
0.032935805
0.03179722
0.030669476
0.030785648
0.031644878
0.033886089
0.041078771
0.033666042
0.031308353
0.030534621
0.030521469
0.031886569
0.033156766
0.0343022
0.034388832
0.033316089
0.03216883
0.030988112
0.031105873
0.031978979
0.034242362
0.04142978
0.033930046
0.031598568
0.030834304
0.030841657
0.032227632
0.033490376
0.034655579
0.034854443
0.033780107
0.032631755
0.031462683
0.031547009
0.032398009
0.03463002
0.041835224
0.034329216
0.031977912
0.031213624
0.031236661
0.032607744
0.033882879
0.035050377
0.034971987
0.033892265
0.032711853
0.031522834
0.031610712
0.032463689
0.034734941
0.041825867
0.03418967
0.031911973
0.031171464
0.031228219
0.032660391
0.034003822
0.035198339
0.035457452
0.034304992
0.033099351
0.031898849
0.03197028
0.032822943
0.035163602
0.042460629
0.034850624
0.032538281
0.031788712
0.031834817
0.033236098
0.0345487
0.035792546
0.035601746
0.034459499
0.033270192
0.032085939
0.032154677
0.032995742
0.035335095
0.042394101
0.034639832
0.032332936
0.031587937
0.031638706
0.033056312
0.034390065
0.035632323
0.035503631
0.034382734
0.033166183
0.031959852
0.032039367
0.032903616
0.035280322
0.042377891
0.034591508
0.032290823
0.031549944