/*--------------------------------*- C++ -*----------------------------------*\
| =========                 |                                                 |
| \\      /  F ield         | OpenFOAM: The Open Source CFD Toolbox           |
|  \\    /   O peration     | Version:  v2012                                 |
|   \\  /    A nd           | Website:  www.openfoam.com                      |
|    \\/     M anipulation  |                                                 |
\*---------------------------------------------------------------------------*/
FoamFile
{
    version     2.0;
    format      ascii;
    class       volScalarField;
    location    "100";
    object      omega;
}
// * * * * * * * * * * * * * * * * * * * * * * * * * * * * * * * * * * * * * //

dimensions      [0 0 -1 0 0 0 0];


internalField   nonuniform List<scalar> 
49454
(
35.725055
35.71026
35.717793
35.698051
35.507209
35.49414
35.466286
35.342315
35.253299
35.185388
35.12594
35.07362
35.030704
34.991241
34.947887
34.89502
34.702253
33.783267
33.559559
33.486313
33.523458
33.571102
33.620421
33.535782
33.574768
33.608951
33.569879
33.539944
33.530038
33.532845
33.543274
33.56245
33.573113
33.634849
33.72726
33.825095
33.987981
33.796556
32.990348
32.992975
33.077003
33.180803
33.291882
33.254944
33.346659
33.454538
33.509266
33.572274
33.636453
33.696196
33.88398
34.677587
56.172961
58.22972
53.964302
52.135268
50.596606
46.329313
40.499228
39.025419
38.186509
37.517513
36.882365
36.270972
35.672838
35.093524
34.534416
33.99689
33.480675
32.984851
32.508219
32.04955
31.607665
31.181473
30.769955
12.188184
12.020467
11.85582
11.693128
11.536004
11.380796
11.229128
11.081299
10.937335
10.796521
10.659002
10.526625
10.399498
10.277719
10.16173
10.051753
9.9475754
9.8500439
9.7590585
9.6744787
9.5978267
9.5275947
9.4644784
9.4085071
9.3591353
9.3167985
9.2824814
9.255295
9.2345482
9.2394937
9.2523032
9.2711103
9.2960721
9.3272505
9.3647246
9.4084844
9.4585404
9.5148173
9.5772762
9.6457923
9.7202658
9.8005192
9.8864166
9.977749
10.07435
10.175984
10.282458
10.393514
10.508933
10.628437
10.751782
10.87867
11.008829
11.141937
11.277695
11.415843
11.556238
11.551577
11.403779
11.259595
11.118656
10.9812
10.847473
10.717719
10.59217
10.471058
10.354604
10.243024
10.136525
10.03531
9.9395692
9.849484
9.7652297
9.68695
9.6147363
9.548865
9.4893959
9.4363645
9.3898174
9.3497659
9.3161613
9.2889856
9.2680941
9.2527868
9.2490659
9.2624357
9.2818794
9.3075556
9.3395567
9.3779731
9.4228039
9.4740372
9.5316084
9.5954708
9.6655693
9.7414635
9.8231261
9.9102982
10.002797
10.10043
10.202983
10.310237
10.421955
10.537886
10.657765
10.78132
10.908264
11.038298
11.171109
11.306399
11.444043
11.573481
11.422241
11.274963
11.131258
10.991364
10.855501
10.723916
10.596861
10.474457
10.357011
10.244664
10.13763
10.036091
9.9401579
9.8493652
9.7647403
9.6861328
9.6132132
9.5468888
9.4871859
9.4341026
9.3877465
9.3480431
9.3149983
9.2885382
9.2685238
9.2544774
9.2573634
9.2690509
9.2869448
9.3112523
9.342065
9.3794603
9.4229997
9.4731553
9.529576
9.5926669
9.6625092
9.7379154
9.8194587
9.9064478
9.9992007
10.097834
10.201851
10.31111
10.425287
10.544096
10.666463
10.792904
10.923505
11.05769
11.195057
11.335321
11.478168
11.6576
11.498815
11.343439
11.192065
11.045021
10.902552
10.764881
10.632544
10.505528
10.383634
10.268832
10.159977
10.056972
9.9599914
9.8683431
9.7830797
9.704074
9.6309091
9.5645966
9.5050722
9.4524123
9.4066521
9.367689
9.3356066
9.3103269
9.2916537
9.2789656
9.3028352
9.3140414
9.3314473
9.3552829
9.3856892
9.4227968
9.4665743
9.5170342
9.574147
9.6379309
9.7082131
9.7840525
9.8660958
9.9536588
10.047157
10.146798
10.25209
10.362894
10.478929
10.599895
10.724658
10.853744
10.987278
11.124588
11.265268
11.408949
11.55524
11.75621
11.594938
11.437921
11.284814
11.135928
10.991558
10.851988
10.717521
10.588341
10.464775
10.347278
10.235883
10.130264
10.031993
9.9396324
9.8539059
9.7747004
9.7011357
9.6353269
9.5765085
9.5244243
9.4788364
9.4396168
9.4072602
9.3816578
9.3626187
9.3496954
9.4039411
9.4159349
9.4341361
9.4587676
9.4899629
9.5278321
9.572287
9.623374
9.6810344
9.7452816
9.8161013
9.8925163
9.9751571
10.063321
10.157058
10.256621
10.361407
10.471892
10.588045
10.709317
10.835346
10.965778
11.09933
11.236461
11.377218
11.520936
11.667216
11.901745
11.742111
11.585643
11.432909
11.28447
11.140509
11.001179
10.867371
10.739103
10.615953
10.500019
10.390027
10.285925
10.187857
10.095133
10.008834
9.9288195
9.8546285
9.7872332
9.726671
9.672841
9.6259772
9.5859173
9.5527067
9.5262216
9.5062634
9.4923829
9.6109683
9.6236364
9.6424081
9.6675117
9.6991141
9.7372705
9.7815403
9.8323845
9.8894292
9.9530872
10.023433
10.099274
10.181309
10.26885
10.362354
10.461894
10.566965
10.677369
10.792962
10.913411
11.03843
11.167707
11.300875
11.437561
11.577356
11.718902
11.862344
12.121367
11.96731
11.816586
11.670128
11.527802
11.389768
11.256264
11.127625
11.004079
10.885798
10.77309
10.666113
10.564299
10.468806
10.379093
10.295793
10.218721
10.147378
10.082749
10.024688
9.9732824
9.9285649
9.8905158
9.8591566
9.8343547
9.8158741
9.8032232
10.105958
10.112736
10.125238
10.143839
10.1688
10.200316
10.23842
10.283092
10.334199
10.391628
10.45526
10.524238
10.599187
10.679584
10.765893
10.858193
10.955252
11.057577
11.165285
11.277832
11.394875
11.516172
11.641282
11.76989
11.901583
12.035107
12.170985
12.577461
12.435983
12.298034
12.163333
12.032872
11.906328
11.785913
11.670524
11.560157
11.455061
11.355135
11.260501
11.171683
11.090076
11.014444
10.945216
10.882195
10.82497
10.774335
10.730589
10.693996
10.664796
10.642983
10.628395
10.62061
10.619122
10.623126
10.632137
10.64579
11.565583
11.525077
11.489258
11.458316
11.432776
11.413748
11.402453
11.399831
11.406358
11.421881
11.445775
11.477001
11.514746
11.558038
11.607395
11.66244
11.723678
11.791378
11.86503
11.94438
12.029079
12.118832
12.213268
12.312059
12.414891
12.521366
12.63104
12.742723
12.856816
13.672537
13.566797
13.464681
13.365741
13.271056
13.181029
13.096055
13.016486
12.942635
12.874908
12.813723
12.75932
12.71157
12.671404
12.637786
12.610768
12.589761
12.575114
12.567835
12.570556
12.586275
12.616665
12.661894
12.720782
12.790949
12.86914
12.952359
13.040866
13.137365
15.790325
15.577608
15.388307
15.20587
15.021561
14.846653
14.692195
14.563122
14.461921
14.390237
14.345014
14.317435
14.294893
14.275106
14.259811
14.250244
14.247433
14.251755
14.263017
14.281104
14.305684
14.336358
14.372146
14.413044
14.458863
14.508934
14.562733
14.619222
14.678494
16.719033
16.691514
16.668234
16.649222
16.635507
16.62768
16.626386
16.632212
16.645741
16.667566
16.698192
16.737812
16.786346
16.844759
16.912951
16.991403
17.074866
17.151886
17.137983
17.225601
17.382689
17.610648
17.89991
18.2514
18.676994
19.110971
19.407945
19.740482
20.171081
20.684092
22.649457
22.014343
22.055103
21.453578
21.50641
20.997956
21.065869
20.641969
20.728768
20.589938
22.124463
24.853614
25.508665
22.364483
21.921401
21.572257
21.254333
20.977845
20.8124
20.811167
20.853011
20.705189
20.516192
20.348157
20.200707
20.067031
19.943345
19.828433
19.722326
19.624711
19.535613
19.454314
19.380398
19.313279
19.252118
19.196226
19.144626
19.097003
22.152529
22.260053
22.37106
22.486026
22.605593
22.730091
22.860623
22.997247
23.140329
23.289891
23.445329
23.606
23.770976
23.942415
24.130324
24.361227
24.672504
27.021297
30.152955
35.793279
37.371617
37.862279
37.966314
42.1069
47.067397
37.982248
34.874073
33.883314
33.370227
33.223086
33.129423
33.093347
33.244153
33.082589
32.6412
32.718362
33.195359
33.044193
32.756598
31.055876
31.430332
31.614769
32.863039
33.189415
33.189305
33.166883
33.108789
33.074902
33.063442
33.07131
33.10427
33.169198
33.395636
33.278222
32.872008
33.017065
33.552106
33.446081
33.22099
31.335975
31.741637
31.953572
32.328703
33.964876
34.372217
34.425477
34.429983
34.44286
34.466485
34.510743
34.572982
34.669974
34.805522
35.130806
35.049172
34.600966
34.842048
35.556338
35.493234
35.272728
32.956153
33.698134
9.1666407
9.181719
9.2034434
9.2319663
9.2672445
9.3094774
9.3586179
9.4146603
9.4773657
9.5467544
9.6224905
9.704565
9.7926021
9.8865538
9.9860113
10.090905
10.200945
10.315882
10.435434
10.55928
10.686933
10.818162
10.952449
11.089533
11.2289
11.370245
11.513041
11.65696
11.801602
12.120229
12.278111
12.260148
12.279683
12.268206
12.114731
12.143385
12.094296
12.104486
12.087106
12.102699
11.954155
11.791753
11.930097
11.917157
11.932062
11.923614
11.968712
11.942927
11.9369
11.959959
11.999424
11.99207
12.026676
12.02036
12.064634
12.021314
12.005316
12.010895
11.98487
12.019537
12.054005
12.079688
12.108073
12.09597
12.089541
12.051271
12.079544
12.066654
12.08727
12.069499
12.05241
11.99314
11.970143
11.915231
11.819411
11.670666
11.516304
11.657436
11.749178
11.802284
11.825266
11.883394
11.897149
11.913643
11.909767
11.926753
11.955715
11.935929
11.956075
11.947492
11.9518
11.91288
11.906759
11.92852
11.944424
11.918674
11.902287
11.8957
11.907483
11.881905
11.917558
11.924753
11.936148
11.907323
11.88492
11.850366
11.814941
11.841573
11.835798
11.849536
11.891942
11.848767
11.856888
11.822156
11.827299
11.790808
11.770168
11.774554
11.797364
11.755224
11.76234
11.749404
11.760199
11.630402
11.472891
11.593301
11.584891
11.595596
11.590187
11.629044
11.609439
11.605379
11.625454
11.660872
11.655931
11.68931
11.68218
11.721557
11.682857
11.668379
11.676057
11.650476
11.683335
11.719222
11.738519
11.767071
11.757109
11.74881
11.716275
11.740976
11.726916
11.734432
11.751218
11.773229
11.760172
11.738997
11.745449
11.781048
11.777926
11.785118
11.767379
11.784977
11.75879
11.741586
11.744193
11.729488
11.717952
11.661092
11.638348
11.587161
11.499494
11.365034
11.218108
11.345237
11.428884
11.478042
11.500564
11.555978
11.565779
11.578154
11.577742
11.594341
11.617743
11.602651
11.617707
11.612301
11.613858
11.581894
11.574475
11.595237
11.606585
11.58723
11.570916
11.56188
11.5781
11.553266
11.583898
11.592186
11.600061
11.572568
11.556886
11.519669
11.49001
11.513665
11.504932
11.519289
11.554648
11.518456
11.52391
11.492609
11.498324
11.463033
11.444894
11.447244
11.464206
11.4281
11.432333
11.423239
11.429808
11.317057
11.165719
11.27
11.265462
11.272794
11.27003
11.303099
11.288968
11.288048
11.302787
11.337826
11.333222
11.362061
11.358627
11.391362
11.359708
11.345272
11.353538
11.333032
11.359498
11.396579
11.411794
11.436449
11.431036
11.422669
11.394405
11.41842
11.400664
11.410393
11.42706
11.443825
11.434216
11.415558
11.420938
11.45199
11.449349
11.455605
11.44052
11.455906
11.433733
11.416897
11.415807
11.405711
11.397527
11.343829
11.32162
11.274614
11.194876
11.074137
10.93498
11.048697
11.124586
11.1694
11.189759
11.242893
11.248677
11.257464
11.25927
11.276561
11.297826
11.281991
11.297247
11.29009
11.293865
11.26359
11.261136
11.27723
11.284439
11.270253
11.252616
11.243078
11.26165
11.239799
11.264723
11.273138
11.277179
11.254388
11.240986
11.203401
11.178806
11.197835
11.189021
11.203795
11.232276
11.202353
11.204266
11.177425
11.181874
11.146818
11.13509
11.134074
11.146099
11.115371
11.117223
11.110976
11.114205
11.0165
10.872514
10.962716
10.961068
10.966322
10.96534
10.993462
10.983651
10.986053
10.995318
11.029787
11.0261
11.050686
11.050472
11.077473
11.05238
11.039123
11.046567
11.029724
11.051416
11.089332
11.101367
11.122109
11.119581
11.112677
11.08906
11.107738
11.091357
11.09909
11.117862
11.131232
11.12333
11.10923
11.112127
11.138823
11.136865
11.141976
11.129436
11.142656
11.12401
11.106166
11.103598
11.096482
11.092284
11.040937
11.021565
10.978996
10.906905
10.799253
10.668786
10.769774
10.838165
10.878548
10.897024
10.945275
10.948636
10.954476
10.957003
10.975479
10.99256
10.981141
10.991391
10.987942
10.988447
10.964741
10.962462
10.973239
10.983016
10.969356
10.950054
10.944032
10.958324
10.941703
10.965437
10.97041
10.971137
10.95271
10.940198
10.904301
10.885627
10.899509
10.894185
10.905208
10.927493
10.902757
10.901852
10.878896
10.88118
10.847956
10.84143
10.837745
10.845628
10.81989
10.820268
10.815459
10.815909
10.731655
10.594865
10.673817
10.673209
10.678316
10.678192
10.702545
10.695621
10.700402
10.707171
10.737476
10.736835
10.757722
10.760107
10.782259
10.763062
10.753712
10.758681
10.746138
10.76219
10.79782
10.807727
10.826608
10.82474
10.821623
10.799172
10.813655
10.801772
10.806168
10.825782
10.838341
10.830044
10.820517
10.822338
10.842863
10.84414
10.845609
10.837948
10.847603
10.832084
10.814629
10.810395
10.806238
10.801775
10.757927
10.740464
10.702317
10.637471
10.542203
10.421285
10.510256
10.571632
10.607577
10.624047
10.663559
10.668549
10.671635
10.677826
10.693709
10.707234
10.699442
10.705385
10.704958
10.70281
10.68432
10.682548
10.692125
10.697654
10.686925
10.667739
10.664324
10.674223
10.661247
10.68164
10.683698
10.687005
10.667517
10.660936
10.62495
10.611728
10.622622
10.618212
10.625665
10.642636
10.622047
10.619133
10.599417
10.599349
10.571054
10.56336
10.558347
10.56492
10.541415
10.543372
10.536577
10.537105
10.462631
10.336692
10.405853
10.405637
10.413408
10.411713
10.432849
10.428218
10.431641
10.440523
10.466725
10.467548
10.485932
10.489472
10.508441
10.493667
10.487464
10.490295
10.482381
10.494364
10.528127
10.534186
10.551378
10.549583
10.546893
10.528924
10.540077
10.532513
10.533808
10.552075
10.562209
10.559114
10.548374
10.551709
10.56825
10.571407
10.570693
10.566539
10.574108
10.559536
10.545185
10.538324
10.537201
10.530776
10.495467
10.480065
10.446253
10.388291
10.304694
10.194136
10.271825
10.326476
10.358172
10.372549
10.403815
10.412094
10.411018
10.41735
10.430531
10.447064
10.4388
10.441267
10.443395
10.438965
10.424597
10.419933
10.430848
10.43286
10.423448
10.407571
10.405981
10.411645
10.401854
10.418058
10.420718
10.421704
10.406121
10.39979
10.36889
10.358655
10.363674
10.36213
10.366929
10.379551
10.362422
10.358019
10.341243
10.339448
10.315578
10.306032
10.303632
10.306453
10.287294
10.287758
10.279989
10.280485
10.215172
10.101746
10.161243
10.161749
10.167973
10.168973
10.185908
10.185166
10.186463
10.195581
10.219404
10.219725
10.23725
10.240111
10.257857
10.245983
10.241344
10.242816
10.239377
10.249385
10.277124
10.284167
10.297956
10.297926
10.295036
10.280898
10.288968
10.285496
10.287249
10.300651
10.30948
10.307045
10.297316
10.302371
10.31696
10.320216
10.319099
10.316884
10.324597
10.309064
10.29575
10.289956
10.292852
10.282799
10.25535
10.24206
10.212496
10.160993
10.088327
9.9888804
10.056035
10.104416
10.131949
10.144202
10.167966
10.178574
10.174804
10.17974
10.193227
10.207279
10.200384
10.203048
10.202812
10.200896
10.185936
10.180516
10.189775
10.191857
10.183504
10.172213
10.170644
10.172452
10.165664
10.177714
10.181093
10.179834
10.167936
10.160819
10.135552
10.126382
10.127727
10.125497
10.130729
10.142103
10.123602
10.122427
10.10404
10.105335
10.081454
10.072567
10.072497
10.071533
10.05641
10.054266
10.04943
10.048048
9.9931789
9.891707
9.9411372
9.9435603
9.946821
9.9503292
9.9634471
9.9663359
9.9667421
9.9749532
9.9963901
9.9958443
10.012683
10.014556
10.031356
10.021786
10.015727
10.020158
10.019076
10.027991
10.050811
10.058098
10.069417
10.069436
10.067827
10.056735
10.062006
10.062021
10.062388
10.074128
10.082325
10.079129
10.071354
10.077106
10.089892
10.092944
10.092299
10.090247
10.096257
10.083877
10.071768
10.067431
10.071138
10.059351
10.039104
10.027979
10.002317
9.9570207
9.894576
9.8069158
9.8642693
9.9065324
9.9303584
9.9405142
9.9575268
9.9704636
9.9661563
9.9705874
9.9808899
9.9913506
9.9865684
9.9875142
9.9892058
9.9855653
9.97455
9.9686973
9.9747281
9.9797621
9.9709772
9.9585136
9.9593825
9.9583296
9.9539606
9.9642131
9.9639181
9.9659171
9.9544171
9.9468212
9.9264138
9.9183989
9.9187262
9.9127097
9.9192511
9.9271336
9.9118918
9.9094322
9.8940369
9.8939314
9.8748068
9.8677848
9.8663475
9.8619454
9.8504455
9.8459411
9.8438695
9.8407591
9.7954643
9.706613
9.7470151
9.7509684
9.7516769
9.7573856
9.7670521
9.7730252
9.7751621
9.7813634
9.7980446
9.7990135
9.8127502
9.8159982
9.829512
9.8234949
9.8163723
9.8239076
9.8235431
9.8314595
9.8507504
9.8572402
9.8679571
9.866278
9.8660057
9.8577584
9.8613256
9.8634601
9.8626731
9.8730778
9.8824892
9.8782498
9.8717078
9.8786632
9.8879862
9.8922717
9.8908345
9.8886113
9.8942929
9.8834976
9.8756298
9.8717309
9.8761036
9.8624765
9.8483557
9.8391983
9.8170828
9.7778274
9.7247569
9.6494275
9.6969944
9.7340622
9.7546487
9.762875
9.7739816
9.7876973
9.7841896
9.7868635
9.7926177
9.8039727
9.7971781
9.8014369
9.8019064
9.7968485
9.7891801
9.7810231
9.7882885
9.7922327
9.7820624
9.7739654
9.7740768
9.7707618
9.7681132
9.7745799
9.7751971
9.7758938
9.7664916
9.7618466
9.7428739
9.7358409
9.7356623
9.7265659
9.7344263
9.7389035
9.7267824
9.7230344
9.7106634
9.7090947
9.6943894
9.689264
9.686109
9.6792346
9.6708232
9.6644933
9.6645559
9.6603085
9.6233777
9.5477694
9.5806895
9.5852471
9.5843895
9.59139
9.5984767
9.6061381
9.6099669
9.6143916
9.6270509
9.6294051
9.6402485
9.6446454
9.6551876
9.6524408
9.6449664
9.6532545
9.655034
9.6610771
9.6787886
9.6828555
9.6907456
9.6912748
9.6899856
9.6854966
9.6883384
9.6903695
9.6918386
9.6980679
9.7085516
9.7053547
9.6985847
9.7067057
9.7139246
9.7172564
9.7178219
9.7138809
9.719678
9.7099164
9.7041387
9.7033451
9.705193
9.6934568
9.6840479
9.6767761
9.6577362
9.6231822
9.5799529
9.5176263
9.5563776
9.5881863
9.6057405
9.6120419
9.6198169
9.6296049
9.6287177
9.6280373
9.634219
9.6424624
9.6374439
9.6414878
9.6397502
9.6384225
9.6312045
9.6235293
9.629028
9.6309717
9.6207831
9.616702
9.6137583
9.6133239
9.6096288
9.6127084
9.6141821
9.6129469
9.6061003
9.6019499
9.5858838
9.5812826
9.5779359
9.5709265
9.5773509
9.5789062
9.5695158
9.5647308
9.5551465
9.5522221
9.5411695
9.5376313
9.5331563
9.524661
9.5190392
9.5112511
9.513017
9.507985
9.4784353
9.4161101
9.4434399
9.4472754
9.4462913
9.4531908
9.4589988
9.4664932
9.4721402
9.4751363
9.4845667
9.4882073
9.4963838
9.5017087
9.5099357
9.5094742
9.5039039
9.5096962
9.5136683
9.5179734
9.5322947
9.5367829
9.5424733
9.5445219
9.5426415
9.5410815
9.5451493
9.5442926
9.5479315
9.551823
9.5606137
9.5599719
9.5554037
9.5619347
9.5698262
9.5695192
9.5720614
9.5682826
9.5724134
9.5658551
9.5602912
9.5613003
9.5611403
9.5533189
9.5468663
9.5414566
9.5253708
9.4963303
9.4613922
9.412248
9.4431582
9.4690569
9.4841275
9.488666
9.493784
9.5001055
9.5008703
9.5000968
9.5045702
9.5097364
9.5061045
9.5090804
9.5062467
9.5078893
9.4995732
9.4945612
9.4979956
9.4975722
9.4899562
9.4855535
9.4817256
9.4836001
9.4799339
9.4797623
9.482085
9.4791727
9.4745608
9.4699746
9.4570926
9.4534533
9.4487242
9.4441998
9.4488214
9.4481405
9.4410567
9.435607
9.4285015
9.424348
9.4161142
9.4133123
9.4067984
9.4006155
9.394386
9.3886064
9.3885793
9.3861333
9.3601309
9.3127753
9.3355123
9.3381651
9.3377164
9.3438687
9.3489143
9.3553397
9.3610113
9.3643962
9.3714305
9.3762224
9.3822291
9.3878636
9.3945955
9.3946557
9.3916795
9.3952195
9.4003161
9.40367
9.4149429
9.4197662
9.4241317
9.4262612
9.4249134
9.4258725
9.428518
9.4272914
9.4307031
9.4356017
9.4417957
9.4426106
9.4401554
9.4454001
9.4525335
9.4512825
9.4535107
9.45146
9.4544167
9.4506949
9.4469682
9.4477295
9.446427
9.4414848
9.4373109
9.4337881
9.4191562
9.3967942
9.36933
9.3334068
9.3574216
9.3760613
9.389929
9.3930128
9.3961985
9.3999359
9.4016662
9.4010524
9.4039105
9.4065355
9.4039971
9.4053673
9.4036296
9.4045031
9.398413
9.3934104
9.3948832
9.3937009
9.3887821
9.3835171
9.3805278
9.3808242
9.378842
9.3775609
9.3781049
9.3770101
9.3725044
9.3675421
9.357656
9.3541678
9.349257
9.3467571
9.3481384
9.3489639
9.3421802
9.336207
9.3311759
9.3261049
9.3198657
9.3160575
9.3112555
9.3046034
9.3007265
9.2943048
9.2951596
9.2922321
9.2721496
9.238394
9.2561395
9.2587773
9.2579768
9.2642193
9.2675849
9.2738165
9.2783654
9.2827394
9.2883538
9.2936556
9.2983254
9.3031817
9.309953
9.3088383
9.3083515
9.3103249
9.3152812
9.3181179
9.3273314
9.331846
9.3365388
9.3372293
9.3367738
9.338285
9.3402784
9.3403287
9.343255
9.3482123
9.3527107
9.3540478
9.3542218
9.3588843
9.3638286
9.3633536
9.3645314
9.363942
9.3660601
9.3643963
9.3621706
9.3622361
9.3613628
9.3581073
9.3553037
9.3532321
9.3407979
9.3248528
9.3037057
9.2808058
9.2991852
9.3128999
9.3235453
9.3243447
9.3271407
9.3301435
9.330053
9.3305735
9.332216
9.3331256
9.3312988
9.3312519
9.3304094
9.3305469
9.3262119
9.3216345
9.2711426
9.2676218
9.2631855
9.2574836
9.2529472
9.2481426
9.2438851
9.238141
9.2352241
9.2298381
9.2299478
9.227495
9.2115161
9.1919525
9.2058681
9.208252
9.2085314
9.2132097
9.2156095
9.2210357
9.2249087
9.2295195
9.3040941
9.3040029
9.3050728
9.3051992
9.3070471
9.3064907
9.3054916
9.3048496
9.305426
9.302628
9.3003378
9.3001503
9.2911416
9.2794896
9.2634844
9.2665824
9.2830863
9.3057493
9.3347889
9.3702548
9.4123
9.4608333
9.5158611
9.5772881
9.6452075
9.719237
9.7990646
9.8845952
9.975678
10.072072
10.17361
10.280013
10.391091
10.506536
10.626119
10.749508
10.876452
11.006601
11.139662
11.275258
11.413091
11.553024
28.685421
29.094751
29.518783
29.958101
30.413681
30.886138
31.37614
31.884361
32.411615
32.957455
33.521247
34.101654
34.69857
35.315305
35.977266
36.779133
38.062464
40.374864
43.102443
44.103455
43.3432
42.492192
31.575517
30.550424
30.467807
30.398702
30.331874
30.28858
30.249658
29.790439
29.733089
29.5271
29.480651
29.26575
29.227988
29.179458
29.152367
29.091521
29.066494
29.080682
29.057118
29.034241
29.011756
29.080901
29.063167
29.058467
29.033731
29.067622
29.043522
29.025164
29.005601
29.101172
29.080394
29.05698
29.028193
29.027299
28.997474
28.91496
28.873056
28.803244
28.759757
28.622131
28.584154
28.601717
28.582333
28.640609
28.623302
28.672486
28.650548
28.679346
28.663095
28.785903
28.773981
28.844932
28.833156
28.990866
28.983534
29.072533
29.053774
29.104374
29.090928
29.223589
29.213599
29.307588
29.293818
29.398566
29.385502
29.492147
29.474523
29.513587
29.487964
29.483878
29.456946
29.459519
29.435419
29.534413
29.525863
29.646707
29.636102
29.761112
29.746516
29.838517
29.821014
29.887724
29.868312
29.915727
29.893784
29.927174
29.902627
29.911238
29.882204
29.853774
29.826444
29.852889
29.833511
29.893714
29.879083
29.963722
29.949732
30.020349
29.990373
29.904413
29.870589
29.927375
29.908576
29.981458
29.961246
30.010597
29.988376
29.969594
29.934527
29.926522
29.896936
29.915227
29.894825
30.024539
30.015904
30.114838
30.109375
30.291032
30.310609
30.617439
30.665993
31.126976
31.260299
32.503898
32.772231
33.871553
34.13653
35.874137
36.324694
38.290682
38.793388
39.730496
39.802385
40.70155
40.874861
41.222888
41.458717
41.377436
41.167081
40.831625
40.600436
40.371879
39.719903
39.614673
40.410228
40.460698
39.843639
39.586898
38.588527
37.994276
36.199222
35.695837
34.112038
33.804498
32.776741
32.473896
31.301938
31.13024
30.702863
30.637943
30.353828
30.336796
30.160998
30.159777
30.071721
30.062755
29.935025
29.954229
29.941907
29.974685
29.984069
30.016029
30.02125
30.057923
30.025964
30.043159
29.968598
29.970976
29.923725
29.950272
30.03935
30.059245
29.99638
29.998693
29.922651
29.926615
29.880098
29.893424
29.875106
29.908745
29.934659
29.965232
29.950397
29.974849
29.940205
29.965227
29.918049
29.940939
29.879008
29.901067
29.809417
29.823291
29.699971
29.71115
29.596865
29.614031
29.511945
29.527004
29.515659
29.542346
29.542845
29.572596
29.535289
29.557981
29.44844
29.460685
29.355604
29.369592
29.278445
29.289229
29.159506
29.173837
29.124617
29.14592
29.060156
29.068157
28.913023
28.923032
28.850929
28.85974
28.735487
28.750986
28.718598
28.741342
28.691485
28.705055
28.656029
28.667582
28.656672
28.701513
28.83476
28.877504
28.941312
28.981251
29.061522
29.097518
29.095645
29.13019
29.148893
29.162553
29.076551
29.087034
29.108502
29.121978
29.093352
29.110163
29.129807
29.15173
29.082422
29.101486
29.116119
29.137193
29.116669
29.144622
29.21004
29.229567
29.275102
29.310179
29.518377
29.571523
29.766602
29.828382
29.866634
29.939482
30.009562
30.093814
31.09573
41.63132
42.583424
42.142224
41.337476
40.594986
31.016318
30.027693
29.927599
29.862498
29.79724
29.609603
29.668985
29.729192
29.818925
30.744144
39.579803
40.519033
40.43994
39.605092
38.715207
30.7283
29.785928
29.676995
29.614777
29.555672
29.35636
29.420174
29.484781
29.590445
30.525471
37.76472
38.870264
39.12175
38.178016
37.03442
30.558919
29.590711
29.461216
29.389119
29.320474
29.272584
29.339274
29.405218
29.513913
30.461381
36.412723
37.707997
38.226809
37.187797
35.867605
30.522662
29.531879
29.404372
29.327551
29.251305
29.183967
29.26285
29.343479
29.446502
30.388117
35.306582
36.751693
37.494922
36.390534
34.905017
30.409868
29.477864
29.343487
29.248227
29.158967
29.180248
29.26049
29.348135
29.45642
30.374274
34.520216
36.073947
36.884159
35.721974
34.204862
30.460133
29.485926
29.348383
29.240909
29.158833
29.150465
29.228017
29.306687
29.424172
30.378875
33.865401
35.359738
36.18716
34.952334
33.598289
30.428473
29.453511
29.314966
29.227344
29.135821
29.209324
29.292129
29.373161
29.484807
30.406197
33.337328
34.601273
35.386094
34.227584
33.099331
30.423198
29.538651
29.397031
29.295282
29.195816
29.170219
29.269209
29.358521
29.466116
30.29932
32.811934
33.894813
34.563805
33.616203
32.629215
30.315659
29.517695
29.373884
29.266639
29.154402
29.176396
29.272173
29.367567
29.498007
30.24736
32.413342
33.347298
33.917586
33.144565
32.305745
30.287576
29.547138
29.376038
29.266915
29.166744
29.142407
29.236027
29.333131
29.474358
30.199607
32.113581
32.91301
33.412035
32.75088
32.012116
30.262781
29.520703
29.358661
29.242499
29.13666
29.212857
29.303729
29.405284
29.540415
30.266011
31.91757
32.614875
33.166939
32.517694
31.873373
30.338165
29.595732
29.421822
29.310369
29.209066
29.191493
29.284131
29.378242
29.513035
30.238457
31.704769
32.337609
32.939986
32.27707
31.661628
30.273177
29.531454
29.384347
29.275624
29.167047
29.163092
29.269969
29.374098
29.495739
30.221742
31.549027
32.1663
32.809761
32.141188
31.523403
30.268334
29.524576
29.365524
29.233757
29.114597
29.035252
29.143049
29.260468
29.405287
30.129661
31.338681
31.955101
32.594904
31.910133
31.296401
30.162239
29.423469
29.250677
29.130119
29.014592
28.952214
29.057113
29.160067
29.295848
30.0152
31.096176
31.719452
32.396867
31.701519
31.067836
30.045162
29.308161
29.137938
29.016964
28.901511
28.764999
28.873595
28.983073
29.12595
29.836481
30.836048
31.453984
32.128788
31.436275
30.80853
29.855244
29.130911
28.959493
28.832582
28.717332
28.727835
28.831001
28.943727
29.091733
29.797831
30.71036
31.336673
32.075694
31.38549
30.736394
29.862518
29.137294
28.964038
28.837259
28.723311
28.763438
28.861876
28.974812
29.124125
29.83149
30.669792
31.313125
32.081272
31.391335
30.716371
29.905853
29.174568
28.998709
28.868017
28.755476
28.799284
28.901134
29.015069
29.155885
29.864287
30.646167
31.311546
32.096286
31.396436
30.703697
29.933376
29.201638
29.021336
28.887577
28.779438
28.814413
28.917606
29.032768
29.185462
29.895624
30.642813
31.326933
32.100534
31.395329
30.695614
29.943552
29.210595
29.029888
28.904768
28.799471
28.922526
29.01631
29.120385
29.271318
29.98438
30.72475
31.414614
32.205246
31.513679
30.807826
30.050038
29.31203
29.133395
29.016314
28.915439
28.988068
29.081414
29.182251
29.329913
30.044838
30.783836
31.475164
32.277091
31.601061
30.895132
30.134777
29.394642
29.208205
29.080776
28.979729
29.132877
29.226227
29.335226
29.49222
30.213833
30.957478
31.644607
32.421847
31.747232
31.049647
30.294327
29.549291
29.353927
29.229292
29.127672
29.211887
29.305009
29.414152
29.583909
30.309537
31.051455
31.740686
32.5108
31.834481
31.139434
30.375211
29.626389
29.422364
29.287816
29.188049
29.233426
29.331059
29.437276
29.596187
30.323175
31.071872
31.770519
32.541424
31.855091
31.150649
30.381061
29.629511
29.455722
29.324942
29.215865
29.340084
29.438199
29.561262
29.690662
30.422171
31.176739
31.88384
32.672639
31.994134
31.291845
30.521153
29.766239
29.582743
29.434068
29.328548
29.416774
29.513311
29.631704
29.799386
30.53184
31.284914
31.987588
32.762286
32.065631
31.364031
30.595459
29.839658
29.635905
29.504812
29.40237
29.506982
29.603314
29.716413
29.883387
30.62075
31.380694
32.09132
32.868931
32.172046
31.464042
30.691321
29.932898
29.730347
29.595907
29.49576
29.605556
29.699084
29.812274
29.976845
30.715626
31.474232
32.171663
32.950278
32.25214
31.539306
30.763053
30.000155
29.817257
29.68635
29.583235
29.622622
29.728578
29.842416
29.983148
30.721392
31.477625
32.175759
32.946536
32.25177
31.541287
30.764937
30.003534
29.833369
29.701755
29.588775
29.587089
29.686601
29.800382
29.94034
30.67597
31.431386
32.126026
32.873254
32.178951
31.478897
30.715011
29.95987
29.784409
29.647893
29.55639
29.575259
29.664976
29.779671
29.928962
30.664009
31.414948
32.110543
32.874933
32.200411
31.499338
30.725219
29.966313
29.78922
29.665887
29.567827
29.677167
29.770127
29.869958
30.010805
30.749449
31.506348
32.207343
32.980826
32.316846
31.613287
30.836009
30.072896
29.888137
29.759331
29.655253
29.757566
29.851985
29.966019
30.119356
30.861432
31.622013
32.326655
33.088083
32.418053
31.71698
30.938727
30.171599
29.988233
29.847977
29.747297
29.870466
29.958227
30.073216
30.230397
30.976123
31.736886
32.438265
33.194465
32.525076
31.827121
31.051228
30.28232
30.079839
29.944999
29.856891
29.945839
30.027611
30.143507
30.315282
31.064671
31.8297
32.533873
33.264585
32.582487
31.88224
31.105858
30.336788
30.141591
30.012515
29.922241
29.983714
30.068516
30.168769
30.312267
31.056799
31.815975
32.505967
33.24814
32.575366
31.872692
31.098661
30.332175
30.166139
30.048257
29.958975
30.004594
30.08633
30.195927
30.337513
31.077749
31.829518
32.513158
33.256872
32.602765
31.90832
31.138376
30.375629
30.19752
30.06908
29.979821
30.016259
30.105333
30.202796
30.33663
31.076751
31.830471
32.511843
33.229174
32.567714
31.881047
31.120312
30.361201
30.198559
30.08133
29.986229
29.999503
30.090002
30.193044
30.328575
31.067211
31.812829
32.490157
33.205389
32.555855
31.878785
31.116662
30.357783
30.182657
30.057106
29.964977
29.94362
30.029824
30.136506
30.294335
31.027529
31.769431
32.446228