/*--------------------------------*- C++ -*----------------------------------*\
| =========                 |                                                 |
| \\      /  F ield         | OpenFOAM: The Open Source CFD Toolbox           |
|  \\    /   O peration     | Version:  v2012                                 |
|   \\  /    A nd           | Website:  www.openfoam.com                      |
|    \\/     M anipulation  |                                                 |
\*---------------------------------------------------------------------------*/
FoamFile
{
    version     2.0;
    format      ascii;
    class       surfaceScalarField;
    location    "100";
    object      phi;
}
// * * * * * * * * * * * * * * * * * * * * * * * * * * * * * * * * * * * * * //

dimensions      [0 3 -1 0 0 0 0];
oriented        oriented;


internalField   nonuniform List<scalar> 
144700
(
0.00074814032
0.00013356682
0.00021205602
0.00020103533
0.00032407375
0.00022303124
0.0001305864
4.9450016e-05
2.0998905e-05
0.00016389853
-1.3509293e-05
-1.9802835e-05
0.00021075515
-3.1356346e-05
-1.5500274e-05
0.00015206534
6.311476e-05
-4.4249522e-06
0.00016353615
-4.1543765e-06
-7.3164289e-06
0.00019241959
-2.9070009e-05
1.8657142e-07
0.00021548386
-2.0954151e-05
-2.1101202e-06
0.00022867208
-1.274922e-05
-4.389997e-07
0.00023508714
-7.6785228e-06
1.2634585e-06
0.00023603064
-4.241191e-06
3.2976941e-06
0.00023032152
-1.1870696e-06
6.8961886e-06
0.00021723312
-1.2665724e-07
1.3215058e-05
0.00020683237
-9.5460875e-06
1.9946834e-05
0.00024004027
-1.5654229e-05
-1.7553668e-05
0.00054082931
-0.00010254424
-0.0001982448
0.00095503505
-0.00024020773
-0.00017399801
0.0010402933
-9.0343306e-05
5.0850257e-06
0.00072057999
0.00012182062
0.00019789271
0.00019528431
0.00031068007
0.00021461561
0.00012616648
4.8795342e-05
2.0322486e-05
0.00015794756
-1.2623554e-05
-1.9157524e-05
0.00020219282
-2.9474087e-05
-1.4771173e-05
0.00014540015
6.1054172e-05
-4.2615034e-06
0.00015607217
-3.7872441e-06
-6.8847683e-06
0.00018362407
-2.7785767e-05
2.3386357e-07
0.00020569063
-2.0032273e-05
-2.0342855e-06
0.00021923975
-1.2733079e-05
-8.1603691e-07
0.00022721961
-8.2570802e-06
2.7721509e-07
0.00023045504
-4.7929637e-06
1.5575297e-06
0.00022661993
1.4786986e-07
3.6872418e-06
0.00020375855
1.7693764e-05
5.16762e-06
0.00011598309
8.4697672e-06
7.9305694e-05
0.00010615309
2.7840903e-06
7.0459091e-06
0.00010022102
-9.920802e-06
1.5852874e-05
0.00019126454
-7.6765904e-05
-1.4277623e-05
0.00047573808
-0.00012496577
-0.00015950777
0.00081957832
-0.00024325496
-0.00010058527
0.00062577553
6.8154187e-05
0.0001256486
0.00017023979
0.00026800907
0.00018752667
0.00011067069
4.211794e-05
1.7451164e-05
0.00014152502
-1.2501415e-05
-1.8352914e-05
0.0001835526
-2.842707e-05
-1.3600511e-05
0.00013225619
5.4835123e-05
-3.5387115e-06
0.00014178936
-3.8019897e-06
-5.7311818e-06
0.00016540085
-2.532725e-05
1.7157632e-06
0.00018176352
-1.7543331e-05
1.1806548e-06
0.00018605682
-9.6078951e-06
5.3145992e-06
0.00017879279
-4.9675996e-06
1.2231626e-05
0.00016756497
-9.5381058e-06
2.0765926e-05
0.00018368618
-1.389316e-05
-2.2280512e-06
0.00025400558
4.8480688e-05
-0.00011880009
0.00041878107
-0.0001312366
-3.3538889e-05
0.00071067704
-0.00015511439
-0.00013678158
0.00075665846
-7.4555207e-05
2.857379e-05
0.00086552338
-4.3100959e-05
-6.5763957e-05
0.001833315
-0.00030231764
-0.00066547395
0.0032245423
-0.00060664326
-0.00078458406
0.0036279047
-0.00012986768
-0.00027349469
0.0037310376
-1.0410299e-05
-9.2722617e-05
0.0037506855
1.4568822e-05
-3.4216716e-05
0.0037508423
1.6427131e-05
-1.6583973e-05
0.0037515404
1.264874e-05
-1.3346883e-05
0.0037543921
9.3360517e-06
-1.218769e-05
0.0037599753
6.7725234e-06
-1.2355698e-05
0.0037659217
5.6220392e-06
-1.1568459e-05
0.0037718295
4.9525321e-06
-1.0860365e-05
0.0037770629
4.6700784e-06
-9.9034989e-06
0.0037816109
4.4993653e-06
-9.0473095e-06
0.003785513
4.3696234e-06
-8.2716997e-06
0.0037888571
4.2416887e-06
-7.585805e-06
0.0037917376
4.1026524e-06
-6.9831758e-06
0.0037942194
3.9618748e-06
-6.4436385e-06
3.8053268e-06
-5.9633084e-06
-0.0039110712
-1.2121018e-06
2.4446133e-06
-1.1836057e-07
-0.0039122932
-1.402925e-06
2.8232762e-06
-1.98387e-07
-0.003913638
-1.6193574e-06
3.2521777e-06
-2.8797618e-07
-0.0039151257
-1.8650513e-06
3.7408652e-06
-3.8819556e-07
-0.0039167796
-2.1441105e-06
4.2953582e-06
-4.9734412e-07
-0.0039186298
-2.4614348e-06
4.9269845e-06
-6.1533245e-07
-0.0039207107
-2.8190801e-06
5.6426628e-06
-7.4267399e-07
-0.0039230563
-3.226175e-06
6.4539294e-06
-8.8213687e-07
-0.0039257047
-3.6840773e-06
7.3657184e-06
-1.0332878e-06
-0.00392871
-4.1932744e-06
8.3866928e-06
-1.1880684e-06
-0.00393212
-4.7559789e-06
9.5187917e-06
-1.35278e-06
-0.0039359821
-5.3757843e-06
1.0763824e-05
-1.5260149e-06
-0.0039403448
-6.0423754e-06
1.2107276e-05
-1.7021651e-06
-0.0039452598
-6.7417866e-06
1.3529669e-05
-1.8728637e-06
-0.003950757
-7.463121e-06
1.4998651e-05
-2.038341e-06
-0.003956846
-8.1857603e-06
1.6469459e-05
-2.1947517e-06
-0.0039635211
-8.878985e-06
1.7885356e-05
-2.3312496e-06
-0.00397075
-9.516224e-06
1.9188396e-05
-2.443246e-06
-0.0039784731
-1.007386e-05
2.032491e-05
-2.5279173e-06
-0.0039866121
-1.0527795e-05
2.124693e-05
-2.580159e-06
-0.0039950777
-1.0858964e-05
2.1918222e-05
-2.5937004e-06
-0.0040037683
-1.1054827e-05
2.2313151e-05
-2.5676506e-06
-0.0040125716
-1.1110696e-05
2.2418158e-05
-2.5041611e-06
-0.0040213762
-1.1024088e-05
2.2231204e-05
-2.4025784e-06
-0.0040300759
-1.079491e-05
2.1759021e-05
-2.2644446e-06
-0.0040385676
-1.0429712e-05
2.1013045e-05
-2.0916314e-06
-0.0040467477
-9.9359796e-06
2.0006438e-05
-1.8903379e-06
-0.0040545213
-9.3170621e-06
1.8751883e-05
-1.6611832e-06
-8.5792877e-06
1.7261688e-05
-1.4027788e-06
0.0040163511
1.3031588e-05
-2.0951643e-06
0.004005346
1.3051421e-05
-2.0463527e-06
0.0039943861
1.2954499e-05
-1.9946199e-06
0.0039835771
1.2742837e-05
-1.9338332e-06
0.0039730199
1.2429595e-05
-1.8723729e-06
0.0039628128
1.2024062e-05
-1.8170089e-06
0.0039530392
1.1533286e-05
-1.759681e-06
0.0039437626
1.0973023e-05
-1.6964161e-06
0.003935036
1.0360708e-05
-1.6340299e-06
0.0039269009
9.7142987e-06
-1.5792537e-06
0.0039193843
9.0420106e-06
-1.5253879e-06
0.0039124951
8.3545346e-06
-1.4653007e-06
0.0039062291
7.6731436e-06
-1.4071425e-06
0.0039005723
7.013322e-06
-1.3565165e-06
0.003895502
6.3794253e-06
-1.3091634e-06
0.003890988
5.7729542e-06
-1.2589939e-06
0.0038869967
5.1985706e-06
-1.2072645e-06
0.0038834905
4.6660338e-06
-1.1597672e-06
0.0038804282
4.1812022e-06
-1.1189039e-06
0.003877769
3.7380148e-06
-1.0788633e-06
0.0038754719
3.3332735e-06
-1.0361671e-06
0.0038734995
2.9681851e-06
-9.9581233e-07
0.0038718184
2.6419192e-06
-9.6077537e-07
0.0038703921
2.3542431e-06
-9.2797774e-07
0.0038691865
2.097547e-06
-8.9196248e-07
0.0038681772
1.8666321e-06
-8.5729895e-07
0.0038673425
1.6619019e-06
-8.2723518e-07
-0.0041413049
3.4848682e-06
-9.4331854e-07
-0.0041423596
3.9056815e-06
-9.8443324e-07
-0.0041436215
4.3831331e-06
-1.0236516e-06
-0.0041451234
4.9188252e-06
-1.0626502e-06
-0.0041468998
5.5205977e-06
-1.1023469e-06
-0.0041489832
6.1994464e-06
-1.1478568e-06
-0.0041514101
6.9578541e-06
-1.1976041e-06
-0.0041542238
7.8006225e-06
-1.2489064e-06
-0.0041574734
8.7289807e-06
-1.2982451e-06
-0.0041612041
9.7459978e-06
-1.34919e-06
-0.0041654504
1.0854783e-05
-1.4099298e-06
-0.0041702501
1.2049584e-05
-1.4769777e-06
-0.0041756504
1.3320073e-05
-1.5402966e-06
-0.0041816933
1.4655343e-05
-1.5992e-06
-0.0041884006
1.6044116e-05
-1.6636603e-06
-0.0041957794
1.7470822e-05
-1.7374349e-06
-0.0042038326
1.8908548e-05
-1.8133341e-06
-0.00421256
2.0324583e-05
-1.8829312e-06
-0.0042219359
2.1689687e-05
-1.9530971e-06
-0.0042319115
2.2976277e-05
-2.0276473e-06
-0.0042424274
2.4152554e-05
-2.1033144e-06
-0.0042534133
2.518554e-05
-2.1756083e-06
-0.0042647871
2.604492e-05
-2.2415211e-06
-0.0042764384
2.6704367e-05
-2.3102276e-06
-0.0042882532
2.7147615e-05
-2.3783574e-06
-0.004300122
2.7357055e-05
-2.4367499e-06
2.7319853e-05
-2.4907975e-06
0.0047279682
4.3539206e-05
-3.065144e-06
0.0047147372
4.3589454e-05
-3.0014298e-06
0.0047015712
4.3245044e-05
-2.9314102e-06
0.0046885997
4.2527522e-05
-2.8517274e-06
0.0046759542
4.145991e-05
-2.769487e-06
0.0046637493
4.0075422e-05
-2.6849412e-06
0.0046520766
3.8416777e-05
-2.5914821e-06
0.0046410203
3.6528657e-05
-2.4961538e-06
0.0046306502
3.4461057e-05
-2.4012467e-06
0.0046210159
3.226682e-05
-2.3079155e-06
0.0046121421
2.9996479e-05
-2.2141525e-06
0.0046040285
2.7700708e-05
-2.1162537e-06
0.0045966698
2.5422885e-05
-2.0200624e-06
0.0045900583
2.3201077e-05
-1.9342291e-06
0.0045841692
2.1064862e-05
-1.8557559e-06
0.004578948
1.9043498e-05
-1.7727273e-06
0.0045743381
1.7150774e-05
-1.6860901e-06
0.0045702953
1.5395983e-05
-1.6070996e-06
0.004566783
1.3781064e-05
-1.5398516e-06
0.0045637506
1.2308955e-05
-1.4758728e-06
0.0045611433
1.0976966e-05
-1.4118937e-06
0.00455891
9.7818176e-06
-1.3490087e-06
0.0045570077
8.7124243e-06
-1.2895787e-06
0.0045554057
7.7604544e-06
-1.2396004e-06
0.0045540701
6.9131137e-06
-1.1944235e-06
0.004552954
6.1664888e-06
-1.1446666e-06
5.5118298e-06
-1.0918698e-06
-0.004964958
7.6582293e-06
-1.1929595e-06
-0.0049661077
8.5631649e-06
-1.246987e-06
-0.0049674864
9.5932286e-06
-1.3014302e-06
-0.0049691445
1.0768224e-05
-1.3496169e-06
-0.0049711223
1.2092397e-05
-1.4021441e-06
-0.0049734559
1.3579923e-05
-1.4645759e-06
-0.0049761945
1.5244878e-05
-1.5293037e-06
-0.0049793925
1.7103573e-05
-1.5965801e-06
-0.004983109
1.916199e-05
-1.6644778e-06
-0.004987402
2.1425395e-05
-1.7364218e-06
-0.0049923204
2.3888594e-05
-1.8193486e-06
-0.0049979202
2.6551723e-05
-1.9084392e-06
-0.0050042627
2.9404159e-05
-1.9968333e-06
-0.0050114056
3.2426121e-05
-2.0821307e-06
-0.0050193875
3.5578327e-05
-2.1734969e-06
-0.0050282258
3.8814209e-05
-2.2752814e-06
-0.0050379329
4.208222e-05
-2.3785935e-06
-0.0050485069
4.5321508e-05
-2.4806628e-06
-0.0050599242
4.8459667e-05
-2.5813383e-06
-0.005072132
5.1420228e-05
-2.6837401e-06
-0.0050850531
5.412445e-05
-2.7866215e-06
-0.0050985922
5.6502704e-05
-2.888158e-06
-0.0051126397
5.8490835e-05
-2.9834613e-06
-0.0051270687
6.0031305e-05
-3.0747549e-06
-0.0051417353
6.1073925e-05
-3.1622917e-06
-0.0051564857
6.1583085e-05
-3.2432366e-06
6.1533903e-05
-3.3180547e-06
0.0054635139
8.0817093e-05
-3.2100225e-06
0.0054473806
8.0840117e-05
-3.1237165e-06
0.0054313625
8.0126365e-05
-3.0343013e-06
0.0054156297
7.8707039e-05
-2.9429336e-06
0.0054003413
7.6628743e-05
-2.8494995e-06
0.0053856412
7.3956542e-05
-2.7537339e-06
0.0053716562
7.0765886e-05
-2.6564941e-06
0.0053584931
6.7142899e-05
-2.5595051e-06
0.0053462327
6.31851e-05
-2.4650373e-06
0.0053349312
5.8996761e-05
-2.3738001e-06
0.0053246122
5.4683224e-05
-2.2819463e-06
0.0053152746
5.0343592e-05
-2.1917755e-06
0.0053068967
4.6059529e-05
-2.1033571e-06
0.0052994414
4.1903357e-05
-2.0219618e-06
0.0052928578
3.7932447e-05
-1.9446112e-06
0.005287081
3.4194246e-05
-1.8657204e-06
0.0052820457
3.0713461e-05
-1.7895941e-06
0.0052776829
2.7505067e-05
-1.7169317e-06
0.0052739279
2.4568725e-05
-1.6516984e-06
0.0052707139
2.1906921e-05
-1.5893565e-06
0.0052679786
1.9509858e-05
-1.5296821e-06
0.0052656643
1.7366153e-05
-1.4719655e-06
0.0052637181
1.5455265e-05
-1.4166243e-06
0.0052620938
1.3759256e-05
-1.3667242e-06
0.0052607475
1.2259374e-05
-1.3198656e-06
0.0052596367
1.0942861e-05
-1.2688365e-06
9.7860805e-06
-1.2210302e-06
-0.005411879
1.1816774e-05
-1.2338741e-06
-0.0054128695
1.3211728e-05
-1.2783e-06
-0.0054140882
1.4803053e-05
-1.3250483e-06
-0.0054155735
1.6616425e-05
-1.3718362e-06
-0.0054173706
1.867249e-05
-1.4201333e-06
-0.0054195301
2.0996727e-05
-1.4710924e-06
-0.0054221085
2.3612385e-05
-1.5241256e-06
-0.0054251666
2.6544746e-05
-1.5796895e-06
-0.0054287723
2.9811918e-05
-1.6374507e-06
-0.0054329998
3.3430358e-05
-1.6978362e-06
-0.0054379274
3.7402062e-05
-1.7610454e-06
-0.005443636
4.1729766e-05
-1.8268637e-06
-0.0054502021
4.6394771e-05
-1.8962549e-06
-0.0054577032
5.1370208e-05
-1.9657336e-06
-0.0054662068
5.660165e-05
-2.0385042e-06
-0.005475768
6.2020812e-05
-2.1160046e-06
-0.0054864231
6.7534358e-05
-2.1961114e-06
-0.0054981805
7.3032922e-05
-2.2787467e-06
-0.0055110192
7.8386854e-05
-2.3630472e-06
-0.0055248842
8.345944e-05
-2.4515289e-06
-0.0055396878
8.8112841e-05
-2.5433533e-06
-0.0055553135
9.2219398e-05
-2.6371784e-06
-0.0055716165
9.5665217e-05
-2.7334418e-06
-0.0055884335
9.8354526e-05
-2.8304494e-06
-0.0056055891
0.00010021007
-2.9280903e-06
-0.005622898
0.00010117496
-3.0260329e-06
0.0001012129
-3.1232658e-06
0.0056808631
0.0001228035
-3.2146513e-06
0.0056624785
0.00012266514
-3.1055646e-06
0.0056442899
0.00012139633
-2.9976438e-06
0.0056264987
0.00011903672
-2.8910452e-06
0.0056093001
0.00011564965
-2.7858287e-06
0.0055928781
0.00011132484
-2.6834563e-06
0.0055773964
0.00010617901
-2.5844585e-06
0.0055629882
0.00010035628
-2.4885796e-06
0.0055497495
9.4022009e-05
-2.3964719e-06
0.0055377354
8.7355613e-05
-2.308554e-06
0.0055269584
8.0534965e-05
-2.2236733e-06
0.0055173938
7.3727568e-05
-2.1420938e-06
0.005508986
6.7072948e-05
-2.0635036e-06
0.0055016586
6.0686425e-05
-1.9888161e-06
0.0054953242
5.4646983e-05
-1.917866e-06
0.0054898861
4.9015798e-05
-1.8479089e-06
0.0054852519
4.3818958e-05
-1.7826711e-06
0.0054813275
3.9074995e-05
-1.7202954e-06
0.0054780232
3.47756e-05
-1.6593789e-06
0.0054752575
3.0911089e-05
-1.6005882e-06
0.0054729583
2.7456728e-05
-1.5452113e-06
0.0054710612
2.4386231e-05
-1.4923921e-06
0.0054695069
2.166728e-05
-1.440471e-06
0.0054682444
1.9269916e-05
-1.3910295e-06
0.0054672275
1.7162147e-05
-1.3421633e-06
0.0054664183
1.5316576e-05
-1.2955854e-06
1.3701988e-05
-1.2508655e-06
-0.0054760656
1.5412328e-05
-1.2795383e-06
-0.0054766463
1.7221349e-05
-1.3240587e-06
-0.0054774081
1.9294398e-05
-1.3704619e-06
-0.0054783853
2.1667148e-05
-1.4200508e-06
-0.0054796232
2.4376324e-05
-1.471133e-06
-0.0054811743
2.7460489e-05
-1.5231688e-06
-0.0054830995
3.0958703e-05
-1.5767283e-06
-0.0054854671
3.4911545e-05
-1.6329038e-06
-0.0054883521
3.9355377e-05
-1.6947493e-06
-0.0054918427
4.4324743e-05
-1.7592121e-06
-0.0054960392
4.9840232e-05
-1.8247081e-06
-0.005501049
5.591928e-05
-1.8937098e-06
-0.0055069836
6.2549018e-05
-1.9674596e-06
-0.0055139612
6.9708003e-05
-2.0439363e-06
-0.0055220957
7.733157e-05
-2.1240841e-06
-0.0055314921
8.5332562e-05
-2.2085999e-06
-0.0055422355
9.3574199e-05
-2.2958643e-06
-0.005554377
0.00010188442
-2.3872965e-06
-0.0055679206
0.0001100472
-2.4815774e-06
-0.0055828119
0.00011782834
-2.5807787e-06
-0.0055989418
0.00012499275
-2.6838851e-06
-0.0056161518
0.00013132706
-2.7922317e-06
-0.0056342488
0.00013665183
-2.9051928e-06
-0.0056530204
0.00014082958
-3.0212225e-06
-0.005672247
0.00014376288
-3.1399736e-06
-0.0056917105
0.00014538958
-3.2608814e-06
0.00014567377
-3.383147e-06
0.0056873201
0.00016982956
-3.5409276e-06
0.0056667614
0.00016935164
-3.4034074e-06
0.0056464715
0.00016732115
-3.2682732e-06
0.0056266815
0.00016375456
-3.1350262e-06
0.0056076437
0.00015869368
-3.0040259e-06
0.0055896182
0.00015223
-2.8774368e-06
0.0055728471
0.00014452037
-2.7565309e-06
0.0055575276
0.0001357902
-2.6424235e-06
0.0055437873
0.00012632273
-2.5352105e-06
0.0055316743
0.00011643252
-2.4350329e-06
0.0055211542
0.00010643365
-2.3393749e-06
0.0055121309
9.6604254e-05
-2.2484461e-06
0.0055044729
8.7150165e-05
-2.1605479e-06
0.0054980352
7.8223119e-05
-2.0773904e-06
0.0054926729
6.9910366e-05
-1.9990533e-06
0.0054882448
6.2271834e-05
-1.9244682e-06
0.0054846218
5.5318181e-05
-1.8549997e-06
0.005481684
4.9050824e-05
-1.7882439e-06
0.0054793235
4.3438669e-05
-1.7228098e-06
0.0054774466
3.8447938e-05
-1.6594727e-06
0.005475975
3.403201e-05
-1.6017526e-06
0.0054748385
3.014394e-05
-1.546946e-06
0.005473975
2.6734058e-05
-1.4941614e-06
0.0054733321
2.3751442e-05
-1.4414217e-06
0.0054728679
2.1149176e-05
-1.3905954e-06
0.0054725514
1.8881459e-05
-1.3436311e-06
1.6907352e-05
-1.2983049e-06
-0.0054690707
1.8158607e-05
-1.317428e-06
-0.005469088
2.0261874e-05
-1.3631447e-06
-0.0054692127
2.2684189e-05
-1.4103042e-06
-0.005469472
2.5472557e-05
-1.4617986e-06
-0.0054699036
2.8680872e-05
-1.5151735e-06
-0.005470558
3.2366913e-05
-1.5686395e-06
-0.0054714951
3.6593536e-05
-1.6243838e-06
-0.005472785
4.1421134e-05
-1.6832778e-06
-0.0054745061
4.6905758e-05
-1.7459971e-06
-0.0054767537
5.3107341e-05
-1.8089714e-06
-0.005479637
6.0074606e-05
-1.8730274e-06
-0.0054832829
6.7856335e-05
-1.9386935e-06
-0.0054878307
7.6467933e-05
-2.0097002e-06
-0.0054934395
8.5917734e-05
-2.0858759e-06
-0.0055002861
9.6165831e-05
-2.1690762e-06
-0.0055085685
0.00010714477
-2.2580752e-06
-0.0055184952
0.00011871035
-2.3500265e-06
-0.0055302492
0.00013063336
-2.4468488e-06
-0.0055439337
0.00014255724
-2.5499225e-06
-0.0055595259
0.0001540457
-2.6633277e-06
-0.0055768736
0.00016465727
-2.7892551e-06
-0.0055957097
0.00017399346
-2.9273304e-06
-0.0056156988
0.00018175772
-3.0748916e-06
-0.0056364931
0.0001877767
-3.2278314e-06
-0.005657786
0.00019199577
-3.3817421e-06
-0.0056793408
0.00019444087
-3.5344388e-06
0.00019515642
-3.686961e-06
0.0056681347
0.00022131775
-3.8459386e-06
0.0056459112
0.00022034714
-3.6827268e-06
0.0056238443
0.00021757378
-3.5111449e-06
0.0056021641
0.00021278556
-3.3286047e-06
0.0055812865
0.00020577675
-3.1414379e-06
0.0055617406
0.00019649924
-2.9599133e-06
0.0055440474
0.00018514668
-2.7962182e-06
0.0055285993
0.00017215011
-2.6562644e-06
0.0055155722
0.00015812558
-2.5412112e-06
0.0055049089
0.00014373768
-2.4410422e-06
0.0054963415
0.00012962337
-2.3456711e-06
0.0054895085
0.00011622831
-2.2505493e-06
0.0054840707
0.00010376041
-2.1567696e-06
0.0054797646
9.2295722e-05
-2.0718733e-06
0.0054763952
8.1835974e-05
-1.9986659e-06
0.0054738096
7.2377141e-05
-1.9351903e-06
0.0054718791
6.3882154e-05
-1.8769931e-06
0.0054704889
5.6316811e-05
-1.819274e-06
0.0054695233
4.9631916e-05
-1.7605537e-06
0.0054689251
4.3720089e-05
-1.7007574e-06
0.0054686056
3.8555651e-05
-1.6426369e-06
0.0054685164
3.4042679e-05
-1.5865984e-06
0.0054685735
3.0156467e-05
-1.5326285e-06
0.0054687459
2.6778066e-05
-1.4779857e-06
0.0054690016
2.3853936e-05
-1.4254282e-06
0.0054693196
2.1322819e-05
-1.3789366e-06
1.9147047e-05
-1.3321861e-06
-0.0054736101
1.9827097e-05
-1.3768861e-06
-0.0054729216
2.2059349e-05
-1.4249761e-06
-0.0054722433
2.4647434e-05
-1.4717987e-06
-0.0054715901
2.7648972e-05
-1.5241125e-06
-0.005470987
3.1132229e-05
-1.5789368e-06
-0.005470486
3.5174211e-05
-1.6324669e-06
-0.0054700959
3.9852846e-05
-1.6873219e-06
-0.0054698836
4.5249683e-05
-1.7418873e-06
-0.0054698917
5.143572e-05
-1.7956928e-06
-0.0054702198
5.8491019e-05
-1.8461775e-06
-0.0054709191
6.6473483e-05
-1.891944e-06
-0.0054720595
7.5451995e-05
-1.9345365e-06
-0.0054737128
8.5471385e-05
-1.9821079e-06
-0.0054759857
9.6616412e-05
-2.0477674e-06
-0.0054790117
0.00010892297
-2.1365249e-06
-0.0054831285
0.00012258731
-2.2421855e-06
-0.0054888882
0.00013772739
-2.3443411e-06
-0.0054970143
0.00015429499
-2.431199e-06
-0.0055081575
0.00017178196
-2.513184e-06
-0.0055225963
0.00018920612
-2.6171863e-06
-0.0055401591
0.00020548142
-2.771941e-06
-0.0055602324
0.00021955031
-2.9778447e-06
-0.0055819318
0.00023069324
-3.2170579e-06
-0.0056043342
0.00023865029
-3.4622849e-06
-0.0056267601
0.00024368825
-3.6886105e-06
-0.0056489942
0.0002464604
-3.8791872e-06
0.00024762418
-4.0388754e-06
0.0056158474
0.00027287019
-4.2544349e-06
0.005594682
0.00027176893
-4.1431179e-06
0.0055724007
0.00026992183
-3.9523125e-06
0.005549238
0.00026547528
-3.6622103e-06
0.0055265373
0.00025670449
-3.3105849e-06
0.005506051
0.00024299779
-2.9611775e-06
0.0054893444
0.00022487135
-2.6833514e-06
0.0054774108
0.00020365405
-2.5142999e-06
0.0054703425
0.00018130188
-2.4516547e-06
0.0054673167
0.00015973905
-2.4182818e-06
0.0054668246
0.00014056906
-2.3494795e-06
0.0054674392
0.00012420117
-2.2285268e-06
0.0054683076
0.00011014802
-2.0934368e-06
0.0054691309
9.7785657e-05
-1.9925777e-06
0.0054699025
8.6639254e-05
-1.9394876e-06
0.0054706947
7.6577202e-05
-1.917384e-06
0.0054715644
6.7504522e-05
-1.9006673e-06
0.0054725364
5.9395456e-05
-1.8764981e-06
0.0054736087
5.22045e-05
-1.841035e-06
0.005474759
4.5895884e-05
-1.7965005e-06
0.0054759579
4.0400076e-05
-1.7461304e-06
0.0054771735
3.5650554e-05
-1.6920228e-06
0.0054783836
3.1559834e-05
-1.637609e-06
0.0054795644
2.8049792e-05
-1.581689e-06
0.0054807037
2.5037055e-05
-1.5289397e-06
0.0054817924
2.245087e-05
-1.4801629e-06
2.0229036e-05
-1.430075e-06
-0.0054930537
2.0362617e-05
-1.5287357e-06
-0.0054915427
2.2521437e-05
-1.5816253e-06
-0.0054899146
2.5042171e-05
-1.6331515e-06
-0.0054881686
2.7991538e-05
-1.6877805e-06
-0.0054863021
3.1438758e-05
-1.7454312e-06
-0.0054843216
3.5470794e-05
-1.8007066e-06
-0.00548223
4.0160754e-05
-1.8523323e-06
-0.0054800281
4.5590317e-05
-1.8963391e-06
-0.0054776993
5.1803999e-05
-1.9283035e-06
-0.005475196
5.883624e-05
-1.9440908e-06
-0.0054724177
6.66687e-05
-1.9424036e-06
-0.0054691934
7.5282966e-05
-1.9301094e-06
-0.0054652597
8.4633725e-05
-1.9281982e-06
-0.0054602384
9.4748201e-05
-1.9837658e-06
-0.0054537206
0.00010576135
-2.1311563e-06
-0.0054456797
0.00011849918
-2.3389459e-06
-0.0054372414
0.00013460896
-2.4781997e-06
-0.0054311128
0.00015607061
-2.4601272e-06
-0.0054306644
0.00018319382
-2.3403542e-06
-0.0054379334
0.00021321892
-2.2958116e-06
-0.0054529823
0.00024242015
-2.4999833e-06
-0.0054741388
0.00026710108
-2.9467605e-06
-0.0054987586
0.00028486863
-3.5443092e-06
-0.0055235329
0.0002943721
-4.1225261e-06
-0.0055454656
0.00029631716
-4.4626589e-06
-0.005563982
0.00029478035
-4.494953e-06
-0.0055817785
0.00029506483
-4.3982337e-06
-0.0056020711
0.00029840779
-4.3931764e-06
0.00030144696
-4.5737078e-06
0.0055205006
0.00033107502
-4.2781432e-06
0.0055023741
0.00032040171
-3.8673954e-06
0.0054911392
0.00031025413
-3.954329e-06
0.0054783521
0.0003125121
-4.9447309e-06
0.0054563251
0.0003243024
-5.9582094e-06
0.0054273362
0.00032910422
-5.7431991e-06
0.0053986968
0.00031793937
-4.4313493e-06
0.0053758389
0.00029297862
-3.0196794e-06
0.0053627014
0.00025767585
-2.1181792e-06
0.0053624618
0.0002152726
-1.8140242e-06
0.0053751313
0.00017262256
-2.0983075e-06
0.0053960446
0.00013782497
-2.6676209e-06
0.0054178217
0.00011589479
-3.0629539e-06
0.0054357449
0.00010355696
-2.9809807e-06
0.0054490467
9.5033734e-05
-2.5742362e-06
0.0054588724
8.7125008e-05
-2.202494e-06
0.0054664071
7.9129802e-05
-2.0307057e-06
0.0054724098
7.128873e-05
-2.0085095e-06
0.0054773547
6.3759167e-05
-2.0353227e-06
0.0054815713
5.6678811e-05
-2.0592535e-06
0.0054852835
5.0154963e-05
-2.0631573e-06
0.005488626
4.4292099e-05
-2.0442679e-06
0.0054916732
3.9120123e-05
-2.0065287e-06
0.0054944614
3.4638009e-05
-1.9554599e-06
0.0054970145
3.0783653e-05
-1.8979937e-06
0.0054993464
2.7496216e-05
-1.8365081e-06
0.0055014761
2.4690208e-05
-1.7777391e-06
0.0055034183
2.2300007e-05
-1.7208375e-06
2.0257546e-05
-1.6635128e-06
-0.0054992034
2.0055372e-05
-1.9224777e-06
-0.0054968469
2.1928087e-05
-1.9846477e-06
-0.0054942307
2.4121937e-05
-2.0478533e-06
-0.0054913253
2.6704019e-05
-2.1132877e-06
-0.0054880942
2.9732668e-05
-2.1800211e-06
-0.005484502
3.3287475e-05
-2.2417063e-06
-0.0054804998
3.7410982e-05
-2.2931041e-06
-0.0054760151
4.2133001e-05
-2.325582e-06
-0.0054709208
4.7393473e-05
-2.3327554e-06
-0.0054650041
5.3075478e-05
-2.313374e-06
-0.0054579458
5.898265e-05
-2.2817798e-06
-0.0054493364
6.4969837e-05
-2.29058e-06
-0.005438681
7.0968318e-05
-2.4938698e-06
-0.0054251231
7.6767077e-05
-3.1999575e-06
-0.0054066305
8.1098313e-05
-4.5571606e-06
-0.0053792622
8.1967594e-05
-5.7789823e-06
-0.0053404361
8.24918e-05
-5.4230763e-06
-0.0052971683
9.7905523e-05
-3.3483357e-06
-0.0052665818
0.00014335572
-1.3197116e-06
-0.0052590941
0.00020840902
-6.241281e-07
-0.0052724113
0.00027219661
-1.2035174e-06
-0.0052989147
0.00032244331
-2.961345e-06
-0.0053342283
0.00036002792
-6.7749165e-06
-0.005374885
0.0003813211
-1.1560192e-05
-0.0054031842
0.0003644111
-1.180948e-05
-0.0054059428
0.0003207955
-5.5248196e-06
-0.0054048096
0.00030987719
-7.5628101e-07
-0.0054232794
0.0003402716
-1.4000695e-06
0.00036708903
-3.1448996e-06
0.0052652942
0.0004188545
5.0741703e-06
0.0052356206
0.00036088748
9.0577598e-06
0.0052518459
0.00027745593
1.6195972e-05
0.0053173883
0.0002658572
-1.0604128e-05
0.0052751993
0.00045343692
-4.6836789e-05
0.0052239933
0.00046663246
-3.4105375e-05
0.005185795
0.00040800486
-9.7786745e-06
0.0051531053
0.00035663426
-1.5011855e-06
0.0051316169
0.00029254843
1.1365553e-06
0.0051416027
0.00019595456
2.4686742e-06
0.0051952266
8.726027e-05
2.4714868e-06
0.0052674523
2.9693104e-05
-4.0132632e-06
0.0053184925
4.4747376e-05
-1.3295741e-05
0.0053451407
7.0135482e-05
-1.4816097e-05
0.0053619628
7.404854e-05
-9.772364e-06
0.0053758401
6.8064483e-05
-5.1746238e-06
0.0053879716
6.1967335e-05
-3.1305943e-06
0.0053983369
5.7141648e-05
-2.5370466e-06
0.0054070243
5.2765529e-05
-2.4702883e-06
0.0054143445
4.8273362e-05
-2.5181423e-06
0.0054206261
4.3675495e-05
-2.5636325e-06
0.0054261133
3.9221833e-05
-2.5760204e-06
0.0054309576
3.5120182e-05
-2.5534955e-06
0.0054352553
3.1493832e-05
-2.5040775e-06
0.0054390745
2.8352949e-05
-2.4393968e-06
0.0054424706
2.5675004e-05
-2.3671434e-06
0.0054454956
2.3391806e-05
-2.294844e-06
0.0054481952
2.1452806e-05
-2.2242814e-06
1.9793991e-05
-2.1556464e-06
-0.0052957867
1.9875703e-05
-2.6975119e-06
-0.0052928397
2.1276861e-05
-2.7710607e-06
-0.0052895123
2.2910536e-05
-2.8461537e-06
-0.0052857446
2.4829532e-05
-2.9221825e-06
-0.0052814721
2.7075199e-05
-2.9947862e-06
-0.0052766227
2.9702028e-05
-3.0575836e-06
-0.0052711273
3.2717131e-05
-3.0923123e-06
-0.0052648944
3.6074487e-05
-3.0855787e-06
-0.005257814
3.960676e-05
-3.011639e-06
-0.0052497164
4.3042903e-05
-2.8671988e-06
-0.0052404305
4.6160067e-05
-2.6803682e-06
-0.005229968
4.9320294e-05
-2.6411592e-06
-0.0052190822
5.4571162e-05
-3.4896321e-06
-0.0052097621
6.6232019e-05
-7.4876855e-06
-0.005205053
8.8864446e-05
-1.9524934e-05
-0.0051996738
0.00011168994
-4.6933683e-05
-0.0051522003
5.3379027e-05
-5.6105213e-05
-0.0049928743
-0.00011699486
-1.2637977e-05
-0.0049281532
5.5998307e-06
1.6939339e-05
-0.0049340437
0.0001943263
7.5187703e-06
-0.0049796212
0.00033356917
4.5566996e-06
-0.0050185505
0.00039052538
5.0381554e-06
-0.0050337606
0.00042568083
-2.4658057e-06
-0.0050422412
0.00052557348
-5.0460419e-05
-0.0051766404
0.00094924123
-0.00036140512
-0.0048584156
-0.00048222732
0.00031400289
0.00011585685
-0.0048803406
-0.00042167447
0.00062311029
9.7945125e-05
-0.0049209354
-0.00036831378
0.00069304392
7.6752101e-05
-0.0050294365
-0.00032499882
0.00077058539
8.1769069e-05
-0.00036385215
0.00078325374
6.8957141e-05
0.0012206158
8.6894048e-05
0.00011338478
0.0017647469
0.00012421527
0.0001149073
0.0011867219
0.00011106268
0.0001419635
0.0017284016
0.00011834789
0.00011055789
0.0011690997
7.6900642e-05
0.00011408746
0.001713227
7.4631887e-05
7.4284749e-05
0.001157971
4.472763e-05
8.8853855e-05
0.0016471141
6.0839276e-05
7.3127879e-05
0.0010146817
4.2094502e-05
0.00010811066
0.0012030225
4.1743452e-05
8.3918601e-05
0.00052027462
0.0021584212
-0.00056084974
-0.00091482363
0.0010778074
0.0013725417
-0.00090463799
-0.0010254365
0.00023436922
-0.00014377766
-9.5397164e-05
0.001082613
0.0043821359
0.00079690498
-0.00046446752
0.0044095554
-0.00031518524
0.00075927243
5.4066791e-05
0.0044455313
-0.0003974165
0.00070799765
7.9123792e-05
0.0045377862
-2.207414e-05
-0.00039557101
0.00071591565
0.0045776069
-3.4359857e-05
-0.00035247309
0.00068058137
0.0045074418
5.9852338e-05
-0.00037687892
0.00058151806
0.0044963392
7.1664615e-05
-0.00049200164
0.00043703943
0.0048943205
4.4535948e-05
-0.00064821145
8.8699375e-05
0.0049255216
0.00043511939
-0.00041294147
0.0049263455
0.00021882067
-0.00010795465
0.0049204617
0.0001227748
-2.8026546e-05
0.0049243104
6.9024517e-05
-6.6412724e-06
0.0049320538
4.8283032e-05
-1.4552656e-06
0.0049406909
4.1638762e-05
-9.5551161e-07
0.0049491243
3.9179533e-05
-1.4528754e-06
0.0049569544
3.7172126e-05
-1.9593152e-06
0.004964071
3.4779767e-05
-2.2895744e-06
0.0049704465
3.2165808e-05
-2.4668737e-06
0.0049760911
2.9597038e-05
-2.5245506e-06
0.0049810618
2.7250751e-05
-2.5193406e-06
0.0049854118
2.5193003e-05
-2.4678066e-06
0.0049892216
2.342241e-05
-2.4026986e-06
0.0049925584
2.1901918e-05
-2.3282346e-06
0.004995488
2.0600274e-05
-2.2529747e-06
1.9477338e-05
-2.1737412e-06
-0.0045690898
1.7701302e-05
-3.9911505e-07
-0.0045665546
1.8534277e-05
-4.6924991e-07
-0.004563608
1.9494558e-05
-5.391478e-07
-0.0045601868
2.0603678e-05
-6.0249058e-07
-0.0045562288
2.1891881e-05
-6.5687572e-07
-0.0045516632
2.3369307e-05
-6.8423007e-07
-0.0045464603
2.5044285e-05
-6.5014703e-07
-0.0045406402
2.6840321e-05
-4.9452711e-07
-0.0045343214
2.8573527e-05
-1.1259505e-07
-0.0045278243
3.0064363e-05
6.1069128e-07
-0.0045215921
3.1089215e-05
1.8581294e-06
-0.0045162539
3.2833183e-05
3.4673633e-06
-0.0045117687
3.9222146e-05
4.5756799e-06
-0.004507638
6.430874e-05
5.8500856e-07
-0.0045008796
0.00014080421
-2.4787788e-05
-0.0044669056
0.00033745371
-0.00015260698
-0.0015746288
0.00061434247
-0.00094995744
-0.0021215425
0.00031284213
-0.00028012458
-0.00087577095
-0.00073157539
0.00024284879
0.0018317674
-0.00094548761
-0.00081628649
-0.00077126664
0.0012570325
-0.00054523473
-0.00077072115
-7.9066288e-05
3.5419847e-05
-0.0008223959
-4.5922471e-05
2.3042013e-05
-0.00029609011
-0.00010192104
-0.00041624085
-0.0001632583
-5.3388857e-05
-8.1307894e-05
-4.4167505e-05
-0.00011722585
-7.6159533e-05
-5.9985239e-05
-0.00015183193
-3.1870637e-05
2.6235144e-05
-0.00016228817
-1.1289517e-05
7.8525897e-06
-0.0001830781
4.9238006e-06
6.3280272e-06
-0.00019029394
-6.5666744e-06
8.814916e-06
-0.00018633358
-1.6283965e-05
2.7157068e-06
-0.00017168875
-2.9930135e-05
-2.2580257e-06
-0.00012592908
-6.7257829e-05
-3.8290944e-06
-0.00012522636
-4.5047e-06
-7.0157104e-05
-2.341379e-07
-0.00016606747
0.00016053256
-5.2615244e-05
-1.2006945e-05
-0.00010245694
-1.8549626e-05
-7.3487975e-05
-0.00010794531
-7.0130472e-06
-7.1844222e-05
6.0168505e-06
-6.0315193e-05
6.5098444e-05
0.00019138159
-0.0011454879
-0.00019373133
0.00092765896
0.00028483773
6.6407338e-05