/*--------------------------------*- C++ -*----------------------------------*\
| =========                 |                                                 |
| \\      /  F ield         | OpenFOAM: The Open Source CFD Toolbox           |
|  \\    /   O peration     | Version:  v2012                                 |
|   \\  /    A nd           | Website:  www.openfoam.com                      |
|    \\/     M anipulation  |                                                 |
\*---------------------------------------------------------------------------*/
FoamFile
{
    version     2.0;
    format      ascii;
    class       volVectorField;
    location    "100";
    object      U;
}
// * * * * * * * * * * * * * * * * * * * * * * * * * * * * * * * * * * * * * //

dimensions      [0 1 -1 0 0 0 0];


internalField   nonuniform List<vector> 
49454
(
(5.4033491 -0.51371866 -0.0012318956)
(5.3980771 -0.51736884 -0.0029844199)
(5.3859981 -0.52812464 -0.00021060865)
(5.3652717 -0.5335922 0.00056742622)
(5.3537103 -0.53370974 0.00036260661)
(5.345206 -0.53468439 -0.00075852034)
(5.335998 -0.53827625 -0.0018678249)
(5.3317732 -0.53976151 -0.0023451091)
(5.3223578 -0.54704033 -0.00077942575)
(5.3056036 -0.55133031 -0.00084805949)
(5.2917811 -0.55316545 -0.0013631306)
(5.2820842 -0.55452793 -0.001873352)
(5.272909 -0.55618491 -0.0029184196)
(5.2626366 -0.55955298 -0.003069266)
(5.248914 -0.5644484 -0.0015093421)
(5.2342902 -0.56746522 -0.00028236809)
(5.2206154 -0.56851202 -0.0021824245)
(5.2164214 -0.56905874 -0.0018100389)
(5.2028903 -0.57249018 -0.0011007487)
(5.1795033 -0.57339562 -0.0019616557)
(5.1669842 -0.57459361 -0.0041061755)
(5.1551158 -0.58041406 -0.0025826807)
(5.1392326 -0.58693973 -0.0021281261)
(5.12513 -0.59048242 -0.00081278912)
(5.1081052 -0.59305536 -0.0013962602)
(5.0935549 -0.59671483 -0.0021041933)
(5.0788592 -0.59877952 -0.0024866762)
(5.0681761 -0.59909192 -0.0024652971)
(5.0563558 -0.60178998 -0.0013458467)
(5.0403573 -0.60483265 -0.00075062557)
(5.0231164 -0.60595716 -0.0016200176)
(5.0048263 -0.6061456 -0.0028532067)
(4.9906903 -0.60505648 -0.0031790814)
(4.9768255 -0.60686338 -0.0039182941)
(4.9607579 -0.61588075 -0.0023043261)
(4.9354078 -0.62272628 -0.0021692206)
(4.9234398 -0.61921644 -0.0018120576)
(4.9059597 -0.61900874 -0.0050254376)
(4.8980361 -0.61492531 -0.0030324439)
(4.8712458 -0.61002212 -0.0031355864)
(4.8468094 -0.60784189 -0.0063704331)
(4.8224232 -0.61287071 -0.005014788)
(4.7934163 -0.61636928 -0.0036671929)
(4.7720812 -0.61161902 -0.0033383883)
(4.7481278 -0.61289483 -0.0043862072)
(4.7219471 -0.62054484 -0.0032433323)
(4.687743 -0.62284996 -0.00095222194)
(4.6571563 -0.62064972 -0.0011144285)
(4.6208383 -0.61875642 -0.0021237589)
(4.6003621 -0.61860017 -0.0041957106)
(4.5663435 -0.64074905 -0.0040118)
(4.5530565 -0.66520598 -0.056616751)
(4.26998 -0.98356207 -0.05479437)
(3.7937047 -0.35318327 0.070764879)
(4.2656855 -0.051187944 0.074037189)
(4.5075488 0.0039039208 0.046886556)
(4.5480783 0.0093541391 0.033839603)
(4.5979938 -0.021277042 0.014064134)
(4.684867 -0.020944066 0.0018307621)
(4.7409362 -0.014568184 -0.0031288459)
(4.7780246 -0.0096780277 -0.0040396616)
(4.8065019 -0.0062818627 -0.0035934657)
(4.8295166 -0.0040150029 -0.002906617)
(4.8483179 -0.0024204374 -0.0025300789)
(4.8637063 -0.0012787638 -0.0022164464)
(4.876839 -0.00046021635 -0.0019866914)
(4.8879409 0.00019540259 -0.0018350464)
(4.8972 0.00077677127 -0.0017472138)
(4.904946 0.0013032717 -0.0016607328)
(4.9114753 0.0017695506 -0.0015526219)
(4.9169961 0.0021840911 -0.0014179508)
(4.9216819 0.0025632609 -0.0012671099)
(4.9256877 0.0029187741 -0.0011051025)
(4.9291417 0.0032522285 -0.00094544481)
(4.9321391 0.0035697287 -0.00078384192)
(4.9774967 -6.5894461e-05 0.002162779)
(4.9789797 -0.00010636212 0.0024982998)
(4.9806053 -0.00015167542 0.0028788325)
(4.9824012 -0.00020174889 0.0033114808)
(4.9843926 -0.00025618267 0.0038037881)
(4.9866179 -0.00031618341 0.0043638581)
(4.9891095 -0.00038232951 0.0049992214)
(4.9919183 -0.00045350053 0.0057193489)
(4.9950931 -0.00053041302 0.0065300179)
(4.9986951 -0.0006125854 0.0074367014)
(5.0027825 -0.00070092971 0.0084404267)
(5.0074243 -0.00079268358 0.0095387196)
(5.0126855 -0.00088729012 0.010720159)
(5.0186241 -0.00098276313 0.011965843)
(5.0252901 -0.001076409 0.013247704)
(5.0327104 -0.0011653368 0.014526839)
(5.0408891 -0.0012463386 0.015756981)
(5.0497937 -0.0013161057 0.016888446)
(5.0593688 -0.0013712028 0.017875623)
(5.0695219 -0.0014087925 0.018677581)
(5.0801494 -0.0014265169 0.019263067)
(5.0911177 -0.0014232067 0.019608824)
(5.1023017 -0.0013989314 0.019702659)
(5.1135496 -0.0013535726 0.019543899)
(5.1247266 -0.0012890694 0.019137343)
(5.1357014 -0.0012056706 0.018490091)
(5.1463432 -0.0011049846 0.017612443)
(5.1565294 -0.0009883054 0.016515376)
(5.1661415 -0.00085743506 0.015210236)
(5.2264562 -0.0063136395 0.0011599697)
(5.2121674 -0.0063212585 0.0011298433)
(5.1978507 -0.0062721719 0.0010985377)
(5.183672 -0.0061690513 0.0010666641)
(5.1697589 -0.0060157465 0.0010343216)
(5.156241 -0.0058172378 0.0010018715)
(5.1432324 -0.005579322 0.00096957433)
(5.1308315 -0.0053085692 0.00093757214)
(5.1191173 -0.0050120282 0.00090601716)
(5.1081518 -0.0046970571 0.00087506407)
(5.0979757 -0.0043708025 0.00084481719)
(5.0886123 -0.0040403138 0.00081524109)
(5.0800653 -0.0037119547 0.00078640388)
(5.0723236 -0.0033911633 0.00075835589)
(5.0653622 -0.0030823019 0.0007310985)
(5.0591466 -0.0027888962 0.00070468734)
(5.0536333 -0.0025133251 0.00067913376)
(5.0487744 -0.0022572024 0.00065452861)
(5.0445181 -0.0020212789 0.0006308421)
(5.0408125 -0.0018057781 0.00060806747)
(5.0376044 -0.0016103036 0.00058617384)
(5.0348436 -0.0014341959 0.0005651371)
(5.0324807 -0.0012763391 0.00054491966)
(5.0304713 -0.0011356082 0.00052547728)
(5.0287717 -0.0010105808 0.00050680058)
(5.0273452 -0.00090005772 0.00048885502)
(5.0261543 -0.00080245207 0.0004717017)
(5.0251706 -0.00071660056 0.00045529459)
(5.0269742 -0.0024801047 0.00050507248)
(5.0281408 -0.0027775977 0.0005225663)
(5.0295389 -0.0031144219 0.00054070117)
(5.0312096 -0.0034960128 0.00055984281)
(5.0331862 -0.0039254029 0.0005796847)
(5.035516 -0.0044075344 0.0006004823)
(5.0382405 -0.0049453472 0.00062208379)
(5.0414126 -0.0055427519 0.00064464677)
(5.0450807 -0.0062014047 0.00066809142)
(5.0493009 -0.0069228848 0.0006925528)
(5.0541245 -0.0077062672 0.0007179843)
(5.0596063 -0.0085494707 0.00074443337)
(5.0657942 -0.009447286 0.00077169737)
(5.0727346 -0.010392653 0.0007997961)
(5.080463 -0.011374709 0.00082874089)
(5.0890066 -0.012380037 0.00085844623)
(5.0983776 -0.013391714 0.00088878943)
(5.1085737 -0.014390212 0.00091967865)
(5.1195724 -0.015354002 0.00095123312)
(5.1313332 -0.016260948 0.00098331651)
(5.1437937 -0.017088501 0.001015699)
(5.1568741 -0.017815014 0.0010482634)
(5.1704748 -0.018420371 0.0010808156)
(5.1844798 -0.018886765 0.0011132543)
(5.1987577 -0.019199165 0.0011452095)
(5.2131792 -0.019346121 0.0011764323)
(5.2275769 -0.019319231 0.001206269)
(5.2293758 -0.033396898 0.0012645399)
(5.2147705 -0.033440169 0.0012323073)
(5.2001476 -0.033181727 0.0011987324)
(5.1856818 -0.032636835 0.0011644958)
(5.1715025 -0.031824589 0.0011297101)
(5.1577459 -0.030771047 0.0010947721)
(5.1445305 -0.029507102 0.0010596926)
(5.1319588 -0.02806775 0.001024849)
(5.1201116 -0.02649088 0.00099026029)
(5.1090524 -0.024816116 0.00095638207)
(5.0988206 -0.02308243 0.00092317883)
(5.0894374 -0.021327486 0.00089083368)
(5.0809028 -0.019585114 0.00085938356)
(5.0732013 -0.017884559 0.00082856266)
(5.0663019 -0.016249218 0.00079898921)
(5.0601669 -0.014698196 0.00077029289)
(5.0547451 -0.013242991 0.00074263681)
(5.0499871 -0.011892575 0.00071618367)
(5.0458343 -0.010649982 0.00069085954)
(5.0422345 -0.0095167692 0.00066664901)
(5.0391288 -0.0084896987 0.00064337626)
(5.0364688 -0.0075661504 0.00062110286)
(5.0341989 -0.0067387025 0.0005996704)
(5.0322792 -0.0060027349 0.00057924491)
(5.0306595 -0.0053486 0.00055962068)
(5.0293098 -0.0047724174 0.00054097165)
(5.0281843 -0.0042628785 0.0005230978)
(5.0298279 -0.0061520243 0.0005234406)
(5.0308831 -0.0068837572 0.00054107056)
(5.0321586 -0.0077137182 0.00055917287)
(5.033694 -0.008655724 0.00057841453)
(5.0355236 -0.0097175355 0.00059821535)
(5.0376949 -0.010912536 0.00061930446)
(5.0402503 -0.012248187 0.00064097809)
(5.0432463 -0.013735782 0.00066403425)
(5.0467328 -0.01537925 0.00068791722)
(5.0507723 -0.017184874 0.00071329966)
(5.0554193 -0.019150398 0.0007399361)
(5.0607381 -0.021272956 0.00076833123)
(5.0667808 -0.02353919 0.00079818952)
(5.0736064 -0.025933568 0.00082863619)
(5.0812564 -0.028427839 0.00086076507)
(5.0897693 -0.030988383 0.00089412689)
(5.0991649 -0.033571211 0.00092854315)
(5.1094485 -0.036126528 0.00096471591)
(5.1206009 -0.038598059 0.0010016368)
(5.1325851 -0.040927792 0.0010397494)
(5.1453354 -0.043056274 0.0010782872)
(5.1587693 -0.044927256 0.0011174401)
(5.1727791 -0.04648874 0.0011567402)
(5.1872421 -0.047695363 0.001196185)
(5.2020149 -0.048509059 0.0012352575)
(5.2169642 -0.048901978 0.0012736271)
(5.2319073 -0.048852501 0.0013108573)
(5.2352125 -0.065735335 0.0013417767)
(5.2197642 -0.065774512 0.0012987945)
(5.2043285 -0.065216159 0.0012549471)
(5.1891003 -0.06408731 0.0012106468)
(5.1742183 -0.062425902 0.0011663029)
(5.1598341 -0.060282981 0.0011221912)
(5.1460785 -0.057719728 0.0010790188)
(5.1330662 -0.054807754 0.0010367083)
(5.1208837 -0.051624951 0.00099553079)
(5.1095991 -0.048253896 0.00095613986)
(5.0992479 -0.044775725 0.00091752794)
(5.0898432 -0.041268178 0.00088133177)
(5.0813742 -0.037800107 0.00084668943)
(5.0738096 -0.034430396 0.00081373908)
(5.0671051 -0.031205185 0.00078270568)
(5.0612059 -0.02816027 0.00075227179)
(5.056048 -0.025317353 0.0007237485)
(5.0515694 -0.022691537 0.00069692037)
(5.0477023 -0.020286676 0.00067186297)
(5.0443842 -0.018102624 0.00064794701)
(5.0415516 -0.016131102 0.00062576286)
(5.0391501 -0.014363845 0.00060440754)
(5.0371234 -0.012786538 0.00058373412)
(5.035426 -0.011386575 0.00056388781)
(5.0340123 -0.010147534 0.00054510532)
(5.032846 -0.0090567194 0.00052687074)
(5.0318888 -0.0080961002 0.0005096126)
(5.0343617 -0.010014837 0.00050949088)
(5.0351853 -0.011199987 0.00052633479)
(5.0362033 -0.012549142 0.00054410124)
(5.0374521 -0.014084241 0.00056266101)
(5.0389681 -0.015822271 0.00058203644)
(5.040797 -0.017785171 0.00060228982)
(5.0429858 -0.019990046 0.00062342512)
(5.0455929 -0.022457207 0.00064556204)
(5.0486752 -0.025198372 0.00066899333)
(5.0523031 -0.02822785 0.00069359514)
(5.0565432 -0.031546187 0.00071962361)
(5.0614746 -0.035153426 0.00074734572)
(5.0671663 -0.039030708 0.00077700202)
(5.0736974 -0.043154275 0.00080749952)
(5.0811324 -0.047478056 0.00084022379)
(5.0895324 -0.051945498 0.00087515141)
(5.098939 -0.056479452 0.00091210042)
(5.1093755 -0.060990478 0.000952003)
(5.1208347 -0.065374479 0.00099404089)
(5.1332837 -0.069522797 0.0010383473)
(5.1466534 -0.073325011 0.0010842119)
(5.1608503 -0.076677764 0.0011312073)
(5.1757503 -0.07948724 0.0011787825)
(5.1912107 -0.081674781 0.0012268873)
(5.2070675 -0.08317581 0.0012753078)
(5.2231657 -0.083941887 0.0013236524)
(5.2393084 -0.083940902 0.0013711472)
(5.2441303 -0.10336338 0.0014075405)
(5.2270946 -0.10329239 0.0013560282)
(5.2101388 -0.10226993 0.0013046567)
(5.1934689 -0.10033276 0.0012537069)
(5.1772588 -0.097538203 0.0012033541)
(5.1616892 -0.09396482 0.0011538565)
(5.1469201 -0.089711762 0.0011051987)
(5.1330893 -0.084898069 0.0010581124)
(5.1203012 -0.079657757 0.0010127418)
(5.1086278 -0.074134529 0.00096978625)
(5.0980988 -0.068470524 0.00092910043)
(5.0887099 -0.062800633 0.00089134966)
(5.0804218 -0.057239451 0.00085577016)
(5.073174 -0.051883285 0.00082238697)
(5.0668877 -0.046801101 0.00079128847)
(5.0614794 -0.042046189 0.00076091464)
(5.0568543 -0.037644383 0.00073242368)
(5.0529294 -0.03361391 0.00070568293)
(5.0496158 -0.029951478 0.00068062234)
(5.0468376 -0.026650435 0.0006568234)
(5.0445206 -0.023692001 0.0006344414)
(5.0426025 -0.021056063 0.00061325843)
(5.0410243 -0.01871793 0.00059238001)
(5.0397367 -0.01665278 0.00057251043)
(5.0386954 -0.014834332 0.00055317416)
(5.0378634 -0.013239108 0.00053497578)
(5.0372064 -0.011841392 0.00051716095)
(5.040419 -0.013510463 0.00053726754)
(5.0408758 -0.015100666 0.00055571582)
(5.0414841 -0.016920865 0.00057468813)
(5.0422752 -0.019001149 0.00059445139)
(5.043285 -0.021371005 0.00061484448)
(5.0445572 -0.024063687 0.00063632438)
(5.0461422 -0.027110438 0.00065878087)
(5.0481 -0.030544739 0.00068235632)
(5.0504975 -0.034394314 0.00070757702)
(5.0534145 -0.038687791 0.00073415247)
(5.056936 -0.043438395 0.0007623488)
(5.0611637 -0.048658169 0.00079231186)
(5.0661966 -0.054330793 0.00082407624)
(5.0721511 -0.060433057 0.00085673434)
(5.0791324 -0.066903853 0.00089130254)
(5.0872475 -0.073664486 0.0009279104)
(5.0965815 -0.080596649 0.00096631905)
(5.1071985 -0.087557323 0.0010074788)
(5.1191191 -0.094372804 0.0010505365)
(5.1323192 -0.10085827 0.0010959554)
(5.1467205 -0.10682754 0.0011429885)
(5.1622033 -0.11210974 0.0011916253)
(5.1786069 -0.11655622 0.0012421402)
(5.1957484 -0.12004706 0.0012943408)
(5.2134244 -0.12249029 0.0013481459)
(5.231434 -0.12382174 0.001402913)
(5.2495618 -0.12400233 0.0014583937)
(5.2554226 -0.14596413 0.0015205279)
(5.2359981 -0.14563415 0.0014594785)
(5.2167266 -0.14393682 0.0014000598)
(5.1978437 -0.14090969 0.0013423363)
(5.1795791 -0.13661997 0.0012866508)
(5.1621678 -0.13117098 0.0012332262)
(5.1458271 -0.12470495 0.0011820559)
(5.1307461 -0.11740463 0.0011331268)
(5.1170673 -0.10948735 0.0010864632)
(5.1048775 -0.10119291 0.0010424961)
(5.0941947 -0.092763034 0.0010006952)
(5.0849747 -0.084420567 0.00096158095)
(5.0771193 -0.076342624 0.00092397527)
(5.0705058 -0.068668882 0.00088820077)
(5.0649937 -0.061487999 0.00085441282)
(5.0604463 -0.054863056 0.00082140964)
(5.0567234 -0.048812528 0.00079062311)
(5.0537056 -0.043343548 0.00076134443)
(5.0512772 -0.038433815 0.00073327603)
(5.0493426 -0.034057265 0.00070638447)
(5.0478169 -0.030175938 0.00068119152)
(5.0466286 -0.026749038 0.00065700066)
(5.045717 -0.023734984 0.00063439938)
(5.0450322 -0.02109205 0.0006129773)
(5.0445317 -0.018780945 0.000592246)
(5.0441817 -0.016764121 0.00057219725)
(5.0439533 -0.015007375 0.00055294562)
(5.047788 -0.016276177 0.00056757089)
(5.0477577 -0.018168088 0.00058688247)
(5.0478138 -0.020347477 0.00060747524)
(5.0479814 -0.022853518 0.00062902846)
(5.0482919 -0.025730721 0.00065155683)
(5.0487845 -0.029027652 0.00067513714)
(5.0495075 -0.032795203 0.00070010725)
(5.0505213 -0.037088 0.0007260836)
(5.0518991 -0.041958868 0.0007535928)
(5.0537313 -0.047462086 0.00078222083)
(5.0561244 -0.053638727 0.00081263927)
(5.0592082 -0.060528366 0.00084446323)
(5.0631266 -0.068137679 0.00087852916)
(5.0680498 -0.076460487 0.00091352042)
(5.0741532 -0.0854361 0.00095049519)
(5.0816235 -0.094971551 0.00098937114)
(5.0906331 -0.10490439 0.001029814)
(5.101332 -0.11501889 0.001073142)
(5.1138006 -0.12502705 0.0011189278)
(5.1280293 -0.13461032 0.0011677703)
(5.1439167 -0.14345913 0.0012195668)
(5.1612858 -0.1512967 0.0012743977)
(5.1799034 -0.15790004 0.0013322816)
(5.1995053 -0.16310337 0.0013932903)
(5.2198141 -0.16679607 0.0014571146)
(5.2405632 -0.16891445 0.0015233589)
(5.2614909 -0.16942924 0.0015918205)
(5.2674249 -0.19459307 0.0016733365)
(5.2447808 -0.19386592 0.0015951833)
(5.2223229 -0.19127722 0.0015205023)
(5.2003497 -0.18683612 0.0014493213)
(5.1791718 -0.18059418 0.0013819522)
(5.1591213 -0.17266193 0.0013185028)
(5.1405292 -0.16322625 0.0012596551)
(5.1236939 -0.15255676 0.0012048639)
(5.1088467 -0.14100803 0.0011543896)
(5.096114 -0.12898301 0.0011071368)
(5.0854948 -0.11691292 0.0010621616)
(5.076849 -0.10517255 0.0010199459)
(5.069949 -0.094023062 0.00097886489)
(5.0645498 -0.08364235 0.00093945666)
(5.0604067 -0.074123987 0.00090192015)
(5.0572949 -0.065514244 0.00086575551)
(5.0550096 -0.057798426 0.00083157025)
(5.0533806 -0.050945791 0.00079913646)
(5.0522636 -0.044893148 0.00076873776)
(5.0515434 -0.039577823 0.00074000131)
(5.0511266 -0.034926272 0.00071289969)
(5.0509398 -0.030869005 0.00068697508)
(5.0509253 -0.027338503 0.0006624153)
(5.0510384 -0.024272086 0.00063899264)
(5.0512443 -0.021612947 0.00061663967)
(5.0515165 -0.019308406 0.00059582302)
(5.0518346 -0.017314679 0.0005761039)
(5.05597 -0.01808308 0.00060262064)
(5.0553357 -0.020134649 0.00062282059)
(5.0547013 -0.022514199 0.00064402242)
(5.0540811 -0.025272751 0.00066666989)
(5.0534951 -0.028468642 0.0006904491)
(5.0529711 -0.032169863 0.00071551942)
(5.0525474 -0.036449332 0.000742194)
(5.0522759 -0.041392277 0.00077036965)
(5.0522266 -0.047085469 0.00080053008)
(5.0524924 -0.05362823 0.00083269397)
(5.0531939 -0.061109516 0.00086694503)
(5.0544872 -0.069626685 0.00090283273)
(5.0565691 -0.07924483 0.00094072386)
(5.0596839 -0.090013119 0.00098032681)
(5.0641157 -0.10191079 0.0010211705)
(5.0701859 -0.11486044 0.0010632454)
(5.0782391 -0.12867605 0.0011053111)
(5.0886247 -0.14305094 0.0011496043)
(5.1015806 -0.15749024 0.0011967402)
(5.1171177 -0.17138957 0.0012475826)
(5.1350691 -0.18422043 0.0013053656)
(5.1551163 -0.19552423 0.0013694761)
(5.1768657 -0.20497962 0.0014399471)
(5.1998936 -0.21238572 0.0015156654)
(5.2237944 -0.21764377 0.0015962192)
(5.2481983 -0.22072829 0.0016812365)
(5.2727716 -0.22167249 0.0017713177)
(5.2769935 -0.25077215 0.0018844629)
(5.2502663 -0.24962948 0.0017790901)
(5.2236743 -0.24605715 0.0016810121)
(5.1975504 -0.23994265 0.0015881686)
(5.1723533 -0.23125731 0.0015004498)
(5.1485791 -0.22007089 0.0014194164)
(5.1267815 -0.20658823 0.0013475177)
(5.1074976 -0.19117992 0.0012861724)
(5.0911863 -0.17444395 0.0012377191)
(5.0780869 -0.15707589 0.0011947273)
(5.068181 -0.13996496 0.0011555932)
(5.061057 -0.12377264 0.0011168898)
(5.0561774 -0.10884641 0.0010752875)
(5.0530592 -0.095350154 0.0010334268)
(5.0512877 -0.083323959 0.00099221933)
(5.0505099 -0.072737315 0.00095193409)
(5.0504389 -0.063488046 0.0009134576)
(5.0508541 -0.055462409 0.00087715166)
(5.0515917 -0.04851749 0.00084277366)
(5.0525303 -0.042534925 0.00081033815)
(5.0535864 -0.037383268 0.00077990235)
(5.0546965 -0.032956427 0.00075115813)
(5.0558194 -0.029151512 0.0007242131)
(5.0569262 -0.025884283 0.0006987263)
(5.0579991 -0.023076921 0.00067468348)
(5.059027 -0.020664617 0.00065218374)
(5.0600031 -0.018591051 0.0006308665)
(5.0636346 -0.018860919 0.00069196049)
(5.0622974 -0.020894012 0.00071504571)
(5.0608534 -0.023267666 0.00073969302)
(5.0592985 -0.026043724 0.00076615581)
(5.0576341 -0.029290685 0.00079435548)
(5.0558639 -0.033097292 0.00082402434)
(5.0540042 -0.037557574 0.00085581)
(5.0520793 -0.042794356 0.00088968009)
(5.050136 -0.048935634 0.00092610398)
(5.0482446 -0.056141614 0.00096468338)
(5.0465172 -0.064577831 0.001005544)
(5.045113 -0.0744422 0.001048202)
(5.0442694 -0.085916119 0.0010905543)
(5.0443113 -0.099183438 0.0011319184)
(5.0456629 -0.11435373 0.0011717211)
(5.0488509 -0.1314664 0.0012068981)
(5.0545469 -0.15041223 0.0012338266)
(5.0635954 -0.17083859 0.0012575337)
(5.0767214 -0.19186599 0.0012859166)
(5.093938 -0.21210513 0.00131957)
(5.1148638 -0.23063872 0.001379348)
(5.1388033 -0.24668039 0.0014602939)
(5.1650116 -0.25982352 0.0015599157)
(5.1927593 -0.26988393 0.0016682192)
(5.2214114 -0.27685572 0.0017797813)
(5.2504737 -0.28087515 0.0018963907)
(5.2795646 -0.28212563 0.0020240697)
(5.3083936 -0.28081615 0.0021613765)
(5.3367243 -0.2771134 0.0023084187)
(5.3420245 -0.3098102 0.0025638384)
(5.3114267 -0.31388053 0.0023824548)
(5.2801897 -0.31544099 0.0022146832)
(5.2485016 -0.31425746 0.0020631335)
(5.2166488 -0.30991332 0.0019247616)
(5.1850491 -0.30215699 0.0017889681)
(5.1542925 -0.29074608 0.0016447912)
(5.1251207 -0.27552809 0.0015131922)
(5.0984814 -0.25656076 0.0014098249)
(5.075446 -0.23425989 0.0013423399)
(5.0571062 -0.20967779 0.001332885)
(5.0441358 -0.18402479 0.0013298445)
(5.036525 -0.15960194 0.0013356328)
(5.0329661 -0.13758247 0.0013322229)
(5.0321448 -0.11820091 0.0013103338)
(5.0331467 -0.1014048 0.0012781936)
(5.0353195 -0.087016925 0.0012395715)
(5.0381663 -0.074810738 0.0011960324)
(5.0413331 -0.064495448 0.0011489861)
(5.0445836 -0.055803676 0.0011014257)
(5.0477807 -0.04847395 0.0010555996)
(5.0508343 -0.042299779 0.0010121325)
(5.053704 -0.037082918 0.000971619)
(5.0563626 -0.032676204 0.00093362276)
(5.0588137 -0.028937644 0.00089875198)
(5.0610571 -0.025767317 0.00086594432)
(5.0631082 -0.023067598 0.00083551326)
(5.0649767 -0.020768202 0.00080694751)
(5.0666807 -0.018802152 0.00078048512)
(5.0687821 -0.018754737 0.00095116351)
(5.0667226 -0.020570456 0.00098222586)
(5.0644399 -0.022699189 0.0010160747)
(5.0618999 -0.025208527 0.0010526602)
(5.059081 -0.028167171 0.0010929924)
(5.0559437 -0.03167742 0.0011365381)
(5.0524681 -0.035844762 0.0011843133)
(5.0486202 -0.040821213 0.001235595)
(5.0443949 -0.046772463 0.0012905009)
(5.0397911 -0.053927557 0.0013480832)
(5.034859 -0.062541988 0.0014068864)
(5.0296909 -0.072949345 0.0014630482)
(5.0244934 -0.085528573 0.0015099903)
(5.019621 -0.10072768 0.0015449216)
(5.0156124 -0.11897358 0.0015672286)
(5.0132028 -0.14070812 0.0015698348)
(5.0135745 -0.16632331 0.0015232341)
(5.0188035 -0.19575283 0.0014342429)
(5.031354 -0.22762471 0.0013552883)
(5.0512378 -0.257935 0.0013061921)
(5.0771403 -0.28495651 0.001397807)
(5.1072852 -0.30739509 0.0015483833)
(5.1401604 -0.32499788 0.0017337749)
(5.1745201 -0.3379404 0.0019328942)
(5.2094609 -0.34647861 0.0021255317)
(5.2444207 -0.35088959 0.0023388837)
(5.278957 -0.35167882 0.0025389065)
(5.3127319 -0.34963671 0.0027823027)
(5.3456535 -0.34507398 0.0030316642)
(5.3484363 -0.38063038 0.0037915707)
(5.3131111 -0.38561271 0.0034955023)
(5.2767238 -0.3883564 0.0031863632)
(5.2389927 -0.38823066 0.002947875)
(5.2003603 -0.38451232 0.0027712553)
(5.1612372 -0.37616919 0.0024894008)
(5.1223856 -0.36248228 0.0020303385)
(5.0847507 -0.34282493 0.0015342836)
(5.0498993 -0.31670586 0.0010998192)
(5.0199254 -0.28409192 0.00082463101)
(4.9977312 -0.24667183 0.0008367012)
(4.9859943 -0.20625879 0.00098190815)
(4.9845861 -0.17105378 0.0012898784)
(4.9889475 -0.1417838 0.0015161995)
(4.995875 -0.11782042 0.0016263262)
(5.0038268 -0.098319443 0.0016780267)
(5.0120319 -0.082551338 0.0016921226)
(5.0199809 -0.069830004 0.0016766041)
(5.0273795 -0.059532828 0.0016345499)
(5.0341117 -0.051160966 0.0015790903)
(5.040169 -0.044311974 0.0015190327)
(5.0455676 -0.038685045 0.001458049)
(5.0503693 -0.03402536 0.0013992576)
(5.0546209 -0.03015526 0.0013431533)
(5.0583994 -0.026914988 0.00129208)
(5.0617466 -0.024199207 0.0012443517)
(5.0647286 -0.021903781 0.0012008665)
(5.0673792 -0.019962122 0.0011601294)
(5.0697526 -0.018305834 0.0011226859)
(5.068292 -0.018450916 0.0014243879)
(5.0656386 -0.019871907 0.0014604991)
(5.0626543 -0.021534012 0.001498764)
(5.0592632 -0.023499384 0.0015392824)
(5.055421 -0.025824215 0.0015810541)
(5.0510338 -0.028602463 0.0016237601)
(5.0460361 -0.031928079 0.0016644934)
(5.0403088 -0.0359465 0.0017000636)
(5.0337521 -0.040829934 0.0017225062)
(5.0262393 -0.046828365 0.0017258224)
(5.0176687 -0.054263995 0.0016990861)
(5.0079474 -0.063570844 0.0016295629)
(4.9970512 -0.075338631 0.0014931712)
(4.9851668 -0.090346698 0.0012733709)
(4.9727241 -0.10958971 0.00096503311)
(4.9603155 -0.13439353 0.00054966649)
(4.949397 -0.16696845 -0.00010274331)
(4.9445972 -0.2099657 -0.0010039487)
(4.954948 -0.26155672 -0.0010852272)
(4.9813594 -0.31082547 -0.00075260869)
(5.0174836 -0.35142766 0.00023534907)
(5.0593467 -0.38241596 0.0011824109)
(5.1036934 -0.40463462 0.0021356385)
(5.1484872 -0.41988539 0.0027319655)
(5.1925101 -0.43034479 0.0028135699)
(5.2340201 -0.43806523 0.0031357954)
(5.2750627 -0.43312895 0.0037685142)
(5.3142902 -0.42903678 0.0045171726)
(5.3521917 -0.4227006 0.0052442009)
(5.3885894 -0.41457348 0.0059042537)
(5.4014071 -0.44246923 0.0042160859)
(5.3835127 -0.44221985 0.0036856612)
(5.3643549 -0.44993095 0.0042642122)
(5.3451957 -0.44878778 0.0035481225)
(5.3252772 -0.45597749 0.0041789552)
(5.3055184 -0.45436912 0.0032981479)
(5.285275 -0.46087435 0.0038478992)
(5.2646917 -0.4583447 0.0028069023)
(5.2457174 -0.46343678 0.0030458331)
(5.2247952 -0.45423998 0.0019212648)
(5.2060677 -0.46436407 -0.00075628162)
(5.2010589 -0.4990852 0.00045104391)
(5.1899859 -0.51152573 0.0035636905)
(5.1798175 -0.47650497 0.0024683305)
(5.1335355 -0.46905926 0.0024430824)
(5.0822779 -0.45629559 0.00086972321)
(5.0284663 -0.43480214 -0.0019554985)
(4.9752525 -0.40152083 -0.0055702344)
(4.927043 -0.3542003 -0.009766165)
(4.8932166 -0.29117718 -0.013567184)
(4.8869169 -0.2125906 -0.011012309)
(4.9035342 -0.16490108 -0.0060933504)
(4.9266575 -0.12717627 -0.0036119173)
(4.9471918 -0.10061834 -0.0022541489)
(4.9649697 -0.081632065 -0.0012365179)
(4.9806926 -0.06752904 -0.00047644107)
(4.9943973 -0.05683691 3.9566038e-05)
(5.0061784 -0.048603767 0.00037462785)
(5.0162857 -0.04215778 0.00059221222)
(5.0249464 -0.037036125 0.00073689977)
(5.0323663 -0.032910051 0.00083197756)
(5.0387409 -0.029542695 0.00088654344)
(5.0442387 -0.02677009 0.00091599026)
(5.0490076 -0.024464001 0.00092653475)
(5.0531469 -0.022534686 0.00092641751)
(5.0567613 -0.020903264 0.00091416848)
(5.0599153 -0.01952083 0.00089622876)
(5.0626901 -0.018337714 0.0008707971)
(5.0478776 -0.018226 0.00025237526)
(5.0452923 -0.019177004 0.00027468843)
(5.0422836 -0.020272127 0.00029673883)
(5.0387831 -0.021543005 0.00031938347)
(5.034698 -0.023026807 0.00034028243)
(5.0299279 -0.024783334 0.00036041914)
(5.0243352 -0.026892551 0.00037579712)
(5.017777 -0.02944404 0.00037969723)
(5.010022 -0.032552134 0.00035774796)
(5.000834 -0.036374069 0.00029565463)
(4.9899017 -0.041187208 0.00018912856)
(4.9768832 -0.047377717 4.2662162e-05)
(4.9612795 -0.05550791 -0.0001373449)
(4.9425437 -0.066401208 -0.00032180131)
(4.9197194 -0.081534782 -0.00027976789)
(4.8917016 -0.10293886 0.00062383117)
(4.8565408 -0.13273014 0.0028389955)
(4.8025348 -0.14644079 0.0033106567)
(4.7523474 -0.13115909 0.0055526816)
(4.6780415 -0.07481403 -0.018128179)
(4.6457909 -0.097162351 -0.018908483)
(4.5675341 -0.13018648 -0.0081165625)
(4.4800178 -0.15862305 0.0097307582)
(4.2316736 -0.32413732 0.012771818)
(4.0400111 -0.29433292 0.012023443)
(4.2392343 -0.5583777 0.019642595)
(4.37603 -0.67467486 -0.032741753)
(4.5468834 -0.60624408 -0.012000334)
(4.6038564 -0.59517287 -0.0017075481)
(4.6481672 -0.59483063 -0.0013195213)
(4.6820249 -0.60070959 -4.1302311e-05)
(4.7107685 -0.60942962 0.00053899062)
(4.728288 -0.61242582 -0.0020260236)
(4.7458632 -0.60649521 -0.0023112369)
(4.7625695 -0.60359678 -0.0024669308)
(4.7849072 -0.61231029 -0.0025666069)
(4.7983648 -0.61416318 -0.0033343793)
(4.8141408 -0.61149869 -0.0027887287)
(4.8300483 -0.60870853 -0.0032313415)
(4.8678405 -0.56856425 -0.0041315555)
(4.9091918 -0.58221428 0.00064655849)
(4.9485742 -0.58467133 0.00019539718)
(4.9469726 -0.60696382 -0.003180306)
(4.9600358 -0.60924191 0.00031838183)
(4.9808213 -0.60925921 -0.0032780081)
(4.9978153 -0.60576176 -0.0023956361)
(5.0187249 -0.60332513 -0.0016279786)
(5.0356505 -0.60215128 -0.0011905359)
(5.0524919 -0.60072808 -0.00075602007)
(5.0677684 -0.59781935 -0.00064625967)
(5.0808549 -0.59539248 -0.00073218493)
(5.0914293 -0.59598675 -0.00057899408)
(5.0970078 -0.59632108 -0.0011157791)
(5.106867 -0.59361007 -0.00047787523)
(5.1171441 -0.59061848 -9.3318306e-05)
(5.1292931 -0.59374596 -0.00010149897)
(5.1381704 -0.58660387 -0.0012658568)
(5.1478026 -0.58252841 -0.00074748063)
(5.1516892 -0.58131122 -0.00082909648)
(5.1780947 -0.56617772 -0.00020619134)
(5.1992789 -0.56575982 0.0010728441)
(5.2270072 -0.56017483 0.0021244552)
(5.2441396 -0.55680132 0.00091223633)
(5.2408137 -0.56691505 -0.00096509783)
(5.2476074 -0.56787488 -0.00064419781)
(5.2598297 -0.56592976 -0.0014046222)
(5.2725247 -0.56023585 -0.0011823721)
(5.2841875 -0.55588349 -0.00099058718)
(5.2949217 -0.55281328 -0.00049721923)
(5.3052902 -0.55145595 -0.00020477872)
(5.3170826 -0.55021884 0.00010557973)
(5.3290185 -0.54637428 0.00013039517)
(5.3373773 -0.53946482 -0.00015885863)
(5.3399506 -0.5381777 -0.00055229923)
(5.3466623 -0.53566463 7.5506111e-05)
(5.3551548 -0.53310147 0.00086507964)
(5.3620592 -0.53361796 0.00091563808)
(5.366903 -0.53257777 0.00033970552)
(5.3778754 -0.52975643 0.00075989107)
(5.3828056 -0.52364449 -0.00013226345)
(5.3901604 -0.51107877 0.00066990527)
(5.4070458 -0.50762155 0.0016570614)
(5.1291077 -0.0006246891 0.0019071797)
(5.122903 -0.00071451135 0.0019981411)
(5.1162928 -0.00079093175 0.0020701704)
(5.1093554 -0.00085358672 0.0021234521)
(5.1021693 -0.00090260565 0.0021586365)
(5.0948103 -0.00093812883 0.0021766809)
(5.0873533 -0.0009606031 0.0021783037)
(5.0798649 -0.00097074827 0.0021650451)
(5.0724103 -0.00096926416 0.0021381636)
(5.0650496 -0.00095711575 0.0020993324)
(5.057834 -0.000935438 0.0020498149)
(5.0508084 -0.00090540734 0.0019914807)
(5.0440154 -0.00086835566 0.0019256882)
(5.0374826 -0.00082548499 0.0018541019)
(5.0312401 -0.00077826178 0.0017781749)
(5.0253006 -0.0007278326 0.001699323)
(5.0196821 -0.00067556878 0.001618777)
(5.0143842 -0.00062236236 0.001537505)
(5.009415 -0.00056925642 0.0014564219)
(5.004765 -0.0005170112 0.0013765614)
(5.0004322 -0.00046633992 0.0012983964)
(4.996403 -0.00041784517 0.0012227627)
(4.9926674 -0.00037195705 0.0011499395)
(4.9892106 -0.00032885514 0.0010802687)
(4.9860166 -0.00028898421 0.0010140701)
(4.9830716 -0.00025217741 0.00095122807)
(4.9803556 -0.00021867099 0.00089180259)
(4.9778582 -0.00018822449 0.00083576171)
(4.9755561 -0.00016091468 0.00078282708)
(4.9759832 -0.0001439354 0.0024243709)
(4.9763957 -0.00013980796 0.0041857866)
(4.9767672 -0.00014646285 0.0060328903)
(4.9771318 -0.0001486081 0.0079242215)
(4.9774822 -0.0001439373 0.0098015518)
(4.9803099 -0.00017278975 0.014128804)
(4.9799883 -0.00017252924 0.012303597)
(4.9796598 -0.00017685966 0.010386242)
(4.9793505 -0.00018009539 0.0084075896)
(4.9790148 -0.00017615501 0.0064083085)
(4.9786715 -0.00016858926 0.0044527641)
(4.9782715 -0.00017181421 0.0025834227)
(4.980763 -0.00020321981 0.0027526384)