/*--------------------------------*- C++ -*----------------------------------*\
| =========                 |                                                 |
| \\      /  F ield         | OpenFOAM: The Open Source CFD Toolbox           |
|  \\    /   O peration     | Version:  v2012                                 |
|   \\  /    A nd           | Website:  www.openfoam.com                      |
|    \\/     M anipulation  |                                                 |
\*---------------------------------------------------------------------------*/
FoamFile
{
    version     2.0;
    format      ascii;
    class       volScalarField;
    location    "200";
    object      k;
}
// * * * * * * * * * * * * * * * * * * * * * * * * * * * * * * * * * * * * * //

dimensions      [0 2 -2 0 0 0 0];


internalField   nonuniform List<scalar> 
74980
(
0.37143457
0.37146094
0.37341113
0.37337983
0.37340358
0.37338395
0.37340953
0.37338873
0.37340312
0.37339617
0.37339769
0.37339549
0.37339442
0.37339392
0.37339375
0.3733937
0.3733937
0.37339375
0.37339391
0.37339442
0.37339549
0.37339769
0.37339617
0.37340312
0.37338873
0.37340953
0.37338396
0.37340358
0.37337984
0.37341114
0.37339623
0.37343083
0.37341143
0.37342854
0.37341967
0.37342111
0.37341792
0.37341679
0.37341617
0.37341609
0.37341611
0.37341617
0.37341622
0.37341627
0.3734163
0.37341633
0.37341636
0.37341639
0.37341641
0.37341643
0.37341645
0.37341647
0.37341649
0.3734165
0.37341652
0.37341654
0.37341654
0.37341655
0.37343389
0.37343378
0.37343367
0.37343356
0.37343345
0.37343324
0.3734311
0.37342842
0.3734256
0.3734229
0.37342058
0.37341886
0.37341778
0.37341722
0.37341695
0.37341681
0.37341669
0.37341656
0.37341648
0.3734165
0.37341706
0.37341814
0.37342128
0.37341979
0.37342862
0.37341148
0.37343085
0.37339623
0.37145578
0.37147392
0.37146217
0.3714744
0.37147005
0.37147056
0.37146768
0.37146597
0.37146504
0.37146482
0.37146489
0.37146508
0.37146531
0.37146559
0.37146602
0.37146678
0.37146802
0.37146987
0.3714723
0.37147507
0.37147788
0.37148047
0.37148236
0.37148285
0.37148311
0.37148338
0.37148365
0.37148389
0.28550561
0.28684437
0.28818004
0.28951637
0.2908559
0.29220048
0.29355171
0.29491083
0.29627881
0.29765634
0.29904393
0.30044192
0.30185051
0.30326987
0.30470014
0.30614149
0.3075941
0.30905827
0.31053435
0.31202276
0.31352402
0.31503871
0.31656744
0.31811087
0.31966964
0.32124441
0.3228358
0.32444438
0.32607065
0.3277151
0.3293781
0.33106003
0.33276118
0.33448179
0.33622209
0.33798225
0.33976245
0.34156283
0.34338352
0.3452247
0.34708658
0.34896951
0.3508742
0.35280219
0.35475643
0.35674274
0.35876834
0.3608438
0.36296348
0.36513526
0.36728611
0.36942843
0.37143225
0.37146097
0.36941885
0.36728128
0.36511564
0.36295556
0.3608376
0.35876694
0.35674254
0.35475671
0.35280245
0.35087454
0.34896998
0.34708719
0.34522541
0.34338429
0.34156362
0.33976324
0.33798304
0.33622288
0.33448259
0.33276199
0.33106088
0.329379
0.32771606
0.32607171
0.32444554
0.3228371
0.32124587
0.31967129
0.31811272
0.31656953
0.31504104
0.31352662
0.31202563
0.3105375
0.30906171
0.30759782
0.30614547
0.30470438
0.30327433
0.30185518
0.30044678
0.29904891
0.29766139
0.29628386
0.29491581
0.2935565
0.29220493
0.29085988
0.28951979
0.28818274
0.28684615
0.28550627
0.28764167
0.28753457
0.28742476
0.28731148
0.28719486
0.28707316
0.28694596
0.28681072
0.28666819
0.2865179
0.2863598
0.28619628
0.28602789
0.28552721
0.28557079
0.28563183
0.2857055
0.28578877
0.28588219
0.28598545
0.2860993
0.28622349
0.28635789
0.28650162
0.28665334
0.28681076
0.28697205
0.28713721
0.28730247
0.28746427
0.28762155
0.28777284
0.28791709
0.2880535
0.28818282
0.28830523
0.28842244
0.28853485
0.28864413
0.28875081
0.28885599
0.28895998
0.28906365
0.2891686
0.29037721
0.29027451
0.29017309
0.29007129
0.28996871
0.28986524
0.28975965
0.28965127
0.28953861
0.28942103
0.28929716
0.28916658
0.28902827
0.28888325
0.28873194
0.28857615
0.28841718
0.28825739
0.28810066
0.28794746
0.28779968
0.28765955
0.28752877
0.28740798
0.28729771
0.28719813
0.2871089
0.28703029
0.28696175
0.28690574
0.28686612
0.28820146
0.28823786
0.28828967
0.2883538
0.28842829
0.28851375
0.28860995
0.28871682
0.28883439
0.28896172
0.28909843
0.28924251
0.28939182
0.28954439
0.28969923
0.28985286
0.29000321
0.29014891
0.29028824
0.29042098
0.29054616
0.29066494
0.2907779
0.29088623
0.29099075
0.29109274
0.29119302
0.29129269
0.29139194
0.29149108
0.29159146
0.29281557
0.29271774
0.29262105
0.29252445
0.29242785
0.29233066
0.29223219
0.29213129
0.29202706
0.29191832
0.29180422
0.29168381
0.29155616
0.29142184
0.29128109
0.29113562
0.29098658
0.29083614
0.29068737
0.29054163
0.29040098
0.29026754
0.29014345
0.290029
0.28992531
0.28983233
0.28975037
0.28967945
0.28961915
0.28957109
0.2895376
0.29087659
0.29090782
0.29095252
0.29100942
0.29107719
0.29115597
0.29124581
0.29134652
0.29145789
0.291579
0.2917093
0.29184675
0.29198926
0.2921347
0.29228141
0.29242648
0.29256776
0.29270422
0.29283429
0.29295751
0.29307379
0.29318379
0.29328871
0.29338923
0.29348674
0.29358194
0.29367608
0.29376962
0.2938635
0.29395766
0.29405292
0.29530597
0.29521335
0.29512176
0.29503059
0.2949398
0.29484853
0.29475631
0.29466189
0.29456461
0.29446305
0.29435653
0.29424379
0.29412419
0.29399772
0.29386484
0.29372697
0.29358517
0.29344161
0.29329906
0.29315941
0.29302487
0.29289748
0.29277923
0.29267078
0.29257298
0.29248608
0.29241025
0.29234546
0.29229169
0.29224991
0.29222084
0.29357159
0.29359875
0.29363803
0.29368892
0.29375088
0.29382396
0.29390795
0.29400298
0.29410859
0.29422411
0.29434875
0.29448064
0.29461775
0.29475784
0.29489884
0.29503805
0.29517328
0.2953033
0.29542694
0.29554364
0.29565354
0.29575727
0.29585601
0.29595056
0.29604226
0.29613188
0.29622053
0.29630878
0.29639738
0.29648648
0.29657654
0.29786563
0.29777802
0.29769126
0.29760501
0.29751902
0.29743266
0.29734525
0.2972558
0.29716344
0.29706692
0.29696532
0.29685755
0.29674296
0.29662139
0.29649343
0.29636013
0.29622293
0.29608401
0.295946
0.29581114
0.2956817
0.29555968
0.29544682
0.29534398
0.29525177
0.29517056
0.29510023
0.29504093
0.29499262
0.29495559
0.29493016
0.29629752
0.29632143
0.29635634
0.29640224
0.29645899
0.29652659
0.29660503
0.29669441
0.29679446
0.29690468
0.29702413
0.29715124
0.29728404
0.29742025
0.29755751
0.29769322
0.29782521
0.29795183
0.29807202
0.29818521
0.29829155
0.29839171
0.29848663
0.29857738
0.29866508
0.29875073
0.2988352
0.29891927
0.29900347
0.29908815
0.29917356
0.30049986
0.30041633
0.30033341
0.30025087
0.30016834
0.30008527
0.30000091
0.29991438
0.29982468
0.29973069
0.29963136
0.29952577
0.29941332
0.29929387
0.29916802
0.29903691
0.29890229
0.29876642
0.29863184
0.29850103
0.29837624
0.29825937
0.29815188
0.29805467
0.29796818
0.29789255
0.29782766
0.29777344
0.29772984
0.2976969
0.29767439
0.29906121
0.29908246
0.29911355
0.29915491
0.29920662
0.29926876
0.2993415
0.29942501
0.29951926
0.29962388
0.29973804
0.29986043
0.2999892
0.30012215
0.30025674
0.30039047
0.30052099
0.30064648
0.30076565
0.30087792
0.30098333
0.30108241
0.30117606
0.3012653
0.30135122
0.30143483
0.30151702
0.30159848
0.30167981
0.30176139
0.30184346
0.3032027
0.30312163
0.30304091
0.30296028
0.30287935
0.30279753
0.30271413
0.30262827
0.30253894
0.30244509
0.30234574
0.30224005
0.30212755
0.3020083
0.30188296
0.30175291
0.30162008
0.30148682
0.30135568
0.30122914
0.30110937
0.30099813
0.3008966
0.30080551
0.30072513
0.3006554
0.30059606
0.30054688
0.30050772
0.30047841
0.30045842
0.30186615
0.30188492
0.30191251
0.30194948
0.30199606
0.3020525
0.30211909
0.30219614
0.30228381
0.30238193
0.30248993
0.30260672
0.30273066
0.30285966
0.3029913
0.30312304
0.30325251
0.3033777
0.30349716
0.30361013
0.30371646
0.30381651
0.30391103
0.30400095
0.30408731
0.30417106
0.30425306
0.30433401
0.3044145
0.30449491
0.3045755
0.30595936
0.30587866
0.30579798
0.30571703
0.30563547
0.30555272
0.30546809
0.30538076
0.30528981
0.30519427
0.30509327
0.30498618
0.30487272
0.30475315
0.30462834
0.30449981
0.30436959
0.30424005
0.30411371
0.30399288
0.30387955
0.30377523
0.30368086
0.30359691
0.30352344
0.30346018
0.30340676
0.30336283
0.30332808
0.30330221
0.30328464
0.30471402
0.3047304
0.30475455
0.30478706
0.30482827
0.30487853
0.30493827
0.30500792
0.30508781
0.305178
0.30527817
0.30538746
0.30550456
0.30562759
0.30575435
0.30588243
0.30600948
0.30613347
0.30625282
0.30636658
0.30647438
0.30657639
0.30667314
0.30676539
0.30685404
0.30693996
0.30702392
0.30710659
0.30718851
0.30727004
0.30735144
0.30874916
0.30866653
0.30858366
0.3085003
0.3084161
0.30833057
0.30824307
0.30815288
0.3080592
0.30796124
0.30785835
0.30775009
0.30763644
0.30751784
0.30739533
0.30727049
0.30714534
0.30702214
0.30690318
0.30679053
0.30668589
0.30659043
0.30650484
0.30642933
0.30636377
0.30630773
0.30626074
0.30622232
0.30619208
0.30616965
0.30615444
0.30760611
0.30762016
0.30764087
0.30766882
0.3077044
0.30774802
0.30780019
0.30786144
0.30793223
0.30801279
0.30810303
0.30820239
0.30830985
0.30842391
0.30854267
0.30866401
0.30878576
0.30890599
0.30902312
0.30913608
0.30924432
0.30934777
0.30944674
0.30954177
0.30963354
0.30972275
0.30981007
0.30989607
0.3099812
0.31006581
0.31015008
0.31155223
0.31146602
0.31137946
0.31129238
0.31120448
0.31111535
0.31102449
0.31093131
0.31083522
0.31073564
0.31063215
0.31052457
0.31041307
0.31029826
0.31018123
0.31006351
0.30994694
0.30983351
0.30972517
0.3096236
0.30953012
0.3094456
0.30937044
0.30930465
0.30924793
0.30919976
0.30915959
0.30912689
0.30910123
0.30908222
0.30906933
0.31054446
0.31055622
0.31057354
0.31059692
0.31062673
0.31066341
0.31070749
0.31075954
0.3108201
0.31088954
0.31096793
0.31105499
0.31115003
0.31125192
0.31135918
0.31147007
0.3115828
0.31169565
0.3118072
0.31191636
0.31202248
0.3121253
0.31222489
0.31232157
0.31241577
0.31250799
0.31259874
0.31268843
0.31277742
0.31286596
0.31295421
0.31435536
0.31426521
0.31417487
0.31408423
0.31399309
0.31390115
0.31380807
0.31371343
0.31361687
0.31351802
0.31341671
0.31331295
0.31320709
0.31309978
0.31299205
0.31288521
0.31278082
0.31268047
0.31258567
0.31249768
0.31241744
0.31234549
0.312282
0.31222681
0.31217951
0.31213955
0.31210635
0.3120794
0.31205827
0.3120426
0.31203195
0.31353232
0.3135419
0.31355597
0.31357492
0.31359907
0.31362883
0.3136647
0.31370725
0.31375703
0.31381447
0.3138798
0.31395294
0.3140335
0.31412074
0.31421359
0.31431079
0.31441094
0.3145127
0.31461486
0.31471648
0.3148169
0.31491576
0.31501297
0.3151086
0.3152029
0.31529613
0.31538864
0.31548067
0.31557246
0.31566417
0.31575587
0.31715674
0.31706409
0.31697165
0.31687941
0.31678725
0.316695
0.31660247
0.31650943
0.31641568
0.3163211
0.31622565
0.31612949
0.316033
0.31593681
0.31584176
0.31574891
0.31565943
0.31557448
0.31549511
0.31542217
0.31535623
0.31529757
0.31524617
0.31520175
0.31516387
0.31513198
0.31510556
0.31508411
0.31506727
0.31505472
0.31504615
0.31657408
0.3165817
0.31659281
0.31660767
0.31662654
0.31664978
0.31667782
0.31671119
0.3167504
0.3167959
0.31684799
0.31690676
0.31697206
0.31704346
0.31712031
0.31720176
0.31728685
0.31737462
0.31746418
0.31755476
0.3176458
0.31773692
0.31782795
0.31791881
0.3180096
0.31810044
0.31819148
0.31828285
0.31837467
0.318467
0.31855984
0.3199677
0.31987564
0.31978439
0.31969399
0.31960442
0.3195156
0.31942746
0.31933989
0.31925285
0.3191663
0.31908035
0.31899518
0.31891114
0.31882873
0.31874861
0.3186715
0.3185982
0.31852946
0.31846594
0.31840813
0.31835632
0.31831057
0.31827074
0.3182365
0.31820741
0.31818298
0.31816275
0.31814629
0.31813328
0.31812351
0.31811677
0.31967488
0.31968082
0.31968937
0.31970067
0.3197149
0.31973237
0.31975344
0.31977853
0.31980812
0.31984262
0.31988236
0.31992755
0.31997817
0.32003407
0.32009488
0.32016013
0.32022922
0.32030153
0.32037648
0.32045354
0.32053226
0.32061235
0.32069361
0.32077595
0.32085935
0.3209438
0.32102939
0.32111614
0.32120408
0.3212932
0.32138347
0.32281058
0.32272317
0.32263721
0.32255276
0.32246983
0.32238845
0.32230857
0.32223018
0.32215328
0.32207792
0.3220042
0.32193229
0.32186247
0.32179507
0.32173053
0.3216693
0.32161186
0.32155863
0.32150996
0.32146609
0.32142711
0.32139294
0.32136338
0.32133809
0.32131666
0.32129866
0.32128371
0.32127149
0.32126173
0.32125428
0.32124905
0.32283993
0.32284453
0.322851
0.32285938
0.3228698
0.32288248
0.32289771
0.32291583
0.32293723
0.3229623
0.32299137
0.32302467
0.3230623
0.32310424
0.32315035
0.3232004
0.32325409
0.32331107
0.32337099
0.32343354
0.32349843
0.32356546
0.32363448
0.32370539
0.32377814
0.3238527
0.32392909
0.3240073
0.32408733
0.32416913
0.32425265
0.32571326
0.32563451
0.3255577
0.32548288
0.32541009
0.32533934
0.32527065
0.32520402
0.32513946
0.32507703
0.32501681
0.32495892
0.32490352
0.32485082
0.32480105
0.32475446
0.32471129
0.32467173
0.32463594
0.32460398
0.32457583
0.32455134
0.32453029
0.32451236
0.32449718
0.3244844
0.32447372
0.32446489
0.32445774
0.32445214
0.32444808
0.32607399
0.32607758
0.32608243
0.32608853
0.32609597
0.32610492
0.32611556
0.32612817
0.32614305
0.32616055
0.32618098
0.32620456
0.32623146
0.32626172
0.32629533
0.32633221
0.32637225
0.32641528
0.32646114
0.32650967
0.32656072
0.32661419
0.32666997
0.32672801
0.32678826
0.32685072
0.32691538
0.32698222
0.32705123
0.32712239
0.32719563
0.32857037
0.32850757
0.328447
0.32838868
0.32833261
0.3282788
0.32822726
0.32817801
0.32813109
0.32808656
0.32804449
0.32800499
0.32796815
0.32793407
0.32790285
0.32787454
0.32784919
0.32782676
0.32780718
0.32779029
0.32777588
0.32776364
0.32775326
0.32774445
0.327737
0.32773074
0.32772554
0.32772131
0.32771812
0.32938089
0.32938376
0.32938744
0.32939187
0.32939713
0.32940333
0.32941058
0.32941906
0.32942903
0.3294408
0.32945463
0.32947075
0.3294893
0.32951037
0.329534
0.3295602
0.32958895
0.32962019
0.32965389
0.32968998
0.3297284
0.32976913
0.32981212
0.32985735
0.32990482
0.32995452
0.33000645
0.33006061
0.33011701
0.33169252
0.33164253
0.33159471
0.33154904
0.33150552
0.33146415
0.33142491
0.33138781
0.33135284
0.33132002
0.33128936
0.33126089
0.33123463
0.33121059
0.33118878
0.33116921
0.33115183
0.33113661
0.33112345
0.33111222
0.3311027
0.33109465
0.33108777
0.33108183
0.33107667
0.33107225
0.33106847
0.33106526
0.33106266
0.33276368
0.33276606
0.33276888
0.33277211
0.33277585
0.33278015
0.33278502
0.33279056
0.33279702
0.33280464
0.33281369
0.33282435
0.33283675
0.33285097
0.33286706
0.33288506
0.332905
0.33292689
0.33295073
0.33297653
0.33300428
0.33303399
0.33306568
0.33309933
0.33313498
0.33317263
0.3332123
0.333254
0.33489526
0.33485934
0.33482529
0.33479309
0.33476272
0.33473417
0.3347074
0.33468241
0.33465916
0.33463766
0.33461787
0.33459978
0.33458337
0.33456861
0.33455547
0.33454391
0.33453388
0.33452532
0.33451809
0.33451203
0.33450691
0.33450246
0.33449847
0.33449486
0.33449166
0.33448888
0.3344864
0.33448421
0.33622445
0.33622648
0.33622865
0.33623106
0.33623382
0.33623689
0.33624018
0.33624374
0.33624777
0.33625254
0.33625827
0.33626511
0.33627316
0.33628249
0.33629314
0.33630516
0.33631856
0.33633339
0.33634968
0.33636746
0.33638674
0.33640756
0.33642994
0.33645391
0.33647949
0.33650672
0.3365356
0.33656618
0.33826636
0.33824065
0.33821643
0.33819367
0.33817235
0.33815244
0.33813391
0.33811674
0.33810088
0.33808632
0.33807302
0.33806095
0.33805008
0.33804037
0.33803179
0.3380243
0.33801787
0.33801245
0.33800795
0.33800423
0.33800108
0.33799825
0.33799552
0.33799287
0.33799043
0.33798834
0.33798644
0.33798458
0.33976475
0.33976644
0.33976806
0.33976989
0.33977208
0.33977443
0.33977673
0.33977898
0.33978141
0.33978426
0.33978777
0.33979204
0.33979714
0.33980312
0.33981
0.3398178
0.33982656
0.33983631
0.33984707
0.3398589
0.33987181
0.33988585
0.33990103
0.3399174
0.33993498
0.33995379
0.33997387
0.33999524
0.34175211
0.34173456
0.3417181
0.34170273
0.34168839
0.34167508
0.34166276
0.3416514
0.34164097
0.34163145
0.34162279
0.34161498
0.34160797
0.34160174
0.34159626
0.34159151
0.34158748
0.34158414
0.34158144
0.34157928
0.34157744
0.34157565
0.34157369
0.34157155
0.34156952
0.34156791
0.34156657
0.34156508
0.34338566
0.34338691
0.34338795
0.34338938
0.34339132
0.34339333
0.34339504
0.34339645
0.34339782
0.34339943
0.34340148
0.34340407
0.34340724
0.34341099
0.34341534
0.34342028
0.34342586
0.34343208
0.34343897
0.34344658
0.34345492
0.34346403
0.34347392
0.34348464
0.3434962
0.34350863
0.34352195
0.34353619
0.34534671
0.3453353
0.34532464
0.34531472
0.3453055
0.34529698
0.34528911
0.34528189
0.34527528
0.34526926
0.34526381
0.34525889
0.34525449
0.34525058
0.34524715
0.3452442
0.34524172
0.34523972
0.34523818
0.34523702
0.34523604
0.34523492
0.3452334
0.34523146
0.34522955
0.34522827
0.34522758
0.34522666
0.34708823
0.34708869
0.34708896
0.34709011
0.34709204
0.34709397
0.34709536
0.34709623
0.3470969
0.3470977
0.34709883
0.34710036
0.34710229
0.34710461
0.34710731
0.34711038
0.34711383
0.34711769
0.34712197
0.34712668
0.34713187
0.34713754
0.34714372
0.34715043
0.34715768
0.34716551
0.34717392
0.34718293
0.34904427
0.34903724
0.3490307
0.34902461
0.34901898
0.34901377
0.34900897
0.34900457
0.34900054
0.34899688
0.34899356
0.34899055
0.34898786
0.34898546
0.34898335
0.34898154
0.34898004
0.34897888
0.34897807
0.34897756
0.34897715
0.3489765
0.34897522
0.34897326
0.34897125
0.34897023
0.34897049
0.34897069
0.35087469
0.35087352
0.35087256
0.35087344
0.35087553
0.35087752
0.3508787
0.35087916
0.35087934
0.35087961
0.35088016
0.35088103
0.35088219
0.3508836
0.35088525
0.35088712
0.35088921
0.35089152
0.35089408
0.3508969
0.35089999
0.35090336
0.35090704
0.35091102
0.35091534
0.35091999
0.35092501
0.35093039
0.35284163
0.35283759
0.35283381
0.35283031
0.35282706
0.35282406
0.35282128
0.35281873
0.35281639
0.35281425
0.3528123
0.35281053
0.35280892
0.35280748
0.35280619
0.3528051
0.3528042
0.35280356
0.35280322
0.35280315
0.35280318
0.35280293
0.35280188
0.35279988
0.35279773
0.35279707
0.352799
0.35280163
0.3547542
0.35474937
0.35474608
0.3547464
0.35474852
0.35475044
0.35475128
0.3547513
0.35475106
0.35475095
0.35475113
0.35475159
0.35475227
0.35475313
0.35475412
0.35475523
0.35475646
0.35475781
0.35475928
0.35476088
0.35476263
0.35476453
0.35476658
0.3547688
0.3547712
0.35477378
0.35477656
0.35477954
0.35674774
0.3567456
0.3567436
0.35674175
0.35674002
0.35673841
0.35673692
0.35673553
0.35673425
0.35673307
0.35673197
0.35673096
0.35673004
0.35672918
0.35672842
0.35672776
0.35672723
0.35672691
0.35672687
0.35672714
0.35672761
0.35672789
0.35672735
0.35672566
0.35672372
0.35672389
0.35672898
0.35673701
0.35875667
0.3587445
0.35873723
0.3587365
0.35873807
0.35873938
0.35873946
0.35873882
0.35873811
0.35873768
0.35873761
0.35873782
0.35873821
0.35873872
0.35873931
0.35873996
0.35874066
0.3587414
0.3587422
0.35874306
0.35874398
0.35874497
0.35874602
0.35874716
0.35874836
0.35874966
0.35875105
0.35875253
0.36080225
0.36080127
0.36080034
0.36079947
0.36079866
0.36079788
0.36079716
0.36079647
0.36079583
0.36079522
0.36079465
0.36079411
0.36079359
0.3607931
0.36079266
0.36079227
0.36079197
0.36079185
0.36079201
0.36079258
0.36079355
0.36079462
0.36079511
0.36079434
0.36079325
0.36079441
0.36080386
0.36082048
0.36293253
0.36291264
0.36290158
0.3629005
0.36290108
0.36290127
0.36290016
0.36289865
0.36289745
0.36289677
0.36289654
0.3628966
0.36289682
0.36289711
0.36289745
0.36289781
0.36289819
0.36289858
0.36289898
0.36289939
0.36289983
0.36290028
0.36290077
0.36290127
0.36290179
0.36290234
0.36290293
0.36290355
0.3650539
0.36505355
0.3650532
0.36505287
0.36505255
0.36505225
0.36505195
0.36505166
0.36505137
0.36505109
0.36505082
0.36505056
0.36505029
0.36505003
0.36504978
0.36504956
0.3650494
0.36504938
0.36504964
0.36505036
0.36505173
0.36505357
0.36505526
0.36505548
0.36505536
0.36505543
0.36506701
0.36508693
0.36725858
0.3672449
0.36723409
0.36723641
0.36723605
0.36723573
0.36723361
0.36723158
0.36723018
0.36722948
0.36722924
0.36722925
0.36722937
0.36722953
0.36722971
0.3672299
0.36723007
0.36723025
0.36723043
0.3672306
0.36723078
0.36723095
0.36723113
0.36723131
0.36723148
0.36723166
0.36723185
0.36723203
0.36939068
0.3693906
0.36939051
0.36939042
0.36939033
0.36939023
0.36939014
0.36939004
0.36938994
0.36938984
0.36938973
0.36938961
0.36938951
0.36938938
0.36938925
0.36938914
0.36938905
0.36938903
0.3693892
0.36938977
0.36939108
0.36939313
0.36939562
0.36939572
0.36939714
0.36939076
0.36940052
0.36940148
0.37145579
0.37147389
0.37146209
0.37147425
0.37146981
0.37147022
0.37146722
0.3714654
0.37146433
0.37146399
0.37146392
0.37146397
0.37146405
0.37146413
0.3714642
0.37146426
0.37146433
0.3714644
0.37146446
0.37146452
0.37146457
0.37146462
0.37146468
0.3714647
0.37146475
0.3714648
0.37146482
0.37146485
0.3733781
0.37337811
0.37337809
0.37337806
0.37337806
0.37337805
0.37337802
0.373378
0.37337798
0.37337795
0.37337793
0.3733779
0.37337787
0.37337784
0.3733778
0.37337776
0.37337773
0.37337771
0.37337777
0.37337801
0.37337871
0.37337997
0.37338196
0.37338195
0.37338326
0.37337606
0.37338204
0.3733795
0.37339432
0.37337085
0.37334542
0.37332949
0.37332513
0.37332865
0.37333076
0.37333063
0.3733292
0.3733279
0.37332713
0.37332678
0.37332666
0.37332665
0.37332667
0.3733267
0.37332675
0.37332678
0.3733268
0.37332684
0.37332687
0.37332689
0.37332692
0.37332694
0.37332699
0.37332699
0.37332698
0.37332702
0.37332706
0.37332705
0.37328961
0.3732896
0.37328957
0.37328954
0.37328953
0.37328951
0.37328947
0.37328944
0.37328941
0.37328939
0.37328936
0.37328931
0.37328929
0.37328925
0.37328921
0.37328918
0.37328916
0.37328919
0.37328933
0.37328972
0.37329053
0.37329185
0.37329319
0.37329307
0.37329006
0.37328677
0.373293
0.37331848
0.37336189
0.37335221
0.37330827
0.37328039
0.37327385
0.37327752
0.37328087
0.37328104
0.37327962
0.37327825
0.37327741
0.37327701
0.37327687
0.37327684
0.37327686
0.3732769
0.37327694
0.37327698
0.37327702
0.37327706
0.37327709
0.37327713
0.37327716
0.37327719
0.37327722
0.37327726
0.37327729
0.37327732
0.37327734
0.37327736
0.37328146
0.37328142
0.37328138
0.37328135
0.37328131
0.37328126
0.37328123
0.37328119
0.37328115
0.37328111
0.37328107
0.37328103
0.37328098
0.37328094
0.37328089
0.37328085
0.37328082
0.37328085
0.37328099
0.37328138
0.37328225
0.37328369
0.37328522
0.37328512
0.37328169
0.37327762
0.37328359
0.37331129
0.3733578
0.3733588
0.37331599
0.37328962
0.37328422
0.37328846
0.37329188
0.37329188
0.37329027
0.37328878
0.3732879
0.37328751
0.37328737
0.37328736
0.37328739
0.37328744
0.37328749
0.37328754
0.37328759
0.37328764
0.37328769
0.37328774
0.37328778
0.37328783
0.37328787
0.37328792
0.37328798
0.37328802
0.37328806
0.37328812
0.37329152
0.37329146
0.3732914
0.37329134
0.37329128
0.37329122
0.37329117
0.37329111
0.37329106
0.373291
0.37329094
0.37329088
0.37329083
0.37329077
0.37329072
0.37329066
0.37329062
0.37329063
0.37329076
0.37329114
0.37329202
0.37329354
0.3732952
0.37329526
0.3732919
0.37328765
0.37329279
0.37331841
0.37336032
0.37335972
0.37331878
0.37329355
0.37328847
0.37329266
0.37329597
0.37329587
0.3732942
0.37329268
0.3732918
0.37329142
0.37329131
0.37329131
0.37329135
0.37329141
0.37329148
0.37329154
0.3732916
0.37329166
0.37329173
0.3732918
0.37329186
0.37329193
0.37329199
0.37329206
0.37329213
0.3732922
0.37329227
0.37329236
0.37329236
0.37329226
0.37329218
0.3732921
0.37329201
0.37329193
0.37329186
0.37329178
0.3732917
0.37329163
0.37329155
0.37329148
0.37329142
0.37329135
0.37329127
0.37329121
0.37329116
0.37329115
0.37329126
0.37329163
0.3732925
0.37329401
0.37329569
0.3732958
0.37329253
0.37328838
0.37329345
0.37331852
0.37335908
0.37335868
0.37331824
0.37329325
0.37328819
0.37329233
0.37329559
0.37329547
0.3732938
0.3732923
0.37329144
0.37329107
0.37329097
0.37329098
0.37329104
0.37329111
0.3732912
0.37329127
0.37329134
0.37329142
0.3732915
0.37329159
0.37329167
0.37329176
0.37329184
0.37329193
0.37329203
0.37329212
0.37329222
0.37329234
0.37329241
0.37329228
0.37329217
0.37329206
0.37329195
0.37329186
0.37329177
0.37329167
0.37329157
0.37329148
0.37329139
0.37329131
0.37329123
0.37329115
0.37329106
0.37329098
0.37329092
0.3732909
0.37329099
0.37329135
0.3732922
0.3732937
0.37329537
0.37329548
0.37329222
0.37328809
0.37329313
0.3733181
0.37335851
0.37335844
0.37331802
0.37329307
0.37328804
0.37329219
0.37329545
0.37329534
0.37329368
0.37329218
0.37329133
0.37329098
0.37329089
0.37329092
0.37329098
0.37329107
0.37329117
0.37329125
0.37329134
0.37329143
0.37329153
0.37329162
0.37329173
0.37329183
0.37329193
0.37329203
0.37329216
0.37329227
0.37329239
0.37329253
0.37329268
0.37329253
0.3732924
0.37329228
0.37329215
0.37329203
0.37329192
0.37329181
0.3732917
0.3732916
0.37329149
0.3732914
0.37329131
0.37329122
0.37329112
0.37329103
0.37329096
0.37329093
0.37329101
0.37329136
0.37329221
0.3732937
0.37329535
0.37329546
0.37329219
0.37328805
0.37329309
0.37331804
0.37335845
0.37335851
0.3733181
0.37329314
0.3732881
0.37329224
0.37329551
0.37329541
0.37329375
0.37329226
0.37329142
0.37329108
0.373291
0.37329103
0.37329111
0.3732912
0.37329131
0.37329141
0.3732915
0.3732916
0.37329171
0.37329182
0.37329194
0.37329205
0.37329216
0.37329228
0.37329242
0.37329255
0.37329269
0.37329284
0.37329306
0.37329291
0.37329277
0.37329263
0.37329249
0.37329237
0.37329225
0.37329213
0.37329201
0.3732919
0.37329179
0.37329169
0.37329159
0.37329148
0.37329136
0.37329126
0.37329117
0.37329114
0.37329121
0.37329156
0.37329239
0.37329388
0.37329553
0.37329564
0.37329236
0.37328821
0.37329326
0.37331824
0.37335868
0.37335909
0.37331853
0.37329347
0.3732884
0.37329258
0.37329587
0.37329577
0.37329412
0.37329263
0.37329179
0.37329145
0.37329138
0.37329142
0.3732915
0.37329163
0.37329182
0.37329195
0.37329206
0.37329217
0.37329228
0.3732924
0.37329252
0.37329264
0.37329276
0.37329288
0.37329302
0.37329316
0.37329331
0.37329346
0.37329407
0.37329392
0.37329378
0.37329363
0.37329349
0.37329337
0.37329325
0.37329313
0.37329301
0.3732929
0.37329278
0.37329265
0.37329246
0.37329211
0.37329186
0.37329172
0.37329163
0.37329159
0.37329166
0.37329201
0.37329285
0.37329433
0.37329598
0.37329605
0.37329272
0.3732885
0.37329357
0.37331879
0.37335972
0.37336032
0.37331842
0.37329282
0.37328769
0.37329196
0.37329535
0.37329532
0.3732937
0.37329222
0.37329138
0.37329104
0.37329096
0.373291
0.37329109
0.37329124
0.37329151
0.37329203
0.37329274
0.373293
0.37329315
0.37329327
0.37329339
0.37329351
0.37329363
0.37329375
0.37329389
0.37329403
0.37329417
0.37329432
0.3732926
0.37329246
0.37329232
0.37329218
0.37329205
0.37329193
0.37329182
0.3732917
0.37329157
0.3732914
0.37329106
0.37328991
0.37328888
0.3732883
0.37328802
0.37328788
0.37328779
0.37328775
0.37328783
0.37328817
0.373289
0.37329045
0.37329202
0.37329199
0.37328853
0.37328427
0.37328965
0.37331601
0.37335881
0.37335781
0.3733113
0.37328362
0.37327767
0.37328176
0.37328524
0.37328537
0.37328389
0.3732825
0.37328169
0.37328134
0.37328126
0.3732813
0.37328139
0.37328153
0.37328181
0.3732824
0.37328352
0.37328517
0.37328672
0.37328714
0.37328733
0.37328746
0.37328758
0.37328769
0.37328782
0.37328795
0.37328808
0.37328822
0.3732868
0.37328666
0.37328654
0.37328641
0.37328629
0.37328617
0.37328605
0.37328585
0.37328538
0.37328361
0.37328138
0.3732796
0.37327847
0.37327786
0.37327759
0.37327744
0.37327735
0.37327732
0.3732774
0.37327773
0.37327852
0.37327984
0.3732812
0.37328099
0.37327761
0.3732739
0.37328042
0.37330829
0.37335222
0.37336189
0.37331849
0.37329303
0.37328682
0.37329015
0.3732932
0.37329337
0.37329208
0.37329082
0.37329006
0.37328974
0.37328966
0.37328969
0.37328977
0.37328993
0.3732902
0.37329081
0.37329195
0.37329376
0.37329615
0.37329875
0.37330047
0.37330093
0.3733011
0.37330123
0.37330135
0.37330147
0.37330159
0.37330172
0.37334147
0.37334135
0.37334124
0.37334112
0.37334101
0.37334085
0.37334049
0.37333906
0.37333638
0.37333364
0.37333122
0.37332943
0.37332829
0.3733277
0.37332742
0.37332726
0.37332719
0.37332714
0.37332719
0.37332747
0.37332819
0.37332943
0.3733308
0.37333089
0.37332874
0.37332519
0.37332953
0.37334543
0.37337085
0.37339432
0.37337951
0.37338207
0.37337612
0.37338334
0.37338207
0.37338213
0.37338019
0.37337899
0.37337834
0.37337817
0.37337817
0.37337825
0.37337835
0.3733785
0.37337878
0.37337935
0.37338046
0.37338222
0.3733846
0.37338734
0.37339017
0.3733927
0.37339365
0.37339385
0.37339396
0.37339407
0.37339419
0.3733943
0.2879251
0.2892
0.29047723
0.29176055
0.29305277
0.29435562
0.29567022
0.2969973
0.29833673
0.29968771
0.30104876
0.30241819
0.30379308
0.30517053
0.30654742
0.30792107
0.30928948
0.31065191
0.31200927
0.31336431
0.31472153
0.31608663
0.317466
0.31886566
0.32029066
0.32174483
0.32323061
0.32474914
0.32630054
0.32788414
0.32949882
0.33114318
0.33281577
0.33451521
0.33624024
0.33798977
0.33976287
0.34155882
0.34337704
0.34521713
0.34707887
0.34896228
0.35086781
0.35279681
0.35475211
0.35673943
0.35876595
0.36084217
0.36296247
0.36513469
0.36728584
0.36942832
0.37143222
0.37145028
0.36940856
0.36727157
0.36510727
0.36294747
0.36082975
0.358759
0.3567344
0.35474817
0.35279336
0.35086485
0.34895977
0.34707677
0.34521536
0.34337551
0.34155747
0.33976162
0.33798857
0.33623905
0.33451396
0.33281439
0.33114159
0.32949691
0.3278818
0.32629763
0.3247455
0.32322606
0.32173919
0.32028376
0.31885736
0.31745621
0.31607531
0.31470874
0.31335019
0.31199401
0.31063577
0.3092727
0.30790388
0.30653005
0.30515312
0.30377577
0.30240103
0.3010318
0.29967092
0.2983201
0.29698077
0.2956537
0.29433904
0.29303612
0.29174372
0.29046017
0.28918247
0.28790689
0.28787863
0.28782765
0.28774303
0.28762318
0.28747329
0.28730328
0.28712349
0.28694174
0.28676597
0.28660018
0.28644728
0.28630854
0.28618527
0.28607614
0.28597982
0.28589438
0.28581831
0.28574878
0.28568427
0.28562306
0.28556913
0.28552718
0.28550522
0.28684445
0.28686349
0.28689872
0.28694478
0.28699785
0.2870554
0.28711856
0.28718932
0.28726983
0.28736133
0.28746586
0.28758458
0.28771868
0.28786746
0.28802961
0.2882024
0.28838186
0.28856057
0.28873092
0.28888304
0.28900683
0.28909631
0.28915212
0.29042769
0.29036849
0.29027523
0.29014836
0.28999469
0.28982419
0.28964678
0.28946954
0.2892995
0.28914076
0.28899581
0.28886595
0.28875135
0.28865104
0.28856395
0.28848807
0.28842207
0.28836413
0.28831248
0.28826625
0.28822671