/*--------------------------------*- C++ -*----------------------------------*\
| =========                 |                                                 |
| \\      /  F ield         | OpenFOAM: The Open Source CFD Toolbox           |
|  \\    /   O peration     | Version:  v2012                                 |
|   \\  /    A nd           | Website:  www.openfoam.com                      |
|    \\/     M anipulation  |                                                 |
\*---------------------------------------------------------------------------*/
FoamFile
{
    version     2.0;
    format      ascii;
    class       volScalarField;
    location    "200";
    object      nut;
}
// * * * * * * * * * * * * * * * * * * * * * * * * * * * * * * * * * * * * * //

dimensions      [0 2 -1 0 0 0 0];


internalField   nonuniform List<scalar> 
74980
(
0.033495019
0.033495197
0.033524357
0.033524186
0.033524252
0.033524116
0.03352415
0.033524014
0.033524105
0.033524093
0.033524108
0.033524095
0.033524083
0.033524076
0.033524073
0.033524072
0.033524072
0.033524073
0.033524075
0.033524083
0.033524095
0.033524108
0.033524093
0.033524105
0.033524014
0.03352415
0.033524116
0.033524252
0.033524186
0.033524357
0.033524318
0.033524497
0.033524419
0.033524546
0.033524514
0.033524515
0.033524484
0.033524464
0.033524454
0.033524451
0.033524451
0.033524452
0.033524454
0.033524455
0.033524456
0.033524457
0.033524458
0.033524459
0.03352446
0.033524461
0.033524462
0.033524463
0.033524463
0.033524464
0.033524464
0.033524465
0.033524465
0.033524466
0.033527834
0.033527829
0.033527825
0.033527819
0.033527809
0.033527759
0.033527306
0.033526728
0.033526131
0.033525576
0.033525119
0.033524794
0.033524604
0.033524517
0.033524486
0.033524476
0.033524471
0.033524468
0.033524465
0.033524466
0.033524474
0.033524492
0.033524521
0.033524519
0.033524549
0.033524421
0.033524498
0.033524318
0.033495227
0.033494864
0.03349498
0.033494934
0.03349505
0.033495042
0.033495038
0.033495014
0.033495001
0.033494996
0.033495
0.033495007
0.033495018
0.033495047
0.033495142
0.033495412
0.033495992
0.033496975
0.033498347
0.033499999
0.033501765
0.033503444
0.033504716
0.033504888
0.033504922
0.033504936
0.033504949
0.033504961
0.032059375
0.032089938
0.032118978
0.032146901
0.032173985
0.032200431
0.032226413
0.032252061
0.032277485
0.032302761
0.032327946
0.03235308
0.032378186
0.032403281
0.032428376
0.032453477
0.032478592
0.032503727
0.032528894
0.032554104
0.032579374
0.03260472
0.032630164
0.032655724
0.032681423
0.03270728
0.032733314
0.032759541
0.032785975
0.032812628
0.032839509
0.032866623
0.032893975
0.032921567
0.032949398
0.032977469
0.033005776
0.033034317
0.033063088
0.033092088
0.033121315
0.03315077
0.033180464
0.033210418
0.033240681
0.033271336
0.033302512
0.033334312
0.033366826
0.033399823
0.033432873
0.033465054
0.033495523
0.033495197
0.033464441
0.033432129
0.033399231
0.033366396
0.03333409
0.033302417
0.033271338
0.033240738
0.033210509
0.033180574
0.033150889
0.033121434
0.033092205
0.0330632
0.033034423
0.033005876
0.032977564
0.032949489
0.032921654
0.032894059
0.032866705
0.03283959
0.03281271
0.032786058
0.032759626
0.032733403
0.032707374
0.032681524
0.032655832
0.03263028
0.032604846
0.032579509
0.03255425
0.032529051
0.032503895
0.032478771
0.032453666
0.032428574
0.032403486
0.032378395
0.032353292
0.032328155
0.032302962
0.03227767
0.032252222
0.032226538
0.032200506
0.032173993
0.032146832
0.032118816
0.032089662
0.032058961
0.032199049
0.032194529
0.032189834
0.032184936
0.03217991
0.032174619
0.032169074
0.032163027
0.032156584
0.032149682
0.032142274
0.032134555
0.03212648
0.032060235
0.032063328
0.032067546
0.032072298
0.03207725
0.032082492
0.03208802
0.032093945
0.03210027
0.032107022
0.032114168
0.03212164
0.032129291
0.032137045
0.032145042
0.032153002
0.032160667
0.032168036
0.03217504
0.032181624
0.032187731
0.032193441
0.032198752
0.032203809
0.032208604
0.032213262
0.032217786
0.032222247
0.032226635
0.032231014
0.032235536
0.032257254
0.032252864
0.032248606
0.032244319
0.032239986
0.032235636
0.032231181
0.0322266
0.032221787
0.032216724
0.032211308
0.032205522
0.03219926
0.032192617
0.032185588
0.032178287
0.032170745
0.032163096
0.032155626
0.032148251
0.032141048
0.032134156
0.032127674
0.032121613
0.032115986
0.032110779
0.032105929
0.032101437
0.032097211
0.032093521
0.032090847
0.032119882
0.032122227
0.032125489
0.032129279
0.032133383
0.032137898
0.032142825
0.032148183
0.032154006
0.032160236
0.032166895
0.032173849
0.032180976
0.032188189
0.03219552
0.032202724
0.032209702
0.032216407
0.032222726
0.03222868
0.032234173
0.032239317
0.03224414
0.032248725
0.032253103
0.032257364
0.032261544
0.032265719
0.032269875
0.032274017
0.032278277
0.032298962
0.032294848
0.032290831
0.032286816
0.032282813
0.032278796
0.032274726
0.032270531
0.032266165
0.032261558
0.032256665
0.032251424
0.032245756
0.032239716
0.032233298
0.032226613
0.032219691
0.032212642
0.032205664
0.032198764
0.032192037
0.032185598
0.032179595
0.032173995
0.032168875
0.032164202
0.032159985
0.032156199
0.032152771
0.032149876
0.03214782
0.032174885
0.032176729
0.032179305
0.032182427
0.03218595
0.032189915
0.032194351
0.032199259
0.032204646
0.032210449
0.032216677
0.032223194
0.032229889
0.032236662
0.032243475
0.032250152
0.032256581
0.032262751
0.032268554
0.032273974
0.032278999
0.032283675
0.032288086
0.032292257
0.032296278
0.032300173
0.03230403
0.03230786
0.03231173
0.032315614
0.032319586
0.032340348
0.032336522
0.032332773
0.032329048
0.032325366
0.032321659
0.032317919
0.032314057
0.032310055
0.032305817
0.032301325
0.032296489
0.032291271
0.032285673
0.032279718
0.032273494
0.03226702
0.032260407
0.032253813
0.0322473
0.032240971
0.032234933
0.032229314
0.032224121
0.03221941
0.032215183
0.032211438
0.03220815
0.032205297
0.032202985
0.032201338
0.032227307
0.032228791
0.032230894
0.032233513
0.032236588
0.032240143
0.032244174
0.032248708
0.032253719
0.032259169
0.032265031
0.032271192
0.032277545
0.032283987
0.032290435
0.032296746
0.032302809
0.032308588
0.032314021
0.032319075
0.032323757
0.032328104
0.032332193
0.032336056
0.032339777
0.032343385
0.032346954
0.032350506
0.032354093
0.03235771
0.032361398
0.032382829
0.032379273
0.032375778
0.032372316
0.03236888
0.032365431
0.032361934
0.03235833
0.032354578
0.032350606
0.03234637
0.032341806
0.032336874
0.032331566
0.032325917
0.032319974
0.032313793
0.032307479
0.032301168
0.032294955
0.032288946
0.032283246
0.032277956
0.032273113
0.032268751
0.032264897
0.032261524
0.032258635
0.03225621
0.032254285
0.032252942
0.032278346
0.032279576
0.032281342
0.032283597
0.032286321
0.032289521
0.032293211
0.032297404
0.032302085
0.032307223
0.032312771
0.032318638
0.032324726
0.032330925
0.03233713
0.032343212
0.032349069
0.032354631
0.03235985
0.032364696
0.03236918
0.032373339
0.032377226
0.032380896
0.03238441
0.032387819
0.03239117
0.032394508
0.032397861
0.032401249
0.032404687
0.03242697
0.032423633
0.032420337
0.03241707
0.032413811
0.032410531
0.032407187
0.032403733
0.032400116
0.032396279
0.032392166
0.032387729
0.032382932
0.032377766
0.03237226
0.032366463
0.032360456
0.032354342
0.032348243
0.032342272
0.032336539
0.03233114
0.032326154
0.032321631
0.0323176
0.032314073
0.032311032
0.032308465
0.032306361
0.032304731
0.032303599
0.032328752
0.032329804
0.032331314
0.03233328
0.0323357
0.032338585
0.032341954
0.032345824
0.032350187
0.032355019
0.032360269
0.032365869
0.032371723
0.032377727
0.032383761
0.032389708
0.03239546
0.032400935
0.032406074
0.032410851
0.032415273
0.032419369
0.032423187
0.032426779
0.032430203
0.032433509
0.032436746
0.032439949
0.032443153
0.032446378
0.032449638
0.032472617
0.032469411
0.032466232
0.032463065
0.03245989
0.032456671
0.032453375
0.032449954
0.032446358
0.032442532
0.032438426
0.032433995
0.032429214
0.032424081
0.032418624
0.032412907
0.032407016
0.03240106
0.032395156
0.032389423
0.032383963
0.032378867
0.032374196
0.032369998
0.032366293
0.032363083
0.032360349
0.032358072
0.032356233
0.032354829
0.032353854
0.032378924
0.032379831
0.032381138
0.032382855
0.032384993
0.032387574
0.032390623
0.032394158
0.032398183
0.032402679
0.032407609
0.032412916
0.032418516
0.032424307
0.032430177
0.032436006
0.032441688
0.03244713
0.032452267
0.032457067
0.032461526
0.032465665
0.032469523
0.032473147
0.032476593
0.032479907
0.032483134
0.032486311
0.03248947
0.03249263
0.032495808
0.032519089
0.032515909
0.032512737
0.032509558
0.032506351
0.032503087
0.032499729
0.032496235
0.032492559
0.03248865
0.032484465
0.03247997
0.032475148
0.032470008
0.032464588
0.032458955
0.032453203
0.032447439
0.032441781
0.032436337
0.032431203
0.032426455
0.032422145
0.032418305
0.032414948
0.032412066
0.032409639
0.032407639
0.03240604
0.032404825
0.032403983
0.032429038
0.03242982
0.032430946
0.032432431
0.032434293
0.032436563
0.032439271
0.032442441
0.032446084
0.03245019
0.032454736
0.032459673
0.032464936
0.032470434
0.032476063
0.032481712
0.032487273
0.032492654
0.032497784
0.032502622
0.032507153
0.03251139
0.032515359
0.032519102
0.032522662
0.032526084
0.032529409
0.03253267
0.032535897
0.032539109
0.03254232
0.032565372
0.032562103
0.032558826
0.032555529
0.032552192
0.032548788
0.032545286
0.032541647
0.032537832
0.032533799
0.032529516
0.032524958
0.032520121
0.032515023
0.032509709
0.03250425
0.032498739
0.032493278
0.032487974
0.032482923
0.032478208
0.032473888
0.032470002
0.032466571
0.032463597
0.032461069
0.03245896
0.032457236
0.032455864
0.032454824
0.0324541
0.032479174
0.032479842
0.0324808
0.03248206
0.032483645
0.03248559
0.032487933
0.0324907
0.032493908
0.032497555
0.032501628
0.032506093
0.032510899
0.032515974
0.032521228
0.032526564
0.032531882
0.032537094
0.032542129
0.03254694
0.032551504
0.032555822
0.032559909
0.032563796
0.032567516
0.032571106
0.0325746
0.032578027
0.032581412
0.032584773
0.032588122
0.032610467
0.032607024
0.032603567
0.032600085
0.032596561
0.032592975
0.032589298
0.032585503
0.032581557
0.032577431
0.032573103
0.03256856
0.032563809
0.032558874
0.032553805
0.032548669
0.032543551
0.032538543
0.032533733
0.032529202
0.032525012
0.032521207
0.032517814
0.032514842
0.032512288
0.032510136
0.032508356
0.03250691
0.03250576
0.032504884
0.032504269
0.032529396
0.032529959
0.032530756
0.032531797
0.032533105
0.032534719
0.032536679
0.032539014
0.032541742
0.032544869
0.032548388
0.03255228
0.032556508
0.03256102
0.032565746
0.032570606
0.032575517
0.032580401
0.032585193
0.032589846
0.032594332
0.03259864
0.032602778
0.032606762
0.032610616
0.032614367
0.032618038
0.032621654
0.032625234
0.03262879
0.032632334
0.032653681
0.032650042
0.032646393
0.032642727
0.032639033
0.032635294
0.032631491
0.032627605
0.032623612
0.032619496
0.032615245
0.032610857
0.032606345
0.032601738
0.032597081
0.032592435
0.03258787
0.032583459
0.032579272
0.032575367
0.032571791
0.03256857
0.032565719
0.03256324
0.032561126
0.032559359
0.03255791
0.032556737
0.032555802
0.032555081
0.032554567
0.0325798
0.032580268
0.032580916
0.032581748
0.032582788
0.032584076
0.032585653
0.032587547
0.032589777
0.032592349
0.032595265
0.032598515
0.032602079
0.032605921
0.032609992
0.032614232
0.032618579
0.03262297
0.032627351
0.03263168
0.032635927
0.03264008
0.032644134
0.032648098
0.032651983
0.032655806
0.032659585
0.032663333
0.032667064
0.032670786
0.032674507
0.032694849
0.032691072
0.032687303
0.032683538
0.03267977
0.032675989
0.032672183
0.032668339
0.032664447
0.032660498
0.032656487
0.032652422
0.032648316
0.032644198
0.032640104
0.032636084
0.032632191
0.032628478
0.032624993
0.032621777
0.032618856
0.032616246
0.03261395
0.032611967
0.032610287
0.032608894
0.032607762
0.03260685
0.032606116
0.032605536
0.032605113
0.032630524
0.032630908
0.032631423
0.032632065
0.032632857
0.03263384
0.032635056
0.03263653
0.032638276
0.032640302
0.032642613
0.032645207
0.032648076
0.0326512
0.032654548
0.032658081
0.032661755
0.032665525
0.032669352
0.0326732
0.032677046
0.032680873
0.032684675
0.032688452
0.032692209
0.032695954
0.032699696
0.032703444
0.032707204
0.032710983
0.03271478
0.032734408
0.03273063
0.032726886
0.032723174
0.032719492
0.032715834
0.032712195
0.032708569
0.03270495
0.032701336
0.032697728
0.032694136
0.032690573
0.03268706
0.032683628
0.03268031
0.032677141
0.032674157
0.032671389
0.032668859
0.03266658
0.032664558
0.032662789
0.032661268
0.032659989
0.032658939
0.032658095
0.032657416
0.03265686
0.032656404
0.032656057
0.032681731
0.032682046
0.032682448
0.032682926
0.0326835
0.032684216
0.032685112
0.032686211
0.032687522
0.03268905
0.032690801
0.03269278
0.032694987
0.032697413
0.032700041
0.032702851
0.032705813
0.032708901
0.032712086
0.032715345
0.032718659
0.032722015
0.032725405
0.032728827
0.032732281
0.032735771
0.032739299
0.03274287
0.032746487
0.032750151
0.032753863
0.032773289
0.032769691
0.032766153
0.032762677
0.032759261
0.032755905
0.032752606
0.03274936
0.032746168
0.032743029
0.032739946
0.032736927
0.032733983
0.032731129
0.032728384
0.032725769
0.032723306
0.032721015
0.032718913
0.03271701
0.032715309
0.032713808
0.032712502
0.032711385
0.03271045
0.032709693
0.032709094
0.032708615
0.032708209
0.032707854
0.032707567
0.032733584
0.032733847
0.032734161
0.032734503
0.032734896
0.032735391
0.032736023
0.032736809
0.032737754
0.032738859
0.032740131
0.032741577
0.032743202
0.032745004
0.032746979
0.032749115
0.032751397
0.03275381
0.032756338
0.032758966
0.032761683
0.032764478
0.032767346
0.032770285
0.032773292
0.03277637
0.032779518
0.032782739
0.032786033
0.032789401
0.032792841
0.032812667
0.032809424
0.032806263
0.032803185
0.03280019
0.032797278
0.032794448
0.032791698
0.032789029
0.032786442
0.032783939
0.032781525
0.032779207
0.032776993
0.032774895
0.032772924
0.032771092
0.032769407
0.032767877
0.032766504
0.032765287
0.032764219
0.032763293
0.032762502
0.032761847
0.032761324
0.032760922
0.032760605
0.03276032
0.032760043
0.032759798
0.032786223
0.032786453
0.0327867
0.032786934
0.032787185
0.032787506
0.032787933
0.032788476
0.032789132
0.032789901
0.032790789
0.032791804
0.032792952
0.032794238
0.032795661
0.032797218
0.032798903
0.032800708
0.032802625
0.032804646
0.032806766
0.03280898
0.032811284
0.032813676
0.032816156
0.032818723
0.03282138
0.032824125
0.03282696
0.032829885
0.032832898
0.032848223
0.032845648
0.032843166
0.032840776
0.032838478
0.032836271
0.032834154
0.032832127
0.032830193
0.032828352
0.032826609
0.032824966
0.03282343
0.032822004
0.032820694
0.032819503
0.032818432
0.03281748
0.032816642
0.03281591
0.032815277
0.032814736
0.032814291
0.032813946
0.032813694
0.032813501
0.03281331
0.03281309
0.032812871
0.03283975
0.032839961
0.032840161
0.032840313
0.032840456
0.032840648
0.032840925
0.032841288
0.03284173
0.032842248
0.032842846
0.032843532
0.032844314
0.032845198
0.032846186
0.032847278
0.032848473
0.032849769
0.032851162
0.032852649
0.03285423
0.032855901
0.032857661
0.032859511
0.032861451
0.032863481
0.032865602
0.032867816
0.032870122
0.032892706
0.032890668
0.03288872
0.032886862
0.032885092
0.032883408
0.032881811
0.032880299
0.032878871
0.032877529
0.032876273
0.032875103
0.032874021
0.032873028
0.032872125
0.032871313
0.032870589
0.032869952
0.032869395
0.03286891
0.03286849
0.032868131
0.032867836
0.032867616
0.032867473
0.032867374
0.032867255
0.032867073
0.032866866
0.032894223
0.032894429
0.032894596
0.032894685
0.032894747
0.03289485
0.032895023
0.032895261
0.032895553
0.032895891
0.032896281
0.032896729
0.032897245
0.032897832
0.032898496
0.032899236
0.032900054
0.032900949
0.032901922
0.032902973
0.032904101
0.032905307
0.032906591
0.032907954
0.032909398
0.032910923
0.03291253
0.032914222
0.032938475
0.032937024
0.032935651
0.032934353
0.03293313
0.032931979
0.032930901
0.032929893
0.032928954
0.032928084
0.032927281
0.032926546
0.032925878
0.032925276
0.032924739
0.032924265
0.032923851
0.032923492
0.032923182
0.03292291
0.032922675
0.032922482
0.032922346
0.032922277
0.032922247
0.032922184
0.03292203
0.032921823
0.032949665
0.032949876
0.032950019
0.032950057
0.032950059
0.032950102
0.032950208
0.032950365
0.032950555
0.032950771
0.032951018
0.032951302
0.032951632
0.032952011
0.032952444
0.03295293
0.032953472
0.03295407
0.032954726
0.03295544
0.032956214
0.032957048
0.032957945
0.032958905
0.032959929
0.032961021
0.03296218
0.032963409
0.032988994
0.032987966
0.032986999
0.032986092
0.032985243
0.03298445
0.032983713
0.032983029
0.032982397
0.032981816
0.032981285
0.032980802
0.032980366
0.032979976
0.03297963
0.032979328
0.032979067
0.032978843
0.032978649
0.032978477
0.032978324
0.032978196
0.032978112
0.03297809
0.032978111
0.032978096
0.032977964
0.032977749
0.033006071
0.033006292
0.033006413
0.033006405
0.033006365
0.033006371
0.033006438
0.033006544
0.033006667
0.033006803
0.033006955
0.03300713
0.033007335
0.033007574
0.033007849
0.03300816
0.033008508
0.033008896
0.033009323
0.033009791
0.033010302
0.033010857
0.033011458
0.033012105
0.033012801
0.033013547
0.033014344
0.033015194
0.033041964
0.03304127
0.033040621
0.033040015
0.033039451
0.033038928
0.033038444
0.033037998
0.033037588
0.033037214
0.033036873
0.033036565
0.033036288
0.033036041
0.033035824
0.033035636
0.033035476
0.033035339
0.033035222
0.033035115
0.033035015
0.033034926
0.033034871
0.033034876
0.033034933
0.033034963
0.033034855
0.033034629
0.033063419
0.033063648
0.033063741
0.033063688
0.033063618
0.033063606
0.033063653
0.033063729
0.03306381
0.033063893
0.033063984
0.033064089
0.033064214
0.033064362
0.033064532
0.033064726
0.033064945
0.033065188
0.033065458
0.033065755
0.033066081
0.033066436
0.033066822
0.03306724
0.033067692
0.033068179
0.033068701
0.033069262
0.03309704
0.033096594
0.033096178
0.033095792
0.033095434
0.033095103
0.033094798
0.033094518
0.033094262
0.033094029
0.033093817
0.033093626
0.033093454
0.033093302
0.033093168
0.033093053
0.033092957
0.033092876
0.033092807
0.033092743
0.033092676
0.03309261
0.033092568
0.033092583
0.033092664
0.03309274
0.033092665
0.033092436
0.033121677
0.0331219
0.033121952
0.033121852
0.033121765
0.033121749
0.03312179
0.033121848
0.033121903
0.033121952
0.033122003
0.033122064
0.033122139
0.033122229
0.033122333
0.033122452
0.033122586
0.033122735
0.0331229
0.033123082
0.033123281
0.0331235
0.033123738
0.033123996
0.033124277
0.033124579
0.033124906
0.033125256
0.03315387
0.033153598
0.033153346
0.033153112
0.033152895
0.033152695
0.033152511
0.033152343
0.033152189
0.033152048
0.033151921
0.033151805
0.033151701
0.033151609
0.033151528
0.033151458
0.033151401
0.033151355
0.033151317
0.033151281
0.033151236
0.033151184
0.033151143
0.033151156
0.033151246
0.03315137
0.033151347
0.033151139
0.033180826
0.033181004
0.03318099
0.033180842
0.033180752
0.033180745
0.033180787
0.033180835
0.03318087
0.033180897
0.033180924
0.033180958
0.033181002
0.033181056
0.033181118
0.03318119
0.03318127
0.033181359
0.033181457
0.033181564
0.033181682
0.033181811
0.033181951
0.033182103
0.033182268
0.033182447
0.033182639
0.033182846
0.033212161
0.033212006
0.033211861
0.033211728
0.033211604
0.033211489
0.033211384
0.033211287
0.033211198
0.033211117
0.033211043
0.033210975
0.033210913
0.033210858
0.033210809
0.033210768
0.033210734
0.033210709
0.033210691
0.033210673
0.033210646
0.033210603
0.033210559
0.033210559
0.033210643
0.033210817
0.033210875
0.03321075
0.033240943
0.033240984
0.033240872
0.03324067
0.033240596
0.033240604
0.03324065
0.033240688
0.033240708
0.033240718
0.033240729
0.033240747
0.033240772
0.033240805
0.033240842
0.033240885
0.033240932
0.033240983
0.033241039
0.0332411
0.033241167
0.033241238
0.033241316
0.033241401
0.033241492
0.03324159
0.033241696
0.03324181
0.033271824
0.033271743
0.033271667
0.033271596
0.03327153
0.033271469
0.033271413
0.03327136
0.033271312
0.033271266
0.033271225
0.033271186
0.03327115
0.033271118
0.033271089
0.033271064
0.033271045
0.033271032
0.033271027
0.033271023
0.033271011
0.033270979
0.033270933
0.033270918
0.033270978
0.033271206
0.03327138
0.033271467
0.033302415
0.03330215
0.033301913
0.03330166
0.03330162
0.033301641
0.033301685
0.033301709
0.033301713
0.033301711
0.033301712
0.03330172
0.033301735
0.033301754
0.033301776
0.033301801
0.033301828
0.033301857
0.033301887
0.03330192
0.033301955
0.033301993
0.033302033
0.033302076
0.033302122
0.033302171
0.033302224
0.033302281
0.033333304
0.033333266
0.033333231
0.033333197
0.033333166
0.033333137
0.033333109
0.033333083
0.033333058
0.033333035
0.033333013
0.033332992
0.033332972
0.033332953
0.033332936
0.033332921
0.03333291
0.033332905
0.033332907
0.033332915
0.033332918
0.033332904
0.033332863
0.03333284
0.033332854
0.033333127
0.033333415
0.033333896
0.033365985
0.033365282
0.033364978
0.033364696
0.033364718
0.03336474
0.033364775
0.033364779
0.033364769
0.033364757
0.033364752
0.033364755
0.033364763
0.033364774
0.033364787
0.033364801
0.033364816
0.033364831
0.033364847
0.033364863
0.03336488
0.033364898
0.033364916
0.033364935
0.033364956
0.033364977
0.033365
0.033365024
0.033397484
0.03339747
0.033397457
0.033397444
0.033397431
0.033397419
0.033397407
0.033397396
0.033397385
0.033397374
0.033397363
0.033397353
0.033397342
0.033397332
0.033397322
0.033397314
0.033397308
0.033397307
0.033397313
0.033397327
0.033397343
0.033397349
0.03339732
0.033397303
0.033397236
0.033397509
0.03339777
0.033398647
0.033431574
0.033430666
0.033430523
0.033430286
0.033430402
0.033430413
0.033430434
0.033430419
0.033430399
0.033430384
0.033430378
0.033430378
0.033430383
0.033430389
0.033430396
0.033430403
0.03343041
0.033430417
0.033430424
0.033430432
0.033430439
0.033430445
0.033430452
0.03343046
0.033430467
0.033430474
0.033430481
0.033430489
0.033463381
0.033463378
0.033463374
0.033463371
0.033463367
0.033463363
0.033463359
0.033463355
0.033463351
0.033463347
0.033463343
0.033463338
0.033463334
0.033463329
0.033463324
0.03346332
0.033463316
0.033463316
0.033463321
0.033463335
0.033463356
0.03346338
0.033463369
0.033463369
0.03346322
0.033463387
0.033463363
0.033464116
0.033495227
0.033494862
0.033494976
0.033494928
0.03349504
0.033495028
0.03349502
0.033494991
0.033494973
0.033494963
0.033494961
0.033494962
0.033494965
0.033494967
0.03349497
0.033494973
0.033494976
0.033494978
0.03349498
0.033494983
0.033494985
0.033494987
0.033494989
0.033494991
0.033494992
0.033494994
0.033494995
0.033494997
0.033524039
0.033524039
0.033524038
0.033524038
0.033524037
0.033524037
0.033524036
0.033524035
0.033524034
0.033524033
0.033524032
0.033524031
0.03352403
0.033524029
0.033524028
0.033524026
0.033524025
0.033524024
0.033524025
0.033524029
0.033524041
0.033524061
0.033524085
0.033524083
0.033524079
0.033523989
0.033524037
0.033524036
0.033524215
0.033523907
0.033523574
0.033523382
0.033523327
0.033523386
0.033523421
0.033523426
0.033523407
0.033523387
0.033523375
0.033523369
0.033523367
0.033523367
0.033523368
0.033523369
0.033523371
0.033523372
0.033523373
0.033523374
0.033523375
0.033523376
0.033523377
0.033523378
0.033523379
0.03352338
0.03352338
0.033523381
0.033523382
0.033523382
0.033522869
0.033522869
0.033522868
0.033522867
0.033522866
0.033522865
0.033522864
0.033522863
0.033522862
0.033522861
0.03352286
0.033522858
0.033522857
0.033522856
0.033522854
0.033522853
0.033522852
0.033522852
0.033522854
0.033522861
0.033522875
0.033522895
0.033522912
0.033522903
0.033522855
0.033522807
0.033522893
0.033523221
0.033523751
0.033523622
0.033523066
0.033522699
0.033522602
0.033522651
0.033522704
0.033522714
0.033522697
0.033522676
0.033522661
0.033522654
0.033522652
0.033522652
0.033522653
0.033522654
0.033522656
0.033522657
0.033522659
0.03352266
0.033522661
0.033522663
0.033522664
0.033522665
0.033522666
0.033522668
0.033522669
0.03352267
0.033522671
0.033522672
0.033522709
0.033522707
0.033522706
0.033522704
0.033522703
0.033522701
0.0335227
0.033522699
0.033522697
0.033522696
0.033522694
0.033522692
0.033522691
0.033522689
0.033522687
0.033522686
0.033522685
0.033522684
0.033522687
0.033522694
0.033522709
0.033522731
0.033522749
0.03352274
0.033522684
0.03352263
0.033522724
0.033523097
0.033523679
0.033523707
0.033523162
0.033522808
0.033522723
0.03352278
0.033522837
0.033522846
0.033522826
0.033522803
0.033522788
0.033522781
0.033522779
0.033522779
0.033522781
0.033522783
0.033522784
0.033522786
0.033522788
0.03352279
0.033522792
0.033522794
0.033522795
0.033522797
0.033522799
0.033522801
0.033522803
0.033522804
0.033522806
0.033522808
0.033522874
0.033522872
0.033522869
0.033522867
0.033522865
0.033522863
0.033522861
0.033522859
0.033522856
0.033522854
0.033522852
0.03352285
0.033522848
0.033522846
0.033522844
0.033522842
0.03352284
0.03352284
0.033522842
0.033522849
0.033522864
0.033522886
0.033522907
0.033522899
0.033522843
0.033522784
0.033522863
0.033523206
0.033523735
0.033523734
0.033523217
0.033522882
0.033522805
0.033522864
0.033522919
0.033522927
0.033522906
0.033522884
0.033522869
0.033522862
0.033522861
0.033522861
0.033522863
0.033522865
0.033522868
0.03352287
0.033522872
0.033522875
0.033522877
0.033522879
0.033522882
0.033522884
0.033522887
0.033522889
0.033522892
0.033522895
0.033522898
0.033522901
0.033522909
0.033522905
0.033522902
0.033522899
0.033522896
0.033522893
0.03352289
0.033522887
0.033522884
0.033522882
0.033522879
0.033522876
0.033522874
0.033522871
0.033522868
0.033522866
0.033522864
0.033522863
0.033522865
0.033522871
0.033522885
0.033522908
0.033522929
0.033522921
0.033522866
0.033522808
0.033522884
0.033523216
0.033523727
0.033523721
0.033523212
0.033522882
0.033522806
0.033522864
0.033522919
0.033522927
0.033522906
0.033522884
0.033522869
0.033522863
0.033522862
0.033522863
0.033522865
0.033522868
0.033522871
0.033522874
0.033522877
0.033522879
0.033522882
0.033522886
0.033522889
0.033522892
0.033522895
0.033522898
0.033522902
0.033522906
0.033522909
0.033522914
0.033522919
0.033522914
0.03352291
0.033522906
0.033522902
0.033522898
0.033522894
0.033522891
0.033522887
0.033522884
0.033522881
0.033522878
0.033522874
0.033522871
0.033522868
0.033522865
0.033522863
0.033522862
0.033522863
0.033522869
0.033522883
0.033522905
0.033522925
0.033522918
0.033522863
0.033522804
0.03352288
0.03352321
0.033523718
0.033523717
0.033523209
0.033522879
0.033522804
0.033522862
0.033522917
0.033522925
0.033522905
0.033522883
0.033522869
0.033522863
0.033522862
0.033522864
0.033522866
0.033522869
0.033522873
0.033522876
0.033522879
0.033522883
0.033522886
0.03352289
0.033522894
0.033522897
0.033522901
0.033522905
0.03352291
0.033522914
0.033522919
0.033522924
0.033522929
0.033522924
0.033522919
0.033522914
0.03352291
0.033522905
0.033522901
0.033522897
0.033522893
0.033522889
0.033522885
0.033522882
0.033522878
0.033522875
0.033522871
0.033522868
0.033522865
0.033522863
0.033522864
0.03352287
0.033522883
0.033522905
0.033522925
0.033522917
0.033522862
0.033522804
0.033522879
0.033523209
0.033523717
0.033523718
0.03352321
0.03352288
0.033522805
0.033522863
0.033522919
0.033522927
0.033522907
0.033522885
0.033522871
0.033522866
0.033522865
0.033522867
0.03352287
0.033522874
0.033522878
0.033522882
0.033522885
0.033522889
0.033522893
0.033522897
0.033522901
0.033522905
0.03352291
0.033522914
0.033522919
0.033522924
0.03352293
0.033522935
0.033522945
0.033522939
0.033522933
0.033522928
0.033522923
0.033522919
0.033522914
0.03352291
0.033522905
0.033522901
0.033522897
0.033522893
0.033522889
0.033522885
0.033522879
0.033522874
0.03352287
0.033522868
0.033522868
0.033522874
0.033522887
0.033522909
0.033522929
0.033522921
0.033522865
0.033522807
0.033522882
0.033523213
0.033523721
0.033523727
0.033523216
0.033522885
0.033522809
0.033522868
0.033522924
0.033522932
0.033522912
0.03352289
0.033522877
0.033522872
0.033522871
0.033522874
0.033522878
0.033522886
0.033522903
0.033522912
0.033522918
0.033522923
0.033522927
0.033522931
0.033522936
0.03352294
0.033522945
0.033522949
0.033522955
0.03352296
0.033522965
0.033522971
0.033523045
0.033523039
0.033523033
0.033523028
0.033523023
0.033523018
0.033523014
0.033523009
0.033523005
0.033523
0.033522995
0.033522986
0.033522967
0.033522915
0.033522887
0.033522877
0.033522873
0.033522871
0.033522871
0.033522876
0.03352289
0.033522911
0.033522931
0.033522922
0.033522866
0.033522806
0.033522883
0.033523218
0.033523734
0.033523735
0.033523206
0.033522864
0.033522785
0.033522845
0.033522902
0.033522911
0.033522892
0.033522871
0.033522858
0.033522852
0.033522852
0.033522855
0.033522859
0.033522869
0.033522901
0.033522986
0.033523108
0.033523143
0.033523155
0.033523162
0.033523167
0.033523171
0.033523176
0.033523181
0.033523186
0.033523191
0.033523196
0.033523202
0.033523465
0.033523459
0.033523454
0.033523448
0.033523443
0.033523439
0.033523434
0.033523429
0.033523421
0.033523405
0.033523349
0.033523129
0.033522939
0.033522844
0.03352281
0.0335228
0.033522796
0.033522793
0.033522793
0.033522799
0.033522812
0.033522833
0.033522851
0.033522841
0.033522783
0.033522724
0.033522809
0.033523162
0.033523708
0.03352368
0.033523098
0.033522725
0.033522632
0.033522687
0.033522744
0.033522755
0.033522738
0.033522718
0.033522705
0.0335227
0.0335227
0.033522702
0.033522707
0.033522717
0.033522752
0.033522849
0.033523058
0.03352339
0.033523712
0.033523787
0.033523807
0.033523816
0.033523821
0.033523826
0.033523831
0.033523836
0.033523842
0.033523847
0.033524399
0.033524394
0.033524388
0.033524383
0.033524378
0.033524373
0.033524364
0.03352434
0.033524252
0.033523861
0.033523389
0.033523032
0.033522819
0.033522721
0.033522686
0.033522675
0.033522671
0.033522668
0.033522669
0.033522673
0.033522686
0.033522705
0.03352272
0.033522709
0.033522654
0.033522604
0.0335227
0.033523066
0.033523622
0.033523751
0.033523221
0.033522894
0.033522809
0.033522858
0.033522908
0.033522918
0.033522903
0.033522885
0.033522874
0.033522869
0.033522869
0.033522872
0.033522876
0.033522887
0.033522921
0.033523018
0.033523229
0.033523588
0.033524086
0.033524648
0.033525046
0.033525133
0.033525156
0.033525164
0.03352517
0.033525175
0.03352518
0.033525185
0.033526177
0.033526172
0.033526167
0.033526162
0.033526155