/*--------------------------------*- C++ -*----------------------------------*\
| =========                 |                                                 |
| \\      /  F ield         | OpenFOAM: The Open Source CFD Toolbox           |
|  \\    /   O peration     | Version:  v2012                                 |
|   \\  /    A nd           | Website:  www.openfoam.com                      |
|    \\/     M anipulation  |                                                 |
\*---------------------------------------------------------------------------*/
FoamFile
{
    version     2.0;
    format      ascii;
    class       volScalarField;
    location    "200";
    object      omega;
}
// * * * * * * * * * * * * * * * * * * * * * * * * * * * * * * * * * * * * * //

dimensions      [0 0 -1 0 0 0 0];


internalField   nonuniform List<scalar> 
74980
(
11.089248
11.089976
11.138502
11.137625
11.138312
11.137772
11.138523
11.137948
11.138347
11.138144
11.138184
11.138123
11.138095
11.138082
11.138078
11.138077
11.138077
11.138078
11.138082
11.138095
11.138123
11.138184
11.138144
11.138347
11.137948
11.138524
11.137772
11.138312
11.137626
11.138502
11.138071
11.139043
11.138491
11.138959
11.138705
11.138748
11.138663
11.138636
11.13862
11.138619
11.13862
11.138621
11.138622
11.138623
11.138624
11.138624
11.138625
11.138625
11.138626
11.138626
11.138626
11.138627
11.138627
11.138627
11.138627
11.138628
11.138628
11.138628
11.138026
11.138024
11.138023
11.138021
11.138021
11.138031
11.138118
11.13823
11.138345
11.138448
11.138531
11.138588
11.138619
11.138631
11.138633
11.138632
11.13863
11.138628
11.138626
11.138626
11.13864
11.138666
11.138751
11.138707
11.13896
11.138492
11.139044
11.138071
11.089812
11.090474
11.090085
11.090465
11.090297
11.090315
11.09023
11.090187
11.090164
11.090159
11.09016
11.090163
11.090166
11.090165
11.090146
11.090079
11.089924
11.089654
11.089272
11.088808
11.088308
11.087829
11.087465
11.087422
11.087419
11.087422
11.087426
11.08743
8.9055264
8.9387633
8.972267
9.006043
9.0400955
9.0744274
9.1090409
9.1439374
9.179117
9.214579
9.2503226
9.2863469
9.3226505
9.3592333
9.3960963
9.4332415
9.4706725
9.508395
9.546416
9.5847443
9.6233902
9.6623651
9.7016812
9.7413508
9.7813867
9.8218015
9.8626068
9.9038133
9.9454309
9.9874686
10.029934
10.072834
10.116174
10.15996
10.204195
10.248884
10.29403
10.339636
10.385706
10.432243
10.479251
10.526739
10.574723
10.623238
10.672357
10.722225
10.773012
10.824996
10.877974
10.932251
10.985778
11.03923
11.089012
11.089977
11.039146
10.985878
10.931858
10.877877
10.824882
10.773
10.722218
10.672347
10.623217
10.574698
10.526716
10.479232
10.432228
10.385694
10.339628
10.294023
10.248878
10.204191
10.159957
10.116173
10.072834
10.029936
9.9874731
9.945438
9.9038231
9.8626196
9.8218177
9.7814071
9.7413755
9.7017104
9.6623994
9.6234297
9.5847893
9.5464666
9.5084513
9.4707346
9.4333092
9.3961695
9.3593118
9.3227343
9.2864362
9.2504168
9.2146778
9.1792207
9.1440461
9.1091541
9.0745446
9.0402171
9.0061687
8.9723961
8.9388959
8.9056622
8.9332349
8.9311625
8.9290538
8.926893
8.9246634
8.9223482
8.9199324
8.9174044
8.9147589
8.9119981
8.9091332
8.9061847
8.9031817
8.9059612
8.9064611
8.9071932
8.9081704
8.9093913
8.9108474
8.9125303
8.9144323
8.9165448
8.9188554
8.9213467
8.9239947
8.9267689
8.9296338
8.9325505
8.9354787
8.9383802
8.9412221
8.9439778
8.9466303
8.949171
8.9516004
8.9539256
8.9561591
8.9583161
8.960413
8.962466
8.9644894
8.9664956
8.9684939
8.9704915
9.0019198
8.9999606
8.998004
8.9960433
8.9940706
8.9920745
8.9900414
8.9879561
8.9858024
8.9835647
8.9812298
8.978789
8.9762394
8.9735868
8.9708455
8.9680398
8.9652005
8.9623646
8.9595722
8.9568625
8.9542719
8.9518317
8.9495667
8.9474952
8.9456296
8.9439788
8.9425507
8.9413533
8.9403952
8.9396778
8.9391884
8.9726813
8.9731595
8.9738608
8.9747981
8.97597
8.9773685
8.9789853
8.9808131
8.9828429
8.9850622
8.9874523
8.9899878
8.9926365
8.9953612
8.9981225
9.0008802
9.0035981
9.0062469
9.0088045
9.011259
9.0136068
9.0158529
9.0180076
9.0200849
9.0221006
9.0240708
9.02601
9.0279311
9.0298443
9.031757
9.0336748
9.0657888
9.0639145
9.0620474
9.0601827
9.0583136
9.0564303
9.0545212
9.0525716
9.050566
9.0484881
9.0463233
9.0440598
9.0416911
9.0392185
9.0366521
9.0340123
9.0313275
9.0286335
9.0259703
9.0233783
9.0208951
9.0185536
9.0163796
9.014392
9.0126032
9.0110219
9.009655
9.0085103
9.0075956
9.0069115
9.0064459
9.0404859
9.0409382
9.0416037
9.0424945
9.0436102
9.0449438
9.0464881
9.0482368
9.0501817
9.0523108
9.0546055
9.0570397
9.0595801
9.0621883
9.0648235
9.0674451
9.0700175
9.0725128
9.074912
9.077206
9.0793953
9.0814876
9.0834963
9.0854361
9.087324
9.0891753
9.0910043
9.0928222
9.0946385
9.0964591
9.0982884
9.1311933
9.1294096
9.1276353
9.1258668
9.124098
9.1223203
9.1205225
9.1186907
9.1168095
9.1148616
9.1128314
9.1107051
9.1084736
9.1061357
9.1036993
9.1011829
9.0986143
9.0960293
9.0934692
9.0909754
9.088587
9.0863375
9.0842527
9.0823509
9.0806436
9.0791377
9.0778391
9.076754
9.0758886
9.0752429
9.0748044
9.1094049
9.1098282
9.1104527
9.1112911
9.112344
9.1136059
9.1150717
9.1167365
9.1185945
9.1206351
9.1228409
9.1251863
9.1276379
9.1301563
9.1326994
9.1352252
9.1376969
9.1400867
9.1423762
9.1445576
9.1466329
9.1486117
9.1505084
9.1523393
9.1541217
9.1558714
9.1576021
9.1593246
9.1610476
9.1627768
9.1645156
9.1982586
9.1965628
9.194876
9.193195
9.1915143
9.1898254
9.1881173
9.1863765
9.184587
9.1827313
9.1807925
9.1787563
9.1766124
9.1743589
9.1720039
9.169566
9.1670739
9.1645655
9.1620834
9.1596704
9.157366
9.1552033
9.1532073
9.1513943
9.1497735
9.1483496
9.1471261
9.1461071
9.145297
9.1446947
9.1442871
9.1794516
9.1798428
9.1804219
9.1812022
9.1821857
9.1833689
9.1847489
9.1863236
9.1880899
9.1900401
9.1921592
9.1944233
9.1967999
9.1992495
9.201729
9.2041948
9.2066083
9.2089392
9.2111682
9.2132862
9.2152952
9.2172052
9.2190304
9.220788
9.2224956
9.2241694
9.225823
9.2274675
9.2291113
9.2307598
9.2324163
9.2669733
9.2653509
9.263735
9.2621224
9.2605074
9.2588816
9.2572339
9.2555504
9.2538149
9.2520097
9.2501179
9.2481253
9.2460226
9.2438086
9.2414932
9.2390974
9.2366525
9.2341985
9.2317795
9.229439
9.2272161
9.2251423
9.2232402
9.2215231
9.2199969
9.2186632
9.2175225
9.2165764
9.2158274
9.2152726
9.2148984
9.2506265
9.2509829
9.2515124
9.2522289
9.2531357
9.2542317
9.2555167
9.2569914
9.2586562
9.260507
9.2625324
9.2647114
9.2670138
9.2694013
9.2718305
9.2742567
9.2766391
9.2789446
9.2811507
9.2832465
9.2852319
9.287115
9.2889098
9.2906329
9.2923015
9.293932
9.2955383
9.2971316
9.2987204
9.3003106
9.3019054
9.337181
9.335606
9.3340338
9.3324605
9.3308805
9.329285
9.3276628
9.3259999
9.3242803
9.3224872
9.3206044
9.318619
9.3165239
9.314321
9.3120226
9.3096529
9.3072463
9.3048445
9.3024921
9.300232
9.2981015
9.2961292
9.2943341
9.2927258
9.2913061
9.2900729
9.2890239
9.288158
9.2874755
9.2869724
9.2866347
9.322921
9.3232396
9.3237154
9.3243625
9.3251854
9.3261849
9.3273629
9.3287235
9.3302705
9.332004
9.3339168
9.3359917
9.3382024
9.3405129
9.3428816
9.345264
9.3476181
9.3499085
9.3521096
9.3542072
9.3561978
9.3580869
9.359886
9.3616104
9.3632763
9.3648994
9.3664933
9.3680693
9.369636
9.3711992
9.3727628
9.408608
9.4070463
9.4054823
9.4039124
9.4023309
9.4007293
9.3990967
9.3974198
9.3956839
9.3938734
9.3919746
9.3899773
9.3878778
9.3856814
9.383404
9.3810723
9.3787225
9.3763964
9.3741373
9.3719855
9.3699748
9.3681294
9.3664642
9.3649843
9.3636875
9.3625683
9.3616211
9.3608432
9.3602331
9.3597855
9.3594866
9.3963323
9.3966109
9.3970293
9.3976013
9.3983323
9.3992244
9.4002812
9.4015095
9.4029164
9.4045059
9.4062749
9.4082112
9.4102929
9.4124887
9.4147604
9.4170662
9.4193651
9.4216209
9.4238062
9.4259035
9.4279059
9.4298149
9.4316392
9.4333908
9.4350839
9.4367325
9.438349
9.4399441
9.4415257
9.4430994
9.444669
9.4809038
9.4793182
9.4777267
9.4761261
9.4745111
9.472874
9.4712049
9.4694923
9.4677236
9.4658862
9.4639696
9.4619673
9.4598798
9.4577156
9.4554931
9.4532403
9.4509925
9.4487894
9.4466705
9.4446712
9.4428204
9.4411371
9.439631
9.4383031
9.4371479
9.4361567
9.4353219
9.4346393
9.4341065
9.4337178
9.4334597
9.4708726
9.47111
9.4714686
9.4719617
9.4725947
9.4733703
9.474293
9.475371
9.4766143
9.4780297
9.4796184
9.4813729
9.4832767
9.4853043
9.4874235
9.4895976
9.491789
9.4939637
9.4960941
9.498161
9.5001545
9.5020723
9.503919
9.5057029
9.5074349
9.509126
9.5107867
9.5124259
9.5140506
9.5156657
9.517274
9.5537494
9.5521141
9.5504722
9.5488211
9.5471569
9.5454728
9.5437614
9.5420135
9.5402198
9.5383713
9.5364618
9.5344887
9.5324559
9.5303744
9.5282635
9.5261501
9.5240663
9.5220464
9.5201238
9.5183276
9.5166797
9.515194
9.5138757
9.512722
9.5117246
9.5108728
9.5101578
9.5095749
9.5091218
9.5087933
9.5085767
9.5465795
9.5467755
9.547074
9.5474872
9.5480197
9.5486735
9.5494531
9.5503674
9.5514279
9.5526437
9.5540194
9.5555518
9.5572298
9.5590347
9.560941
9.5629192
9.564938
9.5669679
9.5689842
9.5709675
9.5729063
9.574795
9.5766346
9.5784292
9.5801859
9.5819121
9.5836155
9.5853026
9.5869786
9.5886473
9.5903104
9.6269503
9.6252623
9.6235708
9.6218748
9.6201715
9.6184564
9.6167246
9.6149698
9.6131864
9.6113691
9.6095159
9.6076272
9.6057099
9.6037758
9.6018426
9.5999335
9.598075
9.5962946
9.5946181
9.593067
9.5916569
9.5903962
9.5892862
9.5883213
9.5874912
9.5867843
9.5861914
9.5857087
9.5853348
9.5850658
9.58489
9.6235187
9.6236748
9.6239153
9.6242509
9.624685
9.6252179
9.6258531
9.6265991
9.627468
9.6284706
9.6296135
9.6308971
9.6323153
9.6338557
9.6355005
9.6372279
9.6390141
9.6408359
9.6426726
9.6445077
9.6463293
9.648131
9.6499105
9.6516682
9.6534075
9.6551324
9.6568478
9.6585573
9.6602642
9.6619705
9.6636766
9.7005111
9.6987974
9.6970879
9.6953825
9.6936804
9.6919791
9.6902762
9.6885681
9.6868526
9.6851279
9.6833943
9.6816553
9.6799174
9.6781919
9.6764936
9.6748406
9.6732527
9.67175
9.6703501
9.6690677
9.667912
9.6668872
9.6659915
9.6652174
9.6645537
9.6639886
9.6635137
9.6631264
9.6628275
9.6626144
9.6624771
9.7017774
9.7018969
9.7020842
9.7023485
9.7026915
9.7031111
9.703609
9.7041932
9.7048754
9.7056669
9.7065757
9.7076046
9.7087516
9.7100095
9.7113673
9.7128108
9.7143235
9.7158892
9.7174925
9.7191203
9.7207625
9.7224123
9.7240661
9.7257225
9.727382
9.729046
9.7307169
9.7323956
9.7340839
9.7357822
9.7374898
9.77466
9.7729752
9.7713051
9.7696509
9.7680129
9.7663902
9.7647821
9.7631877
9.7616064
9.7600388
9.7584867
9.7569539
9.7554466
9.7539738
9.7525466
9.7511775
9.7498798
9.7486663
9.7475482
9.7465335
9.7456273
9.7448302
9.7441385
9.7435438
9.7430349
9.7426001
9.7422323
9.7419307
9.7416985
9.7415353
9.7414324
9.7814549
9.7815424
9.7816835
9.7818864
9.7821502
9.7824703
9.7828465
9.7832855
9.7837983
9.7843963
9.785088
9.7858776
9.7867656
9.7877491
9.7888219
9.7899762
9.7912018
9.7924883
9.7938261
9.7952059
9.7966199
9.7980627
9.7995307
9.801022
9.8025354
9.8040706
9.805628
9.807208
9.8088103
9.8104342
9.8120786
9.849807
9.8482212
9.8466613
9.8451283
9.8436235
9.8421475
9.8407002
9.8392816
9.8378924
9.836534
9.8352086
9.8339191
9.8326704
9.8314688
9.8303214
9.829236
9.8282203
9.8272816
9.8264256
9.8256564
9.8249755
9.8243817
9.8238702
9.8234328
9.8230581
9.8227354
9.8224583
9.8222285
9.8220521
9.8219309
9.8218571
9.8626514
9.8627127
9.862816
9.8629688
9.8631684
9.8634069
9.8636816
9.8639983
9.8643675
9.8648003
9.8653049
9.8658861
9.8665458
9.8672834
9.8680966
9.8689813
9.8699327
9.8709451
9.8720127
9.8731301
9.8742923
9.8754957
9.8767375
9.8780157
9.879329
9.8806765
9.8820578
9.8834727
9.8849204
9.8863998
9.8879097
9.9264491
9.9250299
9.9236449
9.9222951
9.9209819
9.9197057
9.9184671
9.9172667
9.916105
9.9149834
9.9139036
9.9128677
9.9118787
9.9109402
9.9100561
9.9092306
9.9084673
9.9077697
9.9071401
9.9065797
9.9060883
9.9056638
9.9053014
9.9049931
9.904728
9.9044958
9.9042913
9.904118
9.9039856
9.9038985
9.9038484
9.9454573
9.9454973
9.9455705
9.9456854
9.9458362
9.9460116
9.9462068
9.9464266
9.9466815
9.9469818
9.9473354
9.947747
9.9482187
9.9487513
9.9493444
9.9499966
9.9507061
9.9514705
9.9522871
9.9531532
9.9540662
9.9550241
9.9560252
9.957068
9.9581518
9.959276
9.9604399
9.9616432
9.9628851
9.9641648
9.9654812
10.002683
10.001555
10.000467
9.9994191
9.9984115
9.9974448
9.9965196
9.9956364
9.9947962
9.9940001
9.9932495
9.992546
9.9918914
9.9912872
9.9907347
9.9902349
9.9897883
9.9893946
9.989053
9.9887611
9.9885147
9.9883063
9.9881256
9.9879623
9.9878117
9.9876795
9.9875792
9.9875177
9.9874868
10.029945
10.029968
10.030019
10.030108
10.030224
10.030354
10.03049
10.030638
10.030806
10.031006
10.031245
10.031526
10.031852
10.032224
10.032641
10.033105
10.033615
10.034171
10.034771
10.035415
10.036102
10.036831
10.037602
10.038413
10.039265
10.040157
10.041089
10.042061
10.043072
10.084075
10.08318
10.082323
10.081504
10.080724
10.079982
10.079278
10.078613
10.077987
10.0774
10.076853
10.076345
10.075878
10.075451
10.075064
10.074718
10.074411
10.074144
10.073914
10.073721
10.07356
10.073425
10.073306
10.073192
10.07308
10.072975
10.072897
10.072855
10.072839
10.116174
10.116183
10.116217
10.116288
10.116383
10.116482
10.116577
10.116672
10.116778
10.116906
10.117061
10.117247
10.117466
10.117717
10.118002
10.118322
10.118677
10.119066
10.119492
10.119953
10.120449
10.120981
10.121549
10.122152
10.122792
10.123467
10.124178
10.124924
10.167297
10.166654
10.166044
10.165467
10.164923
10.164411
10.163931
10.163483
10.163067
10.162682
10.162329
10.162006
10.161714
10.161452
10.161219
10.161014
10.160837
10.160687
10.160564
10.160464
10.160381
10.160305
10.160226
10.160137
10.16005
10.159984
10.159957
10.159954
10.204184
10.204181
10.204202
10.204263
10.204346
10.204426
10.204493
10.204553
10.204616
10.204694
10.204791
10.204911
10.205053
10.205219
10.205408
10.205622
10.205861
10.206126
10.206417
10.206735
10.207081
10.207454
10.207856
10.208286
10.208744
10.209232
10.20975
10.210297
10.253916
10.253456
10.253022
10.252614
10.252232
10.251874
10.251542
10.251234
10.250949
10.250688
10.25045
10.250235
10.25004
10.249867
10.249714
10.249581
10.249467
10.249372
10.249296
10.249237
10.249189
10.249143
10.249086
10.249013
10.248933
10.248874
10.248857
10.248868
10.294008
10.29399
10.294001
10.294059
10.294138
10.294208
10.294256
10.294291
10.294326
10.294371
10.294429
10.294504
10.294595
10.294701
10.294824
10.294964
10.29512
10.295295
10.295488
10.2957
10.295932
10.296184
10.296456
10.29675
10.297066
10.297403
10.297763
10.298145
10.342972
10.342658
10.342363
10.342088
10.34183
10.341591
10.34137
10.341165
10.340978
10.340807
10.340652
10.340512
10.340386
10.340275
10.340177
10.340092
10.34002
10.339962
10.339917
10.339885
10.33986
10.339834
10.339792
10.339725
10.339646
10.339588
10.339582
10.339607
10.385667
10.385633
10.385635
10.385695
10.385776
10.38584
10.385877
10.385896
10.385912
10.385934
10.385968
10.386013
10.38607
10.386137
10.386215
10.386304
10.386403
10.386515
10.386639
10.386776
10.386926
10.38709
10.387268
10.38746
10.387668
10.387891
10.38813
10.388384
10.434368
10.434164
10.433973
10.433795
10.43363
10.433477
10.433335
10.433205
10.433086
10.432978
10.43288
10.432791
10.432712
10.432642
10.432581
10.432528
10.432483
10.432448
10.432424
10.432409
10.4324
10.432387
10.432354
10.432291
10.432208
10.432145
10.432148
10.432192
10.479186
10.47913
10.479122
10.479188
10.479274
10.479337
10.479366
10.479374
10.479377
10.479386
10.479403
10.47943
10.479465
10.479507
10.479555
10.47961
10.479672
10.479741
10.479818
10.479903
10.479996
10.480099
10.48021
10.48033
10.480461
10.480601
10.480752
10.480913
10.52801
10.527884
10.527767
10.527658
10.527557
10.527463
10.527377
10.527297
10.527225
10.527159
10.527099
10.527045
10.526997
10.526954
10.526916
10.526883
10.526856
10.526836
10.526824
10.52682
10.526822
10.526819
10.526793
10.52673
10.526641
10.52657
10.526585
10.526657
10.574622
10.57453
10.574505
10.574579
10.574671
10.574733
10.574755
10.574754
10.574748
10.574748
10.574756
10.574771
10.574792
10.574817
10.574847
10.57488
10.574918
10.574959
10.575005
10.575056
10.575112
10.575172
10.575238
10.57531
10.575387
10.575471
10.575561
10.575657
10.623869
10.623796
10.623729
10.623666
10.623608
10.623554
10.623504
10.623459
10.623416
10.623378
10.623343
10.623311
10.623283
10.623257
10.623234
10.623214
10.623198
10.623187
10.623182
10.623186
10.623195
10.623201
10.623184
10.623124
10.623032
10.622957
10.622996
10.623116
10.672206
10.672048
10.671985
10.672059
10.672147
10.672202
10.672212
10.672201
10.672187
10.672181
10.672183
10.672191
10.672203
10.672218
10.672236
10.672256
10.672278
10.672302
10.672328
10.672357
10.672388
10.672422
10.672459
10.672499
10.672541
10.672588
10.672637
10.67269
10.722218
10.72218
10.722144
10.722111
10.72208
10.722052
10.722025
10.722
10.721977
10.721956
10.721937
10.721919
10.721903
10.721887
10.721874
10.721862
10.721853
10.721847
10.721847
10.721857
10.721875
10.721893
10.721892
10.721846
10.721769
10.7217
10.721797
10.72201
10.772692
10.772412
10.772271
10.772331
10.772391
10.772424
10.772412
10.772385
10.772362
10.77235
10.772347
10.772351
10.772358
10.772367
10.772378
10.772389
10.772401
10.772414
10.772428
10.772444
10.77246
10.772478
10.772496
10.772516
10.772538
10.772561
10.772585
10.772611
10.824077
10.82406
10.824043
10.824028
10.824014
10.824
10.823988
10.823976
10.823964
10.823954
10.823944
10.823934
10.823925
10.823917
10.823909
10.823902
10.823897
10.823895
10.823899
10.823913
10.823941
10.823978
10.824006
10.82399
10.823953
10.823899
10.824089
10.824432
10.877321
10.876954
10.876721
10.876781
10.876791
10.87679
10.876745
10.876699
10.876666
10.87665
10.876644
10.876645
10.876649
10.876654
10.87666
10.876666
10.876673
10.87668
10.876686
10.876694
10.876701
10.876709
10.876718
10.876726
10.876735
10.876745
10.876755
10.876766
10.930581
10.930575
10.930569
10.930563
10.930558
10.930553
10.930547
10.930542
10.930538
10.930533
10.930528
10.930524
10.930519
10.930515
10.93051
10.930507
10.930504
10.930504
10.930509
10.930526
10.930562
10.930615
10.930675
10.930688
10.930706
10.930619
10.93088
10.931189
10.985381
10.98527
10.984994
10.985141
10.985092
10.985079
10.985009
10.984953
10.984918
10.984902
10.984897
10.984897
10.984899
10.984901
10.984905
10.984908
10.984911
10.984914
10.984917
10.98492
10.984923
10.984926
10.984928
10.984931
10.984934
10.984937
10.984941
10.984944
11.038654
11.038653
11.038651
11.038649
11.038648
11.038646
11.038645
11.038643
11.038642
11.03864
11.038638
11.038636
11.038634
11.038632
11.03863
11.038628
11.038626
11.038626
11.03863
11.038642
11.038674
11.038727
11.038805
11.038808
11.0389
11.038654
11.038954
11.038734
11.089813
11.090474
11.090084
11.090463
11.090293
11.090309
11.090222
11.090177
11.090152
11.090145
11.090143
11.090144
11.090146
11.090148
11.090149
11.09015
11.090151
11.090152
11.090153
11.090154
11.090155
11.090156
11.090157
11.090157
11.090158
11.090159
11.090159
11.090159
11.137623
11.137623
11.137623
11.137622
11.137622
11.137622
11.137621
11.137621
11.137621
11.13762
11.13762
11.137619
11.137619
11.137618
11.137617
11.137617
11.137616
11.137616
11.137617
11.137623
11.13764
11.137671
11.137723
11.137723
11.137763
11.137579
11.137741
11.137665
11.138048
11.13745
11.136802
11.136391
11.136279
11.136365
11.136416
11.13641
11.136374
11.136342
11.136323
11.136315
11.136312
11.136311
11.136312
11.136312
11.136313
11.136313
11.136314
11.136315
11.136315
11.136315
11.136316
11.136316
11.136317
11.136317
11.136317
11.136318
11.136318
11.136318
11.135372
11.135372
11.135371
11.13537
11.13537
11.13537
11.135369
11.135369
11.135368
11.135368
11.135367
11.135367
11.135366
11.135366
11.135365
11.135364
11.135364
11.135365
11.135368
11.135378
11.135397
11.13543
11.135464
11.135464
11.13539
11.135307
11.135465
11.136116
11.137235
11.136989
11.135863
11.135153
11.13499
11.135084
11.135166
11.135168
11.135131
11.135097
11.135077
11.135067
11.135064
11.135063
11.135063
11.135064
11.135065
11.135065
11.135066
11.135067
11.135067
11.135068
11.135068
11.135069
11.13507
11.13507
11.135071
11.135071
11.135072
11.135072
11.135182
11.135181
11.135181
11.13518
11.135179
11.135179
11.135178
11.135177
11.135177
11.135176
11.135175
11.135174
11.135174
11.135173
11.135172
11.135171
11.135171
11.135172
11.135175
11.135185
11.135205
11.135241
11.13528
11.135281
11.135197
11.135094
11.13524
11.135943
11.137137
11.137157
11.136062
11.135393
11.13526
11.135367
11.13545
11.135447
11.135406
11.135369
11.135348
11.135338
11.135335
11.135334
11.135335
11.135336
11.135337
11.135337
11.135338
11.135339
11.13534
11.135341
11.135342
11.135343
11.135343
11.135344
11.135345
11.135346
11.135347
11.135348
11.135427
11.135426
11.135425
11.135424
11.135423
11.135422
11.135421
11.13542
11.135419
11.135418
11.135417
11.135416
11.135415
11.135414
11.135413
11.135412
11.135412
11.135412
11.135415
11.135424
11.135446
11.135483
11.135526
11.135531
11.135449
11.135342
11.135469
11.136119
11.137193
11.137176
11.136126
11.135485
11.135359
11.135465
11.135545
11.135539
11.135496
11.135458
11.135437
11.135428
11.135425
11.135425
11.135426
11.135427
11.135428
11.135429
11.13543
11.135431
11.135432
11.135434
11.135435
11.135436
11.135437
11.135438
11.135439
11.135441
11.135442
11.135443
11.135441
11.135439
11.135437
11.135436
11.135434
11.135433
11.135432
11.13543
11.135429
11.135428
11.135426
11.135425
11.135424
11.135423
11.135422
11.13542
11.13542
11.13542
11.135422
11.135431
11.135452
11.13549
11.135533
11.135539
11.13546
11.135355
11.135481
11.136119
11.137159
11.137149
11.136112
11.135476
11.13535
11.135455
11.135534
11.135528
11.135484
11.135447
11.135426
11.135417
11.135415
11.135415
11.135416
11.135417
11.135419
11.13542
11.135421
11.135422
11.135424
11.135425
11.135427
11.135428
11.13543
11.135431
11.135433
11.135435
11.135436
11.135438
11.135439
11.135437
11.135435
11.135433
11.135431
11.135429
11.135428
11.135426
11.135424
11.135423
11.135421
11.13542
11.135418
11.135417
11.135415
11.135414
11.135413
11.135413
11.135415
11.135424
11.135445
11.135482
11.135525
11.135531
11.135452
11.135348
11.135473
11.136108
11.137145
11.137143
11.136106
11.135472
11.135347
11.135451
11.13553
11.135524
11.135481
11.135444
11.135423
11.135415
11.135412
11.135413
11.135414
11.135415
11.135417
11.135418
11.13542
11.135421
11.135423
11.135425
11.135427
11.135429
11.13543
11.135432
11.135434
11.135436
11.135438
11.135441
11.135443
11.135441
11.135438
11.135436
11.135434
11.135432
11.13543
11.135428
11.135426
11.135424
11.135422
11.135421
11.135419
11.135418
11.135416
11.135415
11.135413
11.135413
11.135415
11.135424
11.135444
11.135482
11.135524
11.13553
11.135451
11.135347
11.135472
11.136107
11.137143
11.137145
11.136108
11.135473
11.135348
11.135452
11.135531
11.135526
11.135483
11.135446
11.135425
11.135417
11.135414
11.135415
11.135416
11.135418
11.13542
11.135421
11.135423
11.135424
11.135426
11.135428
11.13543
11.135432
11.135434
11.135436
11.135439
11.135441
11.135443
11.135446
11.13545
11.135447
11.135445
11.135442
11.13544
11.135438
11.135435
11.135434
11.135431
11.135429
11.135427
11.135426
11.135424
11.135422
11.135421
11.135419
11.135418
11.135418
11.13542
11.135428
11.135449
11.135486
11.135529
11.135534
11.135455
11.135351
11.135476
11.136112
11.137149
11.137159
11.136119
11.135482
11.135356
11.135461
11.13554
11.135535
11.135492
11.135455
11.135434
11.135426
11.135424
11.135424
11.135425
11.135426
11.135426
11.135427
11.135429
11.13543
11.135432
11.135434
11.135436
11.135438
11.13544
11.135443
11.135445
11.135448
11.13545
11.135453
11.135446
11.135444
11.135441
11.135439
11.135436
11.135434
11.135432
11.13543
11.135428
11.135426
11.135425
11.135424
11.135424
11.135431
11.135433
11.135432
11.135431
11.13543
11.135432
11.135441
11.135461
11.135499
11.135541
11.135546
11.135466
11.13536
11.135485
11.136126
11.137176
11.137193
11.136119
11.135469
11.135342
11.13545
11.135532
11.135528
11.135486
11.135449
11.135429
11.13542
11.135418
11.135418
11.135419
11.13542
11.135418
11.135405
11.135386
11.135382
11.135382
11.135384
11.135386
11.135388
11.13539
11.135392
11.135394
11.135397
11.135399
11.135402
11.135263
11.135261
11.135258
11.135256
11.135254
11.135252
11.13525
11.135248
11.135247
11.135247
11.135255
11.135294
11.135327
11.135341
11.135344
11.135343
11.135342
11.135341
11.135344
11.135352
11.135373
11.135409
11.13545
11.135452
11.135368
11.135261
11.135393
11.136062
11.137157
11.137137
11.135943
11.135241
11.135095
11.135198
11.135283
11.135283
11.135245
11.13521
11.13519
11.135181
11.135179
11.135179
11.13518
11.135181
11.135178
11.135163
11.135127
11.135066
11.135006
11.134993
11.134992
11.134993
11.134995
11.134997
11.134999
11.135001
11.135003
11.135005
11.13478
11.134777
11.134775
11.134773
11.134771
11.13477
11.134769
11.134771
11.134786
11.134863
11.134953
11.135019
11.135056
11.135071
11.135074
11.135073
11.135072
11.135072
11.135074
11.135083
11.135102
11.135135
11.13517
11.135168
11.135085
11.134991
11.135154
11.135864
11.136989
11.137235
11.136116
11.135465
11.135308
11.135391
11.135466
11.135467
11.135434
11.135402
11.135384
11.135375
11.135373
11.135373
11.135374
11.135375
11.135372
11.135358
11.135322
11.135257
11.135163
11.135054
11.134973
11.134957
11.134955
11.134956
11.134958
11.13496
11.134962
11.134964
11.13582
11.135818
11.135816
11.135815
11.135813
11.135814
11.135826
11.135895
11.136008
11.13612
11.13621
11.136272
11.136307
11.13632
11.136323
11.136321
11.136321
11.13632
11.136322
11.136329
11.136347
11.136378
11.136413
11.136418
11.136366
11.13628
11.136392
11.136803
11.13745
11.138048
11.137666
11.137741
11.13758
11.137765
11.137725
11.137726
11.137675
11.137645
11.137629
11.137624
11.137624
11.137625
11.137627
11.137628
11.137626
11.137613
11.137581
11.137523
11.137437
11.137331
11.137215
11.137111
11.137066
11.137061
11.137061
11.137063
11.137065
11.137066
8.9431111
8.9755286
9.0082908
9.0414064
9.0748799
9.1087114
9.1428966
9.1774251
9.2122782
9.2474306
9.282848
9.3184954
9.3543174
9.3902624
9.426277
9.4623166
9.4983498
9.5343678
9.5703907
9.6064706
9.6426887
9.6791469
9.7159571
9.7532238
9.791034
9.8294531
9.8685221
9.9082601
9.9486682
9.9897347
10.03144
10.073761
10.116672
10.160151
10.204176
10.248729
10.293796
10.339365
10.385426
10.431975
10.479007
10.526526
10.574543
10.623093
10.672244
10.72214
10.772951
10.824956
10.87795
10.932238
10.985771
11.039227
11.089011
11.089692
11.038853
10.985582
10.931589
10.877616
10.824632
10.772751
10.721968
10.672088
10.622941
10.574401
10.526395
10.478889
10.431869
10.38533
10.339277
10.293715
10.248654
10.204104
10.160082
10.116604
10.073693
10.03137
9.98966
9.9485864
9.9081685
9.8684174
9.8293317
9.790893
9.7530603
9.7157693
9.6789339
9.6424509
9.6062101
9.5701106
9.5340723
9.4980428
9.462002
9.425959
9.3899439
9.3540008
9.318182
9.2825395
9.247127
9.2119801
9.1771327
9.14261
9.10843
9.0746041
9.0411369
9.0080274
8.9752698
8.9428553
8.9421814
8.9409383
8.9390951
8.9367365
8.9340185
8.9311034
8.9281294
8.9252075
8.9224203
8.9198275
8.9174651
8.9153488
8.9134779
8.911843
8.9104289
8.9092209
8.9082064
8.9073772
8.9067267
8.9062458
8.9059151
8.9057061
8.905585
8.9388183
8.9389313
8.9391272
8.9394388
8.9398951
8.940515
8.941308
8.9422808
8.9434417
8.944804
8.9463832
8.9481959
8.9502529
8.952556
8.9550912
8.9578241
8.9606962
8.9636259
8.9665033
8.9691906
8.9715268
8.973356
8.9745935
9.0073472
9.0061125
9.0042932
9.0019744
8.9993116
8.9964653
8.9935727
8.9907432
8.9880578
8.9855737
8.9833244
8.981322
8.9795637
8.978037
8.9767241
8.9756085
8.9746765
8.973919
8.9733294
8.9728978
8.9726051
8.9724225
8.9723178
9.0060895
9.0061854
9.0063546
9.0066284
9.0070358
9.0075956
9.0083184
9.0092111
9.0102835
9.0115496
9.0130272
9.0147353
9.0166881
9.0188898
9.0213293
9.0239744
9.0267688
9.0296315
9.0324538
9.0350982
9.0374044
9.0392176
9.0404514
9.0739127
9.0726769
9.0708663
9.0685678
9.065936
9.063131
9.0602911
9.0575245
9.0549125
9.0525107
9.0503507
9.0484424
9.0467798
9.0453477
9.0441254
9.0430942
9.0422391
9.0415498
9.041019
9.0406359
9.0403811
9.040225
9.0401373
9.0744648
9.0745441
9.074687
9.0749236
9.0752829
9.0757855
9.0764425
9.0772618
9.0782541
9.0794353
9.0808257
9.082447
9.0843163
9.0864404
9.0888107
9.0913964
9.0941421
9.0969663
9.0997599
9.1023848
9.1046801
9.1064918
9.1077319
9.1419046
9.1406575
9.1388419
9.1365456
9.1339227
9.1311347
9.1283201
9.1255893
9.1230238
9.1206794
9.1185859
9.1167511
9.115167
9.1138149
9.1126719
9.1117163
9.1109312
9.1103051
9.1098298
9.1094935
9.1092753
9.1091454
9.1090742
9.143967
9.1440301
9.1441467
9.144347
9.1446608
9.1451099
9.1457063
9.1464588
9.1473797
9.1484869
9.1498035
9.1513538
9.1531577
9.1552249
9.157548
9.1600978
9.1628188
9.1656284
9.1684155
9.1710408
9.1733415
9.1751639
9.1764192
9.2112579
9.2099935
9.2081623
9.2058546
9.203224
9.2004347
9.1976268
9.1949129
9.1923756
9.1900711
9.1880276
9.1862521
9.1847334
9.1834502
9.1823771
9.1814894
9.1807679
9.1802
9.1797764
9.1794843
9.1793015
9.1791977
9.1791427
9.2146007
9.2146478
9.2147393
9.2149051
9.2151762
9.2155752
9.2161154
9.2168067
9.2176624
9.2187026
9.2199532
9.2214411
9.2231891
9.2252093
9.227496
9.2300209
9.2327285
9.2355352
9.2383278
9.2409648
9.2432811
9.2451217
9.246396
9.2818006
9.2805171
9.2786676
9.2763436
9.2737015
9.2709075
9.2681045
9.2654059
9.2628956
9.260629
9.2586338
9.2569146
9.2554581
9.2542403
9.2532329
9.252409
9.2517471
9.2512338
9.2508587
9.2506083
9.2504591
9.2503797
9.2503405
9.2863612
9.286393
9.2864601
9.2865923
9.2868222
9.2871736
9.2876602
9.2882924
9.2890841
9.2900577
9.2912409
9.2926632
9.2943501
9.2963157
9.2985567
9.3010463
9.3037296
9.3065233
9.3093135
9.3119567
9.3142858
9.316143
9.3174351
9.3532482
9.3519506
9.3500906
9.3477628
9.3451267
9.34235
9.3395764
9.336919
9.3344604
9.3322542
9.330326
9.3286779
9.3272946
9.3261496
9.3252123
9.3244541
9.3238524
9.3233929
9.3230653
9.3228559
9.3227404
9.3226854
9.3226613
9.3592406
9.3592571
9.3592999
9.3593987
9.3595876
9.3598912
9.360323
9.3608931
9.3616155
9.362513
9.3636149
9.3649524
9.3665529
9.3684328
9.3705912
9.3730042
9.3756198
9.3783575
9.3811056
9.3837213
9.3860369
9.3878914
9.3891888
9.4252067
9.4239179
9.422081
9.4197934
9.417217
9.4145184
9.4118378
9.4092843
9.4069358
9.4048415
9.4030237
9.4014817
9.4001985
9.3991459