/*--------------------------------*- C++ -*----------------------------------*\
| =========                 |                                                 |
| \\      /  F ield         | OpenFOAM: The Open Source CFD Toolbox           |
|  \\    /   O peration     | Version:  v2012                                 |
|   \\  /    A nd           | Website:  www.openfoam.com                      |
|    \\/     M anipulation  |                                                 |
\*---------------------------------------------------------------------------*/
FoamFile
{
    version     2.0;
    format      ascii;
    class       surfaceScalarField;
    location    "200";
    object      phi;
}
// * * * * * * * * * * * * * * * * * * * * * * * * * * * * * * * * * * * * * //

dimensions      [0 3 -1 0 0 0 0];
oriented        oriented;


internalField   nonuniform List<scalar> 
220385
(
-5.9323599e-05
-0.002534138
-4.3063545e-05
0.0024819697
6.1469688e-05
9.3085764e-05
-0.0024018784
2.2951557e-05
-1.4172059e-05
0.0023337753
3.6776867e-05
-2.9193983e-06
5.00237e-05
-3.5395504e-05
0.002329927
-4.1479813e-06
2.9760225e-05
0.0024181324
-7.9164039e-05
4.7647133e-05
0.0025738008
-2.1084537e-05
4.9976631e-05
0.0027719977
-5.5841329e-05
5.1145723e-05
0.00292535
-1.6677373e-05
5.4758177e-05
0.0030421583
-1.532008e-05
5.8555033e-05
0.0030976681
-3.6975088e-06
6.0824766e-05
0.0031248857
-5.5707315e-07
6.1682348e-05
0.0031334689
3.2640704e-07
6.1983356e-05
0.0031352527
3.2995257e-07
6.2060389e-05
0.0031351443
2.4653037e-07
6.2074437e-05
0.003134857
1.4534261e-07
6.207374e-05
0.0031346864
5.8965148e-08
6.2074804e-05
0.003134676
-2.7450921e-08
6.2078072e-05
0.0031348543
-3.6434968e-08
6.2067291e-05
0.0031351492
8.279539e-07
6.1992526e-05
0.0031352622
3.9455403e-06
6.1693579e-05
0.0031334813
1.5541397e-05
6.0838001e-05
0.0031249007
1.6867317e-05
5.8569844e-05
0.0030976849
5.5997562e-05
5.4775186e-05
0.0030421769
2.1207134e-05
5.1166427e-05
0.002925371
7.9255701e-05
5.0001225e-05
0.0027720205
4.2096192e-06
4.7672804e-05
0.0025738233
3.5427278e-05
2.9783238e-05
0.0024181538
-3.6758788e-05
0.0023299479
-2.8900405e-06
0.0024019045
4.9992501e-05
-8.2650373e-05
0.0025264108
8.1839426e-05
-1.8296739e-05
0.0026904656
9.6699101e-05
-5.4724562e-05
0.0028047162
0.00010430856
-1.0543949e-05
0.0028905059
0.00011013693
-1.1041496e-05
0.00291963
0.00011293159
9.5202175e-07
0.002928529
0.0001140305
2.0430188e-06
0.0029242981
0.00011380862
1.927872e-06
0.0029185478
0.00011348381
8.7482321e-07
0.0029142364
0.00011319602
2.6622611e-07
0.0029119014
0.00011303365
-9.5457262e-08
0.0029107977
0.00011295042
-2.558084e-07
0.0029103471
0.00011291406
-3.197275e-07
0.0029101826
0.00011289892
-3.292587e-07
0.0029101241
0.00011289368
-3.3884684e-07
0.0029101232
0.00011289178
-3.543093e-07
0.002910128
0.0001128901
-3.7080101e-07
0.0029101295
0.00011288775
-3.8176914e-07
0.0029101282
0.00011288566
-3.9050279e-07
0.0029101283
0.00011288304
-3.9460234e-07
0.0029101303
0.00011287993
-4.0375681e-07
0.002910134
0.00011287692
-4.0926518e-07
0.0029101402
0.00011287436
-4.1542214e-07
0.0029101473
0.00011287226
-4.2464377e-07
0.0029101473
0.00011287103
-4.3968651e-07
0.0029101457
0.000112868
-4.2707777e-07
0.0029101336
0.00011286447
-4.3188232e-07
0.0029101583
0.00011286188
0.0029101567
0.00011285888
8.3902511e-07
0.0029099936
0.00011300408
8.2573244e-07
0.0029099963
0.00011299958
8.1148817e-07
0.0029100007
0.00011299626
7.7699091e-07
0.0029100231
0.00011299279
7.6576991e-07
0.0029100091
0.00011298852
7.463703e-07
0.0029100153
0.00011298514
7.2702587e-07
0.0029100207
0.00011298353
7.1117886e-07
0.0029100229
0.00011298076
6.9816252e-07
0.0029100255
0.00011297613
6.7001858e-07
0.0029100368
0.00011297277
6.3248855e-07
0.0029100528
0.00011297156
6.08885e-07
0.0029100424
0.00011296862
5.9934692e-07
0.0029100334
0.00011296533
5.8061966e-07
0.0029100505
0.00011296352
5.3348424e-07
0.0029100663
0.00011296176
4.5870588e-07
0.0029101137
0.00011296398
2.8864672e-07
0.0029102808
0.00011297583
-8.1581673e-08
0.0029107398
0.00011300919
-6.9857137e-07
0.0029118483
0.00011308913
-1.760351e-06
0.0029141868
0.00011324811
-1.8851163e-06
0.0029185021
0.00011353312
-8.0502012e-07
0.0029242569
0.00011385591
1.1172102e-05
0.0029284951
0.00011407608
1.0648532e-05
0.0029196051
0.0001129756
5.4800693e-05
0.0028904844
0.00011017976
1.8351187e-05
0.0028046924
0.0001043476
8.2689093e-05
0.0026904383
9.6730988e-05
0.0025263829
8.1868449e-05
1.1406005e-05
0.0024481814
8.9747036e-05
7.2780728e-06
0.0025882777
0.00010628858
-5.4327973e-06
0.0027022336
0.00011516973
-4.4186144e-06
0.0027693129
0.00012015729
-4.6525726e-06
0.0027971611
0.00012267793
-2.4312506e-06
0.0028026125
0.00012366124
-1.3031448e-06
0.002799443
0.00012368577
-9.5456456e-07
0.0027946807
0.00012347277
-1.0777555e-06
0.0027910685
0.00012324143
-1.2769368e-06
0.0027889596
0.00012308794
-1.4546977e-06
0.0027879124
0.00012300517
-1.5906028e-06
0.0027874483
0.00012296837
-1.6986007e-06
0.0027872655
0.00012295615
-1.7902064e-06
0.0027872012
0.00012295669
-1.8676979e-06
0.0027871663
0.00012296168
-1.9008832e-06
0.0027870986
0.00012296797
-1.9720834e-06
0.0027871374
0.00012297619
-2.0807744e-06
0.0027871764
0.00012298507
-2.1449119e-06
0.0027871083
0.00012299259
-2.1603335e-06
0.002787041
0.00012299995
-2.2637902e-06
0.0027871172
0.0001230092
-2.3253227e-06
0.0027870633
0.00012301896
-2.3836508e-06
0.0027870456
0.00012302806
-2.4080614e-06
0.0027869952
0.0001230383
-2.508399e-06
0.0027870735
0.00012304994
-2.5743195e-06
0.0027870058
0.00012306084
-2.585128e-06
0.002786935
0.00012307217
0.0027870058
0.00012308533
-0.0022720789
1.6726532e-06
3.7378197e-07
-0.0022739492
1.5796849e-06
2.9061694e-07
-0.0022756248
1.4724681e-06
2.0314845e-07
-0.0022770856
1.3544856e-06
1.063249e-07
-0.0022783162
1.2332875e-06
-2.6735712e-09
-0.0022793009
1.1026652e-06
-1.1798836e-07
-0.0022800251
9.6090311e-07
-2.3672433e-07
-0.002280482
8.1649995e-07
-3.5954806e-07
-0.0022806697
6.6759803e-07
-4.7991669e-07
-0.0022806003
5.2279292e-07
-5.9224078e-07
-0.002280244
3.6455395e-07
-7.2080577e-07
-0.0022796001
2.0498284e-07
-8.4891715e-07
-0.0022786866
5.3575113e-08
-9.6704404e-07
-0.0022775119
-9.7126408e-08
-1.0775544e-06
-0.0022760892
-2.4152643e-07
-1.1811735e-06
-0.0022744361
-3.7703806e-07
-1.2761164e-06
-0.0022725744
-5.033264e-07
-1.358362e-06
-0.0022705266
-6.1912814e-07
-1.4286413e-06
-0.002268316
-7.2428287e-07
-1.4863197e-06
-0.002265968
-8.1897278e-07
-1.5290243e-06
-0.0022635058
-9.0103515e-07
-1.5612414e-06
-0.0022609549
-9.6977641e-07
-1.5810419e-06
-0.0022583458
-1.0270289e-06
-1.5820986e-06
-0.0022557034
-1.0722282e-06
-1.5701768e-06
-0.0022530481
-1.1035648e-06
-1.5517575e-06
-0.0022503996
-1.1251266e-06
-1.5233388e-06
-0.0022477798
-1.1395726e-06
-1.4802833e-06
-0.0022452073
-1.1434601e-06
-1.4290417e-06
-0.0022426956
-1.135627e-06
-1.3760095e-06
-0.0022402586
-1.1209246e-06
-1.3161404e-06
-0.0022379062
-1.1020104e-06
-1.2503304e-06
-0.0022356462
-1.0769189e-06
-1.1830943e-06
-0.002233486
-1.0461229e-06
-1.114101e-06
-0.0022314311
-1.0108839e-06
-1.0439653e-06
-0.0022294857
-9.7162508e-07
-9.737584e-07
-0.0022276514
-9.291225e-07
-9.0526246e-07
-0.0022259276
-8.8608001e-07
-8.3772838e-07
-0.0022243152
-8.4031806e-07
-7.7198738e-07
-0.0022228167
-7.9131245e-07
-7.0727957e-07
-0.0022214312
-7.4188659e-07
-6.43541e-07
-0.0022201545
-6.9297445e-07
-5.8375295e-07
-0.0022189788
-6.4832733e-07
-5.273911e-07
-0.0022179203
-6.0076146e-07
-4.5770931e-07
-0.0022169853
-5.6281895e-07
-3.72174e-07
-0.0022164333
-4.3289357e-07
-1.1911679e-07
-0.0022164217
-2.7451706e-07
2.6289547e-07
-0.0022185385
5.7577373e-07
1.5410833e-06
-0.0022213944
7.7581737e-07
2.080078e-06
-0.0022291979
3.0184973e-06
4.7849398e-06
-0.0022391832
4.0589273e-06
5.9263898e-06
-0.0022607089
9.4452691e-06
1.20804e-05
-0.0022978702
1.6832717e-05
2.0328585e-05
1.4215025e-05
1.7862721e-05
0.0023338536
2.303642e-05
5.9229481e-05
0.002287877
2.3770198e-05
3.9039115e-05
0.0022649179
1.3323312e-05
1.9081123e-05
0.0022548868
5.9487033e-06
8.141291e-06
0.0022504823
3.2289331e-06
4.1940561e-06
0.0022481518
1.6133974e-06
1.4929264e-06
0.0022476889
6.1460365e-07
4.2403967e-07
0.0022480818
-2.6302914e-07
-4.0435052e-07
0.0022490872
-8.0432731e-07
-6.3393702e-07
0.0022502796
-1.0760275e-06
-6.7920704e-07
0.002251535
-1.2089623e-06
-6.4720273e-07
0.002252822
-1.2957533e-06
-6.3958291e-07
0.0022541672
-1.3770161e-06
-6.6117343e-07
0.0022555954
-1.4631643e-06
-7.0694137e-07
0.0022571251
-1.5535343e-06
-7.674359e-07
0.002258762
-1.6450045e-06
-8.3221433e-07
0.0022605115
-1.7338312e-06
-9.0179073e-07
0.002262376
-1.8184326e-06
-9.7517801e-07
0.0022643519
-1.8997935e-06
-1.0477556e-06
0.0022664389
-1.9756883e-06
-1.1221281e-06
0.0022686331
-2.0438486e-06
-1.1965211e-06
0.0022709294
-2.1032708e-06
-1.2699178e-06
0.0022733209
-2.1514528e-06
-1.342044e-06
0.0022758
-2.18827e-06
-1.4118335e-06
0.002278354
-2.2149501e-06
-1.474635e-06
0.0022809684
-2.2271053e-06
-1.5307892e-06
0.0022836327
-2.2198379e-06
-1.5840321e-06
0.0022863298
-2.1932017e-06
-1.6290033e-06
0.0022890339
-2.1483548e-06
-1.6593203e-06
0.002291723
-2.0832497e-06
-1.6780521e-06
0.0022943788
-1.9949487e-06
-1.687936e-06
0.0022969756
-1.8825069e-06
-1.6840652e-06
0.0022994827
-1.7454137e-06
-1.6626547e-06
0.0023018751
-1.5838931e-06
-1.6274721e-06
0.0023041285
-1.3987313e-06
-1.5790128e-06
0.0023062153
-1.1911479e-06
-1.5147312e-06
0.002308111
-9.626356e-07
-1.4363843e-06
0.0023097937
-7.1453661e-07
-1.345182e-06
0.0023112413
-4.479904e-07
-1.2412199e-06
0.0023124387
-1.6562858e-07
-1.1288502e-06
0.0023133715
1.2891851e-07
-1.0081597e-06
0.0023140232
4.2941792e-07
-8.7611635e-07
0.0023143813
7.4239733e-07
-7.3592517e-07
0.0023144627
1.043278e-06
-6.0189619e-07
0.0023142733
1.3323728e-06
-4.7536647e-07
0.0023138056
1.6259314e-06
-3.4172295e-07
0.002313062
1.9114185e-06
-2.0692269e-07
0.0023120569
2.1871951e-06
-7.9450702e-08
0.0023108022
2.4442939e-06
4.3652144e-08
0.00230931
2.6853586e-06
1.6137813e-07
0.0023076029
2.9130067e-06
2.6652387e-07
0.0023056976
3.1203139e-06
3.6466362e-07
3.3036887e-06
4.5690081e-07
-2.7631541e-05
-0.0027787623
6.2938737e-06
-2.8293181e-05
-0.0027774925
6.2038749e-06
-2.8907922e-05
-0.0027761974
6.0966496e-06
-2.9481056e-05
-0.0027748504
5.9692021e-06
-3.0013858e-05
-0.0027734285
5.8179015e-06
-3.0467024e-05
-0.0027719499
5.6383811e-06
-3.0798978e-05
-0.0027704393
5.4281309e-06
-3.100499e-05
-0.0027688821
5.1870831e-06
-3.1081061e-05
-0.0027672596
4.9156385e-06
-3.0979637e-05
-0.0027655953
4.615158e-06
-3.0687112e-05
-0.0027639198
4.2900614e-06
-3.0190768e-05
-0.0027622175
3.9471098e-06
-0.0027605064
3.5939645e-06
5.02927e-06
-0.0024207953
4.8552509e-07
6.8977705e-06
-0.0025617779
4.9765968e-07
8.8685843e-06
-0.0026739785
5.3826582e-07
1.0884089e-05
-0.0027362833
6.0829392e-07
1.2902012e-05
-0.0027591045
6.9778346e-07
1.4894329e-05
-0.0027620047
8.0903142e-07
1.6840015e-05
-0.002758852
9.4716408e-07
1.8721986e-05
-0.0027558501
1.1136152e-06
2.0523783e-05
-0.0027545761
1.308111e-06
2.2227211e-05
-0.0027547684
1.5302826e-06
2.3812668e-05
-0.0027558324
1.7800276e-06
2.5259823e-05
-0.0027573356
2.0564284e-06
2.6550107e-05
-0.0027590456
2.3571147e-06
2.7667048e-05
-0.0027608475
2.6780908e-06
2.8596749e-05
-0.0027627149
3.0137908e-06
2.9330115e-05
-0.002764597
3.3571884e-06
2.9865063e-05
-0.0027664527
3.7002902e-06
3.0205412e-05
-0.002768295
4.0348777e-06
3.0362178e-05
-0.0027701055
4.3534106e-06
3.0353992e-05
-0.002771901
4.6495608e-06
3.0203026e-05
-0.0027736501
4.9188971e-06
2.9929115e-05
-0.0027753248
5.1593668e-06
2.955183e-05
-0.0027769431
5.3704553e-06
2.909435e-05
-0.0027785238
5.5527682e-06
2.8578251e-05
-0.0027800427
5.7084638e-06
2.8017838e-05
-0.002781478
5.8410456e-06
2.7424285e-05
-0.0027828529
5.9539104e-06
2.6809619e-05
-0.0027841978
6.0502058e-06
2.6183787e-05
-0.0027854571
6.1339764e-06
2.5550913e-05
-0.0027866879
6.2087069e-06
-0.002787867
6.276318e-06
-2.5436697e-05
-0.0027932689
5.9934413e-06
-2.6025303e-05
-0.0027920163
5.9169703e-06
-2.6576984e-05
-0.0027907394
5.8339542e-06
-2.7136198e-05
-0.0027893807
5.7420342e-06
-2.7663526e-05
-0.0027879634
5.6378603e-06
-2.8155799e-05
-0.0027865041
5.518355e-06
-2.8600945e-05
-0.0027849781
5.3805328e-06
-2.8984065e-05
-0.0027833616
5.2209977e-06
-2.9286284e-05
-0.0027816777
5.0367867e-06
-2.9487845e-05
-0.0027799492
4.8259722e-06
-2.9569977e-05
-0.0027781557
4.5877462e-06
-2.9512015e-05
-0.0027762815
4.3225299e-06
-2.9293772e-05
-0.0027743566
4.0328507e-06
-2.8900264e-05
-0.0027724118
3.7232869e-06
-2.832275e-05
-0.0027704302
3.4000101e-06
-2.7557309e-05
-0.0027684328
3.0703356e-06
-2.6606855e-05
-0.0027664071
2.7417891e-06
-2.5481939e-05
-0.0027643942
2.4217833e-06
-2.4197335e-05
-0.0027624473
2.1170343e-06
-2.2769727e-05
-0.0027605959
1.8327039e-06
-2.1217357e-05
-0.0027589572
1.5724592e-06
-1.9559588e-05
-0.0027577647
1.338505e-06
-1.7815429e-05
-0.0027574519
1.1315859e-06
-1.6002122e-05
-0.002758615
9.5158257e-07
-1.4135104e-05
-0.0027615173
7.9829027e-07
-1.223045e-05
-0.002764581
6.71635e-07
-1.0307381e-05
-0.0027615977
5.7018382e-07
-8.3917244e-06
-0.0027386883
4.8938018e-07
-6.5217103e-06
-0.0026762756
4.2706084e-07
-4.7518733e-06
-0.0025639401
3.924295e-07
-0.0024228123
3.8544058e-07
4.4418856e-06
-0.0024246186
2.7745059e-07
6.1021833e-06
-0.0025658778
2.7736021e-07
7.8591285e-06
-0.0026783366
3.0413437e-07
9.6624242e-06
-0.0027408485
3.5693967e-07
1.1478139e-05
-0.0027638405
4.2707764e-07
1.3283446e-05
-0.0027669031
5.1679175e-07
1.5060761e-05
-0.0027639247
6.3005424e-07
1.6795309e-05
-0.0027611174
7.6788335e-07
1.8472736e-05
-0.0027600599
9.3063064e-07
2.0077194e-05
-0.002760488
1.1188777e-06
2.1590547e-05
-0.0027618036
1.333006e-06
2.2994182e-05
-0.0027635722
1.5727018e-06
2.4270004e-05
-0.0027655595
1.836405e-06
2.5400761e-05
-0.002767646
2.1210623e-06
2.6370682e-05
-0.0027697991
2.4220785e-06
2.7169198e-05
-0.0027719645
2.733204e-06
2.7793037e-05
-0.0027741012
3.0470907e-06
2.8245081e-05
-0.0027762202
3.3563693e-06
2.8531107e-05
-0.0027782972
3.6545492e-06
2.8661897e-05
-0.002780348
3.9357575e-06
2.864773e-05
-0.0027823364
4.19485e-06
2.8532484e-05
-0.0027842632
4.42927e-06
2.8310254e-05
-0.0027860945
4.6390881e-06
2.8006755e-05
-0.0027878829
4.8248086e-06
2.763894e-05
-0.0027895981
4.9878025e-06
2.7221198e-05
-0.0027912173
5.1309086e-06
2.6765219e-05
-0.0027927647
5.2572537e-06
2.6280558e-05
-0.0027942655
5.3694941e-06
2.5766502e-05
-0.0027956954
5.4700724e-06
2.5250613e-05
-0.0027970624
5.5619921e-06
-0.0027983775
5.6481256e-06
-2.4988361e-05
-0.0028031366
5.2423056e-06
-2.5451203e-05
-0.0028017454
5.1458802e-06
-2.5892786e-05
-0.0028002977
5.0438564e-06
-2.630774e-05
-0.0027987846
4.9340181e-06
-2.6688069e-05
-0.0027971983
4.8139514e-06
-2.7025735e-05
-0.0027955608
4.6812326e-06
-2.7310463e-05
-0.0027938464
4.5330367e-06
-2.7529352e-05
-0.0027920308
4.3667498e-06
-2.766686e-05
-0.0027901372
4.1802408e-06
-2.7705974e-05
-0.002788196
3.9719536e-06
-2.7629626e-05
-0.0027861543
3.7415961e-06
-2.7427772e-05
-0.00278404
3.4900921e-06
-2.7061193e-05
-0.0027818835
3.2197818e-06
-2.6538419e-05
-0.0027796783
2.9353335e-06
-2.5873757e-05
-0.0027774084
2.6425927e-06
-2.5042141e-05
-0.0027751438
2.347668e-06
-2.4053661e-05
-0.002772845
2.0574207e-06
-2.2918984e-05
-0.0027705597
1.7789506e-06
-2.1655003e-05
-0.0027683418
1.518274e-06
-2.0279864e-05
-0.0027662265
1.2791295e-06
-1.8811655e-05
-0.0027643352
1.0634275e-06
-1.7268466e-05
-0.0027629034
8.7219871e-07
-1.5666703e-05
-0.0027623673
7.0558956e-07
-1.4020938e-05
-0.002763326
5.627899e-07
-1.234434e-05
-0.0027660443
4.4302805e-07
-1.0649632e-05
-0.0027689437
3.4594744e-07
-8.9525945e-06
-0.0027658079
2.7036674e-07
-7.273539e-06
-0.0027427402
2.1261122e-07
-5.6417803e-06
-0.0026801396
1.7122927e-07
-4.1020157e-06
-0.0025675724
1.548702e-07
-0.0024261995
1.642566e-07
3.7349979e-06
-0.0024275285
3.8284443e-08
5.1422912e-06
-0.0025690003
2.0550502e-08
6.6377057e-06
-0.0026816621
2.7007533e-08
8.1822369e-06
-0.0027443412
5.6464096e-08
9.7498094e-06
-0.0027674762
1.0065762e-07
1.132331e-05
-0.0027706776
1.6040173e-07
1.2889361e-05
-0.0027678495
2.3911493e-07
1.4436832e-05
-0.0027652116
3.3816047e-07
1.5954351e-05
-0.002764343
4.581871e-07
1.7428624e-05
-0.0027649779
6.0019108e-07
1.8844571e-05
-0.0027665165
7.6528901e-07
2.0185608e-05
-0.0027685215
9.5397826e-07
2.1434229e-05
-0.0027707562
1.165773e-06
2.2579374e-05
-0.002773104
1.3991569e-06
2.3578388e-05
-0.0027754952
1.6511808e-06
2.4436684e-05
-0.0027779186
1.9165407e-06
2.5167647e-05
-0.0027803283
2.1889085e-06
2.5746159e-05
-0.0027827191
2.4622584e-06
2.6179481e-05
-0.0027850474
2.7305402e-06
2.6472862e-05
-0.0027873213
2.9879757e-06
2.6645525e-05
-0.0027895574
3.2304833e-06
2.668795e-05
-0.0027916941
3.4555851e-06
2.6640624e-05
-0.0027937515
3.6615838e-06
2.6511386e-05
-0.00279575
3.8484747e-06
2.6314286e-05
-0.0027976668
4.0175259e-06
2.6061181e-05
-0.0027994781
4.1703911e-06
2.5768626e-05
-0.0028012154
4.3096281e-06
2.5419533e-05
-0.0028028734
4.4379365e-06
2.5045841e-05
-0.0028044811
4.5571207e-06
2.464608e-05
-0.002806015
4.6693309e-06
-0.0028074885
4.7763178e-06
-2.4220076e-05
-0.0028113756
4.2513294e-06
-2.4554618e-05
-0.0028098143
4.1338065e-06
-2.485645e-05
-0.0028081911
4.0118195e-06
-2.5119478e-05
-0.0028064941
3.8837398e-06
-2.5336589e-05
-0.0028047459
3.7476121e-06
-2.5501971e-05
-0.0028029145
3.6017426e-06
-2.5608101e-05
-0.0028010048
3.444106e-06
-2.5643789e-05
-0.0027989869
3.2725577e-06
-2.5596356e-05
-0.0027968845
3.0855584e-06
-2.5451444e-05
-0.0027947216
2.8826567e-06
-2.5195134e-05
-0.0027924781
2.664328e-06
-2.4816545e-05
-0.0027901321
2.4322042e-06
-2.4307564e-05
-0.0027877456
2.1891821e-06
-2.3664818e-05
-0.0027853013
1.9395103e-06
-2.2890126e-05
-0.0027827916
1.68864e-06
-2.1995273e-05
-0.0027802555
1.442078e-06
-2.0961266e-05
-0.0027777344
1.2051359e-06
-1.9824537e-05
-0.002775224
9.8330205e-07
-1.8596274e-05
-0.0027727651
7.8067023e-07
-1.7295142e-05
-0.0027704222
5.9959999e-07
-1.5937796e-05
-0.0027683152
4.413514e-07
-1.4539541e-05
-0.0027666818
3.0563882e-07
-1.3114478e-05
-0.0027659592
1.9116659e-07
-1.1673888e-05
-0.0027667487
9.6505339e-08
-1.0227472e-05
-0.0027693161
2.0208633e-08
-8.7850026e-06
-0.0027720812
-3.8863917e-08
-7.3571722e-06
-0.0027688223
-8.1685222e-08
-5.9577814e-06
-0.0027456298
-1.1073631e-07
-4.6088702e-06
-0.002682885
-1.2598342e-07
-3.3440763e-06
-0.0025701457
-1.1932e-07
-0.0024285936
-9.1786801e-08
2.9295796e-06
-0.0024293843
-2.2748456e-07
4.0449218e-06
-0.002570995
-2.6606645e-07
5.2388823e-06
-0.0026837923
-2.8665328e-07
6.4841488e-06
-0.0027465887
-2.8641591e-07
7.7636904e-06
-0.0027698283
-2.7351885e-07
9.0664798e-06
-0.0027731349
-2.4915522e-07
1.0384364e-05
-0.0027704225
-2.1151374e-07
1.1710081e-05
-0.002767915
-1.5945146e-07
1.3035596e-05
-0.0027671928
-9.1958605e-08
1.4350997e-05
-0.0027679898
-7.3885073e-09
1.5644071e-05
-0.0027697045
9.6299871e-08
1.6900198e-05
-0.0027718992
2.2084777e-07
1.8103147e-05
-0.0027743352
3.6712995e-07
1.9235241e-05
-0.0027768911
5.3501481e-07
2.0278338e-05
-0.0027795007
7.2322191e-07
2.1217836e-05
-0.0027821236
9.2854355e-07
2.2044798e-05
-0.002784765
1.1463667e-06
2.2753051e-05
-0.0027873815
1.3719058e-06
2.333919e-05
-0.002789932
1.6002551e-06
2.3804457e-05
-0.002792424
1.8265499e-06
2.4153832e-05
-0.0027948739
2.0464689e-06
2.4395669e-05
-0.0027972203
2.2568674e-06
2.4540724e-05
-0.0027994854
2.4558019e-06
2.4600455e-05
-0.002801689
2.6423719e-06
2.4587091e-05
-0.0028038082
2.8167014e-06
2.4511495e-05
-0.0028058184
2.9795375e-06
2.4380439e-05
-0.0028077469
3.1320941e-06
2.4198784e-05
-0.0028095886
3.2761635e-06
2.3972158e-05
-0.0028113779
3.4134207e-06
2.3706121e-05
-0.0028130933
3.5450792e-06
-0.0028147461
3.6724267e-06
-2.3097978e-05
-0.002817553
3.0445967e-06
-2.3293592e-05
-0.0028158055
2.907839e-06
-2.3451586e-05
-0.0028139865
2.7665916e-06
-2.3542702e-05
-0.0028121176
2.6200672e-06
-2.3586745e-05
-0.0028101706
2.4677259e-06
-2.3563808e-05
-0.00280815
2.3086858e-06
-2.349145e-05
-0.0028060222
2.1417103e-06
-2.3334709e-05
-0.0028038115
1.9657342e-06
-2.3090649e-05
-0.00280151
1.7805618e-06
-2.2751088e-05
-0.0027991466
1.5866989e-06
-2.2308067e-05
-0.0027967024
1.3854641e-06
-2.1754943e-05
-0.0027941562
1.1790899e-06
-2.1090299e-05
-0.0027915678
9.711506e-07
-2.0316626e-05
-0.0027889211
7.6589142e-07
-1.9438759e-05
-0.0027862105
5.676553e-07
-1.8465319e-05
-0.0027834781
3.8103056e-07
-1.7408866e-05
-0.0027807675
2.1038293e-07
-1.6277297e-05
-0.0027780819
5.9268083e-08
-1.51119e-05
-0.00277543
-7.0572377e-08
-1.3905792e-05
-0.0027729261
-1.791791e-07
-1.2682698e-05
-0.0027706603
-2.6738207e-07
-1.1456221e-05
-0.0027688797
-3.365529e-07
-1.023705e-05
-0.002768023
-3.8891543e-07
-9.0334215e-06
-0.0027686916
-4.2699943e-07
-7.8512794e-06
-0.0027711518
-4.5277585e-07
-6.6954565e-06
-0.0027738232
-4.674925e-07
-5.5719356e-06
-0.0027704795
-4.7234283e-07
-4.4875685e-06
-0.0027472045
-4.6854941e-07
-3.4553242e-06
-0.0026843704
-4.5417134e-07
-2.4967024e-06
-0.0025715323
-4.213756e-07
-0.0024298823
-3.7272214e-07
2.0519498e-06
-0.0024300834
-5.1851456e-07
2.849828e-06
-0.0025717523
-5.7789538e-07
3.7149587e-06
-0.0026846114
-6.241432e-07
4.6319626e-06
-0.0027474669
-6.5460825e-07
5.5931918e-06
-0.0027707644
-6.7633103e-07
6.5953758e-06
-0.0027741334
-6.920172e-07
7.6357729e-06
-0.0027714909
-7.0130872e-07
8.7112802e-06
-0.0027690637
-7.0340077e-07
9.8179816e-06
-0.0027684331
-6.9665495e-07
1.0949785e-05
-0.0027693329
-6.7861569e-07
1.2097178e-05
-0.0027711612
-6.4641925e-07
1.3247812e-05
-0.0027734796
-5.9714344e-07
1.4394695e-05
-0.0027760487
-5.281629e-07
1.5497765e-05
-0.0027787472
-4.3782779e-07
1.6564314e-05
-0.0027815084
-3.2565168e-07
1.7568441e-05
-0.0027842903
-1.9191276e-07
1.8493664e-05
-0.0027870972
-3.8534039e-08
1.9330265e-05
-0.0027898882
1.3058584e-07
2.0072151e-05
-0.0027926207
3.1109374e-07
2.072017e-05
-0.0027953033
4.9911936e-07
2.124802e-05
-0.0027979207
6.9044272e-07
2.1685412e-05
-0.002800465
8.8100998e-07
2.202944e-05
-0.0028029225
1.0685133e-06
2.2284293e-05
-0.0028053174
1.2511016e-06
2.2458821e-05
-0.0028076243
1.4275249e-06
2.2563664e-05
-0.0028098524
1.597565e-06
2.2605589e-05
-0.0028119744
1.7618242e-06
2.2588255e-05
-0.0028140211
1.9208537e-06
2.2515064e-05
-0.0028159886
2.075284e-06
2.2390232e-05
-0.0028179064
2.2256664e-06
-0.002819753
2.3722232e-06
-2.1580319e-05
-0.0028213089
1.6620934e-06
-2.163409e-05
-0.0028193597
1.507059e-06
-2.1631204e-05
-0.0028173401
1.3486665e-06
-2.1567957e-05
-0.002815272
1.1876224e-06
-2.1441544e-05
-0.0028131244
1.0235851e-06
-2.1248473e-05
-0.0028109015
8.5601142e-07
-2.0981307e-05
-0.0028085758
6.8432406e-07
-2.0638177e-05
-0.002806169
5.084735e-07
-2.0180244e-05
-0.0028037101
3.2966331e-07
-1.9646698e-05
-0.0028011485
1.4991633e-07
-1.902795e-05
-0.0027985109
-2.8509092e-08
-1.8304998e-05
-0.0027958231
-2.0318058e-07
-1.7482508e-05
-0.0027930737
-3.6948694e-07
-1.6594436e-05
-0.0027902534
-5.2294577e-07
-1.5633263e-05
-0.0027873978
-6.6053803e-07
-1.4594502e-05
-0.0027845502
-7.7885658e-07
-1.352183e-05
-0.0027817065
-8.7461905e-07
-1.2428068e-05
-0.0027788941
-9.4680478e-07
-1.1328853e-05
-0.0027761517
-9.9617581e-07
-1.0239053e-05
-0.0027735453
-1.0241532e-06
-9.1730081e-06
-0.0027711939
-1.0333675e-06
-8.1418252e-06
-0.0027693366
-1.0274549e-06
-7.1531003e-06
-0.0027684117
-1.0101275e-06
-6.2111521e-06
-0.002769021
-9.8471781e-07
-5.3181826e-06
-0.00277143
-9.5388468e-07
-4.4749879e-06
-0.0027740574
-9.1919666e-07
-3.6812926e-06
-0.0027706768
-8.8130689e-07
-2.9369159e-06
-0.0027473713
-8.4003382e-07
-2.2439589e-06
-0.0026845123
-7.920088e-07
-1.6103765e-06
-0.0025716553
-7.3053385e-07
-0.0024299921
-6.5834436e-07
1.1621785e-06
-0.0024296127
-7.9926798e-07
1.635065e-06
-0.0025712459
-8.8226136e-07
2.1583781e-06
-0.0026840771
-9.5848351e-07
2.7313249e-06
-0.0027469206
-1.0235927e-06
3.3573398e-06
-0.0027702187
-1.0841515e-06
4.0407538e-06
-0.0027735966
-1.1441525e-06
4.7848749e-06
-0.0027709699
-1.2042592e-06
5.5913013e-06
-0.0027685633
-1.2640768e-06
6.4598703e-06
-0.0027679583
-1.3219004e-06
7.3877972e-06
-0.00276889
-1.3745937e-06
8.3691809e-06
-0.002770757
-1.4182827e-06
9.3941617e-06
-0.0027731215
-1.4487822e-06
1.0449822e-05
-0.0027757455
-1.461959e-06
1.1514145e-05
-0.0027785041
-1.4543794e-06
1.2594538e-05
-0.0027813635
-1.4233933e-06
1.3645639e-05
-0.0027842343
-1.366985e-06
1.4653903e-05
-0.0027871209
-1.2851996e-06
1.5604334e-05
-0.0027900236
-1.1801481e-06
1.6484713e-05
-0.0027928995
-1.0546084e-06
1.7283259e-05
-0.0027957098
-9.1180779e-07
1.7993805e-05
-0.0027984652
-7.5626796e-07
1.8623577e-05
-0.0028011856
-5.9260524e-07
1.9148163e-05
-0.0028038111
-4.2356145e-07
1.9590709e-05
-0.0028063612
-2.5035514e-07
1.9947232e-05
-0.0028088555
-7.6756564e-08
2.0217767e-05
-0.0028112674
9.5338883e-08
2.0433767e-05
-0.0028136056
2.6520058e-07
2.0574918e-05
-0.0028158462
4.3310035e-07
2.0652024e-05
-0.0028180163
5.9903709e-07
2.0668699e-05
-0.0028201394
7.6310012e-07
-0.0028221932
9.2438322e-07
-1.9662146e-05
-0.0028223873
1.7025153e-07
-1.958042e-05
-0.0028202264
5.1904299e-09
-1.9439272e-05
-0.0028179999
-1.5752503e-07
-1.9231082e-05
-0.0028157314
-3.2300421e-07
-1.8950995e-05
-0.0028133946
-4.9107618e-07
-1.8594499e-05
-0.0028109629
-6.6102356e-07
-1.8155255e-05
-0.0028084629
-8.3184442e-07
-1.762748e-05
-0.0028058871
-1.001886e-06
-1.7007683e-05
-0.002803262
-1.1689538e-06
-1.6296265e-05
-0.0028005666
-1.3304047e-06
-1.5498081e-05
-0.0027977813
-1.482143e-06
-1.4619797e-05
-0.002794968
-1.6201253e-06
-1.367114e-05
-0.002792108
-1.7401653e-06
-1.2665678e-05
-0.002789191
-1.8380777e-06
-1.1619466e-05
-0.0027862566
-1.9104745e-06
-1.0551278e-05
-0.0027833473
-1.955207e-06
-9.4827449e-06
-0.0027804604
-1.9715982e-06
-8.4349317e-06
-0.0027775911
-1.9608537e-06
-7.4252721e-06
-0.0027748291
-1.9260259e-06
-6.4679611e-06
-0.0027722079
-1.8708892e-06
-5.5744068e-06
-0.0027698508
-1.7998016e-06
-4.7524676e-06
-0.0027679941
-1.717758e-06
-4.0062135e-06
-0.002767075
-1.6296397e-06
-3.3363943e-06
-0.0027676934
-1.5397454e-06
-2.7410874e-06
-0.0027701137
-1.4515054e-06
-2.2163581e-06
-0.0027727544
-1.3669841e-06
-1.7563332e-06
-0.002769392
-1.2866884e-06
-1.353366e-06
-0.0027461145
-1.2090942e-06
-9.9977066e-07
-0.0026833014
-1.1293549e-06
-6.9209106e-07
-0.0025705123
-1.0413005e-06
-0.0024289263
-9.4904426e-07
2.3461266e-07
-0.0024279395
-1.0924416e-06
3.7663993e-07
-0.0025694604
-1.1939516e-06
5.5958609e-07
-0.0026821907
-1.2936148e-06
7.9218849e-07
-0.0027449591
-1.3880058e-06
1.0861437e-06
-0.0027682035
-1.4824166e-06
1.4523202e-06
-0.002771538
-1.5825394e-06
1.8985828e-06
-0.0027688691
-1.6907877e-06
2.4308449e-06
-0.0027664189
-1.8067124e-06
3.0530919e-06
-0.0027657693
-1.9279002e-06
3.7663725e-06
-0.0027666568
-2.0506214e-06
4.5682926e-06
-0.0027684825
-2.1701568e-06
5.4527536e-06
-0.0027708112
-2.2811632e-06
6.4094628e-06
-0.0027734077
-2.3780626e-06
7.4243002e-06
-0.0027761505
-2.4553651e-06
8.479236e-06
-0.0027790073
-2.5080699e-06
9.5532015e-06
-0.002781889
-2.5322599e-06
1.0624121e-05
-0.002784802
-2.5255815e-06
1.1670409e-05
-0.0027877496
-2.487707e-06
1.2672912e-05
-0.0027906903
-2.4202421e-06
1.361599e-05
-0.0027935848
-2.3262032e-06
1.4487544e-05
-0.0027964432
-2.2095932e-06
1.5278333e-05
-0.0027992827
-2.0747578e-06
1.5982608e-05
-0.0028020403
-1.9259949e-06
1.6598615e-05
-0.002804736
-1.7671058e-06
1.7127878e-05
-0.0028073907
-1.6014639e-06
1.7574081e-05
-0.0028099773
-1.4317434e-06
1.7941969e-05
-0.0028125025
-1.2600099e-06
1.8235351e-05
-0.0028149373
-1.0874772e-06
1.8456338e-05
-0.0028173058
-9.150203e-07
1.8606479e-05
-0.002819633
-7.4351596e-07
-0.0028218961
-5.7428763e-07
-1.737277e-05
-0.0028206969
-1.3528008e-06
-1.71536e-05
-0.0028183281
-1.5240526e-06
-1.6862979e-05
-0.0028159012
-1.695274e-06
-1.6499281e-05
-0.0028134353
-1.8656763e-06
-1.6060895e-05
-0.0028109064
-2.0344327e-06
-1.5542977e-05
-0.0028082944
-2.2008484e-06
-1.4940379e-05
-0.0028056299
-2.3634501e-06
-1.4250368e-05
-0.0028029063
-2.5197847e-06
-1.3473749e-05
-0.0028001505
-2.666418e-06
-1.2614596e-05
-0.0027973422
-2.7996096e-06
-1.1680729e-05
-0.0027944619
-2.9151443e-06
-1.0683683e-05
-0.0027915734
-3.0084909e-06
-9.6378938e-06
-0.0027886607
-3.0753064e-06
-8.5613574e-06
-0.0027857145
-3.1116716e-06
-7.4756192e-06
-0.0027827728
-3.1149353e-06
-6.4041967e-06
-0.0027798762
-3.0841664e-06
-5.370367e-06
-0.0027770206
-3.0205193e-06
-4.3954777e-06
-0.002774198
-2.9273773e-06
-3.4976647e-06
-0.0027714959
-2.8096391e-06
-2.6905774e-06
-0.0027689452
-2.6731166e-06
-1.9832601e-06
-0.0027666658
-2.5240438e-06
-1.3805293e-06
-0.0027648908
-2.3686958e-06
-8.8302586e-07
-0.0027640539
-2.2129558e-06
-4.879618e-07
-0.0027647521
-2.0618893e-06
-1.8988498e-07
-0.0027672478
-1.9194147e-06
1.9114624e-08
-0.002769959
-1.7880006e-06
1.48937e-07
-0.0027666653
-1.668053e-06
2.1318999e-07
-0.0027434667
-1.5565873e-06
2.283084e-07
-0.0026807588
-1.4470483e-06
2.0936209e-07
-0.0025681073
-1.3340914e-06
-0.0024266737
-1.2221265e-06
-6.3492808e-07
-0.0024251442
-1.3425332e-06
-8.0804693e-07
-0.0025664707
-1.4635599e-06
-9.5472887e-07
-0.0026790237
-1.5884078e-06
-1.0536216e-06
-0.0027416557
-1.7121343e-06
-1.0837239e-06
-0.0027647955
-1.8396882e-06
-1.0286373e-06
-0.002768036
-1.9780446e-06
-8.7589292e-07
-0.0027652698
-2.1307607e-06
-6.1617279e-07
-0.0027627141
-2.297757e-06
-2.4270701e-07
-0.0027619508
-2.4764872e-06
2.4885645e-07
-0.0027627196
-2.662756e-06
8.5931503e-07
-0.002764425
-2.8512091e-06
1.5852856e-06
-0.0027666355
-3.0356167e-06
2.4185942e-06
-0.0027691201
-3.209149e-06
3.3462122e-06
-0.0027717608
-3.3648179e-06
4.3504232e-06
-0.0027745289
-3.4959314e-06
5.4095695e-06
-0.0027773384
-3.5969318e-06
6.4992612e-06
-0.0027801986
-3.6638716e-06
7.5943504e-06
-0.0027831149
-3.6946757e-06
8.6711789e-06
-0.0027860481
-3.689489e-06
9.7101113e-06
-0.0027889618
-3.6505872e-06
1.0695282e-05
-0.0027918655
-3.5815981e-06
1.1612695e-05
-0.0027947727
-3.4868839e-06
1.2452262e-05
-0.0027976186
-3.3714087e-06
1.3215667e-05
-0.00280043
-3.2396722e-06
1.3875788e-05
-0.0028031944
-3.095618e-06
1.4458889e-05
-0.0028059346
-2.9428901e-06
1.4954282e-05