/*--------------------------------*- C++ -*----------------------------------*\
| =========                 |                                                 |
| \\      /  F ield         | OpenFOAM: The Open Source CFD Toolbox           |
|  \\    /   O peration     | Version:  v2012                                 |
|   \\  /    A nd           | Website:  www.openfoam.com                      |
|    \\/     M anipulation  |                                                 |
\*---------------------------------------------------------------------------*/
FoamFile
{
    version     2.0;
    format      ascii;
    class       volScalarField;
    location    "0";
    object      p;
}
// * * * * * * * * * * * * * * * * * * * * * * * * * * * * * * * * * * * * * //

dimensions      [0 2 -2 0 0 0 0];


internalField   nonuniform List<scalar> 
24880
(
-0.26115848
-0.2564813
-0.25098704
-0.24467898
-0.23782338
-0.23056113
-0.2230171
-0.21529074
-0.20745379
-0.19955542
-0.19162837
-0.18369406
-0.17576677
-0.16785668
-0.15997202
-0.15211984
-0.14430607
-0.13653388
-0.12880562
-0.12111769
-0.11345283
-0.10580383
-0.097982776
-0.089690996
-0.08049659
-0.069528001
-0.055466763
-0.036803562
-0.012994175
0.014261856
0.042582854
0.064744599
0.067468356
0.044280067
0.0092293292
-0.010912452
0.026528642
0.031499979
0.027111291
0.036472845
0.030076629
0.042843337
0.034938044
0.03742111
0.036699674
0.038675918
0.04018506
0.041093012
0.041318527
0.041336323
0.041315989
0.041307117
0.04132255
0.041350641
0.041388379
0.041427538
0.041460292
0.041491932
0.041528747
0.041567347
0.041604043
0.041644658
0.041697601
0.041763808
0.041843139
0.041870766
0.041651107
0.040757376
0.03932948
0.037435706
0.038205802
0.035712126
0.043673885
0.030891044
0.03731065
0.027933766
0.032328969
0.016986391
0.018635003
-0.0068748496
-0.012382742
-0.029337778
-0.028929181
-0.031432652
-0.031434394
-0.028919469
-0.029317181
-0.012351131
-0.0068355077
0.018682553
0.017038373
0.032386732
0.027989097
0.037365869
0.030942297
0.043725442
0.035762441
0.038256038
0.037488101
0.039380211
0.040813273
0.041710955
0.041931982
0.041906581
0.041829174
0.041764178
0.041714183
0.041671552
0.04163272
0.041597568
0.041566481
0.041532723
0.04149473
0.04146051
0.041428089
0.041400804
0.041384473
0.041390516
0.041410711
0.041394088
0.041169751
0.04026009
0.038747264
0.036773677
0.037494156
0.035011873
0.042918925
0.030150735
0.036552511
0.027192102
0.0315858
0.016259517
0.017907856
-0.0075292646
-0.013035213
-0.029976182
-0.029589864
-0.032103159
-0.032105058
-0.029612807
-0.030013514
-0.013086413
-0.0075900526
0.017836829
0.016182793
0.02039578
0.016935946
-0.0040016324
-0.012785471
-0.027382131
-0.029738311
-0.032516498
-0.032513705
-0.029713265
-0.027340236
-0.012732723
-0.0039431142
0.017001632
0.020469687
0.033646005
0.027354161
0.011620904
-0.0027533378
-0.01566102
-0.021759032
-0.029535106
-0.029535522
-0.021785272
-0.015702087
-0.0028059498
0.011561295
0.02728819
0.033574705
0.039478516
0.038243767
0.024464426
0.005981362
-0.007776416
-0.014320237
-0.01662848
-0.016623318
-0.014293791
-0.0077358669
0.0060309418
0.024522225
0.038310291
0.039550119
0.045785087
0.041781983
0.025999583
0.0065109456
-0.0095710534
-0.016909798
-0.018570023
-0.018579633
-0.016937709
-0.0096108973
0.0064608794
0.025942205
0.041715576
0.045713028
0.041204873
0.03746466
0.020649427
-0.0014173885
-0.018287241
-0.025673078
-0.026885194
-0.026874604
-0.025646037
-0.018248408
-0.001368006
0.020706983
0.037529834
0.041276119
0.039624138
0.033913346
0.015875643
-0.0074138682
-0.02452576
-0.03174757
-0.032691861
-0.032702669
-0.031773011
-0.024564624
-0.0074622017
0.015818384
0.033848695
0.039554153
0.038720609
0.03263699
0.014136606
-0.0095602429
-0.026570074
-0.033453243
-0.034172222
-0.034161307
-0.033428179
-0.026531356
-0.0095190554
0.014194128
0.03270158
0.038790618
0.040045001
0.033445918
0.014745409
-0.0089481839
-0.025812722
-0.032461561
-0.033059141
-0.0330701
-0.0324868
-0.025852067
-0.0089974815
0.014687098
0.033381069
0.039974968
0.041445176
0.034764307
0.016111262
-0.0074965472
-0.024210328
-0.030799219
-0.031345166
-0.031334647
-0.030774258
-0.02417139
-0.0074466849
0.016168883
0.034829695
0.041516685
0.042446503
0.035698854
0.016983602
-0.0065786795
-0.023263476
-0.029887571
-0.030468307
-0.030475983
-0.029911095
-0.02330206
-0.0066287748
0.016926347
0.035633577
0.042374466
0.042643546
0.035968589
0.017302495
-0.0062603384
-0.022943398
-0.029586054
-0.030179003
-0.030174504
-0.029564417
-0.022905531
-0.0062103658
0.017359639
0.03603314
0.042713793
0.042735954
0.036080372
0.01746483
-0.0061080583
-0.022825163
-0.029512071
-0.030138374
-0.030141612
-0.029532538
-0.022862353
-0.0061575347
0.017408977
0.036018762
0.042667579
0.042684856
0.036050209
0.017464684
-0.0060953436
-0.02280763
-0.029487026
-0.030097464
-0.030094888
-0.029467472
-0.022771103
-0.0060462574
0.017520125
0.036111352
0.042753052
0.042779808
0.036158595
0.017586422
-0.0059846112
-0.022714619
-0.029416027
-0.0300426
-0.030044798
-0.029434963
-0.022750768
-0.0060338602
0.017529858
0.036094186
0.042708961
0.042737091
0.036132617
0.017586198
-0.0059806966
-0.022700525
-0.029387628
-0.029996207
-0.029993953
-0.029368681
-0.022664349
-0.0059312955
0.017644827
0.036201186
0.042811345
0.042841135
0.036233366
0.017689721
-0.005890346
-0.022621157
-0.029326778
-0.02995073
-0.029953811
-0.029346554
-0.022657689
-0.0059362231
0.017631999
0.036164299
0.04276627
0.042806936
0.036204736
0.017674311
-0.0058996229
-0.022619858
-0.029310716
-0.029917818
-0.029911378
-0.02928919
-0.022583245
-0.0058595641
0.017729321
0.036267014
0.042874876
0.04290905
0.036300357
0.017765206
-0.0058313024
-0.022548484
-0.029254786
-0.029876201
-0.029886071
-0.029278457
-0.022585622
-0.0058702284
0.017712738
0.036246144
0.042849558
0.042879247
0.036274539
0.017744831
-0.0058437213
-0.022554363
-0.029248477
-0.029856064
-0.029845272
-0.029223927
-0.022516319
-0.0058037236
0.017800159
0.036338459
0.042949014
0.042982299
0.036370112
0.017830388
-0.0057782708
-0.022486611
-0.029195581
-0.029817439
-0.029828578
-0.029220659
-0.02252513
-0.0058186129
0.01777361
0.036299571
0.042906987
0.042944213
0.036335074
0.017803209
-0.0057944575
-0.02249771
-0.029194688
-0.02980371
-0.02979253
-0.029169777
-0.02245921
-0.0057539708
0.017856597
0.036393874
0.043008876
0.043043943
0.036426838
0.017883061
-0.0057312607
-0.022434567
-0.029147001
-0.029771334
-0.029782404
-0.029171437
-0.022472269
-0.0057705011
0.017830477
0.036371965
0.042984138
0.043017398
0.036402306
0.017853213
-0.0057479072
-0.022450097
-0.02915189
-0.029765853
-0.02975503
-0.029128136
-0.022412629
-0.0057072551
0.017908239
0.036462676
0.043083135
0.04312372
0.036499446
0.017926333
-0.0056881414
-0.022395759
-0.029112835
-0.029743164
-0.02975414
-0.029136661
-0.022432156
-0.0057262185
0.017871437
0.036434035
0.043054111
0.043091177
0.036459421
0.017873394
-0.0057150171
-0.022429688
-0.029136731
-0.029759433
-0.029748522
-0.029113344
-0.022395603
-0.0056803153
0.017922708
0.036517327
0.043154618
0.043199045
0.036551055
0.017931424
-0.0056521196
-0.022385139
-0.029105936
-0.029747341
-0.029757898
-0.029128125
-0.022417215
-0.005684878
0.017886188
0.036497566
0.043138874
0.043192668
0.036545217
0.017892934
-0.0056673928
-0.022399097
-0.029102963
-0.029732243
-0.029721928
-0.029081312
-0.022366503
-0.0056263989
0.017940118
0.036597776
0.043250934
0.043237766
0.036547783
0.017819774
-0.0057329431
-0.022440477
-0.029111123
-0.029723143
-0.029733183
-0.029131965
-0.022472088
-0.0057734406
0.017773942
0.036495522
0.043180849
0.042925788
0.036171733
0.017432182
-0.0061372676
-0.022835386
-0.029462444
-0.030036493
-0.030026681
-0.029442268
-0.022805036
-0.006098199
0.017476858
0.036222818
0.042982584
0.042059702
0.03533212
0.016682638
-0.0069618348
-0.023700468
-0.030307763
-0.03086519
-0.03087474
-0.030327428
-0.023730015
-0.0069994732
0.016638701
0.035282923
0.042006107
0.040613746
0.033973822
0.015271252
-0.0084388008
-0.025318924
-0.031989464
-0.032567656
-0.032558608
-0.031970325
-0.02528985
-0.0084026434
0.015313869
0.03402099
0.040664266
0.039474551
0.033339572
0.014806364
-0.0090300158
-0.02596897
-0.03289181
-0.033623449
-0.033631538
-0.032909986
-0.025996688
-0.0090594476
0.014765415
0.033293787
0.039425101
0.040305362
0.034552983
0.016485192
-0.0068403495
-0.023956012
-0.031183977
-0.032117711
-0.032112726
-0.031168229
-0.023929911
-0.006807175
0.016524999
0.034598099
0.04035387
0.042040027
0.038253992
0.021380213
-0.00071089673
-0.017616527
-0.025020314
-0.026257993
-0.026260244
-0.025034154
-0.017640166
-0.00074358304
0.021341534
0.0382087
0.041991171
0.046524908
0.042514582
0.026646607
0.0071757908
-0.0089205241
-0.016246622
-0.017904768
-0.017902821
-0.016234961
-0.0088996975
0.0072075728
0.026685134
0.04255965
0.046573855
0.040363361
0.039117841
0.025250638
0.0067507613
-0.0071129765
-0.013636492
-0.015963244
-0.01597
-0.013647746
-0.0071305862
0.0067202448
0.025212474
0.039073059
0.040314632
0.034402702
0.028094475
0.012357747
-0.0020413547
-0.01498166
-0.021084626
-0.028874524
-0.028864204
-0.021073767
-0.014960699
-0.0020093164
0.012396743
0.028139036
0.034451737
0.021260628
0.017755484
-0.0032397632
-0.01201716
-0.026645164
-0.029027902
-0.031836889
-0.03183961
-0.029038817
-0.026667623
-0.012049436
-0.0032780432
0.0177111
0.021209937
0.044039698
0.049248614
0.038631357
0.048274205
0.071882741
0.082300995
0.071812297
0.050461167
0.024522245
-0.00075806681
-0.022846128
-0.040532276
-0.053713443
-0.063823688
-0.072250627
-0.079909507
-0.087289969
-0.094634826
-0.10206441
-0.10964871
-0.11741577
-0.12536864
-0.13351598
-0.14186759
-0.15043105
-0.15921233
-0.1682164
-0.17744611
-0.18690116
-0.19657488
-0.20645023
-0.21649789
-0.22667382
-0.23691853
-0.24716516
-0.25736658
-0.26755732
-0.27796965
-0.16467777
-0.16399518
-0.16395694
-0.1641327
-0.1642184
-0.1640081
-0.16336702
-0.16220366
-0.1604973
-0.15826416
-0.15549249
-0.15218929
-0.14839119
-0.14414062
-0.13948072
-0.13445383
-0.1291058
-0.1234821
-0.11762105
-0.11155163
-0.10531918
-0.098859036
-0.092033665
-0.08464752
-0.076229125
-0.065928012
-0.052441809
-0.034269065
-0.010867285
0.01604358
0.044053254
0.065969192
0.068455484
0.045029318
0.009788865
-0.010528166
0.026764946
0.0020328568
-0.02604937
0.0028760588
0.038297695
0.053118703
0.050529189
0.034822644
0.01147596
-0.012865488
-0.0345502
-0.052267808
-0.065631559
-0.075870706
-0.084284897
-0.091724181
-0.098626002
-0.10517401
-0.11148852
-0.11762749
-0.12355729
-0.12924625
-0.13465646
-0.13974409
-0.14446707
-0.14878326
-0.15265072
-0.15602821
-0.15888161
-0.16119366
-0.16296986
-0.16420869
-0.16492594
-0.16519647
-0.16514609
-0.16496585
-0.16494148
-0.16548463
-0.16727277
-0.16701391
-0.16716182
-0.16733981
-0.16730577
-0.16690203
-0.16602814
-0.16462707
-0.16268144
-0.16019408
-0.15717277
-0.1536385
-0.14962501
-0.14517014
-0.14031453
-0.13509915
-0.12955935
-0.12373556
-0.11766726
-0.11138506
-0.10491427
-0.098210122
-0.091171498
-0.083657453
-0.075314394
-0.065426447
-0.053038498
-0.037288891
-0.018807013
0.00082476404
0.018914487
0.031430105
0.033910941
0.019582043
-0.021728305
-0.063811447
-0.01819283
-0.076867788
-0.12267488
-0.06957188
-0.020878888
0.0042241412
0.0097658465
0.0023583793
-0.011405122
-0.026873874
-0.041861259
-0.054950193
-0.065822643
-0.074982357
-0.083057861
-0.090567201
-0.097738578
-0.10463169
-0.11130827
-0.11779369
-0.12406366
-0.1300843
-0.13581735
-0.14122991
-0.14628995
-0.15095975
-0.15520289
-0.15898561
-0.1622741
-0.16504233
-0.16726967
-0.16894375
-0.17007961
-0.17071343
-0.17090486
-0.17076003
-0.17046421
-0.17032792
-0.17486968
-0.17543842
-0.17583939
-0.17586933
-0.17542272
-0.17444769
-0.17292305
-0.17084614
-0.16822586
-0.16507975
-0.16143213
-0.15731618
-0.15276562
-0.14781132
-0.14248555
-0.13682037
-0.13084332
-0.12458232
-0.11807387
-0.11135428
-0.10445202
-0.097376729
-0.090125058
-0.082717605
-0.075075633
-0.066830081
-0.057536159
-0.046798722
-0.034754393
-0.022939041
-0.013880403
-0.014543445
-0.033254029
-0.076657917
-0.14049969
-0.18801195
-0.10929285
-0.16012701
-0.25978649
-0.20923697
-0.13069238
-0.070003065
-0.037982668
-0.02902446
-0.032953366
-0.041543883
-0.051184667
-0.060106012
-0.068052914
-0.075459474
-0.082693079
-0.089957491
-0.097251368
-0.10448608
-0.11160419
-0.11856039
-0.12531711
-0.1318379
-0.13808873
-0.14404305
-0.14967867
-0.15496925
-0.15988681
-0.16440306
-0.16848609
-0.17210075
-0.1752184
-0.17781268
-0.17985014
-0.1812988
-0.18214001
-0.18236664
-0.18198675
-0.1810666
-0.18901262
-0.19006393
-0.19021215
-0.18953703
-0.18813063
-0.18606292
-0.18339459
-0.18018683
-0.17648819
-0.17233445
-0.16775928
-0.16279536
-0.15747149
-0.15181292
-0.14584313
-0.13958351
-0.13305093
-0.12627171
-0.1192759
-0.11210064
-0.10479058
-0.097413874
-0.090072186
-0.082900735
-0.075966795
-0.069149722
-0.062159801
-0.054556135
-0.046695199
-0.040643246
-0.040928041
-0.056429261
-0.098553221
-0.17289384
-0.26407505
-0.30642787
-0.17646008
-0.1877381
-0.33006969
-0.29208777
-0.19526339
-0.11403855
-0.066563924
-0.047503857
-0.044924804
-0.049593954
-0.056486371
-0.063407797
-0.069931936
-0.076465328
-0.08327613
-0.090452556
-0.097866104
-0.1053712
-0.1128491
-0.12021936
-0.12743111
-0.13445141
-0.14125518
-0.14781902
-0.15412978
-0.16016995
-0.16592045
-0.17136021
-0.17646355
-0.18120105
-0.18553855
-0.18943427
-0.192833
-0.19565995
-0.19781682
-0.19917144
-0.19954341
-0.19871495
-0.21000384
-0.21016
-0.20893337
-0.206661
-0.20359421
-0.19990153
-0.19569874
-0.19106542
-0.18605738
-0.18071525
-0.17507017
-0.16914722
-0.16296715
-0.15654722
-0.14990252
-0.14304929
-0.13600014
-0.12876515
-0.12136509
-0.1138301
-0.10620877
-0.098579539
-0.091059549
-0.083793076
-0.076900969
-0.070299649
-0.063723658
-0.056752448
-0.049814519
-0.045107237
-0.047652724
-0.066684868
-0.11413357
-0.19533618
-0.2921459
-0.3301205
-0.18776355
-0.17654156
-0.30656367
-0.26424832
-0.17311457
-0.098834534
-0.056790501
-0.041375446
-0.04118618
-0.047349688
-0.055337185
-0.063084827
-0.070239239
-0.077259077
-0.084430764
-0.091873596
-0.099529047
-0.1072727
-0.11500741
-0.12266953
-0.13021807
-0.13763117
-0.14489729
-0.15201011
-0.15896242
-0.16573993
-0.1723304
-0.17872021
-0.18489323
-0.19082936
-0.19650262
-0.20187802
-0.20690598
-0.21151379
-0.21558939
-0.21896112
-0.22137248
-0.22243173
-0.2351745
-0.23247394
-0.22866545
-0.22410991
-0.21901704
-0.21352154
-0.20770698
-0.20163057
-0.19533245
-0.18884062
-0.18217571
-0.17535342
-0.16838613
-0.16128459
-0.15405954
-0.14672127
-0.13927353
-0.1317196
-0.12406513
-0.11632224
-0.10851512
-0.100685
-0.092883468
-0.085176281
-0.077558134
-0.069826422
-0.061606857
-0.052443325
-0.042602329
-0.03382858
-0.029752071
-0.038575584
-0.070463729
-0.13105445
-0.20951717
-0.25999627
-0.16025328
-0.10945446
-0.18828202
-0.14087209
-0.077147435
-0.033879916
-0.015346511
-0.014857448
-0.024106438
-0.036169652
-0.048486466
-0.059550372
-0.06921359
-0.077893656
-0.086062299
-0.094057375
-0.10198322
-0.10985434
-0.11768345
-0.12546034
-0.13317873
-0.14083354
-0.1484236
-0.15594794
-0.16340408
-0.17078466
-0.17807994
-0.18528098
-0.19237762
-0.19935689
-0.20620109
-0.21288652
-0.21938062
-0.22564192
-0.23161968
-0.23723831
-0.24239217
-0.24685536
-0.29333339
-0.27244741
-0.2542849
-0.23838591
-0.22434413
-0.21180925
-0.20048488
-0.19012448
-0.18052678
-0.17152993
-0.16300556
-0.15485194
-0.14699035
-0.13936241
-0.13192531
-0.12464743
-0.11750632
-0.11048598
-0.10357228
-0.096753732
-0.090015213
-0.083297783
-0.076468416
-0.069265911
-0.061179151
-0.051304565
-0.038248539
-0.020497406
0.0022439311
0.028064642
0.054658456
0.075288353
0.076393181
0.051373824
0.014770013
-0.006977445
0.02896477
0.049410073
0.092720622
0.10570329
0.13238118
0.1203669
0.11952979
0.11486172
0.11573545
0.11743053
0.11901373
0.11964274
0.11980282
0.1198073
0.11977375
0.1197112
0.11963753
0.11955371
0.11946567
0.11937751
0.11927852
0.11916618
0.11905275
0.11893338
0.11880788
0.11867487
0.11853437
0.11835063
0.11804307
0.11738787
0.11574538
0.11385034
0.11280041
0.1173182
0.11810339
0.13006493
0.10337483
0.09039828
0.047129167
0.035285063
0.10323459
0.15624002
0.18755914
0.18860131
0.18051429
0.1712383
0.16639501
0.16494332
0.16528213
0.16599482
0.16674905
0.1673529
0.16780615
0.16815597
0.16843656
0.16867404
0.16888239
0.16906885
0.16923128
0.16937065
0.16948922
0.16957592
0.1696143
0.16958367
0.16942685
0.16910904
0.16863417
0.16806374
0.16788966
0.16958512
0.17464747
0.18407463
0.1923378
0.19130535
0.15998921
0.1068893
0.038892155
0.048648367
0.10627254
0.16558187
0.20057872
0.21388872
0.20876343
0.2006232
0.19358646
0.18952529
0.18789778
0.18772661
0.18806473
0.18841774
0.1886157
0.18869258
0.18867496
0.18858596
0.18844245
0.18825649
0.1880325
0.18777194
0.18747034
0.18711798
0.18669591
0.18617687
0.18553556
0.18478208
0.1840611
0.18387008
0.18519741
0.18905863
0.19588147
0.20393736
0.20888944
0.19549364
0.16046156
0.10110515
0.043627061
0.065962989
0.10103925
0.14139196
0.17112301
0.18672715
0.18980344
0.18749395
0.18357984
0.18037497
0.17869848
0.17836363
0.17872599
0.1793341
0.17996796
0.18054536
0.18105029
0.181487
0.18186527
0.18219232
0.18247211
0.18270256
0.18287733
0.18298957
0.1830334
0.18300817
0.18294347
0.18290581
0.18304343
0.18387601
0.18593409
0.18933467
0.19342123
0.19590583
0.19290471
0.17749129
0.14783585
0.10745691
0.072379733
0.082947463
0.096542813
0.11602616
0.13432933
0.1473218
0.15451698
0.15644669
0.15561886
0.15400914
0.15256263
0.1516414
0.15116046
0.15096621
0.15091912
0.15087701
0.15078937
0.15064132
0.15043244
0.1501658
0.1498463
0.14947607
0.14905545
0.1485846
0.14806766
0.14752062
0.14698627
0.14655583
0.14638014
0.14662611
0.14749229
0.14872363
0.14935424
0.14721299
0.13987903
0.12666962
0.10823683
0.088693666
0.075063838
0.063366
0.06596794
0.072040978
0.080418348
0.08900718
0.095562943
0.098819988
0.099871136
0.099973483
0.099850618
0.09988347
0.10008161
0.10044523
0.10091209
0.10142095
0.1019301
0.10241621
0.10286749
0.10327821
0.10364509
0.10396546
0.10423694
0.10445979
0.10463823
0.10479054
0.10495873
0.10524057
0.10578532
0.10653229
0.10732955
0.10774974
0.10705309
0.10407304
0.097797439
0.089366222
0.0811375
0.075183034
0.072616366
0.051422601
0.048889101
0.048474398
0.050592478
0.054182375
0.057284017
0.05921264
0.059942013
0.059869116
0.059435955
0.058911091
0.058478959
0.058138753
0.057841632
0.057561341
0.057272431
0.056958919
0.056612673
0.05623138
0.055815321
0.055366996
0.054890941
0.054395046
0.053892529
0.053404424
0.05296006
0.052591364
0.052317046
0.05213007
0.05191124
0.051372933
0.050067064
0.047668496
0.044198744
0.040431052
0.038175904
0.038458478
0.040847673
0.013736788
0.0097185408
0.0068444535
0.0061878601
0.0071716968
0.0085934129
0.009969542
0.010989567
0.011658073
0.012127227
0.012454423
0.012771354
0.013133239
0.013550044
0.014009549
0.014493141
0.014983843
0.015468887
0.015939556
0.01639043
0.016818759
0.017224533
0.017610426
0.017983881
0.01835577
0.018737074
0.019121614
0.019484724
0.019825742
0.020087863
0.020121762
0.019773454
0.019004226
0.018059667
0.017403657
0.018327141
0.021420763
0.025660289
0.00058307372
-0.0033865954
-0.0074519471
-0.010183794
-0.011549708
-0.01200183
-0.012075374
-0.012092358
-0.012207077
-0.012429207
-0.012757432
-0.01318027
-0.013649146
-0.014121744
-0.014587157
-0.015048248
-0.015511136
-0.015980782
-0.016459523
-0.016946994
-0.017440313
-0.017934057
-0.018420158
-0.018888014
-0.019325571
-0.01972245
-0.020076322
-0.02040306
-0.020750899
-0.021228707
-0.021828111
-0.022465951
-0.023020169
-0.023142746
-0.022326823
-0.020065072
-0.016330479
-0.012485537
-0.035017984
-0.037612705
-0.04093531
-0.043580347
-0.045042444
-0.045587761
-0.04554704
-0.045189567
-0.044760151
-0.044409276
-0.044106199
-0.043801814
-0.043468554
-0.043094413
-0.042678605
-0.042226802
-0.041747234
-0.041248079
-0.040736183
-0.04021649
-0.039691926
-0.039163273
-0.038629284
-0.038087267
-0.037534565
-0.036971863
-0.036408466
-0.035868961
-0.035398506
-0.035043527
-0.034756228
-0.034444579
-0.033899348
-0.032768521
-0.030680286
-0.027569511
-0.023959023
-0.021266877
-0.038667751
-0.040073235
-0.042374719
-0.044814792
-0.046781987
-0.048118698
-0.048969361
-0.049573385
-0.050115512
-0.050693422
-0.051317186
-0.05196695
-0.052622194
-0.05326925
-0.053901088
-0.054515429
-0.055112585
-0.055693374
-0.05625795
-0.056805043
-0.057331883
-0.057834136
-0.058306271
-0.058742108
-0.059135984
-0.059484349
-0.059787737
-0.060052007
-0.060287511
-0.06050507
-0.060710196
-0.060824294
-0.06062029
-0.059830062
-0.058317515
-0.056185298
-0.054062618
-0.052793176
-0.06605584
-0.066583256
-0.067606048
-0.068901828
-0.070066384
-0.070761552
-0.071049919
-0.071113686
-0.07106425
-0.070946967
-0.070777208
-0.070558829
-0.070290541
-0.069970842
-0.069600198
-0.069181294
-0.068718251
-0.068215762
-0.067678242
-0.067109374
-0.066511771
-0.065887058
-0.065236041
-0.064559373
-0.063858347
-0.063136024
-0.062398071
-0.061652886
-0.060909562
-0.060171633
-0.059428652
-0.058624484
-0.057659414
-0.056423762
-0.054919358
-0.053373483
-0.05217976
-0.051515913
-0.061251351
-0.061466896
-0.062012484
-0.062905588
-0.0639564
-0.064986986
-0.065933622
-0.06681427
-0.06766242
-0.068498976
-0.069329599
-0.070151689
-0.070958844
-0.071744392
-0.072502935
-0.073230767
-0.073925376
-0.074585001
-0.075207979
-0.075792414
-0.076335803
-0.076835113
-0.077286867
-0.07768758
-0.078034157
-0.078324449
-0.078557345
-0.078732292
-0.078847462
-0.078896714
-0.078865606
-0.078727018
-0.078436103
-0.077951919
-0.077287073
-0.076672098
-0.076328451
-0.076230791
-0.084584264
-0.084482796
-0.084486306
-0.084672857
-0.084957257
-0.085253149
-0.085483921
-0.085627796
-0.085690453
-0.08568042
-0.085603962
-0.085464502
-0.085263445
-0.085001435
-0.084679302
-0.084298466
-0.08386095
-0.083369141
-0.082825578
-0.082232706
-0.081592822
-0.080908122
-0.080180932
-0.079414021
-0.078611
-0.077776609
-0.076916976
-0.076039307
-0.075151132
-0.074258892
-0.073366874
-0.072477295
-0.071595972
-0.070751183
-0.07001846
-0.069508481
-0.069282317
-0.069257232
-0.076440606
-0.076424991
-0.076532449
-0.07685387
-0.077394697
-0.078099013
-0.078904699
-0.079769322
-0.080667764
-0.081583439
-0.082503327
-0.083415943
-0.084310926
-0.085179148
-0.086013023
-0.086806413
-0.087554566
-0.088253769
-0.088901148
-0.089494306
-0.090031227
-0.090510078
-0.090929309
-0.091287668
-0.091584411
-0.09181927
-0.09199268
-0.092105487
-0.092158772
-0.092153776
-0.092092853
-0.091981942
-0.091836744
-0.091694894
-0.091621946
-0.091657255
-0.091790706
-0.09194716
-0.098774935
-0.09862012
-0.098452887
-0.098334053
-0.09829876
-0.098335352
-0.098405204
-0.098474072
-0.098519192
-0.098526497
-0.098487202
-0.098395506
-0.098247345
-0.098039807
-0.097770791
-0.09743888
-0.097043392
-0.096584275
-0.096062056
-0.095477827
-0.09483327
-0.094130814
-0.093373768
-0.092566667
-0.091715463
-0.090827746
-0.089912961
-0.088982555
-0.088050034
-0.087131276
-0.086245254
-0.085415794
-0.084674239
-0.084061195
-0.083619597
-0.083370298
-0.083282818
-0.083282882
-0.090020059
-0.090051653
-0.09015822
-0.090397077
-0.090800932
-0.091365728
-0.092063863
-0.092861914
-0.093729313
-0.094640127
-0.095572318
-0.096507051
-0.09742818
-0.098322122
-0.099177596
-0.09998561
-0.10073913
-0.10143298
-0.10206349
-0.10262838
-0.10312638
-0.10355727
-0.1039216
-0.10422077
-0.10445699
-0.10463339
-0.10475402
-0.10482407
-0.10485038
-0.10484203
-0.10481127
-0.10477465
-0.10475378
-0.10477345
-0.10485209
-0.10498419
-0.10513408
-0.10525624
-0.11150811
-0.11142045
-0.11130424
-0.11119022
-0.11110833
-0.11107045
-0.1110703
-0.1110917
-0.11111762
-0.11113249
-0.1111232
-0.11107899
-0.11099099
-0.1108519
-0.11065575
-0.11039776
-0.11007414
-0.10968209
-0.10921981
-0.10868661
-0.10808309
-0.10741128
-0.10667492
-0.10587963
-0.10503324
-0.10414592
-0.10323037
-0.10230186
-0.10137831
-0.1004802
-0.099630519
-0.098854778
-0.098180429
-0.097634166
-0.097234323
-0.096979054
-0.096840778
-0.096777179
-0.10361019
-0.10370028
-0.1038693
-0.10414835
-0.10455915
-0.10510412
-0.10576909
-0.10653166
-0.10736717
-0.10825127
-0.10916094
-0.11007502
-0.11097458
-0.11184326
-0.11266743
-0.11343615
-0.11414117
-0.11477669
-0.11533924
-0.11582727
-0.11624107
-0.11658242
-0.11685449
-0.11706155
-0.117209
-0.11730324
-0.1173518
-0.11736333
-0.11734777
-0.11731633
-0.11728159
-0.11725696
-0.11725548
-0.11728676
-0.11735162
-0.11743783
-0.11752318
-0.11758751
-0.12346045
-0.12341864
-0.12336337
-0.12330932
-0.12327285
-0.12326461
-0.12328586
-0.12333069
-0.1233893
-0.12345041
-0.1235025
-0.12353449
-0.12353595
-0.12349725
-0.12340964
-0.12326528
-0.12305728
-0.12277986
-0.12242844
-0.12199997
-0.12149312
-0.12090859
-0.12024938
-0.11952108
-0.11873204
-0.11789353
-0.1170197
-0.11612753
-0.11523644
-0.11436779
-0.11354426
-0.11278902
-0.11212481
-0.11157185
-0.11114333
-0.11083934
-0.11064456
-0.11053442
-0.11756291
-0.11768897
-0.11790532
-0.11823188
-0.11867871
-0.11924242
-0.11990889
-0.12065851
-0.12146947
-0.12231932
-0.12318574
-0.12404734
-0.1248845
-0.12568002
-0.12641958
-0.12709195
-0.12768907
-0.12820591
-0.12864028
-0.12899258
-0.12926542
-0.12946332
-0.12959228
-0.12965968
-0.12967381
-0.12964383
-0.12957949
-0.12949113
-0.12938931
-0.12928475
-0.12918783
-0.12910805
-0.12905296
-0.1290265
-0.12902735
-0.12904644
-0.12907214
-0.1290939
-0.13445057
-0.13444727
-0.13444995
-0.13446674
-0.13450656
-0.13457574
-0.13467558
-0.13480283
-0.13495133
-0.13511289
-0.13527813
-0.1354368
-0.13557827
-0.13569176
-0.13576661
-0.13579249
-0.13575966
-0.1356592
-0.13548345
-0.13522625
-0.13488348
-0.13445335
-0.13393687
-0.13333815
-0.13266459
-0.13192705
-0.13113967
-0.13031962
-0.12948655
-0.12866183
-0.12786766
-0.12712629
-0.12645944
-0.12588721
-0.12542546
-0.12508104
-0.12484813
-0.12471009
-0.13199215
-0.13213828
-0.13238221
-0.13273812
-0.13320837
-0.13378294
-0.13444387
-0.13516997
-0.13593901
-0.13672849
-0.13751609
-0.13828038
-0.1390018
-0.13966341
-0.14025154
-0.14075609
-0.14117064
-0.14149239
-0.14172186
-0.14186254
-0.14192039
-0.14190337
-0.14182099
-0.14168375
-0.14150287
-0.14128977
-0.14105595
-0.14081252
-0.14057014
-0.14033855
-0.1401264
-0.13994098
-0.13978767
-0.13966916
-0.13958521
-0.13953155
-0.13950115
-0.13948635
-0.14415472
-0.14418728
-0.14424548
-0.14433717
-0.1444684
-0.1446419
-0.14485681
-0.14511007
-0.145397
-0.14571102
-0.14604415
-0.14638703
-0.1467291
-0.14705888
-0.14736419
-0.14763243
-0.14785097
-0.14800757
-0.14809081
-0.14809065
-0.147999
-0.14781035
-0.14752226
-0.14713584
-0.14665612
-0.14609208
-0.14545668
-0.1447664
-0.14404067
-0.14330097
-0.14256995
-0.14187067
-0.14122618
-0.14065908
-0.14018943
-0.13983003
-0.13958139
-0.13943138
-0.14705904
-0.14720812
-0.14745412
-0.14780716
-0.14826429
-0.14881036
-0.1494234
-0.15007945
-0.15075448
-0.15142476
-0.15206725
-0.1526604
-0.15318506
-0.15362538
-0.1539695
-0.15420984
-0.15434325
-0.15437067
-0.15429686
-0.15412975
-0.15387981
-0.1535594
-0.153182
-0.15276167
-0.15231251
-0.15184818
-0.15138154
-0.15092437
-0.15048714
-0.15007884
-0.14970682
-0.14937677
-0.14909339
-0.14886043
-0.14867945
-0.14854875
-0.14846271
-0.1484131
-0.15221901
-0.1522857
-0.15239987
-0.15257077
-0.15280391
-0.1531003
-0.1534576
-0.15387199
-0.15433872
-0.15485273
-0.15540719
-0.15599352
-0.15660135
-0.15721869
-0.15783207
-0.15842682
-0.1589874
-0.15949788
-0.15994255
-0.16030657
-0.16057676
-0.16074242
-0.16079607
-0.16073423
-0.16055782
-0.16027253
-0.15988883
-0.15942163
-0.15888959
-0.15831423
-0.15771893
-0.15712802
-0.15656643
-0.15605925
-0.15562988
-0.15529532
-0.15506067
-0.15491787
-0.16306595
-0.16319613
-0.16340884
-0.16370984
-0.16409215
-0.16453758
-0.16502189
-0.16551936
-0.16600452
-0.16645261
-0.16684019
-0.16714602
-0.16735223
-0.16744519
-0.1674163
-0.16726217
-0.16698458
-0.16659003
-0.16608911
-0.16549568
-0.16482587
-0.16409721
-0.16332772
-0.16253517
-0.1617365
-0.16094728
-0.16018149
-0.1594512
-0.15876654
-0.15813566
-0.15756491
-0.15705924
-0.15662264
-0.15625897
-0.15597102
-0.15575835
-0.15561509
-0.1555306
-0.15831156
-0.1584151
-0.15858888
-0.15884519
-0.15919066
-0.15962589
-0.16014783
-0.16075264
-0.16143659
-0.16219513
-0.16302258
-0.16391138
-0.16485182
-0.16583188
-0.16683732
-0.16785178
-0.1688571
-0.16983368
-0.1707612
-0.17161935
-0.17238876
-0.17305216
-0.17359539
-0.17400848
-0.17428641
-0.17442977
-0.17444481
-0.17434337
-0.1741421
-0.17386151
-0.17352473
-0.17315643
-0.17278208
-0.17242733
-0.17211634
-0.17186778
-0.17169031
-0.17158095
-0.1805635
-0.18064169
-0.18076719
-0.18093963
-0.18114901
-0.18137699
-0.18160059
-0.18179528
-0.18193644
-0.18200021
-0.18196439
-0.18180984
-0.1815217
-0.1810906
-0.18051316
-0.17979226
-0.17893662
-0.17796023
-0.17688118
-0.17572046
-0.17450072
-0.17324511
-0.17197622
-0.17071529
-0.16948154
-0.16829185
-0.16716055
-0.16609934
-0.16511737
-0.16422137
-0.16341618
-0.16270542
-0.16209262
-0.16158169
-0.16117603
-0.16087503
-0.16067139
-0.1605512
-0.16226377
-0.16239891
-0.16262978
-0.1629733
-0.16343849
-0.16402598
-0.16473219
-0.16555326
-0.16648624
-0.16752835
-0.1686757
-0.16992246
-0.17126026
-0.17267794
-0.17416139
-0.17569347
-0.17725418
-0.17882089
-0.18036895
-0.1818725
-0.18330555
-0.18464317
-0.18586305
-0.18694679
-0.18788132
-0.18865969
-0.18928162
-0.18975334
-0.19008708
-0.1902998
-0.19041185
-0.19044529
-0.19042269
-0.19036607
-0.19029577
-0.1902286
-0.19017557
-0.19014103
-0.2004742
-0.20044995
-0.20040566
-0.20033204
-0.20021757
-0.20004844
-0.19980892
-0.19948136
-0.19904682
-0.19848635
-0.19778272
-0.19692216
-0.19589615
-0.19470245
-0.19334586
-0.19183805
-0.19019707
-0.18844605
-0.18661184
-0.18472322
-0.18280947
-0.18089893
-0.17901793
-0.1771901
-0.1754358
-0.17377199
-0.17221224
-0.17076688
-0.16944326
-0.16824612
-0.16717824
-0.16624144
-0.16543793
-0.16477111
-0.16424411
-0.16385508
-0.16359283
-0.16343759
-0.16408964
-0.16426798
-0.16456737
-0.16500918
-0.16560577
-0.16635975
-0.16726864
-0.16832979
-0.16954207
-0.17090493
-0.17241695
-0.17407475
-0.17587231
-0.17780053
-0.17984684
-0.18199497