/*--------------------------------*- C++ -*----------------------------------*\
| =========                 |                                                 |
| \\      /  F ield         | OpenFOAM: The Open Source CFD Toolbox           |
|  \\    /   O peration     | Version:  v2012                                 |
|   \\  /    A nd           | Website:  www.openfoam.com                      |
|    \\/     M anipulation  |                                                 |
\*---------------------------------------------------------------------------*/
FoamFile
{
    version     2.0;
    format      ascii;
    class       volVectorField;
    location    "0";
    object      U;
}
// * * * * * * * * * * * * * * * * * * * * * * * * * * * * * * * * * * * * * //

dimensions      [0 1 -1 0 0 0 0];


internalField   nonuniform List<vector> 
24880
(
(4.9704247 -0.0009787252 0.00011841655)
(4.9730438 -0.00088941587 0.0002296837)
(4.9756238 -0.00078686439 0.0002589224)
(4.9780205 -0.00067882795 0.00027613401)
(4.9802015 -0.00057580473 0.00028098346)
(4.9821581 -0.00048338178 0.00027776272)
(4.9839002 -0.00040325763 0.00026972637)
(4.9854459 -0.00033493549 0.00025898687)
(4.9868157 -0.0002772984 0.00024672661)
(4.9880297 -0.00022900528 0.00023365275)
(4.9891065 -0.00018864963 0.00022019615)
(4.9900621 -0.00015488621 0.00020663678)
(4.9909105 -0.0001265014 0.0001931352)
(4.991663 -0.00010241486 0.00017974587)
(4.9923287 -8.1633118e-05 0.0001664487)
(4.9929142 -6.3202397e-05 0.00015311529)
(4.9934232 -4.6125781e-05 0.00013937674)
(4.9938565 -2.8922749e-05 0.00012554747)
(4.9942113 -1.0926491e-05 0.00011049475)
(4.9944801 1.2592916e-05 9.6504421e-05)
(4.9946474 4.1332926e-05 7.911522e-05)
(4.9946859 8.051802e-05 5.8080052e-05)
(4.9945523 0.00013687038 3.199966e-05)
(4.9941845 0.00021413497 -2.86213e-06)
(4.9934849 0.00031491147 -6.4167907e-05)
(4.992309 0.00043664493 -0.00017042015)
(4.9904537 0.00060854903 -0.0003239168)
(4.9876616 0.00084062829 -0.00052826261)
(4.9841709 0.00095239744 -0.00054849318)
(4.9805865 0.0011919371 -0.00027906856)
(4.9797052 0.00057632998 0.0011704668)
(4.9828485 0.0007375741 0.0023688139)
(4.996033 -0.0022207299 0.0060895232)
(5.0153909 0.00016667229 0.0070051054)
(5.0328467 -0.0011212282 0.0059949261)
(5.0347123 0.014205683 0.0064678526)
(5.0070545 0.020862366 -0.00060880309)
(5.0123199 -0.0071644012 0.019605421)
(5.0174856 -0.0063794814 0.038499477)
(5.0656124 -0.0095208271 0.068245282)
(5.0816828 -0.042007864 0.069858162)
(5.1086071 -0.038241722 0.053032191)
(5.0982957 -0.044708405 0.044121739)
(5.096301 -0.035747235 0.018642254)
(5.0905043 -0.035392841 0.0079787028)
(5.0897142 -0.033683608 -0.00073368149)
(5.0897193 -0.033827767 -0.0023695247)
(5.0904904 -0.034113493 -0.0019580123)
(5.0911901 -0.034392115 -0.0010144191)
(5.0917652 -0.034557532 -0.00036120169)
(5.0921956 -0.034646542 -1.727096e-05)
(5.0925312 -0.034688412 9.8061844e-05)
(5.0928198 -0.034700158 0.00010409682)
(5.0930715 -0.034692849 9.5040045e-05)
(5.0933019 -0.034700745 8.9236465e-05)
(5.0935134 -0.034710401 7.9416614e-05)
(5.0937037 -0.034704801 6.9724357e-05)
(5.0938773 -0.034698037 6.5162715e-05)
(5.0940376 -0.034703782 6.0388826e-05)
(5.0941779 -0.034711587 4.948981e-05)
(5.094288 -0.034708359 3.5958507e-05)
(5.0943603 -0.034710627 2.5051083e-05)
(5.0943947 -0.034694854 5.0923444e-05)
(5.0943497 -0.034657809 0.000183531)
(5.0942058 -0.034569386 0.00052982522)
(5.0939372 -0.034405339 0.0011933268)
(5.0935874 -0.034130369 0.0021405014)
(5.0931483 -0.033859317 0.0025166934)
(5.0933359 -0.03371711 0.00082853463)
(5.0943035 -0.03542121 -0.0079040538)
(5.1002624 -0.035777801 -0.018590731)
(5.1024281 -0.044741681 -0.044102994)
(5.1128829 -0.038277677 -0.053033698)
(5.0860428 -0.042052311 -0.069890424)
(5.0700252 -0.0095412259 -0.068279286)
(5.0218967 -0.0063973179 -0.038516128)
(5.01674 -0.0071865365 -0.019615634)
(4.9692251 -0.007758348 0.014356693)
(4.9575741 -0.052474832 0.046776792)
(4.9160803 -0.071043726 0.028697261)
(4.901883 -0.058600774 0.053377453)
(4.8658247 -0.049000939 0.043144593)
(4.8586751 -0.019265332 0.051717814)
(4.850979 -0.0089668176 0.048647222)
(4.8509825 0.0089748571 0.048644301)
(4.8586844 0.019276703 0.051721121)
(4.8658378 0.049006701 0.043146922)
(4.9018998 0.058604021 0.053378314)
(4.9161009 0.071046005 0.028697572)
(4.9575973 0.052476188 0.046776397)
(4.9692524 0.0077584211 0.014355305)
(5.0167706 0.0071862305 -0.019620517)
(5.0219339 0.0063996495 -0.038523754)
(5.0700662 0.0095406924 -0.068293629)
(5.086075 0.042053922 -0.069911502)
(5.1129106 0.038278395 -0.053050998)
(5.1024546 0.044742264 -0.044114866)
(5.1002891 0.035779589 -0.018592673)
(5.0943328 0.035421602 -0.0078995881)
(5.0933631 0.033720224 0.00084640566)
(5.0931815 0.033859403 0.0025509317)
(5.0936205 0.03413036 0.00217564)
(5.0939703 0.034403217 0.0012226429)
(5.0942401 0.034567022 0.0005498925)
(5.0943855 0.034654877 0.00019228968)
(5.094433 0.034694346 5.4168604e-05)
(5.0943968 0.034716736 2.8245821e-05)
(5.0943233 0.034709339 3.8369435e-05)
(5.0942123 0.03470566 4.9867909e-05)
(5.0940739 0.03470026 5.717484e-05)
(5.0939179 0.034707745 6.3885143e-05)
(5.0937421 0.034708978 7.3934646e-05)
(5.0935469 0.034697259 8.0377808e-05)
(5.0933388 0.03470005 8.5419455e-05)
(5.0931113 0.034699492 9.3838155e-05)
(5.0928588 0.034702587 0.00010461374)
(5.0925702 0.034685776 9.1297462e-05)
(5.0922322 0.034643429 -3.2547061e-05)
(5.0918018 0.034554726 -0.00037942199)
(5.0912275 0.034389554 -0.0010366935)
(5.0905291 0.034112489 -0.0019864622)
(5.0897599 0.033827578 -0.0024005179)
(5.08975 0.033686693 -0.00075091908)
(5.0905428 0.03539323 0.0079734)
(5.0963367 0.035749216 0.018642942)
(5.0983311 0.04470918 0.044133385)
(5.1086445 0.038242901 0.053050449)
(5.0817268 0.042010103 0.069881495)
(5.06567 0.0095212549 0.068261791)
(5.017539 0.0063825989 0.038508862)
(5.0123592 0.0071619831 0.01961147)
(4.9648804 0.0077019114 -0.014334133)
(4.953243 0.052363843 -0.046732169)
(4.9117844 0.070926512 -0.028671157)
(4.8975985 0.058520238 -0.053329182)
(4.8615678 0.048963507 -0.043105009)
(4.8544153 0.019271143 -0.051666336)
(4.8467191 0.0089763276 -0.048597554)
(4.8467135 -0.0089550835 -0.048592675)
(4.8544005 -0.019260719 -0.051665819)
(4.8615474 -0.048961296 -0.043105096)
(4.8975749 -0.058521792 -0.05332908)
(4.9117587 -0.070930708 -0.028670242)
(4.9532147 -0.052370645 -0.0467311)
(4.9648485 -0.007708181 -0.014334789)
(5.0279554 -0.035492905 -0.036000074)
(5.0340786 -0.094134417 -0.097045162)
(5.0022818 -0.14629464 -0.08001174)
(4.9700727 -0.15594864 -0.1149837)
(4.9341263 -0.12547216 -0.10164683)
(4.9195445 -0.076193291 -0.11227521)
(4.91211 -0.025112646 -0.10727275)
(4.9121123 0.025121674 -0.10728437)
(4.9195586 0.076205434 -0.11227563)
(4.9341469 0.12547737 -0.10164683)
(4.9700978 0.15594812 -0.11498448)
(5.0023112 0.14629204 -0.080013666)
(5.0341131 0.09413303 -0.09704663)
(5.0279956 0.035496009 -0.035995489)
(5.0888705 0.069372389 -0.032495684)
(5.102505 0.16590022 -0.082000753)
(5.0703263 0.23460935 -0.083640031)
(5.022878 0.24113861 -0.09488758)
(4.9833357 0.19158248 -0.08809488)
(4.9633523 0.11748488 -0.088158142)
(4.9557309 0.038499985 -0.084560883)
(4.9557328 -0.038512933 -0.084556407)
(4.9633387 -0.11747052 -0.088158425)
(4.9833145 -0.19157529 -0.088094335)
(5.022852 -0.24113751 -0.094886224)
(5.0702958 -0.2346095 -0.083638685)
(5.1024696 -0.16589898 -0.082001262)
(5.0888278 -0.069370679 -0.032504555)
(5.1178808 -0.13567419 -0.0048395191)
(5.1297091 -0.23637555 -0.032179146)
(5.0911506 -0.3041853 -0.033608562)
(5.0332932 -0.299157 -0.031961317)
(4.9878751 -0.23236748 -0.026629862)
(4.9646443 -0.14012383 -0.022458985)
(4.9565578 -0.045952319 -0.019594805)
(4.9565587 0.045958162 -0.019585507)
(4.9646588 0.14014136 -0.022459336)
(4.9878967 0.23237444 -0.026631295)
(5.0333195 0.2991582 -0.031962568)
(5.0911812 0.30418612 -0.033609086)
(5.129744 0.23637801 -0.032177251)
(5.1179211 0.13567821 -0.0048304563)
(5.1290813 0.13943576 0.022722181)
(5.1299028 0.25983726 0.015477752)
(5.0799211 0.33279538 0.02073426)
(5.0109684 0.32289009 0.026581899)
(4.9596425 0.24830412 0.030809334)
(4.9344192 0.14843371 0.033830875)
(4.9261127 0.048464277 0.035714226)
(4.9261055 -0.048428403 0.035705868)
(4.9344032 -0.14841948 0.033832725)
(4.9596205 -0.24830039 0.030811237)
(5.0109418 -0.32288978 0.026582847)
(5.0798904 -0.33279458 0.020734297)
(5.1298686 -0.25983515 0.015475743)
(5.1290444 -0.13943321 0.022714909)
(5.1185429 -0.148217 0.034327226)
(5.1147208 -0.263183 0.038785656)
(5.0600982 -0.33644471 0.04740356)
(4.9881933 -0.3263094 0.053303946)
(4.935179 -0.25016222 0.056063012)
(4.9094133 -0.14897693 0.057317547)
(4.9011215 -0.048500086 0.057938793)
(4.9011297 0.048516966 0.057939121)
(4.9094292 0.1489825 0.057315643)
(4.9352008 0.25016283 0.056061741)
(4.9882199 0.32630898 0.053303451)
(5.0601293 0.33644526 0.047403623)
(5.1147554 0.26318477 0.038786687)
(5.1185792 0.14821897 0.034330785)
(5.1126842 0.13308722 0.030332293)
(5.104796 0.25422654 0.039281918)
(5.0466336 0.33080383 0.046211345)
(4.9723124 0.32197577 0.049732373)
(4.9183758 0.24673668 0.05070964)
(4.8925589 0.14670737 0.050675103)
(4.8844059 0.047716311 0.050526324)
(4.8843974 -0.047700396 0.050525878)
(4.8925431 -0.14670301 0.050675643)
(4.9183539 -0.2467363 0.050709894)
(4.9722853 -0.32197602 0.04973226)
(5.0466021 -0.33080309 0.046211144)
(5.1047612 -0.25422442 0.039282061)
(5.1126481 -0.13308384 0.030333315)
(5.1072757 -0.13056925 0.019261262)
(5.0985912 -0.24955766 0.027388494)
(5.0394592 -0.32610213 0.031991542)
(4.9646657 -0.31761068 0.03369513)
(4.9107662 -0.24304379 0.033605665)
(4.8851959 -0.14423329 0.032982736)
(4.877231 -0.046835771 0.03253574)
(4.8772398 0.046854456 0.032536005)
(4.8852119 0.14423946 0.032982956)
(4.9107884 0.24304528 0.033606196)
(4.9646932 0.31761103 0.03369609)
(5.0394913 0.32610311 0.031992417)
(5.0986266 0.2495597 0.02738782)
(5.1073127 0.13057089 0.019255192)
(5.1054672 0.12752874 0.0094675179)
(5.0964637 0.24711539 0.015108234)
(5.0373099 0.32356615 0.017573079)
(4.9627362 0.31489722 0.018124751)
(4.9092303 0.24059904 0.017642127)
(4.8840136 0.14254904 0.016969421)
(4.8762375 0.046254744 0.016539055)
(4.8762287 -0.04623397 0.016538838)
(4.8839974 -0.14254096 0.016968593)
(4.9092077 -0.2405963 0.017640613)
(4.9627082 -0.31489621 0.018122459)
(5.0372773 -0.32356494 0.01757077)
(5.0964278 -0.24711326 0.015108387)
(5.10543 -0.1275243 0.0094766024)
(5.1053874 -0.12754871 0.0033746199)
(5.0966157 -0.24663776 0.0067320048)
(5.0378467 -0.32262985 0.007951284)
(4.9638252 -0.31362011 0.0079929593)
(4.9108608 -0.23929027 0.0075955775)
(4.8860459 -0.14158969 0.007168922)
(4.8784796 -0.045889042 0.0069050014)
(4.878488 0.045913507 0.0069041461)
(4.8860617 0.14159986 0.0071702328)
(4.910883 0.23929421 0.0075981528)
(4.9638529 0.3136217 0.0079966762)
(5.0378792 0.32263087 0.0079551795)
(5.0966519 0.24663834 0.006733102)
(5.1054259 0.12754864 0.0033660163)
(5.1064994 0.1279709 0.00096036498)
(5.0981015 0.24675761 0.0025420833)
(5.0397889 0.3224163 0.0031551583)
(4.9661893 0.3131288 0.0031245617)
(4.9135538 0.23872062 0.0028949719)
(4.8889479 0.14116099 0.00266679)
(4.881475 0.045746171 0.0025263614)
(4.88147 -0.045733634 0.0025284323)
(4.8889342 -0.14115231 0.0026657352)
(4.9135333 -0.23871621 0.0028923774)
(4.9661633 -0.31312673 0.0031208255)
(5.0397581 -0.32241553 0.0031513911)
(5.098067 -0.24675862 0.0025410359)
(5.106462 -0.12797298 0.0009656097)
(5.1074956 -0.12851976 0.00033122662)
(5.0994713 -0.24710186 0.00085586617)
(5.0414702 -0.32245932 0.001115095)
(4.9681265 -0.31300089 0.0011258548)
(4.9156796 -0.23852999 0.0010555947)
(4.8911934 -0.1410026 0.00098102604)
(4.8837815 -0.04568493 0.00093479969)
(4.8837832 0.04568066 0.00093341216)
(4.891205 0.14100668 0.00098115965)
(4.9156984 0.23853334 0.0010567074)
(4.9681511 0.31300273 0.0011276675)
(5.0414997 0.32245986 0.0011167939)
(5.0995044 0.24710125 0.00085503793)
(5.1075308 0.12851662 0.00032355648)
(5.1083344 0.1288357 0.00010837743)
(5.1005073 0.24734544 0.00033788718)
(5.0426926 0.32256555 0.00042472916)
(4.9694647 0.31298702 0.00045745612)
(4.9170769 0.23846775 0.00046543604)
(4.8926135 0.14094473 0.00046419299)
(4.8852025 0.045653786 0.00046186145)
(4.8852008 -0.045665432 0.00046226332)
(4.8926024 -0.14094585 0.00046481492)
(4.9170578 -0.23846683 0.00046586203)
(4.9694387 -0.31298568 0.00045764951)
(5.0426615 -0.32256355 0.00042498048)
(5.1004746 -0.24734661 0.000350781)
(5.1082999 -0.12884092 0.00012607493)
(5.1088258 -0.12899904 7.7678363e-05)
(5.1010964 -0.24746683 0.00019412128)
(5.043376 -0.32264248 0.00023298263)
(4.9702118 -0.31302167 0.00025077794)
(4.9178606 -0.23847826 0.00025933998)
(4.8934176 -0.14094847 0.00026286443)
(4.8860197 -0.045668263 0.00026390175)
(4.886021 0.045648853 0.00026359679)
(4.8934276 0.14094177 0.00026211399)
(4.9178785 0.23847627 0.00025837835)
(4.9702368 0.31302234 0.00024981232)
(5.0434059 0.32264412 0.00022958255)
(5.1011282 0.24746438 0.00015853248)
(5.1088602 0.12899276 5.0697586e-05)
(5.1092393 0.12907548 6.3101678e-05)
(5.1015437 0.24752913 8.3151985e-05)
(5.0438517 0.32268931 0.00014503077)
(4.9707097 0.31305681 0.00015914538)
(4.9183701 0.2384981 0.00016405004)
(4.89393 0.1409524 0.00016733212)
(4.8865285 0.045650097 0.00016900436)
(4.8865275 -0.045675127 0.0001690615)
(4.8939207 -0.14096311 0.0001677361)
(4.9183529 -0.23850245 0.00016529417)
(4.970685 -0.31305856 0.00016025752)
(5.0438215 -0.32269084 0.00015207067)
(5.1015094 -0.24753099 0.00013078287)
(5.1092028 -0.12907901 9.6546073e-05)
(5.1095014 -0.1291078 0.00011325771)
(5.1018229 -0.24756282 0.00012101762)
(5.0441503 -0.32272059 0.00011463615)
(4.9710255 -0.31308789 0.00011833434)
(4.9187023 -0.2385264 0.00012087026)
(4.8942765 -0.14097854 0.00012159036)
(4.8868865 -0.045681164 0.00012281786)
(4.8868878 0.045653216 0.00012311126)
(4.894286 0.14096472 0.00012194756)
(4.9187197 0.23851918 0.00011949484)
(4.9710503 0.31308317 0.00011728419)
(5.0441818 0.32271705 0.00011063806)
(5.1018603 0.2475634 8.5939687e-05)
(5.1095411 0.1291122 8.5934854e-05)
(5.1097974 0.12911574 9.2857562e-05)
(5.1021206 0.24758639 9.5928663e-05)
(5.0444484 0.322748 9.6243749e-05)
(4.9713227 0.31310692 9.6186154e-05)
(4.9189967 0.23853564 9.6315909e-05)
(4.8945664 0.14097543 9.8437981e-05)
(4.88717 0.045657686 9.9769759e-05)
(4.8871682 -0.045682888 9.7791588e-05)
(4.894556 -0.14098703 9.7258865e-05)
(4.9189786 -0.23854352 9.7713845e-05)
(4.9712979 -0.3131136 9.6364365e-05)
(5.0444176 -0.32275609 9.607873e-05)
(5.1020832 -0.24758812 9.8265307e-05)
(5.1097577 -0.12910652 9.8145212e-05)
(5.1099914 -0.12912098 7.6750404e-05)
(5.1023198 -0.24759805 7.0417522e-05)
(5.044653 -0.32276562 8.6000281e-05)
(4.971533 -0.31312664 8.3819451e-05)
(4.919214 -0.23855323 8.4483165e-05)
(4.8947921 -0.14098977 8.3254799e-05)
(4.8874044 -0.045674135 8.2754114e-05)
(4.8874095 0.04567071 8.6133905e-05)
(4.8948042 0.14098724 8.4866054e-05)
(4.9192326 0.23855177 8.3090037e-05)
(4.9715574 0.31312574 8.3836435e-05)
(5.0446826 0.32276448 8.5597723e-05)
(5.1023534 0.24759682 8.7503216e-05)
(5.1100272 0.12911974 8.4366326e-05)
(5.1102367 0.12912191 6.6690544e-05)
(5.1025639 0.24761231 7.0841376e-05)
(5.0448925 0.32278415 7.8570451e-05)
(4.9717669 0.31314051 7.4392627e-05)
(4.9194424 0.23856353 7.4472416e-05)
(4.8950146 0.14099835 7.5296864e-05)
(4.8876205 0.045684808 7.5814854e-05)
(4.8876124 -0.045665599 7.3775381e-05)
(4.8950005 -0.14099278 7.4143704e-05)
(4.9194229 -0.23856147 7.5288591e-05)
(4.971743 -0.31313661 7.5308371e-05)
(5.0448652 -0.32277032 7.7238593e-05)
(5.1025365 -0.2476043 8.930508e-05)
(5.1102065 -0.12913647 9.164695e-05)
(5.1103959 -0.12913413 0.00010868989)
(5.1027261 -0.2476186 0.00011596607)
(5.0450559 -0.32279062 6.9254248e-05)
(4.9719324 -0.31315172 6.8292731e-05)
(4.919611 -0.23857122 6.7688014e-05)
(4.8951883 -0.14099688 6.673019e-05)
(4.8878005 -0.04566573 6.6971531e-05)
(4.8878093 0.045688046 6.734529e-05)
(4.8952037 0.14100577 6.7348354e-05)
(4.9196321 0.23857401 6.7352291e-05)
(4.9719581 0.31315169 6.7382999e-05)
(5.0450865 0.32278729 7.166421e-05)
(5.1027608 0.24761624 6.9700743e-05)
(5.1104332 0.12913817 6.1143366e-05)
(5.1106103 0.12914094 7.2924944e-05)
(5.1029381 0.24762804 8.8308436e-05)
(5.0452606 0.32280237 6.2750144e-05)
(4.9721304 0.31316347 6.109414e-05)
(4.9198032 0.23858299 6.0211756e-05)
(4.8953741 0.14101196 5.9930233e-05)
(4.8879793 0.04569126 5.9822473e-05)
(4.8879703 -0.045666123 5.9706553e-05)
(4.8953578 -0.14100194 5.9602365e-05)
(4.919781 -0.2385811 5.9793673e-05)
(4.972104 -0.31316517 6.1216863e-05)
(5.0452287 -0.32281159 6.3547094e-05)
(5.1028966 -0.24763129 9.1444502e-05)
(5.1105681 -0.12912781 8.6616653e-05)
(5.1107294 -0.1291375 5.5040442e-05)
(5.1030583 -0.2476355 5.216246e-05)
(5.0453862 -0.32281513 5.6795765e-05)
(4.9722568 -0.31317338 5.0552559e-05)
(4.9199321 -0.23858635 5.0914723e-05)
(4.8955081 -0.14100387 5.1319801e-05)
(4.8881201 -0.045666096 5.1180694e-05)
(4.8881291 0.045693506 5.1169353e-05)
(4.8955243 0.14101696 5.1330176e-05)
(4.9199543 0.23859082 5.1920728e-05)
(4.9722836 0.31317497 5.6020217e-05)
(5.0454148 0.32282091 5.452143e-05)
(5.10309 0.24763823 7.1885915e-05)
(5.1107644 0.12913299 6.0676738e-05)
(5.110903 0.12914194 3.4354996e-05)
(5.103228 0.24764127 3.6346956e-05)
(5.0455493 0.32282165 4.5425288e-05)
(4.972413 0.3131809 4.6504308e-05)
(4.9200812 0.23859658 4.142949e-05)
(4.8956497 0.14101985 3.9716719e-05)
(4.8882539 0.0456948 3.9349417e-05)
(4.888245 -0.045666282 3.9480386e-05)
(4.8956337 -0.14100555 3.9910986e-05)
(4.9200594 -0.23858902 4.0083816e-05)
(4.972387 -0.3131778 3.7049191e-05)
(5.0455203 -0.32281548 4.2997118e-05)
(5.1031989 -0.24763666 4.9389579e-05)
(5.1108715 -0.12914804 5.2332157e-05)
(5.1109802 -0.12914706 5.9036339e-05)
(5.1033047 -0.24764363 5.8287456e-05)
(5.0456217 -0.32282263 2.6429495e-05)
(4.9724838 -0.31318133 2.087085e-05)
(4.9201526 -0.2385928 2.4068666e-05)
(4.8957248 -0.14100785 2.3732403e-05)
(4.8883348 -0.045666831 2.1785201e-05)
(4.8883434 0.045695305 2.0776367e-05)
(4.8957404 0.14102101 2.1270019e-05)
(4.9201753 0.23859687 2.5948672e-05)
(4.9725132 0.31318339 3.8498445e-05)
(5.0456541 0.32282696 3.9159973e-05)
(5.1033383 0.24764591 2.3690718e-05)
(5.1110157 0.12914799 2.573253e-05)
(5.1110913 0.1291556 5.5496994e-05)
(5.1034097 0.24763778 5.2577342e-05)
(5.0457133 0.3228134 3.6720965e-05)
(4.9725606 0.31318094 2.5168188e-05)
(4.9202178 0.23859959 5.1904589e-06)
(4.89578 0.14102182 -1.2615613e-06)
(4.8883818 0.045694957 -9.9380224e-07)
(4.8883729 -0.04566796 4.1694478e-07)
(4.8957639 -0.1410097 3.2866187e-06)
(4.920194 -0.23859363 -2.0755561e-07)
(4.9725303 -0.31317903 -2.3588388e-06)
(5.0456767 -0.32281831 1.1445976e-05)
(5.1033696 -0.24763821 6.1937698e-05)
(5.1110523 -0.12914642 6.9400647e-05)
(5.1110644 -0.12911834 8.7421686e-05)
(5.1033662 -0.24761859 4.871722e-05)
(5.0456579 -0.3228067 -2.6135533e-05)
(4.972498 -0.31317102 -4.9081956e-05)
(4.9201491 -0.23858488 -5.0394186e-05)
(4.8957093 -0.14100381 -4.5832309e-05)
(4.8883147 -0.045666545 -4.5919111e-05)
(4.8883233 0.045693732 -4.6481368e-05)
(4.8957244 0.14101832 -4.8221477e-05)
(4.9201681 0.23859406 -4.3493778e-05)
(4.9725211 0.31317512 -2.6738892e-05)
(5.0456867 0.32280686 2.4749281e-06)
(5.1033995 0.24761661 6.8387502e-05)
(5.1111004 0.12911646 9.3447052e-05)
(5.1110124 0.12904058 0.00010275351)
(5.1032657 0.24756162 -1.097946e-05)
(5.0455136 0.32277881 -0.00010313618)
(4.9723213 0.31316083 -0.00013471683)
(4.9199522 0.23858588 -0.00015010881)
(4.8955001 0.14101387 -0.00015486234)
(4.8880957 0.045692357 -0.0001545238)
(4.8880873 -0.045664684 -0.00015441865)
(4.8954856 -0.14099972 -0.00015468026)
(4.9199333 -0.23857697 -0.00015293284)
(4.9722996 -0.313155 -0.00014417702)
(5.0454884 -0.32277876 -0.00011734002)
(5.1032347 -0.24756644 -2.8406051e-05)
(5.1109788 -0.12904639 9.2538086e-05)
(5.1107268 -0.12889375 4.2419298e-05)
(5.1028987 -0.24746394 -0.00021059137)
(5.0450666 -0.32272272 -0.00031845342)
(4.9718122 -0.31313685 -0.0003488257)
(4.9194052 -0.23857849 -0.00036020781)
(4.8949361 -0.14100612 -0.00036085907)
(4.8875288 -0.045667817 -0.00035922707)
(4.8875369 0.045695062 -0.00035937054)
(4.8949499 0.14101942 -0.0003611008)
(4.9194238 0.23858527 -0.00035997931)
(4.9718346 0.31313996 -0.0003477457)
(5.0450929 0.32272415 -0.0003152873)
(5.1029273 0.247462 -0.00020350262)
(5.1107592 0.12888893 5.3015188e-05)
(5.1102765 0.12858079 -0.00017074093)
(5.1022493 0.24723601 -0.00075412513)
(5.0442177 0.32263524 -0.001025727)
(4.9708292 0.31317102 -0.0010361596)
(4.9183463 0.23866208 -0.00096836228)
(4.8938379 0.1410858 -0.00089462572)
(4.8864125 0.045720166 -0.0008478757)
(4.8864047 -0.045693831 -0.00084744191)
(4.8938246 -0.14107339 -0.00089361282)
(4.9183282 -0.23865627 -0.00096720313)
(4.9708072 -0.3131685 -0.0010351246)
(5.0441923 -0.32263504 -0.0010269982)
(5.1022206 -0.2472367 -0.00075576666)
(5.1102462 -0.1285831 -0.00017688921)
(5.1095658 -0.12805122 -0.00085920531)
(5.1011691 -0.24691318 -0.0024654241)
(5.042821 -0.32260985 -0.0030792976)
(4.9691732 -0.31331271 -0.0030517047)
(4.9165014 -0.23885623 -0.0028251534)
(4.8918787 -0.14123337 -0.0025992855)
(4.8844044 -0.045754135 -0.0024614372)
(4.8844122 0.045778796 -0.0024622544)
(4.8918921 0.14124452 -0.0026013349)
(4.9165194 0.23886112 -0.0028279153)
(4.9691952 0.31331453 -0.0030545795)
(5.0428466 0.32261006 -0.0030812241)
(5.1011979 0.24691165 -0.002463665)
(5.1095979 0.12804995 -0.000852082)
(5.1088866 0.12764715 -0.0033029935)
(5.1001125 0.24680655 -0.0066733827)
(5.041288 0.32284256 -0.0078980752)
(4.9671898 0.3138239 -0.0079402928)
(4.9141658 0.23944705 -0.0075422823)
(4.8893146 0.1416896 -0.007113298)
(4.8817305 0.045941897 -0.0068468185)
(4.8817227 -0.045918901 -0.0068458768)
(4.8893012 -0.14167976 -0.0071108695)
(4.9141478 -0.23944311 -0.007538795)
(4.9671678 -0.31382246 -0.007936392)
(5.0412625 -0.32284187 -0.007895054)
(5.1000841 -0.24680613 -0.006674399)
(5.108856 -0.12764694 -0.0033147574)
(5.1090785 -0.12763023 -0.0094231822)
(5.1000797 -0.24729803 -0.01504897)
(5.0408999 -0.32380247 -0.017518122)
(4.9662928 -0.31512501 -0.018071838)
(4.9127608 -0.24077048 -0.017608478)
(4.8875388 -0.14264588 -0.016934312)
(4.8797665 -0.046267805 -0.016503846)
(4.879774 0.04628937 -0.016504881)
(4.8875516 0.14265466 -0.016936652)
(4.9127783 0.2407737 -0.01761168)
(4.9663143 0.31512612 -0.018075585)
(5.0409248 0.32380351 -0.017521062)
(5.1001072 0.24730001 -0.015048382)
(5.1091069 0.12763467 -0.0094130117)
(5.1111204 0.13067007 -0.019184955)
(5.1024306 0.24974703 -0.027315295)
(5.0432569 0.32635038 -0.031936025)
(4.9684112 0.31785626 -0.033650353)
(4.9144778 0.24323522 -0.033584684)
(4.8888893 0.14435121 -0.032961844)
(4.8809152 0.04689149 -0.032515431)
(4.8809085 -0.046870882 -0.032511567)
(4.8888776 -0.14434408 -0.032958903)
(4.9144613 -0.24323295 -0.033581593)
(4.9683904 -0.31785561 -0.033647153)
(5.0432325 -0.32634945 -0.031933474)
(5.1024038 -0.24974516 -0.027315115)
(5.1110925 -0.13066851 -0.019190655)
(5.1166225 -0.13319112 -0.030265828)
(5.1087299 -0.25442482 -0.039224017)
(5.0505266 -0.33106385 -0.046168716)
(4.9761548 -0.32223018 -0.049700204)
(4.9221865 -0.24693144 -0.050683122)
(4.8963586 -0.14682022 -0.050650057)
(4.8882072 -0.04774447 -0.050500323)
(4.8882113 0.047747479 -0.050506957)
(4.8963683 0.14682165 -0.050654245)
(4.9222016 0.24693166 -0.050686668)
(4.9761746 0.32223017 -0.049703042)
(5.0505501 0.33106451 -0.046170988)
(5.1087559 0.25442662 -0.039225233)
(5.1166495 0.13319411 -0.030265514)
(5.1226885 0.14833628 -0.034278425)
(5.1188624 0.2633997 -0.038742686)
(5.0641894 0.33671888 -0.047373857)
(4.9922213 0.32657368 -0.05328172)
(4.9391644 0.25036408 -0.056045609)
(4.9133733 0.14909635 -0.057303225)
(4.9050683 0.048537384 -0.057926871)
(4.9050668 -0.048558501 -0.057922543)
(4.9133659 -0.1491051 -0.05729813)
(4.9391513 -0.25036793 -0.05604151)
(4.9922028 -0.32657493 -0.053278836)
(5.0641667 -0.33671855 -0.047371506)
(5.1188367 -0.26339834 -0.038740262)
(5.1226614 -0.14833479 -0.034274425)
(5.1333456 -0.13955879 -0.022689958)
(5.1341547 -0.26005697 -0.015428312)
(5.0841126 -0.33307039 -0.020688048)
(5.0150968 -0.32315745 -0.026536267)
(4.9637249 -0.24851316 -0.030767625)
(4.9384837 -0.14856346 -0.03379307)
(4.9301756 -0.048511476 -0.035679681)
(4.9301771 0.048463625 -0.035672684)
(4.9384892 0.14853987 -0.033797123)
(4.963736 0.24850325 -0.030771582)
(5.0151136 0.3231547 -0.026538982)
(5.0841339 0.33307078 -0.020690339)
(5.1341794 0.26005869 -0.015431552)
(5.1333729 0.13956057 -0.022697221)
(5.1223008 0.13580729 0.0048573459)
(5.1341263 0.23659117 0.03224502)
(5.0955363 0.30445524 0.033681655)
(5.0376254 0.29941509 0.032040362)
(4.9921584 0.23256649 0.026697176)
(4.9688989 0.1402433 0.022523537)
(4.9607977 0.045985157 0.019656418)
(4.9607899 -0.046009729 0.019647532)
(4.9688929 -0.14027457 0.022524492)
(4.9921483 -0.23258134 0.026699157)
(5.0376095 -0.29941882 0.032042091)
(5.0955155 -0.30445427 0.033683312)
(5.1341012 -0.2365884 0.032248174)
(5.1222714 -0.135804 0.0048659539)
(5.093256 -0.069456535 0.032562374)
(5.1069058 -0.1660695 0.082099912)
(5.0747042 -0.23483557 0.083734442)
(5.0272201 -0.24136778 0.094995546)
(4.9876499 -0.19176876 0.088189085)
(4.9676539 -0.11760544 0.088257706)
(4.9600307 -0.038547537 0.084658805)
(4.9600414 0.038540388 0.084653385)
(4.9676612 0.11757653 0.088260273)
(4.9876605 0.19175401 0.088190411)
(5.027236 0.24136449 0.09499547)
(5.0747249 0.23483728 0.083733751)
(5.106931 0.16607256 0.082097544)
(5.0932868 0.069457725 0.032553724)
(5.0323974 0.035560043 0.036049775)
(5.0385204 0.094260313 0.097144252)
(5.0066889 0.14646083 0.080091041)
(4.9744465 0.15611065 0.11509546)
(4.9384645 0.12559303 0.10174899)
(4.923867 0.076262104 0.11239735)
(4.9164183 0.025128908 0.10738788)
(4.9164121 -0.02515398 0.10739842)
(4.9238588 -0.076280018 0.11239184)
(4.9384527 -0.1256009 0.10174506)
(4.9744301 -0.15611158 0.1150942)
(5.0066682 -0.14645884 0.080090781)
(5.0384954 -0.094257626 0.097145534)
(5.032368 -0.035556369 0.036055347)
(5.0191571 0.0069816084 0.050898417)
(5.0220193 0.0074577972 0.00050753594)
(5.031722 0.00058695351 -0.0092954501)
(5.0301882 -0.00038802817 -0.016710456)
(5.0137889 -0.0033629384 -0.019404096)
(4.9982202 -0.0019687116 -0.014273636)
(4.9902783 -0.00088483058 -0.0062247177)
(4.9865306 0.00053067755 -0.0031839103)
(4.9869202 0.00188823 -0.00025457642)
(4.9896073 0.0020025048 0.00076625846)
(4.993201 0.0016037684 0.001335506)
(4.9964895 0.00094276681 0.0011303285)
(4.9988619 0.00058596725 0.00083973404)
(5.0005373 0.00036676187 0.00066750626)
(5.0017218 0.00023310685 0.00057405057)
(5.0026071 0.0001477217 0.00052681508)
(5.0033142 9.1475869e-05 0.00051200202)
(5.0039162 5.3406912e-05 0.00051869694)
(5.0044594 2.6923512e-05 0.00053928579)
(5.0049761 7.5196937e-06 0.00057276826)
(5.0054888 -1.0742128e-05 0.00061951083)
(5.0060111 -2.4144192e-05 0.00067655024)
(5.0065544 -3.6806195e-05 0.00074103694)
(5.0071285 -4.9574139e-05 0.00081495395)
(5.007741 -6.3280661e-05 0.00089925628)
(5.0083987 -7.8620144e-05 0.00099547609)
(5.0091079 -9.6233818e-05 0.0011050622)
(5.0098747 -0.00011690654 0.0012300627)
(5.0107061 -0.00014136626 0.0013732375)
(5.0116093 -0.00017040836 0.0015376484)
(5.0125928 -0.00020533123 0.0017283934)
(5.0136664 -0.00024737161 0.0019514746)
(5.0148433 -0.00029801492 0.0022149768)
(5.0161409 -0.00035942314 0.0025315075)
(5.0175837 -0.00043423874 0.0029192062)
(5.0192081 -0.00052577907 0.0034041451)
(5.0210703 -0.0006382392 0.0040238116)
(5.0232565 -0.0007767589 0.0048292897)
(4.9984083 -0.0013141416 0.00045039031)
(4.9967685 -0.0010867559 0.00042093584)
(4.9955374 -0.00089733685 0.00039398348)
(4.9946398 -0.00074001054 0.00036902917)
(4.9940124 -0.0006092584 0.00034553861)
(4.9936021 -0.00050076016 0.00032334705)
(4.9933645 -0.00041149178 0.00030250882)
(4.9932621 -0.00033821223 0.00028293202)
(4.9932645 -0.00027796622 0.00026438188)
(4.9933466 -0.00022846827 0.00024675814)
(4.9934879 -0.00018802713 0.00022998937)
(4.9936711 -0.0001554072 0.00021410979)
(4.9938819 -0.00012901947 0.00019885268)
(4.9941087 -0.00010761624 0.0001840533)
(4.9943414 -9.0956174e-05 0.00016969832)
(4.9945703 -7.9042077e-05 0.00015576086)
(4.9947856 -7.1352991e-05 0.00014196348)
(4.9949775 -6.7840992e-05 0.00012795291)
(4.9951343 -6.9361954e-05 0.00011338024)
(4.9952403 -7.762747e-05 9.7715747e-05)
(4.9952732 -9.4966546e-05 8.0104169e-05)
(4.995201 -0.000124679 5.8989438e-05)
(4.9949766 -0.00017265812 3.2378526e-05)
(4.994534 -0.00024315831 -3.0333428e-06)
(4.9937731 -0.00033925217 -6.3722996e-05)
(4.9925467 -0.00045707935 -0.00016992968)
(4.9906525 -0.00062107255 -0.00032497346)
(4.987829 -0.00085162552 -0.00053047985)
(4.9843085 -0.00096245537 -0.00055050335)
(4.9806993 -0.0011995041 -0.0002804914)
(4.9797955 -0.00058745436 0.0011711247)
(4.9829191 -0.00074616613 0.0023704054)
(4.9960932 0.0022178451 0.0060899866)
(5.0154438 -0.00016907824 0.0070035001)
(5.0328886 0.0011222987 0.0059890314)
(5.034754 -0.014204004 0.0064722663)
(5.007096 -0.020866671 -0.00061047931)
(5.0061623 -0.040495477 -0.021660697)
(5.0345462 -0.029512777 -0.0048541631)
(5.0337747 -0.0039899752 0.011678409)
(5.019201 -0.0026028576 0.0071163119)
(5.0055831 0.0033202677 0.0060930721)
(4.9931607 -0.00050820521 0.0033523012)
(4.9854379 -0.0010314581 0.001371219)
(4.9834084 -0.0027643272 0.0002896582)
(4.9849103 -0.0030010092 -0.00021023622)
(4.987944 -0.0025507838 -0.00045211206)
(4.990721 -0.0018716731 -0.00040194854)
(4.9927289 -0.0013794852 -0.00019855771)
(4.9939634 -0.00099794928 -8.0109047e-05)
(4.9946833 -0.00070672594 -1.619301e-05)
(4.995083 -0.00050731917 2.9787653e-05)
(4.9952709 -0.00036806176 5.8948586e-05)
(4.9953153 -0.00028202453 7.9504457e-05)
(4.995263 -0.00023189504 9.6570205e-05)
(4.9951429 -0.00020884676 0.00011204429)
(4.9949754 -0.00020618123 0.00012677266)
(4.994775 -0.00021798788 0.00014073349)
(4.994552 -0.00024168081 0.00015428051)
(4.9943152 -0.00027794172 0.00016793421)
(4.994074 -0.00032940579 0.00018246116)
(4.9938382 -0.00039522524 0.00019749447)
(4.9936171 -0.00047522701 0.0002125702)
(4.9934212 -0.00057399836 0.00022827042)