/*--------------------------------*- C++ -*----------------------------------*\
| =========                 |                                                 |
| \\      /  F ield         | OpenFOAM: The Open Source CFD Toolbox           |
|  \\    /   O peration     | Version:  v2012                                 |
|   \\  /    A nd           | Website:  www.openfoam.com                      |
|    \\/     M anipulation  |                                                 |
\*---------------------------------------------------------------------------*/
FoamFile
{
    version     2.0;
    format      ascii;
    class       volScalarField;
    location    "0";
    object      p;
}
// * * * * * * * * * * * * * * * * * * * * * * * * * * * * * * * * * * * * * //

dimensions      [0 2 -2 0 0 0 0];


internalField   nonuniform List<scalar> 
121056
(
0.99367746
0.64981036
0.45192313
0.33915051
0.27554787
0.23627578
0.20842986
0.18562961
0.16564691
0.14812825
0.13299289
0.12006033
0.10913166
0.099987139
0.092344186
0.085946176
0.080574353
0.07604658
0.072212748
0.068949454
0.066154975
0.063745133
0.061650218
0.059812515
0.058184167
0.056725463
0.055403489
0.054191045
0.053065685
0.05200888
0.051005459
0.050043215
0.049112246
0.048204487
0.047313652
0.046434887
0.045564262
0.053647905
0.052795501
0.051798157
0.050632817
0.049270188
0.047672538
0.045791403
0.043566857
0.040923106
0.037767111
0.033985473
0.029441786
0.023974844
0.017397755
0.0094983847
4.1787764e-05
-0.011225098
-0.024566374
-0.040247699
-0.058524873
-0.079631432
-0.10376572
-0.13107918
-0.1616667
-0.19555883
-0.23271755
-0.27303535
-0.31633795
-0.36239056
-0.41090697
-0.46156045
-0.51399595
-0.56784232
-0.62274469
-0.67833819
-0.73423254
-0.790079
-0.84554654
-0.90032284
-0.95411371
-1.0066405
-1.0576359
-1.1068401
-1.1539971
-1.1988485
-1.2411503
-0.29599873
-0.24109068
-0.18977054
-0.14218187
-0.098415147
-0.058509295
-0.022451802
0.0098193865
0.038409909
0.063462309
0.085149971
0.10367074
0.11924084
0.13208892
0.14245008
0.15056011
0.15665099
0.16094712
0.163662
0.16499672
0.16513993
0.16426608
0.16253355
0.16008451
0.15704643
0.15353352
0.1496469
0.14547485
0.14109353
0.13656864
0.13195667
0.12730555
0.12265537
0.1180393
0.11348462
0.10901345
0.10464336
0.10038831
0.096260875
0.092267836
0.088404756
0.084676241
0.084535305
0.088254288
0.09211089
0.096098466
0.10021711
0.10446367
0.10882659
0.11329146
0.11784098
0.12245336
0.12710151
0.13175271
0.13636759
0.14089854
0.14528911
0.14947442
0.15337939
0.15691642
0.15998449
0.16246906
0.16424415
0.16516936
0.16508588
0.16381837
0.16117803
0.15696426
0.15096323
0.14294953
0.13268965
0.11994562
0.10448037
0.086062641
0.064473183
0.039511619
0.011002259
-0.021200343
-0.057205574
-0.097078153
-0.14083066
-0.18842365
-0.23976785
-0.2947207
-0.29192193
-0.23687109
-0.18547417
-0.1378714
-0.094149971
-0.054350854
-0.01846147
0.013589796
0.041920546
0.066682237
0.088055945
0.1062476
0.12148247
0.13399777
0.14403568
0.15183838
0.15764265
0.16167686
0.16415509
0.16527558
0.16522867
0.16419198
0.16232475
0.15976314
0.15662991
0.15304086
0.14909632
0.14488231
0.14047176
0.13592802
0.13130718
0.12665594
0.12201245
0.11740851
0.11287041
0.10841947
0.10407228
0.099842574
0.095740154
0.091768372
0.087929443
0.084229238
0.083726751
0.087396031
0.09120437
0.095148347
0.099223768
0.10342604
0.10774741
0.11217567
0.11669484
0.12128424
0.12591935
0.13057013
0.13519984
0.13976356
0.14420643
0.14846697
0.15247522
0.15614921
0.15938802
0.16207509
0.1640934
0.16531274
0.16557425
0.16469562
0.16248505
0.15874889
0.15327164
0.14582044
0.13615253
0.12401931
0.10917026
0.091357756
0.070346233
0.045920233
0.017889878
-0.013906271
-0.049599936
-0.089274583
-0.13294369
-0.18056366
-0.23204976
-0.28726545
-0.28053658
-0.22507827
-0.17345078
-0.12580192
-0.082220695
-0.042740242
-0.0073322085
0.024095666
0.05168697
0.075619022
0.096097463
0.11335449
0.12764268
0.13922388
0.14835843
0.15530405
0.16031202
0.16361593
0.16543221
0.16596585
0.16540712
0.16393191
0.16169217
0.15882098
0.15543707
0.1516472
0.14754877
0.14322297
0.13873601
0.13414517
0.12950339
0.12485451
0.12023294
0.11566547
0.11117401
0.10677873
0.10249483
0.098332083
0.094297212
0.090395386
0.086631021
0.083005837
0.082069007
0.085637285
0.089344488
0.093189565
0.097169527
0.10127989
0.10551451
0.10986468
0.11431699
0.11885493
0.12345855
0.12810175
0.13275276
0.1373729
0.14191446
0.14632202
0.15053167
0.15446753
0.1580409
0.16114783
0.16366942
0.16547543
0.16642018
0.16633484
0.16502737
0.16228816
0.15789683
0.15161431
0.14318107
0.13232834
0.11878246
0.10226406
0.08249771
0.059227024
0.032224939
0.00129483
-0.033724762
-0.072943807
-0.1164073
-0.16409078
-0.21590293
-0.2716859
-0.26074524
-0.20455327
-0.15251288
-0.10479032
-0.061478034
-0.022592194
0.011930575
0.042223977
0.068475262
0.090909061
0.10978021
0.12537287
0.13799093
0.14793746
0.15550308
0.16096905
0.16460363
0.16665286
0.16734326
0.16688691
0.16547371
0.1632676
0.16040894
0.1570243
0.1532285
0.14912
0.14478134
0.14028251
0.13568233
0.13103139
0.1263731
0.12174185
0.11716541
0.11266676
0.10826383
0.10397071
0.09979813
0.09575354
0.091842148
0.088067212
0.084430398
0.080931983
0.07961348
0.083029857
0.086583756
0.0902758
0.094105508
0.098070998
0.10216847
0.10639212
0.11073368
0.11518168
0.11972116
0.12433294
0.12899307
0.13367154
0.13833115
0.14292731
0.14740654
0.15170463
0.15574683
0.15944345
0.16268547
0.16535099
0.16730501
0.16838799
0.16841255
0.16716808
0.16442365
0.15992482
0.15339327
0.14453231
0.13302844
0.1185514
0.10076724
0.07935755
0.054029922
0.024522179
-0.0093864995
-0.04785867
-0.090979376
-0.13874362
-0.1910592
-0.24775084
-0.23270209
-0.17541015
-0.12276654
-0.074959247
-0.032078194
0.0058873251
0.039049215
0.067606225
0.091822213
0.11200588
0.12849604
0.14165466
0.15185202
0.15944668
0.16477744
0.16816125
0.16988816
0.1702199
0.16939024
0.16760666
0.16505042
0.16187668
0.15821732
0.15418561
0.14987935
0.14538032
0.14075585
0.13606234
0.13134632
0.12664596
0.12199231
0.11741014
0.11291894
0.10853392
0.10426668
0.10012569
0.09611675
0.092243655
0.088508481
0.084911739
0.081452777
0.078129978
0.076497786
0.079716188
0.083068808
0.086558239
0.090186323
0.093953991
0.097860976
0.10190566
0.10608483
0.11039312
0.11482259
0.11936234
0.12399777
0.12870978
0.13347384
0.138259
0.14302668
0.1477292
0.1523081
0.15669181
0.16079353
0.16450945
0.16771573
0.17026491
0.17198266
0.17266545
0.17207848
0.16995362
0.16598833
0.15984637
0.15116082
0.13953757
0.12456595
0.10583385
0.082942818
0.055524508
0.023261805
-0.014088167
-0.056671508
-0.1045219
-0.15755379
-0.21556126
-0.19626971
-0.13741313
-0.08392299
-0.03602725
0.0061916092
0.042794477
0.073973935
0.10003293
0.12135738
0.13838739
0.15159075
0.16144057
0.16839722
0.172894
0.17532771
0.17605431
0.17538746
0.17359926
0.17092282
0.16755547
0.16366247
0.15938076
0.15482293
0.150081
0.14522968
0.14032907
0.13542716
0.13056195
0.1257632
0.12105399
0.11645191
0.11197002
0.1076177
0.10340134
0.099325052
0.095390965
0.09159965
0.087950491
0.084441897
0.081071473
0.077836183
0.074732491
0.075829495
0.078937008
0.082177171
0.085554167
0.089071844
0.092733616
0.096542332
0.1005001
0.10460801
0.10886591
0.11327199
0.11782233
0.12251017
0.12732524
0.13225285
0.13727278
0.14235765
0.14747126
0.15256639
0.15758209
0.1624405
0.16704322
0.17126695
0.17495869
0.17793067
0.1799551
0.18075915
0.18002056
0.17736478
0.17236459
0.16454326
0.15338294
0.13833901
0.11886094
0.094419746
0.064541435
0.028844101
-0.012926082
-0.060865346
-0.11489492
-0.17475778
-0.15093628
-0.089877687
-0.035212213
0.012764514
0.05397911
0.088575529
0.11688923
0.13940568
0.15671145
0.16944577
0.17825842
0.18377692
0.18658351
0.18720102
0.18608641
0.18362991
0.18015829
0.1759404
0.17119397
0.16609279
0.16077359
0.1553425
0.14988074
0.14444956
0.13909431
0.1338479
0.12873364
0.1237674
0.11895935
0.11431537
0.10983818
0.10552805
0.10138343
0.097401468
0.093578442
0.08991006
0.08639159
0.083018034
0.079784223
0.076684923
0.073714893
0.071513419
0.074337245
0.077285982
0.080365837
0.083583297
0.086945147
0.090458411
0.094130313
0.097968219
0.10197958
0.1061718
0.11055188
0.11512598
0.11989905
0.1248742
0.13005175
0.1354279
0.14099319
0.14673035
0.15261145
0.15859426
0.16461787
0.17059724
0.17641656
0.18192148
0.18691037
0.1911248
0.19423972
0.19585432
0.19548501
0.19256232
0.18643415
0.17637822
0.16162643
0.14140298
0.1149769
0.08172597
0.041204293
-0.0067979938
-0.06221605
-0.031734191
0.024579875
0.072586888
0.11223613
0.14383059
0.16796801
0.18545302
0.19720239
0.20416047
0.20723478
0.2072533
0.20494094
0.200911
0.19566731
0.189613
0.18306269
0.17625605
0.16937112
0.1625364
0.15584157
0.14934651
0.14308863
0.13708883
0.13135602
0.12589074
0.12068796
0.11573898
0.11103286
0.10655752
0.10230049
0.098249311
0.094391742
0.090716083
0.087211369
0.08386739
0.08067463
0.077624243
0.074708008
0.071918332
0.069248188
0.066944063
0.069454521
0.072078114
0.074822521
0.07769624
0.080708711
0.08387035
0.08719268
0.090688458
0.094371835
0.098258452
0.10236539
0.10671106
0.11131514
0.11619842
0.12138232
0.12688803
0.13273544
0.13894144
0.14551742
0.15246583
0.15977567
0.1674164
0.17532999
0.1834209
0.19154354
0.19948741
0.20695995
0.21356771
0.21879758
0.22200015
0.2223793
0.21899321
0.21077337
0.19656907
0.17522437
0.14568864
0.10715137
0.0591746
0.097308711
0.14519727
0.18229582
0.20924326
0.22715418
0.23741457
0.24148761
0.24077232
0.23651729
0.22978001
0.22141902
0.21210524
0.20234431
0.19250357
0.1828388
0.17351891
0.16464712
0.1562785
0.14843385
0.14111061
0.13429083
0.12794721
0.12204733
0.11655661
0.11144048
0.10666559
0.1022005
0.09801626
0.094086531
0.09038751
0.086897788
0.083598258
0.080472013
0.077504128
0.074681419
0.071992181
0.069426033
0.066973789
0.064627287
0.062325111
0.064505339
0.066783012
0.069166579
0.071665681
0.074291356
0.077056255
0.079974861
0.083063811
0.086342259
0.089832195
0.093558708
0.097550261
0.10183906
0.10646143
0.11145796
0.1168734
0.12275636
0.12915869
0.1361339
0.14373489
0.15201023
0.16099877
0.17072188
0.18117251
0.19230022
0.20399169
0.21604564
0.228142
0.23980628
0.25036957
0.25893047
0.26432544
0.2651151
0.25961019
0.24595716
0.22230864
0.18710465
0.13939926
0.18598815
0.23336084
0.26602278
0.28540228
0.29372724
0.29348554
0.28701743
0.27633422
0.26305739
0.2484274
0.23335453
0.2184718
0.20419103
0.19075956
0.17830403
0.16686754
0.15643747
0.14696628
0.13838648
0.13062101
0.12359007
0.11721547
0.11142338
0.10614584
0.10132137
0.096895073
0.09281839
0.089048746
0.085549033
0.082287007
0.07923467
0.07636781
0.073665603
0.071110179
0.06868617
0.066380338
0.064181265
0.062079091
0.060065301
0.05787564
0.059725118
0.061653328
0.063668665
0.065780953
0.0680017
0.070344394
0.072824865
0.07546171
0.078276816
0.081295906
0.084549042
0.08807126
0.091903404
0.096092975
0.100695
0.10577285
0.11139903
0.11765579
0.12463546
0.13244003
0.14117969
0.15096996
0.16192648
0.17415621
0.18774372
0.20273
0.21908442
0.23665992
0.25514691
0.2739937
0.29232378
0.30889454
0.32195965
0.32917425
0.3275848
0.31381122
0.28460252
0.23776687
0.29562796
0.34167884
0.36612368
0.37240175
0.36541443
0.34977967
0.32912887
0.30608957
0.28246374
0.25941707
0.23766971
0.21761809
0.19944604
0.18317189
0.16870986
0.15592479
0.14465377
0.13472852
0.12598596
0.11827391
0.11145435
0.10540441
0.10001605
0.095195304
0.090861024
0.08694342
0.083382753
0.080128078
0.077136103
0.074370065
0.071798692
0.069395477
0.067138087
0.065007698
0.062988418
0.061066825
0.059231601
0.057473188
0.055783471
0.05381622
0.055353281
0.056948888
0.058610727
0.060347903
0.062171289
0.064093964
0.066131534
0.068302568
0.070629282
0.073138271
0.075861153
0.078835361
0.082105343
0.085723905
0.089753579
0.094268214
0.099354879
0.10511596
0.11167144
0.11916078
0.12774533
0.13760975
0.14896039
0.16202393
0.17704454
0.19425706
0.21386097
0.23599485
0.26067687
0.28774835
0.31672544
0.34662964
0.37579992
0.4015459
0.41958499
0.42357018
0.4058234
0.36070583
0.47883847
0.48690851
0.46854797
0.43620026
0.39845973
0.35998331
0.3231246
0.28909441
0.25846202
0.23138049
0.20771143
0.1871788
0.16947161
0.15426237
0.14121816
0.13002833
0.12041793
0.11214438
0.10499653
0.098796007
0.093392482
0.088658377
0.084486506
0.08078691
0.07748408
0.074514614
0.071825363
0.069371941
0.067117244
0.065030101
0.063084421
0.061258612
0.05953476
0.05789785
0.05633537
0.054837062
0.053394447
0.052000399
0.050362251
0.051625532
0.052927869
0.054275731
0.055676841
0.057140763
0.058679303
0.060306611
0.062039613
0.063898953
0.065909742
0.068102002
0.07051167
0.073182044
0.076165252
0.07952383
0.083332713
0.087681709
0.092678987
0.098455439
0.10516621
0.11299729
0.12217663
0.1329745
0.1457036
0.16072184
0.17843215
0.19928359
0.22377828
0.2524475
0.28578084
0.32410073
0.36755585
0.41573187
0.46716028
0.51780979
0.5572324
0.56380053
0.66614288
0.63500739
0.56410844
0.49113399
0.42517175
0.36777892
0.31865461
0.27732083
0.24260528
0.21344437
0.18898487
0.16847476
0.15125778
0.13679465
0.12464446
0.11442721
0.1058097
0.09851074
0.09229896
0.086986445
0.082416605
0.078460792
0.075014289
0.071989751
0.069314546
0.066928422
0.064781357
0.062831921
0.061045937
0.059395
0.057855341
0.056407455
0.055035562
0.053726578
0.052469513
0.051255515
0.050077592
0.048929978
0.047734318
0.048784388
0.049857117
0.050957634
0.052092289
0.05326929
0.054498709
0.055792504
0.057165319
0.05863544
0.060225127
0.061961031
0.063875331
0.066007103
0.068403622
0.0711219
0.074230744
0.077813686
0.081971086
0.086825051
0.092526403
0.099259187
0.10724916
0.11677342
0.12816484
0.14180055
0.15811013
0.17765757
0.20117474
0.2295521
0.26395374
0.30636689
0.35945461
0.42545167
0.5059578
0.59991655
0.71403004
0.79150997
-1.1818238
-1.1518353
-1.1189409
-1.0834278
-1.0455936
-1.0057415
-0.9641773
-0.92120684
-0.87713317
-0.83225397
-0.78685942
-0.74122996
-0.69563395
-0.65032629
-0.60554802
-0.56153455
-0.51848811
-0.47658039
-0.43597655
-0.39682091
-0.35923644
-0.32332454
-0.289165
-0.25681672
-0.22631847
-0.19768958
-0.17093109
-0.1460275
-0.12294844
-0.10165017
-0.08207728
-0.064164656
-0.047839507
-0.033023197
-0.019632746
-0.0075822538
0.003215539
0.012847747
0.021400392
0.028957618
0.035600663
0.041407242
0.046451292
0.050802621
0.054526636
0.05768452
0.060332578
0.062522786
0.064302729
0.065716098
0.084660157
0.08838694
0.088348407
0.088285096
0.088193314
0.088071253
0.078191289
0.078916277
0.079642458
0.080366619
0.081085695
0.081796813
0.082497286
0.083184576
0.083856364
0.084510557
0.085145241
0.085758686
0.086349359
0.086915936
0.087457238
0.087972313
0.088460293
0.08892043
0.089352125
0.089754918
0.090128482
0.090472568
0.090787017
0.091071785
0.091326871
0.09155219
0.091747305
0.091911234
0.092042789
0.092141651
0.092209279
0.092249608
0.096242071
0.096200028
0.096128604
0.096023581
0.095883293
0.095707942
0.095498771
0.095256829
0.094982602
0.094676183
0.094337525
0.093966611
0.093563528
0.093128442
0.092661622
0.092163456
0.091634487
0.091075386
0.090486921
0.089870021
0.089225759
0.088555425
0.087860506
0.087142725
0.086403975
0.085646335
0.084872157
0.084084017
0.083284696
0.082477183
0.081664613
0.080850303
0.080037745
0.079230582
0.078239809
0.079098858
0.079975893
0.080867051
0.081768415
0.082676077
0.083586152
0.084494811
0.085398459
0.086293671
0.087177217
0.088046038
0.088897298
0.089728397
0.090536976
0.091320939
0.092078442
0.092807806
0.093507592
0.094176592
0.094813799
0.095418341
0.095989537
0.09652681
0.09702971
0.097497911
0.097931206
0.098329512
0.098692828
0.099021236
0.099314848
0.099573612
0.099797047
0.099984078
0.1001335
0.10024522
0.10032163
0.10036741
0.10462069
0.10457115
0.10448909
0.10436946
0.10420963
0.10400981
0.10377123
0.10349494
0.10318133
0.10283032
0.1024417
0.10201528
0.10155098
0.10104879
0.10050884
0.099931363
0.099316702
0.098665315
0.097977828
0.097255007
0.096497807
0.095707332
0.094884945
0.094032224
0.093151005
0.092243381
0.091311691
0.090358538
0.089386773
0.088399487
0.087400009
0.086391884
0.085378843
0.08436479
0.083353838
0.082350156
0.081357938
0.080381316
0.079424372
0.078490976
0.07758486
0.076709463
0.075867936
0.075063035
0.074297041
0.073571809
0.072888714
0.07224868
0.071652151
0.065729767
0.065759734
0.065809711
0.065883072
0.065981524
0.06610537
0.06625451
0.06642918
0.066630145
0.066858608
0.06711604
0.067404077
0.067724473
0.068079004
0.06846948
0.068897717
0.069365443
0.069874236
0.070425499
0.071020446
0.071659927
0.072344437
0.073074105
0.073848555
0.074666934
0.075528
0.076429948
0.077370474
0.078346881
0.079356007
0.080394317
0.081457997
0.082542972
0.083645021
0.084759797
0.085882882
0.087009837
0.088136235
0.08925782
0.09037058
0.091470664
0.092554406
0.093618413
0.094659557
0.095674999
0.096662165
0.097618753
0.098542714
0.099432264
0.10028592
0.10110243
0.10188074
0.10262003
0.10331961
0.10397898
0.10459779
0.10517581
0.10571293
0.10620914
0.1066645
0.10707923
0.10745362
0.10778799
0.10808253
0.10833689
0.10855006
0.10872072
0.10884865
0.10893639
0.10898926
0.11345904
0.11340295
0.1133095
0.11317321
0.11299157
0.11276478
0.11249418
0.11218081
0.11182497
0.11142644
0.11098479
0.11049962
0.1099706
0.10939757
0.1087804
0.10811911
0.10741378
0.10666464
0.10587206
0.10503659
0.10415894
0.10324006
0.10228111
0.10128348
0.10024885
0.099179171
0.098076682
0.096943908
0.09578368
0.094599131
0.093393706
0.092171122
0.09093533
0.089690526
0.088441073
0.087191572
0.085946697
0.084711111
0.08348948
0.082286419
0.081106317
0.079953347
0.078831404
0.077744059
0.076694512
0.075685531
0.074719351
0.07379771
0.072921859
0.072092581
0.07131025
0.070574823
0.069885929
0.06924284
0.068644628
0.068090213
0.067578378
0.067107849
0.066677335
0.06628556
0.065931275
0.065613312
0.065330651
0.065082575
0.064868898
0.064690117
0.064547046
0.064439793
0.064366466
0.064322645
0.062549891
0.062609442
0.062709075
0.062854507
0.063047926
0.063288735
0.063575181
0.063905947
0.064280557
0.064699164
0.065162241
0.065670395
0.066224248
0.066824463
0.067471711
0.068166665
0.068909907
0.069701945
0.070543137
0.071433609
0.072373238
0.073361486
0.074397455
0.075479911
0.07660709
0.077776698
0.078986009
0.080231791
0.081510363
0.082817717
0.084149581
0.085501435
0.086868531
0.088245913
0.089628585
0.09101161
0.092390162
0.093759515
0.09511513
0.09645269
0.097768143
0.099057773
0.10031813
0.1015461
0.10273888
0.10389401
0.10500934
0.10608305
0.10711358
0.10809966
0.10904024
0.10993451
0.11078187
0.11158193
0.11233447
0.11303941
0.11369678
0.11430672
0.11486943
0.11538524
0.11585456
0.11627791
0.1166558
0.11698851
0.11727577
0.11751647
0.1177092
0.11785374
0.11795283
0.11801224
0.12262674
0.1225639
0.12245914
0.12230626
0.12210227
0.1218474
0.12154317
0.12119068
0.12079022
0.12034145
0.11984376
0.11929653
0.11869925
0.11805147
0.11735285
0.11660313
0.11580212
0.11494976
0.11404614
0.11309147
0.11208621
0.11103101
0.10992677
0.10877462
0.10757597
0.10633251
0.10504627
0.10371962
0.10235529
0.10095637
0.099526254
0.098068642
0.096587648
0.095087672
0.093573362
0.092049556
0.090521274
0.088993735
0.087472186
0.085961871
0.084467874
0.082995165
0.081548428
0.080132113
0.078750345
0.077406817
0.076104832
0.074847231
0.073636346
0.072474047
0.071361792
0.070300705
0.069291554
0.068334888
0.067431029
0.066580151
0.065782376
0.065037774
0.064346387
0.063708282
0.063123559
0.062592296
0.062114675
0.061691204
0.061323118
0.061012697
0.060762755
0.06057456
0.060445415
0.060367932
0.057729003
0.057826587
0.057988913
0.058225068
0.058538212
0.05892629
0.059385391
0.059912233
0.060504681
0.06116143
0.061881528
0.062664086
0.063508195
0.064412928
0.065377381
0.066400598
0.067481672
0.068619609
0.0698133
0.071061463
0.072362573
0.073714875
0.0751162
0.076563949
0.078055169
0.079586442
0.081153909
0.082753364
0.084380223
0.086029588
0.087696302
0.089374978
0.091060142
0.092746342
0.094428074
0.096099936
0.097756663
0.099393328
0.10100521
0.10258789
0.10413728
0.10564965
0.1071217
0.10855041
0.10993316
0.11126774
0.11255225
0.11378514
0.11496518
0.11609138
0.11716304
0.11817969
0.11914106
0.12004707
0.12089779
0.12169341
0.12243429
0.12312084
0.12375352
0.1243329
0.12485961
0.12533438
0.12575789
0.12613056
0.12645211
0.12672143
0.12693694
0.12709841
0.12720901
0.12727535
0.1319248
0.13185487
0.13173824
0.13156793
0.13134061
0.13105651
0.13071722
0.13032395
0.12987691
0.12937558
0.1288192
0.12820694
0.12753803
0.12681181
0.12602765
0.125185
0.12428337
0.12332238
0.12230184
0.12122165
0.1200819
0.11888283
0.11762496
0.11630907
0.11493624
0.11350785
0.1120256
0.11049158
0.10890819
0.10727829
0.10560514
0.10389241
0.10214416
0.10036477
0.098558993
0.096731886
0.094888831
0.093035398
0.091177298
0.089320244
0.087470066
0.085632521
0.083813243
0.08201759
0.080250672
0.078517264
0.076821769
0.075168213
0.073560277
0.072001295
0.070494233
0.069041672
0.067645933
0.066309129
0.065033279
0.063820314
0.06267209
0.061590532
0.060577573
0.05963513
0.05876508
0.057969241
0.057249462
0.056608051
0.056048361
0.055574283
0.055190671
0.054900524
0.054700837
0.054580953
0.050868337
0.051012475
0.051252299
0.051600957
0.052062706
0.052633091
0.05330487
0.054072356
0.054932649
0.0558819
0.056917248
0.058035799
0.059234556
0.060510471
0.061860454
0.063281484
0.064770573
0.066324744
0.067940944
0.069616078
0.071346906
0.073129898
0.074961245
0.076836819
0.078752187
0.08070265
0.082683176
0.084688391
0.08671265
0.088750091
0.090794655
0.092840198
0.094880631
0.096909897
0.098922148
0.10091164
0.10287296
0.10480099
0.106691
0.10853861
0.11033985
0.11209117
0.11378942
0.11543198
0.11701662
0.11854147
0.12000502
0.12140607
0.12274375
0.12401749
0.12522701
0.12637226
0.12745337
0.12847061
0.12942436
0.13031516
0.13114362
0.13191045
0.13261641
0.13326233
0.13384907
0.13437755
0.13484868
0.13526303
0.13562045
0.13591972
0.13615913
0.13633847
0.13646131
0.13653503
0.14105817
0.14098056
0.14085134
0.14066273
0.14041092
0.14009615
0.13972015
0.13928418
0.13878836
0.13823202
0.13761418
0.13693381
0.1361899
0.1353815
0.13450769
0.13356764
0.13256058
0.13148582
0.13034276
0.12913093
0.12784999
0.12649979
0.12508039
0.12359211
0.12203556
0.12041171
0.11872185
0.11696761
0.11515104
0.11327455
0.11134106
0.10935391
0.10731694
0.10523451
0.1031113
0.10095236
0.098763155
0.096549479
0.094317377
0.092073148
0.089823196
0.087574001
0.085332033
0.083103661
0.080895088
0.078712279
0.076560977
0.074446652
0.072374539
0.070349582
0.068376534
0.066459921
0.064604105
0.062813309
0.061091737
0.059443562
0.057873069
0.056384533
0.054982332
0.053670801
0.052454173
0.051336624
0.050321747
0.049414015
0.048618997
0.047944048
0.047397623
0.04698454
0.046700228
0.046529313
0.041498648
0.041698937
0.042032031
0.04251568
0.043155104
0.043944542
0.044873831
0.045933742
0.04711726
0.048418795
0.04983322
0.051355126
0.052978967
0.054698948
0.056509281
0.058404235
0.060378132
0.062425401
0.064540542
0.066718043
0.068952306
0.071237681
0.073568425
0.075938657
0.078342266
0.080772941
0.083224217
0.085689473
0.088161943
0.090634761
0.093101065
0.09555405
0.09798702
0.10039352
0.10276731
0.10510263
0.10739399
0.1096364
0.11182529
0.11395647
0.11602629
0.11803162
0.11996986
0.12183878
0.12363658
0.12536184
0.12701355
0.12859107
0.13009406
0.13152245
0.13287643
0.13415635
0.13536274
0.13649633
0.1375579
0.13854833
0.13946853
0.14031951
0.1411023
0.141818
0.14246774
0.14305267
0.14357387
0.14403205
0.14442711
0.14475779
0.14502231
0.14522055
0.14535633
0.14543774
0.149608
0.14952267
0.14938015
0.14917201
0.14889438
0.1485473
0.14813259
0.14765155
0.14710429
0.14648999
0.14580749
0.14505552
0.14423283
0.14333821
0.14237049
0.14132852
0.14021121
0.13901746
0.1377463
0.13639681
0.13496821
0.13345991
0.13187149
0.13020276
0.12845375
0.12662479
0.12471654
0.12273011
0.12066705
0.11852931
0.11631923
0.1140397
0.11169411
0.10928633
0.10682076
0.10430235
0.10173649
0.099129007
0.096486146
0.093814532
0.091121051
0.088412833
0.085697124
0.082981276
0.080272593
0.077578416
0.074905982
0.072262463
0.06965492
0.067090316
0.064575508
0.062117394
0.059722856
0.057398881
0.055152411
0.052990647
0.050920781
0.048950168
0.047086165
0.045336152
0.043707254
0.042206258
0.040839727
0.039614657
0.03853965
0.037625833
0.036885307
0.036325041
0.035939004
0.035706688
0.029079508
0.029346318
0.029789402
0.030432422
0.03128207
0.032330079
0.033562248
0.034965428
0.0365293
0.038245339
0.040105463
0.042101299
0.044224048
0.046464613
0.048813834
0.05126264
0.053802012
0.056423075
0.059117172
0.061875771
0.064690547
0.067553274
0.070455812
0.073390003
0.076347733
0.07932094
0.082301578
0.085281623
0.088253136
0.091208338
0.094139586
0.097039495
0.099900993
0.10271739
0.10548245
0.10819038
0.1108359
0.11341423
0.11592117
0.11835316
0.12070719
0.12298064
0.12517144
0.127278
0.1292991
0.13123402
0.13308241
0.13484431
0.13651996
0.13810984
0.13961464
0.14103521
0.14237258
0.14362785
0.14480223
0.14589699
0.14691343
0.14785284
0.14871651
0.14950576
0.15022194
0.15086644
0.15144053
0.15194509
0.15238007
0.15274414
0.15303538
0.1532536
0.15340301
0.15349264
0.15700343
0.15690936
0.15675279
0.15652411
0.15621882
0.15583722
0.15538131
0.15485247
0.1542507
0.15357507
0.15282418
0.15199657
0.15109077
0.15010537
0.14903893
0.14789001
0.14665717
0.14533892
0.14393388
0.14244069
0.14085811
0.13918499
0.13742034
0.1355634
0.13361359
0.13157057
0.1294343
0.12720515
0.12488388
0.12247172
0.11997038
0.11738202
0.11470936
0.11195564
0.10912476
0.10622125
0.10325019
0.10021729
0.097128747
0.093991252
0.090812
0.08759859
0.084359003
0.081101479
0.077834583
0.074567081
0.071307838
0.068065872
0.064850431
0.061670937
0.058536948
0.055458163
0.052444534
0.049506249
0.046653849
0.043898041
0.041249807
0.038720183
0.036320298
0.034061108
0.031953252
0.030006838
0.028231573
0.02663761
0.025237081
0.024045328
0.023078772
0.022346965
0.02184267
0.021539112
0.013004261
0.013346882
0.013916279
0.014742431
0.015833261
0.017177828
0.018757371
0.020554231
0.022554357
0.024745897
0.027117403
0.029656889
0.032351732
0.035188905
0.038155173
0.0412373
0.044422282
0.047697316
0.051049908
0.054468017
0.057939917
0.061454247
0.064999915
0.068566194
0.072142656
0.075719251
0.079286195
0.082833945
0.086353354
0.089835701
0.093272705
0.096656581
0.099980094
0.10323658
0.10641994
0.10952467
0.11254591
0.11547949
0.11832188
0.12107014
0.12372196
0.12627562
0.12872989
0.13108398
0.13333757
0.13549073
0.13754386
0.13949765
0.14135301
0.14311103
0.14477301
0.14634037
0.14781463
0.14919737
0.15049019
0.15169469
0.15281249
0.15384519
0.15479435
0.15566149
0.15644818
0.157156
0.15778642
0.15834042
0.15881801
0.15921772
0.1595375
0.15977713
0.15994114
0.16003953
0.16248681
0.16238411
0.16221254
0.16196167
0.16162676
0.16120814
0.16070801
0.16012789
0.15946778
0.15872664
0.15790293
0.15699498
0.15600112
0.15491972
0.15374909
0.15248748
0.15113315
0.14968432
0.14813922
0.14649605
0.14475303
0.14290844
0.14096069
0.13890831
0.13675005
0.13448485
0.13211192
0.12963073
0.12704113
0.12434336
0.12153818
0.11862686
0.11561123
0.11249378
0.10927765
0.10596663
0.10256525
0.099078724
0.095512962
0.091874527
0.088170697
0.084409385
0.080599167
0.076749204
0.072869257
0.068969628
0.065061062
0.061154755
0.05726238
0.053396066
0.049568527
0.045792948
0.042082956
0.03845262
0.034916538
0.031489758
0.028187541
0.025025417
0.022018901
0.019183269
0.016533257
0.014082837
0.011845314
0.0098343344
0.0080659556
0.0065602159
0.005338364
0.0044128547
0.0037748994
0.0033909414
-0.0073870765
-0.0069599003
-0.0062503093
-0.0052209706
-0.0038621592
-0.0021878812
-0.00022195405
0.0020131547
0.0044992827
0.0072208676
0.010162681
0.0133087
0.016641951
0.020144801
0.023799277
0.027587457
0.031491586
0.035494291
0.039578676
0.043728453
0.047927965
0.052162107
0.056416464
0.060677335
0.064931692
0.069167118
0.073371904
0.077534967
0.081645968
0.085695293
0.089674133
0.093574458
0.097389004
0.10111131
0.10473579
0.10825751
0.11167244
0.11497717
0.11816906
0.12124617
0.12420717
0.12705131
0.12977837
0.13238863
0.13488278
0.13726179
0.1395269
0.14167954
0.14372137
0.14565422
0.14748
0.14920068
0.1508183
0.15233486
0.15375232
0.15507262
0.15629767
0.15742931
0.15846934
0.15941951
0.16028156
0.16105724
0.16174816
0.16235542
0.16287901
0.16331738
0.16366812
0.16393074
0.16411022
0.16421748
0.16508898
0.16497663
0.16478857
0.16451344
0.1641462
0.16368731
0.16313928
0.16250378
0.16178082
0.16096924
0.16006739
0.15907346
0.15798565
0.15680212
0.15552097
0.15414025
0.15265793
0.15107192
0.14938005
0.1475801
0.14566982
0.143647
0.1415094
0.13925486
0.13688132
0.13438686
0.1317698
0.12902869
0.12616234
0.12316992
0.1200511
0.11680601
0.11343542
0.10994064
0.10632375
0.10258761
0.098735824
0.094772835
0.090703967
0.08653549
0.08227459
0.077929432
0.073509027
0.069023351
0.064483345
0.059900874
0.055288662
0.050660347
0.046030467
0.041414434
0.036828473
0.032289669
0.027815904
0.023425842
0.019138826
0.014974708
0.010953838
0.0070967052
0.0034238171
-4.4702431e-05
-0.0032895639
-0.0062926513
-0.0090367634
-0.011504362
-0.013675109
-0.015524014
-0.017024678
-0.018161628
-0.018945387
-0.019417144
-0.032786685
-0.032269186
-0.03140943
-0.030162288
-0.028516202
-0.026488143
-0.024107168
-0.021400856
-0.018391698
-0.015099217
-0.011542611
-0.0077421498
-0.0037194954
0.00050269957
0.0049013221
0.009453158
0.014135223
0.018924939
0.023800425
0.028740521
0.033724995
0.03873464
0.043751258
0.048757661
0.053737716
0.058676524
0.063560304
0.068376378
0.073113207
0.077760512
0.082309069
0.086750631
0.091078097
0.095285495
0.099367824
0.10332114
0.10714235
0.11082926
0.11438043
0.11779516
0.12107338
0.12421556
0.12722265
0.13009603
0.13283743
0.1354488
0.13793231
0.14029034
0.14252537
0.14463989
0.14663639
0.14851739
0.15028532
0.15194262
0.15349164
0.15493461
0.15627369
0.15751091
0.15864824
0.15968758
0.16063081
0.16147978
0.16223618
0.16290117
0.16347469
0.163955
0.16433949
0.16462768
0.16482477
0.16494284
0.1636052
0.16348127
0.16327481
0.16297304
0.16257045
0.16206763
0.16146737
0.16077152
0.15998019
0.15909223
0.15810592
0.15701937
0.15583066
0.15453784
0.1531389
0.15163171
0.15001403
0.14828349