/*--------------------------------*- C++ -*----------------------------------*\
| =========                 |                                                 |
| \\      /  F ield         | OpenFOAM: The Open Source CFD Toolbox           |
|  \\    /   O peration     | Version:  v2012                                 |
|   \\  /    A nd           | Website:  www.openfoam.com                      |
|    \\/     M anipulation  |                                                 |
\*---------------------------------------------------------------------------*/
FoamFile
{
    version     2.0;
    format      ascii;
    class       volScalarField;
    location    "200";
    object      k;
}
// * * * * * * * * * * * * * * * * * * * * * * * * * * * * * * * * * * * * * //

dimensions      [0 2 -2 0 0 0 0];


internalField   nonuniform List<scalar> 
75385
(
0.18961681
0.18653766
0.18347855
0.18043644
0.17741509
0.17441279
0.17143356
0.16847581
0.16554321
0.16263409
0.15975178
0.15689456
0.15406529
0.15126218
0.14848792
0.14574072
0.14302292
0.14033265
0.13767185
0.13503851
0.13243382
0.12985576
0.127306
0.12478311
0.12228875
0.11982156
0.11738305
0.11497188
0.11258909
0.11023288
0.10790356
0.10559785
0.10331463
0.10104786
0.098803534
0.096572107
0.094382589
0.09221342
0.090102587
0.088054573
0.086264705
0.085746169
0.085490073
0.086438301
0.086701903
0.087960465
0.088212757
0.089242673
0.089045753
0.08977546
0.089455243
0.090223508
0.090060494
0.091171223
0.090929469
0.091340664
0.090475256
0.090385533
0.08811585
0.085651693
0.079856641
0.072449014
0.063406683
0.053682729
0.043515909
0.039039219
0.037831097
0.041735277
0.042134463
0.045094352
0.045029459
0.047189053
0.046854496
0.049031134
0.048475043
0.049865807
0.049025632
0.050563604
0.049766388
0.051546774
0.051165756
0.053233105
0.052804228
0.054214681
0.05322386
0.054277301
0.053176695
0.054037133
0.052874336
0.053927231
0.052923259
0.054212058
0.053682523
0.055128448
0.054700622
0.056269629
0.055979584
0.057704894
0.05728057
0.058259894
0.056402827
0.055286678
0.050501792
0.045416749
0.040654783
0.035392725
0.037218458
0.049895682
0.064388275
0.072860984
0.0784355
0.080595801
0.082920022
0.083334428
0.084442015
0.083994625
0.084198369
0.083312718
0.083068982
0.081538132
0.080545653
0.079876315
0.07973706
0.079981911
0.080029577
0.080066753
0.080730961
0.081657857
0.082504652
0.083246593
0.083853041
0.084160385
0.084345092
0.084434166
0.084383743
0.08438902
0.084208789
0.08417176
0.083942938
0.08378446
0.083509554
0.083392858
0.082844698
0.082173341
0.081123132
0.079768132
0.078692497
0.078164709
0.078468701
0.078457978
0.078234757
0.078486845
0.079192481
0.079709495
0.080192067
0.080354188
0.080578512
0.080748189
0.08086081
0.080884438
0.080899373
0.080803944
0.080861868
0.08085968
0.080935549
0.080914324
0.081022961
0.081113193
0.081223713
0.081199855
0.081301476
0.081286793
0.081470593
0.081506373
0.081505358
0.081482273
0.081459506
0.081430585
0.081393986
0.081322888
0.081381575
0.081460587
0.081695624
0.081872583
0.08198664
0.081998583
0.082084261
0.082259532
0.082329429
0.082398039
0.082473062
0.082500126
0.082561825
0.082614151
0.082659063
0.082744535
0.082781379
0.082832087
0.082947166
0.083125858
0.083330014
0.083459773
0.083372185
0.083429779
0.083785754
0.084271551
0.084935092
0.086775608
0.086146114
0.085706107
0.085340729
0.085320501
0.085403122
0.085281415
0.085086045
0.084895271
0.084792203
0.084730711
0.084706213
0.084606241
0.08457349
0.084507268
0.084455485
0.084416767
0.084351551
0.08427022
0.084213371
0.084023459
0.083951719
0.083926479
0.083821295
0.083633464
0.083406622
0.083318001
0.083266882
0.083330582
0.083385371
0.083395951
0.083435598
0.083440717
0.083458333
0.083404616
0.08322837
0.083231778
0.083141362
0.083154613
0.083056884
0.082950904
0.082854547
0.08286212
0.082796766
0.082784435
0.08273758
0.08281929
0.082816621
0.082772214
0.082669569
0.082478901
0.082270641
0.082093463
0.081635611
0.081080723
0.080401803
0.08010568
0.080366538
0.08030968
0.082377494
0.084497819
0.086668405
0.088858306
0.091083329
0.093324509
0.095590266
0.097873421
0.10018239
0.10251539
0.10487682
0.10726474
0.10967815
0.11211702
0.11458162
0.11707218
0.11958898
0.12213338
0.12470346
0.12730055
0.12992231
0.13256964
0.13523986
0.13793696
0.14065536
0.14340177
0.14617788
0.14897651
0.15180074
0.1546524
0.1575331
0.16043466
0.16336101
0.16631398
0.16929231
0.17228864
0.17530223
0.17832652
0.18136976
0.18442198
0.18748655
0.19056369
0.19364992
0.19674296
0.19983857
0.20293515
0.20602872
0.20911671
0.21219509
0.21526854
0.21505912
0.21199748
0.20892028
0.20583955
0.20275553
0.19966445
0.19657649
0.19348685
0.19040537
0.1873321
0.18427529
0.18122463
0.17818219
0.17515776
0.17213864
0.16912963
0.16614515
0.16319947
0.16028555
0.15739212
0.15451744
0.15167324
0.14885962
0.1460682
0.14329739
0.14055841
0.13784975
0.13515816
0.13248626
0.12983699
0.12721748
0.12462237
0.12205754
0.11951724
0.11700451
0.11451886
0.11205632
0.10961985
0.10720859
0.10482489
0.10247356
0.10016285
0.097876898
0.095618567
0.093373487
0.091152733
0.088953505
0.086774738
0.084610557
0.082481443
0.08218682
0.08250607
0.083182346
0.083767819
0.084222058
0.084418744
0.084612827
0.084828079
0.084918951
0.084987407
0.084975951
0.084909436
0.084943974
0.084973228
0.085026395
0.085034431
0.085116636
0.085241135
0.085323767
0.085322485
0.085399619
0.085409138
0.085576427
0.085650887
0.08561372
0.085629695
0.085569991
0.085581228
0.085505916
0.085458278
0.08549279
0.085599764
0.085809518
0.086018438
0.0861054
0.086154193
0.086201689
0.086417
0.086450376
0.086554404
0.086600147
0.086660769
0.086693225
0.086783787
0.086794349
0.086919026
0.086920784
0.087002444
0.087083115
0.087296561
0.087471436
0.087578235
0.087490605
0.087479106
0.087848711
0.088261342
0.088877097
0.091023867
0.090433548
0.0900456
0.089684649
0.089708114
0.089803249
0.089725944
0.089536934
0.089335867
0.08924286
0.089176793
0.089163332
0.089049076
0.089025898
0.088945406
0.088896789
0.088849185
0.088787716
0.08869604
0.088651968
0.088444738
0.08838682
0.08834911
0.088246012
0.088050538
0.087822414
0.087733246
0.087679833
0.087746669
0.087828117
0.087811779
0.087875667
0.087853966
0.087895368
0.087816031
0.087640942
0.087635539
0.087555184
0.087561471
0.087478145
0.08735137
0.087266835
0.087260141
0.08720231
0.087172466
0.087132925
0.087201568
0.087210754
0.087133677
0.087038615
0.086813961
0.086616455
0.086414529
0.085945892
0.085351163
0.084659973
0.084339454
0.086516393
0.086850575
0.087556331
0.088161271
0.088641253
0.088850524
0.089049343
0.089286211
0.089382876
0.089472248
0.089464306
0.089393594
0.089438279
0.089469195
0.089531688
0.089536962
0.089623586
0.089753203
0.089834661
0.089824539
0.089906476
0.089908968
0.090090082
0.090177562
0.090129499
0.090159122
0.090089282
0.090113309
0.090028034
0.089935973
0.090012962
0.090078913
0.090329794
0.0905081
0.090630546
0.090653263
0.090726971
0.090921912
0.090979932
0.091055086
0.091136563
0.091167182
0.091236697
0.091303549
0.091344583
0.091442725
0.09147135
0.091517178
0.0916263
0.091811526
0.092019657
0.092076822
0.091963666
0.091941556
0.092284671
0.092637329
0.093215438
0.095420705
0.094867749
0.094541881
0.09422444
0.094241595
0.094368065
0.094317809
0.094104287
0.093921094
0.093809671
0.093771164
0.093741492
0.093646653
0.093597729
0.093533536
0.093456082
0.093428728
0.093340563
0.093268727
0.093211118
0.093014179
0.092934596
0.092916358
0.092788381
0.092614001
0.092353038
0.092299158
0.092210813
0.092313554
0.092395278
0.092364337
0.092437587
0.092401905
0.092453007
0.092361341
0.092172913
0.092175501
0.092089978
0.092106402
0.092025862
0.091895627
0.091804504
0.091803327
0.091733579
0.091703703
0.091648674
0.091726121
0.091728021
0.091629451
0.091529404
0.091283125
0.091082319
0.090867785
0.090375212
0.08976276
0.089042055
0.088707495
0.090910322
0.091246588
0.091993306
0.092601711
0.093118057
0.093326426
0.093541861
0.093781468
0.093900104
0.093994956
0.094007983
0.093914526
0.093989733
0.0940096
0.09409604
0.094083761
0.094188629
0.09431038
0.094401539
0.094366209
0.094467821
0.094447863
0.094655002
0.094738371
0.094692068
0.094725569
0.094658103
0.09468662
0.094617695
0.094500329
0.094608605
0.09464066
0.094919647
0.095082454
0.095223396
0.09522879
0.095318372
0.095511493
0.09557846
0.095636483
0.095741972
0.095756307
0.095854701
0.095906323
0.095967223
0.0960515
0.09609246
0.096112957
0.096237002
0.096410579
0.096636419
0.096672349
0.096538021
0.096529089
0.096815636
0.097118983
0.097663589
0.099914086
0.099388006
0.099106934
0.098852788
0.098850506
0.098995954
0.098972184
0.098751178
0.098572036
0.098446663
0.098432864
0.09839187
0.098325557
0.098237255
0.098196281
0.09808755
0.09807397
0.097962197
0.097906566
0.097841884
0.097657912
0.097542628
0.097548531
0.097410964
0.097244583
0.096962414
0.096939357
0.096824202
0.096958385
0.096996944
0.096986821
0.097032639
0.097016515
0.097042108
0.096966375
0.096756216
0.096779989
0.096676187
0.096716364
0.096628867
0.096519057
0.096396197
0.096425835
0.096318716
0.096313088
0.096201476
0.096326634
0.096282695
0.09618995
0.096070108
0.095821651
0.095604988
0.095388
0.094861484
0.094243518
0.093484062
0.093159609
0.095428389
0.095760309
0.096520981
0.097159243
0.097683393
0.09792248
0.098126943
0.098371116
0.098503132
0.098588833
0.098674768
0.098518797
0.098667171
0.098667059
0.098786478
0.098748051
0.098882297
0.098985729
0.099058599
0.099021806
0.099118518
0.099104115
0.099306564
0.099361862
0.099368214
0.099373996
0.099344563
0.099341518
0.099329358
0.099189602
0.099300839
0.099320388
0.099594832
0.099775198
0.099900479
0.099873614
0.10002655
0.10022168
0.10026353
0.10033535
0.1004323
0.10046647
0.1005627
0.10058793
0.10071702
0.10078193
0.10080292
0.10082803
0.10093457
0.10112855
0.10133591
0.10133744
0.10118497
0.1011936
0.10141682
0.10167597
0.10219602
0.10448609
0.10398457
0.1037457
0.1035521
0.10353864
0.10369977
0.10371131
0.10352497
0.10331536
0.1032069
0.10319019
0.10316495
0.10310907
0.10297308
0.10296744
0.10284313
0.10280754
0.10270363
0.10263647
0.10259359
0.10239342
0.10222515
0.10226999
0.1021574
0.10196061
0.10169738
0.10168076
0.1015753
0.10169939
0.10169629
0.10170225
0.10172911
0.10171891
0.10169894
0.10165935
0.10147404
0.10147362
0.10138551
0.1014164
0.101359
0.10124293
0.1011179
0.10114367
0.1010333
0.10102108
0.10087286
0.10102491
0.10092829
0.10085359
0.10068823
0.10047207
0.10026271
0.099995415
0.099478032
0.098814895
0.098056656
0.097709266
0.10000367
0.10037821
0.10113328
0.10182285
0.10233348
0.10262841
0.10284644
0.10302597
0.10323885
0.10330738
0.10339998
0.10325196
0.10339602
0.10341972
0.10352094
0.10350765
0.10362107
0.10376021
0.10379912
0.10378161
0.10385422
0.10386936
0.10402753
0.10405475
0.10409266
0.10409732
0.10408479
0.10406501
0.10408902
0.10398559
0.10408233
0.1041048
0.10435109
0.10457129
0.10466778
0.10459952
0.1047834
0.10497873
0.10502913
0.10508655
0.10520854
0.10523318
0.10540641
0.10540284
0.10552297
0.10556103
0.10559812
0.10560077
0.10571796
0.1059499
0.10610068
0.10608196
0.10591383
0.10593699
0.10609643
0.10631579
0.10681071
0.10914826
0.10867187
0.10847018
0.10832391
0.10832869
0.10850756
0.10851157
0.10837734
0.10816199
0.10803409
0.10804961
0.10798353
0.10797692
0.10785664
0.10784483
0.10766197
0.10763502
0.10749651
0.10746429
0.10738874
0.1071979
0.10701403
0.10708884
0.10698285
0.10676067
0.106516
0.10652369
0.10642221
0.10650161
0.10645857
0.10649176
0.10650146
0.10649018
0.10644926
0.10641836
0.10629037
0.10625618
0.10617836
0.10620283
0.10616456
0.10603553
0.10591888
0.10591739
0.10582748
0.10579138
0.10565538
0.10579113
0.1057046
0.10562351
0.10540077
0.1052459
0.10501435
0.10469102
0.10418883
0.10347215
0.10272671
0.10233245
0.10467929
0.10510107
0.10583613
0.10657539
0.10707179
0.10741923
0.10767363
0.10782178
0.10803538
0.10813419
0.10820899
0.10808394
0.10821667
0.10826795
0.10834303
0.10836153
0.10848221
0.1085965
0.10863252
0.10859012
0.10868731
0.10873692
0.10884805
0.10886807
0.10891959
0.10895965
0.10892923
0.1088762
0.10894295
0.10888473
0.10899902
0.10895147
0.10919797
0.10940569
0.10954115
0.10947618
0.10964814
0.10982252
0.10993547
0.10994471
0.11009505
0.11013498
0.11030856
0.11033641
0.11046544
0.11044221
0.11053876
0.11051483
0.11064314
0.11083364
0.11096018
0.11095282
0.1107797
0.11073857
0.1108691
0.11105439
0.11152444
0.11391545
0.11346536
0.11329602
0.11317227
0.11323471
0.11341696
0.11343262
0.11330817
0.11312739
0.11301975
0.11303208
0.11294487
0.11295741
0.11284137
0.11279357
0.11263302
0.11257955
0.11243889
0.1124136
0.11229923
0.11212589
0.11196792
0.11201876
0.11186854
0.111662
0.11143159
0.11147925
0.11137282
0.11141019
0.11132185
0.11141015
0.11142106
0.11137025
0.11131667
0.11129997
0.11120759
0.11114514
0.11104245
0.11110803
0.11104871
0.11093169
0.11080393
0.11079224
0.1107105
0.11066547
0.11053923
0.11064894
0.1105625
0.11046863
0.11026729
0.11013117
0.10986066
0.10950009
0.10900069
0.10824712
0.1075083
0.10708412
0.10950666
0.10993904
0.11068282
0.11142029
0.11194968
0.11229601
0.11260675
0.11273875
0.11292873
0.11300394
0.11311584
0.11302089
0.113142
0.11316767
0.11326881
0.11326079
0.11340604
0.11351408
0.11362198
0.11354413
0.11363221
0.11370863
0.11378077
0.1137887
0.11385163
0.11389588
0.11392834
0.11380595
0.11390879
0.11388804
0.11398533
0.11394164
0.11415618
0.1143544
0.11452531
0.11449054
0.11463274
0.11480109
0.11491943
0.11496338
0.11508952
0.11515996
0.11530629
0.11537282
0.11547321
0.11547336
0.11554775
0.11554902
0.11563434
0.11579986
0.11593438
0.11590545
0.11571277
0.1156243
0.11574887
0.11590175
0.1163464
0.11879284
0.11836599
0.11823059
0.11811622
0.11823637
0.11842195
0.11846228
0.1183202
0.11818328
0.11810333
0.11808434
0.11802584
0.11801076
0.11793286
0.11784144
0.11771553
0.11762177
0.11751685
0.1174483
0.11733468
0.11718328
0.11704302
0.11705577
0.11687097
0.1166743
0.11648009
0.11651522
0.11643196
0.11643458
0.11633641
0.11644929
0.11640732
0.1163565
0.11629405
0.11628487
0.11621417
0.11616131
0.11607177
0.11613633
0.11601523
0.11590766
0.11575814
0.11579286
0.11566508
0.11566243
0.11553008
0.11560905
0.11547229
0.1154318
0.11523851
0.11510806
0.11474472
0.11442189
0.11385531
0.11314458
0.11239294
0.11197193
0.11444736
0.11487298
0.11563591
0.11631371
0.11693097
0.1172308
0.11764115
0.11776313
0.11797148
0.11797749
0.11813293
0.11806455
0.11822128
0.11821059
0.11835926
0.11830539
0.11844684
0.11856865
0.11867586
0.11862708
0.11872804
0.1187473
0.11881876
0.11881938
0.11889575
0.1189717
0.11899798
0.11889776
0.11899148
0.11900143
0.11907564
0.11904349
0.11922252
0.11941155
0.11961773
0.11962346
0.11977384
0.11991658
0.12000885
0.1200961
0.12018242
0.12029653
0.1204049
0.12051858
0.120577
0.12061238
0.12064962
0.12069073
0.12076983
0.12087692
0.12102603
0.12096259
0.12080012
0.12065555
0.12074226
0.12085812
0.12128045
0.12378311
0.12337809
0.12328002
0.12321766
0.12337072
0.12352956
0.12361326
0.12347793
0.12336185
0.1232789
0.12323828
0.12319953
0.12316491
0.12313051
0.12299066
0.12290356
0.1227655
0.12270142
0.12259192
0.12252227
0.12236798
0.12223123
0.12220419
0.12198519
0.12179529
0.12163249
0.12166074
0.12159701
0.12157327
0.12148812
0.12156951
0.12153577
0.12145634
0.12136483
0.12138005
0.12130169
0.12130106
0.12120903
0.12123696
0.12111916
0.12100821
0.1208777
0.1209294
0.12077812
0.12078339
0.1206232
0.12068408
0.12052785
0.12051638
0.12031055
0.12017491
0.11976031
0.11944908
0.11880972
0.11815494
0.11738268
0.11696199
0.11949892
0.11991489
0.12070972
0.12135362
0.12199477
0.12231542
0.12273554
0.12288297
0.1230856
0.12310749
0.12326471
0.12320656
0.12336845
0.12337217
0.12352307
0.1234776
0.1235933
0.12368418
0.12382447
0.12381871
0.12389869
0.12387334
0.12397388
0.12393596
0.12404444
0.12411608
0.1241686
0.12410604
0.12418107
0.12422522
0.12427246
0.12425409
0.12439864
0.12458378
0.12482236
0.12486685
0.12498139
0.12516032
0.12519877
0.12533801
0.12537206
0.12554177
0.12559963
0.12577375
0.12577785
0.1257998
0.12585246
0.12588062
0.12597482
0.12611452
0.12622002
0.1261206
0.12596283
0.12581392
0.12584418
0.12592621
0.126327
0.12888542
0.12850291
0.12843739
0.1284169
0.12860069
0.12875444
0.12885167
0.12875769
0.12863414
0.12852478
0.12851555
0.12842894
0.12843363
0.12842384
0.12824914
0.12818661
0.12801948
0.12798128
0.1278466
0.12780493
0.12763632
0.12753359
0.12746487
0.12721332
0.12702754
0.12688238
0.12692855
0.12686074
0.12683169
0.12675347
0.12679458
0.12673861
0.1266617
0.12654942
0.12659869
0.12648556
0.12654162
0.12645783
0.12643813
0.12627604
0.12622181
0.12610548
0.12613628
0.12599265
0.12597262
0.1258158
0.12586586
0.12571362
0.12567376
0.12548176
0.12531585
0.12489613
0.12456013
0.12392154
0.12326517
0.12246757
0.12204689
0.12460562
0.12504562
0.12584234
0.12651577
0.12715238
0.12750064
0.12792258
0.12810545
0.12828778
0.12834446
0.12849457
0.12844973
0.1286036
0.1286382
0.12877645
0.12875808
0.12888742
0.12890422
0.12908118
0.12912376
0.1292245
0.12914798
0.12926194
0.12921257
0.12931484
0.12940899
0.1294528
0.12942504
0.12951727
0.12951896
0.12962117
0.12953467
0.12969125
0.12988931
0.13013782
0.13022555
0.13032694
0.13047592
0.13052941
0.13065141
0.13070176
0.13085825
0.13093302
0.13110038
0.13112511
0.13109545
0.13122103
0.13122048
0.13133387
0.13142424
0.13152684
0.13143625
0.13127691
0.13104421
0.13105761
0.13110839
0.13148491
0.13409816
0.13374325
0.13370819
0.13371644
0.13395704
0.13414185
0.13422691
0.13413419
0.13403913
0.13394061
0.13393305
0.13380729
0.13382342
0.13379603
0.13362327
0.13355137
0.13339136
0.13334304
0.13321975
0.1331677
0.13302083
0.13294196
0.13283268
0.13259167
0.13238303
0.13223414
0.13232363
0.13222143
0.13220683
0.13211964
0.13213477
0.1321067
0.131993
0.13190537
0.13194973
0.13183471
0.1319105
0.13181617
0.1317502
0.13157837
0.13155746
0.13143588
0.13143941
0.13131116
0.13125735
0.13111014
0.1311474
0.13100251
0.13092412
0.13075687
0.13055234
0.13013144
0.12976799
0.12913781
0.12844233
0.12765221
0.12720137
0.1298101
0.13028238
0.1310688
0.13178339
0.13240994
0.13278401
0.13320804
0.13343162
0.1335857
0.13368337
0.1338279
0.13379631
0.13393743
0.13400765
0.13412838
0.1341365
0.13424937
0.13427936
0.13444518
0.1345323
0.13461731
0.13454855
0.13466303
0.13462937
0.13469634
0.13483924
0.13484117
0.13484545
0.13491922
0.13495447
0.13505122
0.1349644
0.1350974
0.13532893
0.13555363
0.13569338
0.13573485
0.13587398
0.13593105
0.13604994
0.13610166
0.13625977
0.1363335
0.13650658
0.13654271
0.13654951
0.13666655
0.1366887
0.13676491
0.13687919
0.13694986
0.13688422
0.13665891
0.13641995
0.13638505
0.1364045
0.1367504
0.1394163
0.13909307
0.13909065
0.1391526
0.13938282
0.13962842
0.13969333
0.1396309
0.1395333
0.13946715
0.13942317
0.13932179
0.13928742
0.1392447
0.13908986
0.13900835
0.13885869
0.13879679
0.13868932
0.13861943
0.1384915
0.13844785
0.1382954
0.13807312
0.13785501
0.13772432
0.13780298
0.13771703
0.13765484
0.13757776
0.13758929
0.13757891
0.13744188
0.137384
0.13740086
0.13728993
0.13734583
0.13727337
0.13716054
0.13700396
0.13696195
0.13686096
0.13683884
0.13672837
0.1366402
0.13651003
0.13652718
0.13638758
0.13626342
0.13613061
0.13588075
0.13545901
0.13506942
0.13445305
0.13371303
0.132938
0.13245142
0.13510424
0.13562455
0.13638169
0.1371537
0.13775311
0.13816329
0.13857699
0.13886163
0.13896511
0.13912272
0.13925149
0.1392498
0.13937033
0.13948113
0.1395746
0.13961711
0.13969914
0.13975966
0.13989967
0.14004814
0.1400994
0.14005737
0.14016631
0.1401663
0.1402233
0.14034322
0.14037079
0.1403323
0.14041752
0.14050522
0.14058142
0.14051043
0.14064918
0.14083774
0.14106248
0.14121379
0.14128615
0.14142348
0.14149193
0.1416028
0.14165969
0.14181635
0.14188832
0.1420249
0.14206118
0.1421202
0.14220661
0.14227028
0.14233722
0.1424029
0.1424623
0.14238447
0.14213073
0.14191145
0.14182238
0.14180646
0.14212428
0.14484631
0.14454758
0.14457993
0.14469667
0.1449051
0.14516778
0.145257
0.14521901
0.14514519
0.1450976
0.14501292
0.144946
0.1448624
0.14483007
0.14469088
0.14462371
0.14446207
0.14440765
0.14429637
0.14422614
0.14408502
0.14400476
0.14385481
0.1436463
0.143449
0.14332279
0.14338258
0.14331963
0.1432076
0.14313485
0.14315933
0.14312565
0.14300841
0.14297711
0.14295638
0.14285326
0.14287492
0.14282447
0.14265829
0.1425169
0.14245724
0.14237545
0.14233227
0.14223655
0.14212348
0.14201826
0.14199804
0.1418581
0.14168641
0.14159387
0.14129294
0.1408684
0.14045755
0.13985739
0.13907132
0.13831733
0.13779279
0.14048953
0.14101989
0.14178487
0.14256953
0.14318615
0.14358176
0.14403219
0.14433596
0.14442669
0.14460205
0.14476711
0.14481316
0.1449006
0.14500165
0.14511536
0.14514353
0.14523998
0.14528367
0.14544039
0.14561157
0.14567246
0.14567353
0.14577467
0.14581469
0.1458151
0.14592102
0.14596681
0.1459664
0.14602058
0.14616395
0.14620848
0.14616095
0.14626765
0.14648924
0.14667545
0.14681828
0.14690093
0.14703866
0.1471166
0.14722273
0.14727977
0.14744188
0.14751176
0.14764964
0.14768531
0.14780269
0.14784096
0.1479547
0.14797051
0.14806945
0.1480796
0.14797439
0.14770272
0.14751364
0.14736257
0.14731679
0.14761123
0.1503898
0.15011412
0.15017393
0.15033718
0.15054485
0.15082778
0.15092604
0.1509262
0.15083632
0.15081886
0.15071029
0.15066685
0.15055288
0.15050871
0.15037894
0.15029915
0.15014313
0.1500767
0.14998281
0.14988916
0.14976254
0.14965966
0.14951837
0.14933825
0.14912795
0.14902908
0.14905611
0.14901381
0.14887355
0.14882477
0.14879843
0.14874317
0.14866805
0.14868216
0.14861748
0.14851933
0.14849452
0.1484253
0.14824816
0.14809005
0.14805141
0.14795152
0.14792768
0.14780569
0.14772166
0.14763782
0.14756132
0.14737217
0.14721128
0.14710362
0.14679724
0.14633346
0.14594245
0.14531773
0.14452534
0.14376024
0.14324348
0.14602601
0.1465563
0.1473003
0.14811978
0.14872981
0.14913176
0.14959351
0.14989146
0.15003347
0.15017527
0.15038102
0.15048559
0.15058192
0.15065781
0.15077479
0.15080513
0.15089477
0.15094522
0.15108917
0.15126171
0.15134139
0.15139722
0.15148316
0.15158178
0.15155533
0.15160479
0.15165618
0.15171483
0.1517597
0.15188678
0.15192577
0.15192072
0.15202332
0.15221105
0.15238834
0.15252254
0.15266386
0.15279688
0.15289118
0.15298987
0.15304957
0.15321561
0.15328957
0.15342714
0.15345886
0.15355451
0.15361371
0.15370662
0.1537358
0.15380671
0.15379662
0.15370311
0.15342547
0.15318592
0.15301108
0.15293969
0.15321098
0.15604475
0.15579476
0.15587757
0.15605553
0.15630994
0.15659609
0.15669061
0.15670807
0.1566421
0.15661522
0.15652496
0.15646245
0.1563673
0.1563427
0.15619956
0.15612847
0.15595483
0.15589856
0.15579771
0.15570086
0.15556845
0.15540949
0.15528639
0.15510622
0.15492165
0.1548355
0.1548197
0.15478019
0.15464713
0.15460357
0.15453788
0.15449336
0.15447005
0.1544861
0.15439159
0.15427811
0.15421254
0.15412423
0.15395421
0.15382991
0.15375931
0.15368256
0.15364252
0.15353027
0.15344305
0.15335485
0.15322442
0.15302137
0.15286346
0.15271688
0.1524152
0.15195761
0.15153978
0.15092388
0.15009568
0.1493559
0.14882667
0.15162972
0.15216566
0.15290722
0.15373896
0.15437176
0.15481258
0.15526327
0.15556458
0.15571295
0.15590059
0.15608954
0.15625252
0.15631595
0.15643197
0.15652877
0.15659446
0.15664555
0.15674338
0.15684465
0.15700786
0.15710919
0.15716463
0.15733467
0.15740502
0.1574088
0.15740597
0.15744574
0.15749802
0.15754825
0.15768525
0.15773433
0.15778157
0.15783678
0.15801489
0.1582129
0.15831777
0.15849169
0.15861118
0.15871808
0.15881632
0.15887026
0.15904977
0.15912065
0.15926744
0.15929099
0.15938384
0.15945407
0.15953758
0.15956528
0.15962233
0.15960865
0.15951164
0.15921265
0.15893981
0.15876869
0.15867434
0.15892008
0.16180677
0.16158047
0.16168829
0.16186212
0.16216167
0.16245543
0.16255114
0.16256383
0.16253516
0.16250145
0.16243129
0.16234658
0.16226083
0.16221881
0.16208575
0.16199742
0.161829
0.16176064
0.1616619
0.16155736
0.16144299
0.16126603
0.16117005
0.16096325
0.16079408
0.16072999
0.16067084
0.16061498
0.16049305
0.16041654
0.16037765
0.16036304
0.16037081
0.16037807
0.16028136
0.16008881
0.16003578
0.15991764
0.15977803
0.15968364
0.15954978
0.15950762
0.15943375
0.15933968
0.15922703
0.15915178
0.15897296
0.15878606
0.1586018
0.15844068
0.15813441
0.15769601
0.15722826
0.15657838
0.15576224
0.15501403
0.15448946
0.1573768
0.15791746
0.15865743
0.15945416
0.16011004
0.16060277
0.16103072
0.16133828
0.16152684
0.16168766
0.16187723
0.16205431
0.16216817
0.16226402
0.16236122
0.16242763
0.16247098
0.1626542
0.16274597
0.16284573
0.16299665
0.1630557
0.16325112
0.16334486
0.16335721
0.16335639
0.16332513
0.16336847
0.16347568
0.16358192
0.16363357
0.16368402
0.163788
0.16396087
0.16416261
0.16426194
0.16442684
0.16455792
0.16463605
0.164725
0.16482474
0.16498294
0.16508969
0.16520791
0.16527195
0.16535869
0.1654524
0.16551468
0.16554629
0.16553808
0.16552102
0.16541967
0.16515106
0.16483357
0.16463722
0.16451286
0.16473457
0.16767206
0.16746985
0.16760931
0.16782559
0.16814594
0.16840657
0.16851541
0.16855521
0.16856009
0.1685459
0.16847318
0.16838882
0.16828768
0.16821679
0.16810066
0.16798881
0.16782652
0.1677122
0.1676333
0.16756026
0.16743243
0.16728512
0.16717594
0.16697906
0.16678596
0.16665965
0.16661835
0.16656903
0.1664638
0.16634404
0.16630644
0.16635021
0.16633986
0.16631899
0.16623543
0.16604705
0.16597827
0.16581127
0.16571725
0.16562417
0.16541167
0.16537225
0.16531409
0.16523083
0.16511556
0.16499313
0.16480777
0.16463091
0.16445519
0.16426243
0.16394921
0.16353487
0.16301764
0.16235145
0.1615563
0.16082208
0.16028156
0.16318762
0.1637374
0.16447149
0.16525962
0.1659432
0.16649457
0.16688778
0.16720543
0.16740014
0.16760588
0.16775854
0.16795001
0.16807972
0.1682303
0.16828952
0.16833654
0.1683702
0.16859715
0.16871056
0.16882063
0.16898342
0.16906329
0.169246
0.16930851
0.1693371
0.16935147
0.16932891
0.1693434
0.16946817
0.16956401
0.16961364
0.16966298
0.16979721
0.17002424
0.17020424
0.17033392
0.17045855
0.17057255
0.17065204
0.17071835
0.17084519
0.1710052
0.1711258
0.17123504
0.17131198
0.17144514
0.17150244
0.17160351
0.17158579
0.17160307
0.17153337
0.17140991
0.17115374
0.17084781
0.17060329
0.17045131
0.1706492
0.17363416
0.17345621
0.17362317
0.17387524
0.17420349
0.17444694
0.17457204
0.17465457
0.17464746
0.17466546
0.17456712
0.17450588
0.17437689
0.17429094
0.1741958
0.17405926
0.17390925
0.17376152
0.17371714
0.17360869
0.17352394
0.17340738
0.17324987
0.17307251
0.17284964
0.17271182
0.17263016
0.17259627
0.17249769
0.17238833
0.17238637
0.1723743
0.17235591
0.1723207
0.1722727
0.17210263
0.17200067
0.17184628
0.1717197
0.17161289
0.17137507
0.17132705
0.17130539
0.17123646
0.17108056
0.17092063
0.1707473
0.17058694
0.17038219
0.17016381
0.16986512
0.16946084
0.16891124
0.16820412
0.16743431
0.16669458
0.16615272
0.16913849
0.16969658
0.17043433
0.17119347
0.17191428
0.17244072
0.17287414
0.17315147
0.17339616
0.17358111
0.17376757
0.17391868
0.1741127
0.17425418
0.17435205
0.17434726
0.17440855
0.17464474
0.17474274
0.17489851
0.17503556
0.17515894
0.17532091
0.1753594
0.17539987
0.17542843
0.17547461
0.17545813
0.17554827
0.17564781
0.17568099
0.1757953
0.17593254
0.17613629
0.17631117
0.17650696
0.17661999
0.17667196
0.17682184
0.17685051
0.17701465
0.1771584
0.17730517
0.17739202
0.17747529
0.17758166
0.17765871
0.1777428
0.1777364
0.17772214
0.17763481
0.17753213
0.17728717
0.17691729
0.17666397
0.17648397
0.17665669
0.17968496
0.17953528
0.17972989
0.17999782
0.18037137
0.18061357
0.18071737
0.18080685
0.18082785
0.18083496
0.18075261
0.18067109
0.18057078
0.18050667
0.18040932
0.18026983
0.18011763
0.17995387
0.17992989
0.17977089
0.17971426
0.17960236
0.17939105
0.17921689
0.17901387
0.17887614
0.17874659
0.17870987
0.17861332
0.17854534
0.17855538
0.17851998
0.17846701
0.17844063
0.1783882
0.17823399
0.17808725
0.17795319
0.17779894
0.17768408
0.17746372
0.17740787
0.17740182
0.17730523
0.17714893
0.17695344
0.17679286
0.17661202
0.17641486
0.17617872
0.17588844
0.17545829
0.17491909
0.1742029
0.17346139
0.17272435
0.1721634
0.17518527
0.17577116
0.17649725
0.17722955
0.17793158
0.17849457
0.17890904
0.17922516
0.17944169
0.17966342
0.17982714
0.18000749
0.18019268
0.18037946
0.18045983
0.18048862
0.18053833
0.1807327
0.18088343
0.18101705
0.18115012
0.18132851
0.18146928
0.18155085
0.18154447
0.18163172
0.18164688
0.18165353
0.18169602
0.1817843
0.18182526
0.18195479
0.18210137
0.18230076
0.18248181
0.18269561
0.18281418
0.18288892
0.18304647
0.18307272
0.18322465
0.18340121
0.18351867
0.18364544
0.18367321
0.18376424
0.18385435
0.1839316
0.1839269
0.18389602
0.18380754
0.18369667
0.18346418
0.18310016
0.18281426
0.1826033
0.18274835
0.18581604
0.18568531
0.18590976
0.18621733
0.1865711
0.18680466
0.18693265
0.18701391
0.18706192
0.18705702
0.18699288
0.18688549
0.18680655
0.18678151
0.18663798
0.18653144
0.18636276
0.18621014
0.18617714
0.1860257
0.18592908
0.18580528
0.18560835
0.18541203
0.18522523
0.18506033
0.18494045
0.1848926
0.18479572
0.18476203
0.18477009
0.18474227
0.18464942
0.1846577
0.18455922
0.18442095
0.18424759
0.18411562
0.18396184
0.1838117
0.18363012
0.1835861
0.18352734
0.18345202
0.18326664
0.18308463
0.18290337
0.18274148
0.18250825
0.18229853
0.18196435
0.18155682
0.18098142
0.1802823
0.17954701
0.17880841
0.17822969
0.18127954
0.18185764
0.18261679
0.18334638
0.18405207
0.18463355
0.18503706
0.18538626
0.18558304
0.18582815
0.18599258
0.18617341
0.18636174
0.1865322
0.18660073
0.18670151
0.18673571
0.18690479
0.18705079
0.18723711
0.1873677
0.18752096
0.18765523
0.18775889
0.18777017
0.18785952
0.18791399
0.18787728
0.18790696
0.18801209
0.18808806
0.18820968
0.18838134
0.18856673
0.18876387
0.1889406
0.18905604
0.18917362
0.18931796
0.18935807
0.18952251
0.18967076
0.18976248
0.18991313
0.18996842
0.1900469
0.19016873
0.19022315
0.19023226
0.19017228
0.19009317
0.18996148
0.18969532
0.18935755
0.18903899
0.18880619
0.18894001
0.19312935
0.19305663
0.19292022
0.1928217
0.19267416
0.19251594
0.19246771
0.19233365
0.1921958
0.19208641
0.19190937
0.19170498
0.19152533
0.19134276
0.19122492
0.19113393
0.19105501
0.191027
0.1910554
0.19098111
0.190882
0.19086877
0.19076156
0.19062859
0.19047925
0.19035097
0.19014621
0.19000543
0.18984942