/*--------------------------------*- C++ -*----------------------------------*\
| =========                 |                                                 |
| \\      /  F ield         | OpenFOAM: The Open Source CFD Toolbox           |
|  \\    /   O peration     | Version:  v2012                                 |
|   \\  /    A nd           | Website:  www.openfoam.com                      |
|    \\/     M anipulation  |                                                 |
\*---------------------------------------------------------------------------*/
FoamFile
{
    version     2.0;
    format      ascii;
    class       volScalarField;
    location    "200";
    object      nut;
}
// * * * * * * * * * * * * * * * * * * * * * * * * * * * * * * * * * * * * * //

dimensions      [0 2 -1 0 0 0 0];


internalField   nonuniform List<scalar> 
75385
(
0.023875967
0.023507348
0.023137092
0.022764902
0.022391468
0.022016714
0.021641391
0.021265457
0.020889636
0.020513883
0.020138885
0.019764594
0.019391633
0.019019944
0.018650122
0.018282104
0.017916429
0.017553013
0.017192326
0.016834252
0.01647914
0.016126853
0.015777785
0.015431873
0.015089495
0.014750581
0.01441548
0.014084116
0.013756765
0.013433307
0.013113945
0.012798433
0.012486826
0.012178567
0.011874264
0.011572967
0.011276715
0.010983646
0.01069555
0.010416203
0.010171122
0.01008115
0.010010862
0.010154044
0.010147953
0.010334825
0.010325291
0.010471676
0.010376935
0.010462268
0.010331988
0.010396451
0.010261589
0.010338765
0.010147942
0.010043343
0.0096888299
0.0094224033
0.008803319
0.0081535788
0.0071243358
0.0060075922
0.0048636781
0.0038236641
0.002909881
0.0025493459
0.0024710285
0.0027947788
0.0028732792
0.0031582225
0.0032258058
0.0034619041
0.0034916013
0.0037162248
0.0037032135
0.0038494402
0.0037935811
0.0039430025
0.0038779466
0.0040439191
0.0040103854
0.0042015473
0.0041621239
0.0042943621
0.0042030023
0.0043033355
0.0042021722
0.004284896
0.0041770952
0.0042768047
0.0041823582
0.0043029121
0.0042509797
0.0043840862
0.0043378906
0.0044772387
0.0044361389
0.0045751807
0.0045020834
0.0045426048
0.0043120917
0.0041322323
0.0036332085
0.0030998295
0.0025793341
0.0020654277
0.0021209305
0.0030481073
0.0044050375
0.0055988315
0.0066714722
0.0074606301
0.0082439626
0.0087543333
0.009273672
0.0094472148
0.0096529277
0.0096098169
0.0096537652
0.0094339466
0.009301166
0.009212219
0.0092047731
0.0092467322
0.009267364
0.0092540508
0.009346867
0.0094840961
0.0096092571
0.0097250382
0.0098179214
0.0098653544
0.0098924062
0.009908596
0.0099020952
0.0099095174
0.0098846799
0.0098837618
0.0098515261
0.0098325608
0.0097979739
0.0097935452
0.0097172062
0.0096236204
0.0094665124
0.0092594502
0.0090959722
0.0090211561
0.0090753396
0.0090895719
0.0090356578
0.0090638714
0.0091671881
0.009240103
0.0093090236
0.0093238567
0.0093537154
0.0093760413
0.0093896606
0.0093899476
0.0093900467
0.0093666216
0.0093745441
0.0093690027
0.009377912
0.0093662292
0.0093799173
0.0093909348
0.0094053446
0.009394572
0.0094071001
0.0093962955
0.0094233246
0.0094229244
0.0094170467
0.0094105762
0.0094020065
0.0093928972
0.0093842398
0.0093672909
0.0093745043
0.0093789595
0.0094158939
0.0094428243
0.0094589874
0.0094525353
0.0094608016
0.0094853472
0.0094897131
0.0094954644
0.0095042149
0.0095051114
0.0095124628
0.0095172555
0.0095203618
0.0095303366
0.0095332475
0.00953734
0.0095530096
0.0095817206
0.0096165487
0.0096373133
0.0096240061
0.0096405675
0.0097181712
0.00981194
0.0099338481
0.010184845
0.01006821
0.0099801275
0.0099012842
0.0098897482
0.0099023089
0.009882583
0.009848847
0.0098180119
0.0098041329
0.009798431
0.0097974476
0.0097853242
0.0097840847
0.0097771933
0.0097713741
0.0097686887
0.009761511
0.0097538635
0.0097515889
0.0097247329
0.0097186201
0.0097230614
0.0097081792
0.0096794606
0.0096437129
0.0096379591
0.0096319181
0.0096478821
0.009659519
0.0096658523
0.0096773479
0.0096809942
0.0096897013
0.0096873422
0.0096616608
0.0096707191
0.0096601506
0.0096693636
0.0096571788
0.0096437091
0.0096321302
0.0096418123
0.0096347303
0.0096380896
0.0096320178
0.0096535065
0.0096555219
0.0096520158
0.0096401174
0.0096145329
0.0095872415
0.0095698995
0.0095044836
0.0094254948
0.0093253225
0.009290841
0.0093505866
0.0093269779
0.0096081509
0.009896844
0.010190029
0.01048681
0.01078816
0.011093501
0.011403589
0.01171768
0.012036662
0.012360064
0.012688292
0.013020912
0.013357636
0.013698365
0.014042999
0.014391471
0.014743663
0.015099646
0.015458964
0.015821665
0.016187227
0.016555599
0.016926209
0.017299504
0.017674421
0.018051802
0.018431683
0.018812768
0.019195289
0.019579317
0.019964856
0.02035044
0.02073643
0.021122875
0.021509311
0.021894448
0.022277956
0.022658735
0.023037831
0.02341362
0.023786454
0.024156245
0.024522362
0.02488441
0.02524171
0.025594016
0.025940751
0.026281575
0.02661593
0.026944649
0.026914263
0.026586981
0.026252513
0.025912567
0.025567104
0.025215549
0.024859333
0.024497812
0.024132433
0.023763297
0.023391718
0.023016322
0.022637495
0.022256883
0.021872646
0.021485563
0.021098105
0.020712914
0.020329095
0.01994514
0.019560918
0.01917848
0.018798064
0.018418625
0.018040063
0.017664369
0.017291507
0.016919598
0.01654903
0.016180626
0.015815665
0.015453542
0.015095327
0.014740341
0.014389174
0.014041888
0.013698011
0.013358095
0.013022128
0.012690565
0.012364264
0.01204482
0.011729897
0.011420206
0.011113671
0.010812013
0.010514637
0.010220514
0.009928077
0.00963907
0.0095737425
0.009611703
0.0097119649
0.0097960807
0.0098611893
0.0098817117
0.0099068061
0.0099360059
0.0099460266
0.0099530942
0.0099488233
0.0099293463
0.0099335063
0.0099325696
0.0099376644
0.0099301527
0.0099394298
0.0099556289
0.0099653063
0.0099577525
0.0099661137
0.0099589596
0.0099831235
0.0099885036
0.0099766609
0.0099761846
0.0099614115
0.0099582099
0.0099433967
0.009929697
0.0099332322
0.0099415181
0.009974743
0.010006756
0.010018994
0.01001806
0.010020534
0.010051241
0.010049894
0.010060878
0.01006506
0.010071051
0.010073978
0.010084474
0.010082402
0.010098112
0.010095653
0.010104314
0.01011488
0.010149399
0.010180319
0.010197873
0.010184756
0.010192077
0.010272005
0.010356381
0.01047192
0.010763812
0.010651102
0.010570112
0.010491146
0.010484962
0.010499034
0.010485939
0.01045241
0.010419734
0.010407004
0.010401012
0.010401468
0.010387746
0.010387624
0.010378957
0.01037332
0.010369531
0.010362794
0.010353999
0.010353582
0.010324322
0.010319976
0.010322909
0.010307918
0.010278047
0.01024178
0.010236669
0.01023006
0.010247039
0.010262651
0.010265408
0.010280901
0.010280676
0.010293178
0.01028734
0.010262058
0.01027001
0.010261229
0.010269814
0.010260152
0.010243833
0.010234229
0.010242297
0.010236506
0.010237652
0.010232616
0.010252892
0.010256761
0.01024865
0.010237952
0.010207627
0.010181911
0.010160468
0.010092856
0.010006922
0.0099038817
0.0098657978
0.010160181
0.01020046
0.010306249
0.010394278
0.010463901
0.010486663
0.010512672
0.01054457
0.010555503
0.010565226
0.010561598
0.010540515
0.010546447
0.010545165
0.010551625
0.010542988
0.010552863
0.010569403
0.010578598
0.010569212
0.010578122
0.0105696
0.010595672
0.010602485
0.010588949
0.01059022
0.010573737
0.010571795
0.010555728
0.010534679
0.010544932
0.010546168
0.010586001
0.01061331
0.010631387
0.010625939
0.010632897
0.010660181
0.010662714
0.010668826
0.010678638
0.010679751
0.010688697
0.010695108
0.01069812
0.010709079
0.010711032
0.01071379
0.01072912
0.010759568
0.010796257
0.010806431
0.010789641
0.01079662
0.010873089
0.010948871
0.011060257
0.01135789
0.011249814
0.011177949
0.011105436
0.011097229
0.011115996
0.011106788
0.011069138
0.011038783
0.01102302
0.01102147
0.011019291
0.011009112
0.011004738
0.010998909
0.010988672
0.010988093
0.010977291
0.010971794
0.010969382
0.010941851
0.01093378
0.010940173
0.010921158
0.010894346
0.010852939
0.01085385
0.010841866
0.010864724
0.010880046
0.010881435
0.010898409
0.010896469
0.010910337
0.010903305
0.010876191
0.010885677
0.010876251
0.010886879
0.010877938
0.010861601
0.010851015
0.010860712
0.010853118
0.010854947
0.010847218
0.010869939
0.010872447
0.010861746
0.010850194
0.010817282
0.010790751
0.010767039
0.010695117
0.010605401
0.010496703
0.010456181
0.01075445
0.010795569
0.010908888
0.010998579
0.011074526
0.011097457
0.011126546
0.011157897
0.011172493
0.011182127
0.011182081
0.011156336
0.011167323
0.011163596
0.011173726
0.011161568
0.011174236
0.011188995
0.011199452
0.011185661
0.011197514
0.011185198
0.011215064
0.011220378
0.011207382
0.011208728
0.01119269
0.011190388
0.011177261
0.011152003
0.011167057
0.011162463
0.011206674
0.011231772
0.011252917
0.011244244
0.011254082
0.011280872
0.011284776
0.011287954
0.011301466
0.011299929
0.011313567
0.011317243
0.011323594
0.011331791
0.011335888
0.011334501
0.011352365
0.011381389
0.011421049
0.011428079
0.011408196
0.01141788
0.011485587
0.011554039
0.011661011
0.011965913
0.011861689
0.011796695
0.011734097
0.011722519
0.011744071
0.011738852
0.011699999
0.01166986
0.011651755
0.011654223
0.011650024
0.011644927
0.01163426
0.011632335
0.011617047
0.011618692
0.011604294
0.011601572
0.01159805
0.011572809
0.011558796
0.011569439
0.011548799
0.011522937
0.011478403
0.011484551
0.011468595
0.011496467
0.011504683
0.011510399
0.011523019
0.011524626
0.011534268
0.01153053
0.011500508
0.011513393
0.011501441
0.011516044
0.01150643
0.011493714
0.011478394
0.011493534
0.011480344
0.01148655
0.011469853
0.011500999
0.011496114
0.011487253
0.011472466
0.011440122
0.011410651
0.011386043
0.011308328
0.011216375
0.011100623
0.011060843
0.011371377
0.011412915
0.011529302
0.011625192
0.011702741
0.011731107
0.011758955
0.011790039
0.011806856
0.011814193
0.011825654
0.011789428
0.011811696
0.011804394
0.01181926
0.011802541
0.01181943
0.011830933
0.011838078
0.011823887
0.011834562
0.011823159
0.011851674
0.01185182
0.011847221
0.011843894
0.011833758
0.011825567
0.01182147
0.011792816
0.011808017
0.011801101
0.011844299
0.011872426
0.011891295
0.011877228
0.011897165
0.011924105
0.011924037
0.011929256
0.011941166
0.01194281
0.011956065
0.011955544
0.011972495
0.011977163
0.011978335
0.011977651
0.011992815
0.012025366
0.012062114
0.012063924
0.012041422
0.012053888
0.012111599
0.012173118
0.012276459
0.012588972
0.012488492
0.012430238
0.012377208
0.012364138
0.012387874
0.012387957
0.012354559
0.01231951
0.012303964
0.012306031
0.01230399
0.012300976
0.012283254
0.012286667
0.012269027
0.01226717
0.012254258
0.012249917
0.012249701
0.012222134
0.012199903
0.012216777
0.012199733
0.012168987
0.012127747
0.012135288
0.012121222
0.012147186
0.012148879
0.012157977
0.012167777
0.012170495
0.012173032
0.012175602
0.012150202
0.01215924
0.012150112
0.012163477
0.012158937
0.012145627
0.012130557
0.012145354
0.012132306
0.012137692
0.012115851
0.01215146
0.012138591
0.012133304
0.012111199
0.012085106
0.012056082
0.012023006
0.011946343
0.011845802
0.011729431
0.01168478
0.012001325
0.012050756
0.012167117
0.012272359
0.012348272
0.012385798
0.012416586
0.012436456
0.012465925
0.012469899
0.012482014
0.012446988
0.012467905
0.012464077
0.012475521
0.012462378
0.012475427
0.012492061
0.012493685
0.012482247
0.012488754
0.012481918
0.012502675
0.01249795
0.012498209
0.012494438
0.012486993
0.012475195
0.012476864
0.012454236
0.012466762
0.012459955
0.012498357
0.01253274
0.012547446
0.012526976
0.012551593
0.012578179
0.012579684
0.012582365
0.012597983
0.012598147
0.012623221
0.012618657
0.012633622
0.01263366
0.012637735
0.012633404
0.012650362
0.012688849
0.012716652
0.012715578
0.012690902
0.01270525
0.012752834
0.012807892
0.012907384
0.013228
0.01313143
0.013079322
0.013033773
0.013024278
0.013050561
0.013049136
0.013023766
0.012988137
0.012969526
0.012976654
0.012967909
0.012972959
0.012958282
0.012959975
0.012933888
0.012933099
0.012915196
0.01291654
0.01291098
0.012885284
0.012860916
0.012882119
0.012865604
0.012831133
0.012793104
0.012804957
0.012791846
0.012810546
0.012805895
0.012820225
0.012827212
0.012830005
0.012829477
0.012833769
0.012818112
0.012822057
0.012814776
0.012827604
0.012825941
0.01281145
0.012798013
0.012809173
0.012799653
0.012801791
0.012782469
0.012815561
0.012804524
0.012798825
0.012768193
0.012752504
0.012719084
0.012677066
0.012602094
0.012492165
0.012376873
0.012323843
0.012649712
0.01270748
0.012821685
0.012935379
0.013009989
0.013055651
0.013093166
0.013107623
0.013136515
0.01314469
0.01315375
0.013122278
0.013140869
0.013140821
0.013147918
0.013139041
0.013152871
0.013164588
0.013165959
0.013150096
0.01316041
0.013158518
0.013171364
0.01316502
0.013167139
0.013168881
0.01315854
0.013140748
0.013149132
0.013133848
0.013148766
0.013130532
0.01316866
0.013200596
0.013222006
0.013202684
0.013224945
0.013247829
0.01325925
0.013254434
0.013273735
0.01327692
0.013301044
0.013302249
0.0133179
0.013308196
0.013321627
0.013313338
0.013331972
0.01336357
0.013387852
0.01338858
0.013363516
0.013366957
0.013409854
0.013459139
0.013554689
0.013883469
0.013791158
0.013744672
0.013702974
0.013703221
0.01372958
0.013730248
0.013706109
0.013676189
0.013661053
0.013667107
0.013655566
0.013663235
0.013650246
0.013645437
0.01362399
0.013618164
0.013601052
0.013602908
0.013591669
0.013568919
0.013549201
0.013565847
0.013542081
0.013510378
0.013475178
0.013493276
0.013479989
0.013491819
0.013480176
0.013503798
0.013510899
0.013507645
0.013505424
0.013512492
0.013502739
0.013503007
0.013492061
0.013511619
0.013506364
0.013494689
0.013479952
0.013490471
0.013482212
0.013483732
0.013466447
0.013495502
0.013484522
0.013477678
0.013451105
0.013438636
0.013398178
0.013350652
0.013274958
0.013158869
0.013043403
0.012985019
0.013323185
0.013383168
0.013500047
0.013613446
0.013694668
0.013739559
0.013786939
0.013798731
0.013823163
0.013826577
0.013841669
0.013814826
0.013831049
0.013826034
0.013837441
0.013823286
0.013840614
0.013850183
0.01386326
0.013841886
0.013850253
0.01385176
0.013858274
0.013849444
0.013853057
0.013855003
0.013854867
0.013825841
0.013839527
0.013830412
0.013841988
0.013824515
0.01385691
0.013887109
0.013914293
0.013900529
0.013917453
0.013939344
0.013950972
0.013952364
0.013966658
0.013975538
0.013994215
0.014002354
0.014012368
0.014006804
0.014016187
0.014012431
0.014024005
0.014051324
0.014077228
0.014074278
0.014046502
0.01404176
0.014083346
0.0141269
0.014218229
0.014554892
0.014466604
0.014426173
0.014386658
0.014396703
0.014423064
0.014427939
0.01440084
0.014378265
0.014367448
0.01436828
0.014361513
0.014364624
0.014358726
0.014346215
0.014331367
0.014318368
0.014308016
0.014302385
0.014291912
0.014272716
0.01425635
0.014266223
0.0142369
0.014206963
0.014178167
0.014194226
0.014185195
0.014191245
0.014178772
0.014205972
0.014204798
0.014201922
0.014198701
0.014207508
0.014201079
0.014204043
0.014195666
0.014214561
0.01419956
0.014190603
0.014173038
0.014191786
0.014176232
0.014185198
0.014167406
0.014191765
0.014172823
0.014175349
0.014150681
0.01413911
0.014083018
0.014042136
0.013954356
0.013845309
0.013726573
0.013668073
0.014014308
0.01407396
0.014194935
0.014298839
0.014395177
0.014432339
0.01449604
0.014506334
0.014533039
0.014524877
0.014546561
0.014523765
0.014545117
0.014533902
0.01455248
0.014530537
0.014546366
0.014557203
0.014569696
0.014553574
0.014563555
0.014554691
0.01456131
0.014550694
0.014556008
0.014562942
0.014561289
0.014536306
0.014547732
0.014543674
0.014551164
0.014535426
0.014561593
0.014590142
0.014622881
0.014616289
0.014633958
0.014651773
0.014658598
0.014667329
0.014674381
0.014690804
0.01470249
0.014718722
0.014721213
0.014721361
0.014724738
0.014727461
0.014738135
0.014755827
0.014784
0.01477528
0.014752794
0.014738582
0.014773189
0.014810144
0.014897472
0.015241623
0.015157397
0.015123675
0.015093473
0.015109128
0.01513112
0.015142957
0.015117327
0.015098119
0.015086814
0.015084327
0.015080458
0.015080633
0.015082236
0.015061697
0.015053755
0.01503336
0.015030172
0.015017804
0.01501483
0.014995036
0.01498005
0.014982821
0.014948299
0.014919573
0.014896248
0.014911475
0.014905783
0.014907604
0.014897945
0.014919688
0.014920343
0.014912974
0.014905507
0.01491892
0.014911086
0.014923357
0.014915252
0.014927714
0.014913645
0.014905127
0.014891592
0.014913038
0.014894676
0.014904835
0.014883558
0.014905129
0.014883836
0.014890813
0.01486522
0.014852407
0.014788298
0.01474894
0.014649105
0.014548489
0.014425687
0.01436642
0.014721546
0.014780604
0.014907206
0.015006624
0.015106643
0.015147815
0.015212583
0.015227572
0.015251997
0.015246902
0.015267911
0.015246788
0.015267781
0.015259146
0.015276899
0.015256482
0.015267192
0.015271926
0.015289468
0.015280768
0.01528656
0.015269726
0.015281228
0.015263954
0.015273907
0.015279829
0.015282003
0.015263363
0.015271072
0.015272577
0.015275497
0.015261775
0.015281939
0.015309749
0.015347227
0.015347596
0.015358656
0.015382386
0.015380238
0.015397348
0.01539551
0.015421022
0.01542402
0.01545005
0.01544344
0.0154411
0.015447401
0.015447777
0.015460879
0.015483822
0.015504247
0.015490135
0.015468225
0.015453097
0.015477565
0.015508264
0.015591445
0.015942463
0.015862671
0.015835081
0.015812614
0.015833691
0.015855217
0.015868574
0.015850223
0.0158302
0.015814801
0.015817417
0.015805546
0.015812258
0.015817784
0.015792034
0.015788201
0.015763415
0.015764451
0.015748455
0.015749851
0.015728134
0.015719235
0.015714562
0.015675464
0.015647511
0.01562736
0.015645842
0.015639503
0.015640613
0.015632667
0.015647712
0.015645428
0.01563861
0.015628575
0.015647547
0.015634231
0.015656215
0.015650132
0.015654485
0.015633775
0.015635455
0.015625023
0.015643006
0.015627053
0.015632927
0.015613414
0.015633096
0.015613413
0.015615336
0.015593364
0.015575034
0.01551066
0.015466659
0.015367291
0.015265085
0.015138224
0.015077665
0.015434851
0.015499208
0.01562578
0.015731339
0.015830202
0.015876447
0.015940914
0.015962255
0.01598201
0.015982991
0.016001886
0.01598316
0.016001584
0.015998092
0.016012623
0.015996608
0.016008678
0.016000742
0.016023362
0.016022829
0.016031217
0.016005948
0.016019083
0.016000372
0.016008235
0.016017775
0.016017765
0.016004827
0.016014775
0.01600931
0.01602105
0.015996058
0.016017833
0.016047691
0.016085843
0.016093782
0.016102371
0.016120724
0.016121351
0.016135033
0.016135967
0.016158846
0.016164609
0.016188893
0.016185728
0.01617516
0.01619306
0.016189101
0.016204922
0.016219404
0.01623885
0.016226825
0.0162041
0.016175101
0.016195783
0.016220488
0.016298846
0.016656012
0.01658164
0.016559992
0.016543618
0.016573555
0.016600869
0.016611669
0.01659435
0.016579023
0.016566087
0.016568199
0.016550953
0.016558781
0.016561664
0.016536752
0.016531569
0.016508242
0.016507702
0.016494013
0.016493578
0.016475693
0.016470935
0.01645933
0.016422924
0.016391384
0.016371319
0.016396338
0.016385201
0.016388136
0.016379493
0.016390365
0.016393252
0.016380631
0.016375795
0.016393267
0.016380437
0.016405243
0.016398613
0.016395106
0.016374115
0.016381151
0.016371115
0.016384645
0.0163724
0.016372671
0.016356058
0.016373282
0.01635581
0.016351024
0.016334475
0.016309242
0.016245362
0.016196286
0.016098791
0.01598901
0.015863815
0.015796976
0.01616017
0.016231063
0.016355441
0.016468733
0.016565461
0.016616449
0.016680559
0.016709054
0.016722932
0.016730916
0.016747924
0.016731874
0.016746849
0.01674913
0.016759675
0.016747933
0.016755978
0.016750421
0.016769822
0.0167768
0.016781439
0.016758011
0.016770372
0.016754912
0.016755844
0.016772958
0.01676565
0.016757977
0.016764012
0.016764662
0.016774428
0.016750209
0.016767362
0.016802484
0.016835778
0.016852423
0.016851019
0.01686739
0.01686881
0.01688144
0.016882605
0.01690536
0.016910875
0.016935481
0.016933982
0.01693021
0.01694553
0.016946131
0.016955104
0.016973538
0.016986846
0.016979409
0.016945185
0.016915651
0.016926932
0.016945507
0.017017931
0.017380294
0.017312067
0.017296771
0.017290648
0.017318626
0.017356171
0.017363561
0.017351887
0.01733645
0.017329359
0.017324852
0.017312631
0.01731157
0.017312109
0.017290863
0.017284064
0.017262925
0.017260066
0.01724961
0.017245973
0.017231693
0.017232376
0.017213923
0.017181337
0.017148818
0.017132293
0.017154714
0.017147273
0.017142004
0.017135715
0.017146151
0.017151936
0.017136399
0.017137367
0.017149765
0.017138449
0.017159457
0.017157339
0.017146179
0.017128939
0.017132501
0.01712699
0.017136545
0.017128159
0.01712309
0.017110618
0.017123951
0.017108175
0.017095868
0.017085919
0.017053023
0.016989612
0.016935912
0.016841031
0.016723266
0.016601008
0.016527289
0.016894991
0.016974623
0.017093677
0.017216859
0.017308814
0.017366034
0.01742779
0.017466385
0.01747124
0.01748889
0.017502457
0.017491932
0.017502269
0.017510805
0.017515966
0.017509608
0.017511458
0.017510948
0.017524843
0.0175417
0.01753992
0.017521388
0.017532016
0.017522554
0.017521085
0.017533357
0.017530301
0.017515515
0.017522823
0.017532206
0.017537653
0.017516895
0.017534465
0.017561887
0.017594569
0.017612481
0.017616733
0.017632356
0.017635707
0.017646566
0.017648486
0.017670676
0.017675812
0.017693928
0.017692209
0.017697371
0.01770685
0.017714649
0.017721693
0.017731794
0.017742672
0.017733097
0.017694301
0.017667919
0.017668951
0.017680762
0.017747535
0.018114907
0.018051855
0.018043218
0.018047251
0.018072106
0.018112321
0.018123711
0.018116771
0.018105275
0.018101686
0.01809041
0.018084358
0.018075145
0.01807756
0.018059164
0.018054873
0.01803204
0.018030585
0.01801986
0.018016218
0.018000228
0.017994635
0.017977194
0.017947601
0.017918794
0.017903748
0.017922152
0.017919272
0.017905987
0.017901226
0.017913326
0.017915588
0.017904174
0.017910338
0.017916171
0.017906935
0.017921872
0.01792394
0.017904683
0.017891
0.017891792
0.017890331
0.01789693
0.017891621
0.017883179
0.017875914
0.017882523
0.017867357
0.017847862
0.017844701
0.017803794
0.017740429
0.01768316
0.017591016
0.017465667
0.017347218
0.01726681
0.01763825
0.01771961
0.017839815
0.017964604
0.018059586
0.01811431
0.018181708
0.018222611
0.018225675
0.018245274
0.018264281
0.018262046
0.018265972
0.018272033
0.018280064
0.018270666
0.01827418
0.01827069
0.018286442
0.018305884
0.018305415
0.018294196
0.018302893
0.018300188
0.018288824
0.018297869
0.01829745
0.018289323
0.018290794
0.018309016
0.018308597
0.018292623
0.018304144
0.018336692
0.018362355
0.0183783
0.018384467
0.018399516
0.018404549
0.018414086
0.018416069
0.018438635
0.018443422
0.018461291
0.018459482
0.018474086
0.01847536
0.018491288
0.018489553
0.018504984
0.018507067
0.018493069
0.018451511
0.018429422
0.018419299
0.018425193
0.018486891
0.018858561
0.018800584
0.018797506
0.018809882
0.018835653
0.01887899
0.01889165
0.01889142
0.018877955
0.018879248
0.018864567
0.018862239
0.018848605
0.018848975
0.018832724
0.018826302
0.018805064
0.018801471
0.018794234
0.018786571
0.018773699
0.018764025
0.018748629
0.01872407
0.018693889
0.018683882
0.018696037
0.01869695
0.018679725
0.018679194
0.01868301
0.01868214
0.018678651
0.018692297
0.018691065
0.018683074
0.018690461
0.018689751
0.018669938
0.018654654
0.018658716
0.018655313
0.018665426
0.018656597
0.01865358
0.018650562
0.018647655
0.018625201
0.018608479
0.018602322
0.018561412
0.01849238
0.018438132
0.01834193
0.018216082
0.018096134
0.018017017
0.018398123
0.018479625
0.018595735
0.01872581
0.01881935
0.018875713
0.018943781
0.018982855
0.018994888
0.01900815
0.019032737
0.019040146
0.019044933
0.019046426
0.019053868
0.019044825
0.019045909
0.019044099
0.019056425
0.019074773
0.019077119
0.019074637
0.019080435
0.019086963
0.019071323
0.019070454
0.019070371
0.019071644
0.019071478
0.019086227
0.019084593
0.019076235
0.019086731
0.019112925
0.01913684
0.019150687
0.01916663
0.019180328
0.019187949
0.019195874
0.019198294
0.019220955
0.019226295
0.019243656
0.019241249
0.019251719
0.019256654
0.019268539
0.019269157
0.019279197
0.019277561
0.019265502
0.019223303
0.019191935
0.01917722
0.019177834
0.019234389
0.019609347
0.01955693
0.019558744
0.01957433
0.019608468
0.01965193
0.019664229
0.019667224
0.019658298
0.019658133
0.019646839
0.019641435
0.019631185
0.01963467
0.019616673
0.019611846
0.019588266
0.019586347
0.019578277
0.019570352
0.019556987
0.019538457
0.019526622
0.019502404
0.019476972
0.019469367
0.019474123
0.019475784
0.019460404
0.01946072
0.019458703
0.019460191
0.019465467
0.019479141
0.019473894
0.019463526
0.019464822
0.019461199
0.019443914
0.019435493
0.019433592
0.019435316
0.019442705
0.019436712
0.019433348
0.019430288
0.019418752
0.019395388
0.019379528
0.019366905
0.019327404
0.01926079
0.019201448
0.019107041
0.018976082
0.018860873
0.018779492
0.019158755
0.019241143
0.019356519
0.019487291
0.019584393
0.019647631
0.019712463
0.019751547
0.019764491
0.019785073
0.019805474
0.019822119
0.01982087
0.019828823
0.019831729
0.019828445
0.019821922
0.019828388
0.019832606
0.019848122
0.019853806
0.019850473
0.01986985
0.019870702
0.019860308
0.019850855
0.019848474
0.019847847
0.019848748
0.019864258
0.019864127
0.019864568
0.019867067
0.019891126
0.019918048
0.019926775
0.019947516
0.019958434
0.019968053
0.019975329
0.01997707
0.020001116
0.020006002
0.020024151
0.020020677
0.02003031
0.020036941
0.020046915
0.020047212
0.020054314
0.020051799
0.020038876
0.019993616
0.019956101
0.019941165
0.01993689
0.019987884
0.020364968
0.020317828
0.020324832
0.02034082
0.020382889
0.020426936
0.020439854
0.020442466
0.020440277
0.020439099
0.020431397
0.02042258
0.020414267
0.020414553
0.020399135
0.020391284
0.020369614
0.02036526
0.020358255
0.020349068
0.020339151
0.020318375
0.020310915
0.020283078
0.020260732
0.020256508
0.020254311
0.020253427
0.020240924
0.020235665
0.020238714
0.020245371
0.020255435
0.020267784
0.020262815
0.020240405
0.020244239
0.020236044
0.020224992
0.020222172
0.020209881
0.020218172
0.020220488
0.020218411
0.020211423
0.020210611
0.0201919
0.020172299
0.020152713
0.020137677
0.02009797
0.020035848
0.019968104
0.019868432
0.019741091
0.01962479
0.019544387
0.019931328
0.020014351
0.020128966
0.020252455
0.020352772
0.020424406
0.020484317
0.020523807
0.020543359
0.020558888
0.020578545
0.020596322
0.020603444
0.020607399
0.020609664
0.020605725
0.02059745
0.02061742
0.020619438
0.020623617
0.020636733
0.020633877
0.020656109
0.020660104
0.020650993
0.020642226
0.020628101
0.020625687
0.020635659
0.020645315
0.020645435
0.020646035
0.020656772
0.020679396
0.020705904
0.020714176
0.020732583
0.020745054
0.020749984
0.020754973
0.020764583
0.020784189
0.020794929
0.020807651
0.020810829
0.020819123
0.020829152
0.020835534
0.020836271
0.020832443
0.020828865
0.020814746
0.020774985
0.020729843
0.020709648
0.02069947
0.020745127
0.021123191
0.021081377
0.021094459
0.021118362
0.021163962
0.021202436
0.021217904
0.021225481
0.021228646
0.021230966
0.021222816
0.021214679
0.0212041
0.021200009
0.02118783
0.021176451
0.021156572
0.021144673
0.021141621
0.021137277
0.021125643
0.021110547
0.021100304
0.021075173
0.02104952
0.021035439
0.021036231
0.021036556
0.021027309
0.021015778
0.021019421
0.021035102
0.021042058
0.021049989
0.021047956
0.021027545
0.021028729
0.021013683
0.021010467
0.021008556
0.020984529
0.020993621
0.020999145
0.020999566
0.020992553
0.020984443
0.020965703
0.0209486
0.020930656
0.020910746
0.020870541
0.020813333
0.020737965
0.020636326
0.020513782
0.020400438
0.020317538
0.020700664
0.020784798
0.020897848
0.0210184
0.021122444
0.021202933
0.021256278
0.02129679
0.021316921
0.021339573
0.021352395
0.02137154
0.021380628
0.02139307
0.021388452
0.021380936
0.021370899
0.021396429
0.021401292
0.021406917
0.021420691
0.021421264
0.021440179
0.0214386
0.021431807
0.021425379
0.021413485
0.021405962
0.021417873
0.021425273
0.0214249
0.02142558
0.021440667
0.02147132
0.021493318
0.021506912
0.021518116
0.02152724
0.021532882
0.021533603
0.021547485
0.021566551
0.021579194
0.021590032
0.02159498
0.021610422
0.02161405
0.021626594
0.021619093
0.021619382
0.021606853
0.021588867
0.021551212
0.021507772
0.021478892
0.021463307
0.021503683
0.021881426
0.021844913
0.021863307
0.021893656
0.021940934
0.021976541
0.021994833
0.022009426
0.022011097
0.022018449
0.022006768
0.022002414
0.021988149
0.021981958
0.021973463
0.021958552
0.021941442
0.021924383
0.021927321
0.021916874
0.021912639
0.021902837
0.021884861
0.021863557
0.021834237
0.021818822
0.021812911
0.021815987
0.021808241
0.02179934
0.021808818
0.02181502
0.021820846
0.021826801
0.021830737
0.021814476
0.021810434
0.021798653
0.021790497
0.021787131
0.021760718
0.021768394
0.021780108
0.021783245
0.021770553
0.021756833
0.021741184
0.021727191
0.021705146
0.02168129
0.021644228
0.021589287
0.021509785
0.021402532
0.021285741
0.021172115
0.021089563
0.02147765
0.021562516
0.021675346
0.021789783
0.021898498
0.021973786
0.022032976
0.02206641
0.02209421
0.022112834
0.022130762
0.02214247
0.02216119
0.022171105
0.02217229
0.022156482
0.022150789
0.022175992
0.022177812
0.022190378
0.022198895
0.022206069
0.02222051
0.022215103
0.022209734
0.022205428
0.022204608
0.022192278
0.022197799
0.022205357
0.022202273
0.022213199
0.022228306
0.022254146
0.022274786
0.022298545
0.022307581
0.022306668
0.022323498
0.022318068
0.022337428
0.022353251
0.022369391
0.022376566
0.022382195
0.022392624
0.022399415
0.022408559
0.022403074
0.022397865
0.022382402
0.022367547
0.022331553
0.022277727
0.02224677
0.022225896
0.022260876
0.022636942
0.022606198
0.0226297
0.022663434
0.022717529
0.022753271
0.022768485
0.022784365
0.022790714
0.022796359
0.022787705
0.022780377
0.02277107
0.022768682
0.022759736
0.022745293
0.022728284
0.022709487
0.022715364
0.022697633
0.022697495
0.022688795
0.022663089
0.022642767
0.022617452
0.022602421
0.022589519
0.022591964
0.022585163
0.022583427
0.02259459
0.02259723
0.022597683
0.022605593
0.022608655
0.022596035
0.022585493
0.022577817
0.022565976
0.022561625
0.022539778
0.022546539
0.022560189
0.022559797
0.022547766
0.02252957
0.022516448
0.022499925
0.02247932
0.022453437
0.022417858
0.022359951
0.022282886
0.022175874
0.022064778
0.02195257
0.021867646
0.022252797
0.022341205
0.02245112
0.022560234
0.022664114
0.022744441
0.022799292
0.022838807
0.022861294
0.022885636
0.022899136
0.022915125
0.02293106
0.022947509