/*--------------------------------*- C++ -*----------------------------------*\
| =========                 |                                                 |
| \\      /  F ield         | OpenFOAM: The Open Source CFD Toolbox           |
|  \\    /   O peration     | Version:  v2012                                 |
|   \\  /    A nd           | Website:  www.openfoam.com                      |
|    \\/     M anipulation  |                                                 |
\*---------------------------------------------------------------------------*/
FoamFile
{
    version     2.0;
    format      ascii;
    class       volScalarField;
    location    "200";
    object      omega;
}
// * * * * * * * * * * * * * * * * * * * * * * * * * * * * * * * * * * * * * //

dimensions      [0 0 -1 0 0 0 0];


internalField   nonuniform List<scalar> 
75385
(
7.9417438
7.9352914
7.9300609
7.9260801
7.9233342
7.9218356
7.9215593
7.9225105
7.9246575
7.928001
7.9325037
7.9381625
7.9449364
7.9528194
7.9617666
7.9717693
7.9827804
7.9947898
8.0077502
8.0216517
8.0364523
8.052145
8.068686
8.0860636
8.1042312
8.1231752
8.1428471
8.1632297
8.1842704
8.2059379
8.2281548
8.2508419
8.2738902
8.2971876
8.3208136
8.344628
8.3696881
8.3955197
8.4243061
8.4536154
8.4813361
8.5055944
8.5397318
8.512697
8.5437826
8.5110743
8.5433674
8.5222916
8.5811224
8.5808792
8.6580866
8.6782987
8.7764671
8.8183859
8.9603851
9.0946477
9.3380994
9.5926198
10.00939
10.504797
11.208995
12.059576
13.036776
14.039604
14.954532
15.313426
15.309859
14.933303
14.664243
14.278396
13.959135
13.630953
13.4192
13.193802
13.089994
12.954041
12.923312
12.82363
12.83318
12.746737
12.758314
12.669881
12.686847
12.624618
12.663295
12.612844
12.654573
12.611072
12.658159
12.609234
12.653928
12.598923
12.628271
12.574672
12.609959
12.567931
12.618988
12.612593
12.723125
12.825217
13.080155
13.379373
13.900053
14.65137
15.761736
17.135785
17.548174
16.369398
14.616964
13.013605
11.75685
10.802814
10.058273
9.5192204
9.1055641
8.8909405
8.7225733
8.6695427
8.6048273
8.6430563
8.6597372
8.6706922
8.6625775
8.6497488
8.6356354
8.6520762
8.6372215
8.6099778
8.5859553
8.5600274
8.5408141
8.5309034
8.5262463
8.5213048
8.5218069
8.5159566
8.5191215
8.5161664
8.5208056
8.521123
8.5231452
8.5150838
8.5255676
8.5387139
8.5694845
8.6147806
8.6513564
8.6646
8.6463653
8.6316472
8.6584462
8.659307
8.6386884
8.6264726
8.6144444
8.6181278
8.6145996
8.6121835
8.6116861
8.6139392
8.6154388
8.6267971
8.6256854
8.6305535
8.6304445
8.6389433
8.6379185
8.6373929
8.6359105
8.6432735
8.6425652
8.6509405
8.6456316
8.649796
8.655087
8.6585848
8.6640555
8.669379
8.6734768
8.6815803
8.6811604
8.685461
8.6763535
8.6703492
8.6675916
8.6747714
8.676248
8.6722742
8.67565
8.6776207
8.677525
8.6795537
8.6793323
8.6804596
8.6823447
8.6822259
8.6834397
8.6850303
8.6828308
8.6754625
8.6652724
8.6600664
8.6629398
8.654032
8.6215556
8.5886737
8.5500695
8.5200714
8.556249
8.5876765
8.6191576
8.6271661
8.6245664
8.6294661
8.6391884
8.6468903
8.6486183
8.6473754
8.6457428
8.6462379
8.6439859
8.6433054
8.6431534
8.6415659
8.6412391
8.6396759
8.6358615
8.6401816
8.6382344
8.6316928
8.6340903
8.6403021
8.648808
8.6447763
8.644891
8.6371891
8.6324558
8.6278942
8.6217421
8.6190236
8.6130965
8.609649
8.6142923
8.6065758
8.606632
8.599802
8.6005329
8.601556
8.6018923
8.59404
8.5935738
8.5892992
8.5898492
8.5791924
8.5771254
8.5756401
8.575577
8.5785656
8.581263
8.5782994
8.5891685
8.6022775
8.621879
8.6220053
8.5948124
8.6104717
8.5737094
8.537855
8.5052166
8.4733396
8.4428972
8.4125387
8.3824721
8.3526282
8.323104
8.2940824
8.2656369
8.237882
8.2108951
8.1847009
8.1593409
8.1348306
8.1112122
8.0884932
8.0667411
8.0459642
8.026224
8.0075411
7.9899675
7.9734631
7.9581313
7.9439034
7.9307939
7.9189043
7.9082288
7.8987635
7.8905204
7.8835965
7.8779716
7.873643
7.8706523
7.8690563
7.8688649
7.8701003
7.8726926
7.8766965
7.8820724
7.888796
7.8968708
7.9062739
7.9169981
7.9290076
7.9422804
7.9567802
7.9724844
7.9892872
7.9905259
7.9737327
7.9581061
7.9436185
7.9303285
7.9183066
7.9075527
7.8981278
7.8900194
7.8832537
7.8778006
7.873744
7.8711088
7.8698242
7.8700419
7.8717802
7.8748848
7.8791167
7.8845396
7.8912516
7.8992942
7.9085121
7.9188803
7.9304616
7.9432864
7.9571714
7.9721074
7.9882607
8.0056813
8.0242252
8.0437642
8.0643243
8.0857834
8.1081734
8.1314267
8.1555175
8.1804809
8.2062487
8.2328013
8.2600645
8.287882
8.3158444
8.3442247
8.3727531
8.4016782
8.43069
8.4599689
8.4902516
8.522351
8.5569918
8.5846073
8.583918
8.5649348
8.5511565
8.5407607
8.5429273
8.5408785
8.5374424
8.5379775
8.5387926
8.5413067
8.5513622
8.5512579
8.5550096
8.5559737
8.5632551
8.5635331
8.5621045
8.5620818
8.5684481
8.5689991
8.5761105
8.5721095
8.5749468
8.5814003
8.5834112
8.5901473
8.5940374
8.5992663
8.6063329
8.6067444
8.6103312
8.6026795
8.5960367
8.5942159
8.5998876
8.6025044
8.5976453
8.6021178
8.6030663
8.6040368
8.6049376
8.6056595
8.6056827
8.6084988
8.6074533
8.6097239
8.6104253
8.6094069
8.6011554
8.5922101
8.587892
8.5903488
8.5830501
8.5522459
8.5224114
8.4871828
8.456471
8.4905347
8.5188881
8.548604
8.5558838
8.5534774
8.5567865
8.5661521
8.5737188
8.575269
8.5738571
8.5721871
8.5725118
8.5703813
8.5697825
8.5697529
8.5682933
8.5679324
8.566356
8.5624441
8.5666389
8.5646342
8.5585478
8.5609929
8.5668548
8.5749174
8.5704873
8.5708038
8.5631241
8.5580339
8.5541443
8.5474675
8.5455439
8.5391869
8.5363201
8.5402892
8.5331507
8.5326212
8.5261008
8.5260087
8.5272155
8.5269578
8.5195872
8.5187572
8.5148883
8.515215
8.5050705
8.5027577
8.5019663
8.501565
8.5048133
8.5068956
8.5049756
8.5155177
8.5292123
8.5481608
8.5486705
8.5152415
8.5143779
8.4954601
8.4817118
8.4711475
8.4727163
8.4706674
8.4675061
8.4678937
8.4685596
8.4707171
8.4809509
8.4804177
8.4843808
8.485109
8.4925606
8.4928217
8.4917951
8.4921143
8.4986975
8.4992854
8.5063736
8.5025361
8.5053235
8.5116563
8.5134322
8.520099
8.5239366
8.5288321
8.5371344
8.5361347
8.5413883
8.5329475
8.5277917
8.5248094
8.5313178
8.5326673
8.529115
8.5325303
8.5346864
8.5344741
8.5364524
8.535811
8.5369447
8.5383774
8.5388036
8.5399198
8.5419981
8.5399644
8.5330121
8.5232929
8.5205583
8.5233297
8.5157724
8.4874379
8.4609023
8.4279634
8.4012706
8.4328279
8.4578919
8.4845333
8.4923539
8.4893932
8.4919065
8.5015006
8.5082832
8.5103425
8.5080451
8.5070351
8.5062856
8.5052209
8.503892
8.5047662
8.5027244
8.5030602
8.5007728
8.4973904
8.5007715
8.4997686
8.4931344
8.4962035
8.5011068
8.5094958
8.503817
8.5050684
8.4966312
8.4921772
8.4882495
8.4817503
8.4799857
8.4738914
8.4709489
8.4747422
8.4675946
8.4670696
8.4603129
8.4598624
8.4605971
8.4604532
8.4527909
8.4522788
8.4481026
8.4490487
8.438513
8.4367412
8.435978
8.435739
8.438638
8.4407763
8.4394402
8.4501379
8.4638724
8.482859
8.4837375
8.4532751
8.4522258
8.4328768
8.4194252
8.4083106
8.4097127
8.4070892
8.4049413
8.4045794
8.4058211
8.4070206
8.4180441
8.4164961
8.4210855
8.4211873
8.42926
8.4290891
8.4288515
8.4291211
8.4363552
8.4364997
8.4440046
8.439988
8.4434209
8.4490797
8.4510544
8.4571359
8.4614244
8.465195
8.4738436
8.4721159
8.4784745
8.4699217
8.4654903
8.4621074
8.4691143
8.4696712
8.4666762
8.4696813
8.4724372
8.4716418
8.4740626
8.4725446
8.4743538
8.474979
8.4762862
8.4768357
8.4796811
8.4772645
8.4708972
8.4612557
8.4591953
8.4621636
8.4542043
8.4293154
8.4056305
8.375225
8.3498926
8.3789084
8.4012457
8.4244049
8.432531
8.4294407
8.4311641
8.4402721
8.4467199
8.4490842
8.4461109
8.445637
8.4436387
8.4437909
8.4416654
8.443415
8.441051
8.441892
8.4390773
8.4360636
8.4385659
8.4388229
8.4315693
8.4347267
8.4392187
8.4473788
8.4408487
8.4425515
8.4337546
8.4310832
8.4260172
8.4207652
8.4181922
8.4133738
8.4095334
8.4132125
8.4058619
8.4055714
8.3984015
8.3978147
8.397552
8.3980564
8.389572
8.3898807
8.3848578
8.3873328
8.3755013
8.3752385
8.3736254
8.3739722
8.3759294
8.3785741
8.3776249
8.3886389
8.4023152
8.4215151
8.4224694
8.3919822
8.3905214
8.3717973
8.3576461
8.3470524
8.3472499
8.3448695
8.3435788
8.342876
8.3449485
8.3441276
8.3565372
8.3533447
8.3585026
8.3580934
8.3666772
8.3660797
8.3666884
8.3677942
8.3747252
8.3753432
8.3822026
8.3791172
8.3836795
8.3874703
8.3903143
8.3950139
8.4005709
8.4024541
8.4110194
8.4096115
8.4161968
8.4086727
8.4039435
8.4011436
8.4088316
8.4075949
8.4049646
8.4085219
8.410864
8.4105938
8.4122972
8.4110192
8.4134965
8.4123674
8.4145075
8.415437
8.4180138
8.4162529
8.4096027
8.4011734
8.4000396
8.4030753
8.3951002
8.3735281
8.3525001
8.3245515
8.2998107
8.3264313
8.3462364
8.3663535
8.3741092
8.3710705
8.371946
8.3794958
8.3863206
8.3881016
8.3853346
8.3846746
8.3821859
8.3832086
8.3804205
8.3823381
8.3807057
8.3810569
8.3785446
8.375191
8.377704
8.379177
8.371274
8.3737404
8.3787259
8.3855129
8.3789325
8.3799555
8.372259
8.3708378
8.365063
8.3605335
8.3578284
8.354446
8.3494309
8.351634
8.3453916
8.3444096
8.3377801
8.3361725
8.335752
8.3358008
8.3277668
8.327626
8.3229236
8.3256936
8.3138087
8.3146625
8.3121291
8.3136468
8.313711
8.3163599
8.3170061
8.3270695
8.3417651
8.3598818
8.362097
8.332719
8.3296196
8.3120169
8.296926
8.2872713
8.2859746
8.2829887
8.2841901
8.2816844
8.2845406
8.2839182
8.2953369
8.2929747
8.2974233
8.2979249
8.30561
8.306014
8.3060918
8.308127
8.3143377
8.3158188
8.321586
8.320422
8.3257455
8.3286062
8.3314923
8.3354562
8.3417549
8.3425625
8.3494151
8.3487863
8.3551512
8.3491852
8.343849
8.3417592
8.3499419
8.3482152
8.3460995
8.3491069
8.3518917
8.3512212
8.3530682
8.3501987
8.3529364
8.3525508
8.3555378
8.3557788
8.3588532
8.3569115
8.3498435
8.3434439
8.342677
8.3456498
8.3380484
8.3194393
8.3008027
8.2751634
8.2513048
8.2757069
8.293257
8.3110171
8.3174435
8.3143983
8.3156133
8.3215057
8.3277528
8.3298415
8.3264612
8.326981
8.3232298
8.3233754
8.3213761
8.3240217
8.322446
8.3232585
8.3198975
8.3176289
8.319405
8.3208718
8.3129834
8.3154163
8.3204395
8.3260479
8.3189416
8.3195348
8.313589
8.3132471
8.3065433
8.3027756
8.3000882
8.2972404
8.2920578
8.2922015
8.2869838
8.2856196
8.2792409
8.277331
8.2766224
8.276197
8.2688698
8.2679962
8.2637954
8.2656477
8.2548969
8.2552543
8.2525944
8.2549484
8.2529597
8.2564395
8.2583009
8.2675808
8.2829642
8.2998925
8.3036149
8.275231
8.2708033
8.2544632
8.2390622
8.2299681
8.2277961
8.2236511
8.2258835
8.224052
8.226454
8.2264743
8.2366753
8.2351228
8.2390547
8.2403188
8.2472936
8.2477972
8.249138
8.2510145
8.2577431
8.2586568
8.2636145
8.263992
8.2694948
8.2720771
8.2740244
8.2782159
8.2853885
8.2851814
8.2903908
8.2896766
8.2975671
8.2922614
8.2879361
8.28476
8.291964
8.2910096
8.2898501
8.2912285
8.2949384
8.2942027
8.2952204
8.2932257
8.2945681
8.2945092
8.2988119
8.2976921
8.3010611
8.2990834
8.2937148
8.2881239
8.2871241
8.2897126
8.2845008
8.2677335
8.251226
8.2277392
8.2051144
8.2273987
8.2429051
8.2589565
8.2633644
8.2607739
8.2615126
8.2669835
8.2718504
8.2731361
8.2703731
8.2709773
8.2672525
8.2666182
8.2660281
8.2672564
8.2668673
8.2669262
8.2639393
8.2623582
8.2634356
8.2638026
8.2574104
8.2608086
8.2649058
8.2693961
8.2618369
8.2620856
8.2576108
8.2581897
8.2502828
8.2467539
8.2449795
8.2423678
8.2368203
8.2359282
8.2311403
8.2302071
8.2231467
8.2219544
8.2203959
8.2199054
8.2126291
8.2115976
8.2073328
8.2084925
8.198949
8.1992157
8.1964141
8.197638
8.1951151
8.1996716
8.2018533
8.2110004
8.2261726
8.2423504
8.2467434
8.2192556
8.2147249
8.1986989
8.1845767
8.1746912
8.1731885
8.1676398
8.1702256
8.1695288
8.1729517
8.1721247
8.1811303
8.1802903
8.1851141
8.1856757
8.1934783
8.1937147
8.1958538
8.1959061
8.2029375
8.2043418
8.2089661
8.2103129
8.2161202
8.2185202
8.2205597
8.2229834
8.2313945
8.2306858
8.2346091
8.2347512
8.2419986
8.2382135
8.2345718
8.230767
8.2364159
8.2366176
8.23576
8.2373782
8.239706
8.2403047
8.240109
8.2395686
8.2395301
8.2408061
8.2440905
8.2438792
8.2461796
8.245458
8.2412066
8.2355972
8.235268
8.2378355
8.2343169
8.2188469
8.20433
8.1829039
8.161712
8.1820164
8.1955618
8.2101224
8.2127395
8.2105959
8.210617
8.2162012
8.2195787
8.2202024
8.2184049
8.2182042
8.2153738
8.2133236
8.2141134
8.2138379
8.2147465
8.2133575
8.211798
8.2098654
8.2103003
8.2098866
8.2050986
8.2090179
8.2124729
8.2154547
8.208635
8.2079916
8.2046771
8.2049711
8.1972067
8.1949296
8.1930109
8.1904714
8.1847478
8.1834746
8.1780456
8.176564
8.170237
8.1703398
8.167917
8.1674899
8.1591469
8.1590847
8.1537413
8.1546392
8.1462069
8.1474448
8.1431362
8.1436725
8.1411112
8.1477364
8.1484681
8.1591229
8.1720518
8.1879824
8.1922249
8.1664652
8.1620938
8.1462799
8.1344862
8.1229269
8.1227861
8.1153997
8.1180487
8.1174676
8.122443
8.1210207
8.12906
8.1279013
8.1334377
8.1332709
8.1418459
8.14271
8.1450159
8.1453899
8.151062
8.1524077
8.1586955
8.1598948
8.1658911
8.1681564
8.1694827
8.172215
8.1793653
8.1793837
8.1823502
8.1832383
8.1898867
8.1874642
8.1843995
8.1801753
8.1842566
8.1846512
8.1844417
8.1869254
8.1880006
8.189948
8.1885603
8.1894225
8.1881146
8.1906974
8.193018
8.1936681
8.1949446
8.1943767
8.1918095
8.1862844
8.186822
8.1882871
8.1863749
8.1730665
8.1604959
8.1410084
8.1213867
8.139794
8.1514591
8.1636388
8.1653102
8.1639404
8.1630859
8.1679739
8.1706765
8.1713014
8.1699551
8.169482
8.1670918
8.1639422
8.1657904
8.1643123
8.166205
8.1636736
8.1631052
8.160084
8.1605659
8.1596006
8.1562872
8.1604731
8.1634569
8.1653104
8.1588672
8.1577074
8.1551182
8.1546901
8.1482612
8.1456422
8.1443406
8.1422813
8.135981
8.1350001
8.1282689
8.1265163
8.1216029
8.1213654
8.1185623
8.1171779
8.108971
8.1088117
8.1036382
8.1044598
8.0968151
8.0979024
8.0933377
8.0934256
8.0912752
8.098316
8.0988248
8.1103738
8.1214578
8.13706
8.1413456
8.1172803
8.1129899
8.0974072
8.0866702
8.0755708
8.0747896
8.0680279
8.0697681
8.0701301
8.0742624
8.07345
8.0808207
8.080313
8.0851296
8.0856114
8.0934514
8.0953529
8.0987938
8.0986773
8.1029115
8.1050734
8.1123488
8.1128213
8.1195185
8.1213301
8.1228712
8.1251522
8.130976
8.1317846
8.1338738
8.1354122
8.1415233
8.1402392
8.1375452
8.1332192
8.135922
8.1375212
8.1365995
8.1402363
8.1402335
8.1434168
8.1409504
8.1431192
8.1406696
8.1444189
8.1470751
8.1471603
8.1487854
8.1479728
8.1449216
8.1409965
8.1419947
8.143328
8.1416633
8.1307476
8.1199426
8.1023277
8.0844111
8.1009629
8.1109401
8.1211686
8.121965
8.1206361
8.1199277
8.1233988
8.1258696
8.1268671
8.1249392
8.1255621
8.1224093
8.1189529
8.1211289
8.1191397
8.1213036
8.1183467
8.1180405
8.1146754
8.1151596
8.1132186
8.1112577
8.1154418
8.1180671
8.119246
8.1126059
8.1115587
8.1091254
8.1082429
8.1030745
8.1006804
8.0992939
8.0973101
8.0906412
8.0902959
8.0825169
8.0803046
8.0767987
8.0771302
8.0727944
8.070739
8.0634295
8.0624701
8.0581595
8.058186
8.051243
8.0516423
8.0480986
8.0471258
8.0459436
8.052277
8.0534606
8.0639812
8.0749741
8.0899565
8.094548
8.0730041
8.0678715
8.0535075
8.0422756
8.0322647
8.0308041
8.0247959
8.0255231
8.0270116
8.0300648
8.0299638
8.0365669
8.0369294
8.0408468
8.0421834
8.049086
8.0510968
8.0561402
8.0558115
8.058737
8.0608044
8.0687493
8.0692471
8.0755982
8.0780199
8.0790861
8.081827
8.0866255
8.0873616
8.0902278
8.0906789
8.0979124
8.096679
8.0939566
8.090208
8.0916688
8.0936494
8.093676
8.0966791
8.0973745
8.1000262
8.0982422
8.0999808
8.0981681
8.1012797
8.1047391
8.1035353
8.1054827
8.1045669
8.1029017
8.0995171
8.0999367
8.1014623
8.1016006
8.0920822
8.0828883
8.0671301
8.0510368
8.0657432
8.0741698
8.08266
8.0825776
8.0804114
8.0802781
8.0831239
8.0848629
8.0852295
8.0837423
8.0845672
8.0817197
8.0786586
8.0803817
8.0785658
8.0802889
8.0776258
8.0768551
8.073912
8.0737624
8.0713062
8.0703577
8.0735726
8.0763791
8.0771835
8.0703163
8.0695644
8.0672279
8.0661618
8.0617341
8.0586023
8.0578701
8.0548992
8.0490199
8.0483021
8.0407527
8.0382515
8.0359464
8.0357546
8.0310263
8.0285233
8.022109
8.0202756
8.0168562
8.0159992
8.0098414
8.0095397
8.0070895
8.0049633
8.0048076
8.010375
8.0122067
8.0215845
8.0331634
8.0467539
8.0522606
8.0327186
8.0267316
8.0137735
8.0020357
7.9931333
7.9911183
7.9858257
7.9855878
7.9881746
7.9902003
7.9907158
7.9964931
7.997769
8.0008725
8.0030416
8.0091377
8.0120286
8.0164766
8.0170906
8.018949
8.0217981
8.0289091
8.0298182
8.0352178
8.038768
8.0390852
8.0427041
8.0466422
8.0481462
8.0499372
8.0510176
8.0574754
8.057165
8.0541027
8.0515214
8.0518617
8.0549937
8.0554242
8.0581291
8.0591429
8.0616507
8.0601517
8.0618835
8.0603895
8.0632369
8.0654351
8.06505
8.0660711
8.0662971
8.0642696
8.0621123
8.0617777
8.0647637
8.0647177
8.0572808
8.049597
8.0356652
8.0215157
8.0344575
8.0414231
8.0478535
8.0481454
8.044886
8.0452008
8.0470154
8.0485511
8.048027
8.047582
8.0474068
8.0459147
8.043197
8.0441248
8.0425728
8.0437522
8.0414985
8.0401426
8.0377851
8.0370225
8.0341707
8.0339271
8.036227
8.0387467
8.0388726
8.0329515
8.0314243
8.0302657
8.0287138
8.0245
8.0211889
8.0204645
8.0166344
8.0118214
8.0106393
8.0040893
8.000854
7.9994814
7.9983914
7.9942765
7.9909522
7.9852057
7.9826659
7.9798795
7.9780884
7.9728784
7.9720703
7.9705472
7.9674152
7.9681323
7.9730495
7.9753262
7.9836586
7.9956287
8.007827
8.0141043
7.9967038
7.9898415
7.9784876
7.966244
7.9585532
7.95595
7.9514952
7.9502215
7.9539353
7.95492
7.9561112
7.9608014
7.9629864
7.9654324
7.9684213
7.9737428
7.9775849
7.9812734
7.9829342
7.9837268
7.9874597
7.993509
7.9948768
7.9991938
8.0031176
8.0043553
8.0073231
8.0118852
8.0134074
8.014121
8.0159768
8.0214232
8.0212982
8.0195107
8.0173881
8.0178248
8.0199971
8.0206797
8.023037
8.0243825
8.0267333
8.0255195
8.0272592
8.0267594
8.0295898
8.0305826
8.0311636
8.0312221
8.0318068
8.030936
8.0293598
8.0293062
8.0325709
8.0321541
8.0266438
8.0203815
8.0081143
7.9959731
8.007353
8.012979
8.017657
8.0181631
8.0148635
8.0147494
8.0157225
8.016735
8.0156953
8.016011
8.0149925
8.0144529
8.0115937
8.0120478
8.0102315
8.0114103
8.0090385
8.0076298
8.0053507
8.0046217
8.0026496
8.0020723
8.0036492
8.0055051
8.0051834
8.0002995
7.9980718
7.9977494
7.9958124
7.9917784
7.9888891
7.987434
7.9829379
7.9791816
7.9775384
7.972098
7.9683638
7.9676524
7.9658432
7.9621558
7.9582349
7.9528873
7.9498972
7.9473274
7.944671
7.9406046
7.9395121
7.9385645
7.9347851
7.9361145
7.9405295
7.9430121
7.950501
7.9625541
7.973459
7.9802109
7.9650491
7.9584086
7.9476646
7.9361351
7.9285399
7.926427
7.9218186
7.9207072
7.9243534
7.9254521
7.9262416
7.9297332
7.9328163
7.9357154
7.938449
7.9440746
7.9478245
7.9517345
7.9534548
7.9543588
7.9578888
7.9628277
7.9645697
7.9679343
7.9729076
7.9747547
7.97744
7.9809622
7.9832829
7.983168
7.9857829
7.990158
7.9909578
7.9888586
7.9878341
7.988676
7.990492
7.9914419
7.9934909
7.9951147
7.9973511
7.9963555
7.9980688
7.9977958
8.000512
8.0005412
8.0020611
8.0013192
8.0029253
8.0015983
8.0012462
8.0016135
8.0049122
8.0042465
8.0004442
7.9954003
7.9846432
7.974617
7.9845455
7.9890348
7.992457
7.9925474
7.9891869
7.9890346
7.9891401
7.9900771
7.9886054
7.9890667
7.9877501
7.9874814
7.9849809
7.9849808
7.9834667
7.984186
7.9821783
7.9802569
7.9785267
7.9772527
7.9758825
7.9748959
7.9757368
7.9773634
7.9763444
7.9726045
7.9699526
7.9697936
7.9674088
7.9643716
7.9617844
7.9592501
7.9541942
7.9512579
7.9494055
7.944936
7.9415341
7.9404742
7.9385041
7.9347053
7.9307979
7.9252239
7.9224358
7.9192122
7.9159986
7.9131302
7.9125141
7.9109788
7.9078094
7.9087326
7.9131758
7.9152513
7.9227068
7.9339421
7.9442512
7.9504549
7.9370058
7.9306967
7.9211871
7.9099267
7.903026
7.9007217
7.8967083
7.8961494
7.8986235
7.9005726
7.9011767
7.9035941
7.9066656
7.9100304
7.9130805
7.9184308
7.9226866
7.9260889
7.9285158
7.9299348
7.9331368
7.9370956
7.9391877
7.9416395
7.9467652
7.9497212
7.9524505
7.9549947
7.957417
7.9579258
7.9606501
7.9638731
7.9648695
7.9637757
7.9630878
7.9643378
7.965086
7.9663335
7.9680837
7.9699354
7.9720399
7.9712796
7.9729127
7.9728683
7.9755147
7.9761451
7.9771759
7.9770771
7.9783353
7.9778586
7.9780125
7.9781522
7.9812229
7.9817862
7.9787932
7.9748159
7.9654715
7.957672
7.966218
7.9697126
7.9724584
7.9715531
7.9684842
7.968307
7.967981
7.9682429
7.9669431
7.9669284
7.965938
7.9652504
7.9625836
7.962592
7.9609268
7.9616454
7.9595527
7.9576827
7.955956
7.9546222
7.9540306
7.9525478
7.9531846
7.9540932
7.9527755
7.950022
7.9473148
7.9467585
7.9443912
7.9418387
7.9389435
7.935594
7.9308475
7.9281315
7.9265241
7.9226277
7.9195649
7.9178611
7.9148961
7.9120375
7.9073867
7.9023224
7.8989836
7.8958628
7.8925669
7.8905389
7.8895754
7.8878835
7.8854561
7.8859632
7.8894794
7.8921018
7.8988616
7.9097298
7.9188221
7.924957
7.9143825
7.9083482
7.8995206
7.8891909
7.882387
7.8794527
7.8764017
7.8760711
7.8784192
7.8797074
7.8811314
7.8827358
7.8864323
7.8891204
7.8928452
7.8974657
7.9026417
7.9049987
7.9084234
7.9104643
7.9133034
7.9174249
7.9182619
7.9214622
7.9257984
7.9294302
7.932385
7.9352697
7.9374401
7.9381393
7.9406625
7.9428644
7.9446444
7.943989
7.9431932
7.9449768
7.945435
7.9470755
7.9486005
7.9506233
7.9526306
7.9520448
7.9536456
7.9537674
7.9563242
7.957133
7.9580046
7.958211
7.9594748
7.9595011
7.959817
7.9601092
7.9631741
7.964472
7.9618564
7.9588311
7.9508205
7.9453487
7.9526451
7.9552093
7.957502
7.9557748
7.9530006
7.9526564
7.9522614
7.95171
7.9505192
7.9500824
7.9493668
7.9484034
7.9462338
7.9457169
7.9444445
7.944628
7.9429695
7.9408528
7.9393001
7.9375485
7.936955
7.9351446
7.9358391
7.9362425
7.9347334
7.932674
7.9302616
7.9291363
7.927416
7.9243003
7.9209731
7.9174213
7.9129554
7.910123
7.9093677
7.9052506
7.9026135
7.9000292
7.896463
7.8946424
7.8893197
7.8847629
7.8809202
7.8780714
7.8746644
7.8731055
7.8714906
7.8699975
7.8678727
7.8681782
7.8706933
7.8739705
7.8807617
7.890255
7.8988887
7.9045433
7.8959516
7.8902114
7.882046
7.8733247
7.8667436
7.8632775
7.8611711
7.861031
7.8627279
7.8646111
7.8663111
7.8681186
7.8709256
7.8740657
7.8779166
7.8826458
7.8879171
7.8891638
7.8928425
7.8960798
7.8983748
7.9023301
7.9032853
7.9062943
7.9103808
7.9137005
7.9176041
7.9206317
7.9219992
7.9234406
7.9258961
7.9281094
7.929022
7.9287065
7.9282992
7.9299286
7.9308419
7.9323931
7.9342737
7.9366519
7.9377824
7.937906
7.9389397
7.9397677
7.9416323
7.9426349
7.9433095
7.9438654
7.9451017
7.9461671
7.9467133
7.9472348
7.949515
7.951511
7.9497835
7.9476849
7.9408802
7.9378189
7.9439714
7.9456562
7.9469037
7.9449176
7.9427936
7.9421326
7.9411728
7.9402184
7.9386825
7.9383046
7.9373728
7.9365633
7.9347509
7.9338308
7.9328123
7.9325953
7.9316527
7.9290654
7.9272396
7.9255544
7.9242436
7.9229162
7.9230224
7.9235041
7.9228032
7.9205423
7.918075
7.9165525
7.9151976
7.9120372
7.9082199
7.9051134
7.9011436
7.897937
7.8966449
7.8929294
7.8906333
7.8873665
7.8836531
7.8825535
7.8772617
7.87242
7.8682971
7.8654349
7.8626403
7.8608272
7.8588026
7.8571444
7.8554074
7.8555325
7.8572171
7.8608312
7.867265
7.8755007
7.8832661
7.8888279
7.8832074
7.8777482
7.8702595
7.8626166
7.8562499
7.8524311
7.851223
7.8512031
7.852923
7.8542283
7.8566615
7.8585827
7.861309
7.8637756
7.8682418
7.8732071
7.8784797
7.8796864
7.8831953
7.8862653
7.8887937
7.8923116
7.8938708
7.897368
7.9012048
7.9042465
7.9075832
7.911039
7.912465
7.9142054
7.9166597
7.9187112
7.9193993
7.9186673
7.9189374
7.9199616
7.9216299
7.9235683
7.9251833
7.9279973
7.9287761
7.9291863
7.9301295
7.9312079
7.9329536
7.9334471
7.9347665
7.9348377
7.9367711
7.9374641
7.938841
7.9397362
7.9417224
7.9435384
7.9428346
7.9415214
7.9358126
7.9352304
7.9403481
7.941304
7.9418094
7.9396571
7.9378706
7.9369567
7.9354438
7.9345186
7.932687
7.932429
7.9312154
7.9304941
7.9288178
7.9275534
7.9267183
7.926063
7.925492
7.9224059
7.9212339
7.9188974
7.9171193
7.9164256
7.9160273
7.9164498
7.9157264
7.9141275
7.9114582
7.909748
7.9079611
7.9044343
7.9016338
7.8986814
7.8949134
7.8912911
7.8893772
7.8861647
7.8833441
7.8804856
7.8768009
7.8754324
7.8704498
7.8652225
7.860925
7.8583469
7.8559516
7.853634
7.8513113
7.8498523
7.8484172
7.8480563
7.8493022
7.8527631
7.8590758
7.8660315
7.8733082
7.8784336
7.8750928
7.8699807
7.8630501
7.8565938
7.8505053
7.8475652
7.8461546
7.8468345
7.8480361
7.8497905
7.8518564
7.8545296
7.8566492
7.8595171
7.8635112
7.8689054
7.8736947
7.8753971
7.8791693
7.8817273
7.884877
7.8878859
7.8900492
7.893702
7.8974323
7.9002497
7.9026211
7.9062695
7.9083638
7.9101548
7.9127479
7.914002
7.9147972
7.9147632
7.9152799
7.9156266
7.9174875
7.9201414
7.9208841
7.9240958
7.9245759
7.9253975
7.9262403
7.9275803
7.9293068
7.9303638
7.9313995
7.9319159
7.9335721
7.9347806
7.9363604
7.9370405
7.9388643
7.9414427
7.9411066
7.9404661
7.9357474
7.937687
7.9418608
7.9422125
7.9422128
7.939744
7.937917
7.9371717
7.9355668
7.9342773
7.9326248
7.9320234
7.9309965
7.9298327
7.9278487
7.9266877
7.9255882
7.9248229
7.9241716
7.9210654
7.920248
7.9178013
7.9159057
7.9155604
7.9149728
7.9148556
7.9140257
7.9128105
7.9103292
7.9084361
7.906034
7.9025721
7.9000825
7.8975803
7.8936494
7.8902614
7.8878436
7.8850284
7.8817712
7.8790716
7.8755002
7.8733573
7.868519
7.8634902
7.8593451
7.8566067
7.8542749
7.8517208
7.8494491
7.8478733
7.846403
7.8459073
7.846989
7.8499301
7.8555145
7.8614612
7.8680693
7.8729736
7.8725057
7.8675774
7.8614008
7.855838
7.8508067
7.8478328
7.8471317
7.8473959
7.8491486
7.8504885
7.8530098
7.8554008
7.8580178
7.8605249
7.8649201
7.8695612
7.8744191
7.8770362
7.8802798
7.8832482
7.8865867
7.8891819
7.8918717
7.8948978
7.899158
7.9013053
7.9039653
7.9071579
7.9098341
7.9119179
7.9142594
7.9156199
7.9163701
7.9167054
7.9172532
7.9177477
7.9195741
7.9217537
7.922711
7.9256768
7.9265594
7.9271635
7.9285836
7.9294614
7.9318085
7.9331128
7.9340832
7.9348212
7.9364208
7.9378323
7.9394073
7.9403082
7.9420449
7.9443539
7.9446772
7.9445913
7.9407569
7.9452345
7.9486694
7.9485542
7.9479299
7.9457763
7.9439738
7.9428563
7.9413378
7.9397805
7.9382678
7.9373539
7.9364785
7.9350355
7.9327731
7.9319443
7.9303967
7.9295568
7.9286013
7.9258286
7.9246784
7.92278
7.920983
7.9201599
7.9197113
7.9190947
7.9184888
7.9169051
7.9146955
7.9126403
7.9099262
7.9066224
7.9041983
7.9020038
7.8978568
7.8949679
7.8921773
7.889361
7.8859493
7.8831735
7.8797825
7.8769159
7.872068
7.8678322
7.863366
7.8606822
7.8579074
7.8554586
7.8529178
7.8516019
7.8497792
7.8495783
7.8500653
7.8528786
7.8575231
7.8628089
7.8688407
7.8733849
7.8757411
7.8714817
7.8655894
7.860658
7.8562959
7.8537025
7.8533916
7.8535797
7.8555274
7.8568425
7.8593531
7.8618514
7.8646845
7.8676011
7.8721389
7.8759533
7.8808411
7.8839543
7.8874315
7.8899737
7.8934603
7.8965578
7.8994555
7.9023554
7.9062055
7.9085046
7.9106459
7.914113
7.9168186
7.9189416
7.920828
7.9224711
7.9231074
7.9238353
7.9243722
7.925457
7.9273503
7.9290547
7.9303562
7.9329695
7.933907
7.9350215
7.9367172
7.9376145
7.9395402
7.9410032
7.9418616
7.9428806
7.9443936
7.9460076
7.947543
7.948681
7.9508073
7.9527797
7.9535698
7.953831
7.9506495
7.9456395
7.9438307
7.9426902
7.9410896
7.9398987
7.9387764
7.9363391
7.9348703
7.9333267
7.9313931
7.9302431
7.9296627
7.9287988
7.9281608
7.9264148
7.9246517
7.9221755
7.9195082
7.9162882
7.9143027
7.9120203
7.908254
7.9053482
7.9023921
7.8991929
7.895649
7.8931291
7.8895337
7.8862214
7.8815154
7.8778637
7.8732946
7.8703283
7.8672142
7.8646847
7.8621296
7.860883
7.8591223
7.8588785
7.8590697
7.8613794
7.8652719
7.8700257
7.8755988
7.8795876
7.8849656
7.8811896
7.8758616
7.8712742
7.8678724
7.8659225
7.8657881
7.8661633
7.8677069
7.8691225
7.8714853
7.8740165
7.8773996
7.8804547
7.8849877
7.888601
7.8930113
7.8962533
7.9001593
7.9028248
7.9063465
7.9096701
7.912588
7.9155416
7.9192438
7.9215666
7.923364
7.9262958
7.9289032
7.9317638
7.9334049
7.9353429
7.9359182
7.9369791
7.9375272
7.9387929
7.9407178
7.94207
7.943713
7.9459859
7.9472757
7.948625
7.9499634
7.9513875
7.9530963
7.9618002
7.9601071
7.9588353
7.9574161
7.9560338
7.9545912
7.9524974
7.9508362
7.9493395
7.9475452
7.9461888
7.945539
7.9443973
7.9437684
7.9417561
7.9401325
7.9370642
7.9344901
7.9318343
7.9301706
7.9276709
7.9241771
7.9211898
7.9182749
7.91471
7.9112577
7.9084012
7.9045886
7.9012362
7.897068
7.8933274
7.8889662
7.8857247
7.8822178
7.8797093
7.8776113
7.8759538
7.8745705
7.8739009
7.8740263
7.8755932
7.8786588
7.8830689
7.8881275
7.8914344
7.8992856
7.8962951
7.8916158
7.8873738
7.8845775
7.8832495
7.8832692
7.8842049
7.8854822
7.8873226
7.88928
7.8917547
7.8953455
7.8987141
7.9029331
7.9067774
7.9108124
7.914275
7.9179724
7.9208349
7.9243409
7.9281203
7.9310821
7.9341696
7.9373631
7.9400389
7.9416471
7.944104
7.9465691
7.9496919
7.9513944
7.9533875
7.9541646
7.955284
7.9561359
7.9576591
7.959255
7.9609529
7.9626264
7.9646257
7.9661406
7.9674671
7.9690564
7.9803918
7.9787776
7.9773991
7.9758689
7.9740865
7.9724284
7.9706453
7.9690971
7.9674332
7.9663618
7.9652906
7.9643549
7.9624128
7.9606283
7.9576313
7.955117
7.952814
7.9511144
7.9485227
7.9453805
7.9422812
7.9391456
7.9354817
7.9319361
7.9289091
7.9253507
7.9218852
7.9178601
7.914016
7.9098321
7.9064778
7.9028471
7.9004048
7.8983995
7.8964862
7.895205
7.894138
7.8940146
7.8950815
7.8976
7.901358
7.9058333
7.9085326
7.9192055
7.9167724
7.9123685
7.909152
7.9069283
7.9061493
7.9063132
7.9075526
7.9088001
7.9108462
7.912832
7.9153269
7.9189555
7.9223154
7.92643
7.9303085
7.9342647
7.9378111
7.941151
7.9443684
7.9479489
7.9514702
7.9547477
7.9578973
7.9609943
7.9634532
7.9652916
7.9674382
7.9700655
7.9729048
7.974755
7.9766306
7.9777425
7.9787986
7.9800483
7.981862
7.9833688
7.9852727
7.9868391
8.0007027
7.9992656
7.9972222
7.9957698
7.9938268
7.9924674
7.9914125
7.990219
7.9884089
7.9864807
7.9838175
7.9812031
7.9790816
7.9771942
7.974646
7.97164
7.9685009
7.9650848
7.9617022
7.9579832
7.9548282
7.9514593
7.9479001
7.9439465
7.9400006
7.9359872
7.9325911
7.9290591
7.9265194
7.9244582
7.9223578
7.9210642
7.9197314
7.9194546
7.9199198
7.9218666
7.9248319
7.9289108
7.9310704
7.9442303
7.9422098
7.9385397
7.9358296
7.9340882
7.9338674
7.9343149
7.9356881
7.9370904
7.9391759
7.9413811
7.9440298
7.9473999
7.9507379
7.9547362
7.9586621
7.9627244
7.9662118
7.9697516
7.9727998
7.9767027
7.9799188
7.9834837
7.986625
7.9894781
7.9921874
7.9941078
7.9962911
7.9988189
8.0012967
8.0033477
8.0050947
8.0062829
8.0211061
8.0193391
8.0174343
8.0150436
8.0125893
8.0103433
8.008297
8.0056356
8.0027974
7.9995802
7.9960927
7.9928263
7.9889542
7.9858034
7.982289
7.9786793
7.9747159
7.9708107
7.9668377
7.9635227
7.9601951
7.9574639
7.9550826
7.9530485
7.9515087
7.9501403
7.9495046
7.9496275
7.9510301