/*--------------------------------*- C++ -*----------------------------------*\
| =========                 |                                                 |
| \\      /  F ield         | OpenFOAM: The Open Source CFD Toolbox           |
|  \\    /   O peration     | Version:  v2012                                 |
|   \\  /    A nd           | Website:  www.openfoam.com                      |
|    \\/     M anipulation  |                                                 |
\*---------------------------------------------------------------------------*/
FoamFile
{
    version     2.0;
    format      ascii;
    class       surfaceScalarField;
    location    "200";
    object      phi;
}
// * * * * * * * * * * * * * * * * * * * * * * * * * * * * * * * * * * * * * //

dimensions      [0 3 -1 0 0 0 0];
oriented        oriented;


internalField   nonuniform List<scalar> 
220384
(
0.002225839
-2.7548323e-07
2.6729652e-07
0.0022258535
-2.6747908e-07
2.5294985e-07
0.0022258732
-2.5972718e-07
2.4005758e-07
0.0022258983
-2.5361385e-07
2.2853026e-07
0.0022259278
-2.4755255e-07
2.1802303e-07
0.0022259594
-2.4050383e-07
2.0885809e-07
0.0022259925
-2.3338641e-07
2.0036408e-07
0.0022260271
-2.2723378e-07
1.9264161e-07
0.0022260632
-2.2188949e-07
1.8572146e-07
0.0022261002
-2.1717279e-07
1.8024469e-07
0.0022261365
-2.1240544e-07
1.7604528e-07
0.0022261717
-2.0749121e-07
1.7229664e-07
0.0022262058
-2.0296428e-07
1.6890333e-07
0.0022262384
-1.9832799e-07
1.6566113e-07
0.0022262693
-1.9368877e-07
1.6284408e-07
0.002226298
-1.8905719e-07
1.6030726e-07
0.0022263252
-1.8533963e-07
1.5814892e-07
0.0022263518
-1.8359652e-07
1.5706987e-07
0.0022263766
-1.8026187e-07
1.5539754e-07
0.0022263986
-1.7530118e-07
1.5327803e-07
0.0022264192
-1.7215809e-07
1.5162246e-07
0.0022264394
-1.7102194e-07
1.5076334e-07
0.002226458
-1.6875374e-07
1.5015475e-07
0.0022264729
-1.641017e-07
1.4920792e-07
0.0022264852
-1.6088389e-07
1.485913e-07
0.002226498
-1.6052193e-07
1.4773336e-07
0.0022265123
-1.6054121e-07
1.4628705e-07
0.0022265261
-1.5776979e-07
1.4396558e-07
0.0022265338
-1.5001018e-07
1.4225458e-07
0.0022265546
-1.4566055e-07
1.2491766e-07
0.0022265978
-1.3230908e-07
8.9112545e-08
0.002226928
-2.1259111e-07
-1.1760304e-07
0.0022277067
-3.2258281e-07
-4.5620018e-07
0.0022305333
-1.1290234e-06
-1.6975191e-06
0.002234009
-1.2798082e-06
-2.1959349e-06
0.002242367
-3.483777e-06
-4.8741764e-06
0.0022528203
-4.4707299e-06
-5.9825678e-06
0.0022747877
-9.8319601e-06
-1.2135461e-05
0.0023123844
-1.7200937e-05
-2.0395809e-05
0.0023447802
-1.4509008e-05
-1.7886711e-05
3.5768125e-05
3.6846736e-05
4.4727739e-06
-0.0024338537
-3.0134802e-05
8.017141e-05
-0.0025910662
-4.8169705e-05
2.189315e-05
-0.0027914033
-5.0557895e-05
5.7140055e-05
-0.0029469547
-5.1775702e-05
1.7918381e-05
-0.0030660578
-5.5453409e-05
1.6799832e-05
-0.0031237239
-5.9321269e-05
5.3239429e-06
-0.0031531374
-6.1655033e-05
2.4068092e-06
-0.0031639939
-6.2569761e-05
1.7718604e-06
-0.0031681801
-6.2926733e-05
2.0240338e-06
-0.0031706097
-6.3062056e-05
2.353061e-06
-0.0031729597
-6.3133904e-05
2.6777035e-06
-0.0031754719
-6.3193293e-05
3.0195342e-06
-0.0031781425
-6.3252739e-05
3.3936589e-06
-0.0031809115
-6.3313649e-05
3.8860617e-06
-0.0031837936
-6.3377764e-05
4.2152233e-06
-0.0031868374
-6.346608e-05
4.6697777e-06
-0.0031897896
-6.3606125e-05
4.0419207e-06
-0.0031919037
-6.3773176e-05
4.2780891e-06
-0.0031899999
-6.3655709e-05
3.8828875e-06
-0.0031768573
-6.2878156e-05
7.2200155e-06
-6.1554587e-05
-0.0031345951
1.0518396e-05
-6.0401074e-05
-0.0030345297
4.320929e-05
-5.3852524e-05
-0.0028337397
1.1307537e-05
-5.7175112e-05
-0.0024113172
-1.6995616e-05
-7.5223138e-05
-0.0023984703
8.8975715e-06
-9.1964746e-05
-0.0027859575
3.9428318e-06
-0.00011391689
-0.0029419682
5.2221929e-06
-0.00011980456
-0.0029963926
1.704634e-07
-0.00012074953
-0.0030025586
2.175627e-06
-0.00011942369
-0.0029873837
1.7327003e-06
-0.00011760465
-0.0029699533
4.5676675e-06
-0.00011605326
-0.0029547051
6.0766247e-06
-0.00011507225
-0.0029443002
7.707218e-06
-0.00011448145
-0.0029374265
8.6170229e-06
-0.00011413948
-0.0029331004
9.1755024e-06
-0.00011392325
-0.0029301758
9.4838099e-06
-0.0001137762
-0.0029279509
9.6607832e-06
-0.00011366506
-0.0029260372
9.7789805e-06
-0.00011357489
-0.002924204
9.8799735e-06
-0.00011349544
-0.0029223735
9.9978574e-06
-0.00011342341
-0.0029204442
1.013417e-05
-0.00011335984
-0.0029184236
1.028263e-05
-0.00011330433
-0.0029163029
1.0465455e-05
-0.00011325708
-0.0029141169
1.0698739e-05
-0.00011322126
-0.0029118882
1.0994841e-05
-0.00011319822
-0.002909668
1.1363918e-05
-0.00011318954
-0.0029074736
1.1817527e-05
-0.00011319934
-0.002905328
1.2361721e-05
-0.00011323437
-0.0029032186
1.306933e-05
-0.00011331064
-0.0029012033
1.3988697e-05
-0.00011343852
-0.0028992502
1.5152328e-05
-0.00011363362
-0.0028973676
1.66405e-05
-0.00011390921
-0.0028955998
1.8580111e-05
-0.00011429014
-0.0028939826
2.1062417e-05
-0.00011477188
-0.0028924623
2.4164741e-05
-0.00011534136
-0.002890969
2.7900641e-05
-0.00011595388
-0.0028893534
3.2268941e-05
-0.00011654827
-0.002887376
3.7205169e-05
-0.00011701122
-0.0028846555
4.2509905e-05
-0.00011725811
-0.0028807079
4.786425e-05
-0.00011711757
-0.0028749142
5.2779213e-05
-0.00011639659
-0.0028663076
5.6443847e-05
-0.00011471709
-0.0028530802
5.7359344e-05
-0.00011138129
-0.0028319954
5.3433909e-05
-0.00010560218
-0.0027985375
4.464236e-05
-9.9497882e-05
-0.0027688674
3.4044947e-05
-9.7934554e-05
-0.0027755902
2.4775495e-05
-0.0001002768
-0.0028063182
1.7823239e-05
-0.00010357591
-0.0028374098
1.2966774e-05
-0.00010629973
-0.0028600411
9.8161174e-06
-0.00010826984
-0.002875032
7.9618696e-06
-0.00010965032
-0.0028849253
7.2634431e-06
-0.00011065259
-0.0028922277
6.1094141e-06
-0.0001114761
-0.0028991417
4.076803e-06
-0.00011213971
-0.0029060758
-8.5727742e-06
-0.00011257809
-0.0029106951
-8.6488055e-06
-0.00011162442
-0.0029018111
-5.3008221e-05
-0.00010893618
-0.0028725939
-1.7185303e-05
-0.00010320678
-0.0027869774
-8.1431434e-05
-9.5691305e-05
-0.0026730837
-2.4526322e-06
-8.0979652e-05
-0.0025097735
-3.6312233e-05
-4.9380498e-05
-0.0023858348
3.5437093e-05
-0.0023141733
4.7023757e-06
-2.979688e-05
-0.0024019187
7.954069e-05
-4.7592949e-05
-0.0025566795
2.2204058e-05
-4.9942489e-05
-0.0027536655
5.7101085e-05
-5.1118059e-05
-0.0029060425
1.8560647e-05
-5.469537e-05
-0.0030220214
1.754599e-05
-5.8433192e-05
-0.0030770059
6.2887998e-06
-6.06367e-05
-0.0031037956
3.3997045e-06
-6.1425418e-05
-0.0031120076
2.6852902e-06
-6.1653349e-05
-0.0031134163
2.7728595e-06
-6.1655841e-05
-0.0031129114
2.8776139e-06
-6.1595469e-05
-0.0031122033
2.9359304e-06
-6.1522656e-05
-0.0031116009
2.9456739e-06
-6.1456158e-05
-0.0031111562
2.893161e-06
-6.1398543e-05
-0.0031108886
2.7078497e-06
-6.1333064e-05
-0.0031107368
1.6154712e-06
-6.1210884e-05
-0.0031104219
-1.7421771e-06
-6.0875446e-05
-0.0031082506
-1.3531815e-05
-5.9997064e-05
-0.0030993572
-1.5150723e-05
-5.7728482e-05
-0.0030720076
-5.425692e-05
-5.3957969e-05
-0.0030166256
-2.0057847e-05
-5.0386614e-05
-0.0029004963
-7.7880961e-05
-4.9243208e-05
-0.0027481754
-3.7359059e-06
-4.6957021e-05
-0.0025514532
-3.4904445e-05
-2.9244304e-05
-0.0023969508
3.6691106e-05
-0.0023093796
3.3988982e-06
-0.0023808435
-4.9784837e-05
8.2763173e-05
-0.0025044518
-8.1379963e-05
1.9299521e-05
-0.0026673362
-9.6154897e-05
5.5779614e-05
-0.0027809123
-0.00010374507
1.2356852e-05
-0.0028663256
-0.000109568
1.3249535e-05
-0.0028955926
-0.00011237508
1.7625859e-06
-0.0029048365
-0.00011349594
1.1000146e-06
-0.0029010903
-0.00011330349
1.64095e-06
-0.0028958709
-0.00011300513
3.1147972e-06
-0.002892114
-0.00011274043
4.1421525e-06
-0.0028903556
-0.00011259663
4.9110446e-06
-0.0028898542
-0.00011252649
5.4595544e-06
-0.0028900382
-0.00011249573
5.8750544e-06
-0.0028905396
-0.00011247847
6.2085152e-06
-0.002891186
-0.00011246345
6.4853257e-06
-0.0028919317
-0.0001124469
6.7251251e-06
-0.0028927216
-0.00011242365
6.898101e-06
-0.0028935179
-0.00011239339
6.9959742e-06
-0.0028943556
-0.00011236106
7.030406e-06
-0.0028952388
-0.00011233236
7.0135782e-06
-0.0028961536
-0.00011230646
6.9289563e-06
-0.0028970857
-0.00011228438
6.7894333e-06
-0.0028980528
-0.00011226991
6.605719e-06
-0.0028990631
-0.00011226797
6.3934617e-06
-0.0029001014
-0.00011227618
6.146668e-06
-0.0029011529
-0.00011229245
5.8682708e-06
-0.0029022259
-0.00011231731
5.5964107e-06
-0.002903351
-0.00011235309
5.3314461e-06
-0.0029044894
-0.00011239646
5.0625533e-06
-0.002905625
-0.00011244471
4.7916803e-06
-0.0029067826
-0.00011249868
4.5310287e-06
-0.0029079532
-0.00011255931
4.2876061e-06
-0.002909143
-0.00011262279
4.0615321e-06
-0.0029103284
-0.00011268543
3.841909e-06
-0.002911501
-0.00011274732
3.6447442e-06
-0.0029126909
-0.00011281023
3.4552048e-06
-0.0029138642
-0.00011287113
3.2714839e-06
-0.0029150348
-0.00011292933
3.1087718e-06
-0.0029161923
-0.00011298587
2.9612557e-06
-0.0029173333
-0.0001130414
2.8084511e-06
-0.0029184461
-0.00011309333
2.6495744e-06
-0.0029195323
-0.00011314294
2.5028894e-06
-0.0029206025
-0.00011318931
2.370654e-06
-0.0029216387
-0.0001132317
2.2807773e-06
-0.0029226827
-0.00011327416
2.2833707e-06
-0.0029237946
-0.00011332533
2.4831234e-06
-0.0029251515
-0.00011339382
2.9274164e-06
-0.0029271056
-0.00011350479
3.8113484e-06
-0.0029302333
-0.0001136916
3.7414809e-06
-0.002935276
-0.00011400247
2.4462924e-06
-0.0029416877
-0.00011434794
-9.8286996e-06
-0.0029464807
-0.00011458775
-9.5397327e-06
-0.0029379581
-0.00011349412
-5.4212078e-05
-0.0029089591
-0.00011069026
-1.7751076e-05
-0.0028228012
-0.00010483082
-8.2711213e-05
-0.0027078739
-9.7180068e-05
-2.6047186e-06
-0.0025427273
-8.2238687e-05
-0.0024173273
-5.0196585e-05
-2.3592305e-05
-0.002348721
-5.9523029e-05
-1.2237693e-05
-0.0024639512
-9.0130696e-05
-8.3717028e-06
-0.0026049791
-0.00010676076
4.1148665e-06
-0.002719606
-0.00011568179
2.7807688e-06
-0.0027869382
-0.00012068684
2.704519e-06
-0.002814674
-0.0001232078
1.6597499e-07
-0.0028197634
-0.00012417878
-1.2598357e-06
-0.0028160806
-0.00012418122
-1.8873279e-06
-0.0028107068
-0.00012394171
-2.0277463e-06
-0.002806413
-0.0001236799
-2.0805426e-06
-0.0028035601
-0.00012349267
-2.1452618e-06
-0.0028017143
-0.00012337249
-2.2452653e-06
-0.0028003999
-0.00012329464
-2.4136568e-06
-0.0027992772
-0.00012323711
-2.5458275e-06
-0.0027983178
-0.0001231887
-2.6510072e-06
-0.0027973564
-0.000123141
-2.8487719e-06
-0.0027962444
-0.00012309013
-3.0039282e-06
-0.0027952535
-0.00012303745
-3.116014e-06
-0.0027942394
-0.00012298182
-3.2826894e-06
-0.0027931032
-0.00012292244
-3.5094352e-06
-0.0027919459
-0.00012286213
-3.6622885e-06
-0.0027909119
-0.00012279953
-3.8730801e-06
-0.0027897463
-0.0001227338
-4.0826797e-06
-0.0027886236
-0.00012266782
-4.3119644e-06
-0.0027874973
-0.0001226018
-4.5576317e-06
-0.0027863625
-0.00012253487
-4.8211384e-06
-0.0027852218
-0.00012246797
-5.1459647e-06
-0.0027840539
-0.00012240387
-5.4242955e-06
-0.0027830003
-0.00012234644
-5.6595611e-06
-0.0027819596
-0.00012229454
-5.9376028e-06
-0.0027808265
-0.00012224647
-6.2436505e-06
-0.0027797141
-0.00012220573
-6.4908306e-06
-0.0027787293
-0.00012217636
-6.6663995e-06
-0.0027777684
-0.00012215745
-6.8523315e-06
-0.0027767301
-0.00012214704
-7.0381776e-06
-0.00277572
-0.00012214689
-7.1254559e-06
-0.0027748399
-0.00012215851
-7.1088088e-06
-0.0027739915
-0.00012217869
-7.0736167e-06
-0.0027730714
-0.00012220261
-7.0159921e-06
-0.0027721841
-0.00012222908
-6.8467664e-06
-0.0027714286
-0.0001222585
-6.5779619e-06
-0.0027707042
-0.00012228622
-6.2907345e-06
-0.0027699116
-0.00012230731
-5.9881266e-06
-0.0027691651
-0.00012232353
-5.595031e-06
-0.0027685934
-0.00012233935
-5.1416921e-06
-0.0027681324
-0.00012235921
-4.627573e-06
-0.0027679737
-0.00012239462
-4.0828419e-06
-0.0027684309
-0.00012246936
-3.6107117e-06
-0.0027699771
-0.00012260905
-3.6107137e-06
-0.0027730494
-0.00012282152
-4.3944614e-06
-0.0027772952
-0.0001230113
-6.277428e-06
-0.0027799924
-0.00012296116
-5.7423148e-06
-0.0027741707
-0.00012195703
-6.4632624e-06
-0.0027461798
-0.00011942486
6.4029165e-06
-0.0026793341
-0.00011444432
1.0733618e-05
-0.0025660663
-0.00010560066
2.2389117e-05
-0.0024269438
-8.9163547e-05
1.3872298e-05
-0.0023133516
-5.89751e-05
-0.0022775504
-1.795686e-05
-0.0022405945
-1.6513407e-05
-2.0442529e-05
-0.0022190404
-9.2345167e-06
-1.2319546e-05
-0.0022088302
-3.9454441e-06
-6.2647901e-06
-0.002200685
-2.9646121e-06
-5.1805898e-06
-0.0021973505
-7.9421299e-07
-2.540243e-06
-0.0021946571
-6.4613307e-07
-2.0472641e-06
-0.0021939821
1.4750803e-07
-8.2248991e-07
-0.0021937507
2.5723739e-07
-4.8864517e-07
-0.0021938042
3.3943245e-07
-2.8592814e-07
-0.0021938826
3.3103205e-07
-2.5261118e-07
-0.0021939768
3.3237081e-07
-2.3823878e-07
-0.0021940681
3.3133606e-07
-2.4001161e-07
-0.0021941626
3.3538621e-07
-2.4088997e-07
-0.002194264
3.4186626e-07
-2.40476e-07
-0.0021943715
3.4868855e-07
-2.4118991e-07
-0.0021944811
3.5453918e-07
-2.4491994e-07
-0.0021945929
3.6015584e-07
-2.4832242e-07
-0.0021947103
3.6682447e-07
-2.4947795e-07
-0.0021948337
3.7416463e-07
-2.5077902e-07
-0.0021949612
3.8111913e-07
-2.5359883e-07
-0.002195093
3.8818048e-07
-2.5634656e-07
-0.0021952314
3.9617881e-07
-2.5777489e-07
-0.0021953783
4.0517818e-07
-2.5828945e-07
-0.0021955321
4.1445676e-07
-2.6068203e-07
-0.0021956912
4.2249272e-07
-2.6336586e-07
-0.0021958587
4.3172702e-07
-2.6426252e-07
-0.0021960368
4.4352889e-07
-2.6546366e-07
-0.0021962253
4.5502239e-07
-2.6646124e-07
-0.002196423
4.6554594e-07
-2.678157e-07
-0.0021966306
4.7670233e-07
-2.6914482e-07
-0.0021968522
4.8963119e-07
-2.6803819e-07
-0.0021970901
5.0439517e-07
-2.6652253e-07
-0.0021973419
5.1860974e-07
-2.6680667e-07
-0.0021976079
5.3293233e-07
-2.6693898e-07
-0.0021978912
5.4891725e-07
-2.655936e-07
-0.0021981936
5.6554087e-07
-2.6314712e-07
-0.0021985163
5.8296242e-07
-2.6026945e-07
-0.0021988608
6.013082e-07
-2.568284e-07
-0.0021992298
6.2168729e-07
-2.5263016e-07
-0.0021996257
6.434952e-07
-2.4758759e-07
-0.0022000493
6.6506482e-07
-2.4143784e-07
-0.0022005025
6.871492e-07
-2.3401128e-07
-0.0022009892
7.1255569e-07
-2.2588675e-07
-0.002201514
7.4020221e-07
-2.1537468e-07
-0.0022020783
7.6697296e-07
-2.0262063e-07
-0.0022026833
7.9521695e-07
-1.9026982e-07
-0.0022033331
8.2657526e-07
-1.767047e-07
-0.0022040329
8.5970669e-07
-1.5998898e-07
-0.0022047861
8.9383761e-07
-1.4061091e-07
9.290477e-07
-1.1828915e-07
0.0022373396
1.8452476e-06
-9.8780395e-08
0.0022365806
1.7749124e-06
-1.22117e-07
0.0022358753
1.7077885e-06
-1.4280391e-07
0.0022352193
1.6431373e-06
-1.6054543e-07
0.0022346083
1.5819861e-06
-1.7576948e-07
0.0022340402
1.5260808e-06
-1.9096227e-07
0.0022335131
1.4726648e-06
-2.0541708e-07
0.0022330214
1.4193058e-06
-2.1504896e-07
0.0022325636
1.3695285e-06
-2.2449927e-07
0.0022321385
1.3248254e-06
-2.3475204e-07
0.0022317411
1.2826231e-06
-2.4171788e-07
0.0022313694
1.2406141e-06
-2.4721992e-07
0.0022310224
1.2003341e-06
-2.5195198e-07
0.0022306982
1.164012e-06
-2.5685292e-07
0.0022303937
1.1300581e-06
-2.6008108e-07
0.0022301082
1.0968e-06
-2.6238547e-07
0.0022298401
1.0654496e-06
-2.6440046e-07
0.0022295887
1.0365331e-06
-2.664652e-07
0.0022293527
1.0082514e-06
-2.678924e-07
0.0022291296
9.803724e-07
-2.6763456e-07
0.0022289195
9.5458675e-07
-2.6777088e-07
0.0022287208
9.3243348e-07
-2.682555e-07
0.0022285328
9.1123522e-07
-2.6815767e-07
0.0022283548
8.8859065e-07
-2.6709455e-07
0.0022281845
8.6650543e-07
-2.6443042e-07
0.0022280239
8.4751516e-07
-2.644399e-07
0.0022278724
8.3027667e-07
-2.6438454e-07
0.0022277261
8.128241e-07
-2.6130056e-07
0.0022275864
7.9550718e-07
-2.5961703e-07
0.0022274535
7.7947811e-07
-2.584398e-07
0.0022273263
7.6504401e-07
-2.5672079e-07
0.0022272043
7.5116077e-07
-2.5492365e-07
0.0022270866
7.3697498e-07
-2.5250361e-07
0.0022269729
7.2386902e-07
-2.5004188e-07
0.0022268636
7.1252263e-07
-2.4867783e-07
0.0022267564
7.0152611e-07
-2.4564793e-07
0.0022266477
6.9138126e-07
-2.4079728e-07
0.0022265314
6.8472524e-07
-2.3302817e-07
0.0022263912
6.8560589e-07
-2.1405181e-07
0.0022262041
6.9341765e-07
-1.7397758e-07
0.0022259464
6.9668264e-07
-1.0794254e-07
0.002225652
6.5504675e-07
-2.1185063e-08
0.0022254463
4.7701012e-07
-1.4088958e-08
0.0022257535
3.3487633e-08
-1.9316144e-07
0.0022268159
-7.4068549e-07
-9.6785097e-07
0.0022296362
-1.632057e-06
-1.9824165e-06
0.0022344171
-3.1321448e-06
-4.6134535e-06
0.0022446769
-5.7274434e-06
-8.4777532e-06
0.0022676537
-1.294035e-05
-1.9271006e-05
-2.3206333e-05
-3.9004947e-05
-2.0939064e-05
-0.0023740382
-5.51728e-05
-1.32704e-05
-0.002507763
-6.5971888e-05
-5.0397884e-06
-0.002615329
-7.2235755e-05
5.9543691e-07
-0.0026763061
-7.5508908e-05
3.2108133e-06
-0.0026998019
-7.6984165e-05
4.0833725e-06
-0.0027033983
-7.7466614e-05
4.1954531e-06
-0.0026999384
-7.7468925e-05
4.2940306e-06
-0.0026958126
-7.7335407e-05
4.5434328e-06
-0.0026930204
-7.7206024e-05
4.9085453e-06
-0.0026916759
-7.712017e-05
5.3212895e-06
-0.0026913159
-7.7070585e-05
5.7364711e-06
-0.0026915065
-7.704102e-05
6.128587e-06
-0.0026919682
-7.7017344e-05
6.513527e-06
-0.0026925577
-7.6992306e-05
6.8088083e-06
-0.0026932454
-7.6961533e-05
7.0086862e-06
-0.002693979
-7.6925087e-05
7.1818325e-06
-0.0026947178
-7.6883965e-05
7.3243398e-06
-0.0026954862
-7.6840416e-05
7.3613354e-06
-0.0026963119
-7.6796457e-05
7.2951276e-06
-0.0026971699
-7.6755454e-05
7.2044856e-06
-0.0026980292
-7.6720083e-05
7.0960054e-06
-0.0026989187
-7.6692847e-05
6.9038008e-06
-0.0026998635
-7.6674393e-05
6.6375613e-06
-0.0027008356
-7.6666572e-05
6.3807251e-06
-0.0027018029
-7.6669588e-05
6.1421579e-06
-0.002702793
-7.668252e-05
5.8558243e-06
-0.0027038363
-7.6703825e-05
5.5290773e-06
-0.0027048999
-7.6732945e-05
5.2419753e-06
-0.0027059445
-7.6768687e-05
5.0000919e-06
-0.0027070021
-7.6809938e-05
4.735062e-06
-0.0027081019
-7.6854782e-05
4.4816423e-06
-0.0027092066
-7.6902535e-05
4.2422872e-06
-0.002710307
-7.6950955e-05
4.0173809e-06
-0.002711399
-7.6999635e-05
3.8048307e-06
-0.0027124866
-7.7047167e-05
3.5634421e-06
-0.0027135761
-7.7094377e-05
3.4207782e-06
-0.0027146638
-7.7139404e-05
3.2445033e-06
-0.0027157449
-7.7182006e-05
3.04138e-06
-0.002716814
-7.7222262e-05
2.882231e-06
-0.0027178329
-7.7261376e-05
2.7640474e-06
-0.0027188288
-7.7297397e-05
2.5714494e-06
-0.0027198326
-7.7331162e-05
2.4242635e-06
-0.0027208077
-7.7362915e-05
2.3222203e-06
-0.0027217801
-7.7395099e-05
2.1690148e-06
-0.0027228165
-7.7430182e-05
1.9859993e-06
-0.0027240543
-7.7476996e-05
1.7338503e-06
-0.0027257598
-7.7548099e-05
1.3501615e-06
-0.0027283694
-7.7659898e-05
8.0440709e-07
-0.0027323434
-7.7817645e-05
2.6931039e-07
-0.0027375623
-7.7983257e-05
5.0886082e-07
-0.0027419894
-7.8013594e-05
2.5275984e-06
-0.0027391329
-7.7559872e-05
7.629329e-06
-0.0027159402
-7.609972e-05
1.539507e-05
-0.0026545522
-7.2819491e-05
2.263425e-05
-0.0025457067
-6.6511629e-05
2.4444866e-05
-0.0024101554
-5.5606459e-05
-0.0023022408
-3.9236281e-05
-1.4052285e-05
-0.0022788303
-1.9190181e-05
-1.3613298e-05
-0.0023848445
-2.574989e-05
-1.0344087e-05
-0.0025180566
-3.0919296e-05
-6.3223328e-06
-0.0026245091
-3.4064903e-05
-3.1460647e-06
-0.0026836049
-3.5511599e-05
-1.4033863e-06
-0.0027049196
-3.595592e-05
-8.5967493e-07
-0.0027065717
-3.5961353e-05
-9.7870053e-07
-0.0027016095
-3.5833771e-05
-1.3472128e-06
-0.002696271
-3.5703956e-05
-1.7053823e-06
-0.002692398
-3.5613255e-05
-1.9851361e-06
-0.0026899206
-3.5559531e-05
-2.1978859e-06
-0.0026883124
-3.552919e-05
-2.3707689e-06
-0.0026871333
-3.5510303e-05
-2.5266967e-06
-0.0026861289
-3.549527e-05
-2.6800025e-06
-0.0026851746
-3.5479847e-05
-2.8312436e-06
-0.0026842179
-3.5463475e-05
-2.9795104e-06
-0.0026832351
-3.5445394e-05
-3.1440465e-06
-0.0026822441
-3.5424265e-05
-3.3272475e-06
-0.00268123
-3.5400815e-05
-3.510944e-06
-0.0026801842
-3.5376949e-05
-3.6986011e-06
-0.002679125
-3.5351155e-05
-3.9037947e-06
-0.0026780484
-3.5322533e-05
-4.1212929e-06
-0.0026769773
-3.5291848e-05
-4.3565219e-06
-0.0026759036
-3.5260215e-05
-4.6037801e-06
-0.0026748318
-3.5227856e-05
-4.8683443e-06
-0.0026737459
-3.5196123e-05
-5.1403402e-06
-0.0026726642
-3.5165781e-05
-5.4176106e-06
-0.002671587
-3.5137776e-05
-5.715282e-06
-0.0026705347
-3.5112106e-05
-6.025951e-06
-0.0026694974
-3.5091827e-05
-6.3229543e-06
-0.0026684601
-3.5079236e-05
-6.5993032e-06
-0.0026674424
-3.5074297e-05
-6.8616018e-06
-0.0026664637
-3.5076938e-05
-7.1156638e-06
-0.0026654924
-3.508915e-05
-7.3162615e-06
-0.0026645497
-3.5113224e-05
-7.4531342e-06
-0.0026636344
-3.5147484e-05
-7.5470002e-06
-0.0026627459
-3.5189431e-05
-7.5912219e-06
-0.0026618866
-3.5239026e-05
-7.5533784e-06
-0.0026610549
-3.5294892e-05
-7.4311778e-06
-0.002660255
-3.535336e-05
-7.2530927e-06
-0.0026594856
-3.5410224e-05
-7.0216926e-06
-0.0026587463
-3.546405e-05
-6.7144826e-06
-0.0026580391
-3.5513473e-05
-6.3448585e-06
-0.0026573714
-3.5555887e-05
-5.9433795e-06
-0.0026567803
-3.5589325e-05
-5.5287852e-06
-0.0026563049
-3.5616221e-05
-5.1264971e-06
-0.0026560776
-3.5640604e-05
-4.7686833e-06
-0.002656363
-3.5670652e-05
-4.473716e-06
-0.0026575967
-3.5718705e-05
-4.1797437e-06
-0.0026603073
-3.5799239e-05
-3.6374366e-06
-0.0026645675
-3.5913232e-05
-2.4458654e-06
-0.0026685697
-3.6020212e-05
-8.4166479e-08
-0.0026661721
-3.5991504e-05
3.6721703e-06
-0.0026445357
-3.5526779e-05
8.2327669e-06
-0.0025858221
-3.406751e-05
1.2008651e-05
-0.0024806159
-3.0923075e-05
-0.0023491946
-2.5775305e-05
-5.0207206e-06
-0.0023391783
-1.0723031e-05
-3.0638945e-06
-0.0024702168
-1.2355888e-05
-7.2366404e-07
-0.0025750752
-1.3087123e-05
1.3682137e-06
-0.0026334971
-1.3130481e-05
2.8520114e-06
-0.0026547623
-1.2893586e-05
3.7158932e-06
-0.0026567929
-1.2640635e-05
4.2014802e-06
-0.0026525941
-1.2458964e-05
4.5334111e-06
-0.0026482894
-1.2349829e-05
4.8658142e-06
-0.0026456376
-1.2291473e-05
5.2443696e-06
-0.002644481
-1.2260579e-05
5.6574724e-06
-0.0026442514
-1.2239288e-05
6.0781788e-06
-0.002644509
-1.2216641e-05
6.4830338e-06
-0.0026449979
-1.2187288e-05
6.8571595e-06
-0.0026455966
-1.2148924e-05
7.1644789e-06
-0.0026462457
-1.2100762e-05
7.4133035e-06
-0.0026469505
-1.2044632e-05
7.5940551e-06
-0.0026476835
-1.1982885e-05
7.7051339e-06
-0.0026484482
-1.1917909e-05
7.7436417e-06
-0.0026492414
-1.1852007e-05
7.711267e-06
-0.0026500659
-1.1788361e-05
7.6150317e-06
-0.0026509197
-1.1729926e-05
7.4615171e-06
-0.0026518019
-1.1678958e-05
7.255354e-06
-0.002652707
-1.1636554e-05
7.0068088e-06
-0.0026536399
-1.1603943e-05
6.7277379e-06
-0.0026546019
-1.1582714e-05
6.4434604e-06
-0.0026555872
-1.1570918e-05
6.1470098e-06
-0.0026565964
-1.1567256e-05
5.8303598e-06
-0.0026576098
-1.1570966e-05
5.5253882e-06
-0.0026586476
-1.1582113e-05
5.2390224e-06
-0.0026597024
-1.1598248e-05
4.958147e-06
-0.0026607661
-1.1617216e-05
4.6869959e-06
-0.0026618366
-1.1638087e-05
4.4233505e-06
-0.0026629077
-1.1660469e-05
4.1821781e-06
-0.0026639789
-1.1683473e-05
3.9611893e-06
-0.0026650498
-1.1706478e-05
3.7634951e-06
-0.0026661228
-1.1727859e-05
3.5725661e-06
-0.0026671872
-1.1746909e-05
3.387752e-06
-0.0026682358
-1.1763585e-05
3.2034995e-06
-0.002669267
-1.1778804e-05
3.0282925e-06
-0.002670276
-1.179287e-05
2.876296e-06
-0.0026712778
-1.1805326e-05
2.7225125e-06
-0.002672249
-1.1815097e-05
2.5662632e-06
-0.0026731957
-1.1822599e-05
2.4036415e-06
-0.0026741383
-1.1827915e-05
2.2237039e-06
-0.0026751212
-1.1832194e-05
2.0080442e-06
-0.0026762601
-1.1836568e-05
1.7358444e-06
-0.002677802
-1.1846346e-05
1.4021697e-06
-0.0026801929
-1.1871408e-05
1.0592373e-06
-0.0026839981
-1.1929946e-05
8.6985946e-07
-0.0026893744
-1.2045745e-05
1.0689336e-06
-0.0026945293
-1.224149e-05
1.908522e-06
-0.0026932445
-1.2514695e-05
3.3835832e-06
-0.0026723029
-1.2777015e-05
5.139374e-06
-0.0026135015
-1.2763425e-05
6.5508764e-06
-0.002507403
-1.2065058e-05
6.7513721e-06
-0.0023745822
-1.0462723e-05
-0.0022683237
-8.225918e-06
-4.1268023e-06
-0.0022633808
-4.2999476e-06
-3.6281836e-06
-0.0023709311
-4.1497599e-06
-2.5917787e-06
-0.0025045418
-3.8976327e-06
-1.5048455e-06
-0.0026113157
-3.2726567e-06
-7.4218468e-07
-0.0026705456
-2.5199755e-06
-4.7914438e-07
-0.0026916024
-1.9051543e-06
-6.4118318e-07
-0.002692861
-1.5062452e-06
-1.0155227e-06
-0.0026877125
-1.2875683e-06
-1.4107889e-06
-0.0026824174
-1.1854472e-06
-1.7495944e-06
-0.0026787078
-1.1462946e-06
-2.0173125e-06
-0.0026763989
-1.1354225e-06
-2.2306207e-06
-0.0026749117
-1.1351055e-06
-2.4113679e-06
-0.0026738039
-1.1366151e-06
-2.575677e-06
-0.002672837
-1.1370628e-06
-2.7337167e-06
-0.002671902
-1.1356731e-06
-2.8921866e-06
-0.0026709585
-1.1320653e-06
-3.0551753e-06
-0.0026699888
-1.1259916e-06
-3.2229419e-06
-0.0026689903
-1.1179934e-06
-3.3992679e-06
-0.0026679827
-1.107918e-06
-3.5781412e-06
-0.0026669603
-1.096644e-06
-3.7732946e-06
-0.0026659085
-1.0834705e-06
-3.9814257e-06
-0.0026648461
-1.0685486e-06
-4.2058174e-06
-0.0026637741
-1.0513233e-06
-4.453567e-06
-0.0026626986
-1.0326278e-06
-4.7116635e-06
-0.0026616359
-1.0137214e-06
-4.9780625e-06
-0.0026605745
-9.9568951e-07
-5.2635974e-06
-0.0026595019
-9.7866769e-07
-5.5617468e-06
-0.0026584404
-9.6387832e-07
-5.8700131e-06
-0.0026573876
-9.5172625e-07
-6.1873177e-06
-0.0026563475
-9.4501307e-07
-6.5007602e-06
-0.0026553379
-9.4502535e-07
-6.7893414e-06
-0.0026543458
-9.5279229e-07
-7.0654334e-06
-0.002653357
-9.6874767e-07
-7.3193957e-06
-0.0026523917
-9.9421465e-07
-7.5278743e-06
-0.0026514679
-1.0305568e-06
-7.6860864e-06
-0.0026505671
-1.0766081e-06
-7.7843569e-06
-0.0026496899
-1.1315049e-06
-7.81543e-06
-0.0026488408
-1.1940538e-06
-7.7708845e-06
-0.0026480248
-1.2611382e-06
-7.6608866e-06
-0.0026472277
-1.330517e-06
-7.4845211e-06
-0.0026464609
-1.3990114e-06
-7.2318588e-06
-0.0026457387
-1.464461e-06
-6.9088433e-06
-0.0026450452
-1.5235137e-06
-6.5417303e-06
-0.0026443896
-1.5740999e-06
-6.1376516e-06
-0.0026437874
-1.6145657e-06
-5.7131626e-06
-0.0026432878
-1.6456163e-06
-5.2920847e-06
-0.0026430046
-1.6678336e-06
-4.9036466e-06
-0.0026431841
-1.6853214e-06
-4.5710485e-06
-0.0026442633
-1.7068896e-06
-4.2859656e-06
-0.0026468239
-1.7506368e-06
-3.9780625e-06
-0.0026510519
-1.850123e-06
-3.465551e-06
-0.0026552472
-2.0582374e-06
-2.5447722e-06
-0.0026532448
-2.4382228e-06
-1.1494789e-06
-0.0026318673
-3.0250702e-06
5.3688999e-07
-0.0025730232
-3.7383618e-06
2.1285793e-06
-0.0024674968
-4.3116913e-06
-0.0023356757
-4.506166e-06
-9.420244e-07
-0.0023347237
-1.6420382e-06
4.6865393e-07
-0.0024678919
-1.015595e-06
1.9648237e-06
-0.0025743706
-1.487531e-07
3.1006225e-06
-0.0026337067
7.0356758e-07
3.7530915e-06
-0.0026552439
1.3465549e-06
4.0792934e-06
-0.0026573155
1.7421611e-06
4.3022757e-06
-0.00265322
1.9451578e-06
4.5606771e-06
-0.0026491141
2.0317852e-06
4.8951555e-06
-0.0026466617
2.0638364e-06
5.2914386e-06
-0.0026456588
2.0784119e-06
5.7179794e-06
-0.0026455243
2.0931412e-06
6.1447134e-06
-0.0026458292
2.1146726e-06
6.5480307e-06
-0.0026463373
2.1465909e-06
6.9080672e-06
-0.0026469376
2.1879009e-06
7.2283325e-06
-0.0026476048
2.2393126e-06
7.4811027e-06
-0.0026482908
2.2993426e-06
7.663631e-06
-0.0026490093
2.3659015e-06
7.7737636e-06
-0.0026497736
2.4357391e-06
7.8121231e-06
-0.0026505695
2.5063323e-06
7.7803383e-06
-0.0026513837
2.5747696e-06
7.6809224e-06
-0.002652229
2.6385018e-06
7.5211075e-06
-0.0026531023
2.6950552e-06
7.3119579e-06
-0.0026540007
2.7419136e-06
7.0643346e-06
-0.0026549237
2.7795581e-06
6.7882675e-06
-0.0026558874
2.8064488e-06
6.4928057e-06
-0.002656874
2.8236861e-06
6.1863908e-06
-0.0026578644
2.8328558e-06
5.8817257e-06
-0.0026588769
2.8340657e-06
5.5680983e-06
-0.0026599033
2.8292706e-06
5.2689142e-06
-0.0026609599
2.818753e-06
4.9883434e-06
-0.0026620264
2.805138e-06
4.7110815e-06
-0.0026630871
2.7897669e-06
4.4542181e-06
-0.0026641519
2.7728433e-06
4.2134538e-06
-0.0026652135
2.7556673e-06
3.9888915e-06
-0.002666288
2.7384514e-06
3.7782739e-06
-0.0026673587
2.723129e-06
3.5797312e-06
-0.0026684197
2.7097353e-06
3.3935292e-06
-0.0026694718
2.6977131e-06
3.2184725e-06
-0.0026704949
2.6872383e-06
3.0552596e-06
-0.0026715059
2.6787899e-06
2.8849947e-06
-0.0026724908
2.6722776e-06
2.7244578e-06
-0.0026734657
2.6677354e-06
2.5659071e-06
-0.0026744086
2.6651173e-06
2.4025024e-06
-0.0026753385
2.6650032e-06
2.2244161e-06
-0.002676293
2.6672039e-06
2.0167403e-06
-0.0026773754
2.671374e-06
1.7570652e-06
-0.0026788149
2.6757337e-06
1.4204116e-06
-0.0026810449
2.6737846e-06
9.9865676e-07
-0.0026846434
2.6477794e-06
5.387888e-07
-0.0026898129
2.5602997e-06
1.8792618e-07
-0.0026948584
2.3482539e-06
1.7865884e-07
-0.002693528
1.9348863e-06
6.7764811e-07
-0.0026723085
1.2639629e-06
1.571231e-06
-0.0026125801
3.7082554e-07
2.4241752e-06
-0.0025048428
-5.5192521e-07
2.6052355e-06
-0.0023698696
-1.2425798e-06
-0.0022604267
-1.6286691e-06
-1.6988767e-06
-0.0022592567
-6.0013286e-07
-1.6539477e-06
-0.0023699971
8.2573121e-08
-1.0583153e-06
-0.0025061625
7.2402963e-07
-4.0198822e-07
-0.0026146684
1.4319225e-06
-9.4664653e-08
-0.0026747275
2.1116354e-06
-2.2303022e-07
-0.0026960428
2.6431433e-06
-6.1753076e-07
-0.0026974485
2.9846159e-06
-1.0714175e-06
-0.0026925224
3.1633456e-06
-1.4680307e-06
-0.0026874819
3.2351547e-06
-1.7800463e-06
-0.002683986
3.2530964e-06
-2.0227344e-06
-0.002681823
3.2507983e-06
-2.221148e-06
-0.0026804215
3.244514e-06
-2.3951673e-06
-0.0026793584
3.2394567e-06
-2.5572975e-06
-0.0026784133
3.2369145e-06
-2.7160928e-06
-0.002677487
3.2371984e-06
-2.8769193e-06
-0.0026765445
3.2396815e-06
-3.0419058e-06
-0.00267557
3.2441663e-06
-3.2104729e-06
-0.0026745878
3.2504883e-06
-3.3804683e-06
-0.0026735837
3.2588143e-06
-3.5736046e-06
-0.0026725481
3.2693651e-06
-3.7794644e-06
-0.002671495
3.2811543e-06
-3.9903368e-06
-0.002670442
3.2941811e-06
-4.2081074e-06
-0.0026693794
3.3092354e-06
-4.4483752e-06
-0.0026682993
3.3260612e-06
-4.7052448e-06
-0.0026672382
3.3431929e-06
-4.9772373e-06
-0.002666175
3.3599741e-06
-5.2625113e-06
-0.0026651165
3.3753227e-06
-5.5608941e-06
-0.0026640503
3.3887828e-06
-5.8687161e-06
-0.0026629942
3.3987573e-06
-6.1784907e-06
-0.0026619707
3.4035383e-06
-6.48445e-06
-0.0026609605
3.4020896e-06
-6.7790577e-06
-0.0026599725
3.3930912e-06
-7.0549525e-06
-0.0026589872
3.3757029e-06
-7.297194e-06