/*--------------------------------*- C++ -*----------------------------------*\
| =========                 |                                                 |
| \\      /  F ield         | OpenFOAM: The Open Source CFD Toolbox           |
|  \\    /   O peration     | Version:  v2012                                 |
|   \\  /    A nd           | Website:  www.openfoam.com                      |
|    \\/     M anipulation  |                                                 |
\*---------------------------------------------------------------------------*/
FoamFile
{
    version     2.0;
    format      ascii;
    class       volVectorField;
    location    "200";
    object      U;
}
// * * * * * * * * * * * * * * * * * * * * * * * * * * * * * * * * * * * * * //

dimensions      [0 1 -1 0 0 0 0];


internalField   nonuniform List<vector> 
75385
(
(5.0302544 -0.00021996712 0.00023950014)
(5.0302805 -0.00020983734 0.0002321904)
(5.030321 -0.0001993677 0.00022550025)
(5.0303732 -0.00018945067 0.00021935536)
(5.0304351 -0.00018049635 0.00021358222)
(5.0305047 -0.00017252183 0.0002081043)
(5.0305796 -0.00016547452 0.00020287935)
(5.0306582 -0.00015928735 0.00019787851)
(5.0307389 -0.00015386829 0.0001930964)
(5.0308204 -0.00014912325 0.00018851637)
(5.0309016 -0.00014497411 0.00018415332)
(5.0309816 -0.00014135843 0.0001799928)
(5.0310596 -0.00013820725 0.00017602993)
(5.031135 -0.00013546766 0.00017225836)
(5.0312074 -0.0001330907 0.00016866397)
(5.0312763 -0.00013103546 0.00016523244)
(5.0313414 -0.00012923629 0.00016198614)
(5.0314026 -0.00012768486 0.00015890386)
(5.0314597 -0.00012634348 0.00015598795)
(5.0315127 -0.00012518474 0.00015322898)
(5.0315617 -0.00012417694 0.00015062969)
(5.0316065 -0.00012330464 0.00014816868)
(5.0316475 -0.00012253464 0.00014584187)
(5.0316845 -0.00012186843 0.00014363198)
(5.0317177 -0.00012127595 0.00014155684)
(5.0317473 -0.0001207597 0.00013960905)
(5.0317735 -0.00012030129 0.0001377975)
(5.0317965 -0.0001198964 0.00013611495)
(5.0318165 -0.00011951168 0.00013456938)
(5.0318339 -0.00011914536 0.00013316795)
(5.0318489 -0.00011877424 0.00013192262)
(5.0318618 -0.00011841619 0.0001307945)
(5.031873 -0.00011807194 0.00012985177)
(5.0318827 -0.0001177834 0.00012876113)
(5.0318916 -0.00011784625 0.00012796045)
(5.0318981 -0.00011769482 0.00012577928)
(5.031905 -0.00011896264 0.00012556804)
(5.031908 -0.00011810491 0.00012330339)
(5.0319151 -0.00011998615 0.00012516749)
(5.0319226 -0.00011830441 0.00012522403)
(5.0319308 -0.00011694873 0.00012536286)
(5.0325818 -0.00036092192 0.00013054361)
(5.0336107 -0.00063360135 0.00013600295)
(5.0350586 -0.00093339793 0.00013863781)
(5.036976 -0.0012666388 0.00014307041)
(5.039327 -0.0016269065 0.00014680595)
(5.0421188 -0.0020129978 0.00015120678)
(5.0452773 -0.0024148501 0.00015535403)
(5.0487918 -0.0028313331 0.00016033757)
(5.0525969 -0.003257927 0.00016466255)
(5.0566481 -0.0036931321 0.00017015674)
(5.0608653 -0.0041347772 0.00017465617)
(5.0651625 -0.004578727 0.00017980217)
(5.0694095 -0.0050216414 0.00018342446)
(5.0734737 -0.0054546676 0.00018485635)
(5.0772192 -0.0058694906 0.0001810122)
(5.0804721 -0.0062441542 0.00016990303)
(5.083029 -0.0065591294 0.00014575987)
(5.0846492 -0.006763493 0.0001019617)
(5.0850749 -0.0068293821 2.407114e-05)
(5.0839563 -0.0066145894 -7.4099428e-05)
(5.0809267 -0.0061371499 -0.00023244273)
(5.0757021 -0.0050665311 -0.00038259319)
(5.068895 -0.0038604818 -0.00060812383)
(5.0622616 -0.0016211723 -0.00037191539)
(5.060254 -0.00040799048 -0.0016208862)
(5.0581977 -0.00088690843 -0.0045193043)
(5.0557637 -0.00079401782 -0.0067759242)
(5.0534682 -0.00075151325 -0.0092648409)
(5.0514216 -0.00061914805 -0.011227477)
(5.0494119 -0.00050474365 -0.012921976)
(5.0472545 -0.00039422182 -0.014249115)
(5.0448568 -0.00030573125 -0.015323109)
(5.0421953 -0.0002332877 -0.016175284)
(5.0393479 -0.0001723583 -0.016848102)
(5.0363621 -0.00011844668 -0.017379044)
(5.033343 -7.4987747e-05 -0.017791131)
(5.0303212 -4.9868957e-05 -0.01812241)
(5.0273214 -3.3307946e-05 -0.018391198)
(5.0242666 -2.5308193e-05 -0.018626871)
(5.0211113 -2.2300922e-05 -0.018839278)
(5.0177876 -2.9233453e-05 -0.01905044)
(5.0143223 -4.3350431e-05 -0.019277931)
(5.0106899 -6.0734925e-05 -0.019543494)
(5.0069374 -8.2550593e-05 -0.019863052)
(5.003107 -0.0001165463 -0.020261075)
(4.9992925 -0.00016000991 -0.020762749)
(4.9955291 -0.00021240807 -0.021382479)
(4.9918574 -0.00027597435 -0.022154255)
(4.9882763 -0.00035529433 -0.023102204)
(4.9847954 -0.00045918141 -0.024300527)
(4.981422 -0.00059698746 -0.025811106)
(4.9782181 -0.00078227957 -0.027768624)
(4.9752017 -0.0010208775 -0.030277407)
(4.9724044 -0.0013289224 -0.033546348)
(4.9697875 -0.0017074445 -0.037717263)
(4.9672578 -0.0021515547 -0.043039168)
(4.9645208 -0.0026304987 -0.049548367)
(4.9611547 -0.0031138995 -0.05739013)
(4.9565063 -0.0035290423 -0.0663465)
(4.949772 -0.0038396097 -0.076287933)
(4.939873 -0.0039333253 -0.086655794)
(4.9251687 -0.0037070509 -0.096819876)
(4.9025827 -0.0028411392 -0.1054926)
(4.8667126 -0.0011272328 -0.11086759)
(4.8097558 0.0019186712 -0.10900684)
(4.7585606 0.0056312177 -0.095822171)
(4.7701099 0.0070756499 -0.07532207)
(4.8226616 0.0061373858 -0.055192398)
(4.8757326 0.0045708815 -0.039694472)
(4.914114 0.0032397346 -0.028404029)
(4.9389102 0.0022675638 -0.020549415)
(4.9538945 0.0015946697 -0.015042547)
(4.9623598 0.0011468595 -0.011204871)
(4.9668125 0.0008486599 -0.008445386)
(4.9688555 0.00064979806 -0.006436041)
(4.9695297 0.00051410238 -0.0049172582)
(4.9694339 0.00042309855 -0.0037461293)
(4.9689492 0.00035844717 -0.0028103705)
(4.9683165 0.00031613969 -0.002060886)
(4.9676402 0.00028400312 -0.0014385315)
(4.967024 0.00026043196 -0.00093526155)
(4.9664955 0.00024121375 -0.0005166389)
(4.9660946 0.00022302213 -0.00016819093)
(4.9663834 0.00071547359 -0.0001749653)
(4.966661 0.001245757 -0.00018439004)
(4.9668542 0.001835148 -0.00018796412)
(4.9669279 0.0024672288 -0.00018457428)
(4.9668356 0.0031019155 -0.00017075825)
(4.9665858 0.003709797 -0.00014795244)
(4.9661969 0.0042479807 -0.00011714974)
(4.9657007 0.0046965233 -7.9606569e-05)
(4.965123 0.0050358449 -3.7820428e-05)
(4.9644879 0.0052586996 6.000306e-06)
(4.963812 0.0053621212 4.9060595e-05)
(4.9631116 0.0053516143 9.0240074e-05)
(4.9624031 0.0052342349 0.00012822778)
(4.9616982 0.0050193204 0.00016210594)
(4.9610094 0.0047198584 0.00019083993)
(4.9603417 0.0043483415 0.00021515411)
(4.9597016 0.0039183363 0.00023443484)
(4.9590904 0.0034414234 0.00024971185)
(4.9585139 0.0029336847 0.00026009325)
(4.9579618 0.0024078417 0.00026609386)
(4.9574461 0.0018906243 0.00026863148)
(4.9569537 0.0013955619 0.00026590915)
(4.9565114 0.00094567611 0.00026226915)
(4.9561211 0.00053892909 0.00025513826)
(4.9558136 0.00017736786 0.00024360378)
(4.9561187 0.00018448563 0.00077881279)
(4.9565185 0.00019679668 0.0013526285)
(4.9569922 0.00020654672 0.0019996965)
(4.9575428 0.00021777079 0.0027146656)
(4.9581464 0.00022638327 0.0034803728)
(4.9588112 0.00023555477 0.0042916977)
(4.9595309 0.00024296631 0.0051267788)
(4.9603085 0.00024926682 0.0059811537)
(4.9611441 0.00025221012 0.0068439377)
(4.9620398 0.00025201448 0.0077051033)
(4.9630015 0.00024772817 0.0085581531)
(4.9640255 0.00023932147 0.0093887474)
(4.9651166 0.00022534603 0.010186799)
(4.9662691 0.00020598741 0.01093281)
(4.9674837 0.00018044743 0.011613099)
(4.9687571 0.00014953858 0.012207837)
(4.9700926 0.00011324829 0.012704239)
(4.9714861 7.3317471e-05 0.013086169)
(4.9729362 3.0898086e-05 0.013347225)
(4.9744407 -1.1631308e-05 0.013480361)
(4.9760047 -5.3200314e-05 0.013490935)
(4.9776228 -9.1684499e-05 0.013380456)
(4.9792982 -0.00012590945 0.013163829)
(4.9810244 -0.00015454325 0.012851062)
(4.982801 -0.0001771608 0.012463166)
(4.984626 -0.00019345467 0.012014107)
(4.9864962 -0.00020413817 0.011524267)
(4.9884053 -0.00020932287 0.011006733)
(4.9903503 -0.00021008465 0.01047819)
(4.9923231 -0.00020672519 0.0099487416)
(4.9943232 -0.00020062526 0.0094299131)
(4.9963417 -0.00019191276 0.0089278704)
(4.9983748 -0.00018200969 0.0084491025)
(5.000412 -0.0001710063 0.0079957591)
(5.0024485 -0.00016009437 0.0075706663)
(5.0044803 -0.0001491432 0.0071724939)
(5.006509 -0.00013933478 0.006800947)
(5.0085215 -0.00013048601 0.0064518311)
(5.0105083 -0.00012313722 0.0061224751)
(5.0124651 -0.00011630742 0.0058101274)
(5.0143897 -0.00011087493 0.0055127718)
(5.01627 -0.00010619559 0.0052268925)
(5.0181029 -0.00010309563 0.0049496051)
(5.0198763 -0.00010095916 0.004677351)
(5.0215842 -0.00010049169 0.0044065435)
(5.0232151 -0.00010089234 0.0041339082)
(5.0247604 -0.00010293958 0.0038560344)
(5.0262086 -0.00010538613 0.0035704938)
(5.0275496 -0.00010886618 0.0032750418)
(5.0287653 -0.00011211296 0.0029681119)
(5.0298417 -0.00011559633 0.0026492354)
(5.0307588 -0.00011821213 0.0023189094)
(5.0314972 -0.00012078104 0.0019804417)
(5.0320341 -0.00012199858 0.0016361668)
(5.0323574 -0.0001232779 0.0012977592)
(5.032466 -0.00012112056 0.00097164641)
(5.0323988 -0.00012212062 0.00066818593)
(5.0322046 -0.00011968723 0.00039056192)
(5.0321892 -0.00011826531 0.00039104094)
(5.0323775 -0.00011919939 0.00067262987)
(5.0324411 -0.00011914963 0.00097928416)
(5.0323277 -0.00011961452 0.001304546)
(5.0320024 -0.00011888022 0.0016440067)
(5.0314689 -0.00011731441 0.0019858912)
(5.0307336 -0.00011513582 0.0023241533)
(5.0298214 -0.0001124302 0.0026539765)
(5.0287481 -0.0001092863 0.0029730572)
(5.027535 -0.00010599356 0.0032807092)
(5.0261961 -0.00010283891 0.0035772236)
(5.0247508 -0.000100408 0.0038635612)
(5.0232076 -9.8764573e-05 0.0041418515)
(5.0215796 -9.8301255e-05 0.0044159685)
(5.0198747 -9.8929022e-05 0.0046884674)
(5.0181051 -0.00010074602 0.0049631068)
(5.0162761 -0.00010380117 0.0052428628)
(5.0144006 -0.00010791895 0.0055318666)
(5.0124808 -0.00011316257 0.0058322735)
(5.0105289 -0.00011947052 0.006147656)
(5.0085473 -0.00012659716 0.006480281)
(5.0065405 -0.00013490101 0.0068329923)
(5.0045176 -0.00014438538 0.0072084702)
(5.002492 -0.00015465296 0.0076111136)
(5.0004617 -0.00016515876 0.0080409772)
(4.9984313 -0.00017549368 0.008499468)
(4.9964051 -0.00018504202 0.0089837053)
(4.994394 -0.00019321462 0.0094915913)
(4.9924007 -0.00019914053 0.010016608)
(4.9904352 -0.0002023005 0.01055271)
(4.988497 -0.00020157479 0.011088076)
(4.9865951 -0.00019650022 0.011612523)
(4.9847316 -0.00018625124 0.012109107)
(4.9829134 -0.00017052516 0.012564807)
(4.981143 -0.00014880463 0.012958759)
(4.979423 -0.0001212151 0.013277019)
(4.9777534 -8.8450241e-05 0.013497998)
(4.976141 -5.1420717e-05 0.013611907)
(4.9745821 -1.1563053e-05 0.013603234)
(4.9730828 2.946605e-05 0.013470917)
(4.9716379 7.0163021e-05 0.013209135)
(4.9702495 0.00010860671 0.012825124)
(4.9689189 0.00014341433 0.01232513)
(4.9676505 0.00017325214 0.011725522)
(4.9664408 0.00019776466 0.011039155)
(4.9652931 0.00021653288 0.010286225)
(4.9642064 0.00022992154 0.0094803229)
(4.9631869 0.0002381646 0.0086413879)
(4.9622294 0.00024223201 0.0077794868)
(4.9613378 0.00024259183 0.0069096003)
(4.9605069 0.00023967969 0.006038556)
(4.9597361 0.00023381754 0.0051783842)
(4.9590219 0.00022658808 0.0043369987)
(4.9583679 0.00021839835 0.0035243522)
(4.9577667 0.00020972275 0.0027506292)
(4.9572264 0.00020004506 0.0020320807)
(4.9567504 0.00019002614 0.0013756907)
(4.9563583 0.00018100457 0.00079035611)
(4.9560531 0.00017912706 0.00025053008)
(4.9561753 0.00017746552 0.00025344122)
(4.9563748 0.00017624588 0.00025209017)
(4.95655 0.00017815658 0.00025554145)
(4.9567475 0.00017823915 0.00025683852)
(4.9569385 0.0001799883 0.00026081808)
(4.9571355 0.00018149197 0.00026360872)
(4.9573295 0.00018335552 0.00026702637)
(4.9575281 0.00018524724 0.00027034365)
(4.9577271 0.0001871411 0.00027385463)
(4.9579319 0.00018902744 0.00027759579)
(4.95814 0.00019093048 0.0002815006)
(4.9583545 0.00019283185 0.0002856546)
(4.9585742 0.00019472668 0.00028998892)
(4.9588012 0.00019659864 0.00029458824)
(4.959035 0.00019846869 0.00029941537)
(4.9592773 0.00020032932 0.00030451866)
(4.9595279 0.0002022005 0.00030985085)
(4.9597882 0.00020403547 0.00031548258)
(4.9600586 0.00020585008 0.00032139403)
(4.9603403 0.00020761215 0.00032763098)
(4.960634 0.00020933791 0.00033417636)
(4.9609409 0.00021100259 0.00034106388)
(4.9612619 0.00021262433 0.00034828365)
(4.9615984 0.00021417526 0.00035587364)
(4.9619515 0.0002156189 0.00036388825)
(4.9623228 0.00021694746 0.00037232819)
(4.9627138 0.00021815484 0.00038117859)
(4.963126 0.00021921367 0.00039050796)
(4.9635611 0.0002200552 0.00040036472)
(4.9640214 0.00022067417 0.00041075675)
(4.9645087 0.0002210713 0.00042167351)
(4.9650254 0.00022121278 0.00043318477)
(4.9655738 0.00022102607 0.000445357)
(4.966157 0.00022046715 0.0004582358)
(4.9667777 0.00021951803 0.00047182411)
(4.9674392 0.00021814198 0.00048615611)
(4.9681448 0.00021624175 0.00050128681)
(4.9688985 0.00021376002 0.00051730317)
(4.9697042 0.00021064073 0.00053423964)
(4.9705666 0.0002068173 0.00055215708)
(4.9714904 0.00020221193 0.00057110677)
(4.9724809 0.00019672752 0.00059115387)
(4.9735436 0.00019027176 0.00061234812)
(4.9746848 0.00018274264 0.00063475544)
(4.9759108 0.00017403809 0.00065843133)
(4.9772288 0.00016403664 0.00068342115)
(4.9786461 0.00015258399 0.00070974492)
(4.9801707 0.00013952881 0.00073740522)
(4.9818107 0.00012464444 0.0007663236)
(4.9835751 0.00010764734 0.00079638213)
(4.9836213 0.00011448722 0.0024616706)
(4.9818672 0.00012991912 0.0023691098)
(4.9802369 0.00014375768 0.0022801745)
(4.9787218 0.00015609776 0.002195238)
(4.9773136 0.00016702496 0.0021144194)
(4.9760045 0.00017660293 0.0020377043)
(4.974787 0.00018495776 0.0019650191)
(4.9736542 0.00019219083 0.00189622)
(4.9725995 0.00019838818 0.0018311171)
(4.9716168 0.00020364953 0.0017695256)
(4.9707005 0.00020805589 0.001711302)
(4.9698454 0.00021171966 0.0016562754)
(4.9690467 0.00021468516 0.0016042347)
(4.9682998 0.00021706246 0.0015549748)
(4.9676008 0.0002188709 0.0015083777)
(4.9669457 0.00022014568 0.0014642532)
(4.9663311 0.00022101129 0.0014224651)
(4.9657539 0.00022153552 0.00138285)
(4.9652111 0.0002216817 0.0013453171)
(4.9646999 0.00022148711 0.0013097893)
(4.9642179 0.00022103189 0.0012761079)
(4.9637627 0.0002203861 0.0012441016)
(4.9633326 0.00021947832 0.0012137414)
(4.9629251 0.00021834091 0.001184975)
(4.9625389 0.00021707912 0.0011576744)
(4.9621719 0.00021575675 0.001131679)
(4.9618232 0.00021431521 0.0011069736)
(4.9614909 0.00021270499 0.001083533)
(4.961174 0.00021106675 0.0010612539)
(4.960871 0.00020941626 0.0010400806)
(4.9605811 0.00020769291 0.0010199482)
(4.9603031 0.00020594912 0.0010007737)
(4.9600363 0.00020413724 0.00098257278)
(4.9597795 0.00020231029 0.00096525977)
(4.9595324 0.00020041549 0.00094882252)
(4.9592935 0.00019857312 0.00093307143)
(4.9590629 0.00019670656 0.00091807739)
(4.9588392 0.00019483993 0.00090379353)
(4.9586225 0.00019293679 0.00089023981)
(4.9584111 0.00019106522 0.00087726939)
(4.9582057 0.00018913725 0.00086496085)
(4.9580036 0.00018738797 0.0008531676)
(4.957807 0.0001855342 0.00084208151)
(4.9576108 0.00018371696 0.00083146623)
(4.9574196 0.00018201892 0.0008217673)
(4.9572252 0.00018061446 0.0008126058)
(4.9570384 0.00017947212 0.00080463287)
(4.9568437 0.0001788813 0.00079797808)
(4.9566728 0.00017812412 0.00079330805)
(4.9564764 0.00017943268 0.00079022781)
(4.9568641 0.00018716482 0.0013782958)
(4.9573357 0.00019658651 0.0020387908)
(4.9578764 0.00020535619 0.0027639213)
(4.9584769 0.0002136576 0.003544043)
(4.9591317 0.00022120796 0.0043631919)
(4.9598449 0.00022827654 0.0052103759)
(4.9606148 0.00023378296 0.0060762546)
(4.9614436 0.0002367484 0.0069528387)
(4.9623334 0.00023622327 0.0078283509)
(4.9632884 0.00023237426 0.0086955691)
(4.9643056 0.0002241836 0.0095397243)
(4.9653895 0.00021125902 0.010350348)
(4.9665346 0.00019282944 0.011107782)
(4.9677412 0.00016907526 0.011797806)
(4.9690068 0.0001399046 0.01240069)
(4.9703339 0.00010615377 0.012902819)
(4.9717192 6.8675406e-05 0.013288483)
(4.9731605 2.9239057e-05 0.013550724)
(4.9746567 -1.0743189e-05 0.013682922)
(4.976212 -4.9381367e-05 0.013690398)
(4.977821 -8.5457786e-05 0.01357475)
(4.9794869 -0.00011724433 0.013351042)
(4.9812034 -0.00014418981 0.013029717)
(4.98297 -0.00016536897 0.012631992)
(4.9847847 -0.00018074904 0.012172418)
(4.9866443 -0.00019076656 0.011671618)
(4.9885428 -0.00019584098 0.011143093)
(4.9904772 -0.00019662833 0.010603428)
(4.9924394 -0.00019367467 0.010063312)
(4.994429 -0.00018779779 0.0095344273)
(4.996437 -0.00018014567 0.009022999)
(4.9984595 -0.00017082449 0.0085352767)
(5.0004871 -0.00016106868 0.0080735885)
(5.0025141 -0.00015077501 0.0076406504)
(5.0045372 -0.00014110305 0.007235161)
(5.006557 -0.00013181401 0.0068570483)
(5.0085614 -0.00012398512 0.0065019364)
(5.0105402 -0.00011694846 0.0061671516)
(5.0124901 -0.00011109088 0.0058498442)
(5.0144079 -0.00010580963 0.0055480449)
(5.0162822 -0.00010203792 0.0052582926)
(5.0181094 -9.8869795e-05 0.0049775158)
(5.0198776 -9.7298786e-05 0.0047020698)
(5.0215802 -9.6475013e-05 0.0044281954)
(5.0232066 -9.7106736e-05 0.0041525587)
(5.0247476 -9.8538569e-05 0.0038720778)
(5.0261917 -0.00010109744 0.0035839025)
(5.0275291 -0.0001037713 0.00328684)
(5.0287412 -0.00010705033 0.0029787304)
(5.0298127 -0.00010978739 0.0026593055)
(5.030724 -0.00011268987 0.0023287461)
(5.0314585 -0.00011465521 0.0019898947)
(5.0319924 -0.00011641549 0.0016473915)
(5.032317 -0.00011728184 0.0013072653)
(5.0324295 -0.00011763297 0.00097996337)
(5.0323654 -0.00011754881 0.00067192042)
(5.0321786 -0.00011741435 0.00038991032)
(5.0321698 -0.00011641673 0.00038892065)
(5.0323555 -0.00011637938 0.00067285782)
(5.0324193 -0.00011608371 0.00098222648)
(5.0323067 -0.00011551532 0.0013113413)
(5.0319821 -0.0001144981 0.0016526428)
(5.0314489 -0.00011279363 0.0019962278)
(5.0307154 -0.00011078047 0.0023360219)
(5.029806 -0.00010814644 0.0026675231)
(5.0287366 -0.00010538996 0.002988697)
(5.0275267 -0.00010229803 0.0032984495)
(5.0261914 -9.9592437e-05 0.0035974274)
(5.0247493 -9.7245999e-05 0.0038867643)
(5.0232104 -9.579583e-05 0.0041688124)
(5.0215865 -9.532374e-05 0.0044466471)
(5.0198867 -9.5969626e-05 0.0047228079)
(5.0181218 -9.7610346e-05 0.0050011532)
(5.0162978 -0.00010054897 0.0052847069)
(5.014427 -0.00010436862 0.0055775403)
(5.0125124 -0.00010941632 0.0058819584)
(5.0105661 -0.00011522749 0.0062022552)
(5.008591 -0.00012205186 0.006539939)
(5.006591 -0.00012984007 0.0068986668)
(5.0045754 -0.00013886789 0.007280134)
(5.0025569 -0.00014840357 0.0076897855)
(5.0005342 -0.00015839379 0.0081266501)
(4.9985116 -0.00016801093 0.0085930447)
(4.9964941 -0.00017710272 0.0090852316)
(4.9944916 -0.0001847097 0.0096018435)
(4.9925072 -0.00019061724 0.010135859)
(4.9905506 -0.00019362093 0.01068163)
(4.9886217 -0.00019282876 0.01122687)
(4.9867288 -0.00018791163 0.011761235)
(4.9848746 -0.00017803848 0.012267509)
(4.9830655 -0.00016308404 0.012732747)
(4.9813044 -0.00014218006 0.013135102)
(4.9795934 -0.00011574252 0.013460764)
(4.9779327 -8.4440325e-05 0.013687594)
(4.9763289 -4.8942735e-05 0.013805845)
(4.9747785 -1.089964e-05 0.013799407)
(4.9732874 2.8489941e-05 0.013667532)
(4.9718512 6.7283224e-05 0.013404054)
(4.970471 0.00010412513 0.013016272)
(4.9691487 0.00013736597 0.012510543)
(4.9678881 0.00016609639 0.011903244)
(4.966686 0.00018952311 0.011207561)
(4.9655455 0.00020769201 0.010443975)
(4.9644657 0.00022046073 0.0096262554)
(4.9634527 0.00022854073 0.0087749554)
(4.9625016 0.00023239943 0.007899908)
(4.9616155 0.00023292416 0.007016654)
(4.9607902 0.00023002306 0.0061321013)
(4.9600238 0.00022456825 0.0052583825)
(4.9593136 0.0002176517 0.0044029132)
(4.9586623 0.00021027003 0.0035752436)
(4.958064 0.00020225266 0.0027864255)
(4.9575269 0.00019390467 0.0020532442)
(4.9570574 0.00018527115 0.0013865214)
(4.9572249 0.00018535028 0.0013964038)
(4.9576914 0.00019362353 0.0020687293)
(4.9582261 0.00020173708 0.0028087604)
(4.9588223 0.00020962453 0.00360498)
(4.9594716 0.0002170277 0.0044403467)
(4.9601798 0.00022384126 0.0053035189)
(4.9609437 0.00022937035 0.0061847274)
(4.9617662 0.0002321669 0.0070768276)
(4.9626493 0.00023170413 0.0079675144)
(4.9635972 0.00022773676 0.0088499172)
(4.9646064 0.00021977192 0.0097080221)
(4.9656825 0.00020696188 0.010532355)
(4.966819 0.00018887255 0.011301842)
(4.968017 0.00016548598 0.012002859)
(4.9692733 0.00013683138 0.012614451)
(4.9705911 0.00010364946 0.013123562)
(4.9719667 6.6941162e-05 0.013513516)
(4.9733983 2.8276633e-05 0.013778164)
(4.9748848 -1.0997717e-05 0.013909933)
(4.9764306 -4.8937906e-05 0.013915353)
(4.9780295 -8.4302213e-05 0.013794813)
(4.9796855 -0.00011552425 0.013564959)
(4.9813915 -0.00014177668 0.01323531)
(4.9831478 -0.00016264438 0.012828402)
(4.9849517 -0.00017720634 0.012357835)
(4.986801 -0.00018688746 0.011846337)
(4.9886888 -0.00019154996 0.011306659)
(4.990613 -0.00019229884 0.010756143)
(4.9925648 -0.00018921064 0.010205189)
(4.9945448 -0.00018331373 0.0096663477)
(4.9965424 -0.0001756129 0.0091448463)
(4.998556 -0.00016664894 0.0086483623)
(5.0005741 -0.00015697097 0.0081775737)
(5.0025933 -0.00014715049 0.0077369056)
(5.0046077 -0.00013750176 0.0073233494)
(5.0066202 -0.00012866686 0.0069384975)
(5.0086163 -0.00012070917 0.0065762954)
(5.0105886 -0.00011397466 0.006235673)
(5.0125318 -0.00010796845 0.0059126447)
(5.0144442 -0.00010303973 0.005605701)
(5.0163122 -9.9064241e-05 0.0053105815)
(5.0181345 -9.6201659e-05 0.0050251219)
(5.0198968 -9.4333919e-05 0.0047449842)
(5.0215949 -9.3897452e-05 0.0044670355)
(5.0232164 -9.4172679e-05 0.0041870169)
(5.0247538 -9.574573e-05 0.0039029575)
(5.0261936 -9.7871478e-05 0.0036115335)
(5.0275276 -0.00010066291 0.0033108063)
(5.0287353 -0.00010347016 0.0029995915)
(5.0298035 -0.00010625342 0.0026772795)
(5.030711 -0.00010857808 0.0023447745)
(5.0314438 -0.00011074874 0.0020039779)
(5.0319766 -0.00011234414 0.0016592249)
(5.0323 -0.00011349056 0.0013169911)
(5.0324127 -0.00011435761 0.00098632801)
(5.0323487 -0.00011501031 0.00067581188)
(5.0321645 -0.0001157579 0.00039040541)
(5.0321577 -0.00011482998 0.00039231859)
(5.0323417 -0.00011376171 0.00067951769)
(5.0324054 -0.00011278652 0.0009915413)
(5.0322927 -0.00011182011 0.0013239293)
(5.0319696 -0.00011052343 0.001667844)
(5.0314374 -0.00010896058 0.0020140545)
(5.0307056 -0.00010687436 0.0023564744)
(5.0297997 -0.00010443486 0.0026906897)
(5.0287335 -0.00010184195 0.0030145575)
(5.0275277 -9.9018732e-05 0.0033275151)
(5.0261957 -9.6506738e-05 0.0036302386)
(5.0247579 -9.4420451e-05 0.0039236033)
(5.0232226 -9.31887e-05 0.0042102015)
(5.0216037 -9.2936949e-05 0.0044927974)
(5.0199082 -9.3549831e-05 0.0047736759)
(5.0181488 -9.5390355e-05 0.005056757)
(5.0163294 -9.851437e-05 0.0053451297)
(5.0144645 -0.00010248528 0.0056432529)
(5.0125553 -0.00010768549 0.0059534135)
(5.0106155 -0.00011375692 0.0062797084)
(5.0086469 -0.00012087186 0.0066240283)
(5.0066549 -0.0001289132 0.0069901082)
(5.0046465 -0.00013794497 0.0073790328)
(5.0026364 -0.00014765915 0.0077968502)
(5.0006216 -0.0001577641 0.0082421613)
(4.9986082 -0.00016749923 0.0087177162)
(4.9965996 -0.00017678001 0.0092193702)
(4.9946072 -0.00018461695 0.0097460698)
(4.9926326 -0.00019093819 0.010290683)
(4.990686 -0.00019413473 0.010847354)
(4.9887674 -0.0001936762 0.011403873)
(4.9868849 -0.00018891521 0.011949131)
(4.9850409 -0.00017916787 0.012466291)
(4.9832422 -0.00016422968 0.012941986)
(4.9814912 -0.00014323787 0.013353584)
(4.9797906 -0.00011695917 0.013687237)
(4.9781399 -8.5709204e-05 0.013920419)
(4.9765461 -5.0104768e-05 0.014043087)
(4.9750055 -1.2097571e-05 0.014038747)
(4.9735238 2.7454386e-05 0.013906591)
(4.9720975 6.6199093e-05 0.01364052)
(4.9707269 0.00010314824 0.013247758)
(4.969414 0.00013642377 0.012734678)
(4.9681626 0.00016532797 0.012117926)
(4.9669693 0.00018868444 0.011410914)
(4.9658372 0.00020697646 0.010634466)
(4.9647653 0.00021980174 0.0098026423)
(4.9637601 0.0002279708 0.0089366239)
(4.962816 0.00023196045 0.0080458764)
(4.9619363 0.00023244371 0.0071466508)
(4.9611172 0.00022943278 0.0062461729)
(4.9603566 0.00022378218 0.0053566065)
(4.9596516 0.00021679965 0.0044849565)
(4.9590052 0.00020935049 0.0036410745)
(4.958412 0.00020130492 0.0028366473)
(4.9578803 0.0001933753 0.0020887535)
(4.957417 0.00018534475 0.0014096686)
(4.9576006 0.00018595539 0.0014239731)
(4.9580606 0.0001938902 0.0021099913)
(4.9585896 0.00020196561 0.0028658242)
(4.9591798 0.00021008503 0.0036784779)
(4.9598236 0.00021781094 0.0045308456)
(4.9605255 0.00022477226 0.0054109708)
(4.9612831 0.00023058884 0.0063088635)
(4.9620986 0.00023367399 0.0072176074)
(4.9629751 0.00023337243 0.0081253465)
(4.9639155 0.00022940755 0.0090243948)
(4.9649169 0.00022098246 0.0098983761)
(4.9659847 0.00020813843 0.010737673)
(4.9671127 0.00018949393 0.0115211)
(4.9683011 0.00016590392 0.012234099)
(4.969548 0.00013671888 0.012855923)
(4.970856 0.00010307081 0.013372957)
(4.9722217 6.5837386e-05 0.013768523)
(4.9736429 2.6722635e-05 0.014035982)
(4.9751199 -1.3078624e-05 0.014168674)
(4.9766554 -5.1503466e-05 0.014171854)
(4.9782443 -8.7277812e-05 0.014047153)
(4.9798897 -0.00011890605 0.013810609)
(4.981585 -0.00014520268 0.013473076)
(4.9833308 -0.00016644924 0.0130567)
(4.9851244 -0.00018155575 0.012575736)
(4.986963 -0.00019108851 0.012052888)
(4.9888406 -0.00019587966 0.011502135)
(4.9907539 -0.00019619186 0.010939806)
(4.9926956 -0.00019307883 0.010377572)
(4.994665 -0.00018664214 0.0098273111)
(4.9966526 -0.00017853965 0.0092954278)
(4.9986564 -0.00016919848 0.0087886679)
(5.0006654 -0.00015915898 0.0083083599)
(5.0026759 -0.00014902235 0.0078584075)
(5.0046821 -0.00013897857 0.0074362373)
(5.0066866 -0.00012985401 0.0070432425)
(5.0086747 -0.00012170848 0.0066732929)
(5.0106396 -0.00011437806 0.0063252)
(5.0125764 -0.000107966 0.0059956017)
(5.0144824 -0.00010271782 0.0056822277)
(5.0163445 -9.8470149e-05 0.0053810478)
(5.0181612 -9.5349505e-05 0.0050899327)
(5.0199181 -9.3302158e-05 0.0048038643)
(5.0216111 -9.2538604e-05 0.0045205946)
(5.0232278 -9.2851188e-05 0.0042355486)
(5.024761 -9.3987775e-05 0.0039464087)
(5.0261971 -9.5832178e-05 0.0036507229)
(5.027527 -9.8373879e-05 0.0033458667)
(5.0287312 -0.00010091562 0.0030310171)
(5.0297952 -0.00010360208 0.0027054241)
(5.0306998 -0.0001059421 0.0023694021)
(5.0314304 -0.00010794272 0.0020252317)
(5.0319624 -0.00010934111 0.0016774552)
(5.0322846 -0.00011070291 0.0013319085)
(5.0323972 -0.00011179961 0.00099757514)
(5.0323337 -0.00011291722 0.00068380581)
(5.0321506 -0.00011451782 0.00039487821)
(5.0321415 -0.00011444969 0.00039762515)
(5.0323247 -0.00011262061 0.00068837116)
(5.0323879 -0.00011142341 0.0010041876)
(5.032275 -0.00011036236 0.0013407507)
(5.0319533 -0.0001088772 0.001688533)
(5.0314219 -0.00010752514 0.00203834)
(5.0306922 -0.00010569951 0.0023845133)
(5.0297894 -0.00010341049 0.0027229125)
(5.0287272 -0.00010071731 0.0030507402)
(5.0275252 -9.8277193e-05 0.0033679442)
(5.0261972 -9.5861714e-05 0.0036753839)
(5.0247634 -9.413932e-05 0.0039738184)
(5.0232322 -9.2983705e-05 0.004265941)
(5.0216179 -9.2661105e-05 0.0045536117)
(5.0199275 -9.3750604e-05 0.0048401121)
(5.0181737 -9.5849683e-05 0.0051294638)
(5.0163598 -9.9006869e-05 0.0054240305)
(5.0145009 -0.00010340004 0.0057285688)
(5.012598 -0.00010873957 0.0060455626)
(5.0106648 -0.00011535175 0.0063790328)
(5.0087036 -0.00012264292 0.0067309963)
(5.0067196 -0.00013086995 0.0071047844)
(5.004719 -0.00014030173 0.0075021723)
(5.0027173 -0.00015056055 0.0079290498)
(5.0007111 -0.00016084765 0.0083838412)
(4.9987069 -0.00017105054 0.0088692238)
(4.9967077 -0.00018055749 0.0093811325)
(4.9947258 -0.00018890375 0.0099189547)
(4.9927614 -0.0001953139 0.010474481)
(4.9908251 -0.00019867291 0.011042845)
(4.9889169 -0.00019838842 0.011610797)
(4.9870448 -0.00019376275 0.012167538)
(4.9852116 -0.00018429005 0.012696173)
(4.9834231 -0.00016886625 0.013182235)
(4.9816824 -0.0001475772 0.013603086)
(4.979993 -0.00012100966 0.01394487)
(4.9783528 -8.9065575e-05 0.014184218)
(4.9767693 -5.293703e-05 0.014311271)
(4.9752387 -1.4104044e-05 0.014308609)
(4.9737669 2.6002817e-05 0.014175671)
(4.9723505 6.5775086e-05 0.01390612)
(4.9709903 0.00010331821 0.013507816)
(4.9696869 0.00013753358 0.012986017)
(4.9684452 0.00016698999 0.012359167)
(4.9672612 0.00019109069 0.011639149)
(4.9661376 0.00020974673 0.010848586)
(4.9650739 0.00022285307 0.010001037)
(4.9640762 0.00023144843 0.0091184512)
(4.9631396 0.00023520623 0.0082104501)
(4.9622668 0.000235435 0.0072940381)
(4.9614544 0.00023228649 0.0063762986)
(4.9607005 0.00022629676 0.0054697894)
(4.9600017 0.00021932852 0.0045805594)
(4.959361 0.00021127454 0.0037193467)
(4.9587737 0.00020308455 0.0028978612)
(4.9582481 0.00019483105 0.0021336802)
(4.9577915 0.00018716458 0.0014401168)
(4.9579792 0.00018892881 0.0014570541)
(4.9584325 0.00019648067 0.0021585268)
(4.9589551 0.00020485093 0.0029312533)
(4.9595391 0.00021310896 0.0037615866)
(4.9601771 0.00022129073 0.0046319614)
(4.9608725 0.00022835113 0.0055303081)
(4.9616231 0.00023423582 0.0064457268)
(4.962432 0.00023759761 0.0073724078)
(4.9633012 0.00023721787 0.008297961)
(4.9642338 0.00023347174 0.0092146195)
(4.9652276 0.00022508405 0.010105925)
(4.9662874 0.00021158195 0.010961845)
(4.9674061 0.00019284245 0.011759507)
(4.9685857 0.00016840668 0.012486303)
(4.9698226 0.00013864429 0.013118617)
(4.9711212 0.00010392353 0.013644965)
(4.972476 6.6039468e-05 0.014046323)
(4.9738877 2.580935e-05 0.014317742)
(4.9753547 -1.4791935e-05 0.014451707)
(4.97688 -5.4084241e-05 0.014453169)
(4.9784585 -9.0631135e-05 0.014324535)
(4.980093 -0.00012286719 0.014081893)
(4.981777 -0.00014962383 0.013736372)
(4.9835125 -0.00017110363 0.013310708)
(4.985296 -0.00018659612 0.01281962)
(4.9871241 -0.0001962197 0.012285532)
(4.9889903 -0.00020069624 0.011722748)
(4.9908935 -0.00020103555 0.011149163)
(4.9928244 -0.00019754221 0.010574717)
(4.9947838 -0.0001910403 0.010013731)
(4.9967606 -0.00018258335 0.009470378)
(4.9987548 -0.00017293153 0.0089529557)
(5.0007547 -0.00016259067 0.0084626263)
(5.0027563 -0.00015223264 0.0080027671)
(5.004754 -0.00014175963 0.0075712274)