/*--------------------------------*- C++ -*----------------------------------*\
| =========                 |                                                 |
| \\      /  F ield         | OpenFOAM: The Open Source CFD Toolbox           |
|  \\    /   O peration     | Version:  v2012                                 |
|   \\  /    A nd           | Website:  www.openfoam.com                      |
|    \\/     M anipulation  |                                                 |
\*---------------------------------------------------------------------------*/
FoamFile
{
    version     2.0;
    format      ascii;
    class       volScalarField;
    location    "238";
    object      nut;
}
// * * * * * * * * * * * * * * * * * * * * * * * * * * * * * * * * * * * * * //

dimensions      [0 2 -1 0 0 0 0];


internalField   nonuniform List<scalar> 
48571
(
0.033486962
0.03348726
0.033520857
0.033520538
0.033520529
0.033520189
0.033520231
0.033519999
0.033520134
0.033520091
0.033520111
0.033520085
0.033520068
0.033520058
0.033520058
0.033520068
0.033520085
0.033520111
0.033520091
0.033520134
0.033519999
0.033520231
0.033520189
0.033520529
0.033520538
0.033520857
0.033520787
0.033521259
0.033521156
0.033521387
0.033521276
0.033521251
0.033521173
0.033521132
0.033521111
0.033521106
0.033521107
0.03352111
0.033521112
0.033521114
0.033521116
0.033521117
0.033521118
0.033521119
0.03352112
0.033521121
0.033521122
0.033521122
0.033521123
0.033521123
0.033521124
0.033521124
0.033521124
0.033521124
0.033521124
0.033521124
0.033521124
0.033521124
0.033521123
0.033521122
0.03352112
0.033521118
0.033521118
0.033521123
0.033521146
0.033521187
0.033521265
0.03352129
0.033521402
0.033521171
0.033521274
0.033520803
0.033520872
0.033520554
0.03352055
0.033520223
0.033520285
0.033520081
0.033520252
0.033520252
0.033520317
0.033520339
0.033520367
0.033520396
0.033520425
0.033520451
0.033520467
0.033520474
0.033520419
0.033520412
0.033520223
0.033520398
0.033520314
0.033520621
0.033520616
0.033520935
0.033520873
0.03352135
0.033521261
0.033521502
0.033521404
0.03352139
0.03352132
0.033521286
0.033521268
0.033521265
0.033521272
0.033521309
0.033521443
0.033521762
0.03352231
0.033523052
0.03352389
0.033524697
0.033525179
0.033525216
0.033525213
0.033525206
0.033525199
0.033525192
0.033525185
0.033525179
0.033525168
0.033525118
0.033524624
0.033523807
0.033522959
0.033522209
0.033521652
0.033521325
0.033521184
0.033521141
0.033521131
0.033521132
0.03352115
0.033521188
0.033521263
0.033521284
0.033521393
0.03352116
0.033521261
0.033520788
0.033487559
0.033487591
0.033487933
0.033487977
0.03348805
0.033487943
0.033487862
0.033487777
0.033487733
0.033487717
0.033487737
0.033487858
0.033488265
0.033489202
0.033490788
0.03349291
0.033495289
0.033497541
0.033498872
0.033499036
0.033499069
0.033499087
0.033499104
0.033499122
0.03349914
0.033499157
0.033499159
0.033499028
0.033497727
0.033495503
0.033493152
0.033491057
0.033489499
0.033488589
0.033488208
0.033488112
0.033488113
0.033488146
0.033488204
0.033488297
0.033488381
0.033488488
0.033488411
0.033488364
0.033488014
0.033487982
0.033487679
0.033487809
0.033453794
0.0334189
0.033384853
0.033353651
0.033327878
0.033311319
0.033310283
0.033334491
0.033391604
0.025303708
0.018215755
0.012647586
0.0081204381
0.0043323141
0.0030614358
0.0018987358
0.0011313425
0.001052602
0.00062463921
0.00078275907
0.0010645183
0.0015414924
0.0019935691
0.0025322045
0.0028780721
0.0031516348
0.0031803483
0.0032212893
0.0032793865
0.0035713645
0.0037002553
0.0036912563
0.0037356008
0.0037963298
0.0038640239
0.0039409543
0.004217315
0.0042981436
0.0043628657
0.004426393
0.0045044335
0.0047125304
0.0047596593
0.0048187845
0.0048676984
0.0049159604
0.0050689806
0.0054723531
0.00548865
0.0056511479
0.0056967402
0.0057365053
0.0057843912
0.0058332623
0.0058858437
0.0059326339
0.0059751111
0.0060144779
0.006052543
0.0060891043
0.0061251537
0.0061607802
0.0061960878
0.0062318891
0.0062672232
0.0063038221
0.006339515
0.0063760371
0.0064127083
0.0064495337
0.0064876928
0.0065249376
0.0065627606
0.0066012408
0.0066392028
0.0066781007
0.0067166805
0.0067552464
0.0067950284
0.0068342574
0.0068732515
0.0069138596
0.0069534276
0.0069928284
0.0070334041
0.007073361
0.0071126917
0.0071528617
0.0071928887
0.0072321071
0.0072713732
0.0073116596
0.0073503466
0.0073887146
0.0074278339
0.0074658672
0.0075024133
0.0075382217
0.007573822
0.007608053
0.0076417614
0.007676489
0.0077193419
0.0077713722
0.007903056
0.0081639117
0.0082355797
0.0082651858
0.0082892998
0.0083118427
0.0083090873
0.008307709
0.0083152713
0.0083449654
0.0083620223
0.0084052166
0.0084708441
0.0084839203
0.0084901274
0.0085070635
0.008548445
0.0085777294
0.0085992145
0.0086163589
0.0086307701
0.0086418244
0.0086506726
0.0086579893
0.0086652431
0.0086752492
0.0086861414
0.0087467124
0.0089152534
0.0089617956
0.0089816293
0.032896046
0.032926974
0.032958628
0.032990905
0.033023725
0.033057023
0.03309075
0.033124876
0.033159395
0.033194328
0.033229738
0.033265718
0.033302355
0.033339637
0.033377389
0.033415053
0.033451985
0.033452188
0.033451856
0.03345237
0.033452284
0.033452442
0.033452295
0.033452206
0.033452093
0.033452028
0.033452
0.033452034
0.033452246
0.033452945
0.033454532
0.033457199
0.033460757
0.03346472
0.0334684
0.033470536
0.033470864
0.033470935
0.033470971
0.033471003
0.033471036
0.033471071
0.033471103
0.033471099
0.033470832
0.033468753
0.033465129
0.033461224
0.033457729
0.033455126
0.033453607
0.033452975
0.033452831
0.033452862
0.033452954
0.033453079
0.033453249
0.03345339
0.033453585
0.03345347
0.033453598
0.033453116
0.033453477
0.033453289
0.033418251
0.033384217
0.033353016
0.033327141
0.033310168
0.033308223
0.033330951
0.033386346
0.025381874
0.017648859
0.011666461
0.0072818985
0.0041014592
0.0049141587
0.0026490671
0.002105172
0.00096679436
0.001203623
0.0013477833
0.0018250018
0.0021396244
0.0010507149
0.00095308002
0.00087148182
0.00094063283
0.00083501743
0.00091333059
0.00099602665
0.00053310844
0.00057103364
0.0007920681
0.00083077042
0.00077582928
0.00099014952
0.001438997
0.0021936137
0.0021622892
0.0025565197
0.0028820147
0.0029568795
0.0030202221
0.0030890998
0.0032265446
0.0033748802
0.0034564221
0.0036687414
0.0033309753
0.0032794486
0.003251163
0.0032281341
0.0026270747
0.0028135821
0.0019020886
0.0017396734
0.00099962454
0.00087613356
0.00065684132
0.00062724822
0.001095887
0.0010275156
0.0006883173
0.00057066557
0.00073068634
0.0007176019
0.001133036
0.0019136837
0.0018449959
0.0029974982
0.0030457568
0.0034102501
0.0034243526
0.0034585345
0.0034990873
0.0038471533
0.0038978041
0.0037363933
0.0037736328
0.003797951
0.0038506606
0.003899843
0.004150365
0.0042402806
0.0043068892
0.0043727835
0.0044247282
0.0044651563
0.0046304788
0.0046666957
0.0046633031
0.0047523777
0.0048184811
0.0048733765
0.0049480031
0.0051508934
0.0052037185
0.005302467
0.0053621209
0.0050366308
0.0049769588
0.0049145399
0.0048658565
0.0048117633
0.0047687889
0.004507371
0.0044472356
0.0043919874
0.0043334576
0.0042758477
0.0042265516
0.0038898077
0.0038118309
0.0039450461
0.0039948422
0.0040438013
0.0042457619
0.0043428192
0.0043975816
0.0044470884
0.0044966429
0.0045467328
0.0045930057
0.0047684405
0.0048523778
0.0049041432
0.0049544681
0.0050034875
0.0050538961
0.0053856226
0.0054721064
0.0055293539
0.0056980916
0.0057239005
0.0057388821
0.0057867851
0.0058337526
0.0058790871
0.0059231305
0.005966153
0.0060086989
0.0060507208
0.0060927531
0.0061343796
0.0061763715
0.0062179334
0.0062601853
0.0063019831
0.0063440068
0.0063860958
0.0064281271
0.0064706666
0.006512979
0.0065550859
0.0065976598
0.0066396657
0.0066821486
0.0067240768
0.0067660041
0.0068086278
0.0068510961
0.006893013
0.0069361907
0.0069785279
0.0070205827
0.0070633379
0.0071057515
0.0071472865
0.007189423
0.0072312644
0.0072724777
0.0073132417
0.0073548799
0.007395153
0.0074348043
0.0074746549
0.0075139781
0.0075516186
0.0075883987
0.0076244068
0.007658642
0.0076913085
0.0077235714
0.007763312
0.007780731
0.0078471279
0.0079544205
0.0078519424
0.0078139269
0.0077845488
0.0077527098
0.0077178666
0.0076809935
0.0076425097
0.0076029737
0.0075615824
0.0075200556
0.007477974
0.0074349846
0.0073909671
0.0073474567
0.0073030587
0.0072582061
0.0072125911
0.0071674665
0.0071213507
0.0070748989
0.0070285949
0.0069823165
0.0069350253
0.0068886736
0.0068418012
0.0067949774
0.0067484211
0.0067021418
0.006654807
0.0066076254
0.0065601693
0.0065128388
0.0064649264
0.0064174157
0.0063693712
0.0063217534
0.0062738584
0.0062261197
0.0061781747
0.0061304115
0.0060825262
0.0060346334
0.0059865138
0.0059383497
0.0058896708
0.0058407543
0.0057907176
0.0057391439
0.0056844498
0.0055910019
0.0055419748
0.0055180467
0.0055012666
0.0056077428
0.0056167787
0.0056954917
0.0056532663
0.0056308068
0.0055372475
0.0055674459
0.0056251223
0.0056920987
0.0057753999
0.0058227382
0.005869093
0.0059152358
0.0059612762
0.0060076723
0.0060541654
0.0061011788
0.0061484934
0.0061962311
0.0062447193
0.0062931188
0.0063426161
0.0063917074
0.0064417902
0.006491606
0.006541811
0.0065923867
0.0066426394
0.0066929868
0.0067440907
0.0067936074
0.0068435235
0.0068943081
0.0069448852
0.0069951038
0.0070466108
0.0070966938
0.0071468061
0.007197531
0.0072473755
0.0072961524
0.0073457006
0.0073941492
0.0074417862
0.0074887231
0.0075356627
0.007581836
0.0076269272
0.0076711895
0.007714863
0.0077570521
0.0077979561
0.007836804
0.0078733322
0.0079065555
0.0079384133
0.0079847402
0.008098027
0.0082313149
0.008310018
0.0083499189
0.0083765844
0.0083953847
0.0083874694
0.0084161746
0.0086728691
0.0087120411
0.0088991945
0.0089198723
0.0089286808
0.0089330969
0.0088536646
0.0088537146
0.0087612861
0.0087692203
0.0087748954
0.0087969997
0.0088820503
0.0089150302
0.0090521595
0.0090938165
0.0092528645
0.0093110425
0.0093898661
0.0094540546
0.0095122851
0.0095584365
0.0097881288
0.0098461315
0.010075144
0.010138199
0.010413901
0.01048396
0.010772296
0.010846211
0.0111326
0.011208942
0.01149014
0.011566867
0.011830397
0.011905508
0.012144381
0.012222462
0.012307503
0.012360839
0.012412377
0.012468875
0.012705687
0.012781229
0.01304122
0.013119175
0.013375843
0.013455028
0.01370567
0.013788171
0.014030074
0.014113542
0.01419951
0.014247637
0.014299468
0.014358932
0.01457543
0.014647994
0.014710686
0.014602815
0.014414586
0.014316911
0.014330034
0.014373739
0.014181688
0.014066531
0.013860102
0.013737766
0.013520599
0.01340229
0.01318345
0.013066245
0.012843914
0.012728832
0.012522338
0.012427373
0.012433279
0.012471891
0.012280405
0.012172977
0.011966699
0.011850131
0.011622976
0.011504977
0.011264922
0.011145324
0.010895447
0.010780042
0.010531984
0.010421834
0.010183965
0.01008408
0.0098843095
0.0097905634
0.0095887481
0.0095085309
0.0094943588
0.0095137983
0.0093458215
0.0092671516
0.0091286987
0.0090627706
0.0089458192
0.0088947711
0.0088254469
0.008793161
0.0087949523
0.0087883273
0.0088763737
0.0088813553
0.0089556147
0.0089532926
0.0089491712
0.0089182456
0.0087529812
0.0086882828
0.0084562962
0.0084043851
0.0083325156
0.0083157997
0.0083205137
0.0083286729
0.0083221506
0.0083355099
0.0083390288
0.008371207
0.0089308049
0.008802742
0.0088344544
0.0088200976
0.0087964907
0.0086953958
0.0081987191
0.0080099444
0.0079474304
0.0079147712
0.0078875374
0.007860192
0.0078301933
0.0077989264
0.0077647335
0.0077296264
0.0076916224
0.0076540751
0.0076152664
0.0075771904
0.0075373538
0.0074994948
0.0074602364
0.0074220185
0.0073827641
0.0073454335
0.0073062925
0.0072686193
0.0072304898
0.0071934348
0.007155049
0.0071190024
0.007081767
0.0070460733
0.0070104939
0.006976045
0.0069410288
0.0069080747
0.0068741253
0.0068423834
0.0068107171
0.0067800213
0.0067505945
0.0067224849
0.0066952635
0.0066705919
0.0066462195
0.0066256927
0.0066061163
0.0065907364
0.0065776265
0.006569113
0.0065644244
0.0065647743
0.0065699047
0.0065804885
0.0065945758
0.0066193881
0.0066835178
0.0068119414
0.0072105133
0.0074049573
0.0067959356
0.0068427611
0.007880792
0.0079431515
0.010521176
0.010835205
0.012114056
0.011080148
0.0096112197
0.0082604767
0.0079329657
0.0071014152
0.0070251182
0.0069354511
0.0072604779
0.0071214545
0.0088937356
0.012982295
0.016937774
0.023180769
0.030906333
0.033345146
0.0333058
0.033294994
0.033303372
0.033323393
0.033350591
0.03338224
0.033416433
0.033451616
0.033486506
0.033486526
0.033486528
0.033486715
0.033486778
0.033486807
0.033486775
0.033486717
0.033486645
0.033486565
0.033486482
0.033486368
0.033486256
0.033486057
0.033486068
0.033486081
0.033486675
0.03348696
0.03348747
0.033452729
0.033416232
0.033379056
0.033342021
0.033305827
0.033270807
0.033237048
0.033204575
0.033173385
0.033143513
0.033115007
0.033087912
0.033062236
0.03303794
0.033014915
0.032992986
0.03297191
0.032951391
0.032931108
0.032910727
0.032889942
0.032868503
0.032846225
0.032823004
0.03279882
0.032773734
0.032747873
0.032721419
0.032694588
0.032667625
0.032640772
0.03261427
0.032588319
0.032563107
0.032538783
0.032515455
0.03249319
0.032472013
0.032451909
0.032432828
0.032414683
0.032397359
0.032380716
0.032364598
0.032374153
0.03239007
0.0324065
0.032423601
0.032441511
0.032460346
0.032480191
0.032501098
0.032523084
0.032546121
0.032570143
0.032595043
0.032620675
0.032646858
0.032673387
0.03270002
0.03272652
0.03275264
0.032778166
0.032802914
0.032826759
0.032849643
0.032871588
0.032892698
0.032913164
0.032933237
0.03295323
0.032973482
0.032994317
0.033016035
0.033038878
0.033063024
0.033088575
0.033115567
0.033143984
0.033173774
0.033204882
0.033237264
0.033270901
0.03330577
0.033341746
0.033378553
0.033415517
0.033451973
0.033451476
0.033414978
0.03337807
0.033341477
0.033305733
0.033271088
0.033237636
0.033205411
0.033174451
0.033144816
0.033116582
0.033089813
0.03306454
0.033040735
0.0330183
0.032997062
0.032976773
0.032957128
0.032937793
0.03291842
0.032898685
0.032878327
0.032857149
0.032835041
0.032811975
0.032788008
0.032763261
0.032737915
0.032712183
0.032686306
0.032660517
0.032635055
0.032610131
0.032585926
0.03256258
0.032540195
0.032518837
0.032498528
0.032479256
0.032460966
0.032443574
0.032426965
0.032411001
0.032395523
0.032432478
0.032447223
0.03246241
0.032478195
0.032494715
0.032512084
0.032530386
0.032549675
0.032569966
0.032591236
0.032613422
0.032636427
0.032660116
0.032684313
0.032708803
0.032733347
0.032757715
0.032781678
0.032805029
0.032827594
0.032849259
0.032869974
0.032889775
0.032908784
0.03292721
0.032945332
0.032963491
0.032982053
0.033001366
0.033021746
0.033043446
0.033066635
0.033091404
0.03311776
0.033145656
0.033175003
0.033205703
0.033237672
0.033270859
0.033305233
0.033340719
0.0333771
0.033413922
0.033450501
0.033450487
0.033413835
0.033376955
0.033340562
0.033305118
0.033270838
0.033237794
0.033206022
0.033175586
0.03314659
0.033119158
0.033093407
0.033069412
0.033047183
0.033026646
0.033007632
0.032989881
0.032973055
0.032956782
0.032940668
0.03292434
0.032907496
0.032889903
0.032871421
0.032851997
0.032831667
0.032810534
0.032788758
0.032766532
0.032744073
0.032721606
0.032699374
0.03267759
0.032656421
0.032635995
0.032616406
0.032597715
0.032579943
0.032563072
0.032547053
0.032531802
0.032517207
0.032503135
0.032489432
0.032570638
0.032583076
0.032595769
0.032608867
0.032622499
0.032636771
0.032651762
0.03266752
0.032684059
0.03270136
0.032719366
0.032737986
0.032757102
0.032776553
0.032796136
0.032815613
0.03283475
0.032853347
0.03287123
0.032888261
0.032904358
0.032919511
0.032933796
0.032947389
0.032960555
0.032973643
0.032987073
0.033001282
0.033016688
0.03303366
0.03305247
0.033073287
0.033096164
0.033121055
0.033147845
0.033176375
0.03320648
0.033238018
0.033270899
0.033305064
0.033340433
0.033376784
0.033413659
0.033450355
0.033450655
0.033413986
0.033377121
0.033340792
0.033305474
0.033271407
0.033238696
0.033207428
0.03317774
0.033149823
0.033123906
0.03310021
0.033078916
0.033060121
0.033043805
0.033029807
0.033017827
0.033007447
0.032998177
0.032989503
0.032980929
0.032972033
0.032962488
0.032952067
0.032940648
0.032928206
0.032914788
0.032900506
0.032885511
0.032869989
0.032854189
0.032838339
0.032822633
0.032807219
0.032792207
0.032777687
0.032763712
0.032750304
0.032737453
0.032725119
0.03271323
0.032701689
0.032690376
0.032679149
0.032814693
0.032825368
0.032835893
0.032846395
0.032856977
0.032867721
0.03287868
0.032889882
0.032901325
0.032912981
0.032924788
0.032936661
0.032948495
0.032960143
0.032971428
0.032982141
0.032992
0.033000824
0.033008481
0.033014892
0.033020047
0.033024022
0.033027005
0.033029304
0.033031345
0.033033674
0.033036919
0.033041727
0.033048711
0.03305838
0.033071079
0.03308696
0.03310599
0.033127986
0.033152669
0.033179716
0.033208809
0.033239677
0.033272122
0.033306011
0.033341204
0.03337744
0.03341423
0.033450831
0.033451033
0.033414516
0.033377819
0.033341701
0.033306675
0.033273032
0.033240957
0.03321065
0.033182395
0.033156574
0.033133644
0.033114082
0.033098323
0.033086686
0.03307929
0.033075983
0.033076325
0.033079627
0.033085039
0.033091671
0.033098661
0.033105269
0.033110923
0.033115203
0.03311785
0.033118734
0.033117832
0.033115206
0.033110989
0.033105378
0.033098697
0.033091123
0.033082827
0.033073955
0.033064622
0.033054926
0.033044945
0.033034734
0.033024321
0.03301371
0.033002878
0.032991775
0.032980329
0.032968438
0.033111683
0.033128247
0.033144098
0.033159293
0.033173854
0.033187774
0.033201015
0.033213514
0.03322518
0.033235897
0.03324553
0.033253934
0.03326095
0.033266399
0.033270092
0.033271891
0.033271475
0.033268582
0.033263027
0.033254718
0.033243672
0.03323004
0.033214132
0.033196471
0.033177802
0.033159124
0.03314166
0.03312674
0.033115676
0.033109557
0.033109071
0.03311443
0.033125397
0.033141436
0.033161857
0.033185939
0.033213017
0.033242543
0.033274104
0.03330741
0.033342212
0.033378176
0.033414762
0.033451191
0.033451336
0.033414995
0.033378534
0.033342757
0.033308244
0.033275389
0.03324453
0.033216091
0.033190668
0.033169065
0.033152276
0.033141413
0.033137575
0.033141625
0.033153876
0.033173801
0.033200034
0.033230602
0.033263343
0.03329626
0.033327709
0.033356504
0.033381813
0.033403081
0.033420009
0.033432504
0.033440654
0.033444706
0.033445023
0.033442022
0.03343579
0.033426527
0.033414531
0.033400109
0.033383552
0.033365142
0.033345144
0.033323792
0.033301292
0.033277809
0.033253473
0.033228369
0.033202541
0.033175986
0.033025834
0.033068176
0.033110419
0.033152554
0.033194507
0.033236143
0.033277256
0.033317579
0.033356787
0.033394494
0.033430236
0.033463477
0.033493614
0.033519988
0.033541967
0.033558962
0.033571454
0.033578904
0.033580449
0.033575311
0.033562943
0.033543088
0.033515835
0.033481783
0.033441863
0.033397278
0.033349854
0.033302119
0.033257235
0.033218651
0.033189375
0.033171282
0.033164409
0.033167565
0.033179034
0.033197069
0.03322015
0.033247077
0.033276972
0.03330922
0.033343356
0.0333789
0.033415217
0.033451468
0.033451576
0.03341542
0.033379273
0.033344025
0.033310385
0.033278954
0.033250381
0.033225565
0.033205813
0.03319295
0.033189345
0.033197706
0.033220441
0.033258131
0.03330833
0.033365374
0.033424274
0.033480368
0.033530038
0.033571091
0.033602071
0.033621676
0.033628319
0.033621037
0.033600607
0.033568909
0.033528301
0.03348118
0.033429463
0.033372921
0.033310643
0.033243932
0.033174202
0.033102906
0.033031193
0.032959821
0.032889249
0.032819787
0.032751685
0.03268515
0.032620297
0.032557134
0.032495583
0.032435532
0.031238907
0.031315349
0.031396681
0.031483463
0.03157601
0.031674524
0.031779402
0.031891351
0.032011115
0.032138613
0.03227187
0.0324075
0.032542782
0.032675693
0.032806534
0.032940479
0.03307499
0.0332046
0.033322016
0.033418643
0.032515362
0.031165516
0.030041308
0.029277183
0.029024767
0.029359476
0.030538025
0.032728132
0.033347698
0.033289483
0.033245555
0.033220397
0.033212418
0.033217772
0.033232796
0.033254677
0.033281446
0.033311782
0.03334477
0.033379644
0.033415588
0.033451647
0.033451633
0.033415683
0.033379991
0.033345597
0.033313458
0.033284568
0.033260224
0.033242375
0.033234004
0.033239412
0.033263936
0.033310719
0.033373865
0.029540997
0.026400333
0.024665202
0.023990347
0.024099378
0.024707633
0.025742177
0.027009665
0.028344049
0.029818471
0.031658963
0.03180302
0.031488649
0.031196249
0.030931536
0.030691313
0.030455153
0.030227087
0.03000751
0.029799823
0.029615586
0.029459099
0.029325823
0.029210308
0.029108435
0.02901828
0.028939192
0.028870244
0.0288096
0.025087319
0.025079476
0.02508148
0.025097061
0.02512675
0.025170273
0.025231686
0.025323758
0.025464275
0.025676558
0.025954226
0.026232633
0.026523659
0.026836113
0.027177635
0.027557906
0.028011087
0.028541749
0.028999473
0.026702735
0.024650745
0.022824581
0.021563004
0.02075655
0.019922085
0.019396411
0.019542082
0.020733275
0.023327917
0.027527608
0.033191769
0.033321159
0.03327588
0.033255567
0.033254811
0.033267267
0.033288453
0.033315502
0.033346583
0.03338039
0.033415779
0.033451599
0.033451397
0.03341575
0.033380753
0.033347673
0.033317875
0.033293069
0.03327581
0.033270244
0.033282944
0.033321556
0.033384892
0.026987669
0.021734362
0.017616361
0.016124289
0.015365014
0.015534181
0.015972516
0.017281552
0.018869606
0.020917212
0.023228567
0.024566667
0.023678736
0.022897898
0.022233885
0.021682146
0.021226134
0.02085807
0.020560496
0.020297253
0.020031093
0.019746627
0.019456786
0.019486756
0.019601905
0.019724376
0.01984302
0.019952787
0.020064487
0.020188244
0.020321239
0.015071994
0.014865212
0.014706522
0.01452312
0.014279598
0.014047046
0.013913476
0.012274368
0.011488472
0.0120928
0.011963173
0.012525887
0.012429195
0.012955883
0.012849268
0.013286283
0.013140962
0.01349171
0.013330224
0.01366188
0.01354765
0.013865499
0.0094123085
0.0093514485
0.0092737668
0.0089239814
0.0088220109
0.008800954
0.0087943721
0.0087885986
0.0087829084
0.0087729589
0.008760733
0.0087427661
0.0087231039
0.0086950356
0.0086616444
0.0085843649
0.0086037076
0.0087198282
0.0087027033
0.0087265954
0.0085207696
0.0084385367
0.0084279687
0.0083393575
0.0083361875
0.0083574339
0.0083363179
0.0083602047
0.0083555462
0.0084703064
0.0090003962
0.010634582
0.010267607
0.010037528
0.0099488538
0.0099222182
0.0098959077
0.0096406551
0.0094506437
0.0094423345
0.009435923
0.0094179062
0.0093878146
0.0093411563
0.0092947106
0.0092446454
0.0092030444
0.0091632012
0.0091356647
0.0091134154
0.0091074043
0.0091102119
0.0091261006
0.0091474383
0.0091835612
0.0092269791
0.009286722
0.0093560408
0.0094428582
0.0095405102
0.0096543964
0.009778945
0.0099281062
0.010125617
0.010282972
0.014735395
0.015518665
0.01467039
0.014702807
0.01283927
0.011976844
0.011208612
0.011323331
0.01386921
0.016009217
0.021671885
0.027762279
0.03336979
0.033314487
0.03328803
0.033285514
0.033298346
0.03332073
0.033349203
0.033381561
0.033416165
0.033451582
0.033451362
0.033451325
0.03345144
0.033451511
0.033451514
0.033451445
0.033451336
0.033451205
0.03345106
0.0334509
0.033450708
0.033450492
0.033450279
0.033450261
0.033450535
0.033451227
0.033451928
0.033452228
0.033452426
0.033452085
0.033452587
0.033452486
0.033452626
0.03345246
0.03345235
0.033452215
0.033452126
0.033452067
0.033452037
0.03345202
0.03345201
0.033452003
0.033451997
0.033451991
0.033451985
0.033451979
0.033451972
0.033451966
0.03345196
0.033451955
0.033451949
0.033451943
0.033451938
0.033451932
0.033451926
0.033451921
0.033451915
0.033451909
0.033451903
0.033451897
0.033451891
0.033451886
0.033451883
0.033451888
0.033451906
0.033451953
0.033452031
0.033452155
0.033452255
0.033452412
0.033452264
0.033452358
0.03345185
0.033452186
0.033451987
0.033452489
0.033487388
0.03348726
0.033487557
0.033487586
0.033487924
0.033487963
0.03348803
0.033487917
0.033487829
0.033487737
0.033487685
0.033487659
0.033487651
0.033487651
0.033487654
0.033487658
0.033487661
0.033487664
0.033487667
0.03348767
0.033487673
0.033487676
0.033487678
0.03348768
0.033487683
0.033487685
0.033487686
0.033487688
0.03348769
0.033487692
0.033487693
0.033487694
0.033487696
0.033487697
0.033487697
0.033487698
0.033487699
0.033487703
0.033487715
0.033487745
0.033487801
0.033487896
0.033487986
0.033488103
0.033488038
0.033488002
0.033487665
0.033487638
0.033487342
0.033487055
0.033520593
0.033520537
0.033520831
0.033520884
0.033521042
0.033520981
0.033520926
0.033520843
0.033520788
0.033520756
0.033520743
0.033520739
0.033520739
0.033520739
0.03352074
0.03352074
0.03352074
0.03352074
0.03352074
0.03352074
0.03352074
0.033520739
0.033520739
0.033520739
0.033520738
0.033520737
0.033520736
0.033520736
0.033520735
0.033520734
0.033520733
0.033520731
0.03352073
0.033520728
0.033520727
0.033520725
0.033520725
0.033520728
0.03352074
0.033520771
0.033520825
0.033520907
0.033520962
0.033521023
0.033520864
0.033520811
0.033520515
0.033520571
0.033520133
0.033520091
0.03352027
0.03352044
0.033520557
0.033520527
0.033520442
0.033520347
0.033520278
0.033520236
0.033520216
0.033520208
0.033520207
0.033520207
0.033520209
0.03352021
0.033520212
0.033520213
0.033520215
0.033520216
0.033520217
0.033520218
0.033520219
0.03352022
0.033520221
0.033520222
0.033520222
0.033520223
0.033520224
0.033520224
0.033520224
0.033520225
0.033520225
0.033520225
0.033520226
0.033520227
0.03352023
0.033520239
0.033520261
0.033520304
0.033520375
0.033520471
0.033520556
0.033520588
0.033520472
0.033520302
0.033520124
0.033520167
0.033520003
0.03351986
0.033520011
0.033520234
0.033520351
0.033520321
0.033520216
0.033520105
0.033520022
0.033519971
0.033519944
0.033519931
0.033519925
0.033519923
0.033519921
0.03351992
0.033519919
0.033519918
0.033519917
0.033519916
0.033519915
0.033519913
0.033519912
0.033519911
0.03351991
0.033519908
0.033519907
0.033519905
0.033519904
0.033519903
0.033519901
0.033519899
0.033519897
0.033519896
0.033519895
0.033519894
0.033519897
0.033519907
0.033519932
0.03351998
0.033520062
0.033520171
0.033520274
0.033520302
0.033520183
0.033519958
0.033519806
0.033519949
0.033519813
0.033519732
0.033519922
0.033520183
0.033520311
0.033520276
0.033520159
0.033520039
0.03351995
0.033519898
0.033519872
0.033519862
0.033519859
0.033519859
0.03351986
0.033519862
0.033519864
0.033519866
0.033519868
0.03351987
0.033519872
0.033519874
0.033519876
0.033519878
0.03351988
0.033519881
0.033519883
0.033519885
0.033519887
0.03351989
0.033519892
0.033519894
0.033519896
0.033519898
0.033519901
0.033519905
0.033519912
0.033519927
0.033519957
0.033520013
0.033520104
0.033520228
0.033520347
0.033520385
0.03352026
0.033520002
0.033519815
0.033519896
0.033520018
0.033519933
0.033520145
0.03352042
0.033520544
0.033520497
0.033520365
0.033520233
0.033520135
0.033520076
0.033520044
0.033520028
0.033520019
0.033520014
0.03352001
0.033520006
0.033520003
0.033519999
0.033519996
0.033519993
0.03351999
0.033519987
0.033519984
0.033519981
0.033519979
0.033519976
0.033519973
0.033519971
0.033519969
0.033519966
0.033519964
0.033519961
0.033519959
0.033519957
0.033519955
0.033519954
0.033519957
0.033519967
0.033519993
0.033520047
0.033520139
0.033520267
0.033520395
0.033520439
0.03352031
0.033520031
0.033519815
0.033519899
0.033519927
0.033519893
0.033520129
0.033520413
0.033520537
0.033520485
0.033520349
0.033520216
0.033520121
0.033520067
0.033520042
0.033520032
0.03352003
0.033520031
0.033520033
0.033520036
0.033520039
0.033520042
0.033520045
0.033520047
0.033520051
0.033520054
0.033520057
0.03352006
0.033520064
0.033520068
0.033520071
0.033520075
0.03352008
0.033520084
0.033520089
0.033520094
0.033520099
0.033520104
0.03352011
0.033520117
0.033520127
0.033520145
0.033520178
0.03352024
0.033520341
0.033520481
0.033520622
0.03352068
0.033520562
0.033520284
0.033520053
0.033520088
0.03352016
0.033520131
0.033520365
0.033520637
0.033520747
0.033520681
0.033520534
0.033520389
0.033520285
0.033520221
0.033520186
0.033520166
0.033520154
0.033520145
0.033520138
0.033520131
0.033520124
0.033520118
0.033520111
0.033520106
0.0335201
0.033520095
0.03352009
0.033520085
0.033520081
0.033520077
0.033520073
0.033520069
0.033520065
0.033520062
0.033520058
0.033520055
0.033520051
0.033520048
0.033520045
0.033520044
0.033520045
0.033520054
0.033520079
0.033520133
0.033520228
0.033520365
0.033520505
0.033520564
0.033520447
0.033520166
0.033519926
0.033519952
0.033519939
0.033519921
0.03352016
0.033520437
0.03352055
0.033520487
0.033520344
0.033520206
0.033520111
0.033520058
0.033520034
0.033520025
0.033520024
0.033520026
0.03352003
0.033520033
0.033520037
0.033520041
0.033520045
0.033520049
0.033520053
0.033520058
0.033520063
0.033520068
0.033520073
0.033520079
0.033520085
0.033520091
0.033520098
0.033520106
0.033520113
0.033520121
0.03352013
0.033520139
0.033520148
0.033520159
0.033520173
0.033520194
0.033520231
0.033520297
0.033520403
0.033520551
0.033520703
0.033520774
0.033520671
0.033520404
0.033520173
0.033520194
0.033520224
0.033520203
0.033520431
0.033520694
0.033520792
0.033520717
0.033520563
0.033520413
0.033520305
0.033520238
0.033520199
0.033520176
0.03352016
0.033520148
0.033520136
0.033520126
0.033520116
0.033520106
0.033520097
0.033520088
0.03352008
0.033520073
0.033520066
0.033520059
0.033520052
0.033520047
0.033520041
0.033520036
0.033520031
0.033520026
0.033520022
0.033520017
0.033520013
0.033520009
0.033520005
0.033520003
0.033520003
0.033520011
0.033520035
0.033520087
0.033520182
0.033520319
0.033520463
0.033520528
0.033520418
0.033520144
0.033519906
0.033519924
0.033519915
0.033519897
0.033520134
0.033520407
0.033520516
0.03352045
0.033520306
0.033520169
0.033520075
0.033520023
0.033519999
0.033519992
0.033519992
0.033519995
0.033519999
0.033520004
0.033520008
0.033520013
0.033520018
0.033520023
0.033520029
0.033520035
0.033520041
0.033520047
0.033520055
0.033520062
0.03352007
0.033520079
0.033520088
0.033520098
0.033520108
0.033520119
0.033520131
0.033520143
0.033520156
0.03352017
0.033520187
0.033520212
0.033520252
0.033520321
0.033520431
0.033520582
0.033520738
0.033520815
0.033520718
0.033520459
0.033520232
0.033520255
0.033520284
0.033520261
0.033520487
0.033520746
0.033520842
0.033520764
0.033520607
0.033520455
0.033520345
0.033520275
0.033520233
0.033520208
0.033520189
0.033520173
0.033520159
0.033520146
0.033520133
0.033520121
0.03352011
0.033520099
0.033520089
0.03352008
0.033520071
0.033520062