/*--------------------------------*- C++ -*----------------------------------*\
| =========                 |                                                 |
| \\      /  F ield         | OpenFOAM: The Open Source CFD Toolbox           |
|  \\    /   O peration     | Version:  v2012                                 |
|   \\  /    A nd           | Website:  www.openfoam.com                      |
|    \\/     M anipulation  |                                                 |
\*---------------------------------------------------------------------------*/
FoamFile
{
    version     2.0;
    format      ascii;
    class       volScalarField;
    location    "238";
    object      omega;
}
// * * * * * * * * * * * * * * * * * * * * * * * * * * * * * * * * * * * * * //

dimensions      [0 0 -1 0 0 0 0];


internalField   nonuniform List<scalar> 
48571
(
11.075142
11.076225
11.13182
11.130863
11.131304
11.130369
11.131172
11.130404
11.130916
11.130658
11.130735
11.130656
11.130631
11.130616
11.130616
11.130631
11.130656
11.130735
11.130658
11.130916
11.130404
11.131173
11.130369
11.131304
11.130864
11.13182
11.131182
11.132596
11.131874
11.132579
11.132172
11.132252
11.132102
11.132073
11.132049
11.132053
11.132057
11.132062
11.132065
11.132066
11.132067
11.132068
11.132069
11.132069
11.132069
11.13207
11.13207
11.13207
11.132071
11.132071
11.132071
11.132071
11.132071
11.132071
11.132071
11.13207
11.13207
11.13207
11.132069
11.132068
11.132065
11.132061
11.132056
11.132053
11.132077
11.132106
11.132256
11.132176
11.132583
11.131878
11.1326
11.131186
11.131824
11.130868
11.131311
11.130382
11.131194
11.13044
11.130967
11.130729
11.130828
11.130771
11.130768
11.130772
11.130785
11.130806
11.130829
11.130898
11.130802
11.131034
11.130495
11.131234
11.130408
11.131327
11.130879
11.131836
11.131202
11.132621
11.131907
11.132619
11.132219
11.132305
11.13216
11.132136
11.132115
11.13212
11.132124
11.132122
11.132098
11.132036
11.131923
11.131767
11.131587
11.131411
11.131303
11.13129
11.131287
11.131284
11.131282
11.131279
11.131277
11.131275
11.131274
11.131281
11.131385
11.131555
11.13173
11.131881
11.131989
11.132048
11.132069
11.132069
11.132064
11.132059
11.132081
11.132109
11.132258
11.132176
11.132582
11.131876
11.132597
11.131182
11.075892
11.077201
11.076711
11.077383
11.077049
11.077073
11.076896
11.076826
11.07678
11.076773
11.076771
11.076747
11.076645
11.076392
11.075952
11.075353
11.074676
11.074031
11.073649
11.073614
11.073613
11.073618
11.073624
11.073629
11.073635
11.073642
11.073653
11.073701
11.074094
11.074753
11.075443
11.076054
11.076506
11.076769
11.07688
11.07691
11.076918
11.07693
11.076977
11.077046
11.07722
11.07719
11.077517
11.076838
11.07732
11.076006
11.076335
11.075168
11.018347
10.957761
10.897583
10.837456
10.780391
10.727497
10.681321
10.646171
10.629235
10.646139
10.728315
10.944995
11.486912
12.777784
15.952807
26.696182
55.087176
119.07169
254.09618
379.42106
321.25295
326.90827
318.28141
267.62549
255.19926
221.50961
213.69848
206.16581
198.15057
175.25114
164.13179
161.60191
157.46695
152.40443
147.12733
141.98614
129.85722
125.18274
121.54732
118.2725
114.83664
108.48165
106.20205
103.70339
101.68562
99.935022
96.135185
88.055892
87.019378
83.67914
82.035701
80.917671
79.652322
78.289643
76.902659
75.628083
74.459805
73.346019
72.289112
71.265371
70.279928
69.321244
68.387524
67.483474
66.593925
65.739832
64.889573
64.064367
63.254725
62.459704
61.696613
60.933946
60.192023
59.469839
58.755955
58.065198
57.384675
56.71662
56.072262
55.430364
54.803272
54.197705
53.59375
53.003392
52.433873
51.86837
51.313824
50.776494
50.249608
49.728183
49.221299
48.732834
48.243854
47.766558
47.309681
46.859112
46.416344
45.988885
45.584428
45.180257
44.783003
44.38788
43.972958
43.52002
42.695262
41.235046
40.633167
40.219921
39.847521
39.491138
39.354346
39.229109
39.046098
38.780115
38.576893
38.271941
37.869892
37.71193
37.571465
37.357031
37.045791
36.775206
36.533285
36.308602
36.09454
35.880275
35.671797
35.465448
35.26909
35.057156
34.846243
34.472559
33.797689
33.458324
33.196098
10.112115
10.163025
10.214689
10.267077
10.320165
10.373939
10.428392
10.483534
10.539398
10.596055
10.653631
10.712287
10.772176
10.833249
10.895243
10.957136
11.017992
11.017611
11.018539
11.018283
11.018789
11.018545
11.018494
11.018305
11.018198
11.01813
11.018107
11.018093
11.018041
11.017849
11.017391
11.016604
11.015544
11.014355
11.013244
11.012603
11.012524
11.012521
11.012528
11.012537
11.012547
11.012558
11.012571
11.012595
11.012697
11.013362
11.014498
11.015712
11.016797
11.017606
11.018086
11.018298
11.018371
11.018404
11.018444
11.018526
11.018647
11.018846
11.018905
11.019154
11.018652
11.018913
11.017986
11.018368
10.958107
10.897386
10.837568
10.780377
10.727331
10.680772
10.644716
10.626714
10.643407
10.736761
11.02628
11.917798
14.010432
13.879774
16.148558
27.833293
56.250961
45.04798
31.119151
25.087942
31.546619
52.525272
72.958084
113.00922
131.6155
178.66027
90.436427
156.61595
304.93578
525.29277
367.67627
414.26389
510.09874
388.61637
386.92561
371.45384
306.38787
289.14112
241.70559
229.03511
218.4031
209.53072
196.97701
184.80763
176.15999
164.026
188.06132
194.18439
199.96686
206.511
245.58264
251.14373
259.76237
344.12568
350.00802
443.12848
405.1511
449.86203
262.03593
196.92336
310.44117
325.86823
311.6576
402.12613
308.25412
306.55011
242.39019
239.5557
232.75587
197.33395
193.39461
187.4669
182.03151
159.17968
153.9822
157.58285
154.45983
152.41221
148.08829
144.34533
132.94876
127.83941
124.00999
120.43767
117.6244
115.47454
110.43164
108.96515
109.02948
105.47678
102.89062
100.79065
98.822987
94.288349
92.628565
90.174976
89.195847
96.049249
97.972924
100.23007
102.53279
105.17915
107.38547
115.11824
118.02138
121.17226
124.77543
128.6315
131.97283
146.55423
151.7104
149.62397
145.48033
142.10078
131.46069
128.81073
124.9968
121.75858
118.69763
115.87488
113.63287
107.24228
105.62964
102.96196
100.62621
98.576155
96.71794
89.672395
86.346526
84.555012
81.274801
80.596048
79.822076
78.462883
77.147182
75.891114
74.683149
73.52064
72.395928
71.305508
70.248314
69.219583
68.223014
67.250468
66.310439
65.392059
64.496767
63.627515
62.775886
61.954665
61.148464
60.363137
59.599904
58.853599
58.128726
57.419856
56.726594
56.0554
55.392394
54.745643
54.117557
53.498531
52.892971
52.307136
51.729232
51.164637
50.615571
50.079263
49.550785
49.037373
48.540979
48.049497
47.568259
47.105351
46.653202
46.208886
45.778057
45.365959
44.965807
44.575111
44.187108
43.77911
43.570376
43.123363
42.656651
43.387216
43.829852
44.213488
44.597053
44.999397
45.417063
45.851755
46.299276
46.756611
47.227341
47.715735
48.213685
48.723048
49.247616
49.788938
50.341276
50.907326
51.48875
52.087775
52.697063
53.325983
53.970276
54.628586
55.3042
55.999039
56.704858
57.432719
58.181503
58.948482
59.735333
60.550888
61.387501
62.24871
63.134713
64.046697
64.986527
65.956471
66.951592
67.980762
69.03931
70.135801
71.263477
72.432637
73.63995
74.891806
76.191989
77.550865
78.988378
80.542296
82.789352
84.037782
84.945948
85.891201
86.272272
86.374069
85.151964
85.344638
85.206524
85.10823
84.204124
82.727932
81.006174
79.036996
77.677927
76.384448
75.138715
73.921677
72.740727
71.583139
70.460695
69.359983
68.290663
67.24755
66.229908
65.241226
64.273159
63.333877
62.41822
61.523479
60.660199
59.811672
58.992749
58.200835
57.42016
56.6615
55.927627
55.203126
54.49957
53.815814
53.144629
52.491548
51.860655
51.238714
50.636936
50.054283
49.483622
48.925749
48.387127
47.863642
47.354304
46.856281
46.376124
45.909081
45.455312
45.015109
44.590977
44.18202
43.792018
43.398959
42.932916
42.17634
41.157758
40.503806
40.030875
39.615072
39.200762
39.062479
39.004991
38.294237
38.230522
37.976866
38.013408
38.60336
38.725696
39.77223
39.932964
41.168297
41.316965
42.178039
42.278222
42.802949
42.857441
43.111781
43.134452
43.23963
43.189659
43.144631
43.323776
43.550971
43.456847
43.06067
42.954583
42.491217
42.348181
41.611763
41.424728
40.595482
40.395292
39.608888
39.405701
38.6391
38.446796
37.782648
37.601879
37.030331
36.852352
36.713057
36.791881
36.88379
36.737269
36.159336
35.974126
35.330953
35.143128
34.529626
34.347043
33.78203
33.603306
33.091695
32.927278
32.805014
32.868315
32.925357
32.800404
32.381361
32.242934
31.923685
32.125703
32.494977
32.711128
32.462859
32.159706
32.571677
32.800037
33.230486
33.490076
33.974623
34.244013
34.757796
35.033287
35.573676
35.851683
36.358336
36.612375
36.308941
35.944561
36.4367
36.682154
37.166316
37.437334
38.000326
38.295966
38.940724
39.252045
39.930389
40.240963
40.943301
41.234079
41.863248
42.091144
42.504613
42.678853
43.048805
43.221182
42.838488
42.423672
42.752853
42.819185
42.75531
42.72258
42.514667
42.422287
41.970017
41.79807
41.046063
40.780017
39.694427
39.418507
38.50971
38.29758
37.785019
37.715387
37.941129
38.045466
38.685295
38.815656
38.98123
39.175359
39.2333
39.110897
39.094028
39.000477
39.017351
38.93648
36.839524
37.61587
37.821485
38.160102
38.53311
39.208856
41.48615
42.470026
42.92063
43.266995
43.603872
43.948935
44.310096
44.680945
45.076453
45.484568
45.910667
46.341507
46.79174
47.245395
47.711896
48.181326
48.669079
49.157069
49.660106
50.166297
50.690465
51.213477
51.755681
52.301393
52.861471
53.424633
54.006555
54.585625
55.182564
55.783421
56.398624
57.016751
57.651841
58.285417
58.936053
59.585313
60.245767
60.909695
61.579223
62.245423
62.916067
63.572798
64.233353
64.869244
65.497119
66.089344
66.65689
67.177659
67.659228
68.081595
68.472517
68.742651
68.596286
67.642803
64.061912
63.144031
69.238264
68.98043
59.781321
58.844428
42.999302
41.994375
37.624439
33.354411
29.23066
25.625376
22.536151
19.187903
16.329714
14.418034
12.987404
11.977247
11.637453
11.04003
10.755143
10.632955
10.598436
10.604611
10.632673
10.673691
10.722609
10.776641
10.834227
10.894195
10.955297
11.016049
11.074962
11.074287
11.074751
11.074618
11.074719
11.074662
11.074625
11.074587
11.074558
11.074539
11.074531
11.074557
11.074443
11.074579
11.074131
11.07483
11.074494
11.075447
11.075085
11.018063
10.957011
10.895893
10.833925
10.773469
10.714279
10.656692
10.600486
10.545546
10.491769
10.43912
10.387585
10.337152
10.287794
10.239461
10.192074
10.145531
10.099706
10.054465
10.009668
9.9651844
9.9209069
9.8767508
9.8326632
9.7886226
9.7446376
9.7007408
9.6569861
9.6134386
9.5701744
9.5272674
9.4847917
9.4428034
9.4013575
9.3604938
9.3202369
9.280597
9.2415704
9.2031399
9.1652758
9.1279375
9.0910758
9.0546342
9.0185514
9.0213182
9.0573685
9.0937728
9.1305921
9.167883
9.205694
9.2440662
9.2830293
9.3225996
9.3627808
9.4035629
9.4449209
9.4868169
9.5291995
9.5720091
9.6151709
9.6586119
9.7022556
9.7460367
9.7899015
9.8338181
9.8777783
9.9218047
9.9659512
10.010304
10.054972
10.100089
10.145796
10.19223
10.239517
10.287761
10.33704
10.387404
10.43888
10.49148
10.545218
10.600129
10.656296
10.713832
10.772857
10.833276
10.894841
10.95643
11.017213
11.015913
10.955094
10.893392
10.832009
10.771742
10.712907
10.655518
10.59947
10.544657
10.491016
10.438518
10.387157
10.336927
10.287804
10.239738
10.192653
10.146444
10.10098
10.056123
10.011725
9.9676485
9.9237809
9.8800327
9.8363473
9.7927007
9.7490998
9.7055751
9.6621797
9.6189792
9.5760487
9.5334595
9.4912848
9.4495862
9.4084169
9.3678133
9.3277989
9.2883824
9.2495602
9.2113164
9.1736217
9.1364349
9.099708
9.063385
9.0274053
9.0378034
9.0736703
9.1098634
9.1464423
9.183462
9.22097
9.2590064
9.2975999
9.3367664
9.3765096
9.4168202
9.4576756
9.4990408
9.5408648
9.5830827
9.6256208
9.6684102
9.7113792
9.7544644
9.7976143
9.8408005
9.8840191
9.9272976
9.9706971
10.014313
10.058264
10.102696
10.147763
10.193612
10.240377
10.288167
10.337059
10.3871
10.438307
10.49068
10.54422
10.598941
10.654903
10.712209
10.770975
10.831217
10.892654
10.954548
11.015713
11.015088
10.953971
10.892127
10.830746
10.770568
10.711871
10.654639
10.598757
10.544127
10.490703
10.438482
10.387477
10.337698
10.289135
10.241747
10.195455
10.150147
10.105678
10.061891
10.01862
9.9757072
9.9330214
9.8904593
9.8479527
9.805468
9.7630044
9.7205873
9.6782637
9.636093
9.5941421
9.5524798
9.5111809
9.4703104
9.4299179
9.3900364
9.3506884
9.3118838
9.2736194
9.2358795
9.1986369
9.1618537
9.1254837
9.0894738
9.0537659
9.0767055
9.1122013
9.1479674
9.1840598
9.2205286
9.2574172
9.2947604
9.332583
9.370899
9.4097103
9.4490064
9.4887648
9.5289537
9.5695251
9.6104148
9.6515477
9.6928519
9.7342651
9.7757336
9.8172161
9.8586933
9.9001732
9.9416977
9.9833463
10.025235
10.067513
10.110356
10.153949
10.198469
10.244073
10.290884
10.338978
10.388393
10.439126
10.491153
10.544442
10.598982
10.654805
10.712
10.770678
10.830859
10.892268
10.954173
11.015392
11.015359
10.954205
10.892349
10.830988
10.770858
10.712236
10.655111
10.599382
10.544977
10.491884
10.44014
10.389799
10.340909
10.293489
10.247514
10.202904
10.159525
10.117196
10.075712
10.034858
9.9944299
9.9542518
9.9141886
9.8741442
9.8340644
9.7939311
9.7537556
9.7135722
9.6734289
9.6333843
9.5935187
9.553907
9.5146125
9.4756823
9.4371478
9.3990328
9.3613496
9.3240986
9.2872693
9.2508406
9.2147822
9.179055
9.1436129
9.108404
9.1516671
9.1864663
9.2214575
9.2566877
9.2921971
9.3280187
9.3641767
9.4006865
9.4375535
9.4747729
9.5123285
9.5501954
9.5883393
9.6267112
9.6652492
9.7038775
9.7424974
9.7810519
9.8194976
9.8578079
9.8959812
9.9340486
9.972081
10.010198
10.048563
10.08739
10.126929
10.16744
10.209174
10.25235
10.297122
10.343573
10.391713
10.441496
10.49284
10.545656
10.599874
10.655477
10.712517
10.771078
10.831164
10.892496
10.954334
11.015479
11.015493
10.954383
10.892581
10.831295
10.771267
10.712786
10.655863
10.600433
10.546477
10.494053
10.443275
10.394288
10.347223
10.302171
10.259144
10.218055
10.178713
10.14084
10.104107
10.06818
10.032741
9.9975188
9.9623103
9.9269671
9.891399
9.855561
9.8194433
9.7830649
9.7464649
9.7097017
9.6729139
9.6361768
9.5995536
9.5630974
9.5268461
9.4908284
9.4550654
9.4195687
9.3843399
9.3493713
9.3146468
9.2801416
9.2458233
9.2116521
9.2982856
9.3314732
9.3647475
9.3981379
9.431666
9.4653449
9.4991798
9.5331681
9.5672988
9.6015524
9.635903
9.670318
9.7047553
9.7391596
9.7734661
9.8076092
9.841368
9.87468
9.9075123
9.9398589
9.9717453
10.003234
10.034436
10.06553
10.096769
10.128494
10.161121
10.195106
10.230902
10.268894
10.309341
10.352341
10.397842
10.445685
10.495655
10.547528
10.601118
10.656311
10.713082
10.771465
10.831427
10.892668
10.954437
11.015522
11.015561
10.954502
10.892768
10.831578
10.771697
10.713443
10.656879
10.602017
10.548944
10.497859
10.449057
10.402891
10.359712
10.3198
10.283275
10.250014
10.219632
10.19154
10.165069
10.139578
10.114525
10.089519
10.064284
10.03862
10.012383
9.985462
9.9577785
9.9292945
9.9000144
9.8700101
9.8396702
9.8090151
9.7781004
9.7469758
9.7156778
9.6842397
9.6526943
9.6210716
9.5893981
9.5576941
9.5259733
9.494242
9.4624987
9.4307322
9.6447998
9.6750183
9.7049954
9.734702
9.764095
9.793122
9.8217248
9.8498397
9.8774001
9.9043385
9.9305974
9.9561444
9.9809703
10.005065
10.028415
10.051011
10.072349
10.092204
10.110644
10.127857
10.144113
10.159694
10.174859
10.189902
10.205148
10.220999
10.238085
10.257207
10.279252
10.305116
10.33547
10.370587
10.410226
10.453881
10.500962
10.550904
10.603237
10.657632
10.713907
10.771984
10.83176
10.892885
10.954579
11.01561
11.015667
10.954665
10.893019
10.831975
10.772342
10.714507
10.658639
10.60491
10.553646
10.505381
10.460874
10.421062
10.386991
10.359476
10.338765
10.324356
10.31539
10.310741
10.309334
10.310096
10.312335
10.315873
10.320372
10.325049
10.329007
10.331262
10.330972
10.327592
10.320975
10.311938
10.30115
10.28857
10.274086
10.257566
10.238943
10.218311
10.195865
10.171822
10.146378
10.11971
10.091988
10.06338
10.034039
10.004085
10.684016
10.716404
10.747016
10.775407
10.801173
10.823877
10.842955
10.857671
10.86724
10.871186
10.869809
10.863844
10.85372
10.839462
10.820431
10.793514
10.758483
10.716331
10.669096
10.620169
10.574262
10.53296
10.496088
10.46253
10.432894
10.410142
10.395747
10.390896
10.396283
10.411953
10.437294
10.47108
10.511686
10.557474
10.607196
10.659978
10.715277
10.772778
10.832221
10.893159
10.954747
11.01572
11.015768
10.954817
10.893291
10.832485
10.773292
10.716241
10.661725
10.610271
10.562767
10.520632
10.486034
10.461475
10.449637
10.453794
10.476229
10.517662
10.578783
10.66123
10.764244
10.869949
10.982038
11.108358
11.247992
11.393354
11.527555
11.644219
11.740323
11.815375
11.872362
11.921176
11.960998
11.992667
12.015421
12.024657
12.019065
12.001229
11.974153
11.94024
11.900882
11.856874
11.808991
11.758305
13.601515
13.708531
13.812653
13.911575
14.004511
14.090734
14.166967
14.224785
14.252481
14.236294
14.179846
14.120051
14.049543
13.962292
13.852602
13.715193
13.531013
13.297312
13.016419
12.694212
12.35159
12.022409
11.729729
11.462727
11.139366
10.904042
10.739619
10.625513
10.55015
10.508454
10.49702
10.507517
10.533248
10.569947
10.614317
10.663947
10.717411
10.773865
10.832727
10.893354
10.954785
11.015688
11.015738
10.954828
10.893471
10.833035
10.774562
10.718843
10.666716
10.61948
10.57947
10.550429
10.537745
10.550548
10.605845
10.725945
10.899074
11.173226
11.602273
12.267099
13.3788
13.9891
14.740925
15.440107
16.097905
16.689033
17.20525
17.632682
17.968096
18.219923
18.390429
18.49306
18.561369
18.631174
18.719285
18.806277
18.586759
18.293448
18.003053
17.724167
17.461226
17.205972
16.950415
16.696221
22.129544
22.649149
23.133301
23.672928
24.326111
24.990821
25.514371
28.956629
30.489312
28.899554
28.99035
27.620968
27.628836
26.446972
26.470766
25.529097
25.614949
24.864404
24.972966
24.288954
24.325576
23.696481
32.156311
32.536989
32.95874
34.043953
34.482918
34.707473
34.898528
35.089001
35.283995
35.490495
35.701764
35.925801
36.15563
36.410612
36.678295
37.070043
37.084122
36.7449
36.96341
36.997218
37.898357
38.310296
38.471929
38.944629
38.961351
38.876261
38.966484
38.921033
38.953222
38.563663
36.643579
31.942522
32.862308
33.786568
34.320145
34.67422
35.00664
36.089052
37.016376
37.382551
37.735181
38.13332
38.584119
39.106856
39.643656
40.209178
40.756947
41.312235
41.830616
42.339193
42.789308
43.209873
43.580303
43.934919
44.228105
44.491362
44.678893
44.821599
44.877874
44.881259
44.801776
44.669637
44.417547
43.949668
43.651716
29.186848
27.326146
22.126518
17.583256
15.150573
13.323225
12.16233
11.478817
11.055599
10.781616
10.632831
10.579715
10.572527
10.591308
10.625729
10.669987
10.720525
10.775375
10.833365
10.893518
10.954686
11.015437
11.013406
11.013545
11.013676
11.013761
11.013745
11.013695
11.013639
11.013589
11.013549
11.013517
11.01347
11.013345
11.013195
11.013054
11.013558
11.014627
11.016418
11.018082
11.017699
11.018625
11.018364
11.018865
11.018614
11.018557
11.01836
11.018244
11.018168
11.018137
11.018125
11.018121
11.018119
11.018117
11.018115
11.018114
11.018112
11.01811
11.018107
11.018105
11.018103
11.018101
11.018099
11.018096
11.018094
11.018092
11.01809
11.018087
11.018085
11.018083
11.01808
11.018078
11.018075
11.018072
11.018069
11.018069
11.018077
11.018104
11.018176
11.018287
11.018481
11.018536
11.018783
11.018281
11.018539
11.017612
11.017995
11.017977
11.075059
11.076225
11.075892
11.077199
11.076708
11.077377
11.077041
11.077062
11.076883
11.076809
11.076761
11.07675
11.07675
11.076753
11.076756
11.076759
11.076761
11.076762
11.076763
11.076764
11.076766
11.076766
11.076767
11.076768
11.076769
11.07677
11.07677
11.076771
11.076771
11.076772
11.076772
11.076772
11.076773
11.076773
11.076772
11.076771
11.076769
11.076767
11.076769
11.07678
11.07683
11.076905
11.077085
11.077065
11.077402
11.076732
11.077225
11.075918
11.076251
11.075173
11.13113
11.131008
11.131524
11.13149
11.131748
11.131601
11.131531
11.131403
11.131332
11.131291
11.131277
11.131272
11.131272
11.131273
11.131274
11.131274
11.131275
11.131275
11.131275
11.131275
11.131275
11.131275
11.131275
11.131275
11.131275
11.131275
11.131274
11.131274
11.131273
11.131273
11.131273
11.131272
11.131271
11.13127
11.131269
11.131268
11.131268
11.131272
11.131286
11.131327
11.131397
11.131525
11.131595
11.131742
11.131484
11.131518
11.131002
11.131124
11.130413
11.130357
11.130555
11.130764
11.13088
11.130815
11.130675
11.130536
11.130438
11.130382
11.130356
11.130345
11.130342
11.130342
11.130342
11.130343
11.130344
11.130345
11.130345
11.130346
11.130347
11.130347
11.130348
11.130348
11.130348
11.130348
11.130349
11.130349
11.130349
11.130349
11.130349
11.130349
11.130349
11.130349
11.130349
11.13035
11.130353
11.130364
11.130391
11.130447
11.130546
11.130686
11.130826
11.130891
11.130775
11.130567
11.130369
11.130426
11.130164
11.129876
11.13004
11.130308
11.130429
11.130356
11.13019
11.130029
11.129916
11.129851
11.129818
11.129804
11.129799
11.129797
11.129796
11.129796
11.129796
11.129795
11.129795
11.129794
11.129794
11.129793
11.129793
11.129793
11.129792
11.129791
11.129791
11.12979
11.12979
11.129789
11.129788
11.129787
11.129786
11.129786
11.129785
11.129786
11.129791
11.129804
11.129835
11.129899
11.130011
11.130171
11.130337
11.13041
11.130287
11.130019
11.129854
11.130142
11.129929
11.129751
11.129966
11.130281
11.130413
11.130325
11.130137
11.129961
11.129841
11.129774
11.129742
11.129728
11.129724
11.129723
11.129724
11.129724
11.129725
11.129726
11.129727
11.129728
11.129729
11.129729
11.12973
11.129731
11.129732
11.129733
11.129734
11.129735
11.129736
11.129737
11.129737
11.129738
11.129739
11.12974
11.129741
11.129744
11.12975
11.129765
11.129799
11.129868
11.12999
11.130167
11.130356
11.130444
11.130314
11.13
11.129786
11.129964
11.13015
11.129946
11.130203
11.130538
11.130664
11.130557
11.130349
11.130158
11.13003
11.129959
11.129924
11.129909
11.129902
11.129899
11.129897
11.129896
11.129894
11.129893
11.129891
11.12989
11.129889
11.129887
11.129886
11.129885
11.129884
11.129882
11.129881
11.12988
11.129879
11.129878
11.129877
11.129876
11.129875
11.129874
11.129873
11.129874
11.129878
11.12989
11.129922
11.129991
11.130117
11.130305
11.130512
11.130617
11.130489
11.130152
11.129894
11.130097
11.130133
11.130022
11.130305
11.130644
11.130761
11.130639
11.130419
11.130222
11.130092
11.130023
11.129991
11.129979
11.129976
11.129976
11.129976
11.129978
11.129979
11.12998
11.129982
11.129983
11.129984
11.129986
11.129987
11.129989
11.12999
11.129992
11.129994
11.129996
11.129997
11.13
11.130002
11.130004
11.130006
11.130008
11.130011
11.130015
11.130022
11.130038
11.130073
11.130146
11.130279
11.130479
11.130701
11.130825
11.130711
11.130375
11.130094
11.130205
11.130262
11.130154
11.130439
11.130768
11.13087
11.130734
11.130502
11.130296
11.13016
11.130086
11.13005
11.130034
11.130026
11.130022
11.130018
11.130015
11.130012
11.130009
11.130006
11.130004
11.130001
11.129999
11.129997
11.129995
11.129992
11.129991
11.129989
11.129987
11.129985
11.129984
11.129982
11.129981
11.129979
11.129977
11.129976
11.129976
11.129979
11.12999
11.130021
11.130091
11.130223
11.130425
11.130654
11.130787
11.130681
11.130349
11.130061
11.130168
11.130138
11.130045
11.13033
11.130656
11.130754
11.130615
11.130382
11.130178
11.130046
11.129976
11.129946
11.129935
11.129933
11.129933
11.129935
11.129936
11.129938
11.12994
11.129942
11.129944
11.129946
11.129948
11.12995
11.129952
11.129955
11.129958
11.12996
11.129963
11.129966
11.12997
11.129973
11.129977
11.129981
11.129985
11.129989
11.129994
11.130003
11.13002
11.130056
11.130131
11.130268
11.130477
11.130714
11.130857
11.130764
11.130442
11.13016
11.130254
11.130251
11.130156
11.130435
11.130751
11.13084
11.130693
11.130454
11.130244
11.130107
11.130031
11.129994
11.129977
11.129968
11.129961
11.129956
11.129951
11.129947
11.129942
11.129938
11.129934
11.129931
11.129927
11.129924
11.129921
11.129918
11.129915
11.129913
11.12991
11.129908
11.129906
11.129904
11.129901
11.129899
11.129898
11.129896
11.129895
11.129897
11.129908
11.129938
11.130006
11.130138
11.130342
11.130576
11.130718
11.130625
11.130303
11.13002
11.130113
11.130099
11.130005
11.130287
11.130607
11.1307
11.130557
11.130322
11.130119
11.129987
11.129919
11.129889
11.129879
11.129877
11.129878
11.12988
11.129882
11.129884
11.129887
11.129889
11.129891
11.129894
11.129897
11.1299
11.129902
11.129906
11.12991
11.129913
11.129917
11.129921
11.129926
11.129931
11.129936
11.129941
11.129946
11.129952
11.129959
11.129969
11.129987
11.130025
11.130101
11.130239
11.13045
11.130689
11.130838
11.130751
11.130436
11.130159
11.130255
11.130269
11.130173
11.13045
11.130764
11.13085
11.130702
11.130461
11.130251
11.130112
11.130035
11.129997
11.129979
11.129968
11.129961
11.129954
11.129948
11.129942
11.129937
11.129931
11.129926
11.129922
11.129917
11.129913
11.129909
11.129906
11.129903
11.1299
11.129897
11.129894
11.129891
11.129889
11.129886
11.129884
11.129881
11.129879
11.129878
11.12988
11.12989
11.12992
11.129988
11.130119
11.130323
11.130557
11.1307
11.130608
11.130287
11.130006
11.130099
11.130114
11.13002
11.130303
11.130625
11.130719
11.130577
11.130344
11.13014
11.130008
11.12994
11.129911
11.1299
11.129899
11.1299
11.129902
11.129904
11.129907
11.129909
11.129912
11.129914
11.129918
11.129921
11.129924
11.129927
11.129931
11.129935
11.129939
11.129944
11.129949
11.129954
11.12996
11.129966
11.129972
11.129978
11.129985
11.129993
11.130004
11.130023
11.130061
11.130138
11.130277
11.130488
11.130728
11.130876
11.130788
11.130472
11.130194
11.13029
11.130313
11.130218
11.130499
11.13082
11.130912
11.130768
11.13053
11.130319
11.13018
11.130103
11.130065
11.130045
11.130033
11.130025
11.130018
11.130011
11.130005
11.129999
11.129993
11.129988
11.129983
11.129978
11.129974
11.12997
11.129966
11.129963
11.129959
11.129956
11.129953
11.12995
11.129948
11.129945
11.129942
11.12994
11.129938
11.129937
11.12994
11.129951
11.129981
11.130049
11.130181
11.130384
11.130616
11.130755
11.130657
11.130331
11.130045
11.130138
11.130168
11.130062
11.130349
11.130683
11.130788
11.130656
11.130428
11.130227
11.130096
11.130027
11.129997
11.129985
11.129978
11.129974
11.129975
11.129977
11.129979
11.129982
11.129985
11.129987
11.129991
11.129994
11.129997
11.130001
11.130004
11.130009
11.130013
11.130018
11.130022
11.130028
11.130033
11.130039
11.130045
11.130052
11.13006
11.130073
11.130088
11.130108
11.130147
11.130223
11.130361
11.130568
11.130801
11.130938
11.130837
11.130509
11.130225
11.130332
11.130279
11.130168
11.130449
11.130785
11.130899
11.130775
11.130552
11.130351
11.130217
11.130142
11.130104
11.130085
11.130068
11.130039
11.130017
11.130008
11.130001
11.129996
11.129991
11.129986
11.129981
11.129976
11.129972
11.129968
11.129965
11.129961
11.129958
11.129955
11.129952
11.129949
11.129947
11.129944
11.129942
11.129944
11.129957
11.129978
11.129987
11.129999
11.130029
11.130098
11.130227
11.130423
11.130642
11.130763
11.130646
11.130306
11.130023
11.130133
11.130098
11.129894
11.130153
11.130491
11.13062
11.130515
11.13031
11.130122
11.129998
11.12993
11.129899
11.129887
11.129877
11.129852
11.129796
11.129766
11.129762
11.129763
11.129766
11.129768
11.129771
11.129774
11.129777
11.12978
11.129784
11.129788
11.129791
11.129796
11.1298
11.129804
11.129809
11.129815
11.129827
11.129865
11.129928
11.12996
11.129977
11.129996
11.130032
11.130105
11.130233
11.130423
11.130631
11.130737
11.130609
11.130273
11.130015
11.130218
11.130021
11.129844
11.130061
11.130377
11.13051
11.130425
11.130238
11.130063
11.129942
11.129873
11.129838
11.12982
11.129804
11.129771
11.1297
11.12959
11.129536
11.129523
11.129517
11.129513
11.129509
11.129505
11.129502
11.129498
11.129495
11.129492
11.129489
11.129486
11.129484
11.129481
11.129481
11.129487
11.129535
11.129637
11.129702
11.129729
11.129739
11.129752
11.129783
11.129849
11.129968
11.130142
11.130329
11.130415
11.130283
11.129967
11.129751
11.129929
11.130142
11.129855
11.13002
11.130289
11.130413
11.130342
11.130177
11.130018
11.129907
11.129844
11.129814
11.129802
11.129792
11.129765
11.129699
11.129583
11.12944
11.129384
11.129376
11.129377
11.129379
11.129381
11.129384
11.129387
11.12939
11.129393
11.129396
11.129399
11.129403
11.129408
11.129422
11.129484
11.129634
11.129756
11.129828
11.12986
11.129874
11.12989
11.129922
11.129986
11.130097
11.130255
11.130418
11.130486
11.13036
11.130088
11.12992
11.130206
11.130454
11.1304
11.130603
11.130816
11.130938
11.130879
11.130744
11.130609
11.130514
11.130459
11.130433
11.130421
11.13041
11.13038
11.130311
11.13019
11.130027
11.129859
11.129805
11.129794
11.129789
11.129787
11.129784
11.129781
11.129778
11.129776
11.129773
11.129771
11.129769
11.129775
11.129825
11.129986
11.130143
11.130259
11.130323
11.130349
11.130357
11.130367
11.130392
11.130446
11.130543
11.130681
11.130819
11.130883
11.130766
11.130557
11.130357
11.130414
11.131124
11.131002
11.131519
11.131486
11.131745
11.131599
11.131531
11.131404
11.131335
11.131296
11.131283
11.13128
11.131275
11.131252
11.13119
11.131079
11.130925
11.13075
11.130596
11.130572
11.130571
11.130573
11.130575
11.130577
11.13058
11.130583
11.130585
11.130588
11.130595
11.130623
11.130783
11.130963
11.131123
11.131239
11.131304
11.131331
11.131338
11.131343
11.131356
11.131394
11.131461
11.131584
11.131648
11.131787
11.131523
11.131551
11.13103
11.131148
11.075269
11.07554
11.074605
11.016233
10.955859
10.895036
10.83531
10.77808
10.724732
10.677235
10.639105
10.616861
10.623402
10.687148
10.89061
11.387232
11.76373
12.263409
12.630796
12.426805
14.357022
17.393084
21.215639
27.373157
33.982681
37.836561
42.593685
47.645786
52.728332
59.465545
81.401406
90.608567
91.746552
90.059972
88.531777
87.728779
86.366997
82.266135
77.100691
74.035166
71.122943
66.563856
59.527357
56.670341
44.971892
30.816057
23.951997
17.208025
14.1578
12.736157
13.855382
12.188775
12.50133
11.604124
10.95977
10.721421
10.640197
10.625479
10.643876
10.680022
10.726595
10.779603
10.836732
10.896522
10.957187
11.017512
11.01672
11.01495
11.013899
10.953063
10.952499
10.952553
10.952637
10.952681
10.952635
10.952557
10.952473
10.952396
10.95233
10.952272
10.952199
10.952059
10.951899
10.951786
10.952313
10.953532
10.955558
10.957364
10.957011
10.957609
10.957468
10.95782