/*--------------------------------*- C++ -*----------------------------------*\
| =========                 |                                                 |
| \\      /  F ield         | OpenFOAM: The Open Source CFD Toolbox           |
|  \\    /   O peration     | Version:  v2012                                 |
|   \\  /    A nd           | Website:  www.openfoam.com                      |
|    \\/     M anipulation  |                                                 |
\*---------------------------------------------------------------------------*/
FoamFile
{
    version     2.0;
    format      ascii;
    class       surfaceScalarField;
    location    "238";
    object      phi;
}
// * * * * * * * * * * * * * * * * * * * * * * * * * * * * * * * * * * * * * //

dimensions      [0 3 -1 0 0 0 0];
oriented        oriented;


internalField   nonuniform List<scalar> 
141264
(
-6.2279697e-05
-0.0042777704
7.4340515e-06
9.7433634e-05
0.0042702669
-3.5084502e-05
-0.0040518333
3.6075816e-06
0.0039854414
5.0464848e-07
6.7243873e-05
-7.5573669e-06
5.5081738e-05
-5.6542811e-05
0.0039254411
-1.6281826e-06
-3.1038617e-05
0.0041191619
-0.00012079444
-5.3085185e-05
0.0043953283
-2.3270098e-05
-8.7441698e-05
0.0047350685
-8.1893341e-05
-0.00010667585
0.0049672773
-1.6693702e-05
-0.00011141535
0.0051384153
-1.8165093e-05
-0.00010848197
0.0051995267
5.0328122e-07
-0.00010621893
0.0052224789
2.5884186e-06
-0.00010504435
0.0052194554
2.3991246e-06
-0.00010467462
0.0052125577
2.7847585e-07
-0.00010455219
0.0052079117
-1.8488679e-06
-0.000104548
0.005207896
-2.0547617e-06
-0.00010466401
0.0052125518
3.2646203e-09
-0.00010502814
0.0052194579
1.8628937e-05
-0.00010619734
0.0052224926
1.711342e-05
-0.00010845456
0.0051995379
8.223249e-05
-0.00011138122
0.0051384631
2.3539409e-05
-0.00010663474
0.0049673197
0.00012099751
-8.7395336e-05
0.0047351156
1.7655323e-06
-5.3038655e-05
0.0043953763
5.6612578e-05
-3.0997442e-05
0.0041192096
-6.7213776e-05
0.003925492
-7.5022681e-06
0.0040518926
5.5011334e-05
-0.00014602732
0.0041963093
8.7667431e-05
-2.4601365e-05
0.0043970538
0.00010055659
-8.5859441e-05
0.0044678677
0.00010525822
2.8996727e-07
0.0045131187
0.00010757181
-4.2827152e-06
0.0044673103
0.00010606381
1.6972568e-05
0.004416722
0.00010345238
1.3190477e-05
0.0043627656
0.00010026323
9.9128648e-06
0.0043254532
9.8086209e-05
4.8550249e-06
0.0043025652
9.6691452e-05
2.0276988e-06
0.004290951
9.5960206e-05
4.3795574e-07
0.004285633
9.5606964e-05
-2.5725579e-07
0.0042834858
9.5456371e-05
-5.0645684e-07
0.0042827048
9.5395277e-05
-5.9166562e-07
0.0042824514
9.5370213e-05
-6.1543997e-07
0.0042823948
9.5359891e-05
-6.4372602e-07
0.0042824004
9.5354402e-05
-6.6538938e-07
0.0042824085
9.5350731e-05
-6.6314935e-07
0.0042823971
9.5347008e-05
-6.6401408e-07
0.0042824064
9.5340724e-05
-6.7231246e-07
0.0042824123
9.5331795e-05
-6.8551136e-07
0.0042824225
9.5324008e-05
-6.9949135e-07
0.0042824415
9.5318751e-05
-7.0185499e-07
0.0042824339
9.5313532e-05
-6.9638673e-07
0.0042824372
9.5307494e-05
-7.0034387e-07
0.0042824457
9.530001e-05
-6.974817e-07
0.0042824527
9.5292336e-05
-6.9778781e-07
0.0042824595
9.5285009e-05
-6.9181016e-07
0.0042824684
9.5278084e-05
-6.8590398e-07
0.0042824779
9.5270493e-05
-6.7942514e-07
0.0042824844
9.5261644e-05
-6.625873e-07
0.0042824859
9.5251258e-05
-6.3701738e-07
0.004282493
9.5241763e-05
-6.8368994e-07
0.0042825854
9.5237695e-05
-8.9733116e-07
0.0042828491
9.5248409e-05
-1.5493966e-06
0.0042836313
9.5295873e-05
-3.0884268e-06
0.0042857846
9.5433695e-05
-5.8576039e-06
0.0042911111
9.5774713e-05
-1.0849672e-05
0.0043027341
9.6493628e-05
-1.4054138e-05
0.0043256308
9.7875735e-05
-1.7755914e-05
0.0043629516
0.00010003973
3.585936e-06
0.0044169168
0.00010321605
-8.9341057e-07
0.0044675127
0.00010581465
8.5353694e-05
0.004513329
0.0001073121
2.4197818e-05
0.0044680799
0.00010499122
0.00014572589
0.0043972688
0.00010028875
7.3006388e-06
0.0041965177
8.7405086e-05
6.7110725e-05
0.0040520972
5.4755015e-05
-5.686133e-05
0.0039256749
-2.2588599e-06
0.0041193622
-3.0887499e-05
-0.00012175228
0.0043955354
-5.2918508e-05
-2.4577994e-05
0.0047352834
-8.7261863e-05
-8.3565947e-05
0.0049674849
-0.00010648883
-1.8739379e-05
0.0051386113
-0.00011122427
-2.0540641e-05
0.0051996609
-0.00010828511
-2.1808034e-06
0.0052225762
-0.00010601585
-3.5372732e-07
0.0052194842
-0.00010483354
-7.3965058e-07
0.0052125007
-0.00010445582
-2.9950059e-06
0.005207765
-0.00010432266
-5.1970783e-06
0.005207704
-0.00010430633
-5.408152e-06
0.0052122557
-0.00010440854
-3.2675499e-06
0.0052190386
-0.00010475833
1.5535644e-05
0.0052219417
-0.00010591219
1.4281624e-05
0.0051988681
-0.00010815647
7.9781965e-05
0.005137637
-0.00011107471
2.1537533e-05
0.0049664043
-0.00010633067
0.00011948656
0.0047341452
-8.7102792e-05
7.6029147e-07
-5.2759268e-05
0.0043944059
5.6114503e-05
-3.07283e-05
0.0041182559
-6.6939188e-05
0.0039245504
-6.9691993e-06
0.0040509776
5.5518603e-05
-0.00014524928
0.0041953973
8.817608e-05
-2.3588731e-05
0.0043961407
0.00010107094
-8.4621768e-05
0.0044669789
0.00010577815
1.7305149e-06
0.0045122696
0.00010808783
-2.6603238e-06
0.0044665167
0.00010656205
1.8752113e-05
0.0044159839
0.0001039295
1.5105123e-05
0.0043620784
0.00010071724
1.1938565e-05
0.004324814
9.851983e-05
6.9677197e-06
0.0043019724
9.7107663e-05
4.2051622e-06
0.0042904013
9.636118e-05
2.6607335e-06
0.0042851213
9.5993262e-05
1.9915489e-06
0.0042830096
9.5827977e-05
1.7493821e-06
0.0042822647
9.5752317e-05
1.6784494e-06
0.004282035
9.5714263e-05
1.6523247e-06
0.0042819873
9.5693026e-05
1.6330282e-06
0.0042820108
9.5680392e-05
1.5965946e-06
0.004282047
9.5668797e-05
1.5592172e-06
0.0042820663
9.5654883e-05
1.5461397e-06
0.0042820669
9.5641478e-05
1.5126873e-06
0.00428209
9.5629598e-05
1.4747939e-06
0.0042821079
9.5617265e-05
1.4342066e-06
0.0042821236
9.5605451e-05
1.3953231e-06
0.0042821319
9.5595121e-05
1.3508766e-06
0.0042821488
9.5585413e-05
1.3147649e-06
0.0042821549
9.5578525e-05
1.2778663e-06
0.0042821684
9.5571845e-05
1.2460078e-06
0.0042821702
9.5562896e-05
1.2141452e-06
0.0042821741
9.5554694e-05
1.1667408e-06
0.0042821892
9.5548252e-05
1.1291466e-06
0.0042822021
9.5542433e-05
1.1060132e-06
0.0042822045
9.5533531e-05
1.0611707e-06
0.004282209
9.5523918e-05
9.5456461e-07
0.0042822982
9.5523436e-05
6.6997044e-07
0.0042825624
9.5539887e-05
-5.3107984e-08
0.0042833483
9.5593477e-05
-1.6670821e-06
0.0042855052
9.5736072e-05
-4.5174766e-06
0.0042908326
9.6080837e-05
-9.5969583e-06
0.0043024547
9.6803756e-05
-1.2895341e-05
0.0043253514
9.8191902e-05
-1.6700858e-05
0.0043626764
0.00010036448
4.5249385e-06
0.0044166474
0.00010355027
-8.4263656e-08
0.0044672477
0.00010615811
8.6024396e-05
0.0045130637
0.00010766074
2.4725054e-05
0.0044678178
0.00010533709
0.00014611228
0.0043970023
0.00010062208
0.0041962527
8.773114e-05
-2.9594857e-05
0.004135475
9.3980119e-05
-2.5112412e-05
0.0042838631
0.00010865671
-4.0504235e-05
0.0043681002
0.00011510936
-2.4090678e-05
0.0043792599
0.00011739026
-1.7041788e-05
0.0043431285
0.00011707036
-6.9997041e-06
0.004291083
0.00011552233
-2.7704599e-06
0.0042449342
0.00011351293
-1.248959e-06
0.0042118859
0.00011194398
-1.5070112e-06
0.004191858
0.00011085475
-2.0881138e-06
0.0041811907
0.000110223
-2.6054028e-06
0.0041761272
0.0001098952
-2.9577157e-06
0.0041739507
0.00010974993
-3.1833831e-06
0.0041730916
0.00010969645
-3.3379199e-06
0.0041727667
0.00010968601
-3.4060233e-06
0.0041725818
0.00010969535
-3.5219707e-06
0.0041726061
0.00010971439
-3.7053733e-06
0.0041726495
0.00010973605
-3.8243579e-06
0.0041725517
0.00010975651
-3.9381799e-06
0.0041725103
0.00010977765
-3.987878e-06
0.0041724176
0.00010980235
-4.1694513e-06
0.0041725209
0.00010982903
-4.2840789e-06
0.0041724151
0.00010985442
-4.3204966e-06
0.004172304
0.00010988118
-4.4952598e-06
0.0041723943
0.00010991231
-4.6082345e-06
0.0041722915
0.00010994511
-4.7239858e-06
0.0041722456
0.00010997806
-4.8380005e-06
0.004172191
0.00011001298
-4.8902227e-06
0.0041720676
0.00011005151
-4.9943629e-06
0.0041720769
0.00011009354
-5.1557295e-06
0.0041720716
0.00011013681
-5.2306108e-06
0.004171906
0.00011017975
-5.2208932e-06
0.0041717507
0.00011022691
-5.2788895e-06
0.0041718069
0.0001102861
-5.3762294e-06
0.0041719958
0.00011036624
-5.5597541e-06
0.0041727032
0.00011048993
-5.8594376e-06
0.0041747147
0.0001107063
-6.1664386e-06
0.0041796021
0.00011110616
-6.0857157e-06
0.0041900807
0.00011181102
-4.1523728e-06
0.0042099054
0.00011297521
5.7007667e-07
0.0042427345
0.00011462138
1.1194654e-05
0.0042886495
0.00011670984
1.8920097e-05
0.0043404554
0.00011833588
3.6098462e-05
0.004376364
0.00011872723
2.1547564e-05
0.0043650305
0.00011649934
2.6903924e-05
0.0042807133
0.00011007108
-5.4176573e-06
0.0041323224
9.5396461e-05
-4.2482949e-07
0.0039823069
6.3677814e-05
0.0039040942
2.0031424e-05
0.0038692673
8.1040655e-06
2.6722755e-05
0.0038477337
3.1003968e-06
1.8433229e-05
0.0038325794
1.5450566e-06
1.3609301e-05
0.0038152388
2.5434851e-06
1.479709e-05
0.003800623
1.4511351e-06
1.316462e-05
0.0037836797
1.8151728e-06
1.5128192e-05
0.0037676343
1.9698542e-07
1.5848368e-05
0.0037494696
-1.7050741e-06
1.9869751e-05
0.0037262116
-4.0181344e-06
2.7276143e-05
0.0036757786
-2.9658134e-07
5.0729643e-05
0.0035311502
2.7129436e-05
0.00011749889
0.0030742502
0.00015084214
0.00030605789
0.0016960203
0.0005968603
0.00078136957
0.00076025756
0.00061206665
0.00032369612
0.00057558499
8.0533549e-05
0.00010413901
0.00025380451
8.1348326e-05
0.00024043216
8.1693485e-05
9.4569405e-05
7.7541617e-05
5.762425e-05
3.7278847e-06
2.034135e-05
7.5360135e-05
2.7925602e-05
-4.5661487e-05
9.0824614e-05
-1.1978942e-05
-3.4855378e-06
0.00014032682
1.8614414e-05
-6.8116617e-05
0.00012701534
-4.0640901e-06
1.7375572e-05
0.00012421266
2.5952926e-06
2.0738381e-07
0.00017900642
2.1318869e-06
-5.6925647e-05
0.00016908004
1.2914349e-05
-2.9879662e-06
0.00021367528
9.9298958e-06
-5.4525142e-05
0.00018040624
-6.8444889e-06
4.0113534e-05
0.00014061373
1.5823308e-06
3.8210174e-05
0.00011105302
2.3520301e-05
6.0404105e-06
0.00016329931
4.3916991e-06
-5.6637987e-05
0.00028172266
-7.9974964e-05
-3.8448385e-05
0.0003148955
-8.4188834e-05
5.1015992e-05
0.00016034728
0.00011531838
3.922984e-05
0.00014962106
8.6222558e-06
2.1039689e-06
0.00015098203
-2.5070337e-05
2.3709367e-05
0.00015461927
-4.8874787e-06
1.2502367e-06
0.00023911781
-7.8608399e-06
-7.6637702e-05
0.0002355305
-6.5141962e-06
1.0101506e-05
0.00021680093
-6.6034412e-06
2.5333012e-05
0.00019127423
-7.2793705e-06
3.2806074e-05
0.0001847188
-2.2209183e-06
8.7763392e-06
0.00021526464
4.9234486e-05
-7.9780324e-05
0.00023052516
-3.9946427e-05
2.4685913e-05
0.00019389175
1.7547295e-05
1.9086114e-05
0.00014977893
9.7023895e-06
3.4410423e-05
0.00011174467
2.5190172e-05
1.2844091e-05
0.00015229736
7.3093786e-07
-4.1283624e-05
0.00045463709
-6.9860651e-05
-0.00023247908
0.00044463309
-0.00011727379
0.00012727779
0.00071783609
-0.0001570804
-0.0001161226
0.00054811334
5.7237488e-05
0.00011248526
0.00025882113
0.00020002966
8.9262554e-05
0.00022935071
1.684432e-05
1.2626098e-05
0.00024500819
-2.4448655e-05
8.791174e-06
0.00026120867
-1.4245316e-05
-1.9551647e-06
0.00026782801
-5.5673046e-06
-1.0520303e-06
0.00026978694
-2.4211177e-06
4.6218415e-07
0.00026901682
-1.3168264e-06
2.0869424e-06
0.00026735597
-1.0737117e-06
2.7345611e-06
0.0002649626
-8.8589682e-07
3.2792749e-06
0.00026242888
-8.2428948e-07
3.3580109e-06
0.00025996693
-7.0854784e-07
3.1704955e-06
0.00025724739
-5.6269981e-07
3.2822343e-06
0.0002551693
-5.6355266e-07
2.6416409e-06
0.0002525958
-3.87466e-07
2.9609658e-06
0.00025090968
-5.0712574e-07
2.193253e-06
0.00024899543
-3.6116507e-07
2.275415e-06
0.00024734307
-3.8111567e-07
2.0334712e-06
0.00024623524
-3.7116822e-07
1.4789996e-06
0.00024464844
-2.5549657e-07
1.8422938e-06
0.00024404653
-4.1610867e-07
1.0180187e-06
0.00024319275
-3.0511445e-07
1.158898e-06
0.00024247625
-3.0163231e-07
1.0181351e-06
0.00024236453
-3.6977362e-07
4.8148644e-07
0.00024195774
-2.6097294e-07
6.6777191e-07
0.00024191668
-2.9313794e-07
3.3418959e-07
0.00024228585
-3.4064646e-07
-2.8522368e-08
0.00024233395
-2.7679136e-07
2.2869616e-07
0.0002429631
-3.4666291e-07
-2.8248769e-07
0.00024373812
-3.0618005e-07
-4.6884163e-07
0.00024426573
-2.5977859e-07
-2.6783251e-07
0.00024538073
-3.4877468e-07
-7.6622811e-07
0.00024662783
-3.0791836e-07
-9.391786e-07
0.00024762211
-2.6615965e-07
-7.2812275e-07
0.00024913822
-3.4243142e-07
-1.1736747e-06
0.00025081562
-3.2413116e-07
-1.3532709e-06
0.00025232152
-2.7639979e-07
-1.2294993e-06
0.00025410361
-3.1608112e-07
-1.4660072e-06
0.00025620614
-3.3523375e-07
-1.7672936e-06
0.00025819791
-2.8646793e-07
-1.7053087e-06
0.00026020722
-2.9588945e-07
-1.7134171e-06
0.0002626381
-3.4001184e-07
-2.0908702e-06
0.00026503145
-2.389205e-07
-2.1544256e-06
0.00026717134
-2.0457283e-07
-1.9353221e-06
0.00026958711
-2.5599012e-07
-2.1597752e-06
0.00027174828
-7.8410662e-08
-2.0827639e-06
0.00027328525
1.7765696e-07
-1.7146258e-06
0.0002737
5.9752035e-07
-1.0122653e-06
0.0002726165
1.3640345e-06
-2.8054141e-07
0.0002684725
3.0562319e-06
1.0877746e-06
0.000258906
6.6702942e-06
2.8962072e-06
0.00024223991
1.3529521e-05
3.1365608e-06
0.00022977262
2.0530036e-05
-8.0627411e-06
0.00026501944
-2.017932e-05
-1.5067501e-05
0.00059589699
-0.00022006726
-0.0001108103
0.0010524134
-0.00020226242
-0.00025425404
0.0011794411
-3.7714715e-05
-8.9312951e-05
0.0011825676
1.2060613e-05
-1.5187071e-05
0.0010972397
5.8724156e-05
2.6603745e-05
0.00070124068
0.00021963114
0.00017636785
0.00017566832
0.0002114335
0.00031413886
0.00010639102
2.1030345e-05
4.8246957e-05
0.00011967893
-8.5534038e-06
-4.734511e-06
0.00012957072
-1.8232504e-05
8.3407121e-06
0.0001512397
-8.6902655e-06
-1.2978706e-05
0.00031823247
-4.9850259e-05
-0.00011714252
0.00029065
-4.5805646e-05
7.3388122e-05
0.00016845078
4.7464209e-05
7.4735008e-05
0.00011470532
5.9709761e-05
-5.964304e-06
0.00014350545
-2.9239866e-06
-2.5876138e-05
0.00018030468
-2.6056021e-05
-1.0743216e-05
0.00020912269
-2.1614738e-05
-7.2032705e-06
0.00022702608
-1.4577167e-05
-3.326225e-06
0.00023831888
-1.004231e-05
-1.2504832e-06
0.0002452227
-6.9595923e-06
5.5773239e-08
0.00024827985
-4.464574e-06
1.4074168e-06
0.00024673826
-1.9681175e-06
3.5097067e-06
0.00023951969
3.5497022e-07
6.8635993e-06
0.0002246979
1.4611094e-06
1.3360683e-05
0.00021357033
-8.5458474e-06
1.9673416e-05
0.000246239
-1.4286625e-05
-1.8382046e-05
0.00055644053
-0.00010423228
-0.00020596925
0.00097884218
-0.00023376614
-0.00018863551
0.0011072662
-9.3565918e-05
-3.4858137e-05
-2.6932028e-05
4.2961927e-05
-0.0039534801
6.9263096e-06
-1.3834844e-05
2.7309504e-06
-0.0039498226
6.1660047e-06
-1.2303583e-05
2.4800735e-06
-0.0039466166
5.4756626e-06
-1.0918637e-05
2.2370422e-06
-0.0039437981
4.8529816e-06
-9.6761051e-06
2.0046464e-06
-0.0039413047
4.2974403e-06
-8.5724928e-06
1.7816386e-06
-0.0039390533
3.811151e-06
-7.6142097e-06
1.5516322e-06
-0.0039369403
3.408031e-06
-6.8186736e-06
1.2976185e-06
-0.0039348365
3.1107611e-06
-6.2207507e-06
1.006183e-06
-0.0039326285
2.9765904e-06
-5.8607303e-06
6.7616914e-07
-0.0039303181
2.9667394e-06
-5.7462758e-06
4.6910108e-07
-0.0039282396
3.1349626e-06
-5.8269051e-06
6.1345826e-07
-0.0039270183
2.8315206e-06
-6.0075018e-06
1.9546649e-06
-0.0039279978
3.2064619e-06
-6.3317355e-06
4.1047752e-06
-0.003931733
1.6743627e-06
-6.1784506e-06
8.2392928e-06
-0.003938285
1.8184167e-06
-6.0603257e-06
1.0793962e-05
-0.0039525689
-6.0909724e-07
-3.1602227e-06
1.8053152e-05
2.6205183e-06
-6.467932e-06
3.6719971e-05
-8.2665733e-06
0.0040954202
5.0941921e-05
-1.8888544e-05
0.0042343745
6.0110582e-05
-2.4476834e-05
0.0043090857
6.4602848e-05
-2.3721624e-05
0.004312587
6.5917636e-05
-1.8870411e-05
0.0042728164
6.5460891e-05
-1.34839e-05
0.0042213086
6.4387886e-05
-9.1009734e-06
0.0041772636
6.3287692e-05
-6.5345683e-06
0.0041468602
6.2459273e-05
-5.4048325e-06
0.0041288092
6.1919048e-05
-5.1191161e-06
0.0041192925
6.1612468e-05
-5.2100849e-06
0.0041147562
6.1462036e-05
-5.4317166e-06
0.0041127682
6.1404148e-05
-5.6787026e-06
0.0041119432
6.1395324e-05
-5.9183253e-06
0.0041115951
6.1411235e-05
-6.2086606e-06
0.004111433
6.1439084e-05
-6.422906e-06
0.0041113483
6.1472005e-05
-6.5660288e-06
0.0041112844
6.1508176e-05
-6.7696535e-06
0.0041112079
6.1547404e-05
-6.9725191e-06
0.004111124
6.1589185e-05
-7.2401654e-06
0.0041110521
6.1633124e-05
-7.3807345e-06
0.0041109826
6.1678884e-05
-7.5859853e-06
0.0041108928
6.1727506e-05
-7.8539239e-06
0.0041107931
6.1778894e-05
-7.9923354e-06
0.0041106995
6.1833215e-05
-8.1970949e-06
0.0041106044
6.1891904e-05
-8.4037728e-06
0.0041104978
6.1954441e-05
-8.6078408e-06
0.0041103742
6.2020913e-05
-8.8689385e-06
0.0041102371
6.2091578e-05
-9.0522922e-06
0.0041100947
6.2165499e-05
-9.1540057e-06
0.0041099297
6.2243649e-05
-9.2994811e-06
0.0041097242
6.2327234e-05
-9.4191563e-06
0.0041094536
6.2416685e-05
-9.4995511e-06
0.0041093726
6.2514711e-05
-9.5253627e-06
0.0041093945
6.2627137e-05
-9.4511185e-06
0.004109863
6.2765968e-05
-9.1587524e-06
0.0041114667
6.2955671e-05
-8.3877756e-06
0.0041155916
6.323959e-05
-6.6551934e-06
0.0041246667
6.36814e-05
-3.3519314e-06
0.0041422423
6.4359875e-05
1.9186586e-06
0.0041721336
6.5330347e-05
8.3588043e-06
0.0042156329
6.6576466e-05
1.4434538e-05
0.0042665805
6.7799119e-05
1.6577572e-05
0.0043058268
6.8394162e-05
1.2505744e-05
0.0043019161
6.718623e-05
3.4676767e-06
0.0042270006
6.2750681e-05
-5.8393963e-06
0.0040880421
5.3587319e-05
0.0039452487
3.9322942e-05
0.0039245098
1.6921568e-06
2.2147054e-05
0.0039088938
5.3361923e-07
1.6627447e-05
0.003893373
2.0076099e-06
1.6056701e-05
0.0038777603
2.9420507e-06
1.4121801e-05
0.003861579
3.3504287e-06
1.4646078e-05
0.0038435406
1.9130342e-06
1.6322331e-05
0.0038221307
-1.4100247e-06
2.1114831e-05
0.0037936588
-5.429348e-06
2.9883065e-05
0.0037422499
-2.6203124e-06
5.3732701e-05
0.0036273202
2.418619e-05
0.00011787289
0.0033551766
0.00010119266
0.00032179313
0.0014212309
0.00011115922
0.0013590849
0.0010605619
5.2945378e-05
1.7363432e-05
0.00095817325
0.00039274886
0.00055374396
0.00011126807
0.00060455606
2.9721446e-05
0.00019394495
0.00019878109
-4.7311138e-05
0.00034048949
-6.2648565e-08
6.0330935e-05
1.6855321e-05
0.00011682134
8.8562766e-06
6.8941074e-05
0.00012092109
2.7236311e-05
7.7379227e-05
-0.00022197784
0.00012621857
0.00013807995
6.1179458e-05
-0.00029777769
0.0001257546
1.3284897e-06
3.8515661e-05
8.4418394e-05
1.3817402e-05
-1.0931088e-05
6.6035781e-05
7.4032555e-06
-7.5660154e-06
6.5379887e-05
8.6342671e-06
-9.0904827e-06
5.6535737e-05
1.3929805e-05
-1.0295664e-05
1.1122992e-05
5.0413125e-05
-2.892745e-05
-4.0986466e-06
3.338658e-06
1.9391774e-05
3.3364663e-05
4.9132613e-05
3.1235884e-05
1.7580176e-06
4.9006322e-05
-1.1327175e-05
-6.4432631e-06
5.4536664e-06
4.4038457e-05
9.0205711e-06
-9.5063723e-06
3.3579856e-05
-2.0058809e-07
1.9881905e-05
1.7190095e-06
9.1754013e-05
1.8752352e-05
-4.6586004e-05
0.00014495803
4.8931934e-05
-8.3521537e-05
0.00015902154
3.0923688e-05
-4.905129e-05
0.00013283384
1.57214e-05
1.306159e-05
0.0002009767
7.791602e-06
-7.3802575e-05
0.00019437743
-1.6297208e-06
2.1143345e-05
0.00022046108
-9.7123682e-05
8.0969926e-05
0.00023983363
6.5552541e-05
-9.1769579e-05
0.00017609401
3.3898035e-05
3.1423921e-05
0.00013871763
3.4138026e-05
2.6758646e-05
0.00017354611
-3.0436782e-05
0.00013492854
-4.1357386e-05
0.00012809293
-6.2191955e-05
-1.5161268e-05
-0.00012451623
1.4997885e-05
0.00039057721
-0.00015296593
-0.00023853209
2.3181639e-06
4.9505742e-05
-0.00027697959
9.5541015e-06
6.3031416e-05
-0.00028927467
1.1129397e-05
3.506372e-05
-0.00011409929
3.4498613e-05
-0.0001164561
-9.3217891e-05
-0.00024569171
-5.0712255e-06
5.919643e-05
7.7467214e-05
-0.00029820708
-6.5948738e-06
5.7480526e-05
-0.00017133109
2.7932706e-05
-0.0001470171
-0.00020978195
2.521246e-05
2.8959796e-05
-7.4983591e-05
2.7617588e-05
-9.5510698e-05
-6.6905245e-05
-0.00015545604
1.1956265e-05
2.2471463e-05
4.6044719e-05
-5.8967413e-05
3.1864604e-05
-0.00010960088
-2.0811796e-05
1.581795e-05
-3.0446148e-05
-2.3527419e-05
7.9140459e-06
-3.0463247e-05
1.7374057e-06
2.9283628e-05
2.3015239e-05
1.2150917e-05
5.5649306e-05
-1.0547729e-05
8.7316405e-05
-1.7889326e-05
-1.3777773e-05
0.00015422658
7.3640731e-05
-0.0001086863
0.00013930595
-2.836731e-05
5.5244202e-05
0.00024226766
7.5239384e-05
-0.0001505835
0.00020187627
9.1916545e-06
5.6412193e-05
0.00029726966
0.00011560747
-0.00018306815
0.00029097715
-9.5484599e-05
9.5182226e-05
0.00021490272
1.1922795e-06
6.9810927e-05
0.0003139889
0.00012324115
-0.00018782871
0.00033660545
-9.5928152e-05
8.4440995e-05
0.00027080774
1.9738125e-05
5.5613692e-05
0.00020355107
7.6249431e-06
6.194989e-05
0.00038660671
1.7669087e-05
-0.00018572684
1.6412464e-05
0.00036013515
-2.3036297e-05
3.3095392e-05
5.7567985e-05
0.00032166086
2.776082e-05
0.00016696895
5.9174192e-06
0.00017619268
-6.014788e-07
0.00017567498
-4.6178509e-05
2.1625873e-05
0.00015989103
-9.1286087e-06
2.0025084e-05
0.00025302354
-6.6086686e-06
-9.4384682e-05
0.0002751443
-3.8417244e-05
9.7822877e-06
0.00025486967
-1.5255664e-05
2.8926852e-05
0.0002126903
8.9990365e-06
2.5900957e-05
0.00017832858
8.1816822e-06
2.3959124e-05
3.8113938e-05
0.000108484
-5.5602694e-08
3.1786245e-05
9.4434567e-05
-7.0861421e-06
5.2847772e-05
1.640367e-06
0.00022623629
1.6943877e-05
-8.1848397e-05
0.00024193065
-2.5222888e-06
4.3752283e-06
0.00019201444
3.1076515e-05
2.8542079e-05
0.00014967609
4.0921696e-05
2.6606823e-05
0.0001703695
-1.9962472e-05
0.00019830831
-9.7799458e-05
0.00022691225
-8.7994859e-05
-5.788287e-05
0.00017745447
-3.8049432e-05
-6.9573194e-05
-0.00013666889
2.662064e-05
0.00050035279
-0.00021285008
-0.00018437234
-8.9007857e-06
1.8554806e-05
-0.00029539163
-1.3524642e-05
3.6549074e-05
-0.00031163366
1.012248e-05
4.7041243e-05
-0.00033576669
2.9914998e-05
2.5294551e-05
-0.0002982518
-8.7247441e-05
4.721026e-05
-0.0002086704
0.00011795844
-0.00019059596
-0.00026120371
-8.8410911e-06
6.1318799e-05
-0.00029451703
-3.9870334e-06
4.5482035e-05
-0.00031141456
-6.4622526e-06
3.2358814e-05
-0.0003411243
-2.9071479e-06
1.7361231e-05
-0.00030948392
-0.00011651604
4.6458411e-05
-0.00022799201
0.00010353256
-0.00019163314
-0.00026316757
-3.3574206e-05
5.9621159e-05
-3.1311764e-05
4.3626546e-05
0.00030820692
-3.0176336e-05
5.0792801e-05
0.00023847528
-2.6859994e-05
6.3017422e-05
8.4415225e-05
0.00012625117
-1.505848e-05
4.2867366e-05
0.00011099214
-3.9560393e-05
0.00035937623
2.3428321e-05
-0.00014556124
0.00035919739
-1.2140459e-05
9.4121537e-06
0.0003294636
-1.1751792e-05
3.5023326e-05
0.00029133017
-8.3733721e-06
4.2519765e-05
0.00023399442
-7.5001648e-06
5.5994826e-05
7.1210735e-05
0.00012468524
-2.2528273e-06
4.0351274e-05
0.00012470421
-2.2782474e-05
0.00036038605
4.0187668e-05
-0.00015118428
0.00036507142
1.4259757e-05
1.0969872e-05
0.00032983749
7.9345481e-06
3.7421868e-05
0.00027552882
2.3866174e-06
3.8397404e-05
0.00022566687
1.6314704e-06
3.93297e-05
0.00052499202
1.2402164e-05
-0.00028510668
0.00057701051
0.00040947653
-0.00012119167
0.00021728693
6.1870121e-05
0.00039802611
4.0567236e-05
7.6547045e-05
0.00023367521
2.8224573e-05
0.00025019645
3.230749e-07
0.00029337558
-7.8267326e-05
1.063954e-05
0.00030231485
-2.2088109e-05
-1.0964767e-06
0.00030425101
-7.7106835e-06
2.0721768e-07
0.00030290114
-3.8620163e-06
2.7907692e-06
0.00029997729
-2.5076683e-06
4.1146988e-06
0.00029637698
-2.1958555e-06
4.7224499e-06
0.00029262132
-2.0032577e-06
4.8730266e-06
0.00028872887
-1.7710336e-06
4.8391853e-06
0.0002851598
-1.6059689e-06
4.4664985e-06
0.00028143272
-1.2632494e-06
4.4276251e-06
0.00027829415
-1.2255177e-06
3.8005395e-06
0.00027504646
-9.5201987e-07
3.812239e-06
0.00027235757
-1.0113204e-06
3.193086e-06
0.0002699462
-8.8988229e-07
2.9400844e-06
0.00026762595
-7.9210627e-07
2.7312411e-06
0.0002659835
-8.4221245e-07
2.1134946e-06
0.00026409684
-6.1609387e-07
2.2472556e-06
0.00026286399
-7.8722257e-07
1.6039725e-06
0.00026184945
-7.1350851e-07
1.4229278e-06
0.00026090428
-6.1656007e-07
1.260099e-06
0.00026051928
-7.2410675e-07
7.3933029e-07
0.00026008808
-5.8293589e-07
7.5316309e-07
0.00025996732
-5.4769602e-07
3.7531797e-07
0.00026027934
-6.5158774e-07
-1.078848e-09
0.00026049369
-5.8945703e-07
9.8315237e-08
0.00026115258
-6.1624746e-07
-3.8929909e-07
0.00026211112
-5.8808633e-07
-6.7663618e-07
0.00026294116
-5.2472389e-07
-5.6509829e-07
0.00026425026
-5.9324506e-07
-1.0646213e-06
0.00026583953
-5.803816e-07
-1.3168155e-06
0.00026725757
-5.1358698e-07
-1.1706134e-06
0.00026913208
-5.6992195e-07
-1.6470116e-06
0.00027127511
-5.7861865e-07
-1.8885488e-06
0.00027334136
-5.227993e-07
-1.8198442e-06
0.00027563332
-5.238733e-07
-2.0841691e-06
0.00027828751
-5.6759975e-07
-2.4218289e-06
0.00028099957
-5.3327561e-07
-2.4652486e-06
0.00028365495
-5.0098345e-07
-2.4502843e-06
0.00028673465
-5.7287496e-07
-2.8468436e-06
0.00028997151
-4.3608303e-07
-3.0396931e-06
0.00029295864
-3.4729913e-07
-2.8444006e-06
0.0002961056
-3.5039272e-07
-3.0525615e-06
0.00029923519
-8.5898818e-08
-3.1220973e-06
0.00030189297
4.1130398e-07
-2.8914268e-06
0.0003036126
1.2375627e-06
-2.3596724e-06
0.00030421229
2.5709374e-06
-1.806595e-06
0.00030256863
5.3767282e-06
-6.7684103e-07
0.00029713625
1.1223965e-05
8.7871718e-07
0.00028601183
2.3329758e-05
1.3241805e-06
0.00024471166
7.3552854e-05
-1.1722646e-05
0.00022592227
-1.3899303e-06
3.7768848e-05
-3.1913838e-05
-0.00041045294
1.0556999e-05
0.00054489774
-0.00010723295
-0.00035049219
2.8991074e-05
-1.5398966e-05
-0.00034845127
2.1727357e-05
-4.3852148e-07
-0.00034698089
1.0495767e-05
-7.4217534e-07
-0.0003447323
5.2746125e-06
-2.1464755e-06
-0.00034172706
2.8572814e-06
-3.2915855e-06
-0.00033818435
1.5023451e-06
-3.8074894e-06
-0.0003341618
5.4799724e-07
-4.1592517e-06
-0.0003299381
-9.4709201e-08
-4.2148869e-06
-0.00032591527
-3.3634079e-07
-4.0368786e-06
-0.0003218994
-4.6852631e-07
-3.8946491e-06
-0.00031775133
-5.9583806e-07
-3.9883061e-06
-0.00031401552
-6.9560978e-07
-3.6130778e-06
-0.00031054175
-6.6108773e-07
-3.3136679e-06
-0.00030711072
-7.2628036e-07
-3.238021e-06
-0.00030386425
-6.9262021e-07
-3.1214547e-06
-0.00030094681
-6.8153093e-07
-2.7597815e-06
-0.00029826431
-7.5309525e-07
-2.4522033e-06
-0.00029569539
-7.5044052e-07
-2.3971017e-06
-0.00029335938
-7.2967862e-07
-2.1762526e-06
-0.00029144503
-7.7974336e-07
-1.648194e-06
-0.00028960789
-7.86917e-07
-1.6306036e-06
-0.00028803059
-7.8271646e-07
-1.3878294e-06
-0.0002868247
-8.2895323e-07
-9.0165824e-07
-0.0002858033
-8.3073016e-07
-7.7876045e-07
-0.00028506141
-8.5337696e-07
-5.0475353e-07
-0.00028469025
-9.5560538e-07
-5.0114938e-09
-0.00028455782
-9.1365385e-07
1.296301e-07
-0.00028464706
-8.3062114e-07
3.7216399e-07
-0.0002850954
-1.014329e-06
8.7974103e-07
-0.00028597283
-1.0363634e-06
1.1896783e-06
-0.00028704245
-9.8550378e-07
1.438573e-06
-0.00028844047
-1.2108205e-06
1.8953307e-06
-0.00029034211
-1.1236159e-06
2.2380276e-06
-0.00029236818
-1.2162567e-06
2.6262341e-06
-0.00029493292
-1.324436e-06
3.0469626e-06
-0.00029788966
-1.2994262e-06
3.4640666e-06
-0.00030105655
-1.5738556e-06
3.8508569e-06
-0.00030479586
-1.5527079e-06
4.2806957e-06
-0.00030873057
-1.7880929e-06
4.7707835e-06
-0.00031325376
-1.9651459e-06
5.2628234e-06
-0.00031792575
-2.2411806e-06
5.6499212e-06
-0.00032306031
-2.6362314e-06
6.164822e-06
-0.00032835502
-2.9305634e-06
6.4542417e-06
-0.0003339263
-3.324428e-06
6.8924517e-06
-0.00033962698
-3.3441645e-06
6.8489895e-06
-0.00034519326
-3.2151268e-06
6.2737384e-06
-0.00035034079
-2.7550493e-06
4.0405578e-06
-0.00035227978
-6.576821e-06
8.0512663e-07
-0.00037252086
1.7898558e-05
-1.9745586e-05
-6.6859909e-05
1.4097829e-05
-0.00020370866
-5.5401867e-06
0.00014313367
-7.4472934e-07
-0.00017074883
8.8695272e-07
6.720451e-06
-6.3049193e-05
0.00010663749
0.00019513941
-6.3112655e-07
0.00016338771
-0.00046000127
0.00023419549
0.00017707809
0.00012058166
-0.00051496211
0.00021667124
3.4190138e-05
-4.0422885e-05
0.00016528994
1.8020896e-05
1.7626888e-05
0.00014326812
-6.1232112e-06
1.653286e-05
0.0001733851
-8.9033635e-06
0.00012601523
-1.9579278e-06
0.00011210586
-5.6639677e-06
1.4033149e-05
0.00030138511
-0.00016529954
0.00011915396
0.00039786744
8.9544705e-07
-7.9479222e-05
0.0003848833
2.46013e-05
-1.8193977e-05
0.00037864295
-1.9424511e-09
3.4872463e-06
0.00037125507
-3.6563558e-06
7.829101e-06
0.00036414443
-4.5165948e-06
8.2830712e-06
0.00035683567
-4.4828803e-06
8.4672128e-06
0.00035044311
-4.2029062e-06
7.6649008e-06
0.00034399965
-3.5578663e-06
7.3650976e-06
0.00033827399
-3.22626e-06
6.710745e-06
0.00033280536
-2.652853e-06
6.1563304e-06
0.00032778239
-2.4847765e-06
5.7196552e-06
0.00032360145
-2.1599967e-06
4.7882267e-06
0.00031927194
-2.0276709e-06
4.7833257e-06
0.00031597437
-1.8900919e-06
3.8882347e-06
0.00031271473
-1.6936982e-06
3.628905e-06
0.00031015459
-1.7423398e-06
3.0862211e-06
0.00030808608
-1.4823256e-06
2.4272213e-06
0.00030590213
-1.4788872e-06
2.4520134e-06
0.00030483417
-1.4094906e-06
1.4919487e-06
0.00030372833
-1.2890722e-06
1.3585475e-06
0.00030287688
-1.311011e-06
1.1481399e-06
0.00030298708
-1.1802002e-06
2.3937349e-07
0.00030310398
-1.0947327e-06
6.4179533e-08
0.00030319854
-1.1217274e-06
7.1564377e-08
0.00030412951
-1.1113968e-06
-6.7294955e-07
0.00030524647
-9.7896184e-07
-9.6872788e-07
0.0003064726
-1.0031709e-06
-1.0519163e-06
0.00030845346
-9.9937017e-07
-1.7642071e-06
0.00031050511
-8.859612e-07
-1.9525999e-06
0.00031256378
-9.1118314e-07
-1.9272345e-06
0.00031542844
-9.1010734e-07
-2.6842303e-06
0.00031840531
-8.2076221e-07
-2.9065498e-06
0.00032134896
-8.4160873e-07
-2.8551319e-06
0.00032485804
-8.4603708e-07
-3.3445796e-06
0.00032869903
-7.5010339e-07
-3.7835073e-06
0.00033254409
-7.7080211e-07
-3.8005337e-06
0.00033667106
-7.8371924e-07
-4.0043415e-06
0.00034095723
-4.2595016e-06
-7.2227973e-07
0.00034577284
-4.7268087e-06
-6.8463498e-07
0.00035056592
-4.7234356e-06
-5.3816935e-07
0.00035550242
-4.9223557e-06
-3.5048435e-07
0.00036055446
-5.0525507e-06
-9.4200907e-08
0.00036576358
-5.1677119e-06
5.0658496e-07
0.00037104443
-4.9855793e-06
1.2070751e-06
0.00037653099
-4.4764108e-06
1.847129e-06
0.00038295554
-3.151662e-06
2.0017294e-06
0.00039233434
-7.3380633e-07