/*--------------------------------*- C++ -*----------------------------------*\
| =========                 |                                                 |
| \\      /  F ield         | OpenFOAM: The Open Source CFD Toolbox           |
|  \\    /   O peration     | Version:  v2012                                 |
|   \\  /    A nd           | Website:  www.openfoam.com                      |
|    \\/     M anipulation  |                                                 |
\*---------------------------------------------------------------------------*/
FoamFile
{
    version     2.0;
    format      ascii;
    class       volScalarField;
    location    "0";
    object      p;
}
// * * * * * * * * * * * * * * * * * * * * * * * * * * * * * * * * * * * * * //

dimensions      [0 2 -2 0 0 0 0];


internalField   nonuniform List<scalar> 
14948
(
-4.4421069
-2.8484425
-1.4536757
-1.5366685
-1.6343321
-1.5909304
-1.1403966
-1.1573858
-1.2452549
-1.2902104
-1.297286
-1.2770505
-1.3025733
-1.4533314
-1.6056744
-1.5323676
-1.3371016
-1.3736197
-1.7731877
-2.9099485
-1.6994166
-0.59795821
-0.47117004
-0.38247213
0.072687254
-0.011521215
0.037402376
0.12312318
0.20646797
0.28549297
0.2325025
0.13566627
0.36348886
0.97175796
1.5630747
1.7390869
0.89961345
0.45917932
0.029005331
0.23885942
0.022472996
-0.1584505
-0.19484833
-0.11350104
-0.13999729
-0.17714575
-0.22715361
-0.29176083
-0.37162274
-0.46668333
-0.57588513
-0.69609382
-0.82299045
-0.95212277
-1.0794221
-1.2014371
-1.3150767
-1.4174552
-4.7306576
-3.3706641
-3.0296551
-3.0709142
-2.9859852
-2.8773027
-2.9104176
-2.8200486
-2.8754843
-2.853061
-2.8893557
-2.8837523
-2.9006318
-2.9300748
-2.9393616
-2.8885546
-1.0282948
-0.86254
-0.70306496
-0.55410593
-0.41940205
-0.30190381
-0.20344435
-0.12452935
-0.064333116
-0.020956292
0.0081620257
0.010425425
-0.017476344
-0.059631279
-0.11878422
-0.19702951
-0.29531718
-0.41313701
-0.54855029
-0.69850108
-0.85916539
-1.0262375
-1.0217642
-0.85177954
-0.68849555
-0.5363649
-0.39936694
-0.28080484
-0.18290192
-0.10619144
-0.049415518
-0.010008524
0.015195777
0.02254329
0.0019357277
-0.032654208
-0.085160662
-0.15907831
-0.25631807
-0.37625309
-0.51598593
-0.67176266
-0.83946646
-1.0144077
-1.0039025
-0.82140673
-0.64711104
-0.48608626
-0.34221618
-0.21988937
-0.12361994
-0.054370377
-0.0088741953
0.018118264
0.031795274
0.041223929
0.036868832
0.02095213
-0.0134874
-0.074942279
-0.1698794
-0.29664655
-0.44641843
-0.61387789
-0.79687832
-0.99026366
-0.97389909
-0.7654325
-0.57189507
-0.39706241
-0.23837617
-0.10365639
-0.011035843
0.036399111
0.053584352
0.054586357
0.047809753
0.046589808
0.06432555
0.081081016
0.088667848
0.067039604
-0.013495228
-0.15806554
-0.33559236
-0.52199473
-0.72808077
-0.95625461
-0.94132648
-0.68724647
-0.45983462
-0.25014608
-0.045789713
0.098642001
0.1526233
0.13437778
0.096011209
0.061034879
0.034389834
0.0083786117
0.040875306
0.094012054
0.16520566
0.22830501
0.21526119
0.12865256
-0.12945009
-0.39061347
-0.6474665
-0.93053142
-1.9314172
-1.6793213
-1.4691245
-1.2455372
-0.92481193
-0.62385867
-0.33767892
0.045734466
0.48632362
0.23463002
0.26384435
0.18553428
0.075991649
0.0025025378
-0.034312645
-0.092670592
-0.053770445
0.037878181
0.20016563
0.23802129
-0.22394464
0.81747704
0.30385329
0.56271147
0.75837323
1.1667823
0.81609145
1.370684
1.3031509
0.97371234
0.45005135
0.21871845
0.20154611
0.23720741
0.18075822
0.1232972
0.1021984
-0.0033050612
0.0054294523
-0.51321631
-0.54804932
-0.52285744
-0.34274264
-0.91619459
-1.4765072
-0.47591597
-1.125251
-1.2752487
-1.3209051
-1.4777096
-1.5204112
-1.4567057
-1.3582364
-1.3206873
-1.2961048
-1.2821447
-1.1908412
-1.1154338
-1.253033
-1.6803928
-1.6210508
-1.5636531
-1.605406
-1.2083615
-2.0314515
-2.8190139
-1.6526004
-1.3213213
-1.2412645
-1.1497921
-1.0503604
-0.94639888
-0.84116604
-0.73767282
-0.63856149
-0.54582242
-0.46087706
-0.3847137
-0.31778837
-0.26008284
-0.21119129
-0.17042327
-0.16899467
-0.16593301
-0.16103099
-0.15426302
-0.14583373
-0.13609696
-0.1254285
-0.1141498
-0.10251994
-0.090755536
-0.07904703
-0.06756444
0.0080509413
0.0029918841
-0.0027535339
-0.0092170166
-0.01643159
-0.024428727
-0.033235159
-0.04286846
-0.053331129
-0.064603487
-0.07663637
-0.089344784
-0.10260391
-0.11624836
-0.13007425
-0.14384142
-0.15726953
-0.17002272
-0.18169083
-0.1918037
-0.19992539
-0.20580621
-0.20947807
-0.25810021
-0.25384864
-0.24703376
-0.23761284
-0.22587297
-0.21232525
-0.1975304
-0.18198728
-0.16611147
-0.1502515
-0.13470125
-0.11970092
-0.1054337
-0.092025587
-0.079549985
-0.068036662
-0.057482541
-0.047862318
-0.039137706
-0.031264341
-0.024196387
-0.017889481
-0.012303243
-0.0074051974
-0.0031771137
0.00037895514
0.0032438543
0.0054032079
0.0068816995
0.0077627914
-0.021445362
-0.022514007
-0.024274613
-0.026792692
-0.030068906
-0.034069487
-0.038765644
-0.04415318
-0.050252493
-0.057100856
-0.064745579
-0.073240521
-0.082644238
-0.093017459
-0.10441836
-0.11689467
-0.13047225
-0.14514078
-0.16083825
-0.17743683
-0.19473432
-0.212453
-0.2302446
-0.24769388
-0.26431055
-0.27951692
-0.29267632
-0.30321875
-0.3108333
-0.31557781
-0.38234447
-0.37725546
-0.36907572
-0.35772705
-0.34352665
-0.32707756
-0.30906666
-0.29012939
-0.27081578
-0.25159837
-0.232875
-0.21495941
-0.19807393
-0.18235066
-0.16784315
-0.15454519
-0.14241109
-0.13137371
-0.12135828
-0.11229137
-0.10410563
-0.09674166
-0.090149114
-0.084289535
-0.079143326
-0.074718535
-0.071052723
-0.068195119
-0.066164903
-0.064912544
-0.12518824
-0.12659794
-0.12885796
-0.13201035
-0.13602647
-0.14084623
-0.1464219
-0.15273713
-0.15980499
-0.16765889
-0.17634592
-0.18592447
-0.19646405
-0.20804419
-0.22074978
-0.23466108
-0.24983756
-0.26629649
-0.28398823
-0.30277416
-0.32241289
-0.34256085
-0.36278277
-0.38256723
-0.40132963
-0.41840814
-0.43310116
-0.44480613
-0.45322041
-0.45844616
-0.54345014
-0.53834443
-0.53010579
-0.51860818
-0.50411656
-0.48719522
-0.46851855
-0.44873549
-0.42843147
-0.40812977
-0.38828294
-0.36925154
-0.3512897
-0.33454234
-0.31905929
-0.30481951
-0.29175859
-0.279793
-0.26883788
-0.25881753
-0.24966972
-0.24134619
-0.23381191
-0.22704671
-0.2210518
-0.21585853
-0.21152863
-0.20813059
-0.20569163
-0.20416365
-0.30266654
-0.30428346
-0.30686944
-0.31049
-0.31512408
-0.320694
-0.32711882
-0.33434507
-0.34234902
-0.35112853
-0.36069649
-0.37107996
-0.38232156
-0.39447996
-0.40762639
-0.42183464
-0.4371629
-0.45362812
-0.47117808
-0.48966636
-0.50883877
-0.52833842
-0.54772292
-0.56649106
-0.58409669
-0.59994773
-0.61344
-0.62408742
-0.63168623
-0.63638267
-0.73581956
-0.73181662
-0.72531607
-0.71616058
-0.70449226
-0.69068798
-0.6752227
-0.65858413
-0.64123266
-0.62361017
-0.60611607
-0.58907668
-0.57272743
-0.55720729
-0.54257116
-0.52881344
-0.5158946
-0.5037657
-0.49238558
-0.48172796
-0.47178378
-0.46255948
-0.45407429
-0.44636118
-0.43947343
-0.43349265
-0.42852367
-0.42465733
-0.42191154
-0.42020399
-0.55495972
-0.5567899
-0.5597461
-0.56391716
-0.56927986
-0.57572392
-0.58311663
-0.59134421
-0.60031851
-0.6099686
-0.62023363
-0.63106216
-0.64241582
-0.65427264
-0.66662481
-0.67948175
-0.69285201
-0.70672265
-0.72103703
-0.73567481
-0.75044168
-0.76507379
-0.77926632
-0.79268903
-0.80498609
-0.81580719
-0.82483423
-0.83183613
-0.83676177
-0.83977561
-0.94560541
-0.94386981
-0.94098687
-0.9367909
-0.93121516
-0.92431197
-0.91621076
-0.90708147
-0.89711979
-0.88651679
-0.87545675
-0.86410996
-0.85260891
-0.84104475
-0.82947519
-0.81794099
-0.80648271
-0.79515087
-0.78400652
-0.7731323
-0.76262595
-0.75259399
-0.74314654
-0.73439802
-0.7264754
-0.71952806
-0.71372099
-0.70919044
-0.70597524
-0.70398821
-0.86353956
-0.86569657
-0.86918993
-0.87410377
-0.88037733
-0.88784208
-0.89629635
-0.90555158
-0.91543851
-0.92579453
-0.93645388
-0.94724688
-0.95800605
-0.96857454
-0.97881619
-0.98861031
-0.99785923
-1.0064875
-1.0144351
-1.0216489
-1.0280782
-1.0336764
-1.0384017
-1.04223
-1.0451799
-1.047303
-1.0487269
-1.0495809
-1.0500442
-1.0502705
-1.150486
-1.1519437
-1.1541868
-1.1570857
-1.1603544
-1.1636278
-1.1665394
-1.1687816
-1.1701106
-1.1703379
-1.1693213
-1.1669616
-1.1632123
-1.1580833
-1.1516398
-1.1439988
-1.1353209
-1.1258025
-1.1156714
-1.1051671
-1.0945322
-1.0840031
-1.0738049
-1.0641503
-1.0552522
-1.0473408
-1.0406562
-1.0354027
-1.0316648
-1.0293601
-1.3155476
-1.3167632
-1.3158691
-1.3128972
-1.3079937
-1.3014115
-1.2934945
-1.2846648
-1.2754186
-1.2663367
-1.2580563
-1.2511563
-1.2460332
-1.2427874
-1.3236637
-1.328679
-1.3366857
-1.3476501
-1.3610608
-1.376097
-1.3918526
-1.407476
-1.4222192
-1.4354101
-1.4464961
-1.455071
-1.0273568
-0.86023765
-0.69951132
-0.54950256
-0.41405277
-0.29620869
-0.19787811
-0.11955408
-0.06029085
-0.018013834
0.010005487
-0.16435553
-0.12053736
-0.010480304
0.18469302
0.2114982
0.76818702
1.3487631
1.1519195
0.58609987
0.31615326
0.19526856
0.073279468
-0.040331347
-0.1574975
-0.27223475
-0.35244497
-0.37999251
-0.21317095
-0.12196342
-0.17000272
-0.18066666
-0.19597167
-0.20468617
-0.22151049
-0.22439987
-0.22672301
-0.22929489
-0.23580839
-0.23638966
-0.23632099
-0.23829812
-0.24506066
-0.24793276
-0.24884702
-0.25233718
-0.25969845
-0.26374398
-0.26457705
-0.26722897
-0.27335802
-0.27654642
-0.27757401
-0.28049668
-0.28633335
-0.28888504
-0.28942195
-0.29183244
-0.29751057
-0.30065388
-0.30016091
-0.3002956
-0.30421971
-0.30000848
-0.30038632
-0.29924363
-0.31066584
-0.31844036
-0.3275866
-0.3295976
-0.34097171
-0.34257623
-0.34424184
-0.34905489
-0.35711064
-0.36169873
-0.36352166
-0.36639652
-0.37223991
-0.37461846
-0.37506713
-0.3768602
-0.38206182
-0.38341082
-0.38232154
-0.38275781
-0.38655183
-0.38549432
-0.38204446
-0.38201126
-0.38312702
-0.37920994
-0.36581132
-0.35616994
-0.3491721
-0.33452791
-0.31555356
-0.29466214
-0.30063912
-0.30150977
-0.30800736
-0.40465161
-0.52959486
-0.59576652
-0.91769705
-0.92880251
-1.2457513
-2.7020109
-3.3872068
-3.379178
-2.1424263
-1.1641923
-0.88805368
-0.84566694
-0.41535586
-0.39952937
-0.35810545
-0.29396559
-0.27955272
-0.27663643
-0.27282009
-0.28164042
-0.29273587
-0.30347386
-0.31053726
-0.31674315
-0.32166926
-0.32356785
-0.32470726
-0.32535532
-0.32610893
-0.32587844
-0.32391329
-0.32280405
-0.32209914
-0.32067204
-0.31766745
-0.31572572
-0.31369261
-0.31082228
-0.30639574
-0.30340627
-0.30058075
-0.29629457
-0.29010597
-0.28553459
-0.28235212
-0.2799481
-0.2755273
-0.27270162
-0.26601439
-0.26198905
-0.25683124
-0.25633418
-0.25511409
-0.25614561
-0.25345983
-0.25200389
-0.25067208
-0.24743291
-0.24288087
-0.24016374
-0.23831091
-0.2354782
-0.23116107
-0.2280509
-0.22558952
-0.22207669
-0.21714486
-0.21279221
-0.21067989
-0.20786712
-0.2027265
-0.19921165
-0.19761849
-0.19506961
-0.1923291
-0.19061495
-0.189003
-0.18778114
-0.18601087
-0.18567246
-0.18237191
-0.17923931
-0.1717443
-0.16054395
-0.14127571
-0.24001634
-0.40911164
-0.38957436
-0.30725577
-0.1727683
-0.029151022
0.052923148
0.1124788
0.25983953
0.49466404
0.31103623
0.19335471
0.14927652
0.097368339
0.18719177
0.23560916
0.25718159
0.26360131
0.2597696
0.25526727
0.25040642
0.24548558
0.24062541
0.2333746
0.22945932
0.22572403
0.22311198
0.22065548
0.21801975
0.21716873
0.21724004
0.2149079
0.21336417
0.21274511
0.21135061
0.2084889
0.20683233
0.20590348
0.20386169
0.20151074
0.20170762
0.20174709
0.20124574
0.19954222
0.19945889
0.20004734
0.20007577
0.19857444
0.19892588
0.20068013
0.20090222
0.19733849
0.1967209
0.19779212
0.19717539
0.19468907
0.1935341
0.1930805
0.1919725
0.18924567
0.187541
0.18662871
0.1851931
0.18273715
0.18143092
0.18040347
0.17793326
0.17418604
0.17145714
0.16902929
0.16445808
0.15832804
0.1534211
0.14924553
0.14339057
0.13603436
0.12986972
0.12599269
0.12279374
0.120674
0.12432433
0.13250078
0.14361388
0.14946297
0.15830803
0.14979174
0.12402725
-0.13650806
-1.5301708
-1.6982551
-1.448433
-0.73682327
0.21619642
0.42029331
0.35595615
0.33367164
0.30492955
0.2944512
0.27604986
0.26627534
0.25871174
0.25827209
0.25923785
0.26277714
0.26736902
0.2741303
0.28038589
0.28547075
0.29022369
0.29507045
0.29891557
0.30088237
0.30403053
0.30687778
0.30874477
0.30862974
0.31024064
0.31231079
0.31382175
0.31383462
0.31554548
0.31742616
0.31881676
0.31846088
0.31982019
0.32153045
0.32291506
0.32276387
0.32280874
0.32116723
0.32096548
0.32059197
0.32129781
0.32213068
0.32282724
0.32186968
0.32259751
0.32377998
0.32536339
0.32555153
0.32759725
0.32877231
0.32890204
0.32811125
0.32950913
0.33142471
0.33299443
0.33260592
0.33378809
0.33635787
0.33969723
0.33908755
0.33931065
0.34330165
0.34553962
0.34594389
0.34944797
0.35656748
0.36182461
0.36738799
0.36958138
0.37229874
0.36961784
0.36123029
0.32364631
0.25812519
0.20057859
0.20484094
0.34881106
0.18551609
0.22307486
0.25300809
0.1788287
0.23239141
0.17301709
0.25890379
0.2544622
0.15408526
0.17793285
0.1440217
0.24770658
0.24128638
0.13210073
0.15688124
0.12444805
0.23352873
0.22567689
0.11339826
0.13883273
0.10910407
0.21978376
0.21664326
0.10475976
0.13145736
0.10731747
0.21978958
0.21805456
0.10456296
0.12358088
0.10265174
0.21436494
0.2152424
0.10319638
0.12495226
0.1049548
0.21739949
0.21295548
0.10354081
0.12646637
0.10265735
0.21086457
0.20933363
0.10221395
0.12956323
0.10371352
0.21090272
0.20929883
0.1028267
0.13015986
0.1028199
0.20901418
0.2080098
0.10209244
0.13080003
0.10409272
0.21067529
0.21100117
0.10359589
0.13070028
0.10354968
0.21091268
0.20759592
0.10216838
0.13231977
0.10255767
0.20752161
0.20503571
0.10132003
0.13396198
0.10179353
0.20506546
0.20356078
0.10085718
0.13544424
0.10249156
0.20521217
0.2034977
0.10158771
0.1373538
0.10160688
0.20299189
0.20044876
0.10049884
0.13980056
0.10177194
0.20105789
0.20133448
0.10104089
0.13933887
0.1041001
0.20672177
0.20639277
0.10293988
0.13813628
0.10349019
0.20645477
0.20414908
0.10187007
0.1380117
0.10171924
0.20351055
0.20148431
0.10010433
0.13737471
0.10078343
0.20242553
0.20057071
0.099074768
0.13641542
0.09902093
0.20020288
0.19846566
0.097545223
0.13556422
0.09876694
0.1997103
0.19750797
0.097181811
0.135013
0.096027892
0.19589773
0.19379259
0.094383905
0.1341067
0.095224099
0.19508249
0.19362622
0.093693352
0.13226262
0.092304469
0.19198254
0.18791239
0.089548845
0.13159756
0.088603077
0.18657034
0.18360555
0.0862233
0.12792013
0.082641978
0.18029374
0.17473778
0.077944501
0.12140583
0.073506159
0.16986687
0.16415404
0.068325411
0.10966507
0.060214494
0.15609376
0.15154447
0.055778538
0.099635939
0.052555929
0.14834367
0.14790516
0.048381345
0.083925994
0.048664489
0.14866063
0.15395931
0.049747384
0.081679556
0.054729539
0.16079482
0.17472977
0.053254253
0.066613516
0.058556601
0.18545459
0.21275901
0.052602395
0.042926644
0.10007169
0.25453634
0.34816761
0.13975864
-0.011412285
-0.065082079
0.20320369
0.88127709
0.62920566
0.37619706
0.37843763
1.5786631
0.76870583
1.1852879
0.8041911
0.22776438
0.36229801
0.67452101
0.4887524
0.1816976
0.57896223
0.73048145
0.80478075
0.85581944
0.87068305
0.89904059
0.91075889
0.92586498
0.93155354
0.93654283
0.93711797
0.93846538
0.93911965
0.94053075
0.94119126
0.94242424
0.94370332
0.94506181
0.94561402
0.94558265
0.94543618
0.94491241
0.94396221
0.94311595
0.94217212
0.94175714
0.93981762
0.93869667
0.93504271
0.93803852
0.93785689
0.9524503
0.95830491
0.9865341
0.99539162
1.0421133
1.0701094
1.0902883
1.3779304
0.88661898
0.31832502
0.9542168
1.385717
1.3764893
0.94528757
0.36420706
0.93865278
1.3411938
1.3189311
0.91217544
0.3619101
0.89805974
1.2886943
1.274582
0.87969106
0.3508254
0.86734738
1.2570359
1.2489757
0.85481337
0.34094573
0.84789613
1.2414487
1.2402429
0.84209372
0.33348864
0.8401724
1.2399852
1.2407223
0.83916292
0.33043367
0.83908909
1.2403906
1.2396834
0.83872878
0.33177007
0.83798498
1.238654
1.2375568
0.83707287
0.3317402
0.83569254
1.2363226
1.2349623
0.83444738
0.33057564
0.83257673
1.2328953
1.2312732
0.83098935
0.32845069
0.82912922
1.2294377
1.2276417
0.82749027
0.32596048
0.8252603
1.225156
1.2229722
0.823558
0.32396646
0.82194561
1.2209316
1.2193357
0.82079903
0.32285481
0.819566
1.2175051
1.215718
0.81745682
0.32210682
0.81498548
1.2102728
1.2044162
0.81085368
0.32556685
0.80658418
1.1919872
1.1771483
0.79625184
0.33300786
0.7859744
1.1493831
1.1276747
0.76501991
0.33717733
0.74038125
1.0589199
1.0646268
0.71843757
0.44729571
0.44021973
0.41152269
0.31260826
0.23319642
0.19096262
0.1764337
0.17614391
0.18007205
0.18404357
0.18778289
0.19108696
0.19387884
0.1964052
0.19929028
0.20303409
0.20531304
0.20318884
0.19241926
0.17213679
0.15184631
0.014104772
-0.072835857
-0.11654452
-0.075994378
-0.032333142
0.047689315
0.07665904
0.00074215211
-0.044942937
-0.025123903
0.021172536
0.093650087
0.099646527
0.029871919
-0.015481848
-0.013178147
0.030017838
0.098150386
0.093259214
0.026000448
-0.015287665
-0.039502695
-0.042144044
-0.019737104
0.019951029
0.087120105
0.08179541
0.01397709
-0.024842977
-0.045806631
-0.049928028
-0.030162443
0.0082096747
0.076898352
0.071848021
0.0022225474
-0.035780305
-0.054231231
-0.05846739
-0.04189923
-0.0044911835
0.066241698
0.059796483
-0.012225886
-0.048034609
-0.061996818
-0.064469646
-0.052664971
-0.019934162
0.052759646
0.048329378
-0.026436804
-0.055772899
-0.066062533
-0.064890485
-0.05977165
-0.032537953
0.054544936
0.086019306
-0.035846064
-0.068708482
-0.064830847
-0.11379599
-0.090562037
-0.093041408
-0.020637553
0.16212085
0.18013989
0.20405175
0.29138406
0.22570844
0.14780443
0.47806114
0.64696869
0.82360943
1.2531465
0.38852126
0.74003553
0.080622573
-1.163847
-0.6770289
-0.029630054
0.79139195
0.60080154
1.0048665
1.1631707
0.9542432
0.71475955
1.2868374
1.0603731
1.2167781
0.97703877
1.2794788
1.4483552
1.0979251
1.2375334
1.1071545
-0.32540141
-0.68809903
1.1891332
1.3261156
1.5563906
1.6440811
1.5595941
1.0133193
0.57777205
0.13581582
-0.84938879
0.25882346
0.26738488
0.24895779
0.34250414
0.19461539
0.071439258
-0.022145401
-0.032327616
-0.0096859787
0.00057158529
0.2790043
0.47559086
0.32330649
-2.3414508
-0.89736871
-1.2673946
-2.4942021
-2.2119508
-1.1979168
-0.36462538
-0.95607964
-1.8636994
-0.74162833
-0.16992461
-0.2593095
-0.36048772
-1.1544206
-0.5163655
-0.62536859
-0.42742604
-0.2940586
0.054318379
0.053917649
0.092477313
0.10260312
0.075723027
-0.1885192
-0.33734198
-0.39114292
-0.45168852
-0.49743913
-0.54440543
-0.6498698
-0.6997224
-0.7179678
-0.7738312
-0.82059741
-0.8384312
-0.88087502
-0.93662134
-0.96819781
-0.99592101
-1.0386651
-1.0793567
-1.108414
-1.1358994
-1.1736504
-1.2132216
-1.2408756
-1.2643718
-1.2975966
-1.3342667
-1.3597771
-1.3802056
-1.4101276
-1.444229
-1.4681645
-1.4868237
-1.5143134
-1.5464979
-1.5690572
-1.5860809
-1.6113868
-1.6414354
-1.6628258
-1.6788475
-1.6781464
-1.6599742
-1.6381798
-1.6105206
-1.58592
-1.5666498
-1.543566
-1.5139699
-1.4878507
-1.466776
-1.4421482
-1.4102101
-1.3812115
-1.3583243
-1.3318791
-1.2972959
-1.2656154
-1.2396093
-1.2104885
-1.1729514
-1.1372932
-1.1079141
-1.0764714
-1.0369021
-0.99750515
-0.96570057
-0.93003608
-0.88277741
-0.84364279
-0.81462539
-0.76611821
-0.72601887
-0.70277895
-0.62985996
-0.5345204
-0.51462619
-0.48112553
-0.36574823
-0.29870659
-0.13801369
0.095081083
0.098439808
0.089216604
0.20808702
-0.052610244
0.2622594
0.15822376
0.17596394
0.049151526
-0.18594393
-0.31058697
-0.36574045
-0.48578411
-0.52109367
-0.53476517
-0.62520756
-0.70234875
-0.72921186
-0.76699677
-0.81299412
-0.84460718
-0.88422789
-0.9301139
-0.96576001
-0.99777207
-1.037052
-1.0767464
-1.107944
-1.1371058
-1.1731144
-1.2107209
-1.2394672
-1.265333
-1.2975269
-1.3322038
-1.3581037
-1.3809756
-1.4105052
-1.4424518
-1.4664405
-1.4874497
-1.5140645
-1.5437207
-1.566176
-1.585279
-1.6105374
-1.6382874
-1.6595074
-1.6773906
-1.6753702
-1.6603741
-1.6417348
-1.6094844
-1.5830627
-1.5669178
-1.5470499
-1.5129384
-1.4850792
-1.4671041
-1.4457877
-1.4095092
-1.3795082
-1.3591928
-1.3356518
-1.296907
-1.263924
-1.2406374
-1.2141776
-1.1726348
-1.1363329
-1.1095643
-1.0805304
-1.0372878
-0.99851007
-0.9676686
-0.93449049
-0.88612404
-0.84659624
-0.81524327
-0.77776989
-0.7338148
-0.70062646
-0.63321327
-0.55863823
-0.52650596
-0.48626459
-0.3890957
-0.3248998
-0.21260949
-0.050407065
0.12528811
0.4243905
0.49298894
1.0899336
-1.6974034
-3.1337069
-0.28313718
-2.2351421
-1.9438965
-3.0221763
-3.6588391
-2.3185596
-2.2915324
-1.46376
-1.1145795
-0.45595044
-0.36574929
-0.35435903
-1.0333931
-0.88334608
-0.90258861
-1.1141976
-1.1235634
-0.86669854
0.47459281
-0.88170092
-1.2675292
-1.2484395
-1.0141714
-0.46822102
-0.78692952
-0.50762522
-0.85559315
-0.63323409
-0.82156027
0.27824711
0.32990387
0.31274717
0.16862209
0.1654765
-0.11826253
0.027383743
0.21413505
0.20263765
0.80632742
0.38572148
0.24966247
0.43135571
0.57163927
0.21451457
0.2106865
0.25664508
0.32916666
0.25058431
0.21374769
0.20297826
0.20394117
0.20817931
0.21262876
0.21681131
0.22055753
0.22386018
0.22696004
0.23042385
0.23487245
0.23820778
0.23756861
0.22792147
0.20668837
0.17597409
0.18240113
0.20373499
0.19101562
0.35796622
0.3709422
0.31328629
0.22983643
0.14553282
0.06072262
-0.014609223
-0.076332525
-0.12444722
-0.15985983
-0.18378798
-0.10697935
-0.050058448
-0.010503253
0.014832255
-0.1532131
-0.11369734
0.018627237
0.015440448
0.032826891
0.07103236
0.096485692
0.098205609
0.081520075
0.05264797
0.020331063
-0.0093197334
-0.033134743
0.0016272226
0.022360196
-0.11577474
-0.14366578
-0.1823406
-0.23375079
-0.29925963
-0.37929209
-0.47360044
-0.58124538
-0.69962572
-0.82487202
-0.95267337
-1.0788971
-1.2000245
-1.3128326
-1.4142605
-1.4127327
-1.3115837
-1.1990298
-1.0781655
-0.95225166
-0.82484607
-0.70015115
-0.58234206
-0.4749604
-0.38064805
-0.30069385
-0.23538407
-0.18405929
-0.14527448
-0.11714385
-0.16954434
-0.16765342
-0.16459644
-0.16033471
-0.15500387
-0.14888154
-0.142319
-0.13570777
-0.1294809
-0.12408978
-0.11991367
-0.14861028
-0.15370014
-0.16033602
-0.16805773
-0.17628997
-0.18447001
-0.19209258
-0.19871455
-0.20399493
-0.20777394
-0.21010755
-0.25882059
-0.25610173
-0.25169523
-0.24553094
-0.23779297
-0.22888371
-0.21933692
-0.2097717
-0.20087863
-0.19334463
-0.18767909
-0.23901974
-0.2448934
-0.25288948
-0.26248597
-0.27291825
-0.28339541
-0.29320493
-0.30173709
-0.308537
-0.31339758
-0.31639626
-0.38326146
-0.3801337
-0.37506656
-0.36798601
-0.35911954
-0.34895932
-0.33816381
-0.32749841
-0.31779885
-0.30984603
-0.30413028
-0.38377311
-0.38899273
-0.39635522
-0.40546684
-0.41561524
-0.42599415
-0.43583948
-0.44448031
-0.45140771
-0.45637761
-0.45944963
-0.54451211
-0.54169666
-0.5371537
-0.53084707
-0.523029
-0.51419912
-0.50499921
-0.4961338
-0.48830479
-0.48207377
-0.47767529
-0.58438585
-0.58762182
-0.59225104
-0.59820646
-0.60512492
-0.61246468
-0.61963471
-0.62606714
-0.63130373
-0.63509894
-0.63746026
-0.73685871
-0.73511789
-0.73233596
-0.72853442
-0.72393374
-0.71891721
-0.71393887
-0.70943619
-0.70575062
-0.7030411
-0.7012409
-0.82492129
-0.82519647
-0.82586305
-0.82709309
-0.82892099
-0.83121328
-0.83371654
-0.83613257
-0.83819459
-0.83973359
-0.84070769
-0.94635344
-0.94626687
-0.94615677
-0.94606957
-0.94609361
-0.94633023
-0.9468833
-0.94779629
-0.94900224
-0.95030243
-0.95144383
-1.0766361
-1.0742732
-1.0712027
-1.0677231
-1.0641468
-1.0607374
-1.057676
-1.0550908
-1.0530695
-1.0516401
-1.0507644
-1.1506671
-1.1525494
-1.1555824
-1.1597842
-1.1649923
-1.1708977
-1.1771206
-1.1832462
-1.1888359
-1.1934778
-1.1968932
-1.3088846
-1.3045119
-1.2984061
-1.2908068
-1.2821984
-1.273192
-1.2644413
-1.2565904
-1.2501818
-1.2455223
-1.2426179
-1.3231449
-1.3270527
-1.3333124
-1.3419001
-1.352375
-1.3639665
-1.3757664
-1.3868766
-1.3965055
-1.4040946
-1.4094454
-1.0297679
-0.86251217
-0.70161629
-0.55144854
-0.41588482
-0.29796872
-0.19955942
-0.12110351
-0.061647117
-0.019141384
0.0091058638
-0.17715271
-0.10549465
-0.12616725
-0.069662824
0.15518717
0.37784948
0.87351719
0.28945966
-0.022354129
0.15875182
0.45240051
0.31253983
0.33411612
-0.015494986
0.18500626
-0.13695099
0.36021481
0.70237482
0.49325423
-0.013080451
-0.10838254
-0.29597474
-0.45887118
-0.5715029
-0.68173376
-0.77175955
-0.84111055
-0.91769846
-0.98792382
-1.0597563
-1.1256821
-1.1931298
-1.2538412
-1.3157362
-1.368591
-1.42556
-1.4748814
-1.5284473
-1.5750819
-1.6252974
-1.6696621
-2.0974934
-2.1570595
-2.1377428
-2.1089292
-2.092456
-2.0947106
-2.0629841
-2.0754765
-2.0291468
-2.0834059
-2.0545048
-2.1268919
-2.203237
-2.1439078
-2.2615939
-2.6478813
-1.3979527
-1.6084792
-2.0492964
-1.7224443
-1.4945061
-1.4311778
-1.4310278
-1.4438676
-1.4566099
-1.4723066
-1.4799884
-1.4831695
-1.4755884
-1.4675412
-1.4548363
-1.428251
-1.3801259
-1.3738002
-1.3858743
-1.4088575
-1.3830686
-1.3660458
-1.361691
-1.3559283
-1.3567856
-1.3448436
-1.3501168
-1.3317342
-1.3453692
-1.3596943
-1.4135279
-1.48879
-1.4419677
-1.829827
-1.6638607
-1.5119654
-1.458715
-1.4547764
-1.4628858
-1.4839324
-1.4944254
-1.5042819
-1.499535
-1.496571
-1.4899071
-1.4764122
-1.4956604
-1.6809006
-1.5346371
-1.4872505
-1.4804493
-1.4854338
-1.491885
-1.4954546
-1.4963614
-1.4907072
-1.4802895
-1.4688487
-1.456377
-1.4685166
-1.4991391
-1.6200122
-1.7016841
-1.5776431
-1.6881639
-1.6700686
-1.8542455
-1.7774701
-1.929172
-1.8710974
-1.793089
-1.495602
-1.3919945
-1.3755155
-1.2919267
-1.1982866
-1.0473046
-0.86355216
-0.70371163
-0.56838993
-0.43251451
-0.16338324
0.029875778
0.33738433
0.81341984
1.7654567
1.7468157
1.8053909
1.0233854
0.44224181
0.11277651
-0.10169724
-0.38383313
-0.58490443
-0.67763268
-0.84338885
-1.1199977
-1.3006616
-1.3247466
-1.3614485
-1.3711042
-1.4178841
-1.6445809
-1.399791
-1.3664017
-1.3660453
-1.390521
-1.4113008
-1.3478765
-1.1537373
-0.87119144
-0.62665906
-0.56789595
-0.32815454
-0.042835324
0.19340579
0.53366772
1.0436459
1.4955213
1.0575301
0.9250453
0.48853167
0.23333221
0.036558769
-0.19472906
-0.45436358
-0.10587486
-0.087911011
0.021153891
0.072990227
0.15794629
0.20593486
0.1798172
0.23864393
0.49551984
0.51973266
0.48156574
0.47539615
0.1346113
0.39258484
0.8879783
0.66451886
1.7105942
1.379308
0.93109091
0.8615848
1.0105298
0.75786413
0.71316991
0.74616305
0.57189063
-0.26020948
-0.31190064
0.2620389
0.14667064
0.72259142
0.31091091
0.48740423
1.3811278
1.3107756
0.7242649
0.38479535
0.24343682
0.1265554
0.028367378
-0.065032172
-0.1575408
-0.25064921
-0.31296552
-0.14835451
-0.083207826
-0.17412542
-0.16347357
-0.39834278
-1.1288512
-1.7279471
-1.7127474
-1.7217
-1.6547309
-1.6952038
-1.6642252
-1.7068364
-1.6860391
-1.7188661
-1.7210669
-1.7430535
-1.7360338
-1.7510529
-1.7603369
-1.7746744
-1.773443
-1.7815137
-1.7924926
-1.800569
-1.7971738
-1.8017054
-1.8137421
-1.821251
-1.8212124
-1.8233853
-1.8354392
-1.8421721
-1.8425331
-1.8440545
-1.8483555
-1.8510433
-1.8344966
-1.8466792
-1.81428
-1.8553758
-1.8049335
-1.8602154
-1.8225211
-1.8674931
-1.8333419
-1.9039357
-1.8964032
-1.953852
-1.9741019
-1.9972843
-2.0058716
-2.0127992
-2.0129667
-2.0195725
-2.0222298
-2.0283573
-2.0303881
-2.0367683
-2.0374403
-2.0411033
-2.0436423
-2.0471771
-2.0507822
-2.0468448
-2.04256
-2.0216705
-2.0170403
-1.9823637
-2.0055922
-1.9981518
-2.0114986
-2.0139158
-1.9682102
-2.0114418
-1.8313721
-1.8318607
-1.8475218
-1.1183347
-1.7251455
-2.2346764
-1.8323458
-1.9186495
-2.0290572
-1.5337918
-1.2678429
-1.1761411
-1.1624212
-1.1088079
-1.2928448
-1.9558865
-2.2905213
-3.1743086
-4.0093299
-4.1661828
-3.1399435
-2.1389191
-1.0299551
-1.0648713
-1.0526936
-1.1402978
-1.2396559
-1.5498443
-1.5781302
-1.738299
-1.2707432
-1.2184306
-1.4680047
-1.1469271
-1.4869396
-1.7275746
-1.3276791
-1.2810862
-1.4118009
-1.3817047
-1.4168451
-1.4120761
-1.4151287
-1.4312233
-1.4189966
-1.4528575
-1.4670591
-1.4858415
-1.4898117
-1.4949455
-1.4986362
-1.49587
-1.4914378
-1.4879836
-1.4904817
-1.4846682
-1.4800204
-1.4743937
-1.4749352
-1.4683749
-1.4632261
-1.4543791
-1.4482406
-1.4268448
-1.4063494
-1.3608715
-1.3655685
-1.3087892
-1.3180793
-1.268814
-1.2932285
-1.2677423
-1.303008
-1.2807029
-1.3095584
-1.3046067
-1.3072639
-1.3075167
-1.3074169
-1.3045924
-1.2966344
-1.2922426
-1.2870202
-1.2843952
-1.2766475
-1.2719403
-1.2671166
-1.2635033
-1.2561641
-1.250421
-1.2465226
-1.2405304
-1.2326535
-1.2232357
-1.2214885
-1.2116001
-1.2088279
-1.1928996
-1.1988976
-1.1745866
-1.1801604
-1.1395027
-1.162023
-1.123446
-1.1535672
-1.1311412
-0.39450329
-0.39699135
-0.41768034
-0.42240238
-0.44045772
-0.44050487
-0.45218265
-0.45399861
-0.46020456
-0.46055771
-0.46540849
-0.46814869
-0.47290114
-0.4761984
-0.48203434
-0.48650957
-0.48993798
-0.49551433
-0.50165433
-0.50545943
-0.5076861
-0.51114266
-0.51513226
-0.51929067
-0.52126973
-0.5245712
-0.52817291
-0.53154447
-0.53382404
-0.53747714
-0.54151245
-0.54132132
-0.54473222
-0.53866689
-0.5476679
-0.54285267
-0.56307324
-0.57574484
-0.60127931
-0.60254363
-0.61987273
-0.62031117
-0.63262712
-0.638918
-0.64646666
-0.65244837
-0.65878666
-0.66178584
-0.66403946
-0.66593484
-0.66940748
-0.67184417
-0.67403567
-0.67652542
-0.67868604
-0.67945225
-0.6770949
-0.676495
-0.67250772
-0.67236749
-0.66181699
-0.66147713
-0.64504034
-0.63344284
-0.61732399
-0.60248068
-0.59260775
-0.55457214
-0.56283219
-0.60474529
-0.79294872
-0.87030684
-1.0085178
-1.1406804
-0.86892345
-0.73075471
-1.0795895
-1.1345864
-0.95103258
-0.8979212
-0.73191084
-0.57282231
-0.386803
-0.38210838
-0.39365945
-0.41819277
-0.43278175
-0.44516497
-0.4592204
-0.46679806
-0.47856102
-0.47737767
-0.48522954
-0.48272674
-0.4853174
-0.48405988
-0.48657623
-0.48482787
-0.48185665
-0.47932282
-0.4790233
-0.47677746
-0.47273839
-0.4705683
-0.47013874
-0.46733303
-0.46104297
-0.45661701
-0.45300749
-0.44942276
-0.43916507
-0.44057572
-0.42812011
-0.42932033
-0.40568352
-0.39680485
-0.38183903
-0.38733585
-0.37792662
-0.38253717
-0.37969321
-0.37884607
-0.36945221
-0.36957779
-0.37097579
-0.36745403
-0.36023287
-0.35972292
-0.36056764
-0.35665594
-0.34856067
-0.34759273
-0.34733815
-0.34386625
-0.33393861
-0.33247585
-0.33057353
-0.32730279
-0.31817773
-0.31757016
-0.31445096
-0.31288506
-0.30434169
-0.3049209
-0.30254766
-0.30447996
-0.29237791
-0.2901908
-0.27252593
-0.27039173
-0.24894098
-0.2441702
-0.2420618
-0.23445274
-0.42905096
-1.2365972
-1.862078
-1.5054068
-1.3207342
-1.4204653
-1.3681495
-1.3405429
-1.3594427
-1.3628165
-1.395058
-1.4473696