/*--------------------------------*- C++ -*----------------------------------*\
| =========                 |                                                 |
| \\      /  F ield         | OpenFOAM: The Open Source CFD Toolbox           |
|  \\    /   O peration     | Version:  v2012                                 |
|   \\  /    A nd           | Website:  www.openfoam.com                      |
|    \\/     M anipulation  |                                                 |
\*---------------------------------------------------------------------------*/
FoamFile
{
    version     2.0;
    format      ascii;
    class       volVectorField;
    location    "0";
    object      U;
}
// * * * * * * * * * * * * * * * * * * * * * * * * * * * * * * * * * * * * * //

dimensions      [0 1 -1 0 0 0 0];


internalField   nonuniform List<vector> 
14948
(
(5.993346 -0.38031058 0.083113988)
(5.6900847 -0.38100835 -0.017551821)
(5.4370612 -0.48058819 -0.0090571465)
(5.3548764 -0.46653892 -0.071980996)
(5.2644418 -0.45110801 0.032255344)
(5.1918256 -0.4324448 0.020933635)
(5.2223831 -0.50062116 0.058208315)
(5.2927144 -0.50912836 -0.0057204167)
(5.2992493 -0.52564349 -0.0083811612)
(5.2965571 -0.51153245 -0.010019655)
(5.289903 -0.53662608 -0.0089749194)
(5.281838 -0.531679 -0.0088761021)
(5.3117595 -0.5661842 0.0016408447)
(5.4006696 -0.58471903 0.009492886)
(5.5118106 -0.62251775 0.0021411553)
(5.460744 -0.53558485 -0.026242775)
(5.3613089 -0.56745432 -0.019472119)
(5.3461895 -0.57299232 0.022916375)
(5.3844009 -0.64900331 0.031404829)
(5.5409733 -0.53478944 0.083939009)
(5.3610915 -0.49010149 0.015886103)
(5.0633656 -0.54585218 -0.039692944)
(4.9248067 -0.54049303 -0.0067992099)
(4.7674372 -0.53896815 0.0031143918)
(4.815367 -0.61122463 0.039799318)
(4.8776433 -0.60723445 -0.022356805)
(4.8435672 -0.59358993 -0.020311878)
(4.8105479 -0.6073798 -0.019272607)
(4.7679505 -0.59873211 -0.019647829)
(4.7555772 -0.62876547 -0.011148809)
(4.8138843 -0.6532665 0.0015836128)
(4.9365588 -0.70340213 -0.0024381817)
(4.8393511 -0.62405879 -0.062845802)
(4.598303 -0.59241915 -0.067933617)
(4.3368 -0.75824634 -0.031166803)
(4.3804079 -0.13368937 -0.050287806)
(4.8376859 -0.051144154 0.095747268)
(5.0755542 0.024205217 0.017416141)
(4.8417466 0.016782013 -0.094208996)
(4.8585521 -0.020149155 0.028024318)
(4.9488557 -0.02764117 0.018769516)
(5.0203008 -0.015485687 0.0065430259)
(5.0425482 -0.0057147877 -0.006983353)
(5.0341162 -0.0015783266 0.012636184)
(5.0407277 -0.0019868969 0.015832565)
(5.0489699 -0.0023271084 0.018920783)
(5.0588909 -0.0025294592 0.021538436)
(5.0703518 -0.0025722046 0.023328025)
(5.0830559 -0.0025045908 0.024292846)
(5.0973029 -0.0025045324 0.025804785)
(5.1132149 -0.0023936224 0.027586096)
(5.1301339 -0.0024340927 0.028504321)
(5.1474519 -0.0023315863 0.028343289)
(5.1646431 -0.0021222624 0.027271573)
(5.1812269 -0.0018371778 0.025358874)
(5.1967204 -0.0014850445 0.022649616)
(5.2106692 -0.0010752576 0.019213805)
(5.2226456 -0.00060377958 0.015069849)
(5.886526 -0.48247856 0.18439904)
(5.8179193 -0.46314003 0.10564473)
(5.7723484 -0.43910258 0.063840664)
(5.7897884 -0.43817527 0.035100818)
(5.775784 -0.44166702 0.019607462)
(5.7503288 -0.43265137 -0.01943983)
(5.7623083 -0.43339768 -0.024738187)
(5.7361428 -0.42136724 -0.026880983)
(5.7522364 -0.42451015 -0.011564974)
(5.7418932 -0.41611568 0.0023452281)
(5.7561694 -0.41889169 0.019737413)
(5.7571455 -0.41681229 0.025815529)
(5.7664996 -0.41672516 0.033900907)
(5.7744212 -0.4139838 0.034608403)
(5.7811111 -0.41265296 0.049867633)
(5.7755726 -0.40997 0.052139729)
(5.1859941 -0.010315456 0.0013541273)
(5.1632161 -0.010202854 0.0012917418)
(5.1408387 -0.0098795002 0.0012270868)
(5.119359 -0.0093703814 0.0011607907)
(5.0992068 -0.0087038764 0.0010926911)
(5.0807348 -0.0079123546 0.0010227702)
(5.0642019 -0.007038712 0.00095247234)
(5.0497553 -0.0061314582 0.00088368415)
(5.0374257 -0.005237736 0.00081822516)
(5.0271394 -0.004396198 0.00075747343)
(5.0187425 -0.003633081 0.00070178634)
(5.0175883 -0.010998149 0.00072676189)
(5.0258465 -0.01333311 0.00078837477)
(5.036027 -0.015915211 0.00085670478)
(5.0483028 -0.018667217 0.00093294484)
(5.0627647 -0.021469191 0.0010161896)
(5.0793901 -0.024172237 0.0011035695)
(5.0980286 -0.026621907 0.0011908095)
(5.1184082 -0.028681562 0.0012732852)
(5.1401646 -0.030257904 0.0013515628)
(5.1628616 -0.031264786 0.0014254422)
(5.1859948 -0.031625047 0.0014943659)
(5.1859702 -0.054931957 0.0016364207)
(5.1620529 -0.054248074 0.0015537632)
(5.1386513 -0.052437962 0.0014616941)
(5.1162847 -0.049637692 0.0013595534)
(5.0953974 -0.045997454 0.0012490076)
(5.0763849 -0.041641768 0.0011241956)
(5.0595579 -0.036843609 0.0010046058)
(5.0450732 -0.031896285 0.00090161969)
(5.0329318 -0.027075963 0.00081945306)
(5.0229989 -0.022594238 0.00075520542)
(5.0150578 -0.01856331 0.00069835208)
(5.0108426 -0.025960921 0.00051463393)
(5.0182181 -0.031836488 0.00055013696)
(5.0276855 -0.038505951 0.00068339093)
(5.0395374 -0.045784136 0.00083370148)
(5.0540129 -0.053307039 0.00097751378)
(5.0711639 -0.06059365 0.0010848838)
(5.090838 -0.067149784 0.001130431)
(5.1126115 -0.072652933 0.001293591)
(5.1360082 -0.076961899 0.0014561433)
(5.1606006 -0.079793274 0.0015880129)
(5.1858454 -0.080948696 0.0016979131)
(5.1854649 -0.11012586 0.0017427159)
(5.15822 -0.10823352 0.0015717902)
(5.1318291 -0.10398499 0.0013223339)
(5.1069237 -0.098023224 0.0013772007)
(5.0839022 -0.090748298 0.0015362952)
(5.0631967 -0.081800576 0.0015901413)
(5.0454514 -0.071458022 0.0014805564)
(5.0309798 -0.060624945 0.0012390926)
(5.0196584 -0.050172216 0.00093806673)
(5.0110714 -0.040776718 0.00065875007)
(5.0047154 -0.03271109 0.00044300196)
(4.996211 -0.038576631 0.00071399126)
(5.0008849 -0.049550687 0.0012532922)
(5.0079722 -0.062684714 0.001941518)
(5.0183903 -0.077749671 0.0026627051)
(5.0329707 -0.093269813 0.0031717524)
(5.0519923 -0.10763724 0.003287091)
(5.0747201 -0.11881318 0.0029233215)
(5.0994752 -0.12654637 0.0022494125)
(5.125872 -0.13371978 0.0016938885)
(5.1544665 -0.13979924 0.0016180658)
(5.1845565 -0.14289053 0.0019362587)
(5.1826794 -0.1801764 0.0026007006)
(5.148938 -0.17480678 0.0019651126)
(5.1184386 -0.16624656 0.0027020737)
(5.0917538 -0.15929313 0.0043683433)
(5.0646474 -0.15662642 0.0067792055)
(5.0372336 -0.14462469 0.0081029629)
(5.0150283 -0.12411127 0.0079052321)
(5.00011 -0.10069108 0.006605475)
(4.9912777 -0.07824879 0.0048358101)
(4.9866105 -0.059113531 0.0030661976)
(4.9847 -0.043652238 0.0016321795)
(4.9743798 -0.048587252 0.0026754394)
(4.9735914 -0.069204503 0.0042566175)
(4.9743707 -0.095584373 0.0062512889)
(4.978645 -0.12757321 0.0084690374)
(4.9898337 -0.16304141 0.010617183)
(5.0118446 -0.19529016 0.012183292)
(5.0450057 -0.21151612 0.01213113)
(5.0809188 -0.20334404 0.0089586785)
(5.1101804 -0.19956104 0.0040870833)
(5.1404832 -0.21388186 0.0030766731)
(5.1788658 -0.22375362 0.0036624448)
(5.1717691 -0.27525582 0.0035711785)
(5.1253308 -0.25676516 0.0026265429)
(5.0918961 -0.23245561 0.0044386721)
(5.0594325 -0.26170571 0.012200816)
(5.0148509 -0.28635929 0.016356343)
(4.9765699 -0.25413395 0.01562928)
(4.9593167 -0.20142729 0.012830864)
(4.9564628 -0.15105204 0.0098889368)
(4.9595914 -0.10973457 0.0070257487)
(4.9638398 -0.077078304 0.0044301405)
(4.9677041 -0.052102132 0.0023989491)
(4.9668132 -0.052141037 0.0017461415)
(4.959953 -0.080561151 0.0041761021)
(4.9499914 -0.11732526 0.0071097698)
(4.9367295 -0.16455845 0.009972368)
(4.9270662 -0.22838518 0.010787508)
(4.9313955 -0.30460462 0.012971298)
(4.9712007 -0.38185442 0.021069883)
(5.0225401 -0.32172077 0.013512702)
(5.0585108 -0.26644604 0.0012077465)
(5.1007155 -0.29832192 -0.0017693816)
(5.1590581 -0.33537317 0.0010959029)
(5.4005207 -0.27903217 -9.1286274e-05)
(5.3664946 -0.32489065 0.0021965002)
(5.3150024 -0.36526475 0.013496212)
(5.2394398 -0.39885565 -0.026078428)
(5.1335962 -0.38910316 -0.029242286)
(5.0712249 -0.33187759 0.0014275869)
(5.0170183 -0.30729375 -0.0070303739)
(4.9403587 -0.36687188 -0.014037752)
(4.9263157 -0.4458368 0.0082344978)
(4.9034298 -0.29584544 -0.032950129)
(4.9023489 -0.23124691 0.00063968262)
(4.9197202 -0.16075892 0.0057081664)
(4.9435274 -0.11618328 0.0077731188)
(4.9615338 -0.078605763 0.0042814292)
(4.9729085 -0.0479769 0.0010511879)
(4.9855135 -0.037744277 -0.00106235)
(4.9653142 -0.06791145 0.005024356)
(4.9298398 -0.10311437 0.010443379)
(4.8806242 -0.12850205 0.00020778349)
(4.8302217 -0.16659743 -0.034944419)
(4.8662266 -0.25868733 -0.035877375)
(5.0214206 -0.39354278 0.061056076)
(4.7934291 -0.2382399 -0.017446223)
(4.7525648 -0.32966884 0.12418012)
(4.7401256 -0.33894278 -0.087387229)
(4.9560462 -0.00070852064 -0.010108453)
(4.8354326 -0.18053932 0.047811604)
(4.5896001 -0.43319339 -0.020014405)
(4.5176752 -0.60536238 0.015814012)
(4.5410561 -0.65620235 -0.064340784)
(4.7302233 -0.57763426 -0.027932603)
(4.8137981 -0.77230406 0.0031784882)
(4.8049698 -0.64296605 0.017584594)
(4.7764333 -0.70330936 -0.0023478327)
(4.7709357 -0.55825962 -0.0098551279)
(4.8001118 -0.66296407 -0.026891254)
(4.810664 -0.57398778 -0.019902483)
(4.8850651 -0.62984779 -0.042376583)
(4.9654687 -0.62197451 -0.044509248)
(4.9907271 -0.49616703 0.050618821)
(4.9673639 -0.52246431 -0.049720716)
(4.9726024 -0.42131161 0.016665536)
(5.0582661 -0.65843193 -0.063829529)
(4.7518666 -0.14392988 0.067650667)
(5.0367566 0.076618938 -0.070215225)
(5.1733154 -0.21898217 0.018142132)
(5.1774929 -0.4974348 0.03053967)
(5.2315446 -0.55466641 0.021793566)
(5.2338837 -0.57750864 -0.04132495)
(5.3487606 -0.50247875 0.0019537254)
(5.3634089 -0.67776344 -0.00047797027)
(5.3629131 -0.56547167 0.024062959)
(5.3209215 -0.64738347 0.0061381951)
(5.2874419 -0.49593584 0.0053869644)
(5.2799252 -0.5992682 -0.015650508)
(5.2650964 -0.48994573 -0.0067232699)
(5.2710901 -0.57741927 -0.017084784)
(5.2567551 -0.51680824 -0.025230653)
(5.3392067 -0.45496813 -0.02457369)
(5.4001901 -0.34672856 0.074380657)
(5.3038838 -0.4436599 -0.020474899)
(5.325017 -0.53745696 -0.014435337)
(5.3636629 -0.40772288 -0.047854285)
(5.4367599 -0.61227382 -0.035804957)
(5.1289131 -0.037712998 0.041171639)
(5.5053429 0.24326805 -0.10100267)
(5.6382774 -0.091466172 -0.0016694679)
(5.1868156 -0.00062965632 0.0022098214)
(5.1791437 -0.00093712575 0.0025193891)
(5.1700931 -0.0011967717 0.0027596485)
(5.1599603 -0.001404011 0.0029282082)
(5.1490516 -0.0015566229 0.00302632)
(5.1376697 -0.0016547916 0.0030580199)
(5.1261009 -0.0017009886 0.0030298432)
(5.1146056 -0.0016995458 0.0029500193)
(5.1034093 -0.0016564899 0.0028280294)
(5.0926977 -0.0015790772 0.0026738299)
(5.0826131 -0.0014752891 0.0024973382)
(5.0732547 -0.0013531807 0.00230765)
(5.0646814 -0.0012205006 0.0021126401)
(5.0569162 -0.0010839765 0.0019190061)
(5.0499521 -0.00094922159 0.0017320029)
(5.0496404 -0.00095324234 0.0052548077)
(5.0489709 -0.00098894172 0.0088807381)
(5.0478946 -0.0010698608 0.012522543)
(5.0464016 -0.0011839444 0.016001328)
(5.044534 -0.0013144494 0.019130224)
(5.0423716 -0.0014565731 0.021779847)
(5.0400053 -0.001608147 0.023885369)
(5.0375195 -0.0017622069 0.025430578)
(5.0349874 -0.0019099834 0.026432795)
(5.0324716 -0.0020442616 0.026932134)
(5.0300243 -0.0021603453 0.026984661)
(5.0276855 -0.002255866 0.026656804)
(5.0163115 -0.0029999712 0.013935029)
(5.0173406 -0.0030061789 0.015566492)
(5.0184567 -0.0030085542 0.017158261)
(5.0196623 -0.0030086276 0.018715369)
(5.0209625 -0.0030069833 0.020241484)
(5.0223654 -0.0030029224 0.021736927)
(5.0238821 -0.0029944486 0.023196149)
(5.0255262 -0.0029783637 0.024604635)
(5.0273121 -0.002950425 0.025935716)
(5.0292532 -0.0029058747 0.027147892)
(5.0313579 -0.0028399232 0.028183738)
(5.0336266 -0.0027486466 0.028971238)
(5.0360468 -0.0026298024 0.029427953)
(5.0385917 -0.0024834707 0.029467796)
(5.0412186 -0.0023126039 0.029009123)
(5.0438709 -0.0021234078 0.027982779)
(5.0464801 -0.0019254965 0.026339473)
(5.048966 -0.0017305615 0.024057907)
(5.0512376 -0.0015482745 0.021156551)
(5.0531978 -0.0013826796 0.017710073)
(5.054763 -0.0012400004 0.013866194)
(5.0558898 -0.0011384481 0.0098361158)
(5.0565903 -0.0010918364 0.0058212921)
(5.0643486 -0.0012328813 0.0064085555)
(5.0636329 -0.0012926429 0.010827557)
(5.0624805 -0.0014179464 0.01526161)
(5.0608764 -0.0015943317 0.019486256)
(5.0588637 -0.0018013604 0.023264912)
(5.0565275 -0.0020316497 0.026429841)
(5.0539682 -0.0022788249 0.028894585)
(5.051282 -0.0025298578 0.030637136)
(5.0485545 -0.002769282 0.031682534)
(5.0458595 -0.0029843703 0.032090194)
(5.0432577 -0.0031669542 0.0319442)
(5.0407934 -0.0033133995 0.031343681)
(5.0384934 -0.0034240332 0.030392149)
(5.036368 -0.0035024132 0.029187039)
(5.0344139 -0.0035542255 0.027811505)
(5.0326188 -0.0035860233 0.026329685)
(5.0309666 -0.0036041106 0.024785821)
(5.0294401 -0.0036138657 0.023206333)
(5.0280242 -0.0036192221 0.021603485)
(5.0267069 -0.0036225941 0.01997959)
(5.0254797 -0.0036248209 0.018330764)
(5.0243376 -0.0036252195 0.016649879)
(5.0232784 -0.0036220468 0.014928701)
(5.0223031 -0.0036140343 0.013159855)
(5.0214169 -0.0036036424 0.011339644)
(5.0206314 -0.0035999126 0.0094723161)
(5.019965 -0.0036132866 0.007576606)
(5.0194388 -0.00364065 0.0056929256)
(5.0190666 -0.0036590284 0.0038822409)
(5.0188427 -0.0036524704 0.0022059106)
(5.0272494 -0.0044166519 0.0023875113)
(5.0274939 -0.0044170403 0.0042074938)
(5.0278943 -0.0043845353 0.0061640808)
(5.0284521 -0.0043400943 0.008183572)
(5.0291507 -0.0043141659 0.010199754)
(5.0299668 -0.0043102185 0.012174133)
(5.0308807 -0.0043156667 0.014091204)
(5.0318803 -0.0043197293 0.015949769)
(5.0329598 -0.0043192123 0.017756507)
(5.0341174 -0.0043153854 0.019521804)
(5.0353544 -0.004310236 0.021257236)
(5.0366754 -0.004304567 0.022973656)
(5.0380886 -0.0042974327 0.024678983)
(5.039606 -0.0042860091 0.026374812)
(5.0412438 -0.0042655428 0.028051886)
(5.0430208 -0.004229335 0.02968486)
(5.0449559 -0.0041692949 0.031227299)
(5.0470642 -0.0040766961 0.032608436)
(5.049352 -0.0039436741 0.033733415)
(5.0518112 -0.0037650306 0.034488396)
(5.0544155 -0.0035397962 0.034750513)
(5.0571192 -0.0032724678 0.034401148)
(5.059859 -0.0029737313 0.033339735)
(5.0625573 -0.0026602275 0.031496192)
(5.065125 -0.0023520302 0.028842357)
(5.067464 -0.0020663177 0.025405548)
(5.0694736 -0.0018118478 0.02128588)
(5.0710706 -0.0015973754 0.016672439)
(5.0722156 -0.0014454879 0.011828251)
(5.0729252 -0.00137093 0.0070003541)
(5.0822993 -0.0014990915 0.0075761032)
(5.0816225 -0.0015892741 0.012803397)
(5.0805275 -0.0017699458 0.01805138)
(5.0789957 -0.0020255066 0.023051115)
(5.0770603 -0.0023321519 0.027512822)
(5.0747988 -0.0026795244 0.031224652)
(5.072307 -0.0030563231 0.034071144)
(5.0696815 -0.0034407164 0.036017996)
(5.0670114 -0.0038072426 0.037095404)
(5.0643756 -0.004134536 0.037384065)
(5.0618387 -0.0044088244 0.037001932)
(5.0594467 -0.0046245208 0.036088592)
(5.0572248 -0.0047832579 0.034787668)
(5.0551792 -0.0048922594 0.033230364)
(5.0533013 -0.0049619379 0.031523578)
(5.051574 -0.0050035357 0.029744443)
(5.0499767 -0.0050271947 0.027940914)
(5.0484898 -0.0050410543 0.026136464)
(5.0470971 -0.0050507498 0.02433655)
(5.0457872 -0.0050594917 0.022535082)
(5.0445531 -0.0050682665 0.020719684)
(5.0433915 -0.0050761444 0.018875524)
(5.0423027 -0.005080921 0.016987724)
(5.0412897 -0.0050812628 0.01504302)
(5.0403593 -0.005081189 0.013032034)
(5.0395245 -0.0050936304 0.010953021)
(5.0388056 -0.0051336961 0.0088181758)
(5.0382267 -0.0051975987 0.0066631289)
(5.0378062 -0.0052488016 0.0045567768)
(5.0375451 -0.00525836 0.002584673)
(5.049882 -0.0061494333 0.0027947273)
(5.0501536 -0.006126168 0.0049225426)
(5.0505838 -0.0060543974 0.0071777928)
(5.0511709 -0.0059703684 0.009466486)
(5.0518968 -0.0059160098 0.011718611)
(5.0527376 -0.0058951509 0.013900736)
(5.0536728 -0.0058897766 0.016003614)
(5.0546882 -0.0058846882 0.018031275)
(5.0557751 -0.0058750774 0.019995362)
(5.0569284 -0.0058622961 0.021911769)
(5.058146 -0.0058488685 0.023798737)
(5.0594286 -0.0058359995 0.025675178)
(5.0607813 -0.00582263 0.027558189)
(5.0622138 -0.0058051024 0.029458943)
(5.063741 -0.0057769173 0.031376462)
(5.0653821 -0.0057283783 0.033289927)
(5.0671578 -0.0056471257 0.03515057)
(5.0690864 -0.0055191088 0.036875343)
(5.0711779 -0.0053310832 0.038345383)
(5.0734275 -0.0050736834 0.039411717)
(5.0758115 -0.0047445643 0.039909348)
(5.078285 -0.0043507636 0.039677162)
(5.0807846 -0.0039096974 0.038579842)
(5.0832336 -0.0034481774 0.036526931)
(5.0855466 -0.0029976291 0.033487796)
(5.0876341 -0.0025847095 0.029505455)
(5.0894099 -0.0022234628 0.024712246)
(5.0908075 -0.0019254483 0.019343414)
(5.0918016 -0.0017152504 0.013713877)
(5.0924141 -0.0016090774 0.0081125858)
(5.1031722 -0.0016924357 0.0085823546)
(5.1026589 -0.0018141759 0.01451419)
(5.1018217 -0.0020526593 0.020484467)
(5.1006358 -0.002392289 0.0261879)
(5.0991159 -0.0028075167 0.031287466)
(5.0973123 -0.0032863507 0.035525928)
(5.0952958 -0.0038122232 0.038753006)
(5.0931432 -0.0043536836 0.040914931)
(5.090931 -0.0048730954 0.042040603)
(5.0887298 -0.0053376908 0.042228536)
(5.0865987 -0.0057258295 0.041630288)
(5.0845792 -0.0060287527 0.040427816)
(5.0826934 -0.0062493086 0.038807157)
(5.0809445 -0.0063990675 0.036934537)
(5.0793222 -0.0064942663 0.034940307)
(5.077809 -0.0065518365 0.032912695)
(5.0763852 -0.0065864726 0.030900525)
(5.0750339 -0.0066094807 0.028921265)
(5.0737427 -0.0066282877 0.026970867)
(5.0725049 -0.0066468771 0.025032791)
(5.0713185 -0.0066663026 0.023084937)
(5.0701857 -0.0066851629 0.021104311)
(5.0691118 -0.0067004911 0.019069512)
(5.0681047 -0.006710751 0.016962145)
(5.0671753 -0.0067214782 0.014768711)
(5.0663397 -0.0067500354 0.012483636)
(5.0656191 -0.0068173983 0.010114696)
(5.0650365 -0.0069198793 0.0076942432)
(5.0646072 -0.0070113839 0.0052934061)
(5.0643327 -0.0070500212 0.0030113525)
(5.0808659 -0.0079144248 0.0032289811)
(5.0811365 -0.0078610281 0.005659871)
(5.0815562 -0.0077525147 0.0082020019)
(5.0821257 -0.0076349358 0.010752461)
(5.0828324 -0.0075567386 0.013238361)
(5.0836542 -0.0075213251 0.015626467)
(5.0845689 -0.0075050064 0.017908991)
(5.0855582 -0.0074887305 0.020092074)
(5.086608 -0.0074664233 0.022190697)
(5.087707 -0.0074398738 0.024225391)
(5.0888465 -0.0074124326 0.026220566)
(5.0900203 -0.0073859015 0.028203236)
(5.0912261 -0.0073593457 0.030200341)
(5.0924666 -0.007328415 0.032233953)
(5.0937499 -0.0072848247 0.034313485)
(5.0950892 -0.0072156983 0.036425371)
(5.0965006 -0.0071040254 0.038521541)
(5.0979998 -0.0069299994 0.040509597)
(5.0995962 -0.0066744864 0.042248982)
(5.1012875 -0.0063238932 0.0435576)
(5.103055 -0.0058750891 0.044230117)
(5.1048622 -0.0053389475 0.044065726)
(5.1066584 -0.0047415697 0.042898878)
(5.1083837 -0.0041218643 0.040625723)
(5.1099765 -0.0035236266 0.037221631)
(5.1113782 -0.0029827428 0.032752878)
(5.1125401 -0.0025176431 0.027387677)
(5.1134326 -0.0021402526 0.021402753)
(5.1140544 -0.00187644 0.015152989)
(5.1144321 -0.0017408812 0.0089551776)
(5.1260076 -0.0017466979 0.0092006676)
(5.1258015 -0.0018932651 0.015578685)
(5.125453 -0.0021773532 0.022025336)
(5.1249351 -0.00258556 0.028218695)
(5.1242335 -0.0030927577 0.033791978)
(5.1233526 -0.00368729 0.038452509)
(5.1223135 -0.0043498396 0.042015089)
(5.1211498 -0.0050407825 0.044399573)
(5.119903 -0.0057107816 0.045623802)
(5.1186167 -0.0063149335 0.045793688)
(5.1173296 -0.0068224713 0.045085071)
(5.1160699 -0.0072202763 0.043714134)
(5.1148519 -0.0075115409 0.041902326)
(5.1136771 -0.0077115512 0.039845056)
(5.1125378 -0.0078420214 0.037690974)
(5.1114225 -0.0079254659 0.035535226)
(5.11032 -0.007981012 0.033424262)
(5.1092229 -0.0080229487 0.031367329)
(5.108129 -0.0080602997 0.029349618)
(5.107041 -0.0080976018 0.027343731)
(5.1059663 -0.0081356804 0.02531809)
(5.1049157 -0.0081723593 0.023242106)
(5.103902 -0.0082037406 0.021088716)
(5.1029402 -0.0082276274 0.018835614)
(5.1020476 -0.0082503546 0.016466916)
(5.1012452 -0.0082923757 0.013976704)
(5.1005567 -0.0083793371 0.011374432)
(5.1000037 -0.0085085378 0.0086961052)
(5.0995974 -0.0086297174 0.0060173649)
(5.0993349 -0.0086958204 0.0034431162)
(5.1194821 -0.0093545844 0.003651287)
(5.1197359 -0.0092778198 0.0063641274)
(5.1201295 -0.0091465299 0.0091753481)
(5.1206661 -0.0090078384 0.0119787)
(5.1213346 -0.00891276 0.014695061)
(5.1221128 -0.008863177 0.017284145)
(5.1229753 -0.008832008 0.019733558)
(5.1238983 -0.0087978548 0.022048206)
(5.1248614 -0.0087543759 0.024244343)
(5.1258459 -0.0087042617 0.026345566)
(5.1268344 -0.0086519918 0.028381042)
(5.1278114 -0.0086001747 0.030384369)
(5.1287635 -0.0085482268 0.032391102)
(5.1296813 -0.0084915363 0.034433435)
(5.13056 -0.00842057 0.036531307)
(5.1313994 -0.0083199508 0.038679987)
(5.1322036 -0.0081687938 0.040835589)
(5.1329785 -0.007942393 0.042902113)
(5.1337288 -0.0076168096 0.044725625)
(5.1344539 -0.007175347 0.046101429)
(5.1351452 -0.0066151135 0.04679663)
(5.1357859 -0.0059515711 0.046584729)
(5.1363535 -0.0052198664 0.04528439)
(5.1368259 -0.0044702746 0.042791682)
(5.1371875 -0.0037567218 0.039098241)
(5.1374351 -0.0031213698 0.034298432)
(5.1375804 -0.0025837171 0.028592016)
(5.1376484 -0.002154472 0.022282967)
(5.1376699 -0.0018571169 0.015742569)
(5.1376718 -0.0017034247 0.0092901483)
(5.1491618 -0.0016062859 0.0091984848)
(5.1493918 -0.0017622421 0.015601934)
(5.1497423 -0.0020640886 0.02211477)
(5.1501886 -0.0025022354 0.02842814)
(5.1506822 -0.0030552773 0.034175355)
(5.1511661 -0.0037141507 0.039048108)
(5.1515915 -0.0044600954 0.042835378)
(5.1519263 -0.0052500578 0.045429035)
(5.152155 -0.006026935 0.046825505)
(5.1522738 -0.0067361578 0.047122159)
(5.1522845 -0.0073387957 0.046499875)
(5.1521898 -0.0078171743 0.045188922)
(5.1519913 -0.0081736499 0.043427398)
(5.1516886 -0.0084257763 0.041424134)
(5.1512812 -0.008599077 0.039334565)
(5.1507703 -0.0087198661 0.037253297)
(5.1501606 -0.0088101763 0.035220711)
(5.1494611 -0.0088860355 0.033237049)
(5.1486851 -0.0089571578 0.031277889)
(5.1478495 -0.0090280242 0.029307149)
(5.1469735 -0.0090988852 0.027286258)
(5.1460781 -0.0091666202 0.025179473)
(5.1451849 -0.0092262083 0.022956195)
(5.1443161 -0.0092744506 0.020592178)
(5.1434953 -0.0093174805 0.018071334)
(5.1427485 -0.0093773197 0.015390194)
(5.1421033 -0.009481968 0.01256456)
(5.1415836 -0.009630185 0.0096401024)
(5.1412019 -0.0097707798 0.0067004327)
(5.1409568 -0.0098567542 0.0038529875)
(5.1633283 -0.010175148 0.0040492094)
(5.163563 -0.010080365 0.0070263774)
(5.1639295 -0.0099288372 0.010090202)
(5.164427 -0.0097689244 0.013129143)
(5.1650398 -0.0096515097 0.01605504)
(5.1657416 -0.0095773565 0.018817039)
(5.1665027 -0.0095178389 0.021395609)
(5.1672947 -0.0094506243 0.023792579)
(5.1680915 -0.0093698983 0.026023403)
(5.1688676 -0.0092794328 0.028112476)
(5.1695974 -0.0091848351 0.030090849)
(5.1702552 -0.0090896562 0.031995355)
(5.1708153 -0.0089940865 0.033866354)
(5.1712533 -0.0088940095 0.035742562)
(5.171547 -0.008779918 0.0376519)
(5.1716774 -0.0086357405 0.039598273)
(5.17163 -0.0084390243 0.041545643)
(5.1713949 -0.0081627475 0.043403289)
(5.1709679 -0.0077806509 0.045018728)
(5.1703499 -0.0072750355 0.04618537)
(5.1695478 -0.0066443044 0.046667638)
(5.1685753 -0.0059079072 0.046239392)
(5.1674544 -0.005107541 0.044727062)
(5.1662191 -0.0043005817 0.042044652)
(5.1649202 -0.0035453436 0.038209662)
(5.1636286 -0.0028842716 0.033342989)
(5.1624334 -0.0023340655 0.027662148)
(5.161425 -0.0019013595 0.021471321)
(5.1606694 -0.0016051442 0.015122644)
(5.1601876 -0.0014525949 0.0089058181)
(5.1704421 -0.0012419371 0.0083993874)
(5.1711859 -0.0013849081 0.014282219)
(5.1723641 -0.0016642826 0.020319302)
(5.1739612 -0.0020753375 0.026249356)
(5.175895 -0.0026021926 0.031745691)
(5.1780412 -0.0032412422 0.036516868)
(5.1802695 -0.0039788253 0.040344761)
(5.1824676 -0.0047752757 0.043098184)
(5.1845469 -0.0055731847 0.044744188)
(5.1864405 -0.0063142923 0.045352402)
(5.1880998 -0.0069554636 0.045081478)
(5.1894932 -0.0074762252 0.044144434)
(5.1906049 -0.0078772404 0.042765463)
(5.1914335 -0.0081755351 0.04114162)
(5.1919888 -0.0083969537 0.039417482)
(5.1922897 -0.0085680927 0.037677385)
(5.1923613 -0.0087108151 0.035952368)
(5.1922327 -0.0088406602 0.034234987)
(5.191935 -0.0089664871 0.032495249)
(5.1914998 -0.0090917446 0.030693274)
(5.1909584 -0.0092157371 0.028788353)
(5.190341 -0.009334416 0.026743771)
(5.1896767 -0.009441769 0.024528785)
(5.1889935 -0.0095335661 0.022119542)
(5.1883197 -0.0096151744 0.019501391)
(5.1876855 -0.0097085022 0.016674452)
(5.1871228 -0.0098425251 0.013661693)
(5.1866605 -0.010016791 0.010518478)
(5.1863177 -0.010179808 0.0073383767)
(5.1860983 -0.010283241 0.0042373466)
(5.2104378 -0.0076149 0.04016185)
(5.2089715 -0.0072970743 0.041463256)
(5.2071334 -0.0068847199 0.042514675)
(5.2049256 -0.0063623907 0.04313625)
(5.2023726 -0.0057305058 0.043124541)
(5.1995244 -0.0050099385 0.042289364)
(5.1964566 -0.0042436779 0.040495304)
(5.1932709 -0.0034884554 0.037694223)
(5.1900951 -0.0027981929 0.033935421)
(5.1870827 -0.002207555 0.029357089)
(5.1844043 -0.0017259491 0.024171203)
(5.182217 -0.0013536972 0.018646606)
(5.1806174 -0.0011031014 0.01307342)
(5.1796134 -0.0009763023 0.0076754126)
(5.1873987 -0.00066014489 0.0067407909)
(5.1886465 -0.0007636736 0.011506699)
(5.1906441 -0.00097286484 0.016465244)
(5.1933942 -0.001288775 0.021438871)
(5.1967894 -0.0017033046 0.026185683)
(5.2006397 -0.0022183426 0.030469532)
(5.2047381 -0.0028301175 0.034091669)
(5.2088928 -0.0035113413 0.036911102)
(5.2129371 -0.0042146834 0.038862024)
(5.2167356 -0.0048879271 0.039965941)
(5.220186 -0.0054900385 0.040326276)
(5.2232209 -0.0060000312 0.040100339)
(5.1861082 -0.031443025 0.0044206074)
(5.1629885 -0.031099601 0.0042185537)
(5.1403033 -0.030115326 0.004006779)
(5.1185576 -0.028568944 0.0037873934)
(5.0981884 -0.026544972 0.0035597251)
(5.0795563 -0.024142761 0.0033216603)
(5.0629286 -0.021481225 0.0030786221)
(5.0484573 -0.018705755 0.0028392011)
(5.036168 -0.015963158 0.0026120176)
(5.0259736 -0.013377937 0.0024028648)
(5.0177022 -0.011038373 0.0022135733)
(4.9925363 -0.0062789049 -0.0082177377)
(4.9501123 -0.015558112 0.022597618)
(4.8775576 -0.027206688 0.049738823)
(4.8051374 -0.017286439 0.055929256)
(4.6947793 0.0093463804 -0.049592259)
(4.5580825 -0.069811718 0.14778224)
(4.4146243 -0.080398214 0.11909329)
(4.3825738 -0.64801043 -0.070465362)
(4.6491662 -0.59344301 -0.14046261)
(4.7557652 -0.59700762 -0.12939406)
(4.8158838 -0.6044179 -0.04090849)
(4.8505607 -0.62212461 -0.026475327)
(4.8768966 -0.61805316 -0.021260436)
(4.9130157 -0.60238678 -0.0090104818)
(4.9454483 -0.60519601 -0.0066728341)
(4.9600712 -0.60380882 -0.0086334317)
(4.9480018 -0.61205449 -0.012574293)
(4.8957736 -0.61468942 -0.018165903)
(4.7832343 -0.60652972 -0.029155383)
(4.874766 -0.50825261 -0.04201562)
(4.887085 -0.51192949 -0.032201113)
(4.8952199 -0.51441532 -0.025157151)
(4.9052515 -0.51610656 -0.020190249)
(4.9119965 -0.51486053 -0.015799947)
(4.9172335 -0.51569848 -0.011760694)
(4.91812 -0.51771607 -0.0081795165)
(4.9219927 -0.51850274 -0.0039998642)
(4.9257277 -0.51770719 -0.00030101355)
(4.927465 -0.51756229 0.0032912162)
(4.9272771 -0.51853771 0.0065134246)
(4.9285601 -0.51862248 0.0091495909)
(4.9327373 -0.51816162 0.012079977)
(4.9341312 -0.51827449 0.015010887)
(4.9330603 -0.5200749 0.017797596)
(4.9344526 -0.52008054 0.02073038)
(4.9387899 -0.51704152 0.022615181)
(4.9397993 -0.51879937 0.02389602)
(4.938444 -0.52032206 0.026303838)
(4.9395195 -0.5176317 0.028569846)
(4.9427114 -0.51673087 0.02957882)
(4.9434194 -0.51705662 0.030392424)
(4.9422674 -0.51698749 0.031740721)
(4.9430567 -0.5168065 0.033318023)
(4.945848 -0.51725662 0.034296648)
(4.9464566 -0.51698562 0.034946777)
(4.9451874 -0.51624436 0.036126195)
(4.9456759 -0.51582842 0.037822322)
(4.9481228 -0.5156796 0.039098927)
(4.948509 -0.51465138 0.040202094)
(4.9472552 -0.51419966 0.042228949)
(4.9482242 -0.51406346 0.045237993)
(4.9518433 -0.51382877 0.048085771)
(4.9542072 -0.51304828 0.051084996)
(4.956806 -0.51411682 0.053986096)
(4.9616731 -0.51470605 0.055629757)
(4.9673467 -0.51665395 0.056490496)
(4.9727734 -0.51910648 0.057291666)
(4.9766776 -0.51900015 0.056646897)
(4.981163 -0.51743677 0.054026834)
(4.9867379 -0.5199056 0.0513092)
(4.9894917 -0.51945495 0.048982746)
(4.9898828 -0.51764075 0.046788455)
(4.9912159 -0.5178853 0.044965854)
(4.9943318 -0.51844507 0.04324996)
(4.9952327 -0.5175353 0.041431751)
(4.9946116 -0.51626423 0.040332486)
(4.9956799 -0.51536312 0.039589455)
(4.9987205 -0.51576283 0.038195924)
(4.9995559 -0.51639363 0.036366105)
(4.9988186 -0.51685112 0.035117073)
(5.0000421 -0.51646647 0.0340285)
(5.0035605 -0.51580261 0.032162401)
(5.0047778 -0.51517636 0.02961933)
(5.0041066 -0.51488535 0.02710967)
(5.0052335 -0.51457838 0.024151038)
(5.0086852 -0.51397263 0.020492948)
(5.0094658 -0.51349791 0.016110681)
(5.0081352 -0.51288149 0.010880817)
(5.0090369 -0.51449149 0.0052544327)
(5.0100055 -0.51289471 -0.00062331943)
(5.0069139 -0.50914634 -0.0085076924)
(5.0013429 -0.50810366 -0.01843584)
(4.9969462 -0.50850666 -0.02726345)
(4.9943526 -0.50810192 -0.034908397)
(4.9883125 -0.50691496 -0.043913561)
(4.9786361 -0.50741594 -0.055319988)
(4.9724838 -0.50456813 -0.062569107)
(4.9703457 -0.50306237 -0.061887599)
(4.9622863 -0.50496261 -0.056794973)
(4.9521897 -0.51029591 -0.052930354)
(4.9433169 -0.51272531 -0.041579389)
(4.9546741 -0.52689697 -0.041252323)
(4.9143702 -0.52572212 -0.043573865)
(4.8815653 -0.45671256 -0.023932179)
(5.1040808 -0.54605329 -0.33627695)
(5.1614988 -0.52664767 -0.45689887)
(5.4095328 -0.54975881 -0.85659841)
(6.5846904 0.1403965 -0.32553287)
(5.6217775 -0.66577651 -0.20204274)
(5.0460579 -0.56855341 -0.15721647)
(5.121341 -0.63872456 0.020904173)
(5.1127488 -0.65868638 0.28023694)
(5.1545388 -0.56671081 0.25334283)
(5.0094608 -0.51477947 0.21276308)
(4.9549029 -0.54826808 0.004234125)
(4.9304345 -0.56175426 -0.039559371)
(4.9194413 -0.56888059 -0.04490488)
(4.9146265 -0.57213072 -0.045156929)
(4.9124138 -0.57445258 -0.046223691)
(4.9112739 -0.57763546 -0.045909601)
(4.914169 -0.57841393 -0.042629983)
(4.9198683 -0.57863935 -0.037225718)