/*--------------------------------*- C++ -*----------------------------------*\
| =========                 |                                                 |
| \\      /  F ield         | OpenFOAM: The Open Source CFD Toolbox           |
|  \\    /   O peration     | Version:  v2012                                 |
|   \\  /    A nd           | Website:  www.openfoam.com                      |
|    \\/     M anipulation  |                                                 |
\*---------------------------------------------------------------------------*/
FoamFile
{
    version     2.0;
    format      ascii;
    class       volScalarField;
    location    "158";
    object      nut;
}
// * * * * * * * * * * * * * * * * * * * * * * * * * * * * * * * * * * * * * //

dimensions      [0 2 -1 0 0 0 0];


internalField   nonuniform List<scalar> 
14958
(
0.033468295
0.033468021
0.033512196
0.033511524
0.033512002
0.033511826
0.033512535
0.033512337
0.03351277
0.033512728
0.033512728
0.03351277
0.033512337
0.033512535
0.033511826
0.033512002
0.033511524
0.033512195
0.033512161
0.033513081
0.033512918
0.033513385
0.033513269
0.033513324
0.033513263
0.033513241
0.033513228
0.033513229
0.033513232
0.033513235
0.033513238
0.03351324
0.033513241
0.033513242
0.033513241
0.03351324
0.03351324
0.033513241
0.033513257
0.033513281
0.033513344
0.033513292
0.033513409
0.033512945
0.033513108
0.033512191
0.033512225
0.033511555
0.033512052
0.033511921
0.033512695
0.033512591
0.033513124
0.033513187
0.033513266
0.033513339
0.033512891
0.03351301
0.033512218
0.033512304
0.033511782
0.033512451
0.033512424
0.033513339
0.033513183
0.033513647
0.033513531
0.033513579
0.033513536
0.033513782
0.033514733
0.033516414
0.033518233
0.033518852
0.033518869
0.033518855
0.033518839
0.033518823
0.033518776
0.033518128
0.033516284
0.03351458
0.033513606
0.033513337
0.03351336
0.033513296
0.033513405
0.033512932
0.033513089
0.033512165
0.033468634
0.033469328
0.033469724
0.033470125
0.033470249
0.033470293
0.033470364
0.033471109
0.033473695
0.033478145
0.033482869
0.033484549
0.033484698
0.033484744
0.033484786
0.033484824
0.033484758
0.033483156
0.033478506
0.033474135
0.033471632
0.033470976
0.033470995
0.03347104
0.033471
0.033470689
0.033470374
0.033469766
0.033469211
0.033468771
0.03342471
0.033380501
0.033341759
0.033318314
0.033329923
0.033401839
0.023009504
0.032352516
0.032387809
0.032424576
0.032462462
0.032500731
0.032538423
0.032574364
0.032607499
0.0326374
0.03266545
0.032694316
0.032726184
0.032762094
0.032802104
0.032845727
0.032892299
0.032941197
0.032991912
0.03304407
0.033097397
0.033151673
0.033206638
0.033261864
0.033316676
0.033369961
0.033420734
0.033421601
0.033421913
0.033422751
0.03342299
0.033423311
0.033423336
0.033423532
0.033424829
0.03342914
0.033436462
0.033444071
0.033446842
0.033447156
0.033447255
0.033447344
0.033447425
0.033447288
0.033444686
0.033437247
0.033430122
0.033426037
0.033424993
0.033425076
0.033425356
0.033425366
0.033425491
0.033425028
0.033425075
0.033424485
0.033379819
0.033340248
0.033315775
0.033327043
0.033403333
0.020553778
0.016337644
0.016250498
0.016247124
0.016160004
0.016265394
0.016034994
0.01595261
0.015880697
0.015793823
0.015712423
0.015543842
0.015464164
0.015371398
0.015268633
0.015152418
0.015026502
0.014890215
0.014740992
0.014568981
0.014359906
0.014176988
0.01373015
0.013372617
0.012851936
0.0081560188
0.0049738251
0.0032116789
0.0022208396
0.0021832177
0.0026720762
0.0021690987
0.0019556422
0.002660437
0.0031398825
0.0023977543
0.0024744119
0.0026150414
0.0031927873
0.0046303689
0.0077940175
0.011780135
0.01853931
0.028688994
0.033137572
0.033080931
0.033076113
0.033097947
0.033132507
0.03317341
0.03321763
0.03326359
0.03331026
0.033356672
0.033401686
0.033405612
0.033406165
0.033406359
0.033406537
0.033406703
0.033406506
0.033402924
0.033392805
0.033382957
0.033377353
0.03337605
0.033376435
0.033377237
0.03337778
0.033378716
0.033378831
0.033379881
0.0333388
0.033311106
0.033315513
0.033381506
0.023761996
0.024353533
0.033387592
0.03332088
0.033313713
0.033339527
0.03337947
0.033424237
0.03346899
0.033469353
0.033469757
0.033470053
0.033470362
0.033470376
0.033470174
0.033469794
0.033469214
0.033468764
0.033468293
0.033467925
0.03346771
0.033421335
0.033371516
0.033319979
0.033267764
0.033216636
0.033167671
0.033121723
0.033079295
0.033040515
0.033005069
0.032972134
0.0329405
0.032908748
0.032875586
0.032884085
0.032915588
0.032945754
0.032975935
0.033007613
0.033042047
0.033080071
0.033121971
0.033167567
0.033216306
0.033267307
0.033319421
0.033371094
0.033421014
0.033421542
0.033371671
0.033319902
0.033267809
0.03321693
0.033168518
0.033123535
0.03308265
0.033046166
0.033013873
0.032984925
0.032957959
0.032931355
0.032903619
0.032940154
0.032960802
0.032980675
0.033001535
0.033025284
0.033053489
0.033087012
0.033125909
0.033169646
0.033217331
0.033267833
0.033319786
0.033371597
0.033421651
0.033422556
0.033372773
0.033321167
0.033269495
0.033219535
0.033172921
0.033131144
0.033095546
0.033067132
0.033046163
0.033031712
0.033021743
0.033013722
0.033005335
0.033116986
0.033105813
0.033093969
0.033084875
0.033082563
0.03309034
0.033109492
0.033139171
0.033177427
0.033222063
0.033270965
0.033322094
0.033373439
0.033423124
0.033423823
0.033374471
0.033323624
0.033273401
0.033226239
0.033184907
0.033152702
0.033133527
0.033131209
0.033147391
0.033178597
0.0332179
0.033258124
0.033293926
0.033504099
0.033462276
0.033401192
0.033330017
0.033259885
0.033203695
0.033175383
0.03317524
0.033196638
0.033232225
0.033276427
0.033325158
0.033375256
0.033424228
0.033424308
0.033375818
0.033326869
0.033280579
0.033241381
0.033215884
0.033214332
0.033249053
0.033324143
0.033423488
0.03097787
0.030704309
0.031673116
0.033479494
0.029120478
0.026434738
0.02381368
0.024303117
0.024407598
0.028733503
0.033365345
0.033280526
0.033248052
0.033256075
0.033287134
0.033329614
0.033376784
0.033424432
0.033424117
0.033377283
0.033332414
0.033295311
0.033276522
0.033295251
0.033372702
0.02751731
0.019504961
0.028480957
0.033348985
0.03330145
0.03330581
0.033336731
0.033378894
0.033424463
0.033424406
0.033424565
0.033424752
0.033424919
0.033424821
0.03342444
0.033423809
0.033422989
0.033422245
0.033421638
0.033421359
0.033421259
0.033422096
0.033422365
0.033423152
0.033423331
0.033423586
0.033423526
0.03342347
0.033423369
0.033423295
0.03342324
0.033423204
0.033423177
0.033423155
0.033423135
0.033423117
0.0334231
0.033423085
0.033423075
0.033423072
0.033423087
0.033423121
0.033423182
0.033423197
0.033423216
0.033422923
0.033422707
0.033421889
0.033421592
0.033420734
0.033420804
0.033467541
0.033468019
0.033468626
0.033469312
0.033469696
0.033470081
0.033470188
0.033470209
0.033470169
0.033470122
0.033470096
0.033470087
0.033470089
0.033470095
0.033470101
0.033470107
0.033470113
0.033470119
0.033470124
0.033470131
0.033470142
0.033470162
0.033470201
0.033470261
0.033470314
0.033470306
0.03347021
0.033469836
0.03346946
0.033468785
0.033468184
0.033468496
0.033512337
0.033512621
0.033513282
0.033513521
0.033513856
0.03351387
0.033513874
0.033513817
0.033513777
0.033513752
0.033513741
0.033513736
0.033513734
0.033513732
0.033513731
0.033513729
0.033513727
0.033513725
0.033513723
0.033513724
0.033513732
0.033513754
0.033513789
0.033513843
0.033513835
0.033513818
0.03351348
0.033513239
0.033512574
0.033512287
0.033512371
0.03351299
0.033513669
0.033514181
0.033514503
0.033514594
0.033514574
0.033514516
0.033514466
0.033514435
0.033514421
0.033514417
0.033514417
0.03351442
0.033514422
0.033514425
0.033514429
0.033514433
0.033514439
0.033514449
0.03351447
0.033514507
0.033514563
0.033514628
0.033514654
0.03351457
0.033514254
0.033513748
0.033513075
0.033512462
0.033512959
0.033513608
0.033514392
0.033515026
0.033515374
0.033515464
0.033515418
0.033515336
0.033515265
0.033515218
0.033515191
0.033515175
0.033515165
0.033515158
0.033515152
0.033515147
0.033515143
0.03351514
0.033515139
0.033515144
0.033515161
0.033515196
0.033515256
0.033515327
0.033515362
0.033515261
0.033514902
0.033514257
0.033513461
0.033512803
0.033512991
0.033513902
0.033514828
0.033515542
0.033515915
0.033516005
0.033515952
0.033515868
0.033515802
0.033515764
0.033515748
0.033515743
0.033515746
0.033515751
0.033515757
0.033515765
0.033515773
0.033515783
0.033515797
0.033515818
0.033515851
0.033515906
0.033515989
0.033516091
0.03351616
0.033516088
0.033515732
0.033515037
0.033514129
0.033513234
0.033513664
0.03351457
0.033515523
0.033516233
0.033516576
0.033516626
0.033516535
0.033516417
0.033516323
0.03351626
0.033516221
0.033516196
0.033516179
0.033516165
0.033516153
0.033516143
0.033516134
0.033516127
0.033516123
0.033516126
0.033516142
0.03351618
0.03351625
0.033516344
0.033516411
0.033516337
0.033515969
0.033515232
0.033514252
0.033513324
0.033513411
0.033514417
0.033515423
0.033516163
0.033516524
0.033516589
0.033516514
0.033516416
0.033516344
0.033516306
0.033516291
0.03351629
0.033516295
0.033516304
0.033516315
0.033516328
0.033516343
0.03351636
0.033516381
0.033516411
0.033516455
0.033516524
0.033516626
0.033516755
0.033516861
0.033516827
0.033516498
0.033515793
0.033514822
0.033513847
0.033513921
0.033514889
0.033515853
0.033516553
0.033516878
0.033516907
0.033516798
0.033516665
0.033516558
0.033516486
0.033516438
0.033516405
0.033516381
0.033516361
0.033516344
0.03351633
0.033516317
0.033516306
0.033516299
0.033516299
0.033516313
0.033516351
0.033516421
0.033516518
0.033516592
0.033516526
0.033516165
0.033515424
0.033514418
0.033513411
0.033513325
0.033514254
0.033515235
0.033515973
0.033516344
0.03351642
0.033516356
0.033516272
0.03351621
0.033516176
0.033516164
0.033516164
0.033516172
0.033516183
0.033516197
0.033516213
0.033516231
0.033516252
0.033516277
0.033516312
0.03351636
0.033516432
0.033516532
0.033516654
0.033516755
0.033516716
0.033516384
0.033515688
0.033514753
0.033513866
0.033513514
0.033514384
0.033515269
0.033515946
0.033516287
0.033516347
0.033516265
0.03351617
0.033516197
0.033516156
0.033516113
0.03351608
0.033516054
0.033516033
0.033516015
0.033515999
0.033515985
0.033515974
0.033515966
0.033515964
0.033515971
0.033515976
0.033515913
0.033515972
0.033516019
0.033515926
0.033515549
0.033514833
0.033513904
0.033512992
0.033512804
0.033513464
0.033514263
0.033514911
0.033515275
0.033515381
0.033515353
0.033515315
0.033515499
0.033516007
0.03351607
0.033516081
0.033516091
0.033516102
0.033516116
0.033516131
0.033516149
0.03351617
0.033516193
0.033516215
0.033516185
0.033515708
0.033515555
0.033515625
0.033515682
0.033515602
0.033515266
0.033514648
0.033513884
0.03351326
0.033512745
0.033513341
0.033514
0.033514497
0.033514807
0.033514885
0.033514851
0.033514802
0.033514998
0.033515834
0.033516799
0.03351689
0.03351688
0.033516863
0.033516846
0.03351683
0.033516817
0.033516803
0.033516782
0.033516661
0.033515668
0.033514805
0.033514583
0.033514605
0.033514617
0.03351452
0.033514192
0.033513676
0.033512994
0.033512373
0.033512289
0.033512578
0.033513246
0.033513493
0.033513837
0.033513861
0.033513877
0.033513861
0.03351411
0.033515051
0.033516651
0.033517713
0.033517827
0.033517848
0.033517863
0.033517878
0.033517894
0.033517903
0.033517819
0.033516784
0.033515208
0.03351429
0.033514066
0.033514104
0.033514106
0.033514095
0.033513763
0.033513524
0.033512868
0.033512587
0.033469526
0.033469826
0.033470405
0.033470821
0.033471251
0.033471328
0.033471138
0.033470719
0.033470034
0.033469468
0.033468818
0.033469739
0.033469099
0.033421938
0.033371436
0.033372101
0.033372052
0.03337297
0.033372985
0.033373258
0.033373113
0.033373005
0.033372838
0.033372703
0.033372592
0.033372507
0.033372438
0.03337238
0.033372329
0.033372284
0.033372245
0.033372211
0.033372186
0.033372175
0.033372188
0.033372222
0.033372287
0.033372292
0.033372334
0.033371965
0.033371858
0.033370863
0.033370845
0.033369966
0.033370196
0.033317174
0.033262388
0.03320718
0.033152135
0.033097654
0.033043906
0.032990949
0.032938817
0.032887524
0.032837072
0.032787439
0.032738573
0.032690395
0.032642795
0.032595641
0.032548804
0.032502182
0.032455718
0.032409417
0.032363344
0.032317616
0.032272373
0.032227726
0.03218378
0.032271648
0.032279621
0.032313349
0.032306006
0.032298113
0.032289152
0.032278621
0.032266255
0.032252387
0.032237951
0.03222409
0.032211796
0.032201732
0.032194095
0.032188745
0.032185375
0.032229213
0.032232351
0.032237336
0.032244494
0.032253981
0.032265628
0.032278796
0.032292511
0.03230564
0.032317251
0.032327051
0.032335345
0.032342647
0.032349465
0.032387953
0.032381521
0.032374617
0.032366742
0.032357388
0.032346245
0.032333615
0.032320457
0.032307888
0.032296845
0.032287925
0.032281251
0.032276642
0.032273744
0.032318868
0.03232152
0.032325743
0.032331922
0.032340268
0.032350716
0.032362735
0.032375443
0.032387754
0.032398668
0.032407836
0.032415537
0.032422252
0.032428465
0.032476325
0.032470349
0.032464171
0.032457443
0.032449706
0.032440531
0.0324297
0.032417634
0.032405358
0.03239391
0.032384087
0.032376345
0.032370682
0.032366863
0.032364472
0.032410416
0.032412535
0.032415927
0.032421036
0.032428113
0.032437226
0.032448
0.032459745
0.032471504
0.032482273
0.032491554
0.032499475
0.032506393
0.03251272
0.032518786
0.032524807
0.03257341
0.032567152
0.032560911
0.032554572
0.03254794
0.032540721
0.032532573
0.03252323
0.032512666
0.032501418
0.032490414
0.032480491
0.032472215
0.032465882
0.032461367
0.032458422
0.032456582
0.032502908
0.032504465
0.032506951
0.032510843
0.032516361
0.032523673
0.032532549
0.032542552
0.032553002
0.032563106
0.032572334
0.03258062
0.032588128
0.032595114
0.032601818
0.032608405
0.032614974
0.032654928
0.032647978
0.032641011
0.032633956
0.032626687
0.032619031
0.032610823
0.032601989
0.032592665
0.032583306
0.032574534
0.032566868
0.032560616
0.032555957
0.032552698
0.032550668
0.032549388
0.032596086
0.032597104
0.032598697
0.032601344
0.032605145
0.032610307
0.032616681
0.032624072
0.032632122
0.03264039
0.032648515
0.032656345
0.032663888
0.032671224
0.032678465
0.032685693
0.032692953
0.032729292
0.032721931
0.032714683
0.03270753
0.03270043
0.032693327
0.032686187
0.032679039
0.032672017
0.032665374
0.03265939
0.032654289
0.03265017
0.032647172
0.03264508
0.032643887
0.032643107
0.032690582
0.03269116
0.032692007
0.032693624
0.032695916
0.032699103
0.032703044
0.032707707
0.032712974
0.032718691
0.032724704
0.032730912
0.03273728
0.032743815
0.032750539
0.032757472
0.032764619
0.03287467
0.032872917
0.0328699
0.032866082
0.032861284
0.032855841
0.032849684
0.032842987
0.032835899
0.032828597
0.03282124
0.032813958
0.032806846
0.032799969
0.032793373
0.032787073
0.032781068
0.032775348
0.032769906
0.032764746
0.032759902
0.032755431
0.032751412
0.032747907
0.032744965
0.032742561
0.032740858
0.03273962
0.03273906
0.032738647
0.032787409
0.032787695
0.032788025
0.032788981
0.032790218
0.032792
0.032794133
0.032796682
0.032799639
0.032803002
0.032806746
0.032810847
0.032815284
0.032820054
0.03282516
0.032830606
0.032836394
0.032842511
0.032848925
0.032855586
0.032862417
0.032869301
0.032876085
0.032882592
0.032888668
0.0328941
0.03289895
0.032902805
0.032905923
0.032907748
0.032939453
0.032937654
0.032934582
0.032930906
0.032926265
0.03292115
0.032915481
0.032909499
0.032903351
0.032897201
0.032891182
0.032885391
0.032879891
0.032874716
0.032869886
0.032865404
0.032861268
0.03285747
0.032854007
0.032850881
0.032848098
0.032845659
0.032843558
0.032841761
0.032840256
0.032838943
0.032838057
0.032837294
0.032837143
0.032836946
0.032887308
0.032887449
0.032887463
0.032888111
0.03288874
0.032889715
0.032890752
0.032891982
0.032893425
0.03289513
0.032897123
0.032899416
0.032902009
0.032904905
0.03290811
0.03291163
0.032915472
0.032919638
0.032924122
0.032928903
0.032933937
0.032939148
0.03294443
0.03294963
0.03295462
0.032959135
0.032963306
0.03296657
0.03296943
0.032971084
0.033004057
0.033002646
0.033000128
0.032997452
0.032993933
0.032990205
0.032986067
0.0329818
0.032977506
0.032973316
0.032969315
0.032965559
0.032962076
0.032958874
0.032955954
0.032953308
0.032950928
0.032948807
0.032946939
0.032945319
0.032943943
0.032942793
0.032941839
0.032941021
0.032940323
0.032939581
0.032939136
0.03293854
0.032938631
0.032938516
0.032990572
0.032990689
0.032990514
0.032991107
0.032991421
0.032992011
0.032992466
0.032992994
0.032993598
0.032994342
0.032995256
0.032996359
0.032997657
0.032999151
0.033000849
0.033002756
0.033004881
0.033007233
0.033009817
0.03301263
0.033015659
0.033018863
0.033022178
0.033025489
0.033028726
0.033031592
0.033034376
0.033036364
0.033038469
0.033039569
0.033078427
0.03307766
0.03307597
0.033074678
0.033072608
0.033070571
0.033068174
0.03306574
0.033063305
0.03306097
0.033058782
0.03305677
0.033054938
0.033053285
0.033051803
0.033050484
0.03304932
0.033048306
0.033047439
0.033046715
0.033046134
0.033045676
0.033045317
0.033044989
0.033044704
0.03304421
0.03304399
0.033043364
0.033043608
0.033043464
0.033097165
0.033097359
0.033097059
0.033097745
0.033097894
0.033098332
0.033098495
0.033098688
0.03309888
0.033099142
0.033099493
0.033099947
0.033100505
0.033101166
0.033101932
0.033102807
0.033103796
0.033104907
0.033106146
0.03310752
0.03310903
0.033110654
0.033112362
0.033114059
0.033115744
0.033117061
0.033118511
0.033119166
0.033120488
0.033120934
0.033166952
0.033166795
0.033165775
0.033165661
0.033164702
0.033163963
0.033162833
0.033161711
0.033160565
0.033159485
0.033158491
0.033157597
0.033156798
0.033156087
0.033155458
0.033154904
0.033154422
0.03315401
0.033153667
0.033153395
0.033153199
0.033153068
0.033152987
0.033152883
0.033152808
0.0331524
0.033152305
0.033151538
0.033151878
0.033151612
0.033206641
0.033207009
0.033206659
0.03320752
0.033207576
0.033207973
0.033207985
0.033208033
0.033208041
0.03320809
0.033208186
0.033208337
0.033208537
0.033208782
0.03320907
0.033209402
0.033209781
0.033210211
0.033210698
0.03321125
0.033211873
0.033212559
0.033213297
0.033213998
0.033214725
0.033215032
0.033215627
0.033215309
0.033216084
0.03321598
0.03326719
0.033267549
0.033266994
0.033267637
0.033267301
0.033267295
0.033266845
0.033266435
0.033265976
0.03326556
0.033265189
0.033264869
0.033264591
0.033264348
0.033264135
0.033263948
0.033263787
0.03326365
0.033263541
0.033263464
0.033263429
0.033263429
0.033263464
0.033263449
0.033263478
0.033263083
0.033263045
0.03326209
0.033262396
0.033261881
0.033316688
0.033317365
0.033317175
0.033318191
0.033318242
0.033318634
0.033318587
0.033318587
0.03331853
0.033318504
0.033318506
0.03331854
0.033318594
0.033318665
0.033318749
0.033318846
0.033318956
0.033319082
0.033319228
0.0333194
0.033319609
0.033319851
0.033320128
0.033320349
0.033320616
0.033320433
0.033320579
0.033319727
0.033320052
0.033319462
0.033371268
0.033371129
0.033319176
0.033267017
0.033216046
0.033167328
0.033121692
0.033079694
0.033041539
0.033006969
0.03297518
0.032944933
0.032914752
0.032883275
0.014366782
0.0144342
0.01450283
0.014572686
0.014644148
0.014716918
0.014791308
0.014867087
0.014944516
0.015023234
0.01510317
0.015183978
0.015265764
0.015347427
0.015428411
0.015506676
0.015579913
0.015643329
0.015693117
0.015715433
0.015703914
0.015639524
0.015539211
0.015357196
0.01518841
0.0094284972
0.011273431
0.0060294868
0.0057812885
0.0061239448
0.0029937062
0.0027167241
0.0034749269
0.0041955275
0.0045267079
0.0050037255
0.0095907571
0.011762018
0.0097404791
0.015686219
0.015873137
0.01587197
0.01582052
0.015755197
0.015682187
0.015610669
0.015535535
0.015460863
0.015384751
0.015309147
0.015233321
0.015158237
0.015083559
0.015009985
0.014937151
0.014865349
0.014794177
0.014724148
0.014654842
0.014586683
0.014519357
0.014453296
0.014388125
0.014323995
0.014304037
0.014365134
0.014426547
0.014489317
0.014552516
0.014617061
0.014681711
0.01474768
0.014813465
0.014880653
0.014947246
0.015015603
0.015083169
0.015152304
0.015220262
0.015289066
0.015356492
0.015421833
0.015485669
0.015542382
0.015596479
0.015630545
0.015626499
0.01556517
0.015282615
0.012733779
0.013453986
0.0071631455
0.005296626
0.009391671
0.013385
0.01388452
0.01425562
0.014544928
0.014753589
0.014893635
0.01496712
0.01500368
0.015015001
0.015002448
0.014985191
0.014947996
0.014916023
0.014865994
0.014826879
0.014772625
0.014729685
0.014674082
0.014627935
0.01457224
0.014524659
0.014469738
0.014421909
0.014368309
0.014320673
0.014268684
0.032315809
0.032352885
0.032391695
0.03243185
0.032472684
0.032513318
0.032552517
0.0325893
0.0326232
0.032655233
0.032687513
0.032721963
0.032759638
0.032800784
0.032845112
0.03289212
0.03294129
0.032992182
0.033044454
0.033097854
0.033152176
0.033207163
0.033262361
0.033317154
0.033370184
0.033420799
0.03346754
0.033467715
0.033420418
0.033369683
0.033316483
0.033261751
0.033206593
0.033151672
0.033097413
0.033044067
0.032991838
0.032940966
0.032891771
0.032844668
0.032800142
0.032758664
0.032720496
0.032685403
0.032652403
0.032619706
0.032585321
0.032548234
0.032508848
0.032468101
0.03242717
0.032386916
0.032347989
0.032310771
0.03230022
0.032284084
0.032264258
0.032244094
0.032226424
0.032212436
0.032202134
0.03219495
0.032190091
0.032186846
0.032184783
0.032228646
0.03223052
0.032233441
0.032237834
0.032244399
0.032253932
0.032267018
0.032283728
0.032302993
0.032322104
0.032337746
0.032376925
0.032361682
0.032343147
0.032324623
0.032308717
0.0322964
0.032287534
0.032281514
0.032277538
0.032274913
0.032273214
0.032318386
0.032319925
0.03232228
0.03232588
0.032331412
0.032339686
0.032351324
0.032366522
0.032384408
0.032402464
0.032417387
0.032458506
0.032443872
0.032426284
0.032409034
0.032394537
0.03238356
0.032375849
0.032370775
0.032367526
0.032365427
0.032364042
0.032410049
0.032411284
0.03241313
0.03241603
0.032420635
0.032427748
0.032437993
0.032451675
0.032468152
0.032485157
0.032499457
0.032539184
0.032525456
0.032509362
0.03249398
0.032481365
0.032472015
0.032465591
0.032461496
0.032458958
0.032457367
0.032456281
0.032502674
0.032503608
0.032504936
0.032507093
0.032510623
0.032516241
0.032524484
0.03253569
0.032549511
0.032564163
0.032576872
0.032612278
0.032601209
0.032588627
0.03257686
0.03256739
0.032560451
0.032555739
0.032552819
0.032551056
0.032549997
0.032549219
0.032595976
0.032596601
0.032597392
0.032598764
0.03260106
0.032604824
0.032610366
0.032617923
0.032627347
0.032637438
0.032646387
0.032680922
0.032674189
0.032666623
0.032659521
0.032653832
0.032649641
0.03264678
0.032645073
0.032644064
0.032643527
0.032643048
0.032690568
0.032690915
0.032691224
0.032691922
0.032693116
0.032695187
0.032698193
0.032702236
0.032707293
0.032712625
0.032717394
0.032756644
0.032753414
0.032749857
0.032746432
0.032743718
0.032741674
0.032740244
0.03273947
0.032739017
0.032738903
0.032738668
0.032787458
0.032787601
0.032787551
0.032787828
0.032788285
0.032789237
0.032790556
0.032792273
0.032794496
0.032796751
0.032798889
0.032843917
0.032842492
0.032841136
0.032839743
0.032838731
0.032837924
0.032837305
0.032837072
0.032836905
0.032837087
0.032837016
0.032887391
0.032887409
0.032887119
0.032887234
0.032887319
0.032887726
0.032888193
0.032888729
0.032889579
0.032890335
0.03289133
0.032940707
0.032939948
0.032939585
0.032939075
0.032938849
0.032938597
0.032938312
0.032938316
0.032938207
0.032938587
0.032938605
0.032990659
0.032990621
0.032990161
0.032990301
0.032990247
0.032990475
0.032990599
0.032990626
0.032990934
0.032991032
0.032991683
0.033043974
0.03304335
0.03304344
0.033043247
0.033043349
0.033043296
0.033043082
0.033043161
0.033042961
0.033043497
0.03304354
0.033097219
0.033097183
0.033096576
0.033096857
0.033096768
0.033096994
0.033097011
0.033096824
0.033096956
0.033096717
0.03309736
0.033151653
0.033150973
0.033151341
0.033151242
0.033151488
0.033151487
0.033151234
0.033151323
0.033150945
0.033151613
0.033151629
0.033206606
0.033206628
0.033205925
0.033206412
0.033206332
0.033206617
0.033206613
0.033206323
0.0332064
0.033205912
0.033206618
0.033261857
0.033261168
0.033261766
0.033261713
0.033262034
0.033262038
0.033261723
0.033261782
0.033261187
0.033261878
0.033261775
0.033316502
0.033316699
0.033316091
0.033316765
0.033316748
0.033317081
0.033317078
0.033316741
0.033316753
0.033316077
0.033316683
0.033370053
0.033369634
0.033370318
0.033370378
0.033370707
0.033370708
0.033370381
0.033370325
0.03336964
0.033370062
0.033369693
0.033420421
0.033420801
0.033420668
0.033421236
0.03342141
0.033421685
0.033421685
0.033421409
0.033421234
0.033420666
0.033420797
0.033467988
0.03346831
0.033468551
0.033468897
0.033469035
0.033469035
0.033468897
0.033468551
0.03346831
0.033467989
0.033467715
0.033468293
0.033468907
0.03346978
0.033470306
0.033470778
0.03347091
0.033470928
0.033470865
0.033470802
0.033470762
0.033470744
0.03347074
0.033470743
0.033470749
0.033470756
0.033470763
0.03347077
0.033470779
0.03347079
0.033470809
0.033470841
0.033470897
0.033470975
0.033471053
0.03347105
0.033470932
0.033470473
0.033469961
0.033422712
0.033371919
0.03331926
0.033319148
0.033266783
0.033215695
0.033166871
0.033121071
0.033078835
0.033040388
0.033005517
0.032973474
0.032943067
0.032912845
0.032881428
0.01400963
0.014008414
0.014000877
0.013984859
0.013959328
0.013923644
0.013880576
0.013837266
0.013820713
0.013847619
0.013985456
0.014337238
0.0072960035
0.0040247121
0.0048013513
0.006113819
0.0085137464
0.013433617
0.015833269
0.025947446
0.032993721
0.032937415
0.032935995
0.032963377
0.033004154
0.033051493
0.033102365
0.033155342
0.033209634
0.033264592
0.033319384
0.033372834
0.033374765
0.033380906
0.033391202
0.033343356
0.033294209
0.033244899
0.033196331
0.033149397
0.033105407
0.033066884
0.033039211
0.033034552
0.033076898
0.030477841
0.019858702
0.012337365
0.0084814654
0.0051979336
0.0034449143
0.00233538
0.0025923978
0.0026138012
0.0023111077
0.0028381419
0.0021456444
0.0025300513
0.0024416451
0.0024422667
0.0025256012
0.0018766906
0.0027154239
0.0018249525
0.0020608296
0.0036072752
0.0055728337
0.012901998
0.01339085
0.013706722
0.01392403
0.014224276
0.014315328
0.014502298
0.014655561
0.014791703
0.014913862
0.015028257
0.01513187
0.015222425
0.015302194
0.015373414
0.015433743
0.01563832
0.015583276
0.015652109
0.015716068
0.015785438
0.015831331
0.015881186
0.015938683
0.016064315
0.015230498
0.015151771
0.015072144
0.015048716
0.01503279
0.015025481
0.01506147
0.014973228
0.014943525
0.014905441
0.014866844
0.014822996
0.014774453
0.014717908
0.014650932
0.014570809
0.01447305
0.01434651
0.014205797
0.014030701
0.0137455
0.013391881
0.013039693
0.012321822
0.0092140294
0.0055301735
0.0025132947
0.0024247304
0.0035479092
0.0028474217
0.0027429052
0.0024073604
0.001950592
0.0019654795
0.0014792995
0.0016965236
0.0023613965
0.0021384633
0.0012921257
0.0010003191
0.0022182788
0.0020288317
0.0028550941
0.0022056753
0.0035070961
0.0037922228
0.0062340921
0.012116117
0.012926651
0.013355275
0.013631842
0.014057879
0.01426127
0.014432377
0.014580022
0.014710291
0.014827383
0.014930521
0.015018844
0.015092845
0.015158751
0.015216921
0.015265821
0.015480808
0.01539948
0.0154556
0.015514614
0.015552758
0.015595095
0.015638771
0.015690229
0.014723196
0.014739136
0.014828332
0.014915321
0.015095686
0.015300204
0.015607522
0.016005316
0.016515609
0.017198411
0.014578495
0.0095165794
0.0071811103
0.0067440985
0.0069086768
0.009360656
0.015374503
0.023328864
0.033009405
0.032929958
0.032906423
0.032921396
0.03295578
0.032999703
0.033048616
0.033100378
0.033153921
0.033208607
0.033263858
0.033318874
0.033372497
0.033372466
0.033318808
0.033263716
0.033208338
0.033153447
0.033099568
0.033047204
0.032997126
0.032950764
0.032910945
0.032883331
0.032879058
0.032915688
0.032998952
0.025390994
0.019683868
0.014737717
0.011395985
0.010158263
0.010606315
0.012482157
0.015780099
0.020349064
0.02371286
0.022492144
0.022140366
0.021175886
0.0210042
0.020227679
0.020174899
0.019523434
0.019562123
0.024118914
0.025240173
0.026584674
0.028130856
0.029830599
0.02313995
0.018615539
0.031535175
0.032067257
0.032950433
0.032880745
0.032845224
0.032844839
0.032867473
0.032903431
0.032947021
0.032995116
0.033046009
0.033098764
0.033152832
0.033207815
0.033263238
0.033318359
0.033372056
0.033371915
0.03331826
0.033263135
0.033207664
0.033152588
0.033098352
0.033045289
0.032993797
0.032944499
0.032898441
0.032857368
0.032824144
0.032803252
0.032800896
0.032822175
0.032862557
0.032902958
0.03292182
0.032970163
0.032745453
0.032410521
0.032013393
0.031588588
0.031125739
0.030663651
0.030202072
0.032328935
0.032469276
0.032594384
0.032701684
0.032790638
0.032861325
0.032907387
0.032743217
0.032753267
0.032753333
0.032748301
0.032747714
0.032758072
0.032780228
0.032812058
0.032851025
0.032895027
0.032942539
0.032992529
0.033044322
0.033097485
0.033151716
0.033206735
0.033262132
0.033317208
0.033370892
0.033370852
0.033317369
0.0332624
0.033207033
0.03315198
0.033097658
0.033044336
0.032992267
0.032941777
0.032893342
0.032847639
0.03280557
0.032768222
0.032736652
0.032711384
0.032691479
0.032673864
0.032654161
0.032629955
0.032601528
0.03272353
0.032696067
0.032662644
0.032624542
0.032581997
0.032535164
0.032434839
0.032468595
0.032502625
0.03253669
0.032570031
0.032562221
0.032682503
0.032737865
0.031597711
0.025303487
0.018792017
0.01519044
0.014338099
0.014792888
0.015064711
0.015198691
0.015302082
0.015409961
0.015523032
0.015641116
0.015764966
0.015893974
0.016028878
0.01616985
0.016316486
0.016469103
0.01663073
0.016807111
0.017009406
0.017255776
0.016958222
0.013746533
0.0093259622
0.0097936159
0.0069982935
0.00824352
0.0090141871
0.0058111283
0.0089641103
0.0080179561
0.007332995
0.0077820351
0.0043608893
0.003437045
0.0030432774
0.0047905005
0.0077828213
0.012086884
0.020694522
0.033063016
0.032976162
0.032957547
0.03297714
0.033014143
0.033059315
0.033108723
0.03316057
0.033213905
0.033268009
0.033322024
0.033330061
0.033277967
0.033225792
0.033174416
0.033124634
0.033077559
0.033035337
0.033002642
0.032990384
0.033021728
0.031500586
0.018832845
0.010971875
0.012653827
0.008342947
0.0053344972
0.0037385708
0.0035023058
0.006192328
0.0067248873
0.0036761159
0.0029778646
0.0028851254
0.0030479598
0.0029396586
0.0035323983
0.0039955439
0.0033819859
0.0028120754
0.0031916844
0.0061723563