/*--------------------------------*- C++ -*----------------------------------*\
| =========                 |                                                 |
| \\      /  F ield         | OpenFOAM: The Open Source CFD Toolbox           |
|  \\    /   O peration     | Version:  v2012                                 |
|   \\  /    A nd           | Website:  www.openfoam.com                      |
|    \\/     M anipulation  |                                                 |
\*---------------------------------------------------------------------------*/
FoamFile
{
    version     2.0;
    format      ascii;
    class       surfaceScalarField;
    location    "158";
    object      phi;
}
// * * * * * * * * * * * * * * * * * * * * * * * * * * * * * * * * * * * * * //

dimensions      [0 3 -1 0 0 0 0];
oriented        oriented;


internalField   nonuniform List<scalar> 
43072
(
-0.00010936341
-0.010649002
-3.7761009e-05
0.00015585997
0.010618078
2.2188302e-05
-0.010081148
5.2170083e-05
0.0099343555
-1.4741216e-05
0.00010699366
3.8725422e-05
0.00014517035
-9.221373e-05
0.0096817187
5.3199304e-05
5.7999565e-05
0.010148177
-0.00025108387
7.9330034e-05
0.010708599
-3.5526078e-05
6.0079125e-05
0.01148938
-0.00019396814
4.799277e-05
0.011932236
-3.6024415e-05
4.8552069e-05
0.012316386
7.5002129e-07
5.3385452e-05
0.012420582
3.7470994e-05
5.3403613e-05
0.012420563
0.00019527145
4.8609549e-05
0.012316431
3.6622192e-05
4.809562e-05
0.011932338
0.00025194298
6.0223287e-05
0.01148952
-5.2604641e-05
7.9499021e-05
0.010708768
9.2520847e-05
5.8165591e-05
0.010148368
-0.00010686638
0.0096819461
3.8959167e-05
0.010081402
0.00014487786
-0.00028243843
0.010510374
0.00021862267
-4.2173445e-05
0.011146272
0.00024253101
-0.00020092621
0.011414503
0.0002482023
-2.604615e-05
0.011642982
0.00024959725
-3.4532235e-05
0.011601759
0.00024450468
1.5298147e-05
0.011539538
0.000237135
1.5148975e-05
0.01144464
0.00022960243
1.3022312e-05
0.011377204
0.00022464684
6.0034125e-06
0.011334558
0.00022175541
1.9679712e-06
0.011313205
0.00022030614
-4.3367719e-07
0.011303458
0.0002196295
-1.4834852e-06
0.011299602
0.00021933394
-1.8522706e-06
0.011298256
0.00021920005
-1.9614076e-06
0.011297877
0.00021912711
-2.0504138e-06
0.011297886
0.00021908039
-2.3751716e-06
0.01129838
0.00021906251
-3.3623798e-06
0.011299823
0.00021910574
-5.6742962e-06
0.011303759
0.00021930877
-9.594058e-06
0.011313584
0.00021989088
-1.6465048e-05
0.011335009
0.00022124482
-1.8405778e-05
0.011377724
0.0002240405
-1.8326146e-05
0.011445225
0.00022889963
3.1777297e-05
0.011540186
0.00023633678
2.3612331e-05
0.011602462
0.00024361328
0.00019884887
0.01164374
0.00024862551
4.0492295e-05
0.011415284
0.00024716992
0.0002811624
0.011147075
0.00024147571
-3.9819327e-05
0.010511147
0.00021757944
0.00010642157
0.010082164
0.00014385087
-9.354834e-05
0.0096826503
5.0644625e-05
0.010148905
5.8604324e-05
-0.00025479778
0.010709253
7.9949495e-05
-4.0308629e-05
0.011489909
6.0693451e-05
-0.00019961686
0.011932535
4.8568521e-05
-4.2146526e-05
0.012316307
4.9039252e-05
-5.3275622e-06
0.012420026
5.3749191e-05
3.2090521e-05
0.012419589
5.3598848e-05
0.00019082677
0.012315325
4.8592466e-05
3.3292828e-05
0.011931219
4.7792357e-05
0.00024924721
0.011489097
5.9572508e-05
-5.4276696e-05
0.010708093
7.8635829e-05
9.1467375e-05
0.010147893
5.7474749e-05
-0.00010708588
0.0096805408
3.8184308e-05
0.010080985
0.00014538053
-0.00028312954
0.01050952
0.00021890578
-4.2839937e-05
0.011145313
0.00024298724
-0.00020066579
0.011412414
0.00024896213
-2.4621139e-05
0.011640496
0.00025056847
-3.1768281e-05
0.011599022
0.00024560364
1.920916e-05
0.011536952
0.00023831332
1.992607e-05
0.011442309
0.0002308326
1.8383765e-05
0.011375139
0.0002259065
1.1736112e-05
0.011332712
0.00022302713
7.9223298e-06
0.011311532
0.00022157699
5.6282695e-06
0.011301927
0.00022089096
4.5887691e-06
0.011298191
0.00022058067
4.1607994e-06
0.011296923
0.00022042921
3.9127103e-06
0.011296602
0.00022034017
3.6887976e-06
0.011296667
0.00022028468
3.1960018e-06
0.01129718
0.00022026193
2.0449436e-06
0.011298619
0.00022030466
-4.4188727e-07
0.011302555
0.0002205123
-4.561493e-06
0.011312387
0.00022110626
-1.1674144e-05
0.011333828
0.00022248024
-1.3906014e-05
0.011376565
0.00022530448
-1.4167427e-05
0.011444089
0.00023019886
3.5541045e-05
0.011539074
0.00023767372
2.6911764e-05
0.011601373
0.00024498879
0.00020162802
0.011642676
0.00025002694
4.2698199e-05
0.01141426
0.00024856777
0.00028279901
0.01114604
0.0002428295
0.01051013
0.00021889801
-3.7311087e-05
0.010454984
0.00014462729
-2.3131698e-05
0.010982823
0.00014903697
-8.6060894e-05
0.011330924
0.00014626477
-5.29299e-05
0.011466271
0.00014327313
-4.6288091e-05
0.011455186
0.00013954574
-2.3427781e-05
0.011380562
0.00013565107
-1.3714809e-05
0.011302646
0.00013172993
-9.2929426e-06
0.011242963
0.00012918062
-9.1459166e-06
0.011206103
0.00012757881
-9.9072324e-06
0.011186396
0.00012675167
-1.0827082e-05
0.01117708
0.00012639423
-1.1570663e-05
0.011173042
0.00012632002
-1.215687e-05
0.011171373
0.00012639317
-1.2689256e-05
0.011170656
0.0001265434
-1.3004884e-05
0.011170173
0.00012674465
-1.3516273e-05
0.011170432
0.00012700219
-1.4082561e-05
0.011171417
0.00012733997
-1.46673e-05
0.011174687
0.00012782504
-1.4867904e-05
0.011183135
0.00012859769
-1.3828311e-05
0.011201829
0.00012984316
-8.045187e-06
0.011237488
0.00013186838
3.63054e-06
0.011295779
0.00013485374
2.913385e-05
0.011372216
0.00013923188
3.8965037e-05
0.011445579
0.00014361199
7.5603003e-05
0.011456064
0.0001477941
1.5744353e-05
0.011321175
0.00015109804
3.2657412e-05
0.010974558
0.0001538419
-5.5219615e-05
0.010448369
0.00014902727
-1.6221172e-05
0.0099288404
0.0001131462
0.0096240626
4.0256947e-05
0.00955569
2.1981309e-05
4.63913e-05
0.0095364483
-2.5371023e-06
2.1778822e-05
0.0095234333
-7.6542118e-06
2.066927e-05
0.0094944597
-6.607738e-06
3.5581328e-05
0.0093873981
1.8943551e-05
8.8117977e-05
0.0090226297
0.00011945692
0.00024531154
0.00048212454
0.00070286828
-0.010256448
-1.6739697e-05
3.4860744e-05
1.2315811e-06
-0.010270195
-9.5250197e-06
2.0108899e-05
3.1634616e-06
-0.010277389
-1.3233123e-06
3.1939076e-06
5.3230773e-06
-0.010277102
7.4573793e-06
-1.5390329e-05
7.6467279e-06
-0.01026856
1.7246731e-05
-3.5900514e-05
1.0111571e-05
-0.010251534
2.8064392e-05
-5.7878493e-05
1.2788062e-05
-0.010225979
3.8125443e-05
-7.9062809e-05
1.5381951e-05
-0.010192963
4.6839702e-05
-9.7643801e-05
1.7788071e-05
-0.010155858
5.2167086e-05
-0.00010891658
1.9644407e-05
-0.010119187
5.3074702e-05
-0.00011019179
2.0446368e-05
-0.010086204
5.0295798e-05
-0.00010339649
2.0117806e-05
-0.010058423
4.5301911e-05
-9.1957332e-05
1.8874667e-05
-0.010035754
3.9478105e-05
-7.9254102e-05
1.7106155e-05
-0.010017232
3.3864385e-05
-6.754238e-05
1.5156219e-05
-0.010001772
2.894302e-05
-5.7638911e-05
1.3236181e-05
-0.0099885598
2.4785956e-05
-4.9424824e-05
1.142663e-05
-0.0099770392
2.1307007e-05
-4.2559284e-05
9.7316822e-06
-0.0099668018
1.8475307e-05
-3.6868591e-05
8.1558371e-06
-0.0099575616
1.6344279e-05
-3.2400704e-05
6.8163112e-06
-0.0099493059
1.4889397e-05
-2.9204333e-05
6.059154e-06
-0.0099423745
1.3306645e-05
-2.7301948e-05
7.0639558e-06
-0.0099379005
1.3064085e-05
-2.6404275e-05
8.866178e-06
-0.009933901
1.0463708e-05
-2.4701539e-05
1.0238358e-05
-0.0099204158
9.617541e-06
-2.1770503e-05
-1.3322207e-06
-0.0099079111
4.2436369e-06
-7.8280056e-06
-8.9203323e-06
2.2100033e-05
-1.9839167e-05
2.4183498e-05
4.5727072e-06
0.010458704
1.3807265e-05
-2.0794487e-05
0.011005834
2.3563938e-06
-4.207203e-05
0.011356482
-4.280008e-06
-4.9786004e-05
0.011480801
-6.8150721e-06
-4.4872452e-05
0.01145858
-8.3075086e-06
-3.6158262e-05
0.011381547
-9.6989545e-06
-2.7813775e-05
0.011305255
-1.0952659e-05
-2.2918653e-05
0.011249764
-1.1695875e-05
-2.0894659e-05
0.011216122
-1.2043844e-05
-2.0603637e-05
0.011198221
-1.211551e-05
-2.1093355e-05
0.011189581
-1.2011121e-05
-2.188013e-05
0.011185618
-1.1789073e-05
-2.2750762e-05
0.011183732
-1.1488465e-05
-2.3629905e-05
0.011182664
-1.1129321e-05
-2.4648159e-05
0.011181911
-1.0719706e-05
-2.5388131e-05
0.011181431
-1.0258377e-05
-2.5877918e-05
0.011181639
-9.7316532e-06
-2.5618287e-05
0.011183539
-9.1123482e-06
-2.4336896e-05
0.011190209
-8.3562928e-06
-2.0685492e-05
0.011205577
-7.3996807e-06
-1.3266682e-05
0.011236203
-6.1337721e-06
-1.2434154e-06
0.011288184
-4.4276175e-06
1.2431964e-05
0.011360693
-2.1515171e-06
2.3413937e-05
0.011434263
3.3407664e-07
2.2241014e-05
0.011454333
2.9038838e-06
7.0344147e-06
0.011330154
6.2271935e-06
-1.3427266e-05
0.010982173
1.2847048e-05
-2.72639e-05
0.010438921
2.3285073e-05
0.0098912733
3.2284524e-05
0.0098865979
-2.0402309e-06
4.1784923e-06
0.0098729149
-1.5604101e-05
2.1632854e-05
0.0098263526
-1.179867e-05
5.1753283e-05
0.0097144338
2.682472e-05
0.00010403765
0.0094221556
0.00016441412
0.00024732096
0.00051266655
0.00073170691
-0.00072746797
0.0002436276
0.00013242984
-0.00031720187
-0.0010814205
3.2583782e-05
0.0002936465
2.772227e-05
-0.00073068532
-1.5689195e-05
-0.00031330991
-2.1736108e-05
-0.00068088069
-0.00021224757
0.0002783289
-0.00011588596
-0.00067889903
-0.00026549155
0.0011043422
-0.00084083226
-0.00077570422
5.9591398e-05
-5.1529082e-05
8.8742878e-05
-0.00087387391
1.6597872e-05
2.6057487e-05
5.5514336e-05
-0.00095879422
6.2061136e-05
2.0575074e-05
2.284094e-06
-0.00077129686
-0.00018412216
-4.7826124e-05
4.4450927e-05
-0.00032971218
0.00031822327
-0.00042825546
-0.00033155249
-0.00054013987
-2.5316559e-05
8.3643742e-05
0.0001521005
-0.00063888616
-2.9382518e-05
3.5483942e-05
9.2644867e-05
-0.00071625627
-2.2845122e-05
3.2970724e-05
6.7244512e-05
-0.00077244182
-1.8583656e-05
2.4799608e-05
4.9969597e-05
-0.00082053168
-1.691972e-05
2.5676235e-05
3.9333338e-05
-0.00087040073
-1.7207185e-05
2.9385441e-05
3.7690801e-05
-0.00092272102
-2.1190135e-05
3.4427919e-05
3.9082506e-05
-0.00098066474
-2.6024851e-05
4.4294724e-05
3.967384e-05
-0.0010362963
-1.0573845e-05
5.8181396e-05
8.0239824e-06
-0.00087703772
-0.00033227445
5.8084264e-05
0.00011493164
-0.00056649597
0.00028448501
-5.169765e-05
-0.00054332911
-0.0006937016
-7.1615256e-05
3.3055915e-05
0.00016576497
-0.00080795314
-4.9462841e-05
4.4643281e-05
0.00011907111
-0.00083207762
-1.991115e-05
1.3577557e-05
3.0458068e-05
-0.00025467385
2.226581e-05
-0.00035710995
-0.00024255963
-0.00046074899
-4.2142236e-05
7.3446362e-05
0.00017477102
-0.00041327067
-0.0001018399
2.4785669e-05
2.9575904e-05
-0.00015683664
-0.00018664754
-6.9786488e-05
-0.0001079229
-1.6016933e-05
-3.2896812e-05
-0.00021022889
7.3606413e-05
2.8083119e-06
2.589127e-05
-0.00026431912
4.1492382e-05
-4.3435869e-05
5.6033715e-05
-0.00023194244
1.3610404e-05
-5.8731116e-05
1.2744037e-05
0.00049535925
-0.001028892
-0.00014140807
0.00044299835
0.00034982919
0.00016651089
-7.3704247e-06
0.00036967231
-1.3749073e-05
3.5398327e-05
0.00024445064
1.218055e-05
-0.0006700195
0.00015226276
0.00058339685
0.00017881052
-0.0023620215
0.00011166731
0.00079666419
0.00093643234
-0.0028359118
0.00016181139
0.00058759633
-0.00027551741
-0.0031639381
0.00018899141
-0.00020792063
0.00034695547
-0.0040499575
0.00024432512
-0.00017146459
0.00081315893
-0.010027728
0.00035973368
0.0038762358
-0.00048744463
0.0022292451
-0.010586857
0.00025083586
-0.00033215969
0.00064045371
-0.010846301
0.00018851993
-0.00018063135
0.00025155475
-0.010976919
0.00015591218
-0.00015377408
0.00012848052
-0.011050962
0.00014156729
-0.00014301839
7.5493447e-05
-0.011099304
0.00013000594
-0.00013138402
4.9720816e-05
-0.011133415
0.00011830781
-0.00011985679
3.5659967e-05
-0.011159252
0.00010543648
-0.00010745835
2.7858493e-05
-0.011182476
9.1550944e-05
-9.3805866e-05
2.5479078e-05
-0.011208115
7.687682e-05
-7.916689e-05
2.7928811e-05
-0.011231598
6.1810626e-05
-6.3812816e-05
2.5485069e-05
-0.011229289
4.6797571e-05
-4.8341657e-05
-7.6435198e-07
-3.3669096e-05
3.2861541e-05
-3.8900601e-05
-3.4861063e-05
0.011225184
-3.8373937e-05
-3.6176161e-05
0.011222844
-3.7796903e-05
-3.7505847e-05
0.011221158
-3.7163653e-05
-3.876844e-05
0.011219642
-3.6467999e-05
-3.9849705e-05
0.011218216
-3.5704466e-05
-4.0554805e-05
0.011217206
-3.4862561e-05
-4.0703381e-05
0.011217622
-3.3934536e-05
-3.9296349e-05
0.011221715
-3.2912421e-05
-3.5525183e-05
0.011233573
-3.1766689e-05
-2.8754326e-05
0.011259871
-3.0439017e-05
-1.8805845e-05
0.011307078
-2.8842854e-05
-7.2826366e-06
0.011376093
-2.6923211e-05
2.9325635e-06
0.011448803
-2.4755995e-05
8.7332387e-06
0.011471137
-2.2604695e-05
8.8961033e-06
0.011350417
-2.0426389e-05
5.7652327e-06
0.011001987
-1.6683119e-05
0.010451594
-8.9475833e-06
0.010430506
-1.8893554e-05
2.4376846e-05
0.010373537
-1.9197898e-05
6.4368856e-05
0.01027811
7.0531339e-06
0.00011519828
0.01011016
8.9870935e-05
0.00024249252
0.00022967321
0.00068847873
-0.0096901664
0.00085411948
0.00054378011
-0.009929042
0.00035405519
0.00013013195
-0.010019566
0.00014421086
3.4430686e-05
-0.010056279
6.4145233e-05
8.1496423e-06
-0.010061331
3.8413097e-05
-1.2691994e-05
-0.010048122
4.4837959e-05
-3.6268144e-05
-0.010051908
7.5378885e-05
-2.5201989e-05
9.7052915e-05
3.9189199e-05
2.8094839e-05
0.010754397
2.2653854e-05
4.1267557e-05
0.011486846
-1.0921549e-05
-2.2349123e-05
0.012027021
-3.218506e-05
6.1584585e-06
0.012325209
-3.8391055e-05
2.1089426e-05
0.012443004
-3.8346702e-05
3.4389209e-05
0.012445222
-3.8496114e-05
5.8755766e-05
0.012330765
-3.8824261e-05
-1.0754878e-05
0.012034797
-3.2751878e-05
-4.8361174e-06
0.011495354
-1.1363606e-05
-8.1082736e-05
0.010762906
2.2593305e-05
-3.2180254e-05
0.010060367
3.9636434e-05
0.0096338896
1.6580528e-05
0.0095791293
3.1536387e-05
2.3223825e-05
0.0095791255
-1.0542191e-06
1.0580772e-06
0.0095964786
-1.520088e-05
-2.1521904e-06
0.0096184253
-2.1330815e-05
-6.159026e-07
0.0096486631
-2.9426332e-05
-8.1154304e-07
0.0096814983
-3.4245348e-05
1.4101682e-06
0.0097197093
-4.0503772e-05
2.29285e-06
0.009762084
-4.5695245e-05
3.3204485e-06
0.0098087807
-5.0401804e-05
3.7051295e-06
0.0098594717
-5.4145182e-05
3.4542324e-06
0.009913117
-5.6347335e-05
2.7020505e-06
0.0099680746
-5.6547125e-05
1.5894555e-06
0.010022295
-5.4476808e-05
2.5657538e-07
-5.0143775e-05
-1.1742941e-06
-0.010566244
-0.00010354104
-1.4293511e-06
-0.010508428
-0.0001124436
1.5134462e-07
-0.01044999
-0.0001166273
1.6418688e-06
-0.010393189
-0.00011605819
2.9103488e-06
-0.010339885
-0.00011127958
3.8301702e-06
-0.010291368
-0.00010325072
4.3320506e-06
-0.010248346
-9.3186242e-05
4.4688527e-06
-0.010211301
-8.2119764e-05
4.5705443e-06
-0.01018051
-7.0976523e-05
5.9404934e-06
-0.010157116
-6.0358898e-05
7.5382676e-06
-0.01013722
-4.8462531e-05
7.236282e-06
-0.010107806
-3.3434519e-05
-1.1180192e-05
-0.010071478
-2.6923752e-06
-3.4690186e-05
4.5403262e-05
-2.4978363e-05
0.010845653
3.4085212e-05
-7.1428613e-05
0.010925122
-1.2904135e-05
-6.925728e-05
0.010961842
-5.1372239e-05
-1.8782553e-05
0.010977198
-7.5671271e-05
1.1853076e-05
0.010995362
-9.3347203e-05
1.4823674e-05
0.011023501
-0.00010950073
1.0385101e-05
0.01106011
-0.00012633772
7.6096422e-06
0.011103994
-0.00014365833
6.588076e-06
0.011154641
-0.00015994188
6.0443134e-06
0.011211251
-0.0001731846
5.2942888e-06
0.011272329
-0.00018126682
4.1309151e-06
0.011335686
-0.00018254735
2.563054e-06
0.011398718
-0.00017620405
7.2857912e-07
-0.00016233263
-1.2147078e-06
-0.01220845
-0.00022565175
-1.9742772e-06
-0.012140415
-0.00024471644
4.7805128e-07
-0.012072705
-0.00025311029
2.8526369e-06
-0.012008388
-0.00025048466
4.9003002e-06
-0.011950101
-0.00023788941
6.4182666e-06
-0.011899511
-0.00021793667
7.4043492e-06
-0.011857217
-0.00019412485
8.1733701e-06
-0.01182367
-0.00016949815
9.6134392e-06
-0.011800687
-0.00014590228
1.3417919e-05
-0.011790383
-0.00012312505
1.9474527e-05
-0.011783284
-9.8491845e-05
1.572086e-05
-0.011743329
-6.7674212e-05
-2.365307e-05
-0.011634027
-2.893195e-05
-9.3274005e-05
6.1357476e-06
-0.0001107238
0.012195724
-2.3226113e-05
-0.00013156494
0.012317672
-4.6590871e-05
-0.00010428889
0.012356332
-8.1330666e-05
-2.500435e-05
0.012354758
-0.00011512475
1.8207741e-05
0.012355233
-0.00014542379
2.1823326e-05
0.012369088
-0.00017465099
1.4893871e-05
0.012394212
-0.00020534936
1.0727424e-05
0.012429084
-0.00023824497
9.2479397e-06
0.012474154
-0.00027150702
8.5002407e-06
0.012529596
-0.00030062712
7.2961468e-06
0.012593534
-0.00031966078
5.2376851e-06
0.01266256
-0.0003245156
2.3794179e-06
0.012733129
-0.00031439893
-8.86921e-07
-0.00029062221
-3.8965876e-06
-0.012915458
-0.00035417646
-6.4382804e-06
-0.012846288
-0.00038103438
-2.5345105e-06
-0.012780284
-0.00039284132
2.3226204e-06
-0.012721371
-0.00038539464
6.8208187e-06
-0.012674943
-0.00035687949
9.8236976e-06
-0.012643578
-0.00031403292
1.1161549e-05
-0.012624838
-0.00026848664
1.1501078e-05
-0.012615391
-0.00022726292
1.246658e-05
-0.012615477
-0.00019095661
1.6391803e-05
-0.012626721
-0.00015760053
2.3421169e-05
-0.0126372
-0.000124573
1.992634e-05
-0.012603351
-9.0881844e-05
-2.4296933e-05
-0.012483862
-5.9468603e-05
-0.00010661178
-3.8823924e-05
-0.00013749929
0.012584562
-4.0552192e-05
-0.00013761227
0.012696261
-6.5224443e-05
-0.00010594281
0.012722635
-9.4319924e-05
-2.2935681e-05
0.012702063
-0.00012572304
2.172219e-05
0.012677048
-0.00015832207
2.5735728e-05
0.012658854
-0.00019237085
1.9608854e-05
0.012644943
-0.00023010698
1.6754721e-05
0.012637036
-0.00027744453
1.6865345e-05
0.012644788
-0.00033942157
1.7636603e-05
0.012676898
-0.00040572786
1.6738043e-05
0.012727462
-0.00044794441
1.1985544e-05
0.012784894
-0.00045365434
3.3808565e-06
0.012847885
-0.00043902592
-4.9988477e-06
-0.00041451537
-1.015911e-05
-0.012658794
-0.0004732177
-1.9928063e-05
-0.012604332
-0.00047969787
-1.3790009e-05
-0.012556066
-0.00050755157
5.6313469e-06
-0.012501582
-0.00053091893
2.8490234e-05
-0.012481533
-0.00046081059
3.503373e-05
-0.012510986
-0.00034155859
3.1590375e-05
-0.012557345
-0.00026002451
2.893844e-05
-0.012598111
-0.00021684514
2.7504298e-05
-0.012634238
-0.00018332273
2.7078615e-05
-0.012672722
-0.00014990642
3.0068487e-05
-0.01270394
-0.00011867568
2.4171218e-05
-0.012685512
-9.1276345e-05
-2.1472394e-05
-0.012579077
-6.6609387e-05
-0.00010505013
-3.947933e-05
-0.00013714512
0.012469119
-4.7211486e-05
-0.00013617833
0.012573282
-6.6744603e-05
-0.0001040272
0.01258476
-8.2806775e-05
-1.9947438e-05
0.012545158
-0.00010654167
2.7467646e-05
0.012498775
-0.00014142875
3.7905692e-05
0.012455298
-0.00018438669
4.4540906e-05
0.012400103
-0.00021861045
5.6959715e-05
0.012311694
-0.00023228023
6.0664835e-05
0.012219462
-0.00030618561
5.6859253e-05
0.012212881
-0.00054648436
9.2254923e-05
0.012288117
-0.00072058652
0.00011443125
0.012216123
-0.00045805853
2.250112e-05
0.012291304
-0.0005021059
-5.277305e-05
-0.00054279299
-4.9231872e-05
-0.011507232
-0.00020070401
-0.011223305
-0.00026272147
-0.0117219
-0.0002617861
-0.011507331
0.000844629
-0.011632903
0.00014719434
-0.011969299
0.0001207713
-0.012117437
-0.00027650158
0.0001923594
-0.012158425
-0.00032537151
0.00014774927
-0.01219199
-0.00022747312
7.6651471e-05
-0.01223757
-0.00014378403
4.7935301e-05
-0.012280238
-9.3839656e-05
2.9966257e-05
-0.012273926
-7.0372079e-05
-1.8747602e-05
-0.012174439
-6.5555522e-05
-0.00010067614
-6.4909181e-05
-0.00012971979
0.011609951
-7.8920752e-05
-0.00010909416
0.01169345
-5.8994552e-05
-9.0059596e-05
0.011696278
-5.5321914e-05
-1.7878474e-05
0.011655897
-8.1604725e-05
2.8146218e-05
0.011612557
-0.0001538962
5.3452464e-05
0.011581937
-0.00031107349
0.00011422036
0.011504902
-0.00057279989
0.00032446293
-0.001130948
0.001080344
-0.010472296
0.0024547544
-0.010687011
0.00049603408
-0.010778928
0.00013489923
-0.010836954
4.8341029e-05
-0.010874565
2.0150514e-05
-0.010875332
-1.6141397e-05
-0.010821537
-6.7951373e-05
-7.0682237e-05
4.8277855e-05
-0.011536226
0.011600158
-5.6798093e-05
-0.00012609381
2.3810735e-05
-0.012342902
0.012451296
-0.00019302105
1.0947354e-05
-0.012857871
0.012972663
-0.00023164842
2.0549755e-05
-0.013111408
0.0132108
-0.00024517287
4.419252e-05
-0.013205285
0.013292604
-0.00024810769
6.5101069e-05
-0.013207466
0.013298148
-0.00024920213
6.6797849e-05
-0.013117638
0.013226783
-0.00024834059
4.167574e-05
-0.012867346
0.012997206
-0.00023630287
1.8862422e-06
-0.012354363
-0.00019785697
0.012481285
-2.3552804e-05
-0.011547994
0.011631481
-0.00012947648
-1.6096059e-05
-0.010621127
-5.1345529e-05
0.010640037
2.8860164e-05
-0.0099378976
0.0099161652
1.4742415e-05
-0.010458642
5.3369899e-06
0.010467423
-7.2359842e-06
-0.010986606
0.011015011
-6.4261896e-06
-2.5366634e-05
-0.011334813
0.01136609
-1.3146183e-05
-3.0045296e-05
-0.011470269
0.011490532
-1.5584021e-05
-2.247633e-05
-0.011459283
0.011468597
-1.6882945e-05
-1.1438768e-05
-0.011384739
0.01139175
-1.804888e-05
-1.0820163e-06
-0.011306894
0.011315623
-1.9085312e-05
5.5432488e-06
-0.011247278
0.011260295
-1.964247e-05
9.0580355e-06
-0.011210488
0.011226816
-1.9843323e-05
1.0648378e-05
-0.011190845
0.011209064
-1.9809118e-05
1.1313977e-05
-0.011181576
0.011200551
-1.9640501e-05
1.1580744e-05
-0.011177572
0.011196702
-1.9397119e-05
1.1680391e-05
-0.011175942
0.011194962
-1.9119473e-05
1.1514585e-05
-0.011175141
0.011194139
-1.8832402e-05
1.1636407e-05
-0.011175172
0.011193596
-1.8546251e-05
1.1522557e-05
-0.011175493
0.011193864
-1.8257531e-05
1.1432802e-05
-0.011176802
0.011194849
-1.7956607e-05
1.1593661e-05
-0.011180505
0.011197964
-1.7620351e-05
1.2501702e-05
-0.01118949
0.011205788
-1.7205482e-05
1.512844e-05
-0.011208865
0.011222891
-1.6652336e-05
2.0636319e-05
-0.011245402
0.011255755
-1.5860881e-05
2.9625938e-05
-0.011304776
0.011310499
-1.4712589e-05
3.9033953e-05
-0.011382396
0.01138608
-1.3092168e-05
4.4706369e-05
-0.011456733
0.011462428
-1.1367517e-05
3.7874681e-05
-0.011467546
0.011483947
-9.5701322e-06
1.7363989e-05
-0.011331978
0.011359237
-6.7477451e-06
-7.1388315e-06
-0.010983732
0.011008094
1.4076784e-07
-2.3805344e-05
-0.010455818
0.010460661
1.1823586e-05
-2.069228e-05
-0.0099351406
0.0099096521
2.2375396e-05
-0.0096312429
0.0095728651
3.7685599e-05
1.518127e-05
3.552189e-05
5.303573e-05
0.00010840709
-3.6010827e-05
0.00014360268
-2.1373241e-05
0.00014790273
-8.3837256e-05
0.00014498862
-5.0257694e-05
0.00014185737
-4.3208372e-05
0.00013797732
-1.9977033e-05
0.00013391154
-9.9180396e-06
0.0001298051
-5.1684048e-06
0.00012705287
-4.7031921e-06
0.00012522731
-5.1435708e-06
0.00012415562
-5.7240127e-06
0.00012353328
-6.0982418e-06
0.0001231741
-6.275245e-06
0.00012294045
-6.3317606e-06
0.00012276164
-6.19848e-06
0.00012261207
-6.2543993e-06
0.00012249406
-6.4353241e-06
0.00012243174
-6.7444773e-06
0.00012249209
-6.8181756e-06
0.00012281288
-5.8775863e-06
0.00012358037
-5.3094743e-07
0.00012509941
1.0257033e-05
0.00012754342
3.4359054e-05
0.00013134501
4.2422092e-05
0.00013511567
7.7153741e-05
0.00013873871
1.5957024e-05
0.00014166758
3.1928038e-05
0.00014449792
-5.5777266e-05
0.00014021013
0.00010507
-0.01064975
0.00014745374
2.5876044e-05
1.3817776e-05
0.00014836063
-0.00018038918
0.00020901742
0.011316678
-0.00022910948
0.00021304355
0.011894417
-0.00026037962
0.00020006684
0.012245265
-0.00016442178
0.00018888195
0.012386159
-9.800534e-05
0.0001783295
0.01238519
-3.8435077e-05
0.00016800885
0.012313753
-1.0871794e-05
0.00015982681
0.012234514
9.1515264e-07
0.00015479136
0.01217004
3.5880328e-06
0.00015218297
0.012129246
3.5828768e-06
0.00015099003
0.012106945
2.947275e-06
0.00015051837
0.012096306
2.4736868e-06
0.00015038036
0.012091712
2.2254334e-06
0.00015038487
0.012089904
1.8740868e-06
0.00015044211
0.012089282
1.6970232e-06
0.00015052678
0.012089272
1.378202e-06
0.0001506339
0.01208983
8.2360124e-07
0.00015079767
0.01209155
8.7486744e-08
0.00015110456
0.012096082
-3.7297045e-08
0.0001517474
0.01210667
2.4888611e-06
0.00015311346
0.012128925
1.4093278e-05
0.00015589616
0.012169676
4.1432865e-05
0.0001611069
0.01223411
0.00010073612
0.00016946352
0.012313312
0.00016684076
0.00017995573
0.012384714
0.00026244739
0.00019066099
0.012385649
0.0002307837
0.00020196646
0.012244734
0.00018165023
0.00021499488
0.011893874
-1.2975755e-05
0.00021096054
0.011316135
0.0001502868
0.010649191
-3.048854e-05
-1.1420401e-05
0.011446083
-0.00024969305
2.6222632e-05
0.012285085
-0.00038935335
-9.3765474e-06
0.012937297
-0.00037989206
-4.7188834e-05
0.013295353
-0.00027701443
-6.9273608e-05
0.013417554
-0.00016282629
-8.1327015e-05
0.013402489
-8.0894287e-05
-8.9161762e-05
0.013330253
-3.4262175e-05
-9.4113956e-05
0.013252346
-1.2587636e-05
-9.662748e-05
0.013191543
-4.2038635e-06
-9.7660205e-05
0.013152594
-1.7068642e-06
-9.8032792e-05
0.013131061
-1.3102327e-06
-9.8189603e-05
0.013120518
-1.4717237e-06
-9.8296841e-05
0.013115881
-1.7003866e-06
-9.8400945e-05
0.013114051
-1.8823805e-06
-9.8513358e-05
0.013113438
-2.4204294e-06
-9.8634493e-05
0.013113451
-2.5587324e-06
-9.8766364e-05
0.013114131
-2.6259394e-06
-9.8903955e-05
0.013116049
-2.1205414e-06
-9.9040926e-05
0.013120746
5.0180302e-07
-9.9131117e-05
0.013131338
9.0362054e-06
-9.9008617e-05
0.013152913
3.0897333e-05
-9.8228303e-05
0.013191902
7.7759107e-05
-9.5968427e-05
0.01325274
0.00015996677
-9.1268907e-05
0.013330678
0.00027447605
-8.3681824e-05
0.013402944
0.00037772112
-7.1854334e-05
0.013418036
0.00038759307
-4.9947699e-05
0.01329585
0.00024837878
-1.2222466e-05
0.012937799
2.9618072e-05
2.3394399e-05
0.012285582
-1.4214701e-05
0.011446589
-9.804582e-05
-9.9471976e-05
0.012191913
-0.00036567605
-0.00015162949
0.013113634
-0.00052336124
-0.00021616916
0.013810128
-0.00049202674
-0.00026529616
0.014170104
-0.00035003662
-0.0002881395
0.014278675
-0.00020206958
-0.00029528014
0.014252394
-9.8077139e-05
-0.00029666609
0.014175397
-4.0055111e-05
-0.00029617321
0.014096544
-1.2881191e-05
-0.00029506236
0.01403687
-2.0200084e-06
-0.00029394966
0.013999278
1.5904186e-06
-0.00029310707
0.013978636
2.488636e-06
-0.00029255121
0.013968499
2.5685259e-06
-0.00029219474
0.013963977
2.4797277e-06
-0.000291949
0.013962117
2.1503283e-06
-0.00029175748
0.013961449
1.9550018e-06
-0.000291596
0.013961426
1.7793989e-06
-0.00029146958
0.013962023
1.7655368e-06
-0.00029139845
0.013963802
2.556243e-06
-0.00029143446
0.013968265
6.0385094e-06
-0.0002916648
0.013978353
1.6742747e-05
-0.00029217768
0.013998954
4.3719895e-05
-0.00029295684
0.014036509
0.00010149726
-0.00029373266
0.014096152
0.00020519359
-0.0002938922
0.014174978
0.00035281386
-0.00029217879
0.014251948
0.00049440842
-0.00028473611
0.014278204
0.00052529336
-0.00026165751
0.014169629
0.00036710835
-0.00021242159
0.013809677
9.8971827e-05
-0.00014793212
0.013113217
-9.5872773e-05
0.012191511
-0.00014648108
-0.00015635759
0.012716492
-0.00044601606
-0.00019720788
0.013652218
-0.00061166976
-0.00025883543
0.014352894
-0.00056272453
-0.00029992853
0.014707545
-0.00039433186
-0.00031620233
0.014809151
-0.00022515934
-0.00031822429
0.014777583
-0.00010909146
-0.00031554752
0.014697158
-4.599799e-05
-0.00031235891
0.014616597
-1.7304494e-05
-0.00030989078
0.014556596
-6.2627431e-06
-0.00030834015
0.014519385
-2.7913861e-06
-0.00030753882
0.014499232
-2.0423898e-06
-0.00030722669
0.014489458
-2.0696245e-06
-0.00030718593
0.014485162
-2.2313588e-06
-0.00030727868
0.014483453
-2.4357547e-06
-0.00030743398
0.014482892
-2.5513712e-06
-0.00030762608
0.014482927
-2.6565149e-06
-0.00030785335
0.014483557
-2.6096791e-06
-0.00030814791
0.014485329
-1.7651007e-06
-0.00030858415
0.014489678
1.830779e-06
-0.00030929944
0.014499494
1.303309e-05
-0.00031051
0.014519682
4.1933615e-05
-0.00031247407
0.01455692
0.0001052896
-0.00031535727
0.014616943
0.00022167727
-0.00031896039
0.014697521
0.00039122695
-0.00032204566
0.014777964
0.00056005494
-0.00032039907
0.014809543
0.00060950418
-0.00030441215
0.01470792
0.00044443666
-0.00026342587
0.014353191
0.00014550365
-0.00020166971
0.013652426
-0.00016060175
0.012716677
-0.00016050524
-9.1484656e-05
0.01301622
-0.00047550836
-0.00013319565
0.013933796
-0.00064418434
-0.00016845526
0.014621859
-0.00058637596
-0.00019019679
0.014970024
-0.00040544208
-0.00019756718
0.015068629
-0.00022667365
-0.00019682707
0.015034735
-0.00010558493
-0.00019358654
0.014951927
-4.0748784e-05
-0.0001904172
0.014869481
-1.1854857e-05
-0.00018804901
0.014808465
-1.0286098e-06
-0.00018649314
0.014770922
2.2608615e-06
-0.00018553231
0.014750759
2.9364441e-06
-0.00018493381
0.014741049
2.9038211e-06
-0.00018453243
0.014736788
2.7593478e-06
-0.00018423501
0.014735075
2.6252926e-06
-0.00018399248
0.014734476
2.418752e-06
-0.00018377892
0.014734442
2.2429825e-06
-0.00018359143
0.014734986
2.1559351e-06
-0.00018344633
0.014736658
2.7487249e-06
-0.00018339055
0.014740883
5.9195898e-06
-0.00018352044
0.014750567
1.6583831e-05
-0.0001840041
0.014770713
4.5262493e-05
-0.00018507539
0.014808247
0.00010982188
-0.00018695416
0.014869258
0.00023056995
-0.00018963352
0.014951701
0.00040892907
-0.00019239319
0.015034514
0.00058938205
-0.00019269161
0.015068421
0.00064661477
-0.00018499215
0.014969871
0.00047723734
-0.0001631709
0.01462185
0.00016149666
-0.00012817998
0.013933956
-8.6885607e-05
0.013016405
-0.00016232285
-8.8497349e-07
0.013142593
-0.00048408859
-1.0263286e-06
0.014045634
-0.00065503844
-9.8349921e-07
0.014723659
-0.00059540649
-9.391822e-07
0.0150677
-0.00041148707
-9.6864606e-07
0.015164898
-0.00023070336
-1.0269833e-06
0.015129716
-0.00010897353
-1.1381523e-06
0.01504537
-4.4396197e-05
-1.263264e-06
0.014961635
-1.6059794e-05
-1.4029895e-06
0.014899835
-5.7321254e-06
-1.5602793e-06
0.014861953
-2.7766742e-06
-1.7757337e-06
0.01484171
-2.2920421e-06
-2.0040805e-06
0.014832026
-2.4268322e-06
-2.2008446e-06
0.014827819
-2.6279141e-06
-2.407095e-06
0.014826156
-2.8721243e-06
-2.6241237e-06
0.014825609
-3.0315756e-06
-2.8533709e-06
0.01482563
-3.2074185e-06
-3.100936e-06
0.014826207
-3.2954808e-06
-3.3333134e-06
0.014827886
-2.7363707e-06
-3.5947121e-06
0.014832105
3.3189205e-07
-3.9230816e-06
0.014841792
1.0819386e-05
-4.2743842e-06
0.014862027
3.9374308e-05
-4.650618e-06
0.01489989
0.00010424022
-5.050735e-06
0.014961659
0.00022633369
-5.4685225e-06
0.015045359
0.00040755974
-5.8931514e-06
0.015129664
0.00059201006
-6.3287344e-06
0.015164793
0.00065230588
-6.6558293e-06
0.015067486
0.00048220589
-6.7259173e-06
0.014723218