/*--------------------------------*- C++ -*----------------------------------*\
| =========                 |                                                 |
| \\      /  F ield         | OpenFOAM: The Open Source CFD Toolbox           |
|  \\    /   O peration     | Version:  v2012                                 |
|   \\  /    A nd           | Website:  www.openfoam.com                      |
|    \\/     M anipulation  |                                                 |
\*---------------------------------------------------------------------------*/
FoamFile
{
    version     2.0;
    format      ascii;
    class       volVectorField;
    location    "158";
    object      U;
}
// * * * * * * * * * * * * * * * * * * * * * * * * * * * * * * * * * * * * * //

dimensions      [0 1 -1 0 0 0 0];


internalField   nonuniform List<vector> 
14958
(
(5.000195 0.0003906189 -0.00094080968)
(5.0002011 0.00013636668 -0.00096695542)
(5.0000276 4.4443282e-05 -0.00031652775)
(5.00004 4.4554733e-05 -0.00011045472)
(5.000039 0.0001284437 -0.00010608646)
(5.0000381 0.00021222391 -0.00010722782)
(5.0000385 0.00028812605 -0.00010068156)
(5.0000402 0.00035582141 -9.8408423e-05)
(5.000042 0.00040062271 -9.139496e-05)
(5.0000461 0.00042390348 -8.4584215e-05)
(5.0000492 0.00041997626 -7.8442817e-05)
(5.0000529 0.00039024741 -7.1041383e-05)
(5.0000558 0.00034105241 -6.7648614e-05)
(5.0000561 0.00027323322 -6.321505e-05)
(5.0000586 0.00020037392 -6.366899e-05)
(5.0000572 0.00012296601 -6.3893123e-05)
(5.0000637 4.277565e-05 -6.5829451e-05)
(5.0000554 4.1631592e-05 -0.0001891829)
(5.0000587 3.9938861e-05 -0.00031253024)
(5.0000568 4.0452362e-05 -0.00043508705)
(5.0000585 4.4424128e-05 -0.00056196763)
(5.0000574 4.9068706e-05 -0.0006775484)
(5.0000561 5.7890491e-05 -0.00078621292)
(5.0000563 6.4934278e-05 -0.00087943969)
(5.000057 7.3080314e-05 -0.00096032371)
(5.0000593 8.0485277e-05 -0.0010277991)
(5.0000622 8.8347863e-05 -0.001083421)
(5.0000658 9.6748166e-05 -0.0011281017)
(5.0000697 0.00010589978 -0.0011630892)
(5.0000742 0.00011575767 -0.0011894359)
(5.0000791 0.00012631869 -0.0012080489)
(5.0000845 0.00013761786 -0.0012195649)
(5.0000903 0.00014963716 -0.0012241033)
(5.0000964 0.00016231066 -0.0012215393)
(5.000103 0.00017564937 -0.0012116559)
(5.0001098 0.00018961592 -0.0011937085)
(5.0001169 0.0002041121 -0.0011666819)
(5.0001242 0.00021898629 -0.0011293998)
(5.0001313 0.00023416713 -0.0010803561)
(5.0001382 0.00024973577 -0.0010183678)
(5.0001435 0.00026594357 -0.00094111423)
(5.0001491 0.00028336884 -0.00084992055)
(5.0001518 0.00029872728 -0.00073924399)
(5.0001585 0.00031909096 -0.00061975297)
(5.0001621 0.00032444763 -0.0004820046)
(5.0001703 0.00034640106 -0.00034760977)
(5.0001763 0.00034621786 -0.00020993174)
(5.0001761 0.00036143955 -7.4506875e-05)
(5.0001314 0.0010410742 -7.7628141e-05)
(5.00014 0.001725758 -0.00010228495)
(5.000123 0.0024153511 -0.00011098189)
(5.0001091 0.0031257014 -0.00012753207)
(5.0000738 0.0037516074 -0.00013744779)
(5.0000064 0.0042747776 -0.0001384462)
(4.9999476 0.0045993869 -0.00015392806)
(4.9998477 0.0046456446 -0.00015445861)
(4.999752 0.0044080309 -0.00018133211)
(4.9996637 0.0037772387 -0.00020032162)
(4.9995701 0.0029069083 -0.00023664061)
(4.9995367 0.0018162921 -0.00028145133)
(4.9994932 0.0006316633 -0.00030457188)
(4.9995543 0.00059768247 -0.00087345761)
(4.9995604 0.00056838176 -0.0014061807)
(4.999609 0.0005193632 -0.0018808439)
(4.9996411 0.00049787862 -0.0023043876)
(4.9996913 0.00045636368 -0.0026053525)
(4.9997384 0.00043556016 -0.0028258079)
(4.9997773 0.00040092144 -0.0029465535)
(4.9998107 0.00037008477 -0.0030016417)
(4.9998364 0.00033618711 -0.0030016874)
(4.9998577 0.00030428799 -0.0029635663)
(4.9998758 0.0002748404 -0.0028983399)
(4.9998914 0.00024843721 -0.00281518)
(4.9999048 0.00022470022 -0.0027209024)
(4.9999164 0.00020331669 -0.0026207339)
(4.9999264 0.00018399287 -0.0025184551)
(4.9999352 0.00016648231 -0.002416487)
(4.999943 0.00015055607 -0.0023159368)
(4.9999502 0.00013598363 -0.0022165977)
(4.9999571 0.00012251956 -0.0021170188)
(4.9999639 0.00010993374 -0.002014617)
(4.9999707 9.8008622e-05 -0.0019060609)
(4.999978 8.6855611e-05 -0.0017871802)
(4.9999863 7.6328635e-05 -0.0016546854)
(4.9999985 6.8254828e-05 -0.0015039656)
(5.0000075 6.1859197e-05 -0.0013370001)
(5.0000194 5.9701193e-05 -0.0011475698)
(5.0000252 5.7455618e-05 -0.00094848904)
(5.0000272 5.3115282e-05 -0.00073136466)
(5.0000312 5.2207251e-05 -0.00052393121)
(5.0001882 0.00015204955 -0.0016054669)
(5.0001586 0.00016618015 -0.0022633701)
(5.0001281 0.00018374951 -0.002920603)
(5.0000861 0.00019405699 -0.0035503635)
(5.0000326 0.00020315876 -0.0041291498)
(4.9999686 0.00022110177 -0.004646354)
(4.9999051 0.00024266023 -0.0051059312)
(4.9998437 0.00027029753 -0.0055129256)
(4.9997857 0.0003017686 -0.0058770224)
(4.9997303 0.00033639947 -0.0062102665)
(4.9996767 0.00037378185 -0.0065246054)
(4.9996233 0.00041424557 -0.0068305341)
(4.9995682 0.00045830756 -0.0071360554)
(4.9995089 0.00050656969 -0.0074457069)
(4.9994427 0.00055966026 -0.0077601299)
(4.9993669 0.00061818424 -0.0080759525)
(4.9992789 0.00068276171 -0.0083856657)
(4.9991757 0.00075406106 -0.0086776297)
(4.9990546 0.00083266576 -0.0089358144)
(4.9989124 0.00091890525 -0.0091390868)
(4.998745 0.0010114845 -0.0092601407)
(4.9985486 0.0011082958 -0.0092643976)
(4.9983187 0.001202232 -0.0091066449)
(4.9980542 0.001298509 -0.0087349479)
(4.9977616 0.0013817993 -0.0080868056)
(4.997444 0.0014901302 -0.007126844)
(4.9971576 0.0015886201 -0.0058524127)
(4.9968712 0.0017161166 -0.0043281654)
(4.9966842 0.0018314738 -0.0026724444)
(4.9964838 0.0019103858 -0.00092181162)
(4.9893255 0.0034830988 -0.0016842333)
(4.976667 0.0053669516 -0.0025349382)
(4.9565821 0.0081224904 -0.0037487346)
(4.9262655 0.011882777 -0.0052764948)
(4.8814534 0.018030741 -0.0079210287)
(4.8164011 0.027061629 -0.012150215)
(4.7257725 0.04441113 -0.019758083)
(5.1928361 0.0001076575 0.011212864)
(5.2013423 0.00051453665 0.0063373165)
(5.2067135 0.00097646133 0.00072607837)
(5.2082995 0.0014856685 -0.0054974479)
(5.2058017 0.0020369023 -0.012446782)
(5.1984621 0.002645473 -0.020111714)
(5.1862362 0.0032423874 -0.027506508)
(5.1688375 0.0038003503 -0.034001704)
(5.147618 0.0042244029 -0.038102318)
(5.125208 0.0044019894 -0.039044546)
(5.1037297 0.0043399217 -0.037405305)
(5.0844673 0.0040960838 -0.034145281)
(5.0679726 0.0037391557 -0.030099172)
(5.054244 0.0033276321 -0.025898021)
(5.0430116 0.0029043867 -0.021920664)
(5.0338983 0.0024966558 -0.018354297)
(5.0265238 0.0021197426 -0.015259307)
(5.0205502 0.0017803882 -0.012622255)
(5.0157002 0.0014799466 -0.010393581)
(5.0117577 0.0012168657 -0.0085110376)
(5.0085611 0.0009884908 -0.0069134286)
(5.0059945 0.00079221437 -0.0055476791)
(5.0039766 0.00062364624 -0.0043685962)
(5.0024484 0.00047880928 -0.0033467045)
(5.0013525 0.00035069802 -0.0024516314)
(5.0006242 0.00023722797 -0.001668331)
(5.0005686 0.00026209711 -0.0027903198)
(5.0004805 0.00029202176 -0.0039453802)
(5.0003681 0.0003233564 -0.0050914841)
(5.0002281 0.00034561425 -0.0061879412)
(5.0000679 0.00036519733 -0.0071971055)
(4.9998839 0.00039498064 -0.0080992151)
(4.9996956 0.00043246384 -0.008894227)
(4.9995083 0.00047971237 -0.0095966697)
(4.9993272 0.00053401575 -0.010224145)
(4.9991532 0.00059414946 -0.010798104)
(4.9989849 0.00065961765 -0.011340152)
(4.998818 0.00073084116 -0.011869451)
(4.9986458 0.00080864728 -0.012400481)
(4.9984605 0.00089402837 -0.012941439)
(4.9982538 0.00098807998 -0.0134936)
(4.9980169 0.0010918463 -0.014051116)
(4.9977414 0.0012064055 -0.014601077)
(4.9974183 0.0013328417 -0.015123356)
(4.9970385 0.0014719493 -0.015590337)
(4.9965919 0.0016238376 -0.015965374)
(4.9960676 0.0017867437 -0.016200953)
(4.9954543 0.0019567357 -0.01623638)
(4.994743 0.0021266022 -0.01599344)
(4.993929 0.0022957761 -0.015377391)
(4.9930276 0.0024605808 -0.014281396)
(4.9920656 0.002645972 -0.012621612)
(4.9911396 0.002841989 -0.010393039)
(4.9902986 0.0030583367 -0.0076830252)
(4.9896889 0.0032848927 -0.004707109)
(4.9773516 0.0051701346 -0.0072102299)
(4.9576906 0.0078275245 -0.010553977)
(4.9279548 0.011708566 -0.01519759)
(4.8831096 0.017801485 -0.022150099)
(4.8161981 0.027341377 -0.032521945)
(4.7108888 0.048594358 -0.051922)
(5.8411212 -0.056073213 -0.035779103)
(5.8646074 -0.025152236 -0.028373752)
(5.8841576 0.0034226776 -0.018415702)
(5.9043328 0.029994131 -0.0096368706)
(5.9199344 0.052890767 0.015839729)
(5.9256279 0.08400392 0.0096476287)
(5.9489749 0.12791506 0.026504537)
(5.9667787 0.17803 0.045553568)
(5.9773878 0.21920862 0.055173391)
(5.9976985 0.26710546 0.082889972)
(6.0004471 0.31076305 0.077777499)
(6.0041994 0.37315561 0.10017048)
(6.0104605 0.44098706 0.12714849)
(6.0115087 0.52574736 0.15725435)
(6.004639 0.61461409 0.18756021)
(5.9860162 0.71675854 0.21382495)
(5.9602971 0.8204047 0.24364047)
(5.9240479 0.94544152 0.27425511)
(5.8604624 1.0848871 0.30217077)
(5.7676533 1.2174553 0.31907049)
(5.713503 1.3206767 0.31360464)
(5.5534625 1.5180047 0.29737708)
(5.394378 1.7562112 0.27118134)
(5.1672904 2.0836064 0.19257048)
(4.9208164 2.3190813 0.095729429)
(4.0197856 2.6086838 -0.063135991)
(3.222618 2.0067618 -0.51913054)
(2.0849869 0.91731827 -1.2483434)
(1.6446682 0.70912191 -1.1192029)
(2.1812908 0.22538328 -0.83644792)
(3.0035115 0.31037478 -0.60133323)
(3.4759469 0.20264265 -0.47205208)
(3.7934631 0.141565 -0.33254153)
(3.6729165 0.18167593 -0.31449069)
(3.2708707 0.26890497 -0.44568671)
(2.6304704 0.38473091 -0.72256915)
(2.7825022 0.47963474 -0.49991815)
(3.6385563 0.28048758 -0.30196874)
(4.1480018 0.14507399 -0.2003861)
(4.3676753 0.087653575 -0.19292191)
(4.5317902 0.057652242 -0.16966142)
(4.6635645 0.046944553 -0.16033745)
(4.7740358 0.038920909 -0.13800112)
(4.8440987 0.024755161 -0.11894286)
(4.8917151 0.017025019 -0.10225695)
(4.9241191 0.011946693 -0.0876365)
(4.9467971 0.0085951253 -0.074823693)
(4.962868 0.0063055513 -0.063574845)
(4.9743726 0.0046898438 -0.053608185)
(4.9826508 0.0035160636 -0.044697856)
(4.9886043 0.0026390743 -0.036656503)
(4.9928428 0.0019652996 -0.029352787)
(4.9957882 0.0014337861 -0.022714243)
(4.9977524 0.0010063861 -0.016715631)
(4.9973879 0.0011157958 -0.017490138)
(4.997012 0.0012355191 -0.018273975)
(4.9966074 0.0013671725 -0.019080062)
(4.9961552 0.0015125283 -0.019910608)
(4.9956364 0.001673385 -0.020757182)
(4.9950321 0.0018515544 -0.021600916)
(4.9943231 0.002048832 -0.022412575)
(4.9934892 0.0022665029 -0.023152089)
(4.9925079 0.0025049079 -0.023766174)
(4.9913556 0.0027620717 -0.02418505)
(4.9900076 0.0030326958 -0.02431826)
(4.9884431 0.0033083943 -0.024047624)
(4.9866532 0.0035844952 -0.023227685)
(4.9846603 0.0038640561 -0.021688484)
(4.9825405 0.0041668835 -0.01928309)
(4.9804752 0.0044950402 -0.015967463)
(4.9786558 0.0048352214 -0.011842385)
(4.9600873 0.0073397143 -0.017313089)
(4.9320332 0.011028227 -0.024919315)
(4.8902444 0.016717192 -0.03599966)
(4.8285989 0.025601569 -0.052766525)
(4.7361507 0.044320512 -0.081813979)
(4.7465336 0.1241143 -0.019157163)
(4.8301227 0.078215339 -0.011930085)
(4.8899985 0.05180576 -0.0077072781)
(4.9312613 0.034616583 -0.0051599195)
(4.9594021 0.023389283 -0.0035512694)
(4.9781435 0.015630538 -0.0023915253)
(4.989996 0.010013844 -0.0015471963)
(4.9967351 0.0056024562 -0.00086858343)
(4.9971781 0.0089692523 -0.0007581929)
(4.99782 0.011743234 -0.00065278336)
(4.9984877 0.013606176 -0.00057067981)
(4.9991408 0.014394306 -0.0004978037)
(4.9997001 0.014201193 -0.00046779404)
(5.0001385 0.013184502 -0.00043121349)
(5.0004657 0.011581024 -0.00040955803)
(5.0006977 0.0096071809 -0.00037296099)
(5.0008387 0.0074531898 -0.00032309636)
(5.0009518 0.0052752516 -0.00027990152)
(5.0010035 0.0031699126 -0.00023186305)
(5.0011417 0.00107232 -0.00021464634)
(5.0033725 0.0018556296 -0.00034193487)
(5.0072061 0.0026837683 -0.00047068769)
(5.0130186 0.0036651215 -0.00060582019)
(5.021208 0.0047152376 -0.00073182274)
(5.032149 0.0058768388 -0.00086017979)
(5.046038 0.0070942729 -0.00095769033)
(5.0630755 0.008336589 -0.0010175634)
(5.0833083 0.0095336928 -0.0010184595)
(5.1066477 0.01059425 -0.00095246959)
(5.1327591 0.011408627 -0.00081698242)
(5.1610465 0.011865758 -0.00061618621)
(5.190548 0.011882932 -0.00035780164)
(5.220294 0.011411566 -5.941239e-05)
(5.2489159 0.010460787 0.00025664777)
(5.2521975 0.032260652 0.00026246513)
(5.2227201 0.035187115 -8.0168565e-05)
(5.1920926 0.036620881 -0.00040421684)
(5.1617453 0.036530591 -0.00068439566)
(5.1327489 0.035064633 -0.00090012974)
(5.1061172 0.032488613 -0.0010426806)
(5.082465 0.029151807 -0.0011098061)
(5.0621081 0.025394228 -0.0011090647)
(5.0451011 0.021507015 -0.0010502551)
(5.0313276 0.017711377 -0.00095297539)
(5.0205628 0.014146625 -0.00083152154)
(5.0125267 0.010910335 -0.00069735515)
(5.0068602 0.0080104065 -0.00054782641)
(5.0031471 0.0054591978 -0.00038913386)
(5.0029539 0.0091571791 -0.00046537287)
(5.0064634 0.013543767 -0.00066000812)
(5.0118785 0.018538519 -0.00084179747)
(5.0196351 0.024160822 -0.00099772092)
(5.0301304 0.030361195 -0.0011327635)
(5.0437227 0.037006762 -0.0012434495)
(5.0607281 0.043855456 -0.0013114845)
(5.0813672 0.050529387 -0.0013142055)
(5.1056708 0.056511854 -0.0012393432)
(5.1333664 0.061177175 -0.0010733232)
(5.1638025 0.063867781 -0.00081497404)
(5.1958444 0.064077393 -0.00047634084)
(5.2282038 0.061547423 -8.7019958e-05)
(5.2593083 0.05635495 0.00032108539)
(5.2715235 0.083632262 0.00048985314)
(5.2376642 0.091633492 -3.4184357e-05)
(5.2022992 0.095536916 -0.00054432411)
(5.167295 0.095175189 -0.00099208297)
(5.1343362 0.090911738 -0.0013314534)
(5.1047988 0.083593764 -0.0015416616)
(5.0793973 0.074319685 -0.0016317204)
(5.0583087 0.064108617 -0.0016264663)
(5.0413416 0.053768303 -0.0015343325)
(5.0280951 0.043855427 -0.001389535)
(5.018084 0.03471058 -0.001217761)
(5.0108225 0.026503129 -0.0010201119)
(5.0058324 0.019282356 -0.00079272113)
(5.002639 0.012987989 -0.00055098649)
(5.00218 0.016776955 -0.00063800537)
(5.0048589 0.024997647 -0.0009225439)
(5.0091388 0.034525453 -0.0011982748)
(5.0155463 0.04549888 -0.0014495763)
(5.024685 0.057919695 -0.001678031)
(5.0372426 0.071621048 -0.0018789507)
(5.0539684 0.086190139 -0.0020130886)
(5.0755761 0.10086498 -0.0020398069)
(5.102564 0.11444896 -0.0019394283)
(5.1349463 0.12534168 -0.0016706454)
(5.1719157 0.13175027 -0.0012118355)
(5.2116509 0.13232457 -0.00059780252)
(5.2517711 0.12656834 9.4658163e-05)
(5.2898625 0.11492915 0.00079284145)
(5.3150492 0.15092418 0.0012547226)
(5.2710013 0.16743485 0.00034133071)
(5.2238332 0.17587034 -0.00061987282)
(5.1769581 0.17509415 -0.0014812945)
(5.1339446 0.1656526 -0.0021119523)
(5.0974634 0.14972727 -0.0024522797)
(5.0684425 0.13028803 -0.0025454954)
(5.0464644 0.10983549 -0.0024625471)
(5.0304772 0.090081894 -0.0022433783)
(5.0192399 0.071996019 -0.0019615421)
(5.011589 0.055991381 -0.0016590994)
(5.0065586 0.04214589 -0.0013449854)
(5.0033849 0.030332305 -0.0010210789)
(5.0014852 0.020274736 -0.00070201728)
(5.0005038 0.02314437 -0.00075291326)
(5.0012785 0.034806303 -0.001106901)
(5.0028167 0.048736674 -0.0014815646)
(5.0057374 0.065436997 -0.0018680826)
(5.0109766 0.085264613 -0.0022611948)
(5.0198488 0.10837999 -0.0026510781)
(5.034112 0.13449573 -0.0030010916)
(5.0558666 0.16255579 -0.003210753)
(5.0871911 0.19020195 -0.0031661222)
(5.1293622 0.2134103 -0.0027324065)
(5.1812897 0.22718215 -0.0018341698)
(5.2386103 0.22791348 -0.00059287727)
(5.2957185 0.21524153 0.00076962286)
(5.3475842 0.19185178 0.0019573309)
(5.3884548 0.23961405 0.0033961833)
(5.3266486 0.27268473 0.00181396)
(5.2558414 0.29204353 -0.00025954601)
(5.18347 0.29186896 -0.0022262379)
(5.1184051 0.27158508 -0.0036645905)
(5.068391 0.23695971 -0.0042627997)
(5.034801 0.19740021 -0.0041626152)
(5.0146823 0.15921133 -0.0037365947)
(5.0038886 0.12527742 -0.0032125548)
(4.9989944 0.096521152 -0.0026651228)
(4.9974787 0.07281959 -0.0021441627)
(4.9976397 0.053521823 -0.0016563185)
(4.9984037 0.037852922 -0.0012140901)
(4.9991719 0.025011191 -0.0008166501)
(4.9974776 0.025465016 -0.00089176745)
(4.9947086 0.038835302 -0.0013526994)
(4.9908992 0.055562765 -0.0018915797)
(4.9864776 0.076847973 -0.0025149004)
(4.9824745 0.10410415 -0.0032166367)
(4.9809218 0.13880131 -0.0040156308)
(4.985285 0.18206102 -0.0048302144)
(5.0007609 0.23443412 -0.005590807)
(5.035757 0.29212079 -0.0060451678)
(5.0962293 0.3427546 -0.0052398919)
(5.1803361 0.37068722 -0.0025543663)
(5.2749688 0.36806219 0.00096262606)
(5.3657524 0.33723299 0.0048241777)
(5.4399477 0.29007548 0.0077148048)
(5.5099598 0.35639007 0.018114048)
(5.4218458 0.42581169 0.013477143)
(5.3039995 0.47375166 0.0068170691)
(5.1725528 0.48197831 -0.0013974498)
(5.0557458 0.4352289 -0.0093650642)
(4.9793793 0.35774373 -0.0099295067)
(4.9467311 0.27005714 -0.0078112097)
(4.9420308 0.1998991 -0.0065077334)
(4.9497488 0.14573782 -0.0052187475)
(4.9611027 0.10573255 -0.004047767)
(4.9727562 0.075998405 -0.0030499096)
(4.9827306 0.053890131 -0.0022269088)
(4.9903109 0.037165414 -0.0015578744)
(4.9954735 0.024166963 -0.0010169573)
(4.9933674 0.020955119 -0.0011755793)
(4.9856242 0.032497362 -0.0018246137)
(4.9738452 0.047783571 -0.0026664987)
(4.9573217 0.068821461 -0.0037664063)
(4.9360038 0.098642424 -0.005215542)
(4.9101581 0.14168844 -0.0070471893)
(4.8836157 0.20498085 -0.009365784)
(4.8608556 0.30105827 -0.010751323)
(4.7408121 0.30457963 -0.024330609)
(4.8115779 0.18361698 -0.014123899)
(4.8664168 0.1200439 -0.00960346)
(4.9102733 0.08058655 -0.0065794556)
(4.9424265 0.054654171 -0.0045477327)
(4.9655289 0.037242315 -0.0031382076)
(4.9813058 0.025035832 -0.002116796)
(4.9914181 0.016042458 -0.0013582999)
(4.9920584 0.015461043 -0.0042749027)
(4.9939234 0.020198679 -0.0038926465)
(4.9959076 0.02328541 -0.0034382737)
(4.9977591 0.024524579 -0.0029475585)
(4.9993139 0.024096998 -0.0024784205)
(5.0005372 0.022345574 -0.0020732792)
(5.0014551 0.019632043 -0.0017385916)
(5.002112 0.016284171 -0.0014862786)
(5.0025525 0.012609789 -0.001298312)
(5.0028537 0.0088897124 -0.001175396)
(5.003083 0.0053216489 -0.00110903)
(5.0033953 0.001793747 -0.0010987528)
(5.0033258 0.001736967 -0.0018140829)
(5.0032464 0.0016827303 -0.0025381344)
(5.0031599 0.0016252599 -0.0032405144)
(5.0030616 0.0015506661 -0.003886401)
(5.0029514 0.0014690244 -0.0044551207)
(5.0028328 0.0013844402 -0.0049399449)
(5.002708 0.0013000613 -0.0053432044)
(5.0025788 0.0012172874 -0.0056707421)
(5.002447 0.001136406 -0.0059298487)
(5.0023142 0.0010578247 -0.0061279907)
(5.0021822 0.00098198719 -0.0062723719)
(5.0020528 0.0009093584 -0.0063694247)
(5.0019277 0.00084025277 -0.0064245113)
(5.0018087 0.00077479861 -0.0064415558)
(5.0016972 0.00071297298 -0.0064226222)
(5.0015947 0.0006547331 -0.0063679989)
(5.0015023 0.00059989823 -0.0062760093)
(5.0014211 0.00054823644 -0.0061431035)
(5.0013516 0.00049954137 -0.0059642476)
(5.0012941 0.00045355817 -0.0057334589)
(5.0012483 0.0004097362 -0.0054444622)
(5.0012136 0.00036739371 -0.0050912265)
(5.0011889 0.0003254671 -0.004668835)
(5.0011733 0.00028548522 -0.0041735186)
(5.0011643 0.00024867473 -0.0036074201)
(5.001163 0.0002223302 -0.0029797255)
(5.0011637 0.00020806428 -0.0023153328)
(5.0011741 0.00020600407 -0.0016405023)
(5.0011853 0.00021445409 -0.00098125215)
(5.0012097 0.00022506738 -0.00033986372)
(5.0004114 0.00012759902 -0.00019568576)
(5.0003902 0.00012486236 -0.00057453943)
(5.0003886 0.00012016917 -0.00095316774)
(5.0003826 0.00012113259 -0.0013414061)
(5.0003845 0.00012991189 -0.0017254083)
(5.0003836 0.00014462798 -0.0020886074)
(5.0003864 0.00016736027 -0.0024171731)
(5.0003912 0.00019004612 -0.0027049065)
(5.0003995 0.00021440785 -0.002950982)
(5.0004116 0.00023829764 -0.0031573846)
(5.0004276 0.00026315941 -0.0033269716)
(5.0004474 0.00028937694 -0.0034630691)
(5.0004711 0.00031737276 -0.0035691921)
(5.0004987 0.00034722185 -0.0036486793)
(5.0005298 0.00037900377 -0.0037043441)
(5.0005643 0.00041285162 -0.0037381734)
(5.0006016 0.00044882655 -0.0037509709)
(5.0006415 0.00048688044 -0.0037425166)
(5.0006835 0.00052701884 -0.0037116922)
(5.000727 0.00056915883 -0.0036562161)
(5.0007714 0.00061309104 -0.0035729856)
(5.0008162 0.00065851121 -0.0034583033)
(5.0008607 0.00070521418 -0.0033079675)
(5.0009041 0.00075314799 -0.0031177644)
(5.0009455 0.00080248575 -0.0028830679)
(5.0009855 0.00085298577 -0.0026012603)
(5.0010224 0.00090081866 -0.0022692199)
(5.0010575 0.00094896965 -0.0018937995)
(5.0010885 0.00097874816 -0.0014832373)
(5.0011185 0.0010190284 -0.0010624537)
(5.001148 0.0010449853 -0.00064545924)
(5.0009737 0.003068278 -0.00064506229)
(5.0001264 0.0010098906 -0.0002094127)
(5.0001168 0.00097210886 -0.00034617365)
(5.0001087 0.00093002299 -0.00048230215)
(5.0001031 0.00089483941 -0.00061434959)
(5.0000992 0.0008497704 -0.0007320314)
(5.0000977 0.00080886599 -0.00083782877)
(5.0000961 0.00076401621 -0.00092746727)
(5.0000939 0.00071914375 -0.0010021167)
(5.0000905 0.0006735136 -0.0010621188)
(5.0000863 0.00062847075 -0.001109007)
(5.0000818 0.00058455722 -0.0011442154)
(5.0000772 0.00054229535 -0.0011692526)
(5.0000727 0.0005019387 -0.001185409)
(5.0000684 0.00046363695 -0.0011937638)
(5.0000642 0.00042741866 -0.001195098)
(5.0000603 0.00039330414 -0.0011900419)
(5.0000568 0.00036119483 -0.0011785576)
(5.0000536 0.0003309336 -0.0011601158)
(5.0000508 0.00030244021 -0.0011342343)
(5.0000485 0.00027557807 -0.0010999833)
(5.0000466 0.0002502371 -0.0010562641)
(5.0000454 0.00022641864 -0.0010018616)
(5.0000449 0.00020422573 -0.00093571294)
(5.0000455 0.00018409453 -0.00085682678)
(5.000047 0.00016596071 -0.00076519239)
(5.0000486 0.00015108609 -0.00066044528)
(5.0000494 0.0001389973 -0.00054736597)
(5.0000481 0.00013024876 -0.00042627911)
(5.0000474 0.00012528021 -0.00030593649)
(5.0000473 0.00012314702 -0.0001879088)
(5.0000461 0.00019761335 -0.00018892917)
(5.0000463 0.00019852369 -0.00030413704)
(5.0000488 0.00020620323 -0.00042457221)
(5.0000508 0.00022052274 -0.00054352593)
(5.0000501 0.00024051188 -0.00065578313)
(5.0000476 0.00026502705 -0.00075843577)
(5.0000451 0.00029426912 -0.00084964636)
(5.0000438 0.00032689951 -0.00092815786)
(5.0000436 0.00036225912 -0.0009940497)
(5.0000446 0.00040024621 -0.0010485015)
(5.0000462 0.00044072901 -0.0010925606)
(5.0000485 0.00048374521 -0.0011274436)
(5.0000512 0.0005294349 -0.0011542876)
(5.0000543 0.00057799799 -0.001174032)
(5.0000578 0.00062969301 -0.0011874541)
(5.0000617 0.0006846856 -0.0011947754)
(5.0000658 0.00074309647 -0.0011957869)
(5.0000701 0.00080499453 -0.0011899851)
(5.0000746 0.00087028251 -0.001176488)
(5.000079 0.00093869535 -0.001154115)
(5.0000833 0.0010097545 -0.001121445)
(5.0000871 0.0010827249 -0.0010768488)
(5.0000898 0.0011565541 -0.0010187161)
(5.000091 0.0012293778 -0.00094512297)
(5.0000911 0.0013020103 -0.00085636977)
(5.0000916 0.0013729954 -0.00075155574)
(5.0000944 0.0014440652 -0.00063227721)
(5.0001008 0.0015133209 -0.00050032654)
(5.0001095 0.0015815305 -0.00036011212)
(5.0001212 0.0016582138 -0.00021716329)
(5.0001159 0.0023254406 -0.00023514003)
(5.0001087 0.002218108 -0.00039258743)
(5.0001005 0.0021151241 -0.00054170932)
(5.0000947 0.0020123466 -0.00068075666)
(5.0000925 0.001911086 -0.00080601649)
(5.0000928 0.0018100365 -0.0009147457)
(5.0000932 0.0017077478 -0.0010056337)
(5.0000922 0.0016048998 -0.0010794527)
(5.0000895 0.0015012019 -0.0011366516)
(5.0000856 0.0013985774 -0.0011790438)
(5.000081 0.0012988246 -0.0012087364)
(5.0000762 0.0012029199 -0.0012276378)
(5.0000715 0.0011115912 -0.0012374158)
(5.0000669 0.0010251842 -0.0012394487)
(5.0000625 0.00094380191 -0.0012347639)
(5.0000585 0.00086734096 -0.0012239802)
(5.0000548 0.00079557613 -0.0012073031)
(5.0000514 0.00072819588 -0.0011844939)
(5.0000486 0.00066488656 -0.0011549105)
(5.0000462 0.00060537729 -0.0011175798)
(5.0000445 0.00054947592 -0.0010712976)
(5.0000437 0.00049712553 -0.0010147314)
(5.0000441 0.00044854594 -0.0009467536)
(5.000046 0.00040392347 -0.00086559282)
(5.0000497 0.00036420863 -0.00077197323)
(5.0000537 0.00033014305 -0.00066745977)
(5.0000539 0.00030253342 -0.00055366642)
(5.0000504 0.00028238303 -0.00043311081)
(5.0000467 0.0002712542 -0.00031000738)
(5.0000452 0.00026998657 -0.0001930618)
(5.0000445 0.00033429865 -0.00020160836)
(5.0000468 0.00033604183 -0.00032347678)
(5.000052 0.00035063489 -0.00045242743)
(5.000058 0.00037490659 -0.00057701979)
(5.0000577 0.00040897162 -0.00069446259)
(5.0000527 0.00045206891 -0.00080307258)
(5.0000469 0.00050210646 -0.00090060999)
(5.000043 0.00055824084 -0.00098632305)
(5.0000419 0.00061906837 -0.0010585977)
(5.0000425 0.00068474149 -0.0011190229)
(5.000044 0.00075509887 -0.0011691277)
(5.0000463 0.00083020247 -0.0012104829)
(5.0000491 0.00091029749 -0.0012444178)
(5.0000524 0.00099576699 -0.0012719823)
(5.0000561 0.0010870585 -0.0012938325)
(5.0000602 0.0011846106 -0.0013101574)
(5.0000645 0.0012887718 -0.001320654)
(5.0000692 0.0013997217 -0.0013245271)
(5.000074 0.0015173956 -0.0013205247)
(5.0000789 0.0016413837 -0.0013068983)
(5.0000834 0.0017708442 -0.0012816384)
(5.0000873 0.0019044097 -0.0012424284)
(5.0000898 0.0020392998 -0.0011863012)
(5.0000902 0.002172916 -0.0011110073)
(5.0000891 0.0023063625 -0.0010156135)
(5.0000878 0.00243837 -0.00089886798)
(5.0000892 0.0025708581 -0.00076224123)
(5.0000947 0.0027063979 -0.00060905951)
(5.000102 0.0028446678 -0.000444097)
(5.0001069 0.0029874461 -0.00027197987)
(5.0000784 0.0035856907 -0.00031498885)
(5.0000746 0.0034119177 -0.00051357779)
(5.000067 0.0032379144 -0.00070168914)
(5.000061 0.0030675334 -0.00087429171)
(5.0000617 0.002902566 -0.0010261186)
(5.0000652 0.0027392199 -0.0011531361)
(5.0000686 0.002574591 -0.0012534295)
(5.0000712 0.0024096215 -0.0013297448)
(5.0000711 0.0022440911 -0.0013842952)
(5.0000688 0.0020814838 -0.0014195481)
(5.0000653 0.0019248348 -0.0014390268)
(5.0000613 0.0017756363 -0.0014457253)
(5.0000572 0.0016346782 -0.0014422539)
(5.0000533 0.0015023313 -0.0014307293)
(5.0000496 0.0013785727 -0.0014127276)
(5.0000461 0.0012630967 -0.001389265)
(5.000043 0.0011554041 -0.001360771)
(5.0000403 0.0010549053 -0.0013270931)
(5.000038 0.00096099464 -0.0012875228)
(5.0000362 0.00087312891 -0.0012408618)
(5.0000353 0.00079092841 -0.0011855661)
(5.0000357 0.00071420877 -0.0011198971)
(5.0000382 0.00064301343 -0.001042401)
(5.0000432 0.00057706041 -0.00095109546)
(5.0000503 0.00051828867 -0.00084732832)
(5.0000564 0.00046810683 -0.00073215039)
(5.0000573 0.00042859773 -0.00060807911)
(5.000051 0.00040136654 -0.00047713243)
(5.0000447 0.00038511809 -0.00034169756)
(5.000042 0.00038297055 -0.00021255447)
(5.0000381 0.00041104581 -0.00022560793)
(5.0000405 0.00041335879 -0.00036338805)
(5.0000466 0.00043066029 -0.0005074453)
(5.0000524 0.00046032896 -0.00064698135)
(5.0000505 0.00050347017 -0.00077948554)
(5.0000429 0.00055827895 -0.00090279052)
(5.0000342 0.00062254837 -0.0010142459)
(5.0000277 0.00069505559 -0.0011127943)
(5.0000242 0.0007732987 -0.0011969249)
(5.0000227 0.00085750302 -0.0012687259)
(5.0000222 0.00094784702 -0.0013301671)
(5.0000224 0.0010446354 -0.0013832916)
(5.0000227 0.001148389 -0.0014298543)
(5.0000234 0.00125979 -0.0014711829)
(5.0000244 0.0013796092 -0.0015080205)
(5.0000256 0.0015086146 -0.0015404687)
(5.0000269 0.0016474843 -0.0015679566)
(5.0000282 0.0017966514 -0.0015892319)
(5.0000292 0.0019562911 -0.0016023991)
(5.0000297 0.0021261752 -0.0016049144)
(5.0000294 0.002305491 -0.0015936507)
(5.0000283 0.0024927288 -0.0015648959)
(5.0000257 0.0026845239 -0.0015139735)
(5.0000197 0.0028765149 -0.0014362541)
(5.0000105 0.0030684115 -0.0013291677)
(5.0000012 0.0032599482 -0.0011896577)
(4.9999978 0.0034549155 -0.0010187032)
(5.0000045 0.0036577075 -0.00082135173)
(5.0000162 0.0038642916 -0.00060439652)
(5.0000243 0.0040700548 -0.00037922599)
(4.9999667 0.0043699008 -0.00045132277)
(4.9999462 0.0041427932 -0.00071604001)
(4.9999241 0.0039111758 -0.00096882535)
(4.9999153 0.0036823091 -0.0011921638)
(4.9999228 0.0034622697 -0.0013815487)
(4.9999406 0.0032472381 -0.0015324543)
(4.9999588 0.0030334304 -0.0016448476)
(4.9999723 0.0028214702 -0.0017227049)
(4.9999812 0.0026111943 -0.0017693459)
(4.9999867 0.0024071944 -0.0017905606)
(4.9999901 0.0022129623 -0.0017920545)
(4.9999923 0.0020300691 -0.0017785128)
(4.9999941 0.0018592663 -0.0017538512)
(4.9999953 0.0017006728 -0.0017211587)
(4.9999963 0.0015538211 -0.0016826505)
(4.9999971 0.0014180349 -0.0016398311)
(4.999998 0.0012924579 -0.0015934495)
(4.9999989 0.0011761685 -0.0015434228)
(4.9999999 0.0010682985 -0.0014888943)
(5.0000013 0.00096810143 -0.0014283546)
(5.0000038 0.00087486364 -0.0013598073)
(5.000009 0.00078816427 -0.0012811242)
(5.0000157 0.00070759649 -0.0011902017)
(5.0000231 0.00063279771 -0.0010838611)
(5.0000336 0.00056672773 -0.00096378008)
(5.0000429 0.00051042666 -0.00083170345)
(5.000046 0.00046609582 -0.0006900097)
(5.000041 0.00043555221 -0.00054083114)
(5.0000358 0.00041760823 -0.0003872194)
(5.000034 0.00041499737 -0.00024042408)
(5.0000303 0.00039372371 -0.00025479948)
(5.0000318 0.00039693126 -0.00041194984)
(5.0000366 0.00041506436 -0.00057579722)
(5.000041 0.00044468885 -0.00073481681)
(5.0000368 0.00048749672 -0.00088586647)
(5.0000259 0.00054179484 -0.001026761)
(5.0000135 0.00060551283 -0.0011553679)
(5.0000031 0.00067712946 -0.0012696926)
(4.9999946 0.00075493745 -0.0013677453)
(4.9999891 0.00083911911 -0.0014534315)
(4.9999846 0.00093012483 -0.0015292292)
(4.9999813 0.0010282292 -0.0015976435)
(4.999978 0.0011340327 -0.0016608313)
(4.9999745 0.0012483999 -0.0017203258)
(4.999971 0.0013723697 -0.0017770982)
(4.9999672 0.0015070079 -0.0018312665)
(4.999963 0.0016533211 -0.0018820211)
(4.9999583 0.0018121979 -0.0019277483)
(4.9999532 0.0019842192 -0.0019657769)
(4.9999476 0.0021695244 -0.0019923597)
(4.9999405 0.0023677173 -0.0020029103)
(4.9999305 0.002577628 -0.0019918739)
(4.9999157 0.002796264 -0.0019523034)
(4.9998941 0.0030194557 -0.0018766434)
(4.9998665 0.003247052 -0.0017604366)
(4.9998397 0.003477483 -0.0015986555)
(4.9998288 0.0037129421 -0.0013895585)
(4.9998436 0.0039557552 -0.0011360392)
(4.9998654 0.0041947324 -0.00084185838)