/*--------------------------------*- C++ -*----------------------------------*\
| =========                 |                                                 |
| \\      /  F ield         | OpenFOAM: The Open Source CFD Toolbox           |
|  \\    /   O peration     | Version:  v2012                                 |
|   \\  /    A nd           | Website:  www.openfoam.com                      |
|    \\/     M anipulation  |                                                 |
\*---------------------------------------------------------------------------*/
FoamFile
{
    version     2.0;
    format      ascii;
    class       volScalarField;
    location    "200";
    object      nut;
}
// * * * * * * * * * * * * * * * * * * * * * * * * * * * * * * * * * * * * * //

dimensions      [0 2 -1 0 0 0 0];


internalField   nonuniform List<scalar> 
33005
(
0.032188775
0.032210049
0.032231868
0.03225439
0.032277739
0.032302005
0.032327235
0.032353428
0.032380526
0.032408407
0.032436879
0.032465648
0.032494371
0.032522636
0.032550038
0.032576218
0.032600994
0.032624464
0.032647085
0.032669606
0.032614655
0.032580646
0.032546785
0.032513036
0.032479374
0.032445792
0.032412297
0.032378914
0.03234568
0.032312643
0.032279855
0.032247359
0.0322152
0.032183409
0.032152005
0.032120996
0.032090373
0.032060116
0.032030198
0.032031224
0.0320334
0.032036846
0.03204164
0.032047837
0.032055435
0.032237245
0.032230953
0.032224695
0.032218369
0.032211835
0.032204926
0.03219746
0.032189269
0.032180228
0.0321703
0.032159559
0.032148196
0.032136502
0.032124819
0.032113494
0.032102838
0.03209311
0.032084511
0.032077183
0.032071201
0.032066566
0.032063229
0.032061116
0.032091343
0.032093391
0.032096615
0.032101084
0.032106847
0.032113903
0.032122175
0.032131514
0.032141715
0.032152512
0.032163597
0.032174631
0.032185292
0.032195319
0.032204555
0.032212956
0.03222058
0.032227561
0.032234064
0.032240261
0.032246307
0.032252325
0.032258404
0.032280342
0.032274494
0.03226873
0.032262971
0.032257108
0.032250998
0.032244479
0.032237386
0.03222958
0.032220983
0.032211611
0.032201594
0.032191167
0.032180636
0.03217033
0.032160562
0.032151596
0.032143646
0.032136862
0.032131322
0.032127023
0.032123916
0.032121936
0.032152915
0.032154823
0.03215781
0.032161934
0.03216725
0.032173763
0.032181401
0.03219001
0.032199379
0.032209236
0.032219273
0.032229163
0.032238613
0.032247406
0.032255438
0.032262714
0.032269326
0.032275421
0.032281162
0.032286704
0.032292177
0.032297681
0.032303284
0.032309026
0.032314921
0.032338546
0.0323329
0.032327407
0.032322054
0.03231681
0.032311613
0.032306372
0.032300966
0.032295244
0.032289046
0.032282222
0.032274666
0.032266357
0.032257384
0.032247948
0.032238338
0.032228877
0.032219874
0.032211599
0.032204264
0.032198018
0.03219293
0.032188984
0.032186122
0.032184286
0.032216044
0.032217804
0.032220538
0.032224302
0.032229161
0.032235141
0.032242183
0.032250145
0.032258817
0.032267935
0.032277189
0.032286256
0.032294853
0.032302781
0.032309961
0.032316425
0.032322285
0.032327694
0.032332812
0.032337783
0.032342724
0.032347718
0.032352822
0.032358065
0.032363454
0.032389703
0.032384566
0.032379566
0.032374696
0.032369931
0.032365216
0.032360474
0.032355589
0.032350423
0.032344817
0.032338616
0.032331707
0.032324055
0.032315736
0.032306951
0.032297987
0.032289165
0.032280793
0.032273128
0.032266372
0.032260657
0.03225603
0.032252454
0.032249851
0.032248169
0.032280628
0.03228223
0.032284698
0.032288083
0.032292472
0.03229792
0.032304392
0.032311769
0.032319863
0.032328424
0.032337154
0.032345729
0.032353858
0.032361333
0.032368071
0.032374104
0.032379544
0.032384543
0.032389256
0.032393822
0.032398351
0.032402921
0.032407583
0.032412363
0.032417266
0.032446028
0.032441327
0.032436732
0.032432237
0.032427817
0.032423421
0.032418972
0.032414361
0.032409453
0.032404096
0.032398141
0.032391485
0.032384106
0.032376098
0.032367681
0.032359151
0.032350831
0.032343009
0.03233592
0.032329737
0.032324563
0.032320418
0.03231723
0.032314901
0.03231338
0.032346381
0.032347817
0.032350002
0.032352986
0.032356879
0.032361767
0.032367649
0.032374439
0.03238198
0.032390058
0.032398396
0.03240668
0.032414607
0.032421947
0.032428589
0.032434539
0.03243989
0.032444781
0.032449358
0.032453756
0.03245808
0.032462407
0.032466788
0.032471247
0.032475793
0.032501842
0.032497458
0.03249313
0.032488831
0.032484512
0.032480098
0.032475484
0.032470543
0.032465135
0.032459134
0.032452465
0.032445139
0.032437284
0.032429142
0.032421015
0.032413206
0.032405972
0.032399508
0.032393948
0.032389361
0.032385733
0.032382961
0.032380926
0.032379578
0.032412923
0.032414182
0.032416062
0.032418612
0.032421961
0.032426225
0.032431434
0.032437535
0.032444415
0.032451904
0.032459769
0.032467725
0.032475476
0.032482776
0.032489481
0.03249556
0.032501068
0.032506116
0.03251083
0.03251533
0.032519714
0.032524054
0.0325284
0.032532779
0.032563682
0.032559234
0.032554798
0.03255035
0.032545842
0.032541205
0.03253635
0.032531167
0.032525545
0.032519395
0.032512682
0.032505457
0.032497875
0.03249018
0.032482653
0.032475552
0.032469084
0.032463391
0.032458566
0.032454646
0.03245159
0.032449269
0.032447548
0.03244638
0.032479924
0.032481001
0.032482561
0.032484647
0.032487398
0.032490954
0.032495364
0.032500602
0.032506597
0.032513231
0.032520331
0.032527672
0.032534993
0.032542063
0.032548723
0.032554905
0.032560622
0.032565943
0.032570959
0.032575763
0.032580437
0.032585043
0.032589623
0.032594199
0.032624039
0.03261929
0.032614531
0.032609743
0.032604888
0.032599914
0.032594753
0.032589326
0.032583564
0.03257742
0.032570902
0.032564086
0.032557132
0.032550251
0.032543667
0.032537574
0.03253211
0.032527367
0.032523399
0.032520221
0.032517781
0.032515932
0.032514533
0.032513548
0.03254726
0.032548156
0.032549397
0.03255101
0.032553139
0.03255593
0.032559441
0.03256366
0.032568549
0.032574041
0.032580028
0.032586357
0.032592839
0.032599289
0.032605562
0.032611573
0.032617301
0.032622769
0.032628028
0.032633138
0.032638154
0.032643118
0.032648059
0.032652992
0.032680972
0.032675876
0.032670785
0.032665689
0.032660568
0.03265539
0.032650112
0.032644694
0.032639104
0.032633333
0.032627416
0.032621432
0.032615512
0.03260981
0.032604475
0.032599626
0.032595336
0.032591653
0.032588603
0.032586193
0.032584368
0.032582984
0.032581896
0.032581085
0.032615061
0.032615793
0.032616736
0.032617905
0.032619439
0.032621481
0.032624083
0.032627237
0.032630924
0.032635118
0.032639771
0.032644799
0.032650092
0.032655526
0.032660993
0.032666416
0.012819945
0.012917756
0.012825294
0.012916733
0.012774252
0.012831859
0.012699522
0.012414122
0.01230414
0.012173537
0.012205355
0.012550287
0.012463742
0.012439798
0.012391281
0.012386893
0.012374939
0.017682232
0.017671696
0.017656005
0.017640764
0.017631888
0.01762875
0.017631034
0.017634325
0.01763786
0.017642861
0.017646926
0.017645347
0.01763751
0.017619355
0.017594535
0.017547445
0.01748229
0.017377268
0.01726174
0.017091523
0.016902782
0.016641054
0.016396729
0.016092587
0.015807997
0.01546119
0.015171142
0.014836732
0.014700702
0.014584524
0.014252009
0.013975951
0.013668295
0.013405954
0.013332146
0.013239371
0.013266602
0.013580506
0.013903547
0.014208094
0.014544409
0.014512589
0.014799301
0.015135594
0.015436543
0.015783611
0.016076388
0.016373571
0.016623172
0.016882817
0.017077071
0.017244913
0.017363443
0.017468873
0.017536058
0.017582837
0.017608736
0.017626967
0.017634381
0.017635951
0.017631372
0.017624875
0.01761961
0.017614632
0.017610664
0.017612416
0.01762026
0.017633725
0.017647417
0.017632088
0.017604155
0.017564274
0.017522118
0.017489372
0.017532962
0.017574501
0.017607539
0.017591807
0.017558016
0.017516875
0.017474081
0.017463618
0.017506766
0.017548791
0.017584508
0.017583398
0.017548674
0.017508222
0.017466729
0.017420189
0.01737356
0.017324407
0.017279008
0.017288859
0.017333705
0.017381974
0.017427857
0.017472977
0.017514244
0.017554701
0.017588806
0.017594817
0.017563838
0.017525408
0.017485728
0.01744174
0.017396998
0.017349637
0.017306195
0.017317275
0.01736023
0.017407869
0.017451816
0.017493829
0.017532893
0.017570923
0.017601344
0.017608371
0.017579201
0.017543353
0.017506477
0.017466478
0.017423386
0.017376525
0.017335244
0.017308299
0.017331203
0.017465366
0.017342324
0.017318121
0.017344457
0.017385333
0.017430675
0.017471617
0.017511878
0.01754898
0.017584634
0.017613731
0.017612454
0.017585534
0.017552379
0.017516163
0.017475576
0.017436489
0.017393632
0.017353043
0.017325885
0.017351296
0.017473813
0.01734357
0.017318726
0.017345292
0.017385491
0.017427624
0.017467137
0.01750721
0.017543242
0.017576999
0.01760529
0.017588072
0.017560865
0.017526915
0.017492716
0.017452955
0.017412665
0.01737076
0.017331352
0.017304677
0.017326614
0.017428939
0.017293357
0.017272602
0.017298799
0.017337995
0.017381
0.017422253
0.017461981
0.017497222
0.017533048
0.017561888
0.017515055
0.017486647
0.017450977
0.017415269
0.017374657
0.017332701
0.017289026
0.017249277
0.017221983
0.017241596
0.017313912
0.017160674
0.017142873
0.017171462
0.017211502
0.017256216
0.017298913
0.017340852
0.017377819
0.01741488
0.017445744
0.017340805
0.017310429
0.017274322
0.017238373
0.017197803
0.017155002
0.017109842
0.017068827
0.017039418
0.017054582
0.017089055
0.016919786
0.016905949
0.016935775
0.016977343
0.017024212
0.017068421
0.017109471
0.017147458
0.017186435
0.017219714
0.017053032
0.017021721
0.016984177
0.016946459
0.01690575
0.016861204
0.016814028
0.016772127
0.01674243
0.016753166
0.016745285
0.016547175
0.016536469
0.016567034
0.016609106
0.016656485
0.016700602
0.016741398
0.016780688
0.016820432
0.01685437
0.016598573
0.016567991
0.016531144
0.016494016
0.016454501
0.016412788
0.016368229
0.016327492
0.016297419
0.016304583
0.016253822
0.016039511
0.016032527
0.016063209
0.016103678
0.016147852
0.016189633
0.01623058
0.0162694
0.016309108
0.016344061
0.016050815
0.016017587
0.015979649
0.015941805
0.015901499
0.015860311
0.01581698
0.015777088
0.015747343
0.015753438
0.015676768
0.015438613
0.015433659
0.015463969
0.015504135
0.015547855
0.015589567
0.015631102
0.015671278
0.015713128
0.015751222
0.015406586
0.015371688
0.015333457
0.015294712
0.015253587
0.015212658
0.015169968
0.015130482
0.015100446
0.015103085
0.01500514
0.014761662
0.014761706
0.014793855
0.014834751
0.014879253
0.014922534
0.014966984
0.015009805
0.015053587
0.015095709
0.014763788
0.014724681
0.014681313
0.014636864
0.0145899
0.014543284
0.014496676
0.014453775
0.01442036
0.014419412
0.014316023
0.014057445
0.014061778
0.014098512
0.014144812
0.014196348
0.014248536
0.014303401
0.014356699
0.014410908
0.014463216
0.014113779
0.0141661
0.01384322
0.01377843
0.013713564
0.014059339
0.014001608
0.013943619
0.013884711
0.013827493
0.013770858
0.013719707
0.013679927
0.013670678
0.013542189
0.01325019
0.013258171
0.013324643
0.013387298
0.013452522
0.0135171
0.013583034
0.013648304
0.013306715
0.013375154
0.013442099
0.013509765
0.013237644
0.013193749
0.013140491
0.01307821
0.013012882
0.013242775
0.013175823
0.013107226
0.013035832
0.012958316
0.012855244
0.012611331
0.012718848
0.012797085
0.012873418
0.01294555
0.012927696
0.012855961
0.0127819
0.01270761
0.012598045
0.012457207
0.01233992
0.012161751
0.01217028
0.012120326
0.012058284
0.011987142
0.011930497
0.017962379
0.017920647
0.017876353
0.017834546
0.017820252
0.017811907
0.017760593
0.01774659
0.017710497
0.017705058
0.017691815
0.017692523
0.017682706
0.017684772
0.017682012
0.017684116
0.017675741
0.017674591
0.017649322
0.017639974
0.017575409
0.017548061
0.017407561
0.017354942
0.01711484
0.01702813
0.016662059
0.016547241
0.016102972
0.015971243
0.015486103
0.015359695
0.014934715
0.014808859
0.014371735
0.014216633
0.014077563
0.013976196
0.013888216
0.013756819
0.013634036
0.013642793
0.013789063
0.013840551
0.013812921
0.01412904
0.014350047
0.014735553
0.014933023
0.015302651
0.015499146
0.015914919
0.016117645
0.016494892
0.016671283
0.016985771
0.017119684
0.017325754
0.017407657
0.017530147
0.017573569
0.017629597
0.01764502
0.01766677
0.017670167
0.01767756
0.017675425
0.01767626
0.017674023
0.01767959
0.017678864
0.017689069
0.017696767
0.017724369
0.017742495
0.017779629
0.017792503
0.017820107
0.01783375
0.017908473
0.017959901
0.017967102
0.017911576
0.017842284
0.017775996
0.017777711
0.017783114
0.0177454
0.017726605
0.017704793
0.017725121
0.017702347
0.017686547
0.017677235
0.017693867
0.017686037
0.017672073
0.017673618
0.01768771
0.017685434
0.017674541
0.017676291
0.017687414
0.017687854
0.017678719
0.017682403
0.017691103
0.017685177
0.01767973
0.01767266
0.017680083
0.017660713
0.017654402
0.017631358
0.017641653
0.01758942
0.01758258
0.01752015
0.017535154
0.01742157
0.017412893
0.017302184
0.017323187
0.017135058
0.017126488
0.016944796
0.016972683
0.016684257
0.016674903
0.016439542
0.016472942
0.016132715
0.0161246
0.015851813
0.01588869
0.015509587
0.015497346
0.015229618
0.01527292
0.014925862
0.014909068
0.015023249
0.015356687
0.015618628
0.016011709
0.016283986
0.016605799
0.016836512
0.017136517
0.017320054
0.017502002
0.017610511
0.017731175
0.017795428
0.017847226
0.017868824
0.017890356
0.01789903
0.017904102
0.017899266
0.017896879
0.017895989
0.017895591
0.017892833
0.017898576
0.017908925
0.017927453
0.017944289
0.017977142
0.018024326
0.018055744
0.018116738
0.018092807
0.018039775
0.017991432
0.017815117
0.017776283
0.017784542
0.01779863
0.017773684
0.017743683
0.017706713
0.017664558
0.01761602
0.017565229
0.017511598
0.017463097
0.017418963
0.017387212
0.017395719
0.017367347
0.017396727
0.017441768
0.017491507
0.017545274
0.017597435
0.017646968
0.017690715
0.017728037
0.017759516
0.017751741
0.017789042
0.017941317
0.017757239
0.017719463
0.017681539
0.017719186
0.017870267
0.017675691
0.01763646
0.017585802
0.017625065
0.017779518
0.017574032
0.017533093
0.017479791
0.017522997
0.017691662
0.01747493
0.017429257
0.017386439
0.017439051
0.017634104
0.017424199
0.017367415
0.017417511
0.017537703
0.017413848
0.017362376
0.017343193
0.017332195
0.017321909
0.017307921
0.017292852
0.017273983
0.017252824
0.017228644
0.017203426
0.017174571
0.017144588
0.017111936
0.017078867
0.017042588
0.017006453
0.016967579
0.016927776
0.01688221
0.01683126
0.016765746
0.016703241
0.016657765
0.016598632
0.016540972
0.016485212
0.016428888
0.016375175
0.016326197
0.016288551
0.016215966
0.016154886
0.016087481
0.016019663
0.015948743
0.015877993
0.015803169
0.015724941
0.015646322
0.015567678
0.015484225
0.015397755
0.015308956
0.015215345
0.015105017
0.015000513
0.014836849
0.014715669
0.014586854
0.014440801
0.014272684
0.014066881
0.013724749
0.013464354
0.013085946
0.01257233
0.010844661
0.0088961936
0.0037164593
0.0026186466
0.0024597676
0.0023645336
0.0028100363
0.0026338971
0.0033686318
0.0020648504
0.0020425327
0.0026509719
0.0032422052
0.0031429114
0.0042218062
0.0053470348
0.0085584399
0.0089962992
0.010576548
0.012112432
0.0065118026
0.006076473
0.0049307901
0.0033226518
0.003212401
0.0015880217
0.0027292586
0.0023134753
0.0023139903
0.0031259306
0.0020263054
0.0025367481
0.0026555432
0.0025421284
0.0027157547
0.0024643244
0.002396623
0.0021361485
0.0029244929
0.0061807852
0.010761985
0.012509666
0.013033375
0.013439677
0.013745707
0.014067902
0.014244056
0.014418419
0.014570913
0.014700268
0.014820104
0.014913275
0.015037138
0.015074778
0.015197657
0.015290536
0.015377761
0.015463202
0.015546622
0.015625305
0.015704247
0.015781992
0.015856916
0.015929732
0.016001882
0.016070453
0.016138582
0.016205952
0.016274327
0.016340095
0.016403146
0.016464413
0.016526119
0.016596596
0.0166672
0.016728037
0.016785442
0.016834722
0.016881731
0.016924534
0.016966159
0.017004794
0.017043283
0.017078495
0.017112785
0.017144574
0.017174815
0.017200934
0.017226472
0.017248748
0.017268532
0.017285039
0.017300257
0.017311518
0.017324692
0.017347724
0.017406666
0.017543575
0.017398245
0.01733639
0.017311249
0.017296087
0.017284314
0.017268438
0.01725048
0.017230335
0.017207125
0.017180079
0.017153287
0.017121352
0.017088447
0.017053327
0.017015843
0.016975503
0.016934449
0.016891214
0.016845483
0.01679722
0.016747071
0.016691428
0.016634987
0.016573074
0.016510487
0.016447686
0.016385492
0.016320981
0.016255999
0.016189216
0.016122475
0.016052414
0.015982032
0.015909608
0.015836169
0.015760032
0.015683804
0.015604356
0.015523823
0.015441124
0.015356788
0.015267825
0.01517292
0.015063524
0.014897784
0.014799337
0.014680142
0.014552405
0.014401112
0.014227077
0.013950139
0.013735788
0.013438167
0.013017006
0.011849185
0.010163611
0.0041214129
0.0024563995
0.0018165865
0.0018501491
0.001841327
0.0020718011
0.0023975477
0.0028301869
0.002055769
0.0021965415
0.0027462314
0.0039556758
0.0037253461
0.0073350195
0.0091806644
0.012671425
0.012783559
0.01327677
0.013628695
0.013871111
0.014187381
0.014354642
0.014506925
0.014637251
0.014757095
0.014871465
0.015034248
0.015131535
0.015235919
0.015328612
0.015414244
0.015496924
0.015578459
0.01565931
0.015734952
0.01581219
0.015887987
0.015959436
0.016032167
0.016104044
0.016171639
0.016239209
0.016303927
0.016368731
0.016430817
0.016492917
0.016552636
0.016611944
0.016667121
0.016722017
0.01677316
0.016822414
0.016870117
0.016914432
0.016956604
0.016998427
0.017037846
0.017073669
0.017107003
0.01714085
0.017168332
0.017196193
0.017220433
0.017241074
0.0172602
0.017276861
0.017289255
0.017305646
0.017332051
0.017395533
0.017540082
0.017393911
0.017329498
0.017303103
0.0172859
0.017272411
0.017255723
0.017235899
0.017214074
0.017189505
0.017160496
0.01713164
0.017098047
0.017063708
0.017026622
0.016986219
0.016943451
0.016901016
0.01685446
0.016806643
0.016755629
0.016704223
0.016649217
0.016593632
0.016535221
0.016475626
0.016413628
0.016350652
0.016285184
0.016219161
0.016150259
0.016080864
0.016006364
0.015932948
0.015860708
0.015781892
0.015703961
0.015625107
0.015541766
0.015459101
0.015374321
0.015284409
0.01518871
0.015070602
0.014906627
0.014811445
0.014695357
0.014569836
0.014428013
0.014256545
0.014099949
0.013786906
0.013499912
0.013116142
0.012607816
0.0099363015
0.0058093081
0.0037597804
0.0052728131
0.0045328312
0.003394168
0.0022701422
0.0026610315
0.0029109701
0.0024835389
0.003008987
0.0021134283
0.0026510002
0.0022352711
0.0012281326
0.0017156195
0.0016376514
0.0038118497
0.0027173734
0.0022269761
0.0019430781
0.0011708928
0.0015329886
0.0016862431
0.0021696747
0.0023587757
0.0027674688
0.0039242495
0.0089972405
0.0079913938
0.012116925
0.012888217
0.013329118
0.013649104
0.013865634
0.014120638
0.014164444
0.014348946
0.014499346
0.014634016
0.014754265
0.014869333
0.015035463
0.015132776
0.0152387
0.01533292
0.015420497
0.015505481
0.015591006
0.015672632
0.015752247
0.0158323
0.015908117
0.015982357
0.016058415
0.016128999
0.016199852
0.016266736
0.016333999
0.016397745
0.01646086
0.016520712
0.016579978
0.016635906
0.016692322
0.016744006
0.016796731
0.01684436
0.016892596
0.01693568
0.016978826
0.017020527
0.017058473
0.017094179
0.017127509
0.017157352
0.017188056
0.017212495
0.017235377
0.017256216
0.017272776
0.017287228
0.017305296
0.017331129
0.017395394
0.017538745
0.017393541
0.017330234
0.017304565
0.0172875
0.017272706
0.017255267
0.0172356
0.017212345
0.017186527
0.017155138
0.017124639
0.017091161
0.017055214
0.017015647
0.016972888
0.016929005
0.016885001
0.016836781
0.016787517
0.016734346
0.016681739
0.016624027
0.016567352
0.016507228
0.016446617
0.016382365
0.016317721
0.016249181
0.016181595
0.016109119
0.01603756
0.015961162
0.015885182
0.01580766
0.015727348
0.01564713
0.01556422
0.015478415
0.015390903
0.01529993
0.015203206
0.015086037
0.014920935
0.014819217
0.014702091
0.01457345
0.01442419
0.014257195
0.014090661
0.013774367
0.013493087
0.013117459
0.012614567
0.0098950105
0.012485291
0.0086117944
0.0089969196
0.0092018701
0.010931441
0.011978211
0.013883645
0.014293052
0.014248072
0.014224009
0.013633854
0.013309566
0.012875792
0.012404502
0.0098260166
0.0059496203
0.0037117644
0.0027765836
0.0023058536
0.0024748414
0.0031454947
0.0023560045
0.0021517591
0.0030060052
0.0036109052
0.0048460918
0.0068012626
0.01438795
0.014535042
0.014666617
0.014825332
0.014967836
0.015139263
0.015289557
0.015358752
0.015418699
0.015560636
0.015737914
0.015884565
0.016057073
0.016192145
0.016355271
0.016494733
0.016554206
0.016595123
0.016717894
0.01685082
0.016960842
0.017074284
0.017161644
0.017189418
0.017204029
0.01727126
0.017342131
0.017389412
0.017441573
0.01747506
0.0174747
0.017452074
0.01747425
0.017491973
0.017495989
0.01748063
0.017452424
0.017454954
0.017447044
0.017423378
0.017378919
0.017363223
0.017334765
0.017299304
0.017253268
0.01722093
0.017175188
0.017130991
0.017072371
0.017032743
0.0169848
0.016936542
0.016886486
0.016823953
0.016770121
0.016719439
0.016775295
0.016711641
0.01665618
0.016593751
0.016534676
0.016468077
0.016404093
0.016318798
0.016243254
0.016171097
0.016110761
0.016043844
0.015972822
0.015904427
0.015830762
0.015754315
0.015675234
0.015596907
0.015515103
0.015430365
0.01534304
0.015251657
0.015152731
0.015029682
0.014860982
0.014757482
0.014634158
0.01449954
0.01434496
0.014160403
0.01399222
0.014119367
0.013792524
0.013548414
0.013198054
0.012715851
0.0097994777
0.0078099503
0.0040728908
0.003137372
0.002371525
0.0029447143
0.002798319
0.002418773
0.0027091791
0.0033142542
0.0043464899
0.0067393303
0.0090816598
0.014129453
0.014192257
0.014384543
0.014447051
0.014666097
0.01473524
0.01497368
0.015048934
0.015294367
0.015371449
0.015607531
0.01568711
0.015923498
0.016004022
0.01608343
0.016120778
0.01616426
0.016222064
0.016429736
0.016495901
0.016684308
0.016742619
0.016903434
0.016950957
0.017073795
0.017112478
0.017206325
0.017233846
0.017249356
0.01722518
0.017212728
0.017227855
0.017266395
0.017277224
0.01729785
0.017300853
0.017292669
0.01724667
0.017215618
0.017217238
0.017209313
0.017203347
0.01717867
0.017162589
0.017131599
0.017064201
0.017020151
0.017004867
0.01694669
0.016923741
0.016893546
0.016835742
0.016800227
0.016739853
0.016705859
0.016636815
0.016602812
0.016530574
0.016516864
0.016386499
0.016318459
0.016258748
0.01618589
0.016118769
0.01603117
0.015965965
0.015899225
0.015828377
0.015755614
0.015678256
0.015600867
0.01552231
0.015441871
0.0153553
0.015263953
0.015160762
0.015066292
0.014898069
0.014787629
0.014672011
0.014537656
0.014380857
0.014231877
0.013923764
0.013646318
0.013274907
0.012805185
0.0099434402
0.0074538425
0.0043042704
0.0023809779
0.0023198525
0.0038980688
0.002932235
0.0021473823
0.0024525412
0.0032484087
0.0029596365
0.0020883965
0.0029860374
0.0024601096
0.002874355
0.0028417251
0.0027344623
0.0023074997
0.0012875266
0.0019453732
0.0017599718
0.0036711388
0.0026973377
0.0025570764
0.0027724293
0.0029978106
0.0028644756
0.0030204922
0.0057065927
0.0091988402
0.012139859
0.013024907
0.013442586
0.013742519
0.013954026
0.014223028
0.014241527
0.014411432
0.014559155
0.014686356
0.014802404
0.014897333
0.015059248
0.015064686
0.015182282
0.015276587
0.015366797
0.015451546
0.015532784
0.015613015
0.015692191
0.015768338
0.015842588
0.015913403
0.015981585
0.016041483
0.016122442
0.016126664
0.016203728
0.01627075
0.016337007
0.016406017
0.016485161
0.016547663
0.016617416
0.016673443
0.016736974
0.016794037
0.016873464
0.016925477
0.016961885
0.016997785
0.017041774
0.017056174
0.01713037
0.017184636
0.017209202
0.017232679
0.017252309
0.017260462
0.017262111
0.017252249
0.01731845
0.017374785
0.017356709
0.017353526
0.017333637
0.017316282
0.017277768
0.017246712
0.017302504
0.017359197
0.017294857
0.017256951
0.017175653
0.017118499
0.017013908
0.016943974
0.016806788
0.016722821
0.016564065
0.016465934
0.016284636
0.016188376
0.016213062
0.016266702
0.016079578
0.015969599
0.015768498
0.015650432
0.015447749
0.015332025
0.015123474
0.015009917
0.014805214
0.014701276
0.014512971
0.014418895
0.014251729
0.014156243
0.032165176
0.032186933
0.032209315
0.032232474
0.032256528
0.03228156
0.032307612
0.032334677
0.032362691
0.032391527
0.032420988
0.032450797
0.032480642
0.032510083
0.032538724
0.032566206
0.032592353
0.03261724
0.032641261
0.032665073
0.032663473
0.032639293
0.032614933
0.032589761
0.032563391
0.032535742
0.03250698
0.032477449
0.032447532
0.032417652
0.032388121
0.032359208
0.032331108
0.032303945
0.032277781
0.032252625
0.032228436
0.032205133
0.032182597
0.032160679
0.032105153
0.03212257
0.032138625
0.032151728
0.03217397
0.032161353
0.032145926
0.032129234
0.032112625
0.032097026
0.032082964
0.032070679
0.03206023
0.032051583
0.032044653
0.032039311
0.032035382
0.032032664
0.032030983
0.032060856
0.032062435
0.032064982
0.032068661
0.032073668
0.032080177
0.032088313
0.032098165
0.032109777
0.03212311
0.032137953
0.03215382
0.032169823
0.032184656
0.032196813
0.032220402
0.032208674
0.032194392
0.032179028
0.032163853
0.032149714
0.032137067
0.03212609
0.032116805
0.032109156
0.032103052
0.032098366
0.032094929
0.032092547
0.032091068
0.032121648
0.032123034
0.032125256
0.032128463
0.032132841
0.032138562
0.032145754
0.03215451
0.032164899
0.032176916
0.032190409
0.032204955
0.032219738
0.032233519
0.032244854
0.032270249
0.032259269
0.032245936
0.03223167
0.032217684
0.032204769
0.03219332
0.032183468
0.032175196
0.032168428
0.032163064
0.032158974
0.032155987
0.032153914
0.032152618
0.032183985
0.032185198
0.032187129
0.032189912
0.032193733
0.032198768
0.032205149
0.032212983
0.032222356
0.0322333
0.032245708
0.032259206
0.032273024
0.032285963
0.032296628
0.032323982
0.032313594
0.032300993
0.032287559
0.032274477
0.032262506
0.032252001
0.032243052
0.03223561
0.032229578
0.032224843
0.03222127
0.032218677
0.032216878
0.032215742
0.03224787
0.032248935
0.032250612
0.032253029
0.032256374
0.032260835
0.032266553
0.032273646
0.032282223
0.032292346
0.032303943
0.032316674
0.032329787
0.032342102
0.032352251
0.032381312
0.032371368
0.032359295
0.03234645
0.032334018
0.032322745
0.032312957
0.032304712
0.032297933
0.032292501
0.03228829
0.032285154
0.032282901
0.032281337
0.032280337
0.032313101
0.032314041
0.032315501
0.032317602
0.032320543
0.03232452
0.032329687
0.032336176
0.032344115
0.032353594
0.032364574
0.032376738
0.032389347
0.032401213
0.032410977
0.032440985
0.032431392
0.032419724
0.032407344
0.032395445
0.032384758
0.032375584
0.032367945
0.032361738
0.032356826
0.032353071
0.032350315
0.032348358
0.032346997
0.032346113
0.032379326
0.032380156
0.032381421
0.032383238
0.032385811
0.032389345
0.032393998
0.032399912
0.032407232
0.032416075
0.032426435
0.032438036
0.032450158
0.032461613
0.032471031
0.032500724
0.032491526
0.032480349
0.032468564
0.032457345
0.032447384
0.032438933
0.032431976
0.032426383
0.032422006
0.032418703
0.032416316
0.032414639
0.032413468
0.032412689
0.032446165
0.032446894
0.032447972
0.032449506
0.0324517
0.032454758
0.032458832
0.032464059
0.032470589
0.032478561
0.032488009
0.032498716
0.032510032
0.032520813
0.032529704
0.032557663
0.032549218
0.032539007
0.032528344
0.032518318
0.032509523
0.032502139
0.032496113
0.032491304
0.032487567
0.032484772
0.032482779
0.032481391
0.032480408
0.032479728
0.032513371
0.032514001
0.032514888
0.032516127
0.032517909
0.032520422
0.032523792
0.032528132
0.032533575
0.032540259
0.032548251
0.032557411
0.032567208
0.032576638
0.032584461
0.032610193
0.032603183
0.032594747
0.032586019
0.032577897
0.032570838
0.032564947
0.03256015
0.032556321
0.032553344
0.032551127
0.032549561
0.032548473
0.032547681
0.032547101
0.032580943
0.032581475
0.032582173
0.03258311
0.032584459
0.032586377
0.03258895
0.032592246
0.032596359
0.032601398
0.032607438
0.032614402
0.032621911
0.032629183
0.032635227
0.03266014
0.032655144
0.032649112
0.032642884
0.03263712
0.032632123
0.032627945
0.032624519
0.032621754
0.032619582
0.032617958
0.032616821
0.032616027
0.032615421
0.032614935
0.01141971
0.01146218
0.011521929
0.011565656
0.01162708
0.011672518
0.011733854
0.011780172
0.011841479
0.011888046
0.01194778
0.011993891
0.012052538
0.012097964
0.012154426
0.012198855
0.012254044
0.01229804
0.012351527
0.012394931
0.01244673
0.01248893
0.01253924
0.012581205
0.012631221
0.012673862
0.012723825
0.012767572
0.012817869
0.012862532
0.01291359
0.01296021
0.013013088
0.013062504
0.013117463
0.013170003
0.013227203
0.013282641
0.013342236
0.01340118
0.013463757
0.013526338
0.013591528
0.013658455
0.013727213
0.013798217
0.013869669
0.013945079
0.01402023
0.014099984
0.014177864
0.01426211
0.014343564
0.014432236
0.014516402
0.01460966
0.014697207
0.014794893
0.014884744
0.014986632
0.015079271
0.015185306
0.015279143
0.015387596
0.015482113
0.01559278
0.01568624
0.015797848
0.015889276
0.016000177
0.016088767
0.016185784
0.016258847
0.016312947
0.016313862
0.016198488
0.015972559
0.015330542
0.011253358
0.0073941435
0.0058275752
0.0068779283
0.010106983
0.014323521
0.01470922
0.015045309
0.015259567
0.015441885
0.015445949
0.015544058
0.015458399
0.015512744
0.015394171
0.015413834
0.015287026
0.015280745
0.015155353
0.015131892
0.015010368
0.014975065
0.014858742
0.01481497
0.014705649
0.014656876
0.014554686
0.014501811
0.014406858
0.014351502
0.014263924
0.014206703
0.014126317
0.014067995
0.013994689
0.013935196
0.013868569
0.013808824
0.013748844
0.013688416
0.013634447
0.013574172
0.013526376
0.013465792
0.013423311
0.013362913
0.013325771
0.01326526
0.01323256
0.013172074
0.013144237
0.013083569
0.013059935
0.012999177
0.012979458
0.012917734
0.012900758
0.012837906
0.012824239
0.012759706
0.012748648
0.01268236
0.012673757
0.012604507
0.012597234
0.01252491
0.012519999
0.012443994
0.012441044
0.012361892
0.012361163
0.012277616
0.01227867
0.01219172
0.012195459
0.012104214
0.012110409
0.012016218
0.012025868
0.011928204
0.011941014
0.011841211
0.011857112
0.01232208
0.012385428
0.012449052
0.012510249
0.012571918
0.0126311
0.012690513
0.012747387
0.01280512
0.012860783
0.012917386
0.012973432
0.013031467
0.013090225
0.013151659
0.013214921
0.013281678
0.013351126
0.013424212
0.013500449
0.01358029
0.013663542
0.013749706
0.013838994
0.013931114
0.014025693
0.014121599
0.014218812
0.014313648
0.014402947
0.014481355
0.014540314
0.014566651