/*--------------------------------*- C++ -*----------------------------------*\
| =========                 |                                                 |
| \\      /  F ield         | OpenFOAM: The Open Source CFD Toolbox           |
|  \\    /   O peration     | Version:  v2012                                 |
|   \\  /    A nd           | Website:  www.openfoam.com                      |
|    \\/     M anipulation  |                                                 |
\*---------------------------------------------------------------------------*/
FoamFile
{
    version     2.0;
    format      ascii;
    class       volScalarField;
    location    "200";
    object      omega;
}
// * * * * * * * * * * * * * * * * * * * * * * * * * * * * * * * * * * * * * //

dimensions      [0 0 -1 0 0 0 0];


internalField   nonuniform List<scalar> 
33005
(
8.8181024
8.85976
8.9019133
8.9446151
8.9879089
9.0318277
9.0763937
9.1216114
9.1674675
9.2139285
9.2609369
9.3083982
9.3562025
9.4042101
9.4522865
9.5003123
9.5482386
9.5961215
9.6441543
9.692641
9.6751177
9.6226986
9.570873
9.519614
9.4688987
9.4187092
9.3690334
9.319865
9.2712016
9.223045
9.175398
9.128262
9.0816386
9.0355251
8.9899151
8.9447987
8.9001619
8.8559878
8.8122564
8.8126024
8.8133327
8.8145176
8.816204
8.8183924
8.8210429
8.9238402
8.9210721
8.9182812
8.9154403
8.9125136
8.9094585
8.9062309
8.9027934
8.899124
8.8952272
8.8911408
8.886936
8.8827122
8.8785772
8.8746299
8.8709483
8.8675878
8.864589
8.8619925
8.8598471
8.8581947
8.8570361
8.8563242
8.9004878
8.9011784
8.9023067
8.9039205
8.9060174
8.9085541
8.9114805
8.9147543
8.9183326
8.9221566
8.9261452
8.9301981
8.9342106
8.9380909
8.9417785
8.9452473
8.948502
8.9515704
8.9544912
8.9573073
8.9600577
8.962774
8.9654794
9.0076311
9.0049964
9.0023609
8.9997051
8.9970009
8.994212
8.991297
8.9882158
8.9849355
8.981443
8.9777543
8.9739204
8.9700266
8.9661762
8.962471
8.9589949
8.9558096
8.9529594
8.9504876
8.9484444
8.9468743
8.9457803
8.945113
8.990216
8.9908569
8.9919137
8.9934362
8.9954211
8.9978239
9.000595
9.0036918
9.0070692
9.0106638
9.0143889
9.0181406
9.0218164
9.0253353
9.0286536
9.0317639
9.0346864
9.0374582
9.0401212
9.0427156
9.0452755
9.0478261
9.0503837
9.0529578
9.0555504
9.0988255
9.0963081
9.0938114
9.0913348
9.0888709
9.0864056
9.0839157
9.081369
9.0787254
9.0759419
9.0729775
9.0698065
9.0664301
9.0628869
9.0592557
9.0556398
9.0521454
9.0488617
9.0458526
9.0431626
9.0408324
9.0389102
9.0374396
9.0364238
9.0358115
9.0819093
9.0824906
9.0834622
9.0848769
9.0867321
9.0889858
9.0915927
9.094515
9.0977105
9.1011156
9.1046396
9.108174
9.1116129
9.1148777
9.1179321
9.1207788
9.1234474
9.1259814
9.1284257
9.1308199
9.1331955
9.1355739
9.1379684
9.1403848
9.1428227
9.1875787
9.1852206
9.1828835
9.1805684
9.1782701
9.1759757
9.1736645
9.1713056
9.1688588
9.1662786
9.1635193
9.1605493
9.1573644
9.1540013
9.1505412
9.1470929
9.1437675
9.1406561
9.1378206
9.1352996
9.1331264
9.1313425
9.1299877
9.1290639
9.1285159
9.175633
9.1761456
9.177019
9.1783098
9.1800178
9.1821058
9.1845368
9.1872833
9.1903118
9.1935637
9.1969483
9.200353
9.203665
9.206799
9.2097156
9.2124178
9.2149375
9.2173208
9.2196143
9.2218585
9.2240843
9.2263124
9.2285559
9.2308192
9.2331016
9.2793699
9.2771543
9.2749541
9.2727701
9.2705978
9.2684239
9.2662276
9.2639776
9.2616329
9.2591469
9.2564739
9.253584
9.2504773
9.2471983
9.2438373
9.240511
9.2373324
9.2343901
9.2317378
9.2294029
9.2274061
9.2257792
9.2245563
9.2237364
9.2232608
9.2713983
9.2718344
9.2725974
9.2737482
9.2752886
9.2771872
9.2794179
9.2819672
9.284815
9.2879137
9.2911787
9.2944979
9.2977522
9.3008462
9.3037292
9.3063957
9.3088722
9.311202
9.3134312
9.3156007
9.317742
9.3198769
9.3220181
9.3241705
9.3263338
9.3717879
9.369664
9.3675458
9.3654276
9.363297
9.3611316
9.3589002
9.356563
9.3540761
9.3513999
9.3485134
9.3454284
9.342202
9.3389336
9.3357431
9.3327392
9.3300008
9.3275678
9.3254523
9.3236603
9.3222128
9.3211387
9.3204355
9.3200411
9.3691875
9.3695385
9.3701792
9.3711722
9.3725201
9.3741955
9.3761824
9.3784817
9.3810899
9.3839753
9.387067
9.3902623
9.3934437
9.3965102
9.3993989
9.4020912
9.4046014
9.4069636
9.4092181
9.4114022
9.4135459
9.4156704
9.4177889
9.4199071
9.4684124
9.466275
9.4641326
9.4619799
9.4598042
9.4575854
9.4552956
9.452901
9.4503663
9.4476642
9.4447878
9.4417625
9.4386551
9.4355649
9.4326038
9.4298657
9.4274123
9.4252659
9.423422
9.4218731
9.420631
9.4197232
9.4191477
9.4188411
9.4690072
9.4692679
9.4697771
9.4705973
9.4717284
9.4731422
9.4748296
9.4768039
9.4790773
9.4816362
9.4844304
9.487377
9.4903728
9.4933239
9.4961619
9.4988563
9.5014062
9.5038316
9.5061611
9.5084238
9.5106441
9.5128404
9.5150237
9.5171987
9.566181
9.5639556
9.5617213
9.5594749
9.5572073
9.5549029
9.5525414
9.5500997
9.547556
9.5448982
9.542134
9.5392973
9.5364549
9.5336932
9.5311015
9.528751
9.5266806
9.5248949
9.5233751
9.5221032
9.5210862
9.5203548
9.5199125
9.5196984
9.5709329
9.5711005
9.5714763
9.5721193
9.5730214
9.5741484
9.5754936
9.5770787
9.5789282
9.5810461
9.5834045
9.5859456
9.5885936
9.5912724
9.5939219
9.596506
9.5990118
9.601444
9.6038171
9.6061484
9.6084537
9.6107446
9.6130278
9.6153053
9.6645611
9.6622424
9.6599251
9.6576085
9.6552888
9.6529581
9.6506051
9.6482186
9.6457902
9.6433221
9.6408295
9.6383469
9.6359276
9.6336358
9.6315329
9.6296634
9.6280446
9.6266654
9.6254964
9.6245137
9.6237241
9.623167
9.6228559
9.6227341
9.6751295
9.675207
9.6754568
9.6759324
9.6766145
9.6774579
9.6784542
9.6796292
9.6810159
9.6826315
9.6844677
9.6864926
9.6886584
9.6909135
9.6932131
9.6955254
28.988574
29.185567
29.488101
29.702626
30.083796
30.367476
30.788814
30.887686
30.749934
30.582152
30.568155
30.492384
30.213144
29.917931
29.662938
29.389418
29.130403
21.149311
21.289051
21.323879
21.376083
21.435452
21.513519
21.582309
21.657822
21.724678
21.803889
21.880922
21.979537
22.083783
22.22589
22.376908
22.585489
22.832931
23.194482
23.591666
24.136129
24.741582
25.570672
26.395518
27.42896
28.451544
29.721512
30.824942
32.010729
32.597349
33.352212
34.238804
34.659769
34.775269
34.72393
34.562749
34.33821
34.333212
34.413891
34.256742
33.782964
32.906652
32.53498
31.699727
30.542033
29.437721
28.200258
27.173952
26.177631
25.350598
24.541107
23.931708
23.402582
23.001794
22.64524
22.392771
22.186387
22.033193
21.893275
21.787292
21.692378
21.615952
21.539438
21.472879
21.401855
21.335555
21.264342
21.206196
21.153271
21.113309
20.956131
20.812464
20.675169
20.539939
20.574255
20.712545
20.852535
20.998536
21.050432
20.903582
20.761622
20.620765
20.66921
20.813193
20.957957
21.107715
21.173577
21.019991
20.872188
20.725343
20.582631
20.443585
20.308621
20.174346
20.219915
20.356635
20.493887
20.635454
20.780604
20.930549
21.081382
21.237654
21.304758
21.147019
20.994029
20.841933
20.694253
20.550434
20.410591
20.271739
20.324594
20.465204
20.607836
20.753499
20.901927
21.05612
21.211102
21.370325
21.443902
21.283038
21.127093
20.971974
20.822867
20.675444
20.530679
20.388541
20.246359
20.089562
19.916683
20.157111
20.314057
20.458083
20.601785
20.746668
20.893856
21.045055
21.201791
21.358425
21.520278
21.612667
21.450604
21.294489
21.13689
20.983413
20.836023
20.691674
20.546438
20.39945
20.243174
20.087987
20.344886
20.50199
20.649146
20.794849
20.939333
21.088135
21.241903
21.399843
21.556765
21.719873
21.858343
21.694483
21.535577
21.378401
21.223877
21.073149
20.927515
20.781683
20.63406
20.476838
20.351288
20.63399
20.792136
20.938764
21.084485
21.230892
21.382085
21.53574
21.692728
21.851583
22.0147
22.219865
22.057342
21.898646
21.741452
21.587143
21.435422
21.287923
21.141289
20.992925
20.836211
20.756998
21.08615
21.245058
21.394555
21.542342
21.691283
21.843928
21.998991
22.156563
22.31445
22.476193
22.826044
22.659546
22.497743
22.337949
22.180627
22.024943
21.872057
21.720744
21.567455
21.409596
21.39766
21.787566
21.950264
22.105865
22.261087
22.418301
22.577873
22.737007
22.899794
23.063492
23.230438
23.747653
23.574749
23.405439
23.236889
23.071962
22.906462
22.742531
22.580742
22.418085
22.251035
22.307831
22.798349
22.974402
23.144618
23.315631
23.488442
23.661916
23.833632
24.009682
24.18377
24.359439
25.145235
24.950315
24.757794
24.567464
24.379764
24.192762
24.006769
23.823097
23.638448
23.454041
23.57727
24.16634
24.366071
24.563582
24.761873
24.961284
25.162153
25.363069
25.566337
25.768871
25.972168
26.937627
26.711575
26.488235
26.265641
26.045511
25.827501
25.609982
25.39318
25.174937
24.957208
25.094585
25.809821
26.049958
26.287581
26.526482
26.765359
27.005175
27.245069
27.48746
27.726281
27.963412
29.157371
28.882912
28.609135
28.33556
28.062194
27.791844
27.522328
27.256003
26.988278
26.723379
26.823474
27.599998
27.890907
28.181762
28.474248
28.769041
29.065304
29.363968
29.663642
29.960962
30.256212
31.34775
31.007535
30.673737
30.34342
30.016435
29.694401
29.37515
29.057839
28.738661
28.4189
28.363711
29.149707
29.490265
29.82672
30.161295
30.495747
30.832892
31.174949
31.518658
31.859619
32.199015
32.985916
33.370797
33.861016
33.480671
33.110397
32.618828
32.255429
31.894743
31.538729
31.189151
30.843182
30.49755
30.14357
29.781269
29.518918
30.272338
30.649437
31.001233
31.340133
31.682837
32.0316
32.386499
32.74756
32.990822
33.336704
33.687397
34.049086
34.016837
33.70867
33.399059
33.08063
32.759659
32.652747
32.317082
31.984968
31.658115
31.340237
31.020404
31.175153
31.493447
31.803836
32.121103
32.439375
32.489873
32.175452
31.859676
31.537572
31.201956
30.87976
30.566883
30.377554
30.29833
30.0424
29.797276
29.530404
29.267733
21.594208
21.593516
21.637621
21.766478
21.905584
21.914503
21.962341
21.984056
22.073286
22.113074
22.269421
22.314328
22.437568
22.477228
22.596518
22.639199
22.782137
22.838471
23.037448
23.116486
23.3937
23.523504
24.03096
24.245453
25.048948
25.378469
26.606858
27.06212
28.664908
29.228986
31.181946
31.795498
33.688603
34.212659
35.582689
35.850409
36.008812
36.327179
36.766869
36.735293
36.380492
36.18154
36.329442
35.88719
35.493146
35.442824
35.068143
33.919086
33.157484
31.599148
30.716968
29.092515
28.2764
26.945141
26.286924
25.254377
24.776663
24.101501
23.790623
23.359023
23.169213
22.929655
22.813771
22.644134
22.562072
22.442623
22.381378
22.282119
22.225728
22.12506
22.062583
21.941389
21.886029
21.813373
21.782438
21.746684
21.745732
21.561995
21.37847
21.400854
21.397397
21.192558
21.196262
21.1893
21.193222
21.38066
21.562247
21.596507
21.420941
21.457895
21.632635
21.69502
21.513051
21.573234
21.755307
21.853951
21.657595
21.727417
21.922627
22.009871
21.806552
21.872075
22.072931
22.160424
21.953021
22.029006
22.2311
22.338519
22.130746
22.233194
22.433958
22.589543
22.379612
22.526868
22.725075
22.946881
22.738852
22.979105
23.16802
23.562337
23.350477
23.739054
23.922161
24.529074
24.302142
24.895325
25.080158
26.008752
25.755053
26.565443
26.764753
27.94403
27.643448
28.6483
28.882261
30.325942
29.969906
31.035857
31.324428
32.683482
32.218229
32.212302
30.970284
29.921797
28.48648
27.501038
26.4254
25.636191
24.717442
24.134752
23.573005
23.195304
22.799991
22.561975
22.348354
22.204951
22.051967
21.951235
21.853243
21.781513
21.703813
21.641204
21.568289
21.504299
21.429146
21.373213
21.32347
21.292881
21.272217
21.267369
21.292641
21.278274
21.96825
22.210463
22.441602
22.772074
22.942259
23.116242
23.306206
23.304606
23.313538
23.326671
23.349004
23.374406
23.409122
23.445924
23.492328
23.536121
23.556488
23.382828
23.359879
23.337165
23.295627
23.250845
23.214274
23.181482
23.156922
23.136532
23.12305
23.115493
22.942947
22.772119
22.438081
22.778091
22.95014
22.963297
22.791522
22.460466
22.809428
22.982558
23.005936
22.831945
22.504563
22.863262
23.038892
23.075743
22.899206
22.573146
22.942117
23.120756
23.165885
22.994163
22.697238
23.072387
23.207652
23.208933
23.352215
23.790199
24.081365
24.333543
24.576329
24.816978
25.060847
25.307499
25.559004
25.811548
26.06977
26.32971
26.594244
26.859314
27.129808
27.400031
27.673919
27.947209
28.225956
28.506603
28.80369
29.118977
29.477505
29.834369
30.120075
30.395011
30.726286
31.076266
31.421397
31.772449
32.094578
32.370884
32.744187
33.128269
33.567701
34.011927
34.483966
34.978214
35.498022
36.034309
36.601616
37.189742
37.799183
38.425518
39.085556
39.790278
40.607487
41.408434
42.50134
43.394562
44.336126
45.324736
46.350272
47.609519
49.732128
50.872415
52.260027
53.950181
57.687397
59.14193
59.911117
61.042122
55.04251
55.404318
48.434574
41.0217
42.04039
33.136351
23.447298
28.30358
29.001135
18.531159
13.412089
11.530406
10.713867
10.546343
10.446378
10.589659
10.867071
11.142348
12.437343
16.225019
22.753318
28.672147
26.253887
23.642128
22.022452
25.670552
28.870797
30.695617
34.145654
38.022671
40.063442
37.164067
42.383637
54.64568
55.651122
57.350865
56.432158
52.921455
51.762665
50.615732
49.42632
47.495069
46.45261
45.381241
44.389164
43.451204
42.574839
41.851356
41.026579
40.769158
39.887339
39.182487
38.524341
37.899177
37.291177
36.70309
36.134325
35.593434
35.067723
34.569792
34.090785
33.635112
33.193168
32.76294
32.33023
31.917897
31.524227
31.153156
30.777159
30.374024
29.976987
29.617513
29.281775
28.968456
28.665363
28.374724
28.086084
27.804187
27.523218
27.247493
26.972269
26.703601
26.435597
26.172085
25.911152
25.655858
25.401714
25.153028
24.906745
24.662971
24.416932
24.158619
23.858593
23.485834
23.934616
24.238683
24.499733
24.747303
24.993763
25.24242
25.492483
25.749266
26.006651
26.269143
26.535472
26.805647
27.077655
27.357352
27.636718
27.922927
28.210959
28.507798
28.805489
29.115277
29.431558
29.763876
30.110265
30.476764
30.850495
31.230696
31.611093
32.00979
32.416397
32.83633
33.266238
33.714782
34.177062
34.663877
35.167055
35.694868
36.241005
36.810169
37.395546
38.005153
38.63514
39.298451
40.009874
40.84369
41.968366
42.725107
43.583722
44.507566
45.507913
46.61383
48.36147
49.225899
50.210318
51.128145
51.414167
54.265187
54.393601
49.902537
48.933888
47.466504
50.595167
55.603876
47.283138
42.763715
50.618399
58.864428
60.653721
53.976101
54.337557
55.109046
54.564744
51.773867
51.531463
50.535629
49.540602
48.599148
46.763623
45.71451
44.726316
43.828669
42.960867
42.110143
41.025498
40.239529
39.450934
38.770599
38.13559
37.522219
36.935231
36.364632
35.811884
35.279789
34.773178
34.276256
33.80871
33.355149
32.921679
32.500214
32.09589
31.699177
31.318585
30.943567
30.581601
30.225922
29.885691
29.554325
29.236886
28.92401
28.623475
28.32267
28.03117
27.742576
27.461952
27.179872
26.905539
26.635187
26.367413
26.103633
25.845279
25.586973
25.336139
25.086215
24.838206
24.58939
24.326155
24.01764
23.641419
24.106335
24.415996
24.680741
24.930037
25.178102
25.429245
25.680547
25.938797
26.197998
26.461781
26.729432
27.001872
27.276721
27.559003
27.840609
28.130422
28.424305
28.725358
29.028711
29.342227
29.660745
29.991676
30.328821
30.680748
31.03845
31.412056
31.792902
32.191094
32.598636
33.025389
33.465171
33.924203
34.400876
34.907568
35.420386
35.96308
36.523592
37.103319
37.704101
38.332066
38.985243
39.691789
40.572061
41.690926
42.42088
43.290434
44.193174
45.122966
46.222235
47.172413
49.06635
50.17617
51.192201
52.057448
55.355198
55.799987
53.65183
56.986323
57.493366
62.847531
59.257458
50.056841
46.634179
37.698325
39.509107
44.905503
55.293596
51.80776
42.889093
46.865767
50.089743
53.868518
48.802451
48.617578
46.655308
39.333308
46.76159
49.060937
54.080608
53.999473
62.634251
57.31434
57.034478
56.953917
52.678241
52.026057
50.78982
49.627401
48.630659
46.931389
46.690966
45.510672
44.535258
43.582666
42.685704
41.834216
40.756991
39.994267
39.21057
38.530469
37.885932
37.272396
36.682135
36.113886
35.562192
35.040934
34.530142
34.046049
33.580772
33.134731
32.703333
32.290967
31.890776
31.507912
31.134176
30.776726
30.426186
30.089686
29.759974
29.440907
29.128093
28.823149
28.5228
28.228429
27.938234
27.657409
27.375526
27.101602
26.828343
26.561439
26.299224
26.039472
25.782191
25.531895
25.28053
25.033467
24.784976
24.518942
24.207693
23.837202
24.322455
24.633774
24.898463
25.146751
25.391914
25.640992
25.891815
26.148072
26.405677
26.666727
26.932621
27.205486
27.479013
27.758894
28.038522
28.328238
28.622012
28.923268
29.22733
29.540652
29.860139
30.189208
30.526195
30.876888
31.235426
31.610033
31.995031
32.397333
32.813556
33.247697
33.697827
34.167753
34.654665
35.167451
35.693467
36.248187
36.818606
37.413342
38.031518
38.687739
39.391095
40.254651
41.332336
42.038903
42.917583
43.844729
44.850445
45.921765
46.947454
48.8345
50.058114
51.28233
52.6423
56.03947
52.894971
49.588646
41.815329
42.539579
43.834966
43.997506
44.785646
45.55581
46.170207
46.622686
50.473331
51.79796
53.201967
54.16626
57.92888
58.662096
56.786569
62.446341
54.238894
52.021306
45.124269
34.858623
25.287922
19.966002
14.645623
11.975116
10.881441
30.546608
30.359039
30.187367
29.96192
29.75359
29.491345
29.27149
29.233817
29.274416
29.044382
28.762079
28.535493
28.272869
28.071858
27.820548
27.626771
27.604737
27.674643
27.497698
27.30995
27.159641
27.005099
26.897535
26.926866
27.028747
26.929071
26.82614
26.756733
26.668941
26.623633
26.684289
26.84043
26.803091
26.77218
26.771281
26.852732
27.010125
26.99864
27.01714
27.116971
27.316173
27.344828
27.402977
27.524753
27.728098
27.784893
27.881432
28.033315
28.28276
28.426587
28.652601
28.786195
28.979541
29.270628
29.500727
29.794279
29.669562
30.025011
30.358489
30.715863
31.063242
31.447427
31.828156
32.294342
32.72853
33.08317
33.480681
33.921391
34.38845
34.871429
35.381063
35.910949
36.470969
37.053946
37.661892
38.285962
38.940124
39.626562
40.37143
41.298009
42.446169
43.21062
44.142286
45.114194
46.118114
47.289846
48.310582
48.013952
50.059382
51.137586
52.260922
53.415868
56.809326
57.586891
57.003747
61.140676
56.674224
46.624482
37.273403
26.840043
21.999463
16.223036
12.616134
11.135059
10.759193
31.873538
31.78997
31.538226
31.452177
31.114157
31.004554
30.604618
30.480177
30.067661
29.941238
29.557371
29.43035
29.060079
28.942144
28.870094
28.970164
29.059434
28.965655
28.659468
28.56143
28.292576
28.211306
27.987228
27.920557
27.754201
27.700469
27.573368
27.538332
27.562982
27.751418
27.919175
27.89124
27.841731
27.823853
27.800875
27.802262
27.863886
28.093033
28.293008
28.286707
28.318501
28.332051
28.399688
28.440798
28.553499
28.839746
29.073098
29.102822
29.251856
29.31488
29.446046
29.734397
29.965628
30.294589
30.54158
30.902714
31.156177
31.544336
31.73423
32.284839
32.697759
33.098061
33.552197
33.980945
34.439042
34.887542
35.364402
35.877131
36.417681
36.988617
37.583732
38.209311
38.855672
39.5285
40.245487
41.075924
41.881173
43.043657
43.936306
44.865706
45.82836
46.869031
47.817616
49.75997
50.852029
51.89363
52.946192
56.13363
56.564859
55.544294
60.28685
52.492815
44.405204
36.064369
27.123777
20.575853
23.348711
27.782471
28.560097
40.946133
46.507214
51.807755
59.685311
57.006233
53.164749
43.536686
47.996623
51.516453
55.120497
49.716628
49.705111
44.470713
39.425902
42.766641
54.857345
57.143756
56.817733
53.275819
52.724163
51.598449
50.485486
49.5562
47.729705
47.611177
46.422921
45.373647
44.392669
43.458691
42.698369
41.66526
41.529108
40.612304
39.866701
39.171943
38.510684
37.869047
37.257888
36.667999
36.108788
35.573974
35.072157
34.59249
34.179856
33.819728
33.739122
33.279582
32.849065
32.425724
32.009688
31.559791
31.186708
30.804378
30.474285
30.126676
29.812193
29.426487
29.111226
29.040339
28.957504
28.858005
28.840142
28.492158
28.190995
28.160892
28.108851
28.06122
28.042451
28.033504
28.067578
27.750403
27.461356
27.516843
27.518867
27.546845
27.575
27.635088
27.702015
27.407192
27.121921
27.248971
27.299659
27.411634
27.489924
27.63074
27.727471
27.919151
28.037116
28.267204
28.410939
28.682259
28.850048
28.591053
28.297506
28.613543
28.776269
29.088435
29.274493
29.60117
29.788013
30.132249
30.317804
30.655916
30.816051
31.101987
31.230194
31.449529
31.574374
8.8119723
8.8538347
8.8961796
8.9390624
8.9825301
9.0266188
9.0713532
9.1167414
9.1627731
9.209417
9.2566175
9.3042913
9.3523412
9.4006194
9.4490005
9.4973697
9.545683
9.5939903
9.642462
9.6913653
9.6907753
9.6417519
9.5931711
9.5447757
9.4963991
9.4479884
9.3995844
9.3512966
9.303247
9.2555759
9.2083798
9.161741
9.1157125
9.0703243
9.0255867
8.9814906
8.9380114
8.8951127
8.8527482
8.8108626
8.7965862
8.8010892
8.8052381
8.808601
8.8505366
8.8472556
8.8432157
8.8388382
8.8344923
8.8304294
8.8267844
8.8236062
8.820886
8.8185858
8.8166653
8.8151029
8.8138964
8.8130412
8.8125105
8.8562289
8.8567329
8.8575473
8.858698
8.8601875
8.8620177
8.864212
8.8668137
8.8698648
8.873378
8.8773093
8.8815287
8.8857914
8.8897341
8.8929434
8.9358765
8.9327273
8.9288677
8.924706
8.9205999
8.916789
8.9133988
8.9104688
8.9079816
8.9058911
8.9041504
8.9027339
8.9016393
8.9008657
8.9003889
8.9450117
8.9454611
8.9461936
8.9472323
8.9485771
8.9502307
8.9522216
8.9546008
8.9574191
8.9606983
8.9644033
8.9684124
8.9724895
8.9762813
8.9793823
9.0234974
9.0204326
9.0166932
9.0126827
9.0087523
9.0051363
9.0019535
8.9992354
8.9969555
8.9950582
8.9934877
8.9922125
8.9912284
8.9905368
8.9901145
9.0357108
9.0361064
9.0367584
9.0376897
9.0388985
9.0403908
9.0422018
9.0443925
9.0470233
9.0501253
9.0536704
9.0575412
9.0615037
9.0652067
9.0682471
9.1136409
9.1106135
9.1069317
9.1029994
9.0991698
9.0956783
9.0926415
9.0900849
9.0879734
9.0862408
9.0848212
9.0836749
9.0827941
9.0821803
9.0818108
9.1284206
9.1287647
9.1293421
9.130175
9.1312626
9.1326148
9.1342758
9.1363175
9.1388113
9.1417962
9.1452494
9.1490536
9.1529711
9.1566452
9.1596692
9.2063032
9.2032745
9.1995975
9.1956835
9.1918935
9.1884685
9.1855262
9.1830874
9.1811088
9.1795137
9.1782246
9.1771925
9.1764052
9.1758635
9.1755439
9.2231786
9.2234744
9.2239824
9.2247262
9.2257053
9.2269342
9.2284663
9.2303847
9.2327714
9.235674
9.2390737
9.2428529
9.246768
9.2504534
9.253492
9.3011573
9.2981105
9.2944201
9.2905097
9.2867486
9.2833813
9.2805242
9.2781934
9.2763371
9.2748685
9.2736992
9.2727716
9.2720699
9.2715945
9.2713222
9.3199736
9.3202224
9.3206649
9.3213242
9.3221992
9.3233062
9.3247061
9.3264918
9.3287544
9.3315497
9.3348649
9.3385871
9.3424741
9.3461564
9.3492043
9.3975052
9.3944797
9.3908383
9.3870129
9.3833683
9.3801397
9.3774346
9.3752615
9.3735613
9.3722396
9.3712004
9.3703808
9.3697649
9.3693558
9.3691302
9.4187937
9.4189956
9.4193713
9.4199425
9.4207031
9.4216671
9.422898
9.4244931
9.4265483
9.4291249
9.4322185
9.4357296
9.4394353
9.4429834
9.4459474
9.4944349
9.4915917
9.4882105
9.4847014
9.4813939
9.4784936
9.4760906
9.4741858
9.4727183
9.4715926
9.4707119
9.4700142
9.4694894
9.4691478
9.4689702
9.5196718
9.5198246
9.5201319
9.5206088
9.5212396
9.522029
9.5230359
9.5243541
9.5260759
9.5282597
9.5309061
9.5339342
9.5371603
9.5402875
9.5429364
9.5915101
9.5891327
9.5863465
9.5834853
9.5808052
9.5784658
9.5765397
9.5750275
9.5738762
9.5729989
9.5723068
9.5717454
9.5713173
9.5710449
9.5709171
9.6227293
9.622832
9.6230699
9.6234498
9.6239414
9.6245339
9.625276
9.6262503
9.6275363
9.6291795
9.631176
9.6334595
9.6358945
9.6382719
9.6403144
9.6895859
9.6879117
9.6859758
9.6839934
9.6821253
9.6804837
9.67913
9.678074
9.677278
9.6766708
9.6761763
9.6757523
9.6754183
9.6752131
9.6751348
39.600368
39.849943
40.063935
40.340113
40.580576
40.88087
41.149418
41.476156
41.772733
42.127322
42.454735
42.839683
43.19931
43.616873
44.011218
44.463718
44.894652
45.385138
45.854931
46.385287
46.894934
47.46634
48.016957
48.630774
49.224175
49.883394
50.520065
51.224712
51.904247
52.654006
53.376734
54.172645
54.94042
55.785639
56.598607
57.492542
58.35051
59.293785
60.197956
61.192325
62.145524
63.194127
64.197307
65.304136
66.362963
67.531008
68.645556
69.87845
71.055833
72.359037
73.600867
74.979618
76.294254
77.756068
79.147321
80.699881
82.177545
83.831328
85.401335
87.16744
88.843964
90.740416
92.53437
94.579488
96.512832
98.742864
100.84302
103.30623
105.61825
108.37968
110.95925
114.00607
116.7938
119.8935
122.39165
124.3109
124.93712
122.28174
116.16523
104.07876
76.24241
86.745302
98.018951
103.91587
104.84747
108.3797
106.92276
108.42654
105.48118
105.84004
102.71959
102.46779
99.56745
98.912038
96.25831
95.356037
92.915541
91.882215
89.613887
88.518243
86.394828
85.282023
83.293558
82.191534
80.319606
79.244644
77.485163
76.443439
74.782055
73.782735
72.21883
71.259238
69.779615
68.863062
67.4677
66.590367
65.267843
64.431366
63.183035
62.383792
61.200597
60.43888
59.320947
58.59244
57.531213
56.838329
55.835263
55.173723
54.222725
53.596478
52.700466
52.106635
51.257707
50.698967
49.898474
49.37207
48.61516
48.125327
47.413893
46.958237
46.285197
45.86641
45.232635
44.848001
44.248034
43.900539
43.335094
43.021411
42.483647
42.205321
41.695338
41.449355
40.961685
40.749002
40.283196
40.100572
39.651491
39.500419
39.067746
38.945003
38.524366
37.527244
38.142224
38.784022
39.476803
40.204709
40.991148
41.818823
42.712603
43.651389
44.663319
45.72442
46.86288
48.053978
49.326281
50.653679
52.06721
53.539037
55.103284
56.729484
58.45546
60.249373
62.152041
64.131144
66.229363
68.407488
70.709637
73.090964
75.592318
78.149211
80.772667
83.375306
85.89663
88.161426
89.927769
90.806158
90.259085
87.883663
83.011908
75.214541
61.667542
41.454289
24.736997
16.279389
12.959531
11.553918
11.086948
11.364585
11.916053
13.575488
17.401859
26.368408
38.282342
48.650845
55.536088
60.157307
63.394094
65.487009
66.923939
67.348083
67.52231
66.680685
65.981103
64.513513
63.391445
61.695274
60.424954
58.703942
57.417398
55.761301
54.518866
52.963083
51.788514
50.344231
49.248009
47.915788
46.89775
45.672029
44.728983
43.60317
42.733983
41.700453
40.902596
39.957337
39.227862
38.364
37.700476
36.913136
36.309043
35.58733
35.036834
34.369706
28.731767
29.561865
30.411451
31.265555
32.112803
32.935817
33.714105
34.421843
35.024373
35.477771
35.725528
35.698754
35.306334
34.444498
32.983852
30.882997
28.094146
24.524515
19.872741
14.962035
11.825572
10.819571
10.380654
10.596074
10.872546
11.721595
14.218376
19.357518
17.441779
12.873882
11.023263
10.927324
10.726157
10.593034
10.47044
10.407868
10.592597
10.828996
10.98962
11.289083
11.651811
12.175469
15.297919
20.933347
25.409848
34.510947
44.960598
39.663629
52.782289
51.395387
54.927121
54.659096
51.695018
51.046061
49.911932
48.814998
47.911975
46.510254
46.150058
44.995493
43.966397
43.060981
42.195253
41.373449
40.344521
39.571643
38.789435
38.127954
37.51514
36.926073
36.361298
35.80934
35.28289
34.770093
34.282387
33.811884
33.360166
32.923176
32.506132
32.102464
31.716752
31.34152
30.983119
30.632282
30.295315
29.966656
29.648603
29.335147
29.034528
28.733199
28.440083
28.152038
27.874016
27.598534
27.325451
27.053689
26.789897
26.530213
26.27648
26.022995
25.772892
25.526911
25.287153
25.039923
24.775088
24.462761
24.097799
24.632969
24.94321
25.217266
25.457022
25.687576
25.928986
26.176115
26.425494
26.676119
26.933468
27.195276
27.465655
27.736396
28.008038
28.284175
28.57071
28.862606
29.161632
29.460129
29.772766
30.089268
30.417327
30.753847
31.103635
31.461794
31.837088
32.223695
32.627607
33.044866
33.484302
33.93483
34.407634
34.897754
35.411024
35.93951
36.489317
37.056617
37.647946
38.263752
38.932761
39.79292
40.838623
41.508625
42.308591
43.143669
44.004469
44.98143
46.053411
47.877371
48.836988
49.932162
51.223589
54.287978
55.2211
55.641573
62.853513
58.620141
50.098609
43.689271
35.230998
26.16557
24.417896
22.40071
20.989545
24.62428
27.830112
29.455096
32.065239
41.21165
49.234615
52.672168
59.560504
53.910511
54.353977
53.961638
51.079282
49.963955
48.909215
47.851772
46.054761
45.19706
44.166316
43.310857
42.485963
41.707099
41.010796
39.939017
39.113711
38.433571
37.809824
37.210847
36.636167
36.084242
35.554262
35.039849
34.548186
34.073086
33.622812
33.183642
32.766125
32.362616
31.977093
31.602243
31.245531
30.898206
30.563888
30.237273
29.922686
29.613075
29.316032
29.021486
28.732815
28.449252
28.175516
27.905621
27.639785
27.373361
27.114795
26.860119
26.611815
26.366725
26.125372
25.889621
25.667037
25.447829
25.321866
25.561684
25.87249
26.283687
26.816074
27.493936
28.330346
29.335056
30.512467
31.830029
32.63923
33.701473
35.024676
35.361746
34.437256
33.231041
32.913091
31.63323
30.296753
29.121023
28.118002
27.284466
26.609383
26.077091
25.665536
25.357261
25.14327
25.052164
24.817956
24.766697
24.973175
25.164399
24.945753
24.390749
24.111575
23.785948
23.529136
23.335116
23.175864
22.996592
22.728243
22.474142
22.348117
22.278461
22.232109
22.208617
21.96823
21.750645
21.989269
22.040165
22.108352
22.228649
22.445366
22.611839
22.905219
23.065656
22.770711
22.962224
23.259042
23.51834
23.227241
23.594425
23.869854
24.531252
24.764829
25.039541
25.672546
25.884589
25.46836
25.26062
25.345617
25.042316
24.819525
24.573199
24.390562
24.20863
24.064297
23.953366
23.857239
23.775437
23.701099
23.632616
23.572333
23.518333
23.747132
24.018384
24.261047
24.498693
24.735445
24.976045
25.219498
25.467522
25.717142
25.972387
26.228401
26.488943
26.749316
27.01389
27.277558
27.543766
27.807779
28.076809
28.34784
28.640237
28.960082
28.781682
28.266174
28.248726
28.90784
29.230842
29.548229
29.90786
30.245561
30.606022
30.95625
31.34603
31.732033
32.167147
32.595813
32.991397
33.438328
33.859277
34.279242
34.747693
35.242237
35.762434
36.312476
36.8865
37.490225
38.112438
38.764484
39.440902
40.165495
40.993202
41.793129
42.936211
43.833455
44.786244
45.782488
46.851611
42.595846
42.532961
42.363224
42.008827
45.245148
46.194116
47.326996
49.28533
50.221841
51.365536
52.738412
55.963876
56.75574
57.043519
62.070646
58.119819
48.698004
43.91069
38.693445
29.429655
22.26811
18.2158
13.565543
11.262929
11.096147
12.157508
11.097383
10.601377
10.766823
10.970384
11.271038
11.527299
10.745167
21.650629
21.855609
22.008734
22.099743
22.116949
22.046952
21.875842
21.589527
21.173986
20.616937
19.908426
19.043295
18.043961
16.865797
15.472701
13.887331
12.302882
11.138582
10.505748
10.192893
9.9443367
10.02975
10.166287
10.394088
10.74357
11.185473
11.64875
12.131611
12.60309
13.05619
13.482784
13.870415
14.212343
14.50491
14.746699
14.937697
15.078978
15.172506
15.220925
15.227916
11.439589
11.405154
11.352426
11.282042
11.195251