/*--------------------------------*- C++ -*----------------------------------*\
| =========                 |                                                 |
| \\      /  F ield         | OpenFOAM: The Open Source CFD Toolbox           |
|  \\    /   O peration     | Version:  v2012                                 |
|   \\  /    A nd           | Website:  www.openfoam.com                      |
|    \\/     M anipulation  |                                                 |
\*---------------------------------------------------------------------------*/
FoamFile
{
    version     2.0;
    format      ascii;
    class       volScalarField;
    location    "200";
    object      p;
}
// * * * * * * * * * * * * * * * * * * * * * * * * * * * * * * * * * * * * * //

dimensions      [0 2 -2 0 0 0 0];


internalField   nonuniform List<scalar> 
33005
(
-0.82632634
-0.88743271
-0.94603984
-1.0012506
-1.0521673
-1.0978626
-1.1373633
-1.169731
-1.1941201
-1.2093483
-1.2135597
-1.2062095
-1.1874356
-1.1561807
-1.1125326
-1.0569711
-0.99112681
-0.91779793
-0.84021727
-0.76219154
-0.7734834
-0.81281393
-0.8502499
-0.88501856
-0.91636935
-0.94361767
-0.96612521
-0.9834051
-0.99503456
-1.000789
-1.0005364
-0.99512574
-0.98329641
-0.96589678
-0.9434969
-0.91649113
-0.88541774
-0.85088264
-0.81350083
-0.81451297
-0.81659423
-0.82000702
-0.82477298
-0.83081044
-0.83789837
-1.0124389
-1.0118741
-1.0104022
-1.0079295
-1.0043746
-0.99967378
-0.99379005
-0.98672112
-0.97850616
-0.96923593
-0.9590536
-0.94814464
-0.9367498
-0.9251191
-0.91352
-0.90220805
-0.89143401
-0.88144739
-0.87252495
-0.86495454
-0.85899527
-0.85473734
-0.85213865
-0.8869145
-0.89002495
-0.89511865
-0.90226019
-0.91135234
-0.9221002
-0.93416945
-0.94723789
-0.96101215
-0.97519546
-0.98948135
-1.0035475
-1.0170864
-1.0298074
-1.0414833
-1.0519444
-1.061085
-1.0688625
-1.075284
-1.0803972
-1.0842791
-1.0870267
-1.0887482
-1.1615805
-1.1585935
-1.1544717
-1.1490941
-1.1423501
-1.1341497
-1.124435
-1.1131938
-1.1004708
-1.0863865
-1.0711359
-1.0549873
-1.0382803
-1.0213789
-1.004659
-0.98847612
-0.97317163
-0.95907934
-0.9465635
-0.93600114
-0.92771979
-0.92182135
-0.91821827
-0.94544114
-0.94950718
-0.9561581
-0.96550464
-0.97744273
-0.99161739
-1.0076141
-1.0250315
-1.0434998
-1.0626383
-1.0820454
-1.1012953
-1.1199705
-1.1376856
-1.1541327
-1.1690936
-1.1824338
-1.1941066
-1.2041283
-1.2125661
-1.2195207
-1.2251138
-1.2294774
-1.2327441
-1.2350452
-1.2993225
-1.2956687
-1.2909809
-1.2851243
-1.2779612
-1.2693511
-1.2591647
-1.2472938
-1.2336649
-1.2182587
-1.2011253
-1.1824117
-1.162357
-1.141306
-1.1196843
-1.0979574
-1.0765949
-1.0560378
-1.0366994
-1.0189797
-1.0033105
-0.99013747
-0.97983742
-0.97251417
-0.96803493
-0.98557518
-0.99037772
-0.99825438
-1.0093537
-1.0235699
-1.0405103
-1.059706
-1.080702
-1.1030762
-1.1263903
-1.1501736
-1.1739211
-1.197127
-1.2193332
-1.2401627
-1.2593577
-1.2767594
-1.2923134
-1.3060393
-1.3180147
-1.3283527
-1.3371851
-1.3446558
-1.3509025
-1.3560598
-1.4039058
-1.3971062
-1.3891756
-1.379983
-1.3693973
-1.3572727
-1.3434822
-1.3279151
-1.3104929
-1.2911988
-1.2700939
-1.247349
-1.2232393
-1.1981676
-1.1726128
-1.1471093
-1.1221888
-1.0983412
-1.0760195
-1.0556581
-1.0377244
-1.0227
-1.0109815
-1.0026688
-0.99758262
-1.0033856
-1.0088401
-1.0175201
-1.0296881
-1.0452735
-1.0638911
-1.0850609
-1.1083165
-1.1332239
-1.1593293
-1.1861381
-1.2131089
-1.2396967
-1.2654129
-1.2898375
-1.312681
-1.3337606
-1.3530038
-1.3704172
-1.3860642
-1.4000269
-1.412424
-1.4234219
-1.4331407
-1.4417028
-1.4684236
-1.4579066
-1.4462285
-1.433287
-1.4189747
-1.40312
-1.3856026
-1.366373
-1.3453985
-1.3226906
-1.2983374
-1.2725325
-1.2455724
-1.2178805
-1.1899596
-1.1623487
-1.1355599
-1.1100727
-1.0863265
-1.0647432
-1.0457774
-1.0299014
-1.0174982
-1.0086583
-1.0032162
-0.99739298
-1.0026587
-1.0113473
-1.0236389
-1.0394269
-1.0583293
-1.0798833
-1.1036516
-1.1292338
-1.1562147
-1.1841399
-1.212509
-1.2408038
-1.2685435
-1.2953035
-1.3207752
-1.3447501
-1.3671225
-1.3878719
-1.4070424
-1.4247679
-1.4411546
-1.4562049
-1.470031
-1.4827111
-1.4691273
-1.4534811
-1.4366263
-1.4184961
-1.3990273
-1.3781711
-1.3558872
-1.3321714
-1.307074
-1.2807215
-1.2533336
-1.2252204
-1.1967926
-1.1685022
-1.1408262
-1.1142194
-1.0890933
-1.0658251
-1.0447832
-1.0263775
-1.0110489
-0.99915895
-0.99079486
-0.98572876
-0.96834743
-0.97316268
-0.98107956
-0.99234646
-1.0069032
-1.024427
-1.0445157
-1.0668006
-1.0909568
-1.1166579
-1.1435487
-1.1712321
-1.1992889
-1.2273094
-1.2549068
-1.2817704
-1.3076671
-1.3324437
-1.3560187
-1.3783616
-1.3994835
-1.4194053
-1.438163
-1.4558018
-1.4297434
-1.410241
-1.3897225
-1.3681757
-1.3455959
-1.3219899
-1.2973874
-1.2718555
-1.2455095
-1.2185282
-1.1911549
-1.1636944
-1.1365003
-1.1099296
-1.084333
-1.0600362
-1.0373262
-1.0164681
-0.99773229
-0.98143503
-0.96792825
-0.95748877
-0.95015577
-0.94568146
-0.91822901
-0.92228015
-0.9289049
-0.93834068
-0.95056407
-0.96534673
-0.98239393
-1.0014493
-1.0223038
-1.044761
-1.068609
-1.093602
-1.1194653
-1.1459029
-1.1726032
-1.1992752
-1.2256696
-1.2515856
-1.2768753
-1.3014345
-1.3251959
-1.3481145
-1.3701614
-1.3913178
-1.3412763
-1.3187568
-1.2955007
-1.2715582
-1.2469903
-1.2218748
-1.1963149
-1.1704472
-1.1444466
-1.1185307
-1.0929478
-1.067967
-1.0438522
-1.020834
-0.99910891
-0.97884094
-0.96016473
-0.94320564
-0.92810777
-0.91506361
-0.90430688
-0.89601643
-0.89020221
-0.88664098
-0.85161348
-0.85463978
-0.85957442
-0.86662487
-0.87579416
-0.88695427
-0.89993328
-0.91460195
-0.93087943
-0.94871005
-0.96803354
-0.98876413
-1.0107815
-1.0339207
-1.0579693
-1.0826874
-1.1078355
-1.1331899
-1.1585574
-1.1837733
-1.2087031
-1.2332368
-1.2572837
-1.2807658
-1.211267
-1.1872885
-1.1629343
-1.1383076
-1.1135221
-1.0887102
-1.0640328
-1.0396788
-1.0158458
-0.99274899
-0.97060925
-0.94963095
-0.92997596
-0.91174963
-0.89500436
-0.8797542
-0.86598907
-0.85369978
-0.84290998
-0.83369302
-0.82616283
-0.8203961
-0.8163751
-0.81390766
-0.77432029
-0.77624644
-0.77937264
-0.78386777
-0.78975888
-0.79700453
-0.80555041
-0.81539964
-0.82659678
-0.83919594
-0.85326535
-0.86885345
-0.88596958
-0.9045657
-0.92452915
-0.94569258
-1.2285384
-1.2717459
-1.4071773
-1.4286757
-1.5462739
-1.6404198
-1.6312938
-1.6847843
-1.6673921
-1.6343872
-1.6400727
-1.6216724
-1.5335183
-1.444154
-1.3975078
-1.27563
-1.2235009
-2.2071337
-2.1734731
-2.196145
-2.2116748
-2.2275864
-2.240232
-2.2489129
-2.2614361
-2.2883607
-2.3151931
-2.330008
-2.3378156
-2.3299547
-2.3193492
-2.3319468
-2.3490895
-2.3662158
-2.3722271
-2.3803172
-2.3905548
-2.4170047
-2.4369209
-2.4532562
-2.4676297
-2.473647
-2.4826348
-2.5055258
-2.5136693
-2.6269854
-2.5764988
-2.5929449
-2.5994025
-2.625534
-2.6181564
-2.5862885
-2.5912546
-2.6165185
-2.5838162
-2.5727848
-2.5782285
-2.5492841
-2.4810442
-2.4808547
-2.4747349
-2.4797128
-2.4700312
-2.4350713
-2.4060123
-2.3725032
-2.348204
-2.3304312
-2.3263415
-2.3305714
-2.3209988
-2.2922538
-2.2769642
-2.2814406
-2.2791132
-2.2543789
-2.2591009
-2.264477
-2.2494052
-2.231698
-2.2188875
-2.2020493
-2.1911915
-2.1884452
-2.1900619
-2.1818651
-2.0631052
-2.0161923
-1.9253788
-1.8637099
-1.8718204
-1.9380628
-2.0207211
-2.0805827
-2.0990632
-2.022952
-1.9528471
-1.876306
-1.880798
-1.9677614
-2.0266149
-2.1166627
-2.1284892
-2.0349592
-1.9805559
-1.8873617
-1.8206742
-1.7320656
-1.6580602
-1.565519
-1.5709325
-1.6697287
-1.7424938
-1.8274075
-1.8982833
-1.9906479
-2.0509649
-2.1356287
-2.1381407
-2.0727622
-1.9941493
-1.9118014
-1.8326446
-1.7548365
-1.6740826
-1.5829726
-1.5958158
-1.6659954
-1.7623013
-1.8563646
-1.916025
-2.0009363
-2.0971798
-2.1312188
-2.1317066
-2.1125859
-2.0160306
-1.9150784
-1.8843713
-1.7705164
-1.6611215
-1.597796
-1.5578042
-1.4246308
-1.2846074
-1.4443493
-1.5456927
-1.5994826
-1.6859645
-1.7957794
-1.8693957
-1.9231272
-2.0384937
-2.1227055
-2.1440298
-2.1514201
-2.1279979
-2.063478
-1.9327177
-1.8461868
-1.8179656
-1.7193055
-1.6040043
-1.519195
-1.4698764
-1.3107781
-1.4765722
-1.5268919
-1.6133623
-1.7400765
-1.8116751
-1.8612729
-1.9503736
-2.0669747
-2.1385489
-2.1655605
-2.1960914
-2.1540493
-2.0431533
-1.9821189
-1.8838533
-1.7948327
-1.7497984
-1.6283845
-1.5563198
-1.4733322
-1.3100203
-1.4750309
-1.5777211
-1.6439517
-1.7538018
-1.794204
-1.9022274
-2.0049234
-2.0370095
-2.1670775
-2.2242329
-2.236054
-2.172866
-2.0507558
-2.0079063
-1.9125666
-1.8084318
-1.7553659
-1.6597681
-1.5780596
-1.4863943
-1.3352123
-1.4941022
-1.5717367
-1.6761489
-1.7580229
-1.8293345
-1.9122039
-2.017976
-2.0713711
-2.1690851
-2.2466945
-2.2645353
-2.1620055
-2.0952997
-2.0189558
-1.9292518
-1.8317844
-1.7510949
-1.6878242
-1.581432
-1.5046914
-1.3593072
-1.5104717
-1.609087
-1.6885275
-1.7387863
-1.8262178
-1.9642274
-2.0290815
-2.1213902
-2.1689868
-2.2899745
-2.2870814
-2.1910611
-2.1302323
-2.0405582
-1.9851499
-1.8343478
-1.7405179
-1.6766273
-1.6347104
-1.5146403
-1.3805878
-1.5307955
-1.642751
-1.6857017
-1.7528015
-1.8512785
-2.008191
-2.0310818
-2.1214569
-2.2359619
-2.2728579
-2.2809835
-2.2519082
-2.1203383
-2.025148
-1.9998259
-1.8734961
-1.7697238
-1.7092019
-1.6345797
-1.5405114
-1.3813353
-1.5635599
-1.6318146
-1.7289593
-1.7950327
-1.8972446
-1.9835291
-2.0386582
-2.1493013
-2.2396892
-2.300211
-2.3037458
-2.2243792
-2.1736436
-2.0570451
-1.9985643
-1.9055961
-1.7976849
-1.7362143
-1.646782
-1.5577236
-1.4167482
-1.556299
-1.6707004
-1.7281798
-1.8012104
-1.9228189
-2.0092294
-2.0933949
-2.1726683
-2.2197411
-2.3118993
-2.3280883
-2.2309922
-2.1689109
-2.1232184
-1.9982807
-1.941637
-1.8153363
-1.7238415
-1.6880405
-1.5458027
-1.4441001
-1.5725629
-1.6908864
-1.7433429
-1.8351519
-1.9476712
-2.0049916
-2.1294484
-2.1875168
-2.2584621
-2.3420321
-2.3447483
-2.2852932
-2.2049355
-2.1231058
-2.0262329
-1.9461431
-1.8546612
-1.7612821
-1.6895961
-1.5702391
-1.4590085
-1.6081218
-1.6893073
-1.7820097
-1.8655292
-1.9568337
-2.0411732
-2.120774
-2.2197746
-2.2969265
-2.3572517
-2.3868886
-2.4821391
-2.4849898
-2.4001555
-2.3105783
-2.3035814
-2.2400694
-2.1227502
-2.0509342
-1.9759241
-1.8652657
-1.8013024
-1.691929
-1.5999358
-1.4582632
-1.6356215
-1.7033613
-1.8226013
-1.8722673
-1.9936264
-2.0593254
-2.1293092
-2.2547028
-2.2521551
-2.3351077
-2.3976297
-2.4924286
-2.5038047
-2.3850356
-2.3696577
-2.2473665
-2.1516317
-2.147993
-2.0754654
-1.9964282
-1.8926714
-1.8318515
-1.7171781
-1.7299948
-1.8468994
-1.9164157
-1.9878691
-2.1068216
-2.082741
-1.9770627
-1.9188629
-1.857402
-1.7070465
-1.6007639
-1.5744753
-1.5883705
-1.5381527
-1.4732984
-1.3815652
-1.2883446
-1.2226809
-2.2637445
-2.2749125
-2.3402343
-2.3871617
-2.3865283
-2.4319132
-2.440991
-2.458358
-2.463742
-2.4838136
-2.4973886
-2.5191514
-2.5259839
-2.5637923
-2.5846823
-2.6007074
-2.601397
-2.6256562
-2.6336181
-2.6543341
-2.6579213
-2.670825
-2.6693961
-2.6891042
-2.7050593
-2.72197
-2.7280527
-2.7493345
-2.76993
-2.7781252
-2.8085484
-2.7994244
-2.8417798
-2.8218775
-2.8628066
-2.8348137
-2.9310237
-3.0166656
-3.0352506
-3.0158346
-2.9923346
-3.0102505
-3.0199052
-2.9024754
-2.8023008
-2.8244404
-2.8416072
-2.8027581
-2.7908338
-2.7703957
-2.7353357
-2.7068212
-2.6953802
-2.7091743
-2.7031069
-2.6765395
-2.6433128
-2.6428813
-2.6476028
-2.6405877
-2.6161307
-2.5941249
-2.5735193
-2.5577767
-2.5408262
-2.5461427
-2.5462147
-2.5322778
-2.5204939
-2.5106632
-2.4990905
-2.4896073
-2.4753097
-2.4540074
-2.433932
-2.4249837
-2.4245551
-2.3169086
-2.2572213
-2.2644751
-2.2590003
-2.1586458
-2.1713008
-2.1888958
-2.1974361
-2.2588228
-2.3015743
-2.3151417
-2.2713139
-2.2873501
-2.3317864
-2.3420777
-2.3015932
-2.3112517
-2.3550967
-2.3742087
-2.3201766
-2.3336264
-2.3948097
-2.4075938
-2.3458983
-2.3473936
-2.4066746
-2.4106596
-2.3422887
-2.3693199
-2.4350251
-2.4410959
-2.4132334
-2.4245922
-2.4525198
-2.4936387
-2.416734
-2.426505
-2.5224108
-2.5200268
-2.4400097
-2.4514352
-2.5176802
-2.5334686
-2.4640223
-2.4794962
-2.5725805
-2.5966559
-2.4898378
-2.5106506
-2.5863138
-2.5769979
-2.517516
-2.5250715
-2.6032618
-2.6296877
-2.5403129
-2.5576614
-2.6344334
-2.6372931
-2.5714348
-2.5810418
-2.6496168
-2.6631294
-2.575376
-2.5182391
-2.5133198
-2.4960143
-2.4885108
-2.4725294
-2.4631471
-2.442788
-2.439319
-2.4215683
-2.4133426
-2.3929393
-2.3873268
-2.3731408
-2.364234
-2.3466002
-2.3421183
-2.3278265
-2.3122503
-2.2924695
-2.287363
-2.278178
-2.2689427
-2.2539384
-2.2446561
-2.233312
-2.2236358
-2.211836
-2.204219
-2.2028106
-2.2062942
-2.1968638
-2.4517608
-2.5558992
-2.6761475
-2.7461457
-2.8508626
-2.9150603
-2.9553578
-2.9727826
-2.9932528
-3.0085444
-3.0202195
-3.0403584
-3.0575555
-3.0701823
-3.0815453
-3.1005636
-3.0857638
-3.0561061
-3.0307346
-3.0289532
-3.0232879
-3.013807
-2.9876657
-2.9753295
-2.9665729
-2.9510028
-2.9315078
-2.9262743
-2.8749331
-2.760339
-2.6975647
-2.7689558
-2.8927238
-2.9058456
-2.7950955
-2.7215687
-2.8135126
-2.9135204
-2.9303439
-2.8396811
-2.750943
-2.8437255
-2.9430955
-2.9625163
-2.8653221
-2.7922897
-2.8664545
-2.9793012
-3.0051037
-2.9085363
-2.8452242
-2.9192481
-3.0252142
-2.9935524
-3.0420717
-3.1718931
-3.27395
-3.3378672
-3.4256063
-3.5177804
-3.5759297
-3.6695014
-3.7561015
-3.8231533
-3.9056162
-3.9965702
-4.0697281
-4.149112
-4.2247099
-4.3204453
-4.3860298
-4.471012
-4.5462134
-4.6251395
-4.693532
-4.8038586
-4.8943919
-4.8957753
-4.9506142
-5.0760652
-5.0292651
-5.2260137
-5.1485709
-5.3395587
-5.2740948
-5.3179525
-5.4294461
-5.386921
-5.5177806
-5.5303355
-5.5344205
-5.6289089
-5.6953586
-5.6212884
-5.6747138
-5.75759
-5.7410099
-5.707139
-5.6955466
-5.7220955
-5.4511978
-5.7098582
-5.6403713
-5.6174149
-5.5346091
-5.3453617
-5.0177665
-5.0888108
-4.8089975
-4.614987
-3.8401786
-3.4640188
-2.871312
-1.9866769
3.1648682
9.1181323
10.61276
10.688506
10.203012
9.1363662
9.1727492
8.4297724
7.0919651
7.3691857
7.0004288
5.1178857
4.0249571
3.1994379
2.671767
2.5918515
2.4203943
2.4621902
2.8381326
3.0180339
3.7051907
4.6346287
5.9019716
9.2300704
7.4325446
7.1440333
6.6943035
6.8537408
8.0645486
8.2999174
8.710368
9.9240186
9.9954399
8.8234509
9.9341707
10.945784
4.535368
-0.46801653
-2.1368179
-3.1073793
-3.3627473
-4.3837057
-4.7750714
-5.0652474
-4.7985882
-5.2258974
-5.4902091
-5.6122111
-5.6474474
-5.7291237
-5.5037484
-5.6127032
-5.7140213
-5.7083871
-5.7266749
-5.7555729
-5.7944397
-5.7034817
-5.6816667
-5.7309719
-5.6274091
-5.5948271
-5.6028724
-5.5105707
-5.4622538
-5.4478982
-5.3218171
-5.3716676
-5.1946823
-5.2579681
-5.0757237
-5.0915613
-4.9445012
-4.880351
-4.8422446
-4.7234622
-4.6615565
-4.5928344
-4.503059
-4.4172768
-4.3503791
-4.2566975
-4.1732406
-4.1030363
-4.027714
-3.9207841
-3.8544343
-3.7854149
-3.6823372
-3.6023682
-3.5444095
-3.4348508
-3.3615743
-3.2950927
-3.1869815
-3.0857423
-3.1801043
-3.310961
-3.3954074
-3.4366818
-3.5638925
-3.6425628
-3.6853176
-3.8135093
-3.8885261
-3.9273119
-4.0724718
-4.1184308
-4.189533
-4.307065
-4.3686286
-4.4622791
-4.5044168
-4.6508941
-4.6682554
-4.77981
-4.8648467
-4.8930443
-5.0059509
-5.0705131
-5.1418857
-5.2238148
-5.2713219
-5.3416101
-5.4055885
-5.4406112
-5.5411664
-5.5303842
-5.6053451
-5.651391
-5.6716815
-5.6917508
-5.7665751
-5.7457466
-5.7734261
-5.7673554
-5.7798945
-5.6967642
-5.6202921
-5.6400872
-5.798832
-5.5859906
-5.5724271
-5.4174751
-5.190178
-5.1362078
-4.8643039
-4.8229692
-4.113973
-3.0257601
-2.9658128
-1.3704275
0.65508122
5.4056113
10.469414
12.29334
12.928843
10.702945
9.6870354
9.6068417
11.006429
6.8327724
5.7075367
4.6396724
2.3909108
-1.129072
-2.6065969
-2.6218679
-3.3073393
-3.7932445
-4.6130838
-4.841124
-5.0700081
-5.0211753
-5.3388403
-5.5201119
-5.6639487
-5.7450359
-5.7757738
-5.5594493
-5.6749761
-5.7985261
-5.8090954
-5.7925686
-5.7984277
-5.8240347
-5.7276993
-5.6656251
-5.765168
-5.564259
-5.5977385
-5.6055863
-5.4817038
-5.4582162
-5.3750423
-5.3272238
-5.2543497
-5.193607
-5.105021
-5.0500302
-4.9460005
-4.8950519
-4.829947
-4.6983563
-4.700578
-4.5297523
-4.4908532
-4.4027281
-4.3607909
-4.2171788
-4.1251494
-4.1251053
-3.9472873
-3.9109921
-3.8482595
-3.6994612
-3.6731223
-3.5866476
-3.449227
-3.4228333
-3.3331349
-3.2005248
-3.1271331
-3.2239279
-3.3298681
-3.4523518
-3.4831967
-3.587202
-3.7039955
-3.7355922
-3.8501474
-3.9495997
-3.9823655
-4.1302971
-4.1683991
-4.2420669
-4.3955038
-4.4357583
-4.5001017
-4.6046306
-4.684236
-4.7829945
-4.8218298
-4.9490761
-4.9869705
-5.0810832
-5.1516002
-5.2205106
-5.3013967
-5.3585934
-5.4183498
-5.4950435
-5.5211913
-5.6758082
-5.5661951
-5.631058
-5.8226843
-5.6672721
-5.8201181
-5.8294981
-5.8075735
-5.8329033
-5.8530084
-5.7471744
-5.6879435
-5.7549612
-5.7449004
-5.761052
-5.6603118
-5.5266415
-5.2536983
-4.93156
-5.0464934
-4.8348204
-4.4876851
-3.3511578
-3.0841608
-1.8632897
0.22091935
3.6189852
3.6878365
1.6557452
4.6460935
11.210208
9.719613
10.308952
9.2103941
9.4168835
9.9094425
11.446623
10.25402
9.7549984
9.2526794
8.7924918
10.384758
7.7399236
9.4719574
9.522861
8.950805
9.0366837
10.842137
12.664122
10.612095
8.2634938
3.386378
-1.0471345
-1.7810954
-3.1858698
-3.00719
-4.2230582
-4.8804457
-4.989021
-4.8697063
-5.1897735
-5.1496666
-5.4783568
-5.6330077
-5.7469187
-5.7340588
-5.8620523
-5.637745
-5.7292298
-5.901405
-5.8534213
-5.8311051
-5.8666754
-5.8640664
-5.7458991
-5.824583
-5.7391256
-5.5833529
-5.7495892
-5.5405999
-5.5758336
-5.4288528
-5.4363768
-5.327782
-5.2859745
-5.1752882
-5.1470029
-5.0052347
-5.0222693
-4.8278624
-4.8648935
-4.678776
-4.6673446
-4.5388548
-4.4498758
-4.4436905
-4.2590637
-4.2246689
-4.1343396
-4.0040639
-4.0129468
-3.849227
-3.761383
-3.7421513
-3.5906349
-3.5103872
-3.4900901
-3.3297619
-3.2493941
-3.1570965
-3.2784944
-3.3612047
-3.4905239
-3.5472648
-3.6312369
-3.7264465
-3.7983058
-3.8876448
-4.0397362
-4.0419913
-4.1482328
-4.2411386
-4.3103465
-4.4736612
-4.4894949
-4.5658904
-4.6826119
-4.7434584
-4.8763257
-4.8876171
-5.0623582
-5.046929
-5.1898319
-5.2123242
-5.3365841
-5.3639477
-5.4948899
-5.4514457
-5.6470612
-5.5600188
-5.7781842
-5.6808132
-5.7751893
-5.8557895
-5.7746167
-5.9124822
-5.8823649
-5.9114547
-5.848389
-5.8816652
-5.7138584
-5.9752184
-5.6952095
-5.8006669
-5.7310348
-5.6067638
-5.3826445
-5.0082651
-5.1895055
-4.9319123
-4.6636655
-3.8474841
-3.4977362
-2.8319564
-2.6524017
-1.1277389
-1.26361
-1.7450911
-2.0702331
-2.4497075
-2.7536318
-3.0866234
-3.4719004
-3.6499347
-4.6827725
-4.1628223
-3.1066493
-2.9752807
-1.8030113
0.67390492
4.7334998
8.3645068
10.096761
11.926802
9.8992816
8.6016052
7.2720423
5.4245601
4.3591169
3.4243109
2.9081455
-3.2530867
-3.2762103
-3.2969519
-3.3072855
-3.3059618
-3.3162894
-3.3244238
-3.3877937
-3.3794195
-3.409791
-3.4365167
-3.4533707
-3.4625534
-3.4765339
-3.5023744
-3.5152495
-3.5927694
-3.5546466
-3.577403
-3.6112505
-3.6425672
-3.6474806
-3.6286011
-3.7344534
-3.7433892
-3.7592518
-3.7730807
-3.7936722
-3.8110786
-3.8188621
-3.9289266
-3.9303762
-3.9587198
-3.9677412
-3.97533
-4.0681108
-4.0670505
-4.1010627
-4.1137522
-4.2253771
-4.2199662
-4.2561042
-4.2846216
-4.345442
-4.3790952
-4.4157333
-4.4314832
-4.5310965
-4.5139995
-4.591173
-4.6138364
-4.6770906
-4.7684913
-4.7680198
-4.8655996
-4.8721185
-4.8699194
-4.9680341
-4.9988567
-5.1013124
-5.1217877
-5.2135355
-5.2358262
-5.2810224
-5.4052401
-5.3425689
-5.4897764
-5.5141135
-5.4743729
-5.6221465
-5.6214551
-5.6601575
-5.6378312
-5.7182409
-5.7190675
-5.7121206
-5.7102578
-5.6907072
-5.5308532
-5.7725301
-5.5924246
-5.6275387
-5.5491645
-5.4228915
-5.1283473
-4.7684277
-4.8827184
-4.9522614
-4.7312857
-4.4700159
-3.6337373
-3.1957519
-2.461594
-0.88409437
2.6926292
5.9881622
11.018134
9.3528578
8.5055384
7.3085275
5.8332488
4.6371756
3.6078317
3.0074476
2.4060618
-3.4653366
-3.4812129
-3.4949148
-3.5166917
-3.5287135
-3.5378887
-3.5443483
-3.5642324
-3.5817304
-3.5960195
-3.5994449
-3.6110699
-3.622719
-3.6339228
-3.6982977
-3.760456
-3.7622131
-3.7977788
-3.8041004
-3.8217396
-3.8531898
-3.8886626
-3.8964675
-3.9122738
-3.9293396
-3.951353
-3.9643344
-3.9705229
-4.0428745
-4.1033268
-4.1181683
-4.1495769
-4.1682871
-4.1967077
-4.2114747
-4.2227082
-4.304937
-4.3662209
-4.387831
-4.4298497
-4.4426251
-4.4763492
-4.4956931
-4.5090128
-4.608458
-4.6593541
-4.6795135
-4.6796034
-4.6832414
-4.7220273
-4.8601281
-4.8753502
-4.940853
-4.9744034
-5.1087685
-5.0372038
-5.1704074
-5.2063792
-5.2545231
-5.2863219
-5.2421438
-5.4205504
-5.3284081
-5.4991388
-5.4598895
-5.5289762
-5.5927874
-5.5984695
-5.6666136
-5.5918158
-5.6417064
-5.6590749
-5.6927096
-5.633089
-5.5792169
-5.4588356
-5.6394409
-5.4911853
-5.5187327
-5.3873409
-5.1354213
-4.7107318
-4.9465655
-4.6519078
-4.2726099
-3.2347703
-2.9362558
-1.9656495
0.21795061
3.487123
6.6891516
10.994587
9.2497609
8.3880088
7.2645502
6.1330144
6.232577
7.3902196
8.2003109
9.348781
9.9313278
9.7297728
11.080203
11.690719
10.500508
9.822726
9.3912544
8.7298
10.532556
7.9148868
9.2263058
8.7899269
5.7206289
5.8005197
4.2829814
0.99737908
-1.2266631
-2.7216119
-2.8558359
-3.9569877
-4.692866
-4.7355123
-4.7095979
-5.0778892
-5.0305631
-5.2942741
-5.4827466
-5.5979338
-5.5560101
-5.516072
-5.6348659
-5.574199
-5.6127146
-5.679766
-5.7107359
-5.6485452
-5.656905
-5.6725329
-5.6247855
-5.6148202
-5.5496751
-5.5433394
-5.4195335
-5.4395137
-5.4662138
-5.3938958
-5.3052336
-5.3344724
-5.2843697
-5.2497128
-5.1320016
-5.1567187
-5.0413379
-5.0040267
-4.9387952
-4.8928806
-4.7308559
-4.7328972
-4.7579537
-4.7507293
-4.7534284
-4.6333728
-4.507882
-4.5179098
-4.5024297
-4.4824534
-4.4634039
-4.4291886
-4.4385639
-4.3202059
-4.2227864
-4.2408075
-4.23305
-4.2083383
-4.1882484
-4.1667877
-4.1744559
-4.0428541
-3.9596077
-3.9754713
-3.9535625
-3.9287914
-3.8972002
-3.8607258
-3.8585903
-3.842528
-3.833831
-3.8470198
-3.8387619
-3.8039904
-3.8193355
-3.6920236
-3.6271014
-3.6378868
-3.6276799
-3.6137453
-3.598106
-3.5733102
-3.5567733
-3.5475483
-3.5423472
-3.5228682
-3.4965156
-3.4787228
-3.4761082
-3.4692305
-3.4520192
-0.82456994
-0.88477747
-0.94250314
-0.99683942
-1.0468799
-1.0916973
-1.1303119
-1.161776
-1.18528
-1.1995623
-1.2024086
-1.1948266
-1.1759506
-1.1447659
-1.1017372
-1.0474516
-0.98366422
-0.91303388
-0.83836619
-0.76299375
-0.76308485
-0.83780957
-0.91184671
-0.98192357
-1.0452781
-1.0992686
-1.1421462
-1.1732641
-1.192236
-1.1998758
-1.1970802
-1.1830187
-1.1597088
-1.1284289
-1.0900092
-1.0454038
-0.99558779
-0.94148009
-0.88398665
-0.82401891
-0.81342123
-0.81714227
-0.82030537
-0.82258249
-0.88201362
-0.87887425
-0.87453069
-0.86930583
-0.86341396
-0.85715367
-0.85074605
-0.84436978
-0.838178
-0.83232712
-0.82699719
-0.82238655
-0.81869386
-0.81599684
-0.81434842
-0.8519536
-0.85407374
-0.8575323
-0.86228062
-0.86821789
-0.87509536
-0.88265711
-0.8906684
-0.89892015
-0.90720521
-0.91528084
-0.92285213
-0.92954288
-0.93502517
-0.93899184
-0.99260088
-0.98784762
-0.98125805
-0.97315131
-0.96395015
-0.95410765
-0.94399151
-0.93390819
-0.92411902
-0.91488552
-0.90649644
-0.89926428
-0.89348617
-0.8892855
-0.88670541
-0.9179834
-0.92099951
-0.92590311
-0.9326584
-0.94112126
-0.95094974
-0.96177849
-0.97326763
-0.98510557
-0.99697884
-1.0085191
-1.0192875
-1.0287537
-1.0364263
-1.0419303
-1.0860605
-1.0798148
-1.0710992
-1.0603333
-1.0480749
-1.0349301
-1.0214056
-1.0079271
-0.99485644
-0.98254985
-0.97139317
-0.96179829
-0.95414587
-0.94859656
-0.94517816
-0.96774236
-0.97151065
-0.97762242
-0.98605905
-0.99664803
-1.0089779
-1.0225985
-1.0370861
-1.0520468
-1.067077
-1.0817003
-1.0953471
-1.1073389
-1.1170495
-1.1240179
-1.154858
-1.1471973
-1.1365503
-1.1234259
-1.108522
-1.092585
-1.0762408
-1.0600072
-1.0443208
-1.0296031
-1.0163058
-1.0049068
-0.99583921
-0.98928546
-0.98525508
-0.99721736
-1.0014715
-1.0083547
-1.0178792
-1.0298653
-1.0438742
-1.0594153
-1.0760232
-1.093262
-1.1106748
-1.127716
-1.1437145
-1.157864
-1.1693919
-1.1777304
-1.1913756
-1.1824229
-1.1701422
-1.1551603
-1.1383209
-1.1204752
-1.1023241
-1.0844242
-1.0672369
-1.0511967
-1.0367661
-1.0244297
-1.0146125
-1.0074675
-1.0029261
-1.0027955
-1.0071901
-1.0143258
-1.0241819
-1.036579
-1.0510946
-1.0672544
-1.0846092
-1.1027369
-1.1211835
-1.1393938
-1.1566493
-1.1720673
-1.1847422
-1.194004
-1.1862579
-1.1767934
-1.1639026
-1.1483108
-1.1309851
-1.1128199
-1.0945272
-1.0766383
-1.0595824
-1.0437555
-1.0295833
-1.0175213
-1.0079777
-1.001129
-0.99695536
-0.98524618
-0.98915757
-0.99556067
-1.0045142
-1.0158719
-1.0292617
-1.0442635
-1.0604882
-1.0775777
-1.0951438
-1.1126994
-1.1295706
-1.1448929
-1.1576857
-1.1672034
-1.1363048
-1.1271413
-1.1149475
-1.1004681
-1.0846651
-1.0683433
-1.0521133
-1.0364009
-1.0215406
-1.0078417
-0.99564474
-0.98532066
-0.97719286
-0.9713794
-0.96781166
-0.94509163
-0.94821066
-0.95327433
-0.96034685
-0.96933015
-0.97995115
-0.99189424
-1.0048738
-1.0186355
-1.0329069
-1.0473377
-1.0614083
-1.0744137
-1.0854698
-1.0938823
-1.0406619
-1.033482
-1.0241631
-1.0132934
-1.0016205
-0.98971398
-0.97798157
-0.96669033
-0.95604805
-0.94625355
-0.93753664
-0.93015673
-0.92433765
-0.92016397
-0.91758375
-0.88594059
-0.88791426
-0.89109102
-0.89550634
-0.90108542
-0.90765145
-0.91499988
-0.92295488
-0.93137175
-0.94010417
-0.94896888
-0.95768107
-0.96583465
-0.97287279
-0.97837149
-0.90959767
-0.90611679
-0.90173655
-0.89667924
-0.89127895
-0.88576464
-0.88029698
-0.87498291
-0.8699133
-0.86517884
-0.86090222
-0.85723582
-0.85430933
-0.85218928
-0.85086088
-0.81311099
-0.81378637
-0.81483982
-0.81626527
-0.81800508
-0.81997969
-0.82208203
-0.82423038
-0.82636098
-0.8284441
-0.83046195
-0.83238175
-0.83415743
-0.8356918
-0.83698389
-0.76364994
-0.76448254
-0.76569609
-0.7670795
-0.76850478
-0.76984562
-0.77101532
-0.77195849
-0.77265634
-0.77312729
-0.77340303
-0.77352248
-0.77354747
-0.77352671
-0.77347545
-0.88334267
-0.93302772
-0.9380578
-0.98456822
-0.98863087
-1.0324781
-1.0389264
-1.0832284
-1.0847153
-1.1284305
-1.1319354
-1.17583
-1.1752808
-1.2187971
-1.219941
-1.2638249
-1.2617257
-1.3056002
-1.3051293
-1.3487984
-1.3455194
-1.3902549
-1.3882451
-1.4333452
-1.4285712
-1.4750868
-1.4721036
-1.5187148
-1.5129494
-1.5619868
-1.558311
-1.6077185
-1.6013274
-1.654063
-1.6498304
-1.7034939
-1.6963946
-1.7543599
-1.7496959
-1.8095562
-1.8021649
-1.8674277
-1.8627389
-1.9314131
-1.9244923
-2.0000612
-1.9961472
-2.0775283
-2.0720862
-2.1624686
-2.1603982
-2.2598411
-2.2568593
-2.3705184
-2.3727724
-2.500496
-2.5043303
-2.6530672
-2.6620747
-2.8322747
-2.8515724
-3.0504591
-3.0851492
-3.3197826
-3.3849573
-3.6728402
-3.7858376
-4.1432876
-4.3665779
-4.8185202
-5.173148
-5.7765164
-6.3978095
-7.2343818
-8.3501671
-9.4461173
-11.018448
-15.106468
-12.541597
-6.9013845
-5.4111312
-4.3678636
-8.4912667
-10.390316
-9.180157
-8.3111896
-7.3663067
-6.8722913
-5.8236592
-5.6998875
-4.7861252
-4.8446033
-4.0685706
-4.1910528
-3.556612
-3.7368568
-3.2054712
-3.3813803
-2.9361984
-3.1094162
-2.7263899
-2.8848068
-2.5530287
-2.7011856
-2.4074699
-2.5434586
-2.2844736
-2.4069119
-2.1762116
-2.2932395
-2.0866627
-2.19045
-2.0029353
-2.1038988
-1.9328336
-2.0220691
-1.8644117
-1.9526347
-1.807242
-1.8850837
-1.7485046
-1.8264982
-1.699547
-1.7683895
-1.6472763
-1.7170771
-1.6033004
-1.6648849
-1.5551383
-1.6182435
-1.5143132
-1.5697405
-1.4688879
-1.5264122
-1.4295351
-1.48015
-1.3856716
-1.4385628
-1.3459123
-1.3924069
-1.3027531
-1.3514097
-1.2628549
-1.3049594
-1.2187847
-1.2633297
-1.1777823
-1.2154855
-1.1317301
-1.1726687
-1.0891304
-1.121964
-1.0404661
-1.0770612
-0.99529652
-1.0220962
-0.94340282
-0.97450411
-0.89394947
-0.91699441
-0.83887945
-0.89866486
-0.9600564
-1.0114654
-1.0666415
-1.1125411
-1.1633417
-1.2053149
-1.254388
-1.2932333
-1.3414311
-1.3789734
-1.4269656
-1.4645066
-1.513599
-1.5517941
-1.6031828
-1.6435091
-1.6987412
-1.7429916
-1.803842
-1.8544946
-1.9234843
-1.9834701
-2.0642826
-2.1403136
-2.2387775
-2.3387057
-2.4627959
-2.6021691
-2.760927
-2.9519278
-3.1694785
-3.4520542
-3.7741853
-4.2139431
-4.6763358
-5.3302573
-6.2691269
-6.7898793
-3.4148826
-0.48099593
1.1365935
1.7581985
1.8645848
1.89411
0.90577055
0.77728879
1.2496366
1.0712708
0.41069451
-0.63938629
-2.439174
-4.4641728
-4.5038631
-4.2538617
-3.9759844
-3.7584205
-3.42667
-3.1914888
-2.9580413
-2.7750553
-2.6174646
-2.4721046
-2.3644589
-2.24166
-2.1712213
-2.067463
-2.0168089
-1.9245597
-1.8876762
-1.8044031
-1.7758849
-1.6994566
-1.6754859
-1.604011
-1.5834333
-1.5145235
-1.4950386
-1.4286096
-1.4082262
-1.3427995
-1.3201432
-1.2550522
-1.2284713
-1.1633688
-1.1307307
-1.0643099
-1.0249699
-0.95447893
-0.90730685
-0.82976113
-0.81445446
-0.94288904
-1.0578506
-1.1618546
-1.2579046
-1.3485564
-1.4360318
-1.5217851
-1.6081507
-1.6985254
-1.7941766
-1.8964927
-2.0089872
-2.1383776
-2.2887728
-2.4496243
-2.6170908
-2.7795474
-2.7045225
-1.7762622
-0.54421908
0.2901014
2.1217221
2.3317379
2.9501953
3.3890263
4.1246912
5.2403377
4.8745644
3.8113451
3.2440886
2.9517212
2.8812022
2.7210265
2.6789902
2.6504978
2.7221317
2.9960903
3.0969268
3.212779
3.3785809
3.5261612
4.5081891
5.615711
6.443879
8.5274763
9.4935617
8.6868089
10.423604
4.9670658
-0.03813163
-2.2369671
-3.1434814
-3.3387299
-4.3288403
-4.9519875
-4.9658919
-4.9698589
-5.4449027
-5.2578873
-5.5033423
-5.755341
-5.8552033
-5.776332
-5.9532846
-5.7265383
-5.8529766
-5.9157708
-5.9343323
-5.9253571
-5.9626575
-5.8543952
-5.894995
-5.8266478
-5.7507989
-5.8126663
-5.6528516
-5.6670657
-5.5253323
-5.5389018
-5.4249334
-5.3762856
-5.2808365
-5.2206166
-5.1134275
-5.0732073
-4.9906006
-4.8636382
-4.840434
-4.7082129
-4.5618658
-4.556753
-4.4795856
-4.4050656
-4.253518
-4.139079
-4.0964501
-4.0506437
-3.94328
-3.8461654
-3.7053828
-3.6409379
-3.6155516
-3.4876953
-3.3767265
-3.3320869
-3.1622177
-3.3637728
-3.385718
-3.5112511
-3.6611795
-3.6395765
-3.7298285
-3.88629
-3.9746699
-4.0825318
-4.1241857
-4.1504908
-4.2910872
-4.4600857
-4.5088669
-4.5941186
-4.5768169
-4.7622057
-4.887274
-4.8986734
-5.0469479
-5.1123899
-5.151814
-5.2819609
-5.3202193
-5.4340167
-5.4610768
-5.6055656
-5.587726
-5.6830665
-5.7752491
-5.796788
-5.8353197
-5.8765866
-5.9315762
-5.9631088
-5.9433599
-6.0150177
-5.9161391
-5.9972968
-5.8560486
-5.9598599
-5.8425246
-5.8545289
-5.8509168
-5.7487477
-5.4217888
-5.1303862
-5.3227187
-5.0121731
-4.7412953
-4.0364903
-3.6771109
-3.1398163
-1.9755229