/*--------------------------------*- C++ -*----------------------------------*\
| =========                 |                                                 |
| \\      /  F ield         | OpenFOAM: The Open Source CFD Toolbox           |
|  \\    /   O peration     | Version:  v2012                                 |
|   \\  /    A nd           | Website:  www.openfoam.com                      |
|    \\/     M anipulation  |                                                 |
\*---------------------------------------------------------------------------*/
FoamFile
{
    version     2.0;
    format      ascii;
    class       volScalarField;
    location    "283";
    object      k;
}
// * * * * * * * * * * * * * * * * * * * * * * * * * * * * * * * * * * * * * //

dimensions      [0 2 -2 0 0 0 0];


internalField   nonuniform List<scalar> 
74980
(
0.37143457
0.37146094
0.37341113
0.37337983
0.37340358
0.37338395
0.37340953
0.37338873
0.37340312
0.37339617
0.37339769
0.37339549
0.37339442
0.37339392
0.37339375
0.3733937
0.3733937
0.37339375
0.37339391
0.37339442
0.37339549
0.37339769
0.37339617
0.37340312
0.37338873
0.37340953
0.37338396
0.37340358
0.37337984
0.37341114
0.37339623
0.37343083
0.37341143
0.37342854
0.37341967
0.37342111
0.37341792
0.37341679
0.37341616
0.37341609
0.37341611
0.37341617
0.37341622
0.37341627
0.3734163
0.37341633
0.37341635
0.37341638
0.37341641
0.37341643
0.37341645
0.37341647
0.37341649
0.3734165
0.37341651
0.37341653
0.37341654
0.37341654
0.37343388
0.37343377
0.37343366
0.37343355
0.37343345
0.37343323
0.3734311
0.37342841
0.37342559
0.37342289
0.37342058
0.37341886
0.37341778
0.37341721
0.37341695
0.3734168
0.37341668
0.37341656
0.37341648
0.37341649
0.37341706
0.37341813
0.37342127
0.37341979
0.37342862
0.37341148
0.37343085
0.37339623
0.37145578
0.37147392
0.37146217
0.3714744
0.37147005
0.37147056
0.37146767
0.37146597
0.37146503
0.37146482
0.37146488
0.37146507
0.3714653
0.37146558
0.37146601
0.37146676
0.37146801
0.37146986
0.37147229
0.37147506
0.37147786
0.37148045
0.37148235
0.37148284
0.3714831
0.37148336
0.37148364
0.37148388
0.28578391
0.28705506
0.28833816
0.28963349
0.29094126
0.29226156
0.29359445
0.2949399
0.29629782
0.29766806
0.29905045
0.30044481
0.30185091
0.30326863
0.30469786
0.30613859
0.30759089
0.30905495
0.31053104
0.31201956
0.31352099
0.31503587
0.31656481
0.31810845
0.31966743
0.32124241
0.32283401
0.32444277
0.32606922
0.32771383
0.32937699
0.33105906
0.33276034
0.33448107
0.33622147
0.33798173
0.33976201
0.34156246
0.34338322
0.34522446
0.34708639
0.34896936
0.35087409
0.3528021
0.35475637
0.35674269
0.35876831
0.36084377
0.36296347
0.36513525
0.36728611
0.36942843
0.37143225
0.37146097
0.36941885
0.36728128
0.36511563
0.36295555
0.36083758
0.35876691
0.35674249
0.35475664
0.35280236
0.35087443
0.34896983
0.347087
0.34522517
0.34338399
0.34156326
0.33976281
0.33798253
0.33622227
0.33448187
0.33276116
0.33105992
0.32937789
0.3277148
0.32607029
0.32444395
0.32283532
0.32124389
0.3196691
0.31811033
0.31656692
0.31503823
0.31352362
0.31202248
0.31053426
0.30905846
0.30759471
0.30614271
0.30470228
0.30327333
0.3018559
0.30045009
0.299056
0.29767387
0.29630389
0.29494624
0.29360103
0.29226836
0.29094829
0.28964075
0.28834561
0.2870627
0.28579173
0.28790596
0.28779805
0.28768816
0.28757527
0.28745826
0.28733601
0.2872075
0.28707188
0.2869287
0.28677795
0.28662012
0.28645632
0.28628814
0.28580911
0.28583826
0.28588081
0.28593737
0.28600788
0.28609198
0.2861893
0.28629941
0.28642175
0.28655545
0.28669929
0.28685165
0.28701056
0.28717378
0.28733891
0.28750353
0.28766541
0.28782264
0.28797378
0.28811795
0.2882548
0.28838449
0.28850759
0.28862499
0.28873772
0.28884687
0.28895351
0.2890586
0.28916296
0.28926722
0.28937186
0.29053232
0.29042987
0.29032798
0.29022623
0.29012405
0.29002069
0.28991526
0.28980674
0.28969406
0.28957616
0.28945211
0.28932127
0.28918332
0.28903844
0.28888738
0.28873141
0.28857232
0.28841227
0.28825365
0.28809887
0.2879502
0.28780968
0.28767894
0.28755926
0.28745152
0.2873563
0.28727402
0.28720506
0.28714975
0.28710816
0.28707968
0.28836216
0.28838993
0.28843051
0.28848449
0.28855183
0.2886322
0.28872526
0.28883059
0.28894762
0.28907543
0.28921276
0.28935792
0.28950884
0.2896632
0.2898186
0.28997264
0.29012322
0.29026865
0.29040778
0.29054001
0.2906653
0.29078407
0.29089707
0.29100527
0.29110973
0.29121152
0.2913116
0.29141082
0.29150987
0.29160926
0.29170935
0.2929048
0.29280718
0.29271039
0.29261409
0.29251783
0.29242096
0.29232268
0.29222205
0.29211803
0.29200953
0.29189556
0.29177528
0.29164816
0.29151415
0.2913737
0.29122789
0.29107833
0.2909271
0.29077657
0.2906292
0.29048733
0.29035306
0.29022809
0.29011372
0.29001083
0.28991999
0.28984159
0.28977595
0.28972337
0.28968386
0.28965684
0.2909639
0.29099014
0.29102852
0.29107964
0.2911435
0.29121986
0.29130842
0.29140884
0.29152058
0.29164278
0.29177415
0.29191298
0.29205715
0.29220428
0.29235189
0.2924976
0.29263934
0.29277552
0.29290515
0.29302784
0.29314376
0.29325349
0.29335796
0.29345819
0.29355527
0.29365025
0.29374404
0.2938374
0.29393095
0.29402511
0.29412017
0.29535655
0.29526407
0.29517253
0.29508166
0.29499107
0.29490017
0.29480822
0.29471432
0.29461744
0.29451646
0.29441032
0.29429807
0.29417904
0.29405302
0.29392033
0.29378195
0.29363944
0.29349487
0.29335067
0.29320936
0.29307333
0.29294471
0.29282521
0.29271609
0.29261816
0.29253194
0.2924577
0.29239569
0.29234609
0.29230889
0.29228347
0.29361562
0.29364017
0.29367613
0.29372413
0.29378422
0.29385627
0.2939401
0.29403548
0.29414199
0.29425884
0.29438483
0.29451827
0.29465705
0.29479875
0.29494082
0.29508079
0.29521655
0.29534652
0.29546974
0.29558589
0.29569522
0.29579844
0.29589653
0.29599058
0.29608172
0.29617099
0.29625926
0.29634728
0.2964356
0.29652461
0.29661456
0.2978943
0.29780676
0.2977201
0.29763411
0.29754839
0.29746241
0.29737543
0.29728656
0.29719478
0.29709894
0.29699793
0.29689075
0.2967767
0.2966555
0.29652749
0.29639367
0.29625564
0.29611558
0.29597601
0.2958395
0.29570848
0.29558504
0.29547081
0.29536695
0.29527417
0.29519281
0.29512303
0.29506494
0.29501861
0.29498394
0.29496028
0.29631738
0.2963401
0.29637344
0.29641803
0.29647404
0.29654146
0.29662025
0.29671035
0.29681149
0.29692305
0.29704397
0.29717266
0.29730708
0.2974448
0.29758324
0.29771982
0.29785232
0.29797904
0.29809895
0.29821166
0.29831741
0.29841692
0.29851117
0.29860129
0.2986884
0.29877356
0.29885767
0.29894143
0.2990254
0.29910994
0.2991953
0.30051655
0.30043305
0.30035026
0.30026795
0.30018572
0.30010304
0.30001918
0.29993324
0.29984419
0.29975087
0.29965219
0.29954717
0.29943513
0.29931589
0.29918989
0.29905825
0.29892275
0.29878568
0.29864964
0.29851725
0.2983909
0.29827257
0.29816376
0.29806546
0.29797816
0.29790205
0.29783711
0.29778327
0.29774048
0.29770854
0.29768678
0.29906831
0.29908908
0.29911958
0.2991605
0.29921207
0.29927443
0.29934772
0.29943206
0.29952738
0.29963327
0.29974886
0.29987275
0.30000305
0.30013739
0.30027319
0.30040781
0.30053889
0.30066456
0.30078361
0.30089552
0.3010004
0.30109887
0.30119186
0.30128047
0.30136581
0.30144892
0.3015307
0.30161187
0.30169299
0.30177445
0.30185648
0.30321308
0.30313204
0.30305143
0.302971
0.30289036
0.30280894
0.30272602
0.30264071
0.30255199
0.30245876
0.30235997
0.30225474
0.30214254
0.30202334
0.30189778
0.30176715
0.30163342
0.30149899
0.3013665
0.30123852
0.30111732
0.30100471
0.30090198
0.30080987
0.30072867
0.30065834
0.30059869
0.30054948
0.30051052
0.30048151
0.30046178
0.30186696
0.30188561
0.30191308
0.30195001
0.30199674
0.30205355
0.30212072
0.30219855
0.30228719
0.30238646
0.30249573
0.30261386
0.30273916
0.30286944
0.3030022
0.30313483
0.30326489
0.30339035
0.30350982
0.30362256
0.30372849
0.30382804
0.303922
0.30401138
0.30409721
0.30418051
0.30426214
0.30434282
0.30442312
0.30450342
0.304584
0.30596652
0.30588583
0.30580523
0.30572446
0.30564315
0.30556073
0.30547651
0.30538965
0.30529919
0.30520413
0.30510357
0.3049968
0.30488351
0.30476387
0.30463875
0.30450961
0.30437853
0.30424794
0.30412039
0.3039983
0.30388372
0.30377822
0.3036828
0.30359796
0.30352374
0.30345993
0.30340613
0.30336198
0.30332716
0.3033013
0.30328374
0.30471203
0.30472846
0.30475268
0.30478532
0.30482677
0.30487741
0.30493767
0.305008
0.30508871
0.30517987
0.30528109
0.30539153
0.30550979
0.30563393
0.30576169
0.30589059
0.30601825
0.30614258
0.30626204
0.30637571
0.30648327
0.30658492
0.30668126
0.3067731
0.30686134
0.3069469
0.30703057
0.30711303
0.3071948
0.30727626
0.30735767
0.30875472
0.30867208
0.30858926
0.30850601
0.308422
0.3083367
0.30824949
0.30815963
0.30806629
0.30796867
0.30786604
0.30775795
0.30764432
0.30752556
0.30740268
0.30727726
0.30715133
0.3070272
0.30690723
0.30679352
0.30668785
0.30659143
0.30650498
0.30642874
0.30636257
0.30630606
0.30625871
0.30622003
0.30618963
0.30616709
0.30615179
0.30760312
0.30761727
0.30763812
0.30766624
0.30770206
0.30774601
0.3077986
0.30786039
0.30793183
0.30801315
0.30810424
0.30820452
0.30831292
0.30842789
0.30854751
0.30866956
0.30879189
0.3089125
0.30902983
0.30914283
0.30925098
0.30935425
0.30945297
0.30954774
0.30963925
0.30972824
0.30981537
0.30990123
0.30998629
0.31007086
0.31015517
0.31155696
0.3114707
0.31138414
0.31129711
0.3112093
0.31112031
0.31102961
0.31093661
0.3108407
0.31074128
0.31063789
0.31053034
0.31041874
0.3103037
0.31018628
0.31006801
0.30995078
0.30983659
0.30972742
0.30962502
0.30953073
0.30944547
0.30936965
0.3093033
0.3092461
0.30919757
0.3091571
0.30912418
0.30909834
0.3090792
0.30906619
0.31054131
0.31055318
0.31057064
0.31059418
0.3106242
0.31066114
0.31070554
0.31075799
0.31081904
0.31088904
0.31096807
0.31105583
0.3111516
0.31125422
0.31136216
0.31147366
0.31158689
0.31170013
0.31181195
0.31192124
0.31202741
0.31213019
0.3122297
0.31232627
0.31242036
0.31251249
0.31260315
0.31269279
0.31278177
0.31287034
0.31295865
0.31435957
0.31426934
0.31417894
0.31408828
0.31399714
0.31390523
0.31381219
0.3137176
0.31362107
0.31352224
0.3134209
0.31331704
0.313211
0.31310341
0.3129953
0.312888
0.31278306
0.3126821
0.31258667
0.31249806
0.31241722
0.31234472
0.31228075
0.31222514
0.3121775
0.31213727
0.31210385
0.31207672
0.31205544
0.31203965
0.31202889
0.3135294
0.31353908
0.31355327
0.31357235
0.31359665
0.3136266
0.3136627
0.31370554
0.31375566
0.31381351
0.31387929
0.31395294
0.31403404
0.31412182
0.3142152
0.31431289
0.31441348
0.31451559
0.31461804
0.31471986
0.31482042
0.31491937
0.31501662
0.31511228
0.31520658
0.31529983
0.31539235
0.31548441
0.31557627
0.31566805
0.31575985
0.31716051
0.31706773
0.3169752
0.31688286
0.31679063
0.31669833
0.31660574
0.31651265
0.31641882
0.31632414
0.31622857
0.31613224
0.31603554
0.31593906
0.31584367
0.31575043
0.31566052
0.3155751
0.31549527
0.31542188
0.31535552
0.31529647
0.31524473
0.31520002
0.3151619
0.31512983
0.31510325
0.31508168
0.31506473
0.31505208
0.31504341
0.31657154
0.31657924
0.31659044
0.31660539
0.31662437
0.31664773
0.31667593
0.3167095
0.31674894
0.31679471
0.31684712
0.31690625
0.31697193
0.31704372
0.31712097
0.3172028
0.31728824
0.31737633
0.31746616
0.31755697
0.3176482
0.31773948
0.31783063
0.3179216
0.31801249
0.31810342
0.31819456
0.31828603
0.31837796
0.3184704
0.31856337
0.31997101
0.31987879
0.31978741
0.31969689
0.31960719
0.31951826
0.31942999
0.3193423
0.31925511
0.31916842
0.31908229
0.31899692
0.31891265
0.31882998
0.31874957
0.31867215
0.31859852
0.31852944
0.31846559
0.31840746
0.31835535
0.31830934
0.31826929
0.31823486
0.31820561
0.31818106
0.31816072
0.31814417
0.31813109
0.31812124
0.31811443
0.31967274
0.31967874
0.31968736
0.31969872
0.31971303
0.31973058
0.31975175
0.31977697
0.31980671
0.31984139
0.31988135
0.31992678
0.31997767
0.32003384
0.32009494
0.32016047
0.32022984
0.32030241
0.32037761
0.32045489
0.32053382
0.32061409
0.32069551
0.32077801
0.32086155
0.32094615
0.32103187
0.32111875
0.32120684
0.32129611
0.32138653
0.32281339
0.32272582
0.32263971
0.3225551
0.32247203
0.3223905
0.32231047
0.32223192
0.32215486
0.32207932
0.32200542
0.32193332
0.32186328
0.32179566
0.32173088
0.32166941
0.32161172
0.32155825
0.32150935
0.32146526
0.32142608
0.32139174
0.32136203
0.32133662
0.32131508
0.32129701
0.321282
0.32126972
0.32125991
0.3212524
0.32124711
0.32283818
0.32284283
0.32284935
0.32285777
0.32286823
0.32288097
0.32289626
0.32291446
0.32293597
0.32296116
0.32299036
0.32302382
0.32306162
0.32310376
0.32315007
0.32320034
0.32325423
0.32331142
0.32337155
0.32343429
0.32349938
0.32356659
0.32363578
0.32370685
0.32377976
0.32385449
0.32393103
0.32400939
0.32408957
0.32417153
0.32425521
0.32571557
0.32563666
0.32555969
0.32548472
0.32541178
0.32534088
0.32527203
0.32520523
0.32514052
0.32507792
0.32501753
0.32495946
0.32490389
0.324851
0.32480105
0.32475427
0.32471092
0.3246712
0.32463524
0.32460314
0.32457485
0.32455026
0.32452911
0.3245111
0.32449586
0.32448303
0.32447231
0.32446344
0.32445625
0.32445061
0.32444651
0.32607259
0.32607622
0.32608111
0.32608724
0.32609471
0.32610368
0.32611437
0.32612702
0.32614196
0.32615954
0.32618006
0.32620375
0.32623076
0.32626115
0.32629491
0.32633194
0.32637213
0.32641532
0.32646135
0.32651004
0.32656126
0.32661488
0.32667082
0.32672901
0.32678942
0.32685203
0.32691683
0.32698383
0.32705299
0.32712429
0.32719768
0.3285719
0.32850895
0.32844824
0.32838978
0.32833357
0.32827962
0.32822793
0.32817854
0.32813147
0.32808679
0.32804459
0.32800494
0.32796796
0.32793375
0.3279024
0.32787398
0.32784851
0.32782599
0.32780632
0.32778937
0.32777489
0.3277626
0.32775219
0.32774335
0.32773587
0.32772958
0.32772436
0.32772011
0.32771688
0.32937981
0.3293827
0.32938641
0.32939085
0.32939614
0.32940235
0.32940963
0.32941813
0.32942815
0.32943996
0.32945385
0.32947003
0.32948866
0.32950982
0.32953355
0.32955986
0.32958872
0.32962008
0.3296539
0.32969011
0.32972867
0.32976952
0.32981265
0.32985801
0.32990561
0.32995544
0.3300075
0.3300618
0.33011833
0.33169365
0.33164353
0.33159559
0.3315498
0.33150616
0.33146467
0.33142532
0.33138809
0.33135301
0.33132008
0.33128931
0.33126073
0.33123437
0.33121024
0.33118835
0.33116869
0.33115124
0.33113596
0.33112275
0.33111147
0.33110191
0.33109383
0.33108692
0.33108096
0.3310758
0.33107135
0.33106757
0.33106434
0.33106171
0.33276286
0.33276526
0.33276809
0.33277133
0.33277509
0.3327794
0.33278428
0.33278984
0.33279632
0.33280398
0.33281306
0.33282376
0.33283621
0.33285049
0.33286665
0.33288472
0.33290474
0.33292671
0.33295064
0.33297653
0.33300438
0.33303419
0.33306598
0.33309974
0.33313549
0.33317325
0.33321303
0.33325484
0.33489595
0.33485993
0.33482578
0.33479349
0.33476303
0.33473439
0.33470754
0.33468245
0.33465913
0.33463754
0.33461768
0.33459952
0.33458304
0.33456823
0.33455503
0.33454343
0.33453336
0.33452476
0.3345175
0.33451142
0.33450628
0.33450181
0.33449782
0.3344942
0.33449099
0.3344882
0.33448571
0.33448351
0.33622385
0.33622589
0.33622807
0.33623048
0.33623326
0.33623633
0.33623963
0.33624319
0.33624724
0.33625203
0.33625778
0.33626464
0.33627273
0.3362821
0.3362928
0.33630485
0.33631831
0.3363332
0.33634955
0.33636739
0.33638675
0.33640764
0.3364301
0.33645415
0.33647981
0.33650711
0.33653608
0.33656674
0.33826681
0.33824103
0.33821673
0.3381939
0.33817252
0.33815254
0.33813395
0.33811672
0.3381008
0.33808619
0.33807284
0.33806072
0.33804981
0.33804006
0.33803144
0.33802392
0.33801747
0.33801202
0.33800751
0.33800378
0.33800062
0.33799778
0.33799504
0.33799238
0.33798994
0.33798784
0.33798594
0.33798407
0.33976432
0.33976602
0.33976764
0.33976948
0.33977168
0.33977403
0.33977633
0.33977859
0.33978102
0.33978389
0.3397874
0.33979169
0.33979682
0.33980282
0.33980972
0.33981755
0.33982635
0.33983613
0.33984694
0.33985881
0.33987177
0.33988586
0.3399011
0.33991751
0.33993515
0.33995402
0.33997416
0.3399956
0.34175239
0.34173478
0.34171828
0.34170285
0.34168847
0.34167511
0.34166274
0.34165134
0.34164088
0.34163132
0.34162263
0.34161479
0.34160775
0.3416015
0.341596
0.34159123
0.34158718
0.34158383
0.34158112
0.34157895
0.34157711
0.34157532
0.34157335
0.34157121
0.34156918
0.34156756
0.34156622
0.34156473
0.34338537
0.34338662
0.34338767
0.3433891
0.34339104
0.34339305
0.34339476
0.34339618
0.34339755
0.34339916
0.34340122
0.34340382
0.343407
0.34341077
0.34341513
0.34342009
0.34342568
0.34343193
0.34343885
0.34344649
0.34345486
0.343464
0.34347393
0.34348468
0.34349628
0.34350875
0.34352212
0.3435364
0.34534686
0.34533542
0.34532472
0.34531477
0.34530552
0.34529697
0.34528907
0.34528182
0.34527519
0.34526915
0.34526367
0.34525874
0.34525432
0.3452504
0.34524696
0.34524399
0.34524151
0.3452395
0.34523796
0.3452368
0.34523581
0.34523469
0.34523317
0.34523123
0.34522932
0.34522804
0.34522734
0.34522642
0.34708804
0.3470885
0.34708878
0.34708992
0.34709186
0.34709379
0.34709518
0.34709605
0.34709672
0.34709752
0.34709865
0.34710019
0.34710212
0.34710445
0.34710715
0.34711023
0.3471137
0.34711757
0.34712186
0.3471266
0.3471318
0.3471375
0.3471437
0.34715042
0.3471577
0.34716555
0.34717399
0.34718304
0.34904433
0.34903729
0.34903072
0.34902462
0.34901896
0.34901374
0.34900892
0.3490045
0.34900046
0.34899679
0.34899345
0.34899044
0.34898773
0.34898533
0.34898322
0.34898139
0.34897989
0.34897873
0.34897792
0.34897741
0.34897701
0.34897635
0.34897507
0.34897311
0.3489711
0.34897009
0.34897034
0.34897054
0.35087458
0.35087341
0.35087245
0.35087332
0.35087542
0.35087741
0.35087858
0.35087904
0.35087922
0.35087949
0.35088004
0.35088091
0.35088207
0.35088349
0.35088514
0.35088701
0.35088911
0.35089143
0.350894
0.35089682
0.35089992
0.35090331
0.350907
0.350911
0.35091533
0.35092
0.35092503
0.35093043
0.35284165
0.35283759
0.3528338
0.35283029
0.35282703
0.35282402
0.35282123
0.35281867
0.35281633
0.35281418
0.35281222
0.35281044
0.35280883
0.35280738
0.3528061
0.352805
0.35280411
0.35280347
0.35280312
0.35280305
0.35280309
0.35280283
0.35280179
0.35279979
0.35279764
0.35279698
0.35279892
0.35280154
0.35475414
0.3547493
0.35474602
0.35474634
0.35474846
0.35475037
0.35475121
0.35475123
0.35475098
0.35475087
0.35475105
0.35475151
0.3547522
0.35475305
0.35475404
0.35475516
0.35475639
0.35475774
0.35475921
0.35476082
0.35476257
0.35476448
0.35476654
0.35476877
0.35477117
0.35477377
0.35477656
0.35477955
0.35674773
0.35674559
0.35674358
0.35674172
0.35673998
0.35673837
0.35673687
0.35673548
0.3567342
0.35673301
0.35673192
0.35673091
0.35672997
0.35672912
0.35672836
0.3567277
0.35672717
0.35672686
0.35672681
0.35672709
0.35672756
0.35672783
0.3567273
0.35672561
0.35672367
0.35672384
0.35672894
0.35673696
0.35875663
0.35874447
0.35873719
0.35873646
0.35873804
0.35873934
0.35873943
0.35873878
0.35873806
0.35873764
0.35873757
0.35873777
0.35873817
0.35873867
0.35873926
0.35873991
0.35874061
0.35874135
0.35874215
0.35874301
0.35874393
0.35874493
0.35874599
0.35874712
0.35874833
0.35874964
0.35875103
0.35875252
0.36080223
0.36080125
0.36080031
0.36079944
0.36079862
0.36079785
0.36079712
0.36079644
0.36079579
0.36079518
0.36079461
0.36079407
0.36079355
0.36079307
0.36079262
0.36079223
0.36079194
0.36079182
0.36079198
0.36079255
0.36079352
0.3607946
0.36079508
0.36079432
0.36079323
0.36079439
0.36080384
0.36082046
0.36293252
0.36291262
0.36290156
0.36290049
0.36290106
0.36290126
0.36290014
0.36289863
0.36289743
0.36289675
0.36289652
0.36289658
0.36289679
0.36289708
0.36289742
0.36289778
0.36289816
0.36289854
0.36289894
0.36289936
0.3628998
0.36290025
0.36290074
0.36290124
0.36290176
0.36290232
0.36290291
0.36290353
0.36505388
0.36505353
0.36505318
0.36505285
0.36505253
0.36505222
0.36505192
0.36505163
0.36505135
0.36505107
0.3650508
0.36505053
0.36505027
0.36505001
0.36504976
0.36504954
0.36504938
0.36504936
0.36504962
0.36505035
0.36505171
0.36505356
0.36505525
0.36505547
0.36505536
0.36505542
0.36506701
0.36508692
0.36725857
0.3672449
0.36723408
0.3672364
0.36723605
0.36723573
0.36723361
0.36723157
0.36723017
0.36722947
0.36722923
0.36722924
0.36722935
0.36722951
0.3672297
0.36722988
0.36723005
0.36723023
0.36723041
0.36723059
0.36723076
0.36723094
0.36723111
0.36723129
0.36723146
0.36723164
0.36723184
0.36723202
0.36939066
0.36939059
0.36939049
0.3693904
0.36939032
0.36939022
0.36939013
0.36939003
0.36938993
0.36938983
0.36938972
0.3693896
0.36938949
0.36938937
0.36938924
0.36938913
0.36938904
0.36938902
0.36938919
0.36938977
0.36939108
0.36939312
0.36939562
0.36939572
0.36939714
0.36939076
0.36940052
0.36940147
0.37145579
0.37147389
0.37146208
0.37147424
0.3714698
0.37147022
0.37146722
0.37146539
0.37146433
0.37146398
0.37146391
0.37146396
0.37146404
0.37146413
0.37146419
0.37146425
0.37146433
0.37146439
0.37146445
0.37146451
0.37146456
0.37146461
0.37146467
0.37146469
0.37146474
0.37146479
0.37146481
0.37146484
0.3733781
0.3733781
0.37337808
0.37337805
0.37337805
0.37337805
0.37337802
0.37337799
0.37337797
0.37337795
0.37337792
0.37337789
0.37337787
0.37337784
0.37337779
0.37337776
0.37337773
0.37337771
0.37337776
0.37337801
0.37337871
0.37337997
0.37338196
0.37338195
0.37338326
0.37337606
0.37338204
0.3733795
0.37339432
0.37337085
0.37334542
0.37332949
0.37332513
0.37332865
0.37333076
0.37333063
0.3733292
0.3733279
0.37332713
0.37332678
0.37332666
0.37332665
0.37332667
0.3733267
0.37332674
0.37332678
0.3733268
0.37332684
0.37332687
0.37332689
0.37332691
0.37332694
0.37332698
0.37332698
0.37332698
0.37332702
0.37332705
0.37332704
0.3732896
0.3732896
0.37328957
0.37328954
0.37328952
0.37328951
0.37328947
0.37328944
0.37328941
0.37328939
0.37328935
0.37328931
0.37328929
0.37328925
0.37328921
0.37328918
0.37328916
0.37328919
0.37328933
0.37328971
0.37329053
0.37329185
0.37329319
0.37329307
0.37329006
0.37328677
0.373293
0.37331848
0.37336189
0.37335221
0.37330827
0.37328039
0.37327385
0.37327752
0.37328087
0.37328104
0.37327962
0.37327825
0.37327741
0.37327701
0.37327686
0.37327684
0.37327686
0.37327689
0.37327694
0.37327698
0.37327702
0.37327706
0.37327709
0.37327712
0.37327716
0.37327719
0.37327722
0.37327725
0.37327729
0.37327731
0.37327734
0.37327736
0.37328145
0.37328141
0.37328138
0.37328135
0.37328131
0.37328126
0.37328123
0.37328119
0.37328115
0.37328111
0.37328107
0.37328102
0.37328098
0.37328094
0.37328089
0.37328085
0.37328082
0.37328084
0.37328098
0.37328138
0.37328225
0.37328369
0.37328521
0.37328512
0.37328169
0.37327762
0.37328359
0.37331129
0.3733578
0.3733588
0.37331599
0.37328962
0.37328422
0.37328846
0.37329188
0.37329188
0.37329027
0.37328878
0.3732879
0.3732875
0.37328737
0.37328736
0.37328738
0.37328743
0.37328749
0.37328754
0.37328758
0.37328763
0.37328769
0.37328773
0.37328778
0.37328782
0.37328787
0.37328792
0.37328797
0.37328802
0.37328806
0.37328811
0.37329152
0.37329145
0.3732914
0.37329134
0.37329128
0.37329121
0.37329116
0.37329111
0.37329105
0.373291
0.37329094
0.37329088
0.37329083
0.37329077
0.37329071
0.37329066
0.37329062
0.37329063
0.37329075
0.37329114
0.37329202
0.37329354
0.3732952
0.37329526
0.3732919
0.37328765
0.37329279
0.37331841
0.37336032
0.37335972
0.37331878
0.37329355
0.37328847
0.37329266
0.37329597
0.37329587
0.3732942
0.37329268
0.3732918
0.37329142
0.37329131
0.3732913
0.37329135
0.37329141
0.37329148
0.37329154
0.3732916
0.37329166
0.37329172
0.37329179
0.37329186
0.37329192
0.37329199
0.37329206
0.37329213
0.3732922
0.37329227
0.37329235
0.37329236
0.37329226
0.37329217
0.37329209
0.373292
0.37329193
0.37329185
0.37329177
0.3732917
0.37329162
0.37329155
0.37329148
0.37329141
0.37329135
0.37329127
0.37329121
0.37329116
0.37329115
0.37329126
0.37329163
0.3732925
0.37329401
0.37329569
0.3732958
0.37329253
0.37328838
0.37329345
0.37331852
0.37335908
0.37335868
0.37331824
0.37329325
0.37328819
0.37329233
0.37329559
0.37329547
0.3732938
0.37329229
0.37329143
0.37329107
0.37329097
0.37329098
0.37329104
0.37329111
0.37329119
0.37329127
0.37329134
0.37329141
0.3732915
0.37329158
0.37329167
0.37329176
0.37329184
0.37329192
0.37329203
0.37329212
0.37329222
0.37329233
0.3732924
0.37329228
0.37329217
0.37329206
0.37329195
0.37329185
0.37329176
0.37329166
0.37329157
0.37329148
0.37329139
0.37329131
0.37329122
0.37329115
0.37329105
0.37329098
0.37329092
0.3732909
0.37329099
0.37329135
0.3732922
0.3732937
0.37329537
0.37329548
0.37329222
0.37328809
0.37329313
0.3733181
0.37335851
0.37335844
0.37331802
0.37329307
0.37328804
0.37329218
0.37329545
0.37329534
0.37329367
0.37329218
0.37329133
0.37329098
0.37329089
0.37329091
0.37329098
0.37329106
0.37329116
0.37329125
0.37329134
0.37329142
0.37329152
0.37329162
0.37329172
0.37329183
0.37329192
0.37329203
0.37329215
0.37329227
0.37329239
0.37329253
0.37329268
0.37329253
0.3732924
0.37329227
0.37329214
0.37329203
0.37329192
0.37329181
0.3732917
0.37329159
0.37329149
0.3732914
0.37329131
0.37329121
0.37329112
0.37329103
0.37329096
0.37329093
0.37329101
0.37329136
0.3732922
0.37329369
0.37329535
0.37329546
0.37329219
0.37328805
0.37329309
0.37331804
0.37335845
0.37335851
0.3733181
0.37329314
0.3732881
0.37329224
0.37329551
0.37329541
0.37329375
0.37329226
0.37329142
0.37329108
0.373291
0.37329103
0.37329111
0.3732912
0.3732913
0.37329141
0.3732915
0.3732916
0.3732917
0.37329181
0.37329193
0.37329204
0.37329216
0.37329228
0.37329241
0.37329255
0.37329268
0.37329284
0.37329306
0.37329291
0.37329276
0.37329262
0.37329248
0.37329236
0.37329224
0.37329213
0.37329201
0.3732919
0.37329178
0.37329168
0.37329158
0.37329148
0.37329136
0.37329125
0.37329117
0.37329113
0.37329121
0.37329155
0.37329239
0.37329388
0.37329553
0.37329564
0.37329236
0.37328821
0.37329326
0.37331824
0.37335868
0.37335909
0.37331853
0.37329347
0.3732884
0.37329258
0.37329587
0.37329577
0.37329412
0.37329263
0.37329179
0.37329145
0.37329137
0.37329141
0.3732915
0.37329163
0.37329181
0.37329194
0.37329206
0.37329217
0.37329228
0.37329239
0.37329252
0.37329263
0.37329275
0.37329287
0.37329301
0.37329316
0.3732933
0.37329345
0.37329407
0.37329392
0.37329377
0.37329363
0.37329349
0.37329337
0.37329325
0.37329313
0.37329301
0.37329289
0.37329277
0.37329264
0.37329246
0.3732921
0.37329185
0.37329171
0.37329163
0.37329159
0.37329166
0.373292
0.37329284
0.37329433
0.37329598
0.37329605
0.37329272
0.3732885
0.37329357
0.37331879
0.37335972
0.37336032
0.37331842
0.37329282
0.37328769
0.37329196
0.37329535
0.37329532
0.3732937
0.37329222
0.37329138
0.37329104
0.37329096
0.373291
0.37329109
0.37329123
0.3732915
0.37329203
0.37329273
0.373293
0.37329314
0.37329327
0.37329339
0.3732935
0.37329362
0.37329374
0.37329388
0.37329402
0.37329417
0.37329431
0.3732926
0.37329245
0.37329231
0.37329218
0.37329205
0.37329193
0.37329181
0.37329169
0.37329156
0.37329139
0.37329105
0.3732899
0.37328887
0.37328829
0.37328802
0.37328787
0.37328779
0.37328775
0.37328783
0.37328817
0.373289
0.37329045
0.37329202
0.37329199
0.37328853
0.37328427
0.37328965
0.37331601
0.37335881
0.37335781
0.3733113
0.37328362
0.37327767
0.37328176
0.37328524
0.37328537
0.37328389
0.37328249
0.37328168
0.37328134
0.37328126
0.3732813
0.37328139
0.37328153
0.37328181
0.3732824
0.37328351
0.37328517
0.37328672
0.37328714
0.37328732
0.37328745
0.37328757
0.37328769
0.37328781
0.37328794
0.37328808
0.37328822
0.37328679
0.37328666
0.37328653
0.3732864
0.37328628
0.37328616
0.37328604
0.37328584
0.37328538
0.37328361
0.37328137
0.3732796
0.37327846
0.37327786
0.37327758
0.37327744
0.37327735
0.37327731
0.3732774
0.37327773
0.37327852
0.37327984
0.3732812
0.37328099
0.3732776
0.3732739
0.37328042
0.37330829
0.37335222
0.37336189
0.37331849
0.37329303
0.37328682
0.37329015
0.3732932
0.37329337
0.37329207
0.37329081
0.37329006
0.37328973
0.37328965
0.37328969
0.37328977
0.37328992
0.3732902
0.3732908
0.37329194
0.37329375
0.37329615
0.37329874
0.37330046
0.37330092
0.37330109
0.37330122
0.37330134
0.37330146
0.37330159
0.37330171
0.37334147
0.37334135
0.37334123
0.37334112
0.373341
0.37334084
0.37334049
0.37333905
0.37333637
0.37333364
0.37333122
0.37332942
0.37332829
0.3733277
0.37332742
0.37332726
0.37332718
0.37332713
0.37332719
0.37332747
0.37332818
0.37332943
0.3733308
0.37333089
0.37332874
0.37332519
0.37332953
0.37334543
0.37337085
0.37339432
0.37337951
0.37338207
0.37337612
0.37338334
0.37338207
0.37338213
0.37338019
0.37337899
0.37337834
0.37337816
0.37337817
0.37337825
0.37337835
0.3733785
0.37337877
0.37337935
0.37338046
0.37338222
0.37338459
0.37338733
0.37339016
0.3733927
0.37339365
0.37339385
0.37339396
0.37339407
0.37339418
0.37339429
0.28819857
0.28940414
0.29062706
0.29186799
0.29312728
0.29440499
0.29570083
0.29701415
0.29834383
0.29968822
0.30104513
0.30241227
0.30378626
0.30516373
0.30654123
0.30791579
0.30928519
0.31064855
0.31200665
0.31336225
0.31471981
0.3160851
0.31746454
0.3188642
0.32028918
0.32174334
0.32322912
0.3247477
0.32629916
0.32788285
0.32949763
0.33114211
0.33281483
0.33451439
0.33623953
0.33798916
0.33976236
0.3415584
0.34337669
0.34521685
0.34707865
0.3489621
0.35086767
0.35279671
0.35475204
0.35673938
0.35876591
0.36084215
0.36296246
0.36513468
0.36728583
0.36942832
0.37143222
0.37145028
0.36940856
0.36727156
0.36510727
0.36294746
0.36082972
0.35875896
0.35673434
0.35474809
0.35279326
0.35086471
0.3489596
0.34707655
0.34521508
0.34337517
0.34155705
0.33976111
0.33798797
0.33623834
0.33451314
0.33281345
0.33114053
0.32949574
0.32788053
0.32629626
0.32474407
0.3232246
0.32173772
0.32028231
0.31885594
0.31745479
0.31607384
0.31470711
0.31334825
0.31199157
0.31063263
0.30926871
0.30789897
0.3065243
0.30514684
0.30376955
0.3023958
0.30102894
0.29967229
0.29832816
0.29699872
0.29568559
0.29438992
0.29311239
0.29185328
0.29061247
0.28938957
0.28818392
0.28814461
0.28807041
0.28795793
0.28781139
0.28763996
0.28745377
0.28726186
0.28707172
0.28688926
0.28671884
0.28656325
0.28642396
0.28630128
0.28619477
0.28610346
0.28602618
0.28596172
0.28590898
0.28586702
0.28583504
0.28581209
0.28579693
0.28578802
0.28705897
0.28706742
0.28708178
0.28710354
0.28713394
0.28717388
0.2872242
0.28728583
0.28735987
0.28744757
0.28755012
0.28766854
0.28780336
0.28795433
0.28812012
0.28829802
0.28848382
0.28867168
0.28885424
0.28902257
0.28916663
0.28927737
0.28935059
0.2905737
0.29050131
0.29039208
0.29025016
0.29008455
0.28990518
0.28972088
0.28953897
0.28936515
0.28920358
0.28905685
0.28892618
0.28881174
0.28871292
0.28862866
0.28855771
0.28849882
0.28845086
0.28841287
0.28838403