/*--------------------------------*- C++ -*----------------------------------*\
| =========                 |                                                 |
| \\      /  F ield         | OpenFOAM: The Open Source CFD Toolbox           |
|  \\    /   O peration     | Version:  v2012                                 |
|   \\  /    A nd           | Website:  www.openfoam.com                      |
|    \\/     M anipulation  |                                                 |
\*---------------------------------------------------------------------------*/
FoamFile
{
    version     2.0;
    format      ascii;
    class       volScalarField;
    location    "283";
    object      p;
}
// * * * * * * * * * * * * * * * * * * * * * * * * * * * * * * * * * * * * * //

dimensions      [0 2 -2 0 0 0 0];


internalField   nonuniform List<scalar> 
74980
(
-0.1823486
-0.18209458
-0.18185567
-0.18249412
-0.18272254
-0.18320814
-0.18401693
-0.18520793
-0.18678491
-0.18875005
-0.19104238
-0.19361981
-0.19642313
-0.19940147
-0.20250236
-0.20567251
-0.20885797
-0.21200516
-0.21506174
-0.21797749
-0.22070445
-0.22319704
-0.2254041
-0.2272868
-0.22879878
-0.22993292
-0.23071383
-0.23118198
-0.23142219
-0.23103331
-0.23027088
-0.22900679
-0.22717539
-0.22474131
-0.22169968
-0.21810434
-0.21397963
-0.20936525
-0.20428209
-0.1987523
-0.19279827
-0.18644462
-0.17971719
-0.17264263
-0.16524782
-0.15755947
-0.14960377
-0.14140633
-0.13299154
-0.12438273
-0.11560229
-0.10667139
-0.097609998
-0.088437016
-0.079170302
-0.069826825
-0.060422922
-0.050974477
0.13582795
0.11728942
0.09917312
0.081476738
0.06419882
0.047339535
0.03090116
0.014888769
-0.00068920084
-0.015820679
-0.030489748
-0.044676585
-0.058357581
-0.07150567
-0.084090677
-0.096079576
-0.10743751
-0.11813234
-0.12812459
-0.13738162
-0.14587236
-0.15356484
-0.16042894
-0.16640133
-0.17144775
-0.17547499
-0.17850801
-0.18059227
-0.18081992
-0.17871636
-0.17567083
-0.17162057
-0.16657652
-0.16058764
-0.15370933
-0.14598975
-0.13746709
-0.12817491
-0.11814653
-0.10741357
-0.096016084
-0.083987544
-0.071362887
-0.058175251
-0.044454872
-0.03022884
-0.015521024
-0.00035141757
0.015264363
0.031314444
0.047790495
0.064687751
0.08200451
0.099741
0.1178989
0.13648129
-0.88811148
-0.91151159
-0.93272904
-0.9515466
-0.96778143
-0.98121256
-0.99166162
-0.99902079
-1.002935
-1.0036384
-1.0012526
-0.99560846
-0.98670485
-0.97471598
-0.95975384
-0.94202753
-0.92174806
-0.89917586
-0.87458472
-0.84827222
-0.82054289
-0.79170433
-0.76206243
-0.73192393
-0.70151741
-0.67111177
-0.6409943
-0.61136327
-0.582401
-0.55426451
-0.52708422
-0.5009662
-0.47599284
-0.45222592
-0.4297085
-0.40846769
-0.38851696
-0.36985854
-0.35248541
-0.33638326
-0.32153197
-0.30790632
-0.29547574
-0.28420425
-0.27404756
-0.26496331
-0.25691429
-0.24991868
-0.24398774
-0.23923751
-0.23565861
-0.23322818
-0.23185442
-0.23149046
-0.23290444
-0.23537072
-0.2389613
-0.24371602
-0.24961025
-0.25658525
-0.26461429
-0.27369915
-0.28386182
-0.29514235
-0.30758144
-0.32121507
-0.33607434
-0.35218536
-0.36956897
-0.3882403
-0.40820684
-0.42946658
-0.45200655
-0.47580011
-0.50080446
-0.52695833
-0.55417948
-0.58236304
-0.61138052
-0.64107081
-0.67125251
-0.70172632
-0.73220755
-0.7624236
-0.79214251
-0.82106707
-0.84887731
-0.87526779
-0.89993339
-0.9225745
-0.9429149
-0.96069332
-0.97569484
-0.98771093
-0.99661901
-1.0022602
-1.0046646
-1.0041391
-1.0000608
-0.99264731
-0.98215604
-0.96869085
-0.95241172
-0.93351232
-0.91220653
-0.88872886
-1.0313128
-1.0293969
-1.0268802
-1.0237335
-1.0199333
-1.0154654
-1.0103253
-1.0045226
-0.99808066
-0.9910366
-0.98344502
-0.97537518
-0.96691006
-0.89010823
-0.89244382
-0.89586148
-0.90039519
-0.90598652
-0.91253785
-0.91994777
-0.928121
-0.93696246
-0.94636979
-0.95623115
-0.96642446
-0.97682088
-0.98728671
-0.99768844
-1.0078962
-1.0177873
-1.0272502
-1.0361892
-1.0445252
-1.0521965
-1.059161
-1.0653931
-1.0708837
-1.0756383
-1.0796739
-1.0830178
-1.0857033
-1.0877708
-1.0892632
-1.0902252
-1.1447013
-1.1430703
-1.1408671
-1.1380427
-1.1345506
-1.1303465
-1.125393
-1.1196596
-1.1131265
-1.1057866
-1.0976492
-1.0887416
-1.0791108
-1.0688255
-1.0579743
-1.0466657
-1.0350253
-1.0231917
-1.0113112
-0.99953356
-0.98800831
-0.97687863
-0.96627965
-0.95633425
-0.94715394
-0.93884208
-0.93150232
-0.92524514
-0.92017665
-0.91635751
-0.91374964
-0.9352202
-0.93808115
-0.94228137
-0.94785996
-0.95475302
-0.96284691
-0.97202285
-0.98216959
-0.9931764
-1.0049233
-1.0172774
-1.0300916
-1.0432091
-1.0564655
-1.0696954
-1.0827368
-1.0954357
-1.1076527
-1.1192674
-1.1301817
-1.1403202
-1.1496314
-1.1580861
-1.1656749
-1.1724065
-1.1783029
-1.1833978
-1.1877323
-1.1913539
-1.1943126
-1.1966608
-1.2455067
-1.2423921
-1.2386325
-1.2341734
-1.228962
-1.222948
-1.2160872
-1.2083432
-1.199692
-1.190124
-1.1796486
-1.1682971
-1.1561252
-1.1432143
-1.129672
-1.1156297
-1.10124
-1.0866711
-1.0720997
-1.0577057
-1.0436673
-1.0301536
-1.0173223
-1.0053153
-0.99425985
-0.98427311
-0.97547282
-0.96798507
-0.96193002
-0.95737719
-0.95427451
-0.97068296
-0.97401368
-0.97889212
-0.98538177
-0.99341199
-1.0028575
-1.0135862
-1.0254753
-1.0384024
-1.0522341
-1.066821
-1.0819964
-1.0975807
-1.1133836
-1.1292117
-1.1448756
-1.1601939
-1.1750024
-1.1891594
-1.2025486
-1.2150828
-1.2267021
-1.2373732
-1.2470862
-1.2558515
-1.2636946
-1.2706537
-1.2767753
-1.2821115
-1.2867174
-1.2906489
-1.331514
-1.3267153
-1.3212179
-1.3149656
-1.3079023
-1.2999748
-1.2911355
-1.2813454
-1.270578
-1.2588227
-1.2460904
-1.2324165
-1.2178651
-1.2025289
-1.1865319
-1.1700251
-1.1531829
-1.1361974
-1.1192699
-1.1026046
-1.0864015
-1.0708493
-1.0561215
-1.0423734
-1.029743
-1.0183562
-1.0083399
-0.9998304
-0.9929568
-0.98778787
-0.98425375
-0.99483751
-0.99853566
-1.0039455
-1.0111417
-1.0200554
-1.0305548
-1.0425004
-1.0557631
-1.0702145
-1.0857141
-1.1021026
-1.1192016
-1.136816
-1.1547384
-1.1727563
-1.1906593
-1.2082466
-1.2253349
-1.2417658
-1.2574088
-1.2721658
-1.2859693
-1.2987809
-1.3105886
-1.3214022
-1.331248
-1.3401644
-1.3481994
-1.3554058
-1.3618389
-1.3675547
-1.3982503
-1.3915679
-1.3841566
-1.3759619
-1.3669303
-1.3570102
-1.3461552
-1.3343277
-1.3215035
-1.3076739
-1.2928536
-1.2770842
-1.2604364
-1.243013
-1.2249495
-1.2064105
-1.1875855
-1.168682
-1.1499166
-1.1315072
-1.1136658
-1.0965911
-1.0804638
-1.0654448
-1.0516762
-1.0392872
-1.028408
-1.01918
-1.0117362
-1.0061438
-1.0023227
-1.0065187
-1.0104507
-1.0161819
-1.0238039
-1.0332551
-1.0444042
-1.0571109
-1.0712459
-1.0866812
-1.1032754
-1.1208685
-1.1392806
-1.1583124
-1.1777503
-1.1973745
-1.2169657
-1.2363129
-1.2552228
-1.2735265
-1.2910844
-1.307789
-1.3235639
-1.3383603
-1.3521613
-1.3649794
-1.376834
-1.3877601
-1.397802
-1.4070101
-1.4154351
-1.4231268
-1.4418208
-1.4331
-1.4236365
-1.4133857
-1.40231
-1.390365
-1.3775114
-1.3637204
-1.3489779
-1.3332692
-1.3166103
-1.2990583
-1.2806973
-1.2616394
-1.242027
-1.2220311
-1.2018458
-1.181682
-1.1617579
-1.1422913
-1.123492
-1.1055566
-1.0886641
-1.0729704
-1.0586101
-1.0457065
-1.0343839
-1.0247774
-1.0170132
-1.0111498
-1.0071016
-1.0046059
-1.0086004
-1.0144498
-1.0222258
-1.0318608
-1.0432251
-1.0561838
-1.0706155
-1.086401
-1.1034098
-1.1214915
-1.1404744
-1.1601684
-1.1803687
-1.2008622
-1.2214345
-1.2418777
-1.2619988
-1.2816273
-1.3006205
-1.3188678
-1.3362937
-1.35286
-1.3685373
-1.3832975
-1.3971614
-1.4101521
-1.4222993
-1.4336322
-1.4441681
-1.4539574
-1.4589089
-1.4479157
-1.4362748
-1.4239413
-1.4108454
-1.3969462
-1.3822135
-1.3666288
-1.3501871
-1.3328999
-1.3148018
-1.2959512
-1.2764343
-1.2563655
-1.235888
-1.2151697
-1.1943984
-1.1737748
-1.153505
-1.1337925
-1.1148326
-1.0968063
-1.0798765
-1.0641858
-1.0498579
-1.0370069
-1.0257508
-1.0162228
-1.0085526
-1.0028065
-0.99890456
-0.98994974
-0.99375024
-0.99934527
-1.0068256
-1.0161337
-1.0271464
-1.0397366
-1.0537917
-1.0692048
-1.0858605
-1.1036261
-1.1223502
-1.1418643
-1.1619857
-1.1825236
-1.2032835
-1.2240746
-1.2447168
-1.2650467
-1.2849237
-1.3042323
-1.3228842
-1.3408173
-1.3579911
-1.3743852
-1.3899979
-1.4048398
-1.4189299
-1.4322926
-1.4449543
-1.456937
-1.4480051
-1.4349654
-1.4212866
-1.4069511
-1.3919384
-1.3762328
-1.359825
-1.3427146
-1.3249136
-1.3064499
-1.2873707
-1.2677445
-1.2476633
-1.2272427
-1.2066203
-1.1859526
-1.1654092
-1.1451677
-1.1254074
-1.1063033
-1.0880218
-1.0707163
-1.0545242
-1.0395658
-1.0259459
-1.0137623
-1.003119
-0.99413442
-0.98692162
-0.98152906
-0.9778621
-0.96276557
-0.96626453
-0.97140447
-0.97827917
-0.98684776
-0.99700808
-1.0086525
-1.0216875
-1.0360266
-1.0515774
-1.0682342
-1.0858759
-1.104367
-1.1235601
-1.143299
-1.1634225
-1.1837688
-1.2041814
-1.2245128
-1.2446304
-1.2644192
-1.2837847
-1.3026529
-1.3209688
-1.3386951
-1.3558103
-1.3723041
-1.3881755
-1.4034299
-1.4180763
-1.4321251
-1.4093932
-1.3944012
-1.3788613
-1.3627726
-1.3461359
-1.328957
-1.3112479
-1.2930294
-1.2743336
-1.2552068
-1.2357114
-1.2159263
-1.195948
-1.1758891
-1.155876
-1.1360449
-1.1165375
-1.0974972
-1.079065
-1.0613758
-1.0445561
-1.0287212
-1.013974
-1.0004041
-0.98808974
-0.97710497
-0.96753141
-0.95946497
-0.95299671
-0.94816107
-0.94486757
-0.92438787
-0.9274439
-0.93192973
-0.9379313
-0.94542033
-0.9543169
-0.96453767
-0.97601352
-0.9886837
-1.0024851
-1.0173456
-1.0331817
-1.0498998
-1.0673956
-1.0855572
-1.1042657
-1.1233974
-1.1428273
-1.1624318
-1.1820927
-1.2017007
-1.2211589
-1.2403838
-1.2593064
-1.2778714
-1.2960369
-1.3137712
-1.3310516
-1.3478621
-1.364191
-1.3800303
-1.3443907
-1.3278291
-1.3108428
-1.2934494
-1.2756703
-1.2575321
-1.2390678
-1.2203194
-1.2013382
-1.1821872
-1.1629415
-1.1436874
-1.1245214
-1.1055476
-1.0868749
-1.0686128
-1.0508687
-1.0337452
-1.0173386
-1.0017372
-0.98702173
-0.97326397
-0.96052692
-0.94886489
-0.93832541
-0.92895539
-0.92081098
-0.91396266
-0.90847885
-0.90438177
-0.9015906
-0.87675658
-0.87926209
-0.88294073
-0.88786774
-0.89402686
-0.90136149
-0.9098143
-0.91934223
-0.92991224
-0.94149241
-0.9540464
-0.96753157
-0.98189813
-0.99708873
-1.0130387
-1.0296746
-1.0469151
-1.0646711
-1.0828479
-1.1013473
-1.1200713
-1.1389256
-1.1578226
-1.1766826
-1.195436
-1.2140231
-1.232393
-1.2505026
-1.2683162
-1.2858028
-1.3029359
-1.2562268
-1.2386968
-1.2208892
-1.2028388
-1.1845847
-1.1661717
-1.1476511
-1.1290814
-1.1105292
-1.0920694
-1.0737841
-1.0557609
-1.0380905
-1.0208633
-1.0041659
-0.98807767
-0.97266939
-0.95800169
-0.94412566
-0.93108315
-0.91890899
-0.90763162
-0.89727383
-0.88785438
-0.87938993
-0.8718999
-0.86541443
-0.85997756
-0.85563399
-0.85239438
-0.85018842
-0.82219467
-0.82409674
-0.82688599
-0.83063191
-0.83532911
-0.84094443
-0.84744714
-0.85481973
-0.86305587
-0.87215368
-0.88211146
-0.89292575
-0.90458662
-0.91707955
-0.93038385
-0.94446953
-0.95929587
-0.97481064
-0.99095229
-1.0076453
-1.0248072
-1.042352
-1.0601935
-1.0782492
-1.0964414
-1.1146983
-1.132955
-1.1511534
-1.1692415
-1.187173
-1.2049058
-1.1496812
-1.1319536
-1.1141073
-1.0961903
-1.0782551
-1.0603591
-1.0425648
-1.0249426
-1.0075704
-0.99052753
-0.97389175
-0.95774382
-0.94216261
-0.92722048
-0.91297777
-0.89948765
-0.88678723
-0.87489898
-0.86383351
-0.85359124
-0.84416578
-0.83554449
-0.82771544
-0.8206664
-0.81438658
-0.80887126
-0.80412716
-0.80017156
-0.79702504
-0.79468161
-0.79308641
-0.76319276
-0.76448448
-0.76638415
-0.76894626
-0.77217435
-0.77605686
-0.78058862
-0.78577647
-0.79163824
-0.79819782
-0.80548189
-0.81351704
-0.82233163
-0.83195028
-0.84239034
-0.85365911
-0.86575144
-0.87864736
-0.89230756
-0.90668187
-0.92170829
-0.93731437
-0.95342119
-0.9699436
-0.98680456
-1.0039323
-1.0212567
-1.0387178
-1.0562517
-1.0737986
-1.091305
-1.0305543
-1.0134929
-0.99646841
-0.97953325
-0.96274257
-0.94615538
-0.92984624
-0.91388799
-0.89835381
-0.88332269
-0.86887657
-0.85508684
-0.84201773
-0.82972177
-0.81823792
-0.80758556
-0.7977699
-0.78878135
-0.78059778
-0.77318759
-0.76651339
-0.76053601
-0.75521333
-0.7505057
-0.74637778
-0.74280082
-0.73975656
-0.73724254
-0.73525906
-0.73379351
-0.73280027
-0.70215162
-0.70286207
-0.70391504
-0.70535016
-0.70718558
-0.70943199
-0.71210741
-0.71523566
-0.71885225
-0.72300077
-0.72772999
-0.73309157
-0.73913753
-0.74591766
-0.753476
-0.76184722
-0.77105339
-0.78110123
-0.79198065
-0.80366488
-0.81611235
-0.82926873
-0.84307085
-0.85745265
-0.87234114
-0.88765996
-0.90333709
-0.91929558
-0.93547004
-0.95180267
-0.96823533
-0.90498651
-0.88936705
-0.87391711
-0.85869593
-0.84376732
-0.829198
-0.81504862
-0.801387
-0.78828179
-0.77580028
-0.76400546
-0.75295353
-0.74268982
-0.7332461
-0.7246388
-0.71686714
-0.70991387
-0.70374666
-0.69832074
-0.69358238
-0.68947243
-0.68592987
-0.68289452
-0.68030964
-0.67812414
-0.67629467
-0.67478781
-0.67357894
-0.67264898
-0.67197547
-0.67152467
-0.64120072
-0.64141069
-0.64173164
-0.64219237
-0.64281932
-0.64363938
-0.64468491
-0.645996
-0.64762175
-0.64961888
-0.65205003
-0.65498176
-0.6584819
-0.66261675
-0.66744743
-0.67302653
-0.67939456
-0.68657741
-0.69458479
-0.70340964
-0.71302929
-0.72340725
-0.73449574
-0.74623929
-0.75857712
-0.77144516
-0.78477911
-0.79851594
-0.81259383
-0.82695451
-0.84154336
-0.7786996
-0.76529053
-0.75215308
-0.73934136
-0.72691128
-0.71492074
-0.70342837
-0.6924932
-0.68217335
-0.67252288
-0.66358994
-0.65541419
-0.64802379
-0.64143312
-0.63564103
-0.63063026
-0.62636795
-0.62280728
-0.61988999
-0.61754967
-0.61571514
-0.6143139
-0.61327489
-0.61253127
-0.61202208
-0.61169371
-0.61150054
-0.61140366
-0.61136953
-0.61136807
-0.61137652
-0.58224538
-0.58203898
-0.58175167
-0.58140119
-0.58101995
-0.58064703
-0.5803268
-0.58010908
-0.58005061
-0.58021504
-0.58067201
-0.58149515
-0.58275985
-0.58454031
-0.58690628
-0.58991987
-0.59363245
-0.59808221
-0.60329257
-0.6092717
-0.61601269
-0.62349517
-0.63168736
-0.64054851
-0.65003144
-0.66008443
-0.67065392
-0.68168579
-0.69312668
-0.70492455
-0.71702885
-0.63597849
-0.6259809
-0.61640835
-0.60730933
-0.59873258
-0.5907258
-0.58333397
-0.5765974
-0.5705497
-0.56521532
-0.56060757
-0.55672674
-0.55355889
-0.55107572
-0.54923512
-0.5479827
-0.54725412
-0.54697787
-0.54707844
-0.5474791
-0.54810513
-0.54888555
-0.54975526
-0.55065549
-0.55153346
-0.55234049
-0.55303294
-0.55357665
-0.55395794
-0.52664513
-0.52611046
-0.52534186
-0.52434879
-0.52316683
-0.52184313
-0.52042956
-0.51898093
-0.51755692
-0.51622302
-0.51505021
-0.51411327
-0.5134887
-0.51325214
-0.51347539
-0.51422374
-0.51555327
-0.51750876
-0.52012219
-0.52341221
-0.52738419
-0.53203108
-0.53733515
-0.54326961
-0.54980086
-0.55689045
-0.5644967
-0.57257639
-0.58108622
-0.52874726
-0.52174215
-0.51516253
-0.50904655
-0.5034318
-0.498354
-0.49384534
-0.48993304
-0.48663757
-0.48397067
-0.48193387
-0.48051707
-0.47969794
-0.47944184
-0.47970238
-0.48042289
-0.48153824
-0.48297741
-0.48466576
-0.48652802
-0.48849047
-0.49048308
-0.49244094
-0.49430434
-0.49601739
-0.49752596
-0.49878033
-0.49974408
-0.50041176
-0.47533948
-0.47455778
-0.47342641
-0.4719473
-0.4701571
-0.46810731
-0.46585346
-0.46345168
-0.46096098
-0.45844489
-0.45597168
-0.45361316
-0.45144269
-0.44953282
-0.44795312
-0.44676762
-0.44603274
-0.44579554
-0.44609244
-0.44694863
-0.44837803
-0.45038374
-0.45295942
-0.45609038
-0.45975525
-0.46392774
-0.46857792
-0.47367369
-0.42849933
-0.42485104
-0.4216236
-0.41884383
-0.41653623
-0.41472165
-0.41341603
-0.41262894
-0.41236215
-0.41260857
-0.41335116
-0.41456271
-0.4162058
-0.41823337
-0.42058996
-0.42321328
-0.42603595
-0.42898804
-0.43199877
-0.43499888
-0.43792245
-0.4407079
-0.44329755
-0.44563573
-0.44766625
-0.44933653
-0.45061012
-0.45148846
-0.42890038
-0.42794112
-0.42654819
-0.42471705
-0.42248363
-0.41990091
-0.41702504
-0.41391076
-0.41061391
-0.40719369
-0.40371324
-0.40023885
-0.39683814
-0.3935782
-0.39052358
-0.38773442
-0.38526467
-0.38316082
-0.38146069
-0.38019288
-0.37937683
-0.37902296
-0.37913342
-0.37970311
-0.38072094
-0.38217112
-0.38403418
-0.38628822
-0.34705824
-0.34613191
-0.3455631
-0.34536905
-0.34556465
-0.34616119
-0.34716545
-0.34857861
-0.35039511
-0.35260191
-0.35517781
-0.35809332
-0.36131071
-0.3647845
-0.36846259
-0.37228733
-0.37619723
-0.38012842
-0.38401665
-0.38779895
-0.3914152
-0.39480898
-0.39792661
-0.40071473
-0.40311769
-0.40508268
-0.40657459
-0.40760082
-0.38760176
-0.38652085
-0.38494784
-0.38287277
-0.38032961
-0.37737063
-0.37405059
-0.37042117
-0.36653364
-0.36244142
-0.35820138
-0.35387305
-0.34951719
-0.34519417
-0.34096241
-0.33687676
-0.33298731
-0.32933819
-0.32596667
-0.32290268
-0.32016867
-0.3177798
-0.31574445
-0.31406486
-0.31273799
-0.31175667
-0.31111012
-0.3107853
-0.2774121
-0.27890443
-0.28068172
-0.2827531
-0.28512559
-0.28780279
-0.29078437
-0.29406528
-0.29763486
-0.30147618
-0.3055659
-0.30987403
-0.31436406
-0.3189934
-0.32371419
-0.32847435
-0.33321871
-0.33789032
-0.34243201
-0.34678777
-0.35090411
-0.35473059
-0.35821854
-0.36131817
-0.36397595
-0.36614048
-0.36777918
-0.3689043
-0.35149992
-0.35033958
-0.34864852
-0.34641222
-0.34366186
-0.34044769
-0.33682178
-0.33283185
-0.32852395
-0.32394552
-0.3191467
-0.31417998
-0.30909903
-0.30395736
-0.29880695
-0.2936971
-0.28867336
-0.28377668
-0.27904262
-0.27450097
-0.27017567
-0.26608493
-0.26224134
-0.25865233
-0.25532114
-0.25224727
-0.24942717
-0.24685517
-0.21901177
-0.22257369
-0.22634759
-0.23033602
-0.23453948
-0.23895572
-0.24357912
-0.24840008
-0.25340447
-0.25857316
-0.26388187
-0.26930118
-0.2747966
-0.28032888
-0.28585474
-0.29132763
-0.29669868
-0.3019177
-0.30693442
-0.31169976
-0.31616681
-0.32029113
-0.32402928
-0.32733567
-0.33015982
-0.33245277
-0.33418479
-0.3353726
-0.32050086
-0.31929205
-0.31752866
-0.31519182
-0.3123098
-0.30893014
-0.30510166
-0.30086784
-0.29626957
-0.29134841
-0.28614813
-0.28071462
-0.27509486
-0.26933588
-0.2634836
-0.25758191
-0.25167192
-0.24579113
-0.23997292
-0.23424622
-0.22863542
-0.22316036
-0.21783642
-0.21267494
-0.20768366
-0.20286725
-0.1982279
-0.19376585
-0.17099257
-0.17626658
-0.18168516
-0.18724554
-0.19294319
-0.19877132
-0.20472036
-0.21077753
-0.21692643
-0.22314671
-0.22941401
-0.23569999
-0.2419724
-0.2481954
-0.25433
-0.26033479
-0.26616663
-0.27178149
-0.27713544
-0.28218563
-0.28689122
-0.29121338
-0.29511365
-0.29855061
-0.30147709
-0.30384707
-0.3056337
-0.30685801
-0.29441273
-0.29317776
-0.29137472
-0.28898067
-0.28602098
-0.28254011
-0.2785836
-0.27419094
-0.26939832
-0.26424203
-0.25876022
-0.25299289
-0.24698115
-0.24076628
-0.23438879
-0.22788782
-0.22130035
-0.21466064
-0.20799981
-0.20134561
-0.19472225
-0.18815043
-0.18164735
-0.17522704
-0.1689006
-0.16267667
-0.15656187
-0.15056118
-0.13233674
-0.1389827
-0.14571486
-0.15252623
-0.15940837
-0.16635106
-0.17334185
-0.1803657
-0.18740474
-0.19443806
-0.20144164
-0.20838838
-0.21524821
-0.22198834
-0.22857365
-0.23496715
-0.24113073
-0.24702559
-0.25261322
-0.25785617
-0.26271877
-0.26716704
-0.27116683
-0.27468046
-0.27766404
-0.28007464
-0.28188801
-0.28312892
-0.27296519
-0.27172279
-0.2699053
-0.26748501
-0.26448543
-0.26094821
-0.25691577
-0.25242423
-0.2475059
-0.24219275
-0.23651821
-0.2305174
-0.22422648
-0.2176819
-0.2109197
-0.2039749
-0.19688096
-0.18966929
-0.18236895
-0.17500645
-0.16760556
-0.16018734
-0.15277016
-0.14536993
-0.13800024
-0.13067268
-0.12339729
-0.11618282
-0.10196665
-0.10967775
-0.11742718
-0.12520462
-0.13299866
-0.14079649
-0.14858357
-0.15634327
-0.16405681
-0.17170306
-0.17925847
-0.18669714
-0.19399094
-0.20110969
-0.20802144
-0.21469284
-0.22108949
-0.22717726
-0.23292227
-0.23829152
-0.24325365
-0.24777852
-0.25183528
-0.25538883
-0.25839759
-0.26082138
-0.2626427
-0.26388573
-0.25586639
-0.25462653
-0.2528033
-0.25037258
-0.24735609
-0.24379159
-0.23971766
-0.23516731
-0.23016996
-0.22475435
-0.21895031
-0.21278913
-0.20630309
-0.1995261
-0.19248923
-0.18522419
-0.17776153
-0.17013031
-0.16235781
-0.15446939
-0.14648834
-0.13843581
-0.13033096
-0.12219097
-0.11403123
-0.10586558
-0.097706637
-0.089566055
-0.078907117
-0.087414455
-0.095922889
-0.10441964
-0.11289108
-0.1213225
-0.12969782
-0.13799935
-0.14620772
-0.15430173
-0.16225834
-0.17005271
-0.17765827
-0.18504688
-0.19218916
-0.19905476
-0.20561286
-0.21183232
-0.21768255
-0.22313393
-0.22815814
-0.23272778
-0.23681448
-0.24038596
-0.24340502
-0.24583589
-0.2476594
-0.24889662
-0.24300469
-0.24176799
-0.23994354
-0.23751039
-0.23448757
-0.23090978
-0.22681312
-0.22222859
-0.21718363
-0.21170441
-0.20581786
-0.19955217
-0.19293651
-0.18600061
-0.17877406
-0.17128604
-0.16356494
-0.15563805
-0.14753132
-0.13926917
-0.13087441
-0.12236824
-0.11377023
-0.10509844
-0.096369543
-0.087599015
-0.0788013
-0.069990122
-0.062821461
-0.071875007
-0.080903365
-0.089892047
-0.098825928
-0.10768894
-0.11646395
-0.12513257
-0.1336751
-0.14207035
-0.15029571
-0.1583271
-0.1661391
-0.17370507
-0.18099744
-0.18798799
-0.19464811
-0.20094925
-0.20686341
-0.21236366
-0.21742425
-0.22202013
-0.22612494
-0.22970863
-0.23273594
-0.23517253
-0.23700026
-0.23824021
-0.23463378
-0.23338511
-0.23155221
-0.22911222
-0.22608127
-0.22249363
-0.21838331
-0.21377954
-0.2087078
-0.20319231
-0.19725794
-0.19093074
-0.18423781
-0.17720683
-0.16986563
-0.16224173
-0.15436207
-0.14625277
-0.13793888
-0.12944418
-0.12079116
-0.11200097
-0.10309345
-0.094087186
-0.08499966
-0.075847379
-0.066645983
-0.057410536
-0.053725635
-0.063083437
-0.072401102
-0.081663125
-0.090853683
-0.099955802
-0.10895174
-0.11782289
-0.12654928
-0.13510975
-0.14348193
-0.15164222
-0.15956591
-0.16722721
-0.1745995
-0.18165585
-0.1883691
-0.19471219
-0.20065877
-0.20618362
-0.21126263
-0.21587205
-0.21998617
-0.22357538
-0.22660475
-0.22904572
-0.23088493
-0.23214584
-0.23072312
-0.22945594
-0.22762209
-0.22518514
-0.22215571
-0.21856441
-0.21444679
-0.20983385
-0.20475112
-0.19922166
-0.19326886
-0.1869174
-0.18019321
-0.17312298
-0.16573359
-0.15805172
-0.15010369
-0.14191513
-0.13351058
-0.12491346
-0.11614615
-0.10722979
-0.098184366
-0.089028653
-0.079780454
-0.070456864
-0.061074033
-0.051647673
-0.05018886
-0.059672667
-0.069110836
-0.078487355
-0.087786013
-0.096990033
-0.10608149
-0.11504143
-0.12384993
-0.1324859
-0.14092707
-0.14914986
-0.15712966
-0.16484108
-0.17225788
-0.17935337
-0.18610071
-0.19247324
-0.19844508
-0.20399157
-0.20908956
-0.21371627
-0.21784689
-0.22145035
-0.22449193
-0.22693757
-0.228776
-0.23004104
-0.23080449
-0.23033918
-0.22958189
-0.22831756
-0.22646693
-0.22400192
-0.22093951
-0.21731386
-0.21315995
-0.20850692
-0.20337938
-0.1978002
-0.19179288
-0.18538226
-0.17859437
-0.17145599
-0.16399404
-0.15623529
-0.1482061
-0.13993192
-0.13143734
-0.12274592
-0.11387994
-0.10486049
-0.095707434
-0.086439692
-0.077075048
-0.067630151
-0.058121118
-0.048563937
-0.045819631
-0.055500735
-0.065129576
-0.074690434
-0.084167373
-0.093543564
-0.10280109
-0.11192128
-0.12088445
-0.12966957
-0.13825438
-0.14661529
-0.15472771
-0.16256608
-0.17010397
-0.17731443
-0.18417035
-0.19064479
-0.19671154
-0.2023455
-0.20752305
-0.2122214
-0.21641659
-0.22007972
-0.223175
-0.22566607
-0.22753385
-0.22880392
-0.22955972
-0.22841939
-0.22765281
-0.22636588
-0.22447187
-0.22194449
-0.21880365
-0.21508711
-0.21083139
-0.20606555
-0.20081357
-0.19509825
-0.18894341
-0.18237437
-0.17541767
-0.16810048
-0.16045015
-0.15249381
-0.14425801
-0.13576846
-0.12704988
-0.11812581
-0.10901851
-0.099748966
-0.090336901
-0.080800847
-0.071158316
-0.061425971
-0.051619768
-0.041755137
-0.036299887
-0.046411969
-0.056457169
-0.066420313
-0.076285693
-0.086036892
-0.095656673
-0.10512672
-0.11442745
-0.12353795
-0.13243598
-0.141098
-0.14949921
-0.15761376
-0.16541488
-0.1728752
-0.17996708
-0.18666299
-0.19293606
-0.19876063
-0.20411263
-0.20896905
-0.21330571
-0.21709304
-0.22029368
-0.22286912
-0.2247996
-0.22611264
-0.22689688
-0.22500906
-0.22420361
-0.22285721
-0.22088077
-0.2182455
-0.2149709
-0.21109602
-0.206659
-0.20168998
-0.19621351
-0.19025289
-0.18383257
-0.17697864
-0.1697184
-0.16207976
-0.15409072
-0.14577898
-0.13717155
-0.12829446
-0.11917257
-0.10982946
-0.1002873
-0.090566874
-0.080687564
-0.070667432
-0.060523398
-0.050271539
-0.039927217
-0.029505258
-0.021489968
-0.032279862
-0.042979123
-0.053573351
-0.06404761
-0.07438628
-0.084572821
-0.094589505
-0.1044172
-0.11403532
-0.12342176
-0.13255296
-0.14140397
-0.14994856
-0.15815945
-0.16600858
-0.17346752
-0.18050791
-0.18710195
-0.19322306
-0.19884635
-0.20394809
-0.20850327
-0.21248114
-0.2158428
-0.2185485
-0.22057875
-0.22196316
-0.22279209
-0.2202904
-0.21943642
-0.21801014
-0.2159196
-0.21313433
-0.20967411
-0.20557952
-0.20089039
-0.19563814
-0.1898483
-0.18354508
-0.17675393
-0.16950194
-0.16181746
-0.15372939
-0.14526659
-0.1364575
-0.12732975
-0.11790976
-0.10822256
-0.098291681
-0.088139076
-0.077785114
-0.067248586
-0.056546832
-0.045695917
-0.034710939
-0.023606277
-0.012395801
-0.0023685675
-0.014046621
-0.025601572
-0.03702023
-0.048288842
-0.05939294
-0.070317049
-0.081044294
-0.091556264
-0.10183292
-0.11185247
-0.12159145
-0.13102477
-0.1401258
-0.14886656
-0.15721823
-0.16515145
-0.17263675
-0.17964523
-0.18614918
-0.19212261
-0.19754076
-0.20237751
-0.20660065
-0.21016934
-0.21304193
-0.21519823
-0.21666973
-0.21755088
-0.21462082
-0.2137105
-0.21219068
-0.20996393
-0.20699754
-0.20331215
-0.19895057
-0.19395481
-0.18835791
-0.18218664
-0.17546635
-0.16822364
-0.1604868
-0.15228538
-0.14364942
-0.13460876
-0.12519269
-0.11542947
-0.10534593
-0.094967235
-0.084316747
-0.073416029
-0.062284752
-0.050940858
-0.03940067
-0.027678962
-0.015789457
-0.0037451607
0.0084414981
0.019873606
0.0071439551
-0.0054222342
-0.017813415
-0.030017457
-0.042021478
-0.053811486
-0.065371833
-0.076685133
-0.087732138
-0.098491568
-0.10894018
-0.1190528
-0.12880242
-0.13816045
-0.1470972
-0.15558229
-0.16358509
-0.17107544
-0.17802439
-0.18440474
-0.19019052
-0.19535431
-0.19986211
-0.2036707
-0.20673602
-0.20903703
-0.21060776
-0.21154886
-0.20838569
-0.2074127
-0.20578918
-0.20341117
-0.20024325
-0.19630686
-0.19164733
-0.18630917
-0.18032731
-0.17372989
-0.16654349
-0.15879594
-0.15051683
-0.14173697
-0.13248756
-0.12279949
-0.11270291
-0.10222668
-0.091397966
-0.080241936
-0.068781655
-0.057038059
-0.045029919
-0.032773972
-0.020285093
-0.0075764064
0.0053401549
0.018453443
0.031752912
0.04388977
0.030002136
0.016324884
0.0028674012
-0.010360335
-0.023347452
-0.036081832
-0.048549509
-0.060734392
-0.072618247
-0.084180516
-0.09539835
-0.10624664
-0.11669809
-0.12672355
-0.13629251
-0.14537355
-0.1539349
-0.1619451
-0.16937392
-0.17619291
-0.18237487
-0.18789096
-0.19270527
-0.196772
-0.20004454
-0.20250106
-0.2041784
-0.20518391
-0.20199735
-0.20095922
-0.19922795
-0.19669275
-0.19331533
-0.18911789
-0.18414833
-0.17845373
-0.17207098
-0.16502961
-0.15735744
-0.14908352
-0.14023872
-0.13085509
-0.120965
-0.11060037
-0.099792034
-0.088569382
-0.076959873
-0.064988617
-0.052678153
-0.040048183
-0.027116586
-0.01389906
-0.00040852637
0.013344168
0.027349317
0.041598301
0.056083126
0.068129607
0.053049856
0.038230753
0.023679033
0.0094027281
-0.0045895914
-0.018287935
-0.031680238
-0.044751612
-0.057484291
-0.06986024
-0.081857228
-0.093449795
-0.10461084
-0.11531062
-0.12551787
-0.13520025
-0.14432483
-0.15285898
-0.16077124
-0.16803194
-0.17461271
-0.1804833
-0.18560591
-0.18993216
-0.19341291
-0.19602563
-0.19781003
-0.19888029
-0.19588661
-0.19478527
-0.19294947
-0.19026179
-0.18668107
-0.18223019
-0.17695947
-0.1709185
-0.16414602
-0.15667292
-0.14852815
-0.1397419
-0.13034623
-0.12037431
-0.10985957
-0.098834886
-0.0873318
-0.075380503
-0.063006759
-0.050235649
-0.037090115
-0.023590362
-0.0097517643
0.0044129559
0.018892655
0.033678163
0.048762219
0.064138465
0.079801246
0.090885893
0.074664268
0.058754483
0.043160883
0.027888342
0.012942821
-0.0016679142
-0.015933817
-0.02984241
-0.043378303
-0.05652235
-0.069254021
-0.081549024
-0.093377741
-0.10471072
-0.11551721
-0.12576404
-0.13541704
-0.14444252
-0.15280793
-0.16048255
-0.16743692
-0.1736395
-0.1790507
-0.18361974
-0.18729522
-0.19005404
-0.19193873
-0.19306955
-0.19048195
-0.18932376
-0.18739342
-0.18456858
-0.18080533
-0.17612688
-0.17058559
-0.1642333
-0.15711045
-0.14924915
-0.14067936
-0.13143224
-0.12154082
-0.11103957
-0.099962908
-0.088342313
-0.076211088
-0.063600374
-0.050536823
-0.037044809
-0.023145445
-0.0088567688
0.0058064117
0.020832341
0.036212001
0.051938818
0.068008066
0.0844162
0.10116029
0.11039346
0.093176103
0.076316938
0.059817573
0.043680296
0.027908672
0.012508216
-0.0025130464
-0.017144193
-0.031371109
-0.045176346
-0.058538959
-0.071434664
-0.083836414
-0.095714042
-0.10703574
-0.11776541
-0.12787085
-0.13731713
-0.14607056
-0.15409959
-0.16137382
-0.16786062
-0.17351877
-0.17829551
-0.18213763
-0.18502199
-0.186994
-0.18817815
-0.18620768
-0.18500085
-0.18299253
-0.18005682
-0.17614682
-0.17128555
-0.16552687
-0.15892425
-0.15151954
-0.14334588
-0.13443412
-0.12481609
-0.1145257
-0.1035964
-0.092067297
-0.079968098
-0.067332563
-0.054190791
-0.040570122
-0.026494609
-0.011984832
0.002942228
0.018273083
0.033997532
0.050108412
0.066601179
0.083473313
0.10072368
0.11835184
0.12482769
0.10686336
0.089293054
0.072116234
0.055333123
0.038945294
0.022956448
0.0073730976
-0.0077951845
-0.02253547
-0.036831233
-0.050662193
-0.064004334
-0.076830381
-0.089109843
-0.10080897
-0.11189605
-0.12233761
-0.1320973
-0.14113812
-0.14942953
-0.15694035
-0.16363684
-0.16947669
-0.17440611
-0.17837098
-0.18134867
-0.18338752
-0.18461593
-0.18341559
-0.18217082
-0.18010885
-0.17710003
-0.17309568
-0.16811717
-0.16221815
-0.15545214
-0.14786215
-0.13948196
-0.13034299
-0.12047909
-0.10992766
-0.098719343
-0.086892143
-0.074477112
-0.061508013
-0.04801552
-0.034026881
-0.019565674
-0.0046519705
0.01069781
0.026471215
0.042659114
0.059255591
0.076257619
0.093664262
0.11147604
0.12969425
0.13299127
0.11460063
0.096624932
0.079062337
0.06191179
0.045173858
0.028851105
0.012949022
-0.002523692
-0.017554997
-0.03212849
-0.046224085
-0.059818325
-0.072884088
-0.085390896
-0.097304995
-0.10859468
-0.11922296
-0.12915636
-0.13836081
-0.14680088
-0.15444454
-0.16125696
-0.1671939
-0.17220182
-0.17622799
-0.17925487
-0.18133335
-0.1825927