/*--------------------------------*- C++ -*----------------------------------*\
| =========                 |                                                 |
| \\      /  F ield         | OpenFOAM: The Open Source CFD Toolbox           |
|  \\    /   O peration     | Version:  v2012                                 |
|   \\  /    A nd           | Website:  www.openfoam.com                      |
|    \\/     M anipulation  |                                                 |
\*---------------------------------------------------------------------------*/
FoamFile
{
    version     2.0;
    format      ascii;
    class       surfaceScalarField;
    location    "283";
    object      phi;
}
// * * * * * * * * * * * * * * * * * * * * * * * * * * * * * * * * * * * * * //

dimensions      [0 3 -1 0 0 0 0];
oriented        oriented;


internalField   nonuniform List<scalar> 
220385
(
-5.9323629e-05
-0.0025341379
-4.3063754e-05
0.0024819694
6.1470108e-05
9.3085826e-05
-0.0024018783
2.2951954e-05
-1.4172262e-05
0.0023337749
3.6776802e-05
-2.9192728e-06
5.0023708e-05
-3.5395495e-05
0.0023299269
-4.1479638e-06
2.9760291e-05
0.0024181323
-7.9164012e-05
4.7647203e-05
0.0025738007
-2.1084501e-05
4.9976707e-05
0.0027719976
-5.5841283e-05
5.1145804e-05
0.0029253499
-1.6677317e-05
5.475826e-05
0.0030421582
-1.5320015e-05
5.8555118e-05
0.0030976679
-3.6974356e-06
6.0824853e-05
0.0031248855
-5.5699276e-07
6.1682435e-05
0.0031334687
3.2649339e-07
6.1983443e-05
0.0031352526
3.3004349e-07
6.2060477e-05
0.0031351442
2.4662438e-07
6.2074525e-05
0.0031348569
1.4543814e-07
6.2073828e-05
0.0031346863
5.9060573e-08
6.2074892e-05
0.0031346759
-2.7357262e-08
6.207816e-05
0.0031348542
-3.6344737e-08
6.206738e-05
0.0031351491
8.2803906e-07
6.1992616e-05
0.0031352621
3.9456188e-06
6.1693669e-05
0.0031334812
1.5541467e-05
6.0838091e-05
0.0031249006
1.6867378e-05
5.8569933e-05
0.0030976848
5.5997612e-05
5.4775273e-05
0.0030421768
2.1207174e-05
5.1166512e-05
0.0029253709
7.925573e-05
5.0001304e-05
0.0027720204
4.2096385e-06
4.7672878e-05
0.0025738232
3.5427287e-05
2.9783308e-05
0.0024181537
-3.6758721e-05
0.0023299478
-2.8899093e-06
0.0024019044
4.9992491e-05
-8.2650176e-05
0.0025264107
8.1839415e-05
-1.829647e-05
0.0026904656
9.6699089e-05
-5.4724219e-05
0.0028047161
0.00010430855
-1.0543531e-05
0.0028905058
0.00011013692
-1.1041001e-05
0.0029196299
0.00011293158
9.5259186e-07
0.0029285289
0.00011403049
2.043661e-06
0.002924298
0.0001138086
1.928584e-06
0.0029185477
0.00011348379
8.756035e-07
0.0029142364
0.00011319601
2.670721e-07
0.0029119013
0.00011303363
-9.4548795e-08
0.0029107976
0.0001129504
-2.5484118e-07
0.002910347
0.00011291405
-3.1870574e-07
0.0029101826
0.0001128989
-3.2818709e-07
0.0029101241
0.00011289366
-3.3773056e-07
0.0029101231
0.00011289176
-3.5315389e-07
0.0029101279
0.00011289008
-3.6961215e-07
0.0029101295
0.00011288774
-3.8055112e-07
0.0029101282
0.00011288565
-3.8926222e-07
0.0029101282
0.00011288302
-3.9334813e-07
0.0029101303
0.00011287991
-4.0249632e-07
0.002910134
0.0001128769
-4.0800543e-07
0.0029101403
0.00011287434
-4.1417006e-07
0.0029101473
0.00011287225
-4.2340604e-07
0.0029101473
0.00011287101
-4.3846924e-07
0.0029101458
0.00011286798
-4.2588674e-07
0.0029101336
0.00011286445
-4.3072274e-07
0.0029101584
0.00011286186
0.0029101567
0.00011285885
8.3817425e-07
0.0029099937
0.00011300411
8.2480597e-07
0.0029099964
0.00011299961
8.1049443e-07
0.0029100007
0.00011299628
7.7593921e-07
0.0029100231
0.00011299281
7.6467029e-07
0.0029100092
0.00011298854
7.4523325e-07
0.0029100153
0.00011298515
7.2586219e-07
0.0029100208
0.00011298355
7.0999952e-07
0.0029100229
0.00011298078
6.9697835e-07
0.0029100255
0.00011297615
6.6884009e-07
0.0029100367
0.00011297278
6.3132578e-07
0.0029100527
0.00011297157
6.0774739e-07
0.0029100424
0.00011296864
5.9824321e-07
0.0029100333
0.00011296534
5.7955775e-07
0.0029100504
0.00011296353
5.3247102e-07
0.0029100662
0.00011296177
4.5774648e-07
0.0029101136
0.00011296399
2.8774952e-07
0.0029102807
0.00011297585
-8.2417224e-08
0.0029107398
0.00011300921
-6.993387e-07
0.0029118482
0.00011308914
-1.7610479e-06
0.0029141867
0.00011324812
-1.885741e-06
0.002918502
0.00011353313
-8.0557103e-07
0.0029242568
0.00011385592
1.1171626e-05
0.002928495
0.00011407609
1.064813e-05
0.002919605
0.00011297561
5.4800364e-05
0.0028904843
0.00011017977
1.835093e-05
0.0028046923
0.00010434761
8.2688905e-05
0.0026904382
9.6730997e-05
0.0025263828
8.1868458e-05
1.1406606e-05
0.0024481811
8.9747065e-05
7.2788923e-06
0.0025882773
0.0001062886
-5.4317462e-06
0.0027022332
0.00011516976
-4.4173268e-06
0.0027693126
0.00012015732
-4.6510461e-06
0.0027971608
0.00012267796
-2.4294854e-06
0.0028026122
0.00012366126
-1.3011437e-06
0.0027994426
0.00012368579
-9.5233205e-07
0.0027946804
0.00012347279
-1.0752982e-06
0.0027910682
0.00012324146
-1.274263e-06
0.0027889592
0.00012308797
-1.4518182e-06
0.0027879121
0.0001230052
-1.5875283e-06
0.002787448
0.00012296839
-1.6953507e-06
0.0027872652
0.00012295618
-1.7867994e-06
0.0027872009
0.00012295673
-1.8641557e-06
0.0027871661
0.00012296171
-1.8972308e-06
0.0027870984
0.000122968
-1.9683484e-06
0.0027871373
0.00012297622
-2.076987e-06
0.0027871762
0.00012298511
-2.141104e-06
0.0027871082
0.00012299263
-2.1565386e-06
0.0027870409
0.000123
-2.2600427e-06
0.0027871172
0.00012300925
-2.3216576e-06
0.0027870634
0.00012301901
-2.3801025e-06
0.0027870457
0.00012302812
-2.4046637e-06
0.0027869954
0.00012303836
-2.5051838e-06
0.0027870736
0.00012305
-2.5713165e-06
0.002787006
0.00012306091
-2.582364e-06
0.0027869352
0.00012307226
0.002787006
0.00012308542
-0.0022716657
1.7193839e-06
3.518036e-07
-0.0022735607
1.6231985e-06
2.7184095e-07
-0.0022752608
1.5129387e-06
1.8711918e-07
-0.0022767458
1.3928516e-06
9.2200505e-08
-0.0022779999
1.2689808e-06
-1.4880917e-08
-0.0022790068
1.134748e-06
-1.2792582e-07
-0.0022797522
9.9050307e-07
-2.451056e-07
-0.0022802288
8.4353785e-07
-3.6685513e-07
-0.0022804338
6.9179395e-07
-4.8686857e-07
-0.0022803791
5.4446719e-07
-5.9914212e-07
-0.0022800411
3.8674426e-07
-7.2469553e-07
-0.0022794122
2.2436487e-07
-8.5330416e-07
-0.0022785123
7.1275737e-08
-9.7122191e-07
-0.0022773497
-8.0944796e-08
-1.0816013e-06
-0.002275938
-2.2661147e-07
-1.1850656e-06
-0.0022742949
-3.6325526e-07
-1.2798953e-06
-0.0022724423
-4.905265e-07
-1.3620308e-06
-0.0022704029
-6.0719448e-07
-1.432208e-06
-0.0022682
-7.1310357e-07
-1.4897762e-06
-0.0022658592
-8.0845547e-07
-1.5323583e-06
-0.0022634037
-8.9110296e-07
-1.5644385e-06
-0.0022608592
-9.6036608e-07
-1.5840915e-06
-0.0022582562
-1.0180791e-06
-1.5849903e-06
-0.0022556195
-1.0637129e-06
-1.5728971e-06
-0.0022529698
-1.0954465e-06
-1.5542969e-06
-0.0022503267
-1.1173801e-06
-1.525691e-06
-0.0022477121
-1.1321855e-06
-1.4824507e-06
-0.0022451446
-1.1364258e-06
-1.4310242e-06
-0.0022426379
-1.1289362e-06
-1.377811e-06
-0.0022402056
-1.1145739e-06
-1.3177713e-06
-0.0022378578
-1.0959946e-06
-1.2518019e-06
-0.0022356021
-1.0712354e-06
-1.1844149e-06
-0.0022334461
-1.0407692e-06
-1.1152817e-06
-0.0022313952
-1.0058575e-06
-1.0450162e-06
-0.0022294536
-9.6692235e-07
-9.7469082e-07
-0.0022276227
-9.2473892e-07
-9.0608701e-07
-0.0022259023
-8.8200973e-07
-8.3845568e-07
-0.0022242931
-8.3655464e-07
-7.7262728e-07
-0.0022227974
-7.8784851e-07
-7.0784111e-07
-0.0022214147
-7.3871391e-07
-6.4403238e-07
-0.0022201404
-6.9008398e-07
-5.8418174e-07
-0.0022189669
-6.4570935e-07
-5.2776419e-07
-0.0022179105
-5.984053e-07
-4.5803306e-07
-0.0022169773
-5.6071297e-07
-3.7245395e-07
-0.0022164269
-4.3102594e-07
-1.1935801e-07
-0.0022164167
-2.7287691e-07
2.6268961e-07
-0.0022185348
5.7719469e-07
1.5409078e-06
-0.0022213918
7.7702207e-07
2.079934e-06
-0.0022291961
3.0194893e-06
4.7848216e-06
-0.0022391821
4.059699e-06
5.9262996e-06
-0.0022607083
9.4458365e-06
1.2080331e-05
-0.0022978699
1.683309e-05
2.0328537e-05
1.4215237e-05
1.7862692e-05
0.0023338534
2.3036835e-05
5.9229454e-05
0.0022878765
2.3770937e-05
3.9039075e-05
0.0022649168
1.3324428e-05
1.9081064e-05
0.0022548851
5.9502287e-06
8.1412149e-06
0.0022504797
3.2308779e-06
4.1939612e-06
0.0022481482
1.61576e-06
1.4928118e-06
0.0022476841
6.1738442e-07
4.2390413e-07
0.0022480755
-2.5982237e-07
-4.0450516e-07
0.0022490793
-8.0067401e-07
-6.3412051e-07
0.0022502699
-1.0719072e-06
-6.7942276e-07
0.0022515233
-1.2043524e-06
-6.4745598e-07
0.0022528081
-1.2906312e-06
-6.3987928e-07
0.0022541509
-1.3713611e-06
-6.6151909e-07
0.0022555765
-1.4569573e-06
-7.0734329e-07
0.0022571033
-1.5467573e-06
-7.6790196e-07
0.0022587371
-1.6376415e-06
-8.3275282e-07
0.0022604834
-1.7258671e-06
-9.024112e-07
0.0022623444
-1.8098547e-06
-9.7589077e-07
0.0022643166
-1.8905902e-06
-1.0485719e-06
0.0022663997
-1.9658504e-06
-1.12306e-06
0.0022685899
-2.0333685e-06
-1.1975805e-06
0.0022708819
-2.0921421e-06
-1.2711182e-06
0.002273269
-2.1396699e-06
-1.3433973e-06
0.0022757436
-2.1758274e-06
-1.4133523e-06
0.0022782928
-2.2018422e-06
-1.4763266e-06
0.0022809024
-2.213315e-06
-1.5326588e-06
0.0022835616
-2.2053689e-06
-1.5860917e-06
0.0022862535
-2.1780267e-06
-1.6312551e-06
0.0022889523
-2.1324506e-06
-1.6617671e-06
0.0022916359
-2.066567e-06
-1.6806876e-06
0.0022942859
-1.9774231e-06
-1.6907365e-06
0.0022968767
-1.864065e-06
-1.6870622e-06
0.0022993773
-1.725955e-06
-1.6657973e-06
0.0023017629
-1.5632986e-06
-1.6307416e-06
0.0023040091
-1.3768429e-06
-1.5824051e-06
0.0023060879
-1.167788e-06
-1.5182258e-06
0.0023079749
-9.3758834e-07
-1.4399628e-06
0.0023096481
-6.8756873e-07
-1.3488458e-06
0.0023110852
-4.1881485e-07
-1.2449632e-06
0.002312271
-1.3395591e-07
-1.132696e-06
0.0023131908
1.6353175e-07
-1.0120817e-06
0.002313828
4.6732469e-07
-8.8016582e-07
0.0023141697
7.8481891e-07
-7.3974315e-07
0.0023142363
1.0858698e-06
-6.0803042e-07
0.0023140292
1.3804206e-06
-4.8149792e-07
0.0023135422
1.6788092e-06
-3.4830624e-07
0.0023127779
1.9692152e-06
-2.1445348e-07
0.0023117511
2.2499247e-06
-8.8343499e-08
0.0023104735
2.5134775e-06
3.3053826e-08
0.0023089575
2.7599411e-06
1.4897545e-07
0.002307226
2.9925609e-06
2.5188056e-07
0.002305296
3.2057215e-06
3.4747327e-07
3.3953268e-06
4.3679224e-07
-2.8416812e-05
-0.0027789922
6.3670199e-06
-2.9141427e-05
-0.0027777102
6.274922e-06
-2.9815121e-05
-0.0027764
6.1640481e-06
-3.0441443e-05
-0.0027750351
6.0313117e-06
-3.1019906e-05
-0.0027735924
5.8730703e-06
-3.1509591e-05
-0.0027720902
5.68508e-06
-3.1867546e-05
-0.0027705534
5.4650688e-06
-3.208798e-05
-0.0027689674
5.2132895e-06
-3.2166254e-05
-0.0027673138
4.9305719e-06
-3.2054736e-05
-0.0027656166
4.6187977e-06
-3.1740314e-05
-0.0027639066
4.2829395e-06
-3.121125e-05
-0.0027621688
3.9302544e-06
-0.0027604217
3.5688206e-06
5.1676971e-06
-0.0024203916
4.6433085e-07
7.086152e-06
-0.0025613693
4.7416012e-07
9.1094075e-06
-0.0026735707
5.1272604e-07
1.1178986e-05
-0.0027358848
5.810537e-07
1.325232e-05
-0.0027587218
6.6875046e-07
1.5301327e-05
-0.0027616416
7.7805032e-07
1.7304975e-05
-0.0027585108
9.1415351e-07
1.9246126e-05
-0.0027555325
1.0785825e-06
2.1108156e-05
-0.0027542839
1.2711615e-06
2.2872515e-05
-0.0027545035
1.4917233e-06
2.4518965e-05
-0.0027555967
1.7404097e-06
2.6026232e-05
-0.0027571308
2.0166287e-06
2.7374496e-05
-0.0027588734
2.3183179e-06
2.8545757e-05
-0.002760709
2.6417821e-06
2.9524419e-05
-0.0027626109
2.981658e-06
3.0299625e-05
-0.0027645279
3.3309733e-06
3.0867609e-05
-0.0027664185
3.6816861e-06
3.1230709e-05
-0.0027682951
4.0253684e-06
3.139893e-05
-0.0027701389
4.3540864e-06
3.1390375e-05
-0.0027719663
4.6610115e-06
3.1227228e-05
-0.0027737454
4.9411824e-06
3.0929885e-05
-0.0027754481
5.1920421e-06
3.0518908e-05
-0.0027770919
5.4126385e-06
3.0018777e-05
-0.0027786955
5.6032412e-06
2.9452613e-05
-0.0027802347
5.7657823e-06
2.8836406e-05
-0.0027816874
5.9036392e-06
2.8183006e-05
-0.002783077
6.0202103e-06
2.750603e-05
-0.0027844339
6.1187114e-06
2.6816872e-05
-0.0027857025
6.2033029e-06
2.6120939e-05
-0.0027869401
6.2776293e-06
-0.0027881236
6.3438065e-06
-2.5989717e-05
-0.0027935299
6.0568899e-06
-2.6638635e-05
-0.0027922729
5.9816377e-06
-2.7250771e-05
-0.0027909892
5.8988308e-06
-2.7869317e-05
-0.0027896213
5.8059441e-06
-2.8453442e-05
-0.0027881923
5.6994592e-06
-2.8998443e-05
-0.0027867186
5.5761904e-06
-2.9490633e-05
-0.0027851756
5.4330911e-06
-2.9913514e-05
-0.0027835394
5.2667934e-06
-3.0246725e-05
-0.0027818331
5.0744431e-06
-3.0469262e-05
-0.0027800799
4.8543474e-06
-3.0561445e-05
-0.0027782593
4.6060422e-06
-3.0502116e-05
-0.002776356
4.3303909e-06
-3.0271131e-05
-0.0027744003
4.0304147e-06
-2.985408e-05
-0.0027724233
3.7111991e-06
-2.924326e-05
-0.0027704087
3.379412e-06
-2.8436233e-05
-0.0027683777
3.0427473e-06
-2.743763e-05
-0.0027663184
2.7089392e-06
-2.6259739e-05
-0.0027642723
2.3853813e-06
-2.4918977e-05
-0.0027622928
2.0787155e-06
-2.3433512e-05
-0.0027604102
1.7939166e-06
-2.182276e-05
-0.0027587418
1.5343287e-06
-2.0106963e-05
-0.0027575211
1.3018398e-06
-1.8305709e-05
-0.002757182
1.0968828e-06
-1.6436534e-05
-0.0027583207
9.1907301e-07
-1.4514993e-05
-0.0027612003
7.6803462e-07
-1.255717e-05
-0.002764243
6.4357513e-07
-1.0582272e-05
-0.0027612409
5.4421021e-07
-8.6161411e-06
-0.0027383162
4.6529187e-07
-6.6972504e-06
-0.0026758943
4.0471885e-07
-4.8809131e-06
-0.0025635578
3.7209989e-07
-0.0024224341
3.6724895e-07
4.5620037e-06
-0.0024242655
2.6193086e-07
6.2653842e-06
-0.002565521
2.5986627e-07
8.0677535e-06
-0.0026779813
2.8459385e-07
9.9180605e-06
-0.0027405021
3.3558737e-07
1.1782163e-05
-0.0027635088
4.0374058e-07
1.3637252e-05
-0.0027665893
4.9123835e-07
1.5465789e-05
-0.002763631
6.0212452e-07
1.7253031e-05
-0.0027608455
7.3747954e-07
1.898455e-05
-0.0027598113
8.9774934e-07
2.0644253e-05
-0.0027602645
1.0837046e-06
2.2213487e-05
-0.002761607
1.2959742e-06
2.3672819e-05
-0.0027634041
1.5345538e-06
2.5003038e-05
-0.0027654213
1.7982189e-06
2.6185465e-05
-0.0027675389
2.0842364e-06
2.7202712e-05
-0.0027697239
2.3882158e-06
2.8042486e-05
-0.0027719215
2.7040336e-06
2.8699828e-05
-0.0027740904
3.0243425e-06
2.9176137e-05
-0.0027762412
3.3415826e-06
2.9476101e-05
-0.0027783492
3.6489171e-06
2.960989e-05
-0.0027804298
3.9399854e-06
2.9587692e-05
-0.0027824462
4.2091439e-06
2.9453803e-05
-0.0027843993
4.4533631e-06
2.9203165e-05
-0.0027862547
4.6722559e-06
2.8862683e-05
-0.0027880649
4.8659767e-06
2.8450728e-05
-0.0027897993
5.0356685e-06
2.7983225e-05
-0.0027914352
5.1840506e-06
2.7473412e-05
-0.0027929967
5.3142265e-06
2.6932331e-05
-0.0027945091
5.4288828e-06
2.6360649e-05
-0.0027959481
5.5305748e-06
2.5787145e-05
-0.0027973218
5.6224704e-06
-0.0027986415
5.7076004e-06
-2.5508777e-05
-0.0028034021
5.2978784e-06
-2.6026604e-05
-0.0028020063
5.2022543e-06
-2.6523063e-05
-0.0028005517
5.1000778e-06
-2.6991603e-05
-0.0027990295
4.9889698e-06
-2.7422896e-05
-0.0027974318
4.8663856e-06
-2.7807473e-05
-0.0027957804
4.7297876e-06
-2.8133554e-05
-0.0027940496
4.5763177e-06
-2.8386777e-05
-0.0027922151
4.4033974e-06
-2.8550237e-05
-0.0027903003
4.2090158e-06
-2.8605787e-05
-0.0027883356
3.9918505e-06
-2.8535586e-05
-0.0027862684
3.7519681e-06
-2.8329216e-05
-0.0027841269
3.4907171e-06
-2.79476e-05
-0.0027819418
3.2109373e-06
-2.7399928e-05
-0.0027797067
2.9178125e-06
-2.6701611e-05
-0.0027774063
2.6175975e-06
-2.5829086e-05
-0.0027751108
2.3167684e-06
-2.479412e-05
-0.0027727812
2.0223709e-06
-2.3609065e-05
-0.0027704655
1.7414627e-06
-2.2292391e-05
-0.0027682179
1.4799344e-06
-2.0863631e-05
-0.0027660742
1.2413039e-06
-1.9341942e-05
-0.0027641558
1.0271477e-06
-1.7746177e-05
-0.0027626985
8.3815339e-07
-1.6093198e-05
-0.0027621384
6.7415104e-07
-1.4397779e-05
-0.002763075
5.3409865e-07
-1.2673118e-05
-0.0027657727
4.1703075e-07
-1.0931869e-05
-0.0027686531
3.2249527e-07
-9.1897415e-06
-0.0027655002
2.4926159e-07
-7.4669861e-06
-0.0027424185
1.9359005e-07
-5.7931311e-06
-0.0026798093
1.5409968e-07
-4.21374e-06
-0.0025672403
1.3992802e-07
-0.0024258705
1.5126853e-07
3.8383586e-06
-0.0024272225
2.7140667e-08
5.2821714e-06
-0.0025686918
7.6289765e-09
6.8165854e-06
-0.0026813555
1.1869179e-08
8.4016895e-06
-0.0027440429
3.9379716e-08
1.001123e-05
-0.0027671911
8.1399601e-08
1.1628175e-05
-0.0027704087
1.3868335e-07
1.3239282e-05
-0.0027675985
2.1468442e-07
1.4833506e-05
-0.00276498
3.1083111e-07
1.6399499e-05
-0.0027641323
4.2786228e-07
1.7923784e-05
-0.0027647897
5.6696504e-07
1.939089e-05
-0.0027663524
7.2949084e-07
2.0783535e-05
-0.002768383
9.1624006e-07
2.2083182e-05
-0.0027706446
1.1270895e-06
2.3277431e-05
-0.0027730206
1.3608578e-06
2.4322089e-05
-0.0027754407
1.6148281e-06
2.5220894e-05
-0.0027778934
1.8838701e-06
2.5985562e-05
-0.0027803327
2.1616805e-06
2.6589508e-05
-0.0027827527
2.4420356e-06
2.7038839e-05
-0.0027851097
2.7185704e-06
2.7338128e-05
-0.0027874113
2.9851104e-06
2.7506406e-05
-0.0027896737
3.2370538e-06
2.7534459e-05
-0.0027918351
3.4714292e-06
2.7463511e-05
-0.0027939155
3.6861176e-06
2.7302464e-05
-0.0027959348
3.8807539e-06
2.7066667e-05
-0.0027978701
4.0563759e-06
2.6769398e-05
-0.0027996976
4.2144989e-06
2.6428638e-05
-0.0028014487
4.3576667e-06
2.6028699e-05
-0.0028031182
4.488579e-06
2.5602807e-05
-0.002804735
4.609169e-06
2.5150625e-05
-0.0028062758
4.7217022e-06
-0.002807754
4.8280815e-06
-2.4708958e-05
-0.0028116399
4.2993887e-06
-2.5093414e-05
-0.0028100736
4.1822905e-06
-2.5444837e-05
-0.0028084434
4.0598252e-06
-2.5756044e-05
-0.0028067372
3.9302264e-06
-2.6018683e-05
-0.0028049775
3.7914098e-06
-2.6225587e-05
-0.0028031323
3.6415803e-06
-2.6367864e-05
-0.0028012066
3.4787051e-06
-2.6432966e-05
-0.0027991704
3.3006646e-06
-2.6406967e-05
-0.0027970475
3.1060466e-06
-2.6274501e-05
-0.0027948622
2.8946481e-06
-2.6020979e-05
-0.0027925946
2.667298e-06
-2.5635247e-05
-0.002790223
2.4260325e-06
-2.510942e-05
-0.0027878097
2.1742535e-06
-2.4440833e-05
-0.002785338
1.9167072e-06
-2.3632468e-05
-0.0027828003
1.6592494e-06
-2.2697584e-05
-0.002780236
1.4076934e-06
-2.1618826e-05
-0.002777687
1.1675021e-06
-2.0434277e-05
-0.0027751493
9.4413808e-07
-1.9156625e-05
-0.0027726638
7.4153192e-07
-1.7805839e-05
-0.0027702956
5.6178682e-07
-1.6399567e-05
-0.0027681645
4.0583074e-07
-1.495375e-05
-0.0027665085
2.729998e-07
-1.3482829e-05
-0.0027657649
1.6168459e-07
-1.1998239e-05
-0.0027665349
7.0245804e-08
-1.0509626e-05
-0.0027690841
-2.9679244e-09
-9.0266387e-06
-0.0027718325
-5.9179042e-08
-7.5598032e-06
-0.0027685585
-9.9425597e-08
-6.122793e-06
-0.0027453537
-1.2623915e-07
-4.7377286e-06
-0.0026826011
-1.3954156e-07
-3.4386852e-06
-0.0025698598
-1.3096172e-07
-0.0024283097
-1.0160213e-07
3.0166867e-06
-0.0024291212
-2.3592825e-07
4.1635381e-06
-0.0025707303
-2.7636111e-07
5.390841e-06
-0.0026835295
-2.9885948e-07
6.6708917e-06
-0.0027463331
-3.0060787e-07
7.9866241e-06
-0.0027695842
-2.9002141e-07
9.3271634e-06
-0.0027729047
-2.683498e-07
1.0684541e-05
-0.0027702078
-2.3368866e-07
1.2051654e-05
-0.0027677171
-1.8488244e-07
1.3420542e-05
-0.002767013
-1.2079946e-07
1.4781163e-05
-0.0027678295
-3.9611805e-08
1.6121011e-05
-0.0027695653
6.093754e-08
1.7424881e-05
-0.0027717824
1.8289665e-07
1.8675591e-05
-0.002774242
3.2752913e-07
1.9854199e-05
-0.0027768229
4.9503586e-07
2.0941098e-05
-0.0027794583
6.8440263e-07
2.1920073e-05
-0.0027821076
8.9257782e-07
2.2780551e-05
-0.0027847757
1.1149945e-06
2.3514893e-05
-0.0027874191
1.3467553e-06
2.4118549e-05
-0.002789996
1.5826311e-06
2.4592031e-05
-0.0027925139
1.8173416e-06
2.4940062e-05
-0.0027949887
2.0460994e-06
2.5171233e-05
-0.0027973587
2.2652611e-06
2.5296909e-05
-0.0027996457
2.4724913e-06
2.5329496e-05
-0.0028018695
2.6665395e-06
2.5282422e-05
-0.0028040068
2.8472668e-06
2.5167845e-05
-0.002806033
3.015302e-06
2.4993856e-05
-0.0028079754
3.1718363e-06
2.4766613e-05
-0.0028098286
3.3186597e-06
2.4492941e-05
-0.0028116272
3.4575294e-06
2.4179449e-05
-0.0028133499
3.5898069e-06
-0.0028150079
3.7169021e-06
-2.3555823e-05
-0.0028178111
3.0856182e-06
-2.3796481e-05
-0.0028160582
2.9489532e-06
-2.3999034e-05
-0.0028142316
2.8069614e-06
-2.4133227e-05
-0.0028123532
2.658753e-06
-2.4217698e-05
-0.0028103945
2.5036126e-06
-2.4231299e-05
-0.00280836
2.3406011e-06
-2.4190331e-05
-0.0028062162
2.1684875e-06
-2.405859e-05
-0.0028039875
1.9862315e-06
-2.3831988e-05
-0.002801666
1.7937422e-06
-2.3501462e-05
-0.002799281
1.5918006e-06
-2.30585e-05
-0.0027968137
1.3820723e-06
-2.2496251e-05
-0.0027942433
1.1671725e-06
-2.1813575e-05
-0.0027916298
9.5114934e-07
-2.1013699e-05
-0.0027889577
7.3869906e-07
-2.0102605e-05
-0.0027862214
5.3459207e-07
-1.9090357e-05
-0.0027834635
3.4372316e-07
-1.7991132e-05
-0.0027807281
1.7057354e-07
-1.6814399e-05
-0.0027780182
1.8621638e-08
-1.5602866e-05
-0.002775343
-1.1055325e-07
-1.4350871e-05
-0.0027728171
-2.1725432e-07
-1.3083079e-05
-0.0027705305
-3.0261905e-07
-1.1813624e-05
-0.0027687306
-3.6843775e-07
-1.0553435e-05
-0.0027678559
-4.1724619e-07
-9.3108644e-06
-0.0027685079
-4.5176965e-07
-8.0917705e-06
-0.0027709527
-4.7416067e-07
-6.9007853e-06
-0.0027736099
-4.8578863e-07
-5.7437016e-06
-0.0027702534
-4.8786854e-07
-4.627182e-06
-0.002746968
-4.8169459e-07
-3.5641793e-06
-0.0026841272
-4.6530208e-07
-2.5765374e-06
-0.0025712874
-4.3061896e-07
-0.0024296388
-3.8017821e-07
2.1248365e-06
-0.0024298578
-5.2538524e-07
2.9493689e-06
-0.0025715255
-5.8640769e-07
3.842814e-06
-0.0026843862
-6.3449282e-07
4.7895168e-06
-0.0027472477
-6.6698222e-07
5.7818705e-06
-0.0027705547
-6.9112302e-07
6.8168084e-06
-0.0027739352
-7.0962282e-07
7.8917986e-06
-0.0027713057
-7.2207991e-07
9.0039565e-06
-0.0027688924
-7.2764124e-07
1.0149474e-05
-0.0027682769
-7.2456877e-07
1.132216e-05
-0.002769193
-7.1021994e-07
1.2512279e-05
-0.0027710391
-6.8152238e-07
1.3706965e-05
-0.0027733766
-6.352305e-07
1.489834e-05
-0.0027759661
-5.6834972e-07
1.6045186e-05
-0.0027786862
-4.7892685e-07
1.7153399e-05
-0.0027814701
-3.6618552e-07
1.8195546e-05
-0.0027842755
-2.3022446e-07
1.915357e-05
-0.0027871065
-7.2916686e-08
2.0016322e-05
-0.0027899221
1.0174135e-07
2.0776583e-05
-0.0027926792
2.8910525e-07
2.143447e-05
-0.002795386
4.8487713e-07
2.1963381e-05
-0.002798027
6.8440518e-07
2.2393219e-05
-0.002800594
8.8316811e-07
2.272157e-05
-0.0028030729
1.07851e-06
2.2953451e-05
-0.0028054876
1.2682188e-06
2.3098812e-05
-0.0028078124
1.4507797e-06
2.3169471e-05
-0.0028100565
1.6258675e-06
2.3173392e-05
-0.0028121925
1.7940626e-06
2.3115416e-05
-0.0028142511
1.9559183e-06
2.3000104e-05
-0.0028162284
2.1120826e-06
2.283259e-05
-0.002818154
2.263324e-06
-0.0028200064
2.4099321e-06
-2.2007177e-05
-0.0028215567
1.6966293e-06
-2.2101329e-05
-0.0028196013
1.541427e-06
-2.213819e-05
-0.0028175736
1.3820789e-06
-2.2113206e-05
-0.0028154954
1.2192629e-06
-2.2022437e-05
-0.0028133357
1.0524026e-06
-2.186128e-05
-0.0028110987
8.809605e-07
-2.1621155e-05
-0.0028087568
7.0433634e-07
-2.1299073e-05
-0.0028063321
5.2250984e-07
-2.0855183e-05
-0.0028038536
3.3684516e-07
-2.0327882e-05
-0.0028012708
1.4952577e-07
-1.9707108e-05
-0.002798611
-3.6793779e-08
-1.8973696e-05
-0.0027959001
-2.1934007e-07
-1.8132633e-05
-0.0027931272
-3.9304708e-07
-1.72186e-05
-0.0027902832
-5.5301294e-07
-1.6225183e-05
-0.0027874041
-6.9583297e-07
-1.51493e-05
-0.0027845335
-8.1780584e-07
-1.403617e-05
-0.0027816677
-9.1553912e-07
-1.2900091e-05
-0.0027788342
-9.8808272e-07
-1.1758038e-05
-0.0027760717
-1.0363574e-06
-1.0625937e-05
-0.0027734466
-1.0620936e-06
-9.5188093e-06
-0.0027710778
-1.0683459e-06
-8.4484638e-06
-0.0027692044
-1.0589234e-06
-7.4228933e-06
-0.0027682646
-1.0378005e-06
-6.4463519e-06
-0.0027688603
-1.0086672e-06
-5.5208973e-06
-0.0027712568
-9.7432562e-07
-4.6470867e-06
-0.0027738726
-9.364581e-07
-3.8244045e-06
-0.0027704816
-8.9576027e-07
-3.0524825e-06
-0.0027471675
-8.5209687e-07
-2.3334036e-06
-0.0026843032
-8.0209195e-07
-1.675433e-06
-0.0025714446
-7.3886808e-07
-0.0024297822
-6.651929e-07
1.2250334e-06
-0.002429418
-8.0437021e-07
1.7198538e-06
-0.0025710501
-8.8928481e-07
2.2666739e-06
-0.0026838825
-9.6750103e-07
2.8645791e-06
-0.0027467307
-1.034762e-06
3.5170827e-06
-0.0027700363
-1.0978218e-06
4.2286962e-06
-0.0027734235
-1.1607031e-06
5.0029533e-06
-0.002770807
-1.2240393e-06
5.8416587e-06
-0.0027684116
-1.2873966e-06
6.7447524e-06
-0.0027678188
-1.3489596e-06
7.7094019e-06
-0.0027687636
-1.4054607e-06
8.7295121e-06
-0.0027706452
-1.4527824e-06
9.794809e-06
-0.0027730254
-1.4864443e-06
1.0891596e-05
-0.0027756666
-1.5019721e-06
1.1996751e-05
-0.0027784437
-1.4956188e-06
1.3116369e-05
-0.0027813228
-1.4644511e-06
1.4203639e-05
-0.0027842145
-1.4062679e-06
1.5243525e-05
-0.0027871229
-1.3210654e-06
1.6219688e-05
-0.0027900482
-1.211097e-06
1.7118813e-05
-0.002792947
-1.079373e-06
1.7928372e-05
-0.0027957802
-9.294795e-07
1.8641855e-05
-0.0027985582
-7.6635334e-07
1.9266394e-05
-0.0028013004
-5.9501275e-07
1.9778284e-05
-0.0028039467
-4.1881095e-07
2.0201603e-05
-0.0028065164
-2.3910427e-07
2.0533139e-05
-0.0028090286
-5.9724041e-08
2.0773984e-05
-0.0028114567
1.1717016e-07
2.0956632e-05
-0.0028138091
2.9083932e-07
2.1061826e-05
-0.0028160621
4.6153504e-07
2.1101464e-05
-0.0028182425
6.2927696e-07
2.107997e-05
-0.0028203742
7.9438059e-07
-0.0028224344
9.5587001e-07
-2.0057824e-05
-0.0028226211
1.9880272e-07
-2.0012361e-05
-0.0028204533
3.3662659e-08
-1.9906786e-05
-0.0028182182
-1.2993108e-07
-1.9732214e-05
-0.0028159392
-2.9746315e-07
-1.9483094e-05
-0.0028135898
-4.6842256e-07
-1.9154007e-05
-0.0028111436
-6.4213305e-07
-1.8737639e-05
-0.0028086274
-8.1764405e-07
-1.8227204e-05
-0.0028060335
-9.9325572e-07
-1.7618299e-05
-0.0028033889
-1.1666939e-06
-1.6910722e-05
-0.0028006729
-1.3350666e-06
-1.6108953e-05
-0.002797866
-1.4939733e-06
-1.5219535e-05
-0.0027950306
-1.6390299e-06
-1.4252493e-05
-0.0027921483
-1.7656835e-06
-1.3222048e-05
-0.0027892093
-1.8693696e-06
-1.2145297e-05
-0.0027862534
-1.9463248e-06
-1.1042325e-05
-0.0027833234
-1.9941631e-06
-9.9361761e-06
-0.0027804169
-2.01211e-06
-8.8492791e-06
-0.0027775292
-2.0014156e-06
-7.8003346e-06
-0.0027747502
-1.9652891e-06
-6.8045607e-06
-0.0027721134
-1.9077781e-06
-5.8741098e-06
-0.0027697421
-1.8335629e-06
-5.0173037e-06
-0.0027678725
-1.7479384e-06
-4.2384312e-06
-0.0027669416
-1.6560471e-06
-3.538257e-06
-0.0027675493
-1.5624377e-06
-2.9147379e-06
-0.0027699598
-1.4706908e-06
-2.3637058e-06
-0.0027725915
-1.3829662e-06
-1.8790373e-06
-0.0027692211
-1.2998167e-06
-1.45287e-06
-0.0027459371
-1.2197492e-06
-1.0773775e-06
-0.0026831201
-1.1379065e-06
-7.4915859e-07
-0.0025703304
-1.0479703e-06
-0.0024287458
-9.5402828e-07
2.8686996e-07
-0.0024277719
-1.0972445e-06
4.4792871e-07
-0.0025692911
-1.2003244e-06
6.5121734e-07
-0.0026820216
-1.3017917e-06
9.0539605e-07
-0.002744793
-1.3982199e-06
1.2223133e-06
-0.002768043
-1.4950434e-06
1.613064e-06
-0.0027713843
-1.597953e-06
2.0857694e-06
-0.0027687232
-1.7093374e-06
2.6465693e-06
-0.0027662815
-1.8286793e-06
3.2995747e-06
-0.0027656411
-1.9534882e-06
4.045835e-06
-0.0027665389
-2.0798799e-06
4.882747e-06
-0.0027683761
-2.2029112e-06
5.8037813e-06
-0.0027707175
-2.3169867e-06
6.797936e-06
-0.0027733281
-2.4162336e-06
7.8501252e-06
-0.0027760865
-2.494845e-06
8.9411204e-06
-0.0027789603
-2.5475901e-06
1.004853e-05
-0.0027818604
-2.5703781e-06
1.1148926e-05
-0.0027847929
-2.5608165e-06
1.2219492e-05
-0.0027877612
-2.5186885e-06
1.3240079e-05
-0.0027907231
-2.4458175e-06
1.4194378e-05
-0.0027936393
-2.3455613e-06
1.5069976e-05
-0.0027965193
-2.2222845e-06
1.5857696e-05
-0.0027993799
-2.0807086e-06
1.6552148e-05
-0.0028021579
-1.9254609e-06
1.715222e-05
-0.002804873
-1.7606271e-06
1.7660258e-05
-0.0028075456
-1.5897524e-06
1.8080894e-05
-0.0028101486
-1.4156575e-06
1.841982e-05
-0.0028126884
-1.2403975e-06
1.8681822e-05
-0.002815136
-1.0652176e-06
1.8869996e-05
-0.0028175154
-8.9093746e-07
1.8986617e-05
-0.0028198516
-7.1829477e-07
-0.002822122
-5.4858708e-07
-1.7736916e-05
-0.0028209141
-1.3297664e-06
-1.7549422e-05
-0.0028185377
-1.501391e-06
-1.7289666e-05
-0.0028161016
-1.6736352e-06
-1.6955274e-05
-0.0028136246
-1.8457916e-06
-1.6543786e-05
-0.0028110828
-2.0170933e-06
-1.6049471e-05
-0.0028084561
-2.1868632e-06
-1.54663e-05
-0.0028057752
-2.3536373e-06
-1.4790689e-05
-0.0028030337
-2.5149131e-06
-1.4022682e-05
-0.0028002587
-2.6671666e-06
-1.3165773e-05
-0.0027974303
-2.8064463e-06
-1.2227449e-05
-0.0027945293
-2.9282928e-06
-1.1219206e-05
-0.0027916197
-3.0278687e-06
-1.0155794e-05
-0.002788686
-3.1004714e-06
-9.0558363e-06
-0.0027857193
-3.1418621e-06
-7.9418182e-06
-0.0027827579
-3.1490785e-06
-6.8384282e-06
-0.0027798428
-3.1209692e-06
-5.7702066e-06
-0.0027769699
-3.0585942e-06
-4.759759e-06
-0.0027741316
-2.9653686e-06
-3.8263466e-06
-0.0027714152
-2.8463529e-06
-2.9845376e-06
-0.0027688517
-2.7075805e-06
-2.2440581e-06
-0.002766561
-2.5555657e-06
-1.6101252e-06
-0.0027647759
-2.3968694e-06
-1.0835818e-06
-0.00276393
-2.237609e-06
-6.6164149e-07
-0.0027646203
-2.0830675e-06
-3.3872194e-07
-0.0027671088
-1.9373091e-06
-1.06705e-07
-0.0027698135
-1.8028787e-06
4.4554709e-08
-0.002766514
-1.6802444e-06
1.2889052e-07
-0.0027433109
-1.5664624e-06
1.6286935e-07
-0.0026806006
-1.454961e-06
1.6148095e-07
-0.0025679494
-1.340281e-06
-0.0024265176
-1.2268187e-06
-5.908217e-07
-0.0024249985
-1.3471008e-06
-7.4772194e-07
-0.002566323
-1.469567e-06
-8.7691906e-07
-0.0026788753
-1.5960605e-06
-9.5711863e-07
-0.002741509
-1.7216649e-06
-9.6719778e-07
-0.0027646525
-1.8514301e-06
-8.9053627e-07
-0.0027678978
-1.9923513e-06
-7.1444345e-07
-0.002765137
-2.1479321e-06
-4.2941447e-07
-0.0027625873
-2.3180442e-06
-2.855243e-08
-0.0027618308
-2.5000649e-06
4.9248684e-07
-0.0027626073
-2.6896536e-06
1.1342996e-06
-0.0027643215
-2.8812662e-06
1.8931171e-06
-0.0027665421
-3.0684393e-06
2.7601356e-06
-0.0027690381
-3.2440926e-06
3.7214521e-06
-0.0027716919
-3.4009737e-06
4.7583003e-06
-0.0027744746
-3.5321877e-06
5.8478412e-06
-0.0027773003
-3.6320318e-06
6.9644975e-06
-0.002780178
-3.6965209e-06
8.0820302e-06
-0.0027831131
-3.7236827e-06
9.1758942e-06
-0.0027860661
-3.7138619e-06
1.0225853e-05
-0.002789
-3.6696072e-06
1.1215745e-05
-0.0027919243
-3.5948534e-06
1.2131595e-05
-0.0027948519
-3.494287e-06
1.2963614e-05
-0.0027977176
-3.3731583e-06
1.3714011e-05
-0.0028005479
-3.2361996e-06
1.4356359e-05
-0.00280333
-3.0875216e-06
1.4917719e-05
-0.0028060865