/*--------------------------------*- C++ -*----------------------------------*\
| =========                 |                                                 |
| \\      /  F ield         | OpenFOAM: The Open Source CFD Toolbox           |
|  \\    /   O peration     | Version:  v2012                                 |
|   \\  /    A nd           | Website:  www.openfoam.com                      |
|    \\/     M anipulation  |                                                 |
\*---------------------------------------------------------------------------*/
FoamFile
{
    version     2.0;
    format      ascii;
    class       volVectorField;
    location    "283";
    object      U;
}
// * * * * * * * * * * * * * * * * * * * * * * * * * * * * * * * * * * * * * //

dimensions      [0 1 -1 0 0 0 0];


internalField   nonuniform List<vector> 
74980
(
(5.000094 0.00012280313 -0.00030423541)
(5.0000926 3.9521058e-05 -0.0003075296)
(5.0000127 1.3694521e-05 -0.00010172603)
(5.0000187 1.3566664e-05 -3.4973008e-05)
(5.0000183 4.0502351e-05 -3.4242591e-05)
(5.000018 6.9120348e-05 -3.4854523e-05)
(5.0000178 9.8603935e-05 -3.386165e-05)
(5.000018 0.00013013207 -3.4162763e-05)
(5.0000182 0.00015976527 -3.3290904e-05)
(5.0000189 0.00018858539 -3.2633079e-05)
(5.0000195 0.00021388656 -3.1779417e-05)
(5.0000202 0.00023575907 -3.0911024e-05)
(5.0000207 0.00025334993 -3.0066297e-05)
(5.0000212 0.00026646868 -2.9213625e-05)
(5.0000217 0.00027493237 -2.8342073e-05)
(5.0000223 0.00027866622 -2.7458105e-05)
(5.0000228 0.00027766361 -2.6577929e-05)
(5.0000232 0.00027199488 -2.5715245e-05)
(5.0000237 0.00026180274 -2.4880612e-05)
(5.0000242 0.00024728935 -2.4071686e-05)
(5.0000246 0.00022873628 -2.3269756e-05)
(5.0000252 0.00020645426 -2.2411248e-05)
(5.0000257 0.00018121832 -2.1728708e-05)
(5.0000261 0.00015315514 -2.0860224e-05)
(5.0000267 0.00012448466 -2.068648e-05)
(5.0000263 9.4558814e-05 -2.0161821e-05)
(5.0000268 6.6853306e-05 -2.0607443e-05)
(5.0000263 4.0001339e-05 -2.0678605e-05)
(5.0000292 1.3759827e-05 -2.1253373e-05)
(5.0000252 1.3284103e-05 -6.1740703e-05)
(5.0000259 1.2888642e-05 -0.0001033865)
(5.0000254 1.2533809e-05 -0.00014648972)
(5.000026 1.284404e-05 -0.00019396701)
(5.0000256 1.3100255e-05 -0.00024054825)
(5.0000253 1.4115755e-05 -0.00028851378)
(5.0000251 1.4900677e-05 -0.00033455292)
(5.000025 1.5881817e-05 -0.00037937546)
(5.0000251 1.672936e-05 -0.00042204557)
(5.0000254 1.7584515e-05 -0.0004625953)
(5.0000257 1.8485293e-05 -0.00050094371)
(5.000026 1.9472127e-05 -0.00053705837)
(5.0000264 2.0541692e-05 -0.00057088455)
(5.0000268 2.1690163e-05 -0.00060239065)
(5.0000272 2.290949e-05 -0.00063156286)
(5.0000278 2.4195641e-05 -0.00065841221)
(5.0000283 2.5547441e-05 -0.00068297193)
(5.000029 2.6962905e-05 -0.00070529262)
(5.0000297 2.8447942e-05 -0.0007254455)
(5.0000305 2.999146e-05 -0.00074345125)
(5.0000314 3.1585209e-05 -0.00075945129)
(5.0000324 3.3234735e-05 -0.00077355211)
(5.0000334 3.4942272e-05 -0.00078585782)
(5.0000345 3.6709118e-05 -0.00079646787)
(5.0000357 3.8535965e-05 -0.0008054745)
(5.000037 4.0424628e-05 -0.00081296018)
(5.0000383 4.2378154e-05 -0.00081898859)
(5.0000397 4.439982e-05 -0.00082361137)
(5.0000412 4.6490517e-05 -0.00082685436)
(4.9999711 5.4011822e-05 -0.0016356525)
(4.9999731 5.1181319e-05 -0.0015985152)
(4.9999749 4.8490728e-05 -0.0015615913)
(4.9999767 4.593394e-05 -0.0015248428)
(4.9999785 4.3500297e-05 -0.0014881589)
(4.9999802 4.1182211e-05 -0.0014513803)
(4.9999819 3.8974379e-05 -0.0014142828)
(4.9999836 3.6866186e-05 -0.0013766062)
(4.9999853 3.4854456e-05 -0.0013380492)
(4.999987 3.2939596e-05 -0.001298289)
(4.9999887 3.1114962e-05 -0.0012569905)
(4.9999905 2.937432e-05 -0.0012138216)
(4.9999923 2.7716899e-05 -0.0011684685)
(4.9999941 2.6142984e-05 -0.0011206445)
(4.9999959 2.4650486e-05 -0.001070092)
(4.9999977 2.3234481e-05 -0.0010166325)
(4.9999996 2.1898015e-05 -0.00096011961)
(5.0000011 2.058874e-05 -0.0009005189)
(5.0000027 1.9445073e-05 -0.00083770907)
(5.0000041 1.8352886e-05 -0.00077171549)
(5.0000055 1.7369634e-05 -0.00070256125)
(5.0000069 1.6584366e-05 -0.0006304159)
(5.0000087 1.6224811e-05 -0.00055511668)
(5.0000103 1.596154e-05 -0.00047815525)
(5.0000121 1.6097893e-05 -0.00039827197)
(5.0000132 1.6005848e-05 -0.00032075415)
(5.0000131 1.5133121e-05 -0.00024191396)
(5.0000136 1.5027135e-05 -0.00017050504)
(5.0000895 4.0111867e-05 -0.00051836059)
(5.0000866 4.1196278e-05 -0.00074404081)
(5.0000836 4.3077041e-05 -0.00098133716)
(5.0000779 4.4484922e-05 -0.0012237611)
(5.000071 4.5490607e-05 -0.0014658982)
(5.0000625 4.6817506e-05 -0.0017032478)
(5.0000531 4.8483198e-05 -0.0019333178)
(5.0000429 5.0828029e-05 -0.0021546961)
(5.0000319 5.3679296e-05 -0.0023667956)
(5.0000201 5.691134e-05 -0.0025692903)
(5.0000079 6.0417972e-05 -0.0027621084)
(4.9999949 6.4142289e-05 -0.0029449997)
(4.9999815 6.8134381e-05 -0.003118158)
(4.9999679 7.2393834e-05 -0.0032819429)
(4.9999542 7.6887179e-05 -0.0034367392)
(4.9999404 8.1629178e-05 -0.0035831334)
(4.9999268 8.6614903e-05 -0.0037219104)
(4.9999133 9.1831703e-05 -0.0038539493)
(4.9998999 9.7298765e-05 -0.003980215)
(4.9998868 0.00010303877 -0.0041017364)
(4.9998737 0.00010904177 -0.0042195592)
(4.9998608 0.00011531987 -0.0043346591)
(4.9998479 0.00012189997 -0.0044479757)
(4.9998348 0.00012880603 -0.0045603165)
(4.9998215 0.0001360429 -0.0046723726)
(4.9998078 0.00014363835 -0.0047846316)
(4.9997935 0.00015164325 -0.0048974264)
(4.9997785 0.00016005708 -0.0050108963)
(5.1315899 -0.00025494697 0.0014751068)
(5.1360857 -0.00019415532 0.0013919106)
(5.1401589 -0.00012685573 0.0012985671)
(5.1437659 -5.1780101e-05 0.0011964831)
(5.1468691 3.1590011e-05 0.0010910422)
(5.1494317 0.00012060526 0.00097760511)
(5.1514203 0.0002125748 0.00085479166)
(5.1528088 0.0003078638 0.0007262435)
(5.1535667 0.00040451257 0.00059454997)
(5.153731 0.00048441581 0.00048566276)
(5.1533219 0.00058700205 0.00034337219)
(5.1522093 0.0006872148 0.00020238698)
(5.1504804 0.00077920769 7.0252276e-05)
(5.1481359 0.00086627791 -5.816851e-05)
(5.1452188 0.0009467397 -0.00018101937)
(5.1417576 0.0010197907 -0.00029757488)
(5.1377986 0.0010841873 -0.00040646986)
(5.1333874 0.0011391021 -0.00050680674)
(5.128578 0.0011837898 -0.00059771524)
(5.1234258 0.0012178123 -0.00067863482)
(5.1179897 0.0012409619 -0.00074923815)
(5.1123284 0.0012533516 -0.00080932091)
(5.1065011 0.0012554074 -0.00085858798)
(5.1005665 0.0012475895 -0.00089772676)
(5.0945739 0.0012303709 -0.00092690905)
(5.0885827 0.0012047298 -0.00094665247)
(5.0826332 0.0011717828 -0.00095785546)
(5.0767701 0.0011324068 -0.00096111298)
(5.0710287 0.0010880871 -0.00095710737)
(5.0654409 0.0010396918 -0.00094650514)
(5.060033 0.00098813708 -0.00093018177)
(5.054827 0.00093434325 -0.00090890992)
(5.0498402 0.0008792225 -0.00088335635)
(5.0450857 0.00082354155 -0.00085415355)
(5.040573 0.00076797683 -0.00082186458)
(5.0363084 0.0007130918 -0.00078700495)
(5.0322956 0.00065934116 -0.00075003019)
(5.0285356 0.00060708103 -0.00071133439)
(5.025028 0.00055657597 -0.00067125864)
(5.0217705 0.00050800129 -0.00063008151)
(5.0187596 0.00046143941 -0.00058801278)
(5.0159909 0.00041689236 -0.00054520338)
(5.0134589 0.00037431177 -0.00050176883)
(5.0111567 0.00033363954 -0.00045783105)
(5.0090761 0.00029493304 -0.00041360478)
(5.0072092 0.00025838839 -0.0003694222)
(5.0055485 0.00022414719 -0.00032541789)
(5.0040972 0.00019172302 -0.00028177502)
(5.0028563 0.00016032611 -0.00023751768)
(5.0018467 0.00013008544 -0.00019414829)
(5.0010689 9.8341342e-05 -0.00014798329)
(5.0005208 7.0004948e-05 -0.00010629903)
(5.000184 4.0380579e-05 -6.2230819e-05)
(5.0001753 4.0263896e-05 -0.00018578869)
(5.0005128 6.8977036e-05 -0.00031266961)
(5.0010618 9.9576741e-05 -0.00044286085)
(5.0018379 0.00013169675 -0.00057932104)
(5.0028458 0.00016201042 -0.00071773705)
(5.0040792 0.00019096087 -0.00085822314)
(5.0055268 0.00022039284 -0.00099734979)
(5.0071837 0.00025198841 -0.0011351678)
(5.0090499 0.00028656691 -0.0012709821)
(5.0111307 0.00032364298 -0.0014051532)
(5.0134337 0.00036285426 -0.0015380306)
(5.0159666 0.00040407468 -0.001669672)
(5.0187362 0.00044729421 -0.0017998238)
(5.0217482 0.00049251981 -0.0019280367)
(5.0250072 0.00053972925 -0.0020536947)
(5.0285168 0.00058884687 -0.0021760275)
(5.0322793 0.00063968443 -0.0022941492)
(5.0362956 0.0006920018 -0.0024069859)
(5.0405643 0.00074546367 -0.0025133058)
(5.0450821 0.00079962394 -0.0026117139)
(5.0498428 0.00085393878 -0.0027006334)
(5.054837 0.00090777051 -0.0027783187)
(5.0600517 0.00096036871 -0.0028428346)
(5.0654696 0.0010109206 -0.0028921252)
(5.0710692 0.0010584719 -0.0029239468)
(5.0768238 0.001101819 -0.0029360418)
(5.0827018 0.0011402578 -0.002925696)
(5.0886674 0.0011725446 -0.0028910553)
(5.0946762 0.00119781 -0.0028302222)
(5.1006876 0.001214855 -0.002740524)
(5.1066422 0.0012226066 -0.0026202695)
(5.1124906 0.0012205661 -0.0024689801)
(5.1181735 0.001208839 -0.0022850933)
(5.123631 0.0011865722 -0.0020688473)
(5.1288042 0.0011535093 -0.0018208684)
(5.133634 0.0011099446 -0.0015423125)
(5.1380643 0.0010563388 -0.0012348994)
(5.1420406 0.00099341695 -0.0009012153)
(5.1455167 0.00092198997 -0.00054404124)
(5.1484461 0.00084324494 -0.00016734044)
(5.1507985 0.00075797335 0.00022658943)
(5.152532 0.000667705 0.00063279068)
(5.1536412 0.00057033423 0.0010611431)
(5.1540643 0.00047689963 0.0014614575)
(5.1539252 0.00038884808 0.0018494082)
(5.1531517 0.00029579673 0.0022455254)
(5.1517519 0.00020358659 0.0026331057)
(5.1497531 0.00011428474 0.0030068353)
(5.1471777 2.909925e-05 0.0033542241)
(5.1440584 -5.0456622e-05 0.0036801735)
(5.1404333 -0.00012381368 0.0039888227)
(5.1363424 -0.00019084503 0.0042753709)
(5.1318283 -0.00025112583 0.0045311276)
(5.1944181 -0.003782141 0.052487264)
(5.1921225 -0.0037273056 0.053848394)
(5.1897285 -0.0036614429 0.055163557)
(5.1872343 -0.0035822958 0.056406159)
(5.1846394 -0.0034877089 0.057543323)
(5.181945 -0.0033758106 0.058536257)
(5.1791543 -0.0032452938 0.059341347)
(5.1762732 -0.0030957027 0.059912302)
(5.17331 -0.0029275957 0.060202595)
(5.1702756 -0.0027426955 0.060168545)
(5.1671842 -0.0025439228 0.059773069)
(5.1640524 -0.0023352844 0.058988363)
(5.1608995 -0.002121524 0.057799134)
(5.1322894 -0.00025115554 0.0078164876)
(5.1330186 -0.00026476426 0.011359858)
(5.1340507 -0.00029260056 0.015109747)
(5.1353993 -0.00033472635 0.01897778)
(5.1370553 -0.00039089302 0.022877837)
(5.1389976 -0.00046092746 0.026746616)
(5.1412021 -0.00054502401 0.03054257)
(5.1436462 -0.00064389631 0.034235599)
(5.1463073 -0.00075847003 0.037797212)
(5.1491615 -0.00088947948 0.041195702)
(5.152183 -0.0010371978 0.044394837)
(5.1553439 -0.0012012219 0.04735551)
(5.1586153 -0.0013802993 0.050037511)
(5.1619676 -0.0015722109 0.052402994)
(5.1653713 -0.0017737478 0.054419031)
(5.1687979 -0.0019808038 0.056061397)
(5.1722208 -0.0021886218 0.057316796)
(5.1756154 -0.0023922162 0.058185149)
(5.17896 -0.002586943 0.058679301)
(5.1822361 -0.0027688764 0.058824177)
(5.1854286 -0.0029351282 0.058653992)
(5.1885255 -0.003083973 0.058209494)
(5.1915181 -0.0032148014 0.057534332)
(5.1944009 -0.0033280135 0.056672251)
(5.1971709 -0.0034248103 0.05566452)
(5.1998276 -0.0035069518 0.054547983)
(5.2023721 -0.0035764708 0.053353896)
(5.2048072 -0.0036355042 0.052107616)
(5.2071368 -0.0036861792 0.050828264)
(5.2093655 -0.0037303857 0.049529814)
(5.2114981 -0.0037697942 0.04822085)
(5.2218631 -0.0036005944 0.048021445)
(5.2196106 -0.0035556634 0.049230986)
(5.217254 -0.0035061814 0.050421118)
(5.2147879 -0.0034506083 0.051583524)
(5.2122067 -0.0033871557 0.052704901)
(5.2095058 -0.003313849 0.053767041)
(5.2066817 -0.0032286979 0.05474588)
(5.2037324 -0.0031298026 0.055611885)
(5.200658 -0.0030155548 0.056330323)
(5.1974609 -0.0028848777 0.056862542)
(5.1941467 -0.0027374739 0.057167717)
(5.1907243 -0.0025740124 0.057205431)
(5.1872063 -0.0023962437 0.056938391)
(5.1836091 -0.0022070209 0.056335787)
(5.1799531 -0.0020101751 0.055376014)
(5.1762622 -0.0018102174 0.054049203)
(5.1725636 -0.00161193 0.052357964)
(5.1688871 -0.0014198545 0.05031748)
(5.1652644 -0.0012378535 0.047953215)
(5.161728 -0.0010688732 0.045298611)
(5.1583107 -0.0009148898 0.042391293)
(5.1550444 -0.00077693623 0.03927069)
(5.1519597 -0.00065522178 0.035974572)
(5.1490844 -0.00054930401 0.032537488)
(5.1464446 -0.00045829718 0.028989194)
(5.1440646 -0.00038115765 0.025356082)
(5.1419691 -0.0003170995 0.02166567)
(5.1401836 -0.00026594816 0.017956116)
(5.1387312 -0.00022790231 0.014285679)
(5.137621 -0.00020297965 0.010733655)
(5.1368376 -0.00019056454 0.0073816195)
(5.1409618 -0.00012286639 0.0068980674)
(5.1417963 -0.00013394452 0.010037347)
(5.1429806 -0.00015559879 0.01336869)
(5.1445319 -0.00018885916 0.016818389)
(5.146441 -0.00023407295 0.02031456)
(5.1486834 -0.00029102796 0.0238045)
(5.1512315 -0.00035989361 0.027253852)
(5.1540593 -0.00044152348 0.030637939)
(5.1571405 -0.00053709343 0.033932811)
(5.1604475 -0.0006476482 0.037110941)
(5.1639502 -0.00077381698 0.040139799)
(5.1676156 -0.00091561694 0.042983217)
(5.171409 -0.0010722804 0.045602857)
(5.1752948 -0.0012421338 0.047961406)
(5.1792372 -0.0014225469 0.050024996)
(5.1832016 -0.0016099636 0.051766831)
(5.1871552 -0.0018001346 0.053169628)
(5.1910681 -0.00198852 0.054227778)
(5.1949143 -0.0021707788 0.0549478)
(5.1986717 -0.0023431844 0.055347441)
(5.2023227 -0.002502922 0.055453632)
(5.205854 -0.0026481942 0.055299684)
(5.2092565 -0.0027782699 0.054922436)
(5.2125247 -0.0028932921 0.054359392)
(5.2156565 -0.0029941776 0.053646438)
(5.2186524 -0.0030823614 0.052815984)
(5.221515 -0.0031595693 0.051895779)
(5.2242486 -0.0032276301 0.050908538)
(5.2268586 -0.0032883455 0.049871574)
(5.2293511 -0.0033433573 0.048797566)
(5.2317323 -0.0033941086 0.047694666)
(5.2409953 -0.0031509134 0.047231569)
(5.2384764 -0.0030941048 0.048221325)
(5.2358397 -0.003033318 0.049172152)
(5.2330786 -0.0029672674 0.050076102)
(5.2301863 -0.0028944576 0.050920949)
(5.2271568 -0.0028132624 0.051690383)
(5.2239853 -0.0027220434 0.052362915)
(5.2206687 -0.0026192845 0.052912811)
(5.2172057 -0.0025037553 0.053309961)
(5.2135984 -0.002374732 0.053521602)
(5.209852 -0.0022322448 0.053513683)
(5.205976 -0.0020771619 0.053253505)
(5.2019842 -0.0019113052 0.052712028)
(5.1978954 -0.0017374582 0.05186682)
(5.1937332 -0.0015592493 0.050704374)
(5.1895259 -0.0013807922 0.049222093)
(5.1853058 -0.0012063351 0.047428779)
(5.1811083 -0.0010397856 0.045344112)
(5.176971 -0.00088431129 0.042996279)
(5.1729325 -0.00074216991 0.040419549)
(5.1690313 -0.00061467599 0.037650712)
(5.1653045 -0.00050228439 0.034726785)
(5.1617872 -0.00040473035 0.031682009)
(5.1585116 -0.00032117463 0.028546625)
(5.155507 -0.00025040548 0.025345588)
(5.1528007 -0.00019111418 0.022100143)
(5.1504207 -0.00014237036 0.01883183)
(5.1483959 -0.00010401387 0.015570892)
(5.1467521 -7.6289855e-05 0.012364044)
(5.1454993 -5.851444e-05 0.0092756884)
(5.1446177 -4.9637301e-05 0.0063691718)
(5.1477636 2.8424314e-05 0.0058021525)
(5.1486873 2.2298196e-05 0.0084537122)
(5.1500024 9.3599422e-06 0.011278545)
(5.1517303 -1.2083188e-05 0.014221833)
(5.1538609 -4.2704865e-05 0.017227163)
(5.156367 -8.2179513e-05 0.020253993)
(5.1592182 -0.00013065595 0.02327653)
(5.1623855 -0.00018914098 0.02627657)
(5.1658403 -0.00025907705 0.029235916)
(5.1695519 -0.00034185462 0.032132385)
(5.1734865 -0.00043853622 0.034938418)
(5.1776072 -0.00054966719 0.037621907)
(5.1818745 -0.00067514625 0.040147464)
(5.1862476 -0.00081406509 0.042478973)
(5.1906853 -0.00096461017 0.044581858)
(5.1951473 -0.0011240435 0.046426431)
(5.1995958 -0.0012888876 0.047990554)
(5.2039961 -0.0014552519 0.049261779)
(5.2083181 -0.0016192526 0.050238461)
(5.2125367 -0.0017773917 0.05092937)
(5.216632 -0.0019269148 0.051351973)
(5.2205896 -0.0020659506 0.051530654)
(5.2243998 -0.0021934574 0.051493638)
(5.2280573 -0.0023092064 0.051271187)
(5.2315604 -0.0024136911 0.050892872)
(5.2349107 -0.002507908 0.050386273)
(5.2381118 -0.0025931256 0.049775165)
(5.2411689 -0.0026707932 0.049079731)
(5.2440885 -0.0027423143 0.048315353)
(5.2468777 -0.0028090317 0.0474938)
(5.2495436 -0.0028720636 0.046622922)
(5.2572722 -0.0025591106 0.045859149)
(5.2544499 -0.0024897924 0.046606352)
(5.2514998 -0.0024170845 0.047293551)
(5.2484145 -0.0023400443 0.047913029)
(5.2451866 -0.0022575162 0.048453431)
(5.2418096 -0.0021683002 0.048900233)
(5.2382778 -0.0020711936 0.049234569)
(5.2345875 -0.0019651917 0.049434653)
(5.2307367 -0.0018495479 0.049475518)
(5.2267272 -0.0017240383 0.049330924)
(5.2225641 -0.0015891409 0.0489746)
(5.2182574 -0.0014460698 0.048383153)
(5.2138222 -0.0012967872 0.047537244)
(5.2092793 -0.0011440292 0.04642471)
(5.2046552 -0.0009911393 0.045041913)
(5.1999819 -0.00084172269 0.043395189)
(5.1952957 -0.00069927413 0.041500767)
(5.1906368 -0.00056679656 0.039383504)
(5.1860479 -0.00044650425 0.037074576)
(5.1815721 -0.00033971928 0.034608791)
(5.1772526 -0.00024689696 0.032021376)
(5.1731304 -0.00016774765 0.029345885)
(5.1692441 -0.0001014138 0.026611951)
(5.1656289 -4.6598042e-05 0.023844267)
(5.1623165 -1.7271252e-06 0.021061887)
(5.1593363 3.4781355e-05 0.018279804)
(5.1567184 6.4014929e-05 0.015512577)
(5.1544942 8.6121782e-05 0.012781291)
(5.1526918 0.00010071892 0.010119914)
(5.1513216 0.0001084158 0.0075761961)
(5.150361 0.00011174897 0.0051969399)
(5.1523782 0.00020019382 0.0045554981)
(5.15337 0.00019936497 0.0066501296)
(5.1547864 0.00019687224 0.008897761)
(5.1566516 0.00018955975 0.011261385)
(5.1589551 0.00017665365 0.013702485)
(5.1616682 0.00015853444 0.01619406)
(5.1647585 0.00013503386 0.018720024)
(5.1681954 0.0001049708 0.021269612)
(5.1719488 6.6628155e-05 0.023831309)
(5.1759862 1.824664e-05 0.026389362)
(5.1802717 -4.1716982e-05 0.028922209)
(5.1847655 -0.00011445214 0.03140295)
(5.1894251 -0.00020067558 0.033800113)
(5.1942059 -0.00030042603 0.036079489)
(5.1990627 -0.00041294407 0.038206184)
(5.2039514 -0.00053658083 0.040147501)
(5.2088298 -0.00066886182 0.04187582)
(5.2136599 -0.00080674091 0.043370869)
(5.2184083 -0.00094692341 0.044621388)
(5.2230472 -0.0010862388 0.045625474)
(5.2275551 -0.0012219592 0.046389766)
(5.2319162 -0.0013520188 0.046928128)
(5.2361202 -0.001475004 0.047259046)
(5.2401617 -0.0015901288 0.047404333)
(5.2440392 -0.0016973561 0.047387069)
(5.2477544 -0.0017971498 0.047229362)
(5.2513113 -0.0018902116 0.046951132)
(5.2547155 -0.0019774871 0.046569839)
(5.2579736 -0.0020599712 0.046099295)
(5.261093 -0.0021386173 0.045550385)
(5.2640812 -0.002214161 0.044930712)
(5.2698764 -0.0018399025 0.04382806)
(5.2667133 -0.001758373 0.044317472)
(5.2634166 -0.001673988 0.044725294)
(5.2599791 -0.001586283 0.045044318)
(5.2563935 -0.0014945116 0.045264054)
(5.2526536 -0.0013978927 0.045371415)
(5.2487539 -0.0012957564 0.045350222)
(5.2446908 -0.0011877153 0.045182478)
(5.2404624 -0.0010736256 0.044849004)
(5.2360706 -0.00095376894 0.044329832)
(5.231521 -0.00082928715 0.043607814)
(5.2268244 -0.00070181511 0.042669595)
(5.221997 -0.00057354052 0.041506911)
(5.2170615 -0.00044718114 0.040118992)
(5.2120465 -0.00032572017 0.038513396)
(5.2069864 -0.00021211777 0.036706595)
(5.2019207 -0.00010893537 0.034722969)
(5.1968929 -1.8065232e-05 0.032593037)
(5.1919484 5.9465804e-05 0.030350904)
(5.1871336 0.00012349944 0.028031486)
(5.1824941 0.00017461142 0.025667757)
(5.1780734 0.0002139657 0.023288939)
(5.1739119 0.00024310489 0.020918954)
(5.1700459 0.0002638198 0.018576074)
(5.1665083 0.00027806397 0.016272538)
(5.1633295 0.00028768512 0.014016259)
(5.1605406 0.00029395684 0.011814032)
(5.1581743 0.0002970916 0.0096768224)
(5.15626 0.00029671678 0.0076244416)
(5.1548079 0.0002937541 0.0056859559)
(5.1537926 0.0002918605 0.0038886036)
(5.1545787 0.0003852185 0.0032064034)
(5.1556112 0.00039015286 0.004697109)
(5.1570885 0.00039883649 0.0063162067)
(5.1590378 0.0004072529 0.0080464656)
(5.1614491 0.00041435697 0.0098685922)
(5.1642929 0.00042051059 0.011770159)
(5.1675363 0.00042544923 0.013745405)
(5.1711482 0.00042781301 0.015791598)
(5.1750983 0.00042562524 0.0179045)
(5.1793538 0.00041675876 0.020075492)
(5.1838783 0.00039915628 0.022289778)
(5.1886313 0.00037090302 0.024526543)
(5.1935692 0.00033037707 0.026758944)
(5.1986457 0.0002764432 0.028955364)
(5.203814 0.00020863013 0.03108103)
(5.2090278 0.00012731483 0.033100494)
(5.214243 3.3754521e-05 0.034980372)
(5.2194192 -7.0013252e-05 0.036692044)
(5.224521 -0.00018138447 0.038213841)
(5.2295191 -0.00029756173 0.039532295)
(5.2343903 -0.00041584596 0.040642255)
(5.2391172 -0.00053392846 0.041546261)
(5.2436883 -0.00064995 0.042252608)
(5.2480975 -0.0007623775 0.042773496)
(5.2523434 -0.00087069249 0.043125864)
(5.256427 -0.00097467993 0.043325835)
(5.2603517 -0.0010744042 0.043389509)
(5.2641224 -0.0011702363 0.043331802)
(5.2677451 -0.0012627361 0.043165143)
(5.2712261 -0.0013524802 0.04289976)
(5.2745725 -0.001439553 0.042542074)
(5.2780974 -0.0010167649 0.041065548)
(5.2745616 -0.00092481487 0.041291388)
(5.2708905 -0.00083031862 0.041414717)
(5.2670775 -0.00073374702 0.041430471)
(5.263118 -0.00063460326 0.041328133)
(5.259007 -0.00053253947 0.041095835)
(5.2547403 -0.00042747813 0.040719906)
(5.2503153 -0.00031965453 0.040186353)
(5.2457318 -0.00020973979 0.0394816)
(5.2409914 -9.8563624e-05 0.038592748)
(5.2361002 1.2125281e-05 0.037512319)
(5.2310712 0.00012024147 0.036236981)
(5.2259224 0.00022332399 0.034769556)
(5.2206778 0.00031867387 0.033121139)
(5.2153674 0.00040367216 0.031311028)
(5.2100268 0.00047610459 0.029366168)
(5.2046968 0.00053448062 0.027319351)
(5.1994218 0.00057818011 0.02520678)
(5.194248 0.00060751833 0.023065179)
(5.1892224 0.00062360745 0.020929077)
(5.1843906 0.00062815412 0.018828594)
(5.1797962 0.00062319878 0.016788312)
(5.1754793 0.00061103382 0.014826275)
(5.1714756 0.00059403748 0.012953021)
(5.1678174 0.00057447313 0.011173619)
(5.1645345 0.00055441657 0.0094886422)
(5.1616574 0.00053529275 0.0078968481)
(5.1592189 0.00051738505 0.0063988388)
(5.1572484 0.00050029204 0.0049995918)
(5.1557562 0.00048509065 0.0037082494)
(5.154716 0.00047594858 0.0025303687)
(5.154266 0.00056743075 0.0018472433)
(5.1552867 0.00057918455 0.0027208319)
(5.1567686 0.00060022789 0.0036907173)
(5.1587361 0.00062577717 0.0047617344)
(5.161177 0.00065449652 0.0059355769)
(5.1640609 0.00068669262 0.0072156517)
(5.1673547 0.00072200003 0.0086072702)
(5.1710284 0.00075889915 0.010116103)
(5.1750525 0.00079519335 0.011745415)
(5.1793959 0.00082842472 0.013493793)
(5.1840235 0.00085604479 0.01535352)
(5.1888961 0.00087545202 0.017310016)
(5.1939713 0.00088409688 0.019341493)
(5.199204 0.00087970051 0.021419334)
(5.2045482 0.00086050396 0.023509278)
(5.209958 0.00082554448 0.025573291)
(5.2153895 0.00077480448 0.027572371)
(5.220802 0.00070925186 0.02946934)
(5.2261598 0.00063075251 0.031231968)
(5.2314326 0.00054179704 0.032834962)
(5.2365966 0.00044515507 0.034261367)
(5.241634 0.00034359719 0.035503027)
(5.2465325 0.00023922767 0.036560472)
(5.2512837 0.00013284584 0.037441975)
(5.2558833 2.6508956e-05 0.038149455)
(5.2603313 -7.8621417e-05 0.038694539)
(5.2646291 -0.00018199928 0.039089068)
(5.2687802 -0.00028341155 0.039345585)
(5.2727879 -0.00038293001 0.039476071)
(5.2766544 -0.00048087062 0.039491788)
(5.2803859 -0.00057649669 0.039397178)
(5.281371 -0.00012609831 0.037548174)
(5.2774339 -2.8336945e-05 0.037514093)
(5.2733686 6.8180303e-05 0.037379295)
(5.2691734 0.0001670609 0.037122188)
(5.2648433 0.00026822121 0.036730163)
(5.2603737 0.00037118213 0.036190404)
(5.2557612 0.0004752019 0.035491287)
(5.2510047 0.00057927205 0.034622679)
(5.246105 0.00068204705 0.033576279)
(5.2410679 0.00078183384 0.032346471)
(5.2359029 0.00087616383 0.030935048)
(5.2306235 0.00096236337 0.029350273)
(5.2252483 0.0010376755 0.027607273)
(5.2198022 0.0010994448 0.025729369)
(5.2143156 0.0011454859 0.023747403)
(5.2088242 0.0011743827 0.02169832)
(5.2033682 0.0011857541 0.019622732)
(5.1979905 0.0011802867 0.017561867)
(5.1927358 0.0011596348 0.015554365)
(5.1876487 0.0011262175 0.013633776)
(5.1827726 0.0010828692 0.011826811)
(5.1781485 0.0010325913 0.010152497)
(5.1738138 0.00097834859 0.008622011)
(5.1698022 0.00092294088 0.0072391816)
(5.1661437 0.00086897883 0.0060015776)
(5.1628665 0.00081878009 0.0049020862)
(5.16 0.00077397984 0.0039308499)
(5.1575768 0.00073508047 0.0030773525)
(5.1556267 0.00070194425 0.0023313068)
(5.154161 0.00067617214 0.0016829261)
(5.1531526 0.00066294007 0.0011203233)
(5.1514088 0.00075295801 0.00042019387)
(5.1523989 0.00076869311 0.00067057244)
(5.1538381 0.00079963633 0.00099539894)
(5.1557548 0.00084044127 0.0014154233)
(5.1581395 0.00088939982 0.001948568)
(5.1609633 0.00094654755 0.0026113448)
(5.1641952 0.001011272 0.0034187928)
(5.1678068 0.0010818491 0.0043843602)
(5.1717714 0.0011558699 0.0055185213)
(5.1760608 0.0012305886 0.0068271347)
(5.1806431 0.0013030013 0.008309736)
(5.185483 0.0013698405 0.0099583076)
(5.1905418 0.0014276907 0.011756443)
(5.1957783 0.0014732073 0.013679275)
(5.2011502 0.0015033759 0.015693905)
(5.2066147 0.0015159223 0.017761186)
(5.2121305 0.0015095442 0.019837918)
(5.2176587 0.001484076 0.021880286)
(5.2231643 0.0014405328 0.023847037)
(5.2286171 0.0013808634 0.025702509)
(5.2339919 0.0013076265 0.02741857)
(5.239269 0.001223607 0.028975519)
(5.2444337 0.0011315471 0.030361688)
(5.2494756 0.0010338541 0.031572833)
(5.2543882 0.00093254311 0.032610369)
(5.259168 0.00082922062 0.03347999)
(5.2638139 0.00072507084 0.034189809)
(5.2683265 0.00062092185 0.034749161)
(5.2727076 0.00051735366 0.035166787)
(5.2769608 0.00041481904 0.035450173)
(5.2810867 0.00031404834 0.035603703)
(5.2795038 0.00077794866 0.033332481)
(5.2751757 0.00087993843 0.033043439)
(5.2707269 0.00098205094 0.032627844)
(5.266157 0.0010842105 0.032077262)
(5.2614651 0.0011860172 0.031382643)
(5.2566513 0.0012868259 0.030534751)
(5.2517166 0.0013856286 0.029524918)
(5.2466636 0.0014810192 0.028346643)
(5.2414972 0.0015711491 0.026996604)
(5.2362255 0.0016537311 0.025476682)
(5.2308603 0.0017260836 0.023795165)
(5.2254174 0.0017853064 0.021968183)
(5.2199172 0.0018285858 0.02002025)
(5.2143849 0.0018534584 0.017984352)
(5.2088505 0.0018582252 0.015900637)
(5.2033478 0.0018422746 0.013814112)
(5.1979138 0.0018062761 0.011771311)
(5.1925879 0.0017520996 0.0098169832)
(5.1874101 0.0016825853 0.0079905135)
(5.1824199 0.0016012772 0.0063239637)
(5.1776556 0.0015119759 0.0048403472)
(5.173153 0.0014184593 0.0035535672)
(5.1689449 0.0013242583 0.0024686645)
(5.1650606 0.0012325554 0.0015829925)
(5.1615262 0.0011461983 0.0008876078)
(5.1583667 0.0010676664 0.00036906065)
(5.1556085 0.00099876254 1.0691441e-05)
(5.1532809 0.00094020185 -0.00020671351)
(5.1514112 0.00089205333 -0.0003057969)
(5.1500076 0.00085612616 -0.0003129942)
(5.1490417 0.00083796389 -0.00025863809)
(5.1460909 0.00091640343 -0.00090782458)
(5.1470237 0.00093676729 -0.0012544707)
(5.1483802 0.00097729518 -0.0015533002)
(5.1501882 0.0010322557 -0.0017647409)
(5.1524398 0.0010997253 -0.0018538841)
(5.15511 0.0011795247 -0.001791995)
(5.1581713 0.001270827 -0.0015558632)
(5.1615992 0.001371759 -0.0011258944)
(5.1653712 0.0014797911 -0.00048597962)
(5.1694637 0.0015920012 0.0003755424)
(5.17385 0.0017050668 0.0014640949)
(5.1785005 0.0018152449 0.0027773344)
(5.1833828 0.0019184555 0.004303694)
(5.1884622 0.0020105197 0.0060219458)
(5.1937024 0.0020874469 0.0079010549)
(5.1990666 0.0021459054 0.0099016507)
(5.2045183 0.0021835243 0.011977993)
(5.2100227 0.0021991733 0.014081429)
(5.2155474 0.0021930831 0.016163911)
(5.2210632 0.0021666973 0.018181534)
(5.226545 0.0021223331 0.020097197)
(5.2319717 0.0020627916 0.021882145)
(5.2373266 0.0019910574 0.023516302)
(5.2425963 0.0019099716 0.024987793)
(5.2477713 0.0018220298 0.026291749)
(5.2528447 0.0017293155 0.027428847)
(5.2578119 0.0016334624 0.028403679)
(5.2626698 0.0015356965 0.029223373)
(5.2674166 0.0014368722 0.029896157)
(5.2720511 0.0013375417 0.030430646)
(5.276572 0.0012380323 0.03083478)
(5.2723191 0.001684356 0.028144495)
(5.2676168 0.0017796959 0.027631454)
(5.2628101 0.0018743357 0.026986785)
(5.2579019 0.0019678693 0.026202636)
(5.2528952 0.0020596082 0.025270942)
(5.2477938 0.0021485399 0.024184332)
(5.2426028 0.0022332949 0.022937043)
(5.2373287 0.0023120563 0.021526312)
(5.2319802 0.0023825646 0.019953815)
(5.2265689 0.0024421728 0.018227414)
(5.2211093 0.002487933 0.016362167)
(5.2156195 0.0025168286 0.014381797)
(5.2101207 0.0025261287 0.012318616)
(5.2046381 0.002513688 0.010213208)
(5.1991995 0.002478329 0.0081124385)
(5.1938357 0.0024201804 0.006066678)
(5.1885788 0.0023407687 0.0041259834)
(5.1834622 0.0022428833 0.0023366069)
(5.1785188 0.0021302535 0.00073755091)
(5.173781 0.0020072197 -0.00064129519)
(5.1692797 0.0018782568 -0.0017804406)
(5.1650435 0.0017476766 -0.0026704731)
(5.1610984 0.0016193751 -0.0033114642)
(5.157468 0.0014967719 -0.0037112548)
(5.1541729 0.0013828392 -0.0038838882)
(5.1512335 0.0012801359 -0.0038477864)
(5.1486717 0.0011906017 -0.003625203)
(5.1465128 0.0011151814 -0.0032430706)
(5.1447803 0.0010541805 -0.0027359055)
(5.1434811 0.0010096394 -0.0021465631)
(5.1425887 0.00098742957 -0.0015230073)
(5.1385817 0.0010498865 -0.0020977767)
(5.1394268 0.0010735586 -0.0029802198)
(5.140659 0.0011214483 -0.0038415729)
(5.1423036 0.0011875863 -0.0046263737)
(5.1443543 0.0012698215 -0.0052845192)
(5.1467895 0.0013677053 -0.0057762438)
(5.1495862 0.0014801722 -0.006071235)
(5.1527248 0.001605234 -0.0061449618)
(5.1561878 0.0017403156 -0.0059770184)
(5.1599573 0.0018824254 -0.005551392)
(5.1640134 0.0020280988 -0.0048581425)
(5.1683336 0.0021733343 -0.0038951872)
(5.1728936 0.0023136796 -0.0026699542)
(5.1776666 0.0024444599 -0.0012002813)
(5.1826248 0.0025610865 0.00048522741)
(5.187739 0.002659539 0.0023482294)
(5.1929795 0.0027367071 0.0043425128)
(5.1983172 0.0027907302 0.0064173194)
(5.2037235 0.0028211661 0.0085207641)
(5.2091718 0.0028289205 0.010603859)
(5.2146377 0.0028159183 0.012623341)
(5.2200993 0.0027847882 0.01454392)
(5.2255379 0.00273851 0.016338905)
(5.2309375 0.0026800554 0.017990273)
(5.2362848 0.0026121648 0.01948758)
(5.2415692 0.0025371897 0.020826921)