/*--------------------------------*- C++ -*----------------------------------*\
| =========                 |                                                 |
| \\      /  F ield         | OpenFOAM: The Open Source CFD Toolbox           |
|  \\    /   O peration     | Version:  v2012                                 |
|   \\  /    A nd           | Website:  www.openfoam.com                      |
|    \\/     M anipulation  |                                                 |
\*---------------------------------------------------------------------------*/
FoamFile
{
    version     2.0;
    format      ascii;
    class       volScalarField;
    location    "206";
    object      nut;
}
// * * * * * * * * * * * * * * * * * * * * * * * * * * * * * * * * * * * * * //

dimensions      [0 2 -1 0 0 0 0];


internalField   nonuniform List<scalar> 
33454
(
0.0090157173
0.0090318031
0.0090475916
0.0090348735
0.0090179207
0.0090150431
0.0090585354
0.0090881673
0.0090835555
0.0090796974
0.0091015559
0.0091158952
0.009122898
0.0091261014
0.009125059
0.0091214698
0.0091154355
0.0091078944
0.009095376
0.009077068
0.0090325586
0.0089757581
0.0089200873
0.0088754379
0.0089532852
0.0092165704
0.009221719
0.0091793279
0.0091216
0.0090716594
0.0090880383
0.0090885551
0.0090447554
0.008997141
0.0089868275
0.00897314
0.0089525501
0.0089282643
0.008901222
0.0088707949
0.0088352
0.0087908815
0.0087135199
0.0086179205
0.0085262127
0.008449573
0.0085411697
0.0088675981
0.008869642
0.0088091661
0.0087239104
0.008641153
0.0086399065
0.0086260928
0.0085646553
0.0084953935
0.0084670137
0.0084392783
0.0084081544
0.0083720885
0.0083297889
0.0082805975
0.0082037781
0.0081122673
0.008100295
0.0082722246
0.0027319484
0.0010172318
0.0021746433
0.0052724057
0.0085709389
0.0086211016
0.0086454579
0.0086639537
0.0086812832
0.0086981477
0.0087143299
0.0087293259
0.0087429848
0.0087552249
0.008766106
0.0087756793
0.0087840118
0.0087911057
0.031807277
0.03183462
0.031861673
0.031888414
0.031914802
0.031940777
0.031966261
0.031991169
0.032015422
0.032038961
0.032061771
0.032083888
0.032105407
0.032126475
0.032147275
0.032168015
0.032441016
0.032420257
0.032400584
0.032381787
0.032363625
0.032345839
0.032328169
0.032310362
0.032292193
0.032273477
0.032254077
0.032233907
0.032212936
0.032191177
0.032168684
0.032145537
0.032121834
0.032097674
0.032073159
0.032048378
0.032023411
0.031998325
0.031973172
0.031947989
0.031922802
0.031897623
0.031872451
0.031894419
0.031919586
0.031944741
0.031969892
0.031995029
0.032020127
0.032045151
0.032070048
0.032094754
0.032119186
0.032143254
0.032166854
0.032189882
0.032212237
0.032233834
0.032254617
0.032274567
0.032293715
0.032312145
0.032329997
0.032347454
0.032364743
0.032382118
0.03239984
0.032418167
0.032437341
0.032457572
0.032494144
0.032475038
0.03245692
0.032439581
0.032422782
0.032406264
0.032389767
0.032373033
0.032355836
0.032337989
0.032319353
0.032299844
0.032279434
0.032258148
0.032236051
0.032213236
0.032189811
0.032165889
0.032141577
0.032116972
0.032092156
0.032067195
0.032042139
0.032017026
0.031991875
0.031966694
0.031941474
0.032015276
0.032040948
0.03206652
0.032092005
0.0321174
0.032142687
0.032167834
0.032192791
0.032217492
0.032241851
0.032265766
0.032289123
0.032311797
0.032333669
0.032354631
0.032374605
0.03239356
0.032411517
0.03242856
0.032444831
0.03246052
0.032475856
0.032491098
0.032506508
0.032522342
0.032538835
0.032556193
0.032650148
0.032635018
0.032620542
0.032606526
0.03259274
0.032578938
0.032564859
0.032550241
0.032534852
0.032518497
0.032501028
0.032482362
0.03246248
0.032441428
0.032419301
0.032396225
0.032372341
0.032347785
0.032322686
0.032297152
0.032271272
0.032245114
0.032218724
0.032192134
0.032165356
0.032138391
0.032111219
0.032211475
0.032242324
0.032272808
0.032302949
0.032332749
0.032362198
0.032391268
0.032419912
0.032448058
0.032475614
0.032502459
0.03252845
0.032553427
0.032577225
0.032599688
0.032620695
0.032640185
0.032658173
0.032674749
0.03269007
0.03270434
0.032717796
0.032730697
0.032743299
0.032755833
0.03276851
0.032781505
0.032948917
0.03293653
0.032923972
0.032911109
0.032897769
0.032883749
0.032868811
0.032852701
0.032835176
0.032816014
0.032795037
0.03277214
0.032747299
0.032720591
0.032692173
0.032662244
0.032631008
0.032598655
0.032565355
0.032531246
0.032496432
0.032460992
0.032424981
0.03238843
0.032351353
0.032313752
0.032275608
0.032228713
0.032279147
0.03232891
0.032378007
0.032426422
0.032474129
0.032521082
0.032567213
0.032612418
0.032656569
0.032699499
0.032741
0.032780833
0.032818739
0.032854459
0.032887785
0.032918636
0.032947074
0.032973254
0.032997405
0.03301979
0.033040667
0.033060285
0.033078853
0.033096523
0.033113404
0.033129551
0.033247182
0.033218665
0.033189154
0.033158699
0.03312727
0.033094761
0.033060981
0.033025661
0.032988473
0.032949051
0.032907039
0.032862161
0.032814237
0.032763318
0.032709682
0.032653677
0.032595636
0.032535862
0.032474622
0.032412133
0.03234857
0.03228407
0.032218738
0.032152655
0.032085876
0.032018446
0.031950387
0.031268834
0.031358045
0.031446932
0.031535428
0.031623445
0.031710877
0.031797585
0.031883398
0.031968109
0.032051477
0.032133208
0.032212957
0.032290347
0.032364957
0.03243631
0.032504012
0.032568075
0.032628923
0.032687063
0.032743129
0.032797748
0.03285146
0.032904656
0.032957611
0.033010498
0.033063379
0.033116185
0.032377319
0.03229295
0.03221167
0.032133177
0.032056929
0.03198229
0.031908644
0.031835331
0.031761327
0.031685384
0.031606363
0.031523533
0.031436199
0.031344394
0.031248824
0.031150181
0.031048941
0.030945531
0.030840351
0.030733781
0.030626167
0.030517826
0.030409035
0.030300025
0.030190982
0.030082058
0.029973362
0.02785918
0.027977281
0.028096143
0.028215634
0.028335527
0.028455554
0.028575374
0.028694607
0.028812802
0.028929522
0.029044368
0.02915701
0.029267172
0.029374502
0.029478049
0.02957624
0.029668149
0.029753993
0.029834014
0.029910171
0.029985283
0.030061213
0.03013863
0.03021875
0.03030368
0.030395572
0.030495836
0.027097722
0.027011436
0.026941589
0.026885069
0.026841195
0.026806931
0.026776332
0.026743247
0.026705558
0.026666166
0.026622707
0.026567055
0.026494989
0.026407882
0.026311613
0.026211939
0.026111509
0.026010676
0.025908667
0.025804967
0.025699409
0.025592159
0.025483538
0.025374026
0.025264069
0.025154124
0.025044512
0.024935533
0.02482738
0.021032477
0.02110866
0.021184577
0.021260019
0.021334514
0.021407599
0.021478705
0.021547298
0.021612946
0.021675426
0.021735043
0.021792644
0.021849689
0.021908736
0.021972394
0.022070243
0.022186022
0.022232921
0.02223186
0.022200895
0.022164863
0.022118286
0.02204467
0.021949312
0.021849028
0.021754923
0.0216627
0.02156054
0.021447458
0.012661319
0.015315919
0.01549483
0.015752096
0.015986489
0.016163723
0.016328653
0.016551523
0.01679291
0.016992011
0.017107122
0.017164192
0.017334185
0.017464265
0.0174039
0.017228409
0.017193622
0.01720024
0.017212455
0.017222675
0.017227637
0.01722693
0.017220363
0.01720796
0.017189922
0.017166905
0.017139579
0.017108763
0.017075031
0.017038966
0.017001026
0.013443926
0.013468867
0.013492963
0.013516227
0.013538229
0.013558732
0.01357742
0.013594177
0.013609137
0.01362255
0.013635311
0.01364786
0.013658265
0.013664636
0.013683431
0.013739516
0.013964992
0.014100232
0.014078396
0.012820328
0.012359999
0.012843863
0.012730673
0.013016135
0.012773966
0.012805436
0.011256801
0.011204953
0.010053537
0.0043509788
0.0018712046
0.0032696741
0.0063182613
0.0075014478
0.0080854843
0.0079295562
0.0082601166
0.0083483235
0.0084516627
0.0085041679
0.00854871
0.0085823131
0.0086084533
0.0086120559
0.0085580078
0.0086544939
0.0088964175
0.0088527092
0.0088386479
0.0086887144
0.0086800774
0.0087644021
0.0089377729
0.0097340956
0.0096267929
0.0095505722
0.0090100805
0.0085978961
0.0084864477
0.0085823384
0.0086254946
0.0087231778
0.008940869
0.0089846292
0.0090332317
0.0090666869
0.0090913524
0.0091135363
0.0091287907
0.0091397439
0.0091305683
0.0090720548
0.0091494966
0.0093614335
0.0093002343
0.009273827
0.0091267243
0.0090985949
0.0091579799
0.0093354038
0.010036394
0.0098545657
0.0097894974
0.009337767
0.0090100583
0.0089168674
0.0089807372
0.0090018025
0.0090679609
0.0092445597
0.0092585168
0.0092826297
0.0092934029
0.0092962312
0.0092971281
0.0092934663
0.0092889423
0.0092782903
0.0092649915
0.009236517
0.0091707776
0.0092107854
0.0093714004
0.0092743055
0.0092215334
0.0090692363
0.0090223572
0.0090429312
0.0091983383
0.0098961219
0.0096744448
0.0096776105
0.0096658063
0.032000575
0.031971215
0.031942067
0.03191309
0.03188424
0.031855483
0.031826789
0.031798134
0.031769503
0.031740885
0.031712278
0.031683682
0.0316551
0.03162654
0.031598007
0.031569505
0.031541035
0.031734522
0.031741593
0.031748672
0.031755895
0.031763342
0.031771043
0.031778988
0.031787105
0.031795322
0.031803541
0.031811645
0.031819525
0.031827074
0.031834225
0.031840931
0.031847222
0.031853131
0.031858651
0.031863636
0.031867771
0.031870746
0.031895951
0.031893003
0.031888894
0.031883938
0.03187845
0.031872574
0.031866317
0.031859642
0.031852528
0.031845015
0.031837176
0.031829111
0.031820935
0.03181276
0.03180468
0.031796771
0.031789097
0.03178167
0.031774456
0.031767377
0.031760294
0.031752962
0.03174508
0.031736285
0.031726191
0.03171443
0.031700761
0.031685081
0.031578197
0.031595634
0.031614537
0.031634396
0.031654602
0.031674485
0.031693416
0.031710862
0.031726477
0.031740116
0.031751872
0.031761981
0.031770801
0.031778707
0.031786059
0.031793157
0.031800238
0.031807445
0.031814853
0.031822501
0.031830375
0.031838419
0.031846554
0.031854687
0.031862714
0.031870515
0.031877991
0.031885069
0.031891713
0.031897938
0.031903779
0.031909233
0.031914156
0.031918236
0.031921158
0.031946369
0.031943475
0.031939428
0.03193454
0.031929121
0.031923313
0.03191712
0.031910509
0.031903466
0.031896027
0.031888265
0.031880278
0.031872184
0.031864089
0.031856081
0.031848239
0.031840616
0.031833223
0.031826024
0.031818939
0.031811824
0.03180445
0.03179652
0.031787681
0.03177756
0.031765816
0.031752214
0.03173667
0.031719333
0.031700549
0.031680853
0.031660871
0.031641268
0.03162264
0.031605483
0.031590146
0.031576853
0.031565716
0.031556772
0.031549985
0.031545239
0.03154234
0.0315708
0.031573656
0.031578323
0.031584989
0.031593772
0.031604707
0.031617764
0.031632835
0.031649715
0.031668066
0.031687409
0.031707159
0.031726659
0.031745286
0.031762506
0.03177797
0.031791528
0.031803254
0.03181338
0.031822234
0.031830184
0.031837581
0.031844712
0.031851801
0.031858996
0.031866376
0.031873975
0.031881787
0.031889759
0.031897816
0.031905871
0.031913818
0.031921543
0.031928945
0.031935952
0.031942531
0.031948691
0.031954465
0.031959847
0.031964698
0.03196871
0.031971574
0.031996749
0.031993916
0.031989942
0.031985131
0.031979786
0.031974047
0.031967921
0.031961375
0.031954404
0.031947039
0.031939352
0.031931444
0.031923428
0.031915407
0.031907468
0.031899685
0.031892106
0.031884739
0.031877547
0.031870452
0.031863306
0.031855889
0.031847922
0.031839057
0.031828935
0.031817235
0.031803733
0.031788361
0.03177127
0.031752813
0.031733519
0.031714011
0.031694932
0.03167686
0.031660256
0.031645444
0.031632619
0.031621879
0.031613251
0.031606698
0.031602107
0.031599291
0.031627812
0.03163059
0.031635111
0.031641554
0.031650032
0.031660584
0.031673184
0.031687741
0.031704069
0.031721859
0.031740665
0.031759921
0.031778994
0.031797267
0.031814212
0.031829476
0.031842909
0.03185457
0.031864678
0.031873547
0.031881528
0.031888961
0.031896121
0.031903224
0.031910413
0.031917771
0.031925331
0.031933088
0.031940995
0.031948981
0.031956959
0.031964829
0.031972478
0.031979806
0.031986742
0.031993253
0.031999345
0.032005048
0.032010353
0.032015122
0.032019055
0.032021856
0.032046843
0.032044077
0.032040188
0.032035463
0.032030198
0.032024533
0.032018476
0.032012001
0.032005101
0.031997809
0.031990199
0.031982367
0.031974426
0.031966473
0.031958596
0.031950863
0.031943318
0.031935968
0.03192878
0.031921669
0.031914496
0.031907051
0.031899062
0.031890198
0.031880116
0.031868509
0.031855164
0.031840027
0.031823248
0.03180518
0.031786345
0.031767355
0.031748832
0.031731328
0.031715277
0.031700973
0.031688595
0.031678227
0.031669893
0.031663554
0.031659101
0.03165636
0.031684928
0.031687634
0.031692021
0.031698259
0.031706452
0.03171664
0.0317288
0.03174285
0.031758622
0.03177583
0.031794056
0.031812762
0.031831337
0.031849175
0.031865764
0.03188075
0.031893985
0.031905518
0.03191556
0.031924408
0.031932398
0.031939851
0.031947035
0.031954152
0.031961342
0.031968686
0.031976218
0.031983928
0.031991778
0.031999698
0.032007604
0.032015397
0.03202297
0.032030224
0.032037087
0.032043526
0.032049546
0.032055172
0.032060394
0.032065072
0.032068916
0.032071645
0.032096183
0.032093493
0.032089698
0.032085068
0.032079891
0.032074306
0.032068324
0.032061924
0.032055098
0.032047882
0.032040348
0.032032592
0.032024721
0.032016832
0.03200901
0.032001319
0.031993799
0.03198646
0.031979268
0.031972144
0.031964954
0.031957498
0.031949517
0.031940698
0.031930716
0.031919278
0.03190618
0.031891374
0.031875007
0.031857428
0.031839141
0.031820743
0.031802831
0.03178593
0.031770444
0.031756649
0.031744707
0.031734698
0.031726643
0.031720504
0.031716181
0.031713511
0.031742104
0.03174474
0.031749
0.031755039
0.031762956
0.031772786
0.031784507
0.031798042
0.031813231
0.031829809
0.031847384
0.031865446
0.031883411
0.031900695
0.031916802
0.031931393
0.031944321
0.031955638
0.031965539
0.031974313
0.031982274
0.031989725
0.031996917
0.032004046
0.03201124
0.032018576
0.032026084
0.032033755
0.032041552
0.03204941
0.032057246
0.032064964
0.032072459
0.032079635
0.032086421
0.032092782
0.032098723
0.032104266
0.032109395
0.032113973
0.032117718
0.032120365
0.032144094
0.032141491
0.032137801
0.032133277
0.032128198
0.0321227
0.032116803
0.032110484
0.03210374
0.032096605
0.032089151
0.032081473
0.032073672
0.032065846
0.032058075
0.032050423
0.032042926
0.032035595
0.032028401
0.032021272
0.032014082
0.032006645
0.031998718
0.03199001
0.031980215
0.031969051
0.031956328
0.031941995
0.031926191
0.031909246
0.031891643
0.031873952
0.031856742
0.031840507
0.031825629
0.031812364
0.031800868
0.03179122
0.031783443
0.031777503
0.031773308
0.031770708
0.031799324
0.031801889
0.031806018
0.031811855
0.031819488
0.031828949
0.031840211
0.031853194
0.031867744
0.03188361
0.031900422
0.031917701
0.031934895
0.031951451
0.031966902
0.031980931
0.031993405
0.032004379
0.03201404
0.03202266
0.032030535
0.032037946
0.032045125
0.03205225
0.032059441
0.032066765
0.032074248
0.03208188
0.032089623
0.032097416
0.032105179
0.032112816
0.032120226
0.032127317
0.032134015
0.032140288
0.032146139
0.032151588
0.032156614
0.032161079
0.032164712
0.032167267
0.032189789
0.032187285
0.032183714
0.03217931
0.032174342
0.032168946
0.032163147
0.032156924
0.032150275
0.032143233
0.03213587
0.032128278
0.032120558
0.032112802
0.03210509
0.032097482
0.032090016
0.032082704
0.032075522
0.032068409
0.032061252
0.032053882
0.032046077
0.032037571
0.032028078
0.032017335
0.032005156
0.031991485
0.031976444
0.031960332
0.031943599
0.031926779
0.031910402
0.031894935
0.031880735
0.031868049
0.031857031
0.031847765
0.031840281
0.031834551
0.03183049
0.031827964
0.031856641
0.031859127
0.031863116
0.031868734
0.031876062
0.031885123
0.031895884
0.031908255
0.031922081
0.031937118
0.031953017
0.03196933
0.031985545
0.032001152
0.032015723
0.032028979
0.032040811
0.03205128
0.032060569
0.032068932
0.032076643
0.032083955
0.032091077
0.032098168
0.032105332
0.032112625
0.032120067
0.032127645
0.03213532
0.032143033
0.032150706
0.032158247
0.032165556
0.032172543
0.032179137
0.032185303
0.032191046
0.032196382
0.032201288
0.032205625
0.03220913
0.03221158
0.032232585
0.032230195
0.03222676
0.032222497
0.032217659
0.032212388
0.03220671
0.032200608
0.032194078
0.032187154
0.032179905
0.032172424
0.032164807
0.032157145
0.032149516
0.032141978
0.032134569
0.032127305
0.032120171
0.032113117
0.032106046
0.032098813
0.032091221
0.032083032
0.032073984
0.032063836
0.032052404
0.032039622
0.032025582
0.032010543
0.031994904
0.031979149
0.031963769
0.031949196
0.031935769
0.031923733
0.031913244
0.031904398
0.031897235
0.031891735
0.031887824
0.031885381
0.031914211
0.031916607
0.031920437
0.031925812
0.031932801
0.03194142
0.031951622
0.031963305
0.031976306
0.031990384
0.032005204
0.03202035
0.032035357
0.03204977
0.032063218
0.032075468
0.032086447
0.03209623
0.032104996
0.032112979
0.032120425
0.032127557
0.032134557
0.032141559
0.032148647
0.032155868
0.03216323
0.032170717
0.032178289
0.032185888
0.032193438
0.032200848
0.032208025
0.032214875
0.032221332
0.032227361
0.032232965
0.032238162
0.032242923
0.032247108
0.032250465
0.032252792
0.032272232
0.032269973
0.0322667
0.032262602
0.032257926
0.032252814
0.032247294
0.032241351
0.03223498
0.032228215
0.032221125
0.032213799
0.032206331
0.03219881
0.032191311
0.032183891
0.032176591
0.032169431
0.032162406
0.032155478
0.032148571
0.032141564
0.032134291
0.032126547
0.0321181
0.032108726
0.032098248
0.032086582
0.032073782
0.03206005
0.032045725
0.03203123
0.032017005
0.032003453
0.031990898
0.031979585
0.031969684
0.031961305
0.031954499
0.031949257
0.031945515
0.031943168
0.031972292
0.031974587
0.031978237
0.031983338
0.031989951
0.03199808
0.032007668
0.032018596
0.032030686
0.032043691
0.032057291
0.032071101
0.032084705
0.032097713
0.032109822
0.032120859
0.032130796
0.032139724
0.03214782
0.032155296
0.032162367
0.032169222
0.032176013
0.032182846
0.032189786
0.032196864
0.03220408
0.032211413
0.032218821
0.032226246
0.032233613
0.032240838
0.032247826
0.032254489
0.032260758
0.032266602
0.032272024
0.03227704
0.032281622
0.032285624
0.032288806
0.032290991
0.032309207
0.032307103
0.03230402
0.032300122
0.032295648
0.032290741
0.032285432
0.032279704
0.032273553
0.03226701
0.032260144
0.032253041
0.032245794
0.032238488
0.032231194
0.03222397
0.032216859
0.032209886
0.032203055
0.032196342
0.032189693
0.032183014
0.03217617
0.032168989
0.032161274
0.03215282
0.032143454
0.032133075
0.032121688
0.032109433
0.032096575
0.032083472
0.032070512
0.032058066
0.032046453
0.03203592
0.032026655
0.032018784
0.032012372
0.032007418
0.032003866
0.032001628
0.032064392
0.032074525
0.032085661
0.032097545
0.032109863
0.032122256
0.032134361
0.032145854
0.032156507
0.032166215
0.032174993
0.032182955
0.032190272
0.032197136
0.03220373
0.032210209
0.032216691
0.032223258
0.032229954
0.032236795
0.032243774
0.032250862
0.032258017
0.032265181
0.032272283
0.032279241
0.032285963
0.032292364
0.032298378
0.032303972
0.032309152
0.032313934
0.032318288
0.03232207
0.032325047
0.032327065
0.03234479
0.032342863
0.032340001
0.032336346
0.032332125
0.032327484
0.032322452
0.032317013
0.032311158
0.032304921
0.032298367
0.03229158
0.032284648
0.032277654
0.032270665
0.03226374
0.032256922
0.03225024
0.032243707
0.032264659
0.032271003
0.032277499
0.032284129
0.032290863
0.032297657
0.032304454
0.032311189
0.03231778
0.032324142
0.032330191
0.032335863
0.032341128
0.032345993
0.032350476
0.032354547
0.032358065
0.032360804
0.032362634
0.032380857
0.032379127
0.032376519
0.032373151
0.032369242
0.032364935
0.032360256
0.032355187
0.032349718
0.03234388
0.032337736
0.032331367
0.032324858
0.032318284
0.032311713
0.032305197
0.032298783
0.032292501
0.03228637
0.03232101
0.032327185
0.032333456
0.03233978
0.032346104
0.032352364
0.032358487
0.03236439
0.032369993
0.032375236
0.032380091
0.032384565
0.032388681
0.032392412
0.03239562
0.03239809
0.032399716
0.032419453
0.032417935
0.032415608
0.03241257
0.032409028
0.032405119
0.032400865
0.032396243
0.032391243
0.032385894
0.032380253
0.032374398
0.032368408
0.032362354
0.032356299
0.032350292
0.032344376
0.032369017
0.032374663
0.032380393
0.032386166
0.032391935
0.03239764
0.032403212
0.032408576
0.032413658
0.032418399
0.032422775
0.032426796
0.032430487
0.032433829
0.032436691
0.03243887
0.032440278
0.03245687
0.032436575
0.032417339
0.032398952
0.032381173
0.032363743
0.032346403
0.032328899
0.032311003
0.032292533
0.032273347
0.032253361
0.032232546
0.032210918
0.032188535
0.032165482
0.032141859
0.032117769
0.032093316
0.032068592
0.032043676
0.032018635
0.031993519
0.031968365
0.031943195
0.031918019
0.031892831
0.0090210812
0.0090259857
0.0090305264
0.0090346586
0.0090386975
0.0090425644
0.0090464797
0.009050347
0.0090543795
0.0090588599
0.0090630767
0.0090651312
0.0090591601
0.0090265902
0.0045307024
0.002379792
0.0014262311
0.0070841001
0.0094046287
0.0094236542
0.0094596442
0.0094971442
0.0095333587
0.0095664381
0.0095976564
0.009623974
0.0096437978
0.0096538973
0.0097470052
0.0098057254
0.0098491359
0.0098839329
0.0099064088
0.0099403681
0.0099871282
0.010036007
0.010113107
0.010183243
0.010301322
0.010396318
0.010550651
0.010665851
0.010840174
0.01097218
0.01116526
0.011307544
0.011500086
0.011649662
0.011852942
0.012007263
0.012202377
0.01235926
0.012564262
0.012726631
0.012926858
0.013094979
0.013306553
0.013479882
0.013684518
0.013859638
0.014069023
0.01424397
0.014440069
0.014596563
0.014696777
0.014838897
0.0149945
0.015184441
0.015330871
0.015511169
0.015648216
0.015813098
0.015941396
0.016099916
0.016221115
0.01636715
0.016481364
0.016621684
0.016728945
0.016855395
0.016951338
0.017063734
0.017146304
0.017241158
0.017308716
0.017380845
0.017428182
0.017479948
0.017511961
0.017544894
0.017560561
0.017574225
0.017575773
0.017576102
0.017570108
0.017565458
0.017562714
0.017569338
0.017581534
0.017602018
0.017607394
0.017598967
0.017579904
0.017551458
0.017524738
0.017498712
0.017479844
0.0174665
0.017461381
0.017463789
0.01746918
0.017477393
0.017484466
0.017491724
0.017496847
0.017493881
0.017482483
0.017451244
0.017411545
0.017336625
0.017255599
0.017121895
0.016989377
0.016790074
0.016600212
0.016327234
0.016087159
0.015766438
0.015485362
0.015112358
0.014798255
0.014398418
0.014040218
0.013569848
0.013155435
0.012629572
0.012146629
0.011754908
0.011674657
0.01153852
0.011571215
0.012041085
0.01254031
0.013059809
0.013496746
0.013956048
0.014332901
0.014723805
0.015054386
0.015414837
0.015707848
0.016016331
0.016266644
0.016527243
0.016722668
0.01691205
0.017049211
0.01717759
0.017262662
0.017333755
0.017372837
0.017399968
0.017411917
0.017415352
0.017411891
0.017402527
0.017393358
0.017383819
0.017378221
0.01737502
0.017380318
0.017391982
0.017410536
0.017434121
0.017461034
0.017487187
0.017506439
0.017513756
0.017509737
0.017493086
0.01748214
0.017475179
0.017477991
0.017482163
0.017488578
0.017488679
0.017487892
0.017475864
0.017460793
0.017430589
0.017399077
0.017351178
0.017302365
0.017232903
0.017165511
0.017078091
0.016992744
0.016883821
0.016784946
0.016665275
0.016555685
0.016422561
0.016305061
0.016166267
0.016041353
0.015890494
0.015757877
0.015600569
0.015458368
0.015284265
0.015128587
0.014939711
0.014763579
0.014739464
0.014571955
0.014406637
0.014215736
0.014037791
0.013833448
0.013654838
0.013455694
0.013279301
0.013075395
0.012905859
0.012712352
0.012545103
0.012347629
0.01218834
0.012000168
0.011841656
0.011645446
0.011491159
0.011305823
0.011158664
0.010973167
0.01083636
0.0106695
0.010549961
0.010402399
0.010303635
0.010190529
0.010117439
0.010042384
0.0099910487
0.0099439011
0.0099081482
0.0098835105
0.0098469148
0.0098012945
0.0097389389
0.0097234803
0.0097018387
0.0096757487
0.009648929
0.0096198759
0.0095896946
0.0095620277
0.0095472341
0.0066295193
0.0096559364
0.0096605261
0.0096798582
0.0097028355
0.0097261392
0.0097488388
0.0097708818
0.0097893881
0.0098377352
0.0098236584
0.009806445
0.0097891653
0.0097712333
0.0097532505
0.0097391838
0.0097383285
0.0064589442
0.0097848877
0.0097892
0.0098050348
0.0098191172
0.0098335217
0.0098485316
0.0098638455
0.0098764555
0.009904114
0.0098954492
0.0098838411
0.0098725727
0.0098609437
0.0098461809
0.0095985805
0.0098590254
0.0096704116
0.0099745936
0.010046868
0.0099548492
0.0097733121
0.0098452259
0.010081173
0.01059317
0.010737016
0.010882762
0.011041578
0.010807868
0.01056952
0.010556883
0.010769506
0.011831664
0.01198928
0.012149469
0.012326277
0.012493882
0.011685635
0.010375913
0.00988904
0.0098831274
0.010158726
0.010402295
0.010728097
0.011187614
0.011975713
0.012580811
0.013614675
0.013535406
0.012143179
0.011689343
0.01173327
0.012068853
0.012463889
0.012690855
0.012814685
0.012980419
0.013139872
0.013273612
0.013370377
0.013401801
0.013256709
0.013802768
0.015096719
0.016264528
0.016516168
0.016566822
0.016623754
0.016673183
0.016232772
0.015938093
0.0155997
0.015467479
0.015377322
0.015602663
0.016162419
0.01651577
0.016648695
0.01676875
0.016815122
0.016498797
0.015999302
0.015942562
0.016411712
0.01680183
0.016786144
0.016762601
0.016749397
0.016734066
0.016732146
0.016731184
0.016574362
0.016439808
0.016134322
0.015120363
0.014553931
0.016600871
0.016799081
0.016786683
0.016767877
0.016723411
0.016663138
0.016576591
0.016468974
0.01632949
0.016163424
0.015965482
0.015739643
0.01548244
0.015200881
0.014892276
0.014560181
0.014200202
0.013818716
0.013400891
0.01295012
0.012456483
0.011935259
0.011402851
0.010942146
0.010761189
0.010579519
0.01065396
0.01128078
0.011848248
0.012378427
0.012876222
0.013331005
0.013748991
0.014130382
0.014488905
0.01482117
0.015125303
0.015404676
0.015658219
0.015883531
0.016081116
0.014688173
0.014202493
0.015345626
0.016512405
0.01639966
0.016238806
0.015227869
0.013680206
0.013241701
0.013313634
0.013267156
0.013356074
0.013513072
0.013744272
0.014002821
0.014147453
0.014039738
0.013848111
0.013524052
0.012904166
0.013040268
0.01398646
0.01450415
0.014581531
0.014357535
0.013721501
0.013604424
0.013797921
0.013664096
0.013685869
0.013634624
0.013193371
0.01294946
0.013202325
0.013212433
0.012662807
0.014496303
0.016503279
0.016444541
0.016399347
0.013881093
0.012533348
0.01202744
0.011952888
0.012023309
0.012151508
0.012247937
0.012040292
0.011600928
0.010992605
0.010198725
0.0096386921
0.0093804172
0.0092374134
0.0091687669
0.0094028829
0.010971583
0.010734817
0.0091171095
0.0085615756
0.0080007128
0.0076696967
0.0073242931
0.0072147318
0.0073221847
0.00750907
0.0073645163
0.0068542863
0.0077867582
0.0099873827
0.011527522
0.0097285075
0.0081717618
0.008675755
0.0090899519
0.0091202171
0.0091326531
0.0091046266
0.0090905499
0.0087695352
0.0084309565
0.0083743947
0.0089525478
0.0096289372
0.010109295
0.010025476
0.0099523682
0.0098631656
0.0091903483
0.0084516111
0.0097767134
0.0097565373
0.0076635282
0.0086069639
0.0094426459
0.009813338
0.0065864133
0.0014937513
0.0015297802
0.0014743677
0.0026000108
0.0048515393
0.0026127935
0.0026510897
0.0049664524
0.002709471
0.0014590865
0.0061893665
0.008691542
0.0094882722
0.0097380708
0.0089111422
0.0099304065
0.0098764752
0.00894083
0.0095327739
0.0088176651
0.0086458564
0.0086504504
0.0084717085
0.008601189
0.008438324
0.009226294
0.0092565573
0.0093016602
0.0093475591
0.0093915995
0.0094312278
0.0094692991
0.0095008621
0.0095251624
0.0095400299
0.009585243
0.0096192839
0.0096342578
0.0096748325
0.0097150199
0.0098332013
0.0098551022
0.0099033804
0.0099170541
0.0099389346
0.0099525645
0.010013608
0.010032865
0.010141817
0.010168699
0.010339003
0.01037522
0.010599847
0.010644384
0.010899155
0.010951327
0.011234969
0.011292967
0.011578204
0.011641008
0.011944025
0.012010574
0.012303626
0.012372692
0.012681406
0.012755496
0.013056759
0.013133793
0.013451366
0.013533103
0.013839188
0.013923314
0.014235657
0.014320912
0.014615127
0.014700439
0.014987403
0.015069718
0.015332136
0.015410241
0.015663148
0.015736968
0.015969095
0.016039071
0.016263911
0.016330689
0.016538411
0.01660201
0.016802683
0.016863022
0.017044289
0.017099386
0.017263748
0.017311287
0.017445646
0.017483352
0.017592647
0.017621891
0.017697348
0.017715009
0.01776449
0.017774023
0.017796174
0.017797344
0.017798213
0.017793711
0.017783598
0.017781349
0.017788105
0.017798106
0.017844743
0.017850486
0.017833064
0.017819817
0.017772015
0.017755579
0.017716341
0.017704793
0.017680992
0.017678233
0.017677915
0.017680875
0.017686269
0.017692292
0.017699167
0.017701481
0.017689404
0.017684889
0.017640687
0.017621179
0.017514657
0.017471187
0.017284559
0.017213155
0.01693365
0.016830416
0.016448428
0.016319535
0.015876393
0.015726283
0.015219534
0.015055081
0.014536418
0.014344571
0.013746522
0.013501315
0.01326251
0.012827899
0.012782837
0.013363927
0.013699605
0.014222823
0.014507341
0.014957007
0.015202707
0.015635441
0.015859438
0.016235351
0.016426353
0.016748898
0.016901681
0.017137557
0.017243817
0.017402312
0.017467104
0.017556728
0.017587329
0.017625602
0.017634299
0.017643941
0.017640245
0.01763363
0.017625745
0.017619965
0.01761563
0.017615674
0.01762003
0.017638992
0.017654823
0.017687052
0.017709601
0.017747648
0.017764481
0.017777171
0.017770154
0.017737515
0.017724759
0.017718417
0.017720393
0.01772732
0.017732072
0.017731181
0.017729155
0.017711798
0.017698717
0.01765875
0.017632288
0.017569069
0.017526624
0.017434858
0.017380098
0.017268783
0.017200311
0.017063333
0.016983775
0.016832185
0.016744718
0.0165764
0.016482982
0.016308042
0.01620968
0.016020172
0.015916927
0.015720898
0.0156114
0.01539753
0.015281682
0.015059205
0.014935289
0.01469186
0.01456277
0.014313179
0.014184634
0.013919054
0.013791181
0.013531118
0.013406065
0.013135994
0.013016449
0.012759995
0.012645878
0.012381405
0.012271056
0.0120197
0.011914154
0.011652776
0.011551709
0.011305117
0.011211004
0.010964299
0.010878714
0.010656438
0.01058274
0.010386042
0.010325848
0.010176488
0.010132053
0.010036521
0.010005181
0.0099512393
0.0099296092
0.0099099726
0.0098882982
0.0098443021
0.0098086593
0.0097030528
0.0097086996
0.0096908763
0.0097832394
0.0098057324
0.0098504691
0.0098364224
0.0098775288
0.0098921744
0.0099188992
0.0099089738
0.0099287261
0.0099377204
0.0099644327
0.0099598791
0.010006634
0.010014025
0.010053297
0.010052392
0.010131801
0.010139356
0.010195427
0.010197383
0.010320326
0.010329726
0.010406012
0.010409496
0.010570843
0.010582813
0.010676059
0.010679233
0.010861546
0.010875797
0.010983543
0.010986161
0.011188608
0.011205446
0.011323005
0.011323808
0.011525814
0.011544136
0.011669215
0.011668617
0.011881887