/*--------------------------------*- C++ -*----------------------------------*\
| =========                 |                                                 |
| \\      /  F ield         | OpenFOAM: The Open Source CFD Toolbox           |
|  \\    /   O peration     | Version:  v2012                                 |
|   \\  /    A nd           | Website:  www.openfoam.com                      |
|    \\/     M anipulation  |                                                 |
\*---------------------------------------------------------------------------*/
FoamFile
{
    version     2.0;
    format      ascii;
    class       volScalarField;
    location    "206";
    object      omega;
}
// * * * * * * * * * * * * * * * * * * * * * * * * * * * * * * * * * * * * * //

dimensions      [0 0 -1 0 0 0 0];


internalField   nonuniform List<scalar> 
33454
(
36.512008
36.175295
35.844189
35.720254
35.609767
35.389471
35.035938
34.723601
34.5648
34.374308
34.103722
33.85701
33.641203
33.436793
33.236683
33.039798
32.853452
32.680764
32.513703
32.335858
32.236972
32.137251
32.042293
31.907128
31.609002
30.943937
30.749635
30.681617
30.633059
30.503072
30.281388
30.081698
29.982644
29.870356
29.709154
29.553149
29.412089
29.276743
29.154884
29.036925
28.922446
28.800503
28.738119
28.685124
28.628935
28.539845
28.323421
27.819695
27.680402
27.636868
27.604852
27.52012
27.370057
27.241647
27.18681
27.117536
27.00781
26.905887
26.829122
26.761144
26.692746
26.626832
26.581495
26.548544
26.445675
26.326668
26.988083
31.451138
32.01969
29.679916
28.773946
28.142122
27.579124
27.034805
26.505999
25.992816
25.498026
25.022468
24.566254
24.128718
23.708818
23.305439
22.917484
22.543936
8.1870612
8.2244983
8.2623099
8.3004812
8.3389901
8.3778074
8.4168969
8.4562181
8.495731
8.5354015
8.5752096
8.6151537
8.6552528
8.6955448
8.736081
8.7769235
9.1745402
9.1316828
9.0894554
9.0477726
9.006541
8.9656638
8.9250474
8.8846022
8.8442512
8.8039343
8.7636086
8.7232514
8.6828593
8.6424452
8.6020357
8.5616663
8.5213773
8.48121
8.4412043
8.4013963
8.3618178
8.3224948
8.2834486
8.2446962
8.2062502
8.1681196
8.1303107
8.1353732
8.1731987
8.2113493
8.2498182
8.2885973
8.3276739
8.3670306
8.4066456
8.4464931
8.4865407
8.5267506
8.5670815
8.6074903
8.6479355
8.688379
8.7287926
8.7691616
8.8094885
8.8497953
8.8901247
8.9305368
8.9711082
9.0119289
9.0530926
9.0946955
9.1368308
9.1795834
9.1904167
9.1478836
9.1059411
9.0645055
9.0234848
8.9827839
8.9423093
8.9019713
8.8616934
8.8214159
8.7810966
8.7407148
8.7002701
8.6597804
8.6192774
8.5788035
8.5384035
8.498124
8.4580086
8.4180975
8.3784243
8.3390156
8.2998934
8.2610756
8.2225746
8.1843984
8.1465532
8.1656479
8.2034904
8.2416733
8.2801919
8.319038
8.3581994
8.3976591
8.4373944
8.4773771
8.5175717
8.5579358
8.5984216
8.6389777
8.6795528
8.7200992
8.7605788
8.8009692
8.8412673
8.8814924
8.9216861
8.9619076
9.002233
9.0427513
9.0835553
9.1247376
9.1663876
9.2085861
9.2362001
9.1944709
9.1532309
9.112405
9.0719083
9.0316526
8.9915471
8.9515037
8.9114472
8.871318
8.8310751
8.7907017
8.7502046
8.7096132
8.6689743
8.6283445
8.5877837
8.5473502
8.5070972
8.4670707
8.4273084
8.3878399
8.348688
8.3098692
8.2713946
8.2332715
8.1955035
8.2410218
8.2785607
8.3164732
8.3547576
8.3934089
8.4324177
8.4717689
8.5114404
8.5514017
8.5916127
8.6320233
8.6725732
8.7131949
8.7538172
8.7943704
8.8347956
8.8750545
8.9151356
8.9550549
8.9948536
9.0345924
9.0743461
9.1142012
9.1542453
9.1945603
9.2352236
9.2763022
9.3342336
9.2941086
9.2543119
9.2147886
9.1754718
9.1362885
9.0971564
9.0579907
9.0187159
8.979268
8.9396022
8.8997017
8.8595803
8.8192867
8.7788972
8.7384989
8.6981785
8.6580155
8.6180781
8.5784215
8.5390874
8.5001063
8.4614982
8.4232754
8.3854439
8.3480051
8.3109569
8.4205613
8.4567935
8.4934205
8.5304502
8.5678871
8.6057313
8.6439761
8.6826059
8.7215919
8.7608917
8.8004458
8.8401756
8.8799861
8.9197706
8.9594158
8.9988215
9.0379284
9.0767261
9.1152374
9.1535148
9.1916286
9.229655
9.267675
9.3057614
9.3439736
9.3823622
9.4209643
9.5605801
9.5244471
9.4883134
9.452178
9.4160241
9.3798212
9.3435208
9.3070582
9.2703611
9.2333561
9.1959784
9.1581913
9.1199849
9.081423
9.0426409
9.0037908
8.9650103
8.9264153
8.8880975
8.850122
8.8125298
8.7753434
8.7385704
8.7022084
8.6662477
8.6306747
8.5954726
8.8767065
8.9111961
8.9459944
8.9811255
9.0166199
9.052502
9.0887898
9.1254905
9.1625936
9.2000624
9.2378245
9.2757674
9.3137406
9.3515572
9.3890021
9.4258927
9.4621927
9.4979838
9.5333382
9.5683343
9.6030281
9.637461
9.6716444
9.7055611
9.7391625
9.772375
9.8051104
10.260871
10.230386
10.198456
10.165407
10.131562
10.097194
10.062468
10.027492
9.9923402
9.95706
9.9215654
9.8856594
9.8489962
9.8114409
9.773218
9.7346524
9.6960237
9.6575534
9.6193963
9.5816397
9.5443134
9.5074093
9.4708968
9.4347337
9.3988723
9.3632662
9.3278705
10.043776
10.084481
10.125319
10.16636
10.207677
10.24935
10.29146
10.334072
10.377211
10.420832
10.464791
10.508812
10.552491
10.595309
10.63673
10.676581
10.715718
10.755459
10.796448
10.838716
10.881739
10.925163
10.968846
11.012333
11.054706
11.094933
11.132153
12.941491
12.877026
12.804872
12.727487
12.645903
12.561931
12.478562
12.398739
12.323431
12.251247
12.183001
12.121509
12.067351
12.018726
11.969798
11.916675
11.859683
11.800193
11.739445
11.678386
11.617665
11.557655
11.498489
11.440161
11.382577
11.325627
11.26918
11.213131
11.157386
12.815141
12.904421
12.995061
13.087258
13.181204
13.277135
13.375274
13.475787
13.57868
13.683643
13.789936
13.896255
14.000502
14.099575
14.189193
14.249028
14.292711
14.378059
14.494238
14.632714
14.779716
14.938927
15.121414
15.324893
15.539188
15.757634
15.983032
16.223181
16.478761
27.467559
22.953278
22.423123
21.808618
21.247501
20.77683
20.337814
19.861714
19.38864
18.977768
18.665311
18.412604
18.078444
17.791899
17.677617
17.664749
17.532726
17.34958
17.151537
16.950433
16.750973
16.555272
16.364904
16.180875
16.003494
15.832587
15.667681
15.508232
15.353668
15.203484
15.057251
17.582609
17.786198
17.994953
18.209236
18.429388
18.65577
18.888641
19.128013
19.373416
19.623603
19.876631
20.130628
20.384765
20.637092
20.857377
20.970334
20.903321
20.963468
21.213708
22.960969
23.334414
22.549295
22.542481
22.058975
22.212755
22.060262
22.367154
22.574843
23.289204
25.734926
29.572373
26.729718
26.149645
26.33399
26.433691
26.473762
26.411583
26.447679
26.484868
26.543136
26.603537
26.674218
26.75703
26.862616
27.002599
26.996783
26.839103
27.016434
27.171085
27.438663
27.5791
27.582208
27.261436
26.521235
26.866776
27.185109
27.978815
28.310142
28.486293
28.509164
28.597047
28.580645
28.387314
28.521676
28.641091
28.760556
28.888
29.019883
29.163707
29.310992
29.478016
29.689731
29.684162
29.453201
29.740236
29.970811
30.366424
30.581632
30.588767
30.10767
29.032961
29.645435
30.041057
31.10576
31.564163
31.808888
31.854372
31.991232
31.981215
31.697668
31.897471
32.063495
32.235637
32.422348
32.617581
32.82469
33.032157
33.251545
33.476705
33.737287
34.070489
34.076713
33.721185
34.193966
34.566048
35.210812
35.532093
35.571242
34.911926
32.955139
33.9085
34.223213
34.548111
8.7689421
8.7260325
8.6835011
8.6413282
8.5994954
8.557987
8.5167907
8.4758965
8.4352976
8.3949896
8.3549711
8.3152418
8.2758032
8.2366579
8.1978087
8.1592586
8.1210099
8.0861916
8.088963
8.0916405
8.0942711
8.0968867
8.099506
8.1021358
8.1047696
8.1073963
8.1099999
8.1125585
8.1150453
8.1174312
8.1196868
8.121785
8.1237055
8.1254342
8.126957
8.1282459
8.1292518
8.1299378
8.1677465
8.1670615
8.1660555
8.1647657
8.1632411
8.1615098
8.159586
8.1574838
8.155224
8.1528338
8.1503426
8.1477792
8.1451706
8.1425383
8.139898
8.1372611
8.1346333
8.1320086
8.1293678
8.1266793
8.123896
8.1209502
8.1177658
8.1142619
8.1103703
8.10605
8.1013042
8.0961839
8.0986368
8.1027375
8.1073013
8.1122828
8.1175938
8.1231025
8.1286491
8.1340683
8.1392162
8.1439861
8.1483267
8.1522355
8.1557543
8.1589522
8.161911
8.164707
8.1674073
8.1700594
8.1726946
8.1753319
8.177977
8.1806247
8.1832635
8.1858778
8.1884466
8.1909429
8.1933379
8.1956022
8.1977086
8.199636
8.2013698
8.2028959
8.2041866
8.2051925
8.205877
8.2443226
8.2436386
8.2426329
8.2413416
8.2398138
8.2380774
8.2361463
8.2340354
8.2317661
8.2293659
8.2268639
8.2242891
8.2216682
8.2190221
8.216366
8.2137116
8.2110638
8.2084169
8.2057526
8.2030393
8.2002299
8.1972576
8.1940464
8.1905138
8.1865896
8.1822312
8.17744
8.1722675
8.1668211
8.1612465
8.1557105
8.1503743
8.1453699
8.1407853
8.1366655
8.1330244
8.1298625
8.1271821
8.1249937
8.1233056
8.1221069
8.1213595
8.1596109
8.1603634
8.1615697
8.1632683
8.1654701
8.1681666
8.1713465
8.1750069
8.1791473
8.1837536
8.1887813
8.1941422
8.1997038
8.2053038
8.2107741
8.2159675
8.2207766
8.2251498
8.2290875
8.2326326
8.2358567
8.2388428
8.2416664
8.2443936
8.2470713
8.2497312
8.2523905
8.2550556
8.2577209
8.2603754
8.263004
8.2655855
8.2680937
8.2704998
8.2727744
8.2748901
8.2768251
8.2785643
8.2800938
8.2813859
8.2823915
8.2830748
8.3221207
8.3214383
8.3204328
8.31914
8.3176088
8.3158667
8.3139277
8.311807
8.3095266
8.3071141
8.3045988
8.3020096
8.2993727
8.2967086
8.2940328
8.291356
8.2886835
8.2860097
8.2833172
8.2805752
8.2777368
8.2747369
8.2715003
8.2679439
8.2639955
8.2596109
8.2547882
8.2495784
8.2440886
8.2384668
8.2328821
8.227498
8.2224475
8.2178189
8.2136569
8.2099758
8.2067766
8.2040628
8.2018465
8.2001365
8.1989217
8.1981638
8.2370161
8.2377796
8.239003
8.2407248
8.2429566
8.2456888
8.2489083
8.2526108
8.2567947
8.2614452
8.2665172
8.2719219
8.2775258
8.2831644
8.2886682
8.2938887
8.2987197
8.3031117
8.3070676
8.3106335
8.3138818
8.3168954
8.3197491
8.3225072
8.3252153
8.3279045
8.3305915
8.3332812
8.3359688
8.3386435
8.3412898
8.3438875
8.3464105
8.34883
8.3511166
8.3532427
8.3551858
8.3569308
8.3584635
8.3597571
8.3607623
8.3614437
8.4010224
8.4003423
8.3993375
8.3980434
8.3965091
8.3947613
8.3928139
8.3906823
8.3883891
8.3859619
8.3834306
8.3808237
8.3781669
8.3754805
8.3727799
8.3700758
8.3673732
8.3646672
8.361942
8.3591672
8.3562979
8.3532708
8.3500119
8.346439
8.3424791
8.3380853
8.3332523
8.328028
8.3225174
8.3168686
8.3112507
8.3058295
8.3007386
8.2960677
8.2918625
8.2881386
8.2848984
8.2821472
8.2798994
8.2781655
8.2769338
8.2761648
8.3156063
8.3163804
8.3176205
8.3193665
8.3216304
8.3244003
8.3276608
8.3314051
8.3356298
8.3403182
8.3454236
8.3508556
8.35648
8.3621308
8.3676394
8.3728587
8.3776861
8.3820756
8.3860347
8.3896115
8.3928793
8.3959192
8.3988044
8.4015965
8.4043399
8.4070638
8.4097835
8.4125031
8.4152178
8.417917
8.4205851
8.4232021
8.4257424
8.4281777
8.430478
8.4326153
8.434567
8.4363176
8.4378534
8.4391478
8.4401521
8.4408308
8.4808375
8.4801605
8.4791567
8.4778621
8.4763251
8.4745719
8.4726159
8.4704727
8.4681651
8.4657214
8.4631714
8.4605438
8.4578635
8.4551506
8.4524207
8.4496844
8.4469466
8.4442038
8.4414414
8.4386314
8.4357307
8.432679
8.4294047
8.4258277
8.4218752
8.4174974
8.4126851
8.4074811
8.4019856
8.3963434
8.390722
8.3852872
8.3801734
8.3754721
8.3712313
8.3674689
8.3641897
8.3614019
8.3591226
8.3573647
8.3561165
8.3553379
8.3953588
8.3961416
8.3973968
8.3991653
8.4014585
8.4042621
8.4075573
8.4113341
8.415586
8.4202937
8.4254073
8.4308347
8.4364411
8.4420616
8.4475306
8.4527066
8.4574927
8.4618498
8.465789
8.4693613
8.4726393
8.4757011
8.4786166
8.4814446
8.4842264
8.4869889
8.4897455
8.4924993
8.4952452
8.4979725
8.5006656
8.5033044
8.5058642
8.5083166
8.5106316
8.5127805
8.5147405
8.5164959
8.5180337
8.5193279
8.5203308
8.521006
8.5612964
8.5606233
8.5596222
8.558329
8.556791
8.5550338
8.5530702
8.550916
8.548594
8.546133
8.5435632
8.5409131
8.5382069
8.5354648
8.5327026
8.5299307
8.5271549
8.5243725
8.5215714
8.5187262
8.515797
8.5127275
8.5094499
8.5058882
8.5019702
8.4976445
8.4928976
8.4877645
8.4823379
8.4767549
8.4711783
8.4657713
8.4606687
8.4559636
8.4517073
8.4479213
8.4446142
8.4417978
8.439493
8.4377157
8.4364551
8.4356691
8.4762695
8.4770576
8.478322
8.4801058
8.4824192
8.4852442
8.488558
8.4923462
8.4965982
8.50129
8.5063684
8.5117393
8.5172686
8.5227956
8.5281615
8.5332344
8.5379273
8.542209
8.546096
8.5496402
8.5529123
8.5559859
8.5589265
8.5617876
8.5646073
8.567409
8.5702039
8.5729937
8.5757723
8.5785289
8.5812478
8.583909
8.5864885
8.5889576
8.5912862
8.5934453
8.5954117
8.5971699
8.5987073
8.5999986
8.6009976
8.6016682
8.6420808
8.6414136
8.6404173
8.6391286
8.637593
8.6358352
8.633867
8.6317042
8.6293698
8.6268934
8.6243052
8.6216338
8.6189028
8.6161325
8.6133384
8.6105315
8.6077186
8.6048987
8.6020622
8.5991873
8.5962386
8.5931654
8.5899051
8.5863871
8.5825423
8.5783185
8.5736967
8.5687033
8.5634189
8.557969
8.5525068
8.54719
8.5421514
8.5374858
8.5332488
8.5294667
8.5261529
8.5233243
8.5210062
8.5192189
8.5179526
8.5171641
8.5583601
8.5591474
8.5604127
8.5621999
8.5645177
8.5673438
8.5706496
8.5744157
8.5786258
8.5832505
8.588232
8.5934748
8.5988478
8.6041977
8.6093779
8.6142707
8.6188029
8.6229534
8.6267436
8.6302255
8.6334665
8.6365338
8.6394862
8.6423714
8.645222
8.6480578
8.6508868
8.653709
8.6565169
8.6592994
8.6620407
8.6647209
8.6673163
8.6697984
8.6721368
8.6743019
8.6762701
8.6780258
8.679558
8.6808425
8.6818344
8.6824981
8.7228942
8.7222349
8.7212484
8.7199701
8.7184434
8.7166918
8.7147257
8.7125607
8.7102206
8.7077352
8.7051352
8.7024488
8.6996997
8.6969078
8.6940887
8.6912541
8.6884122
8.6855639
8.6827032
8.6798124
8.6768618
8.6738073
8.6705943
8.667159
8.663437
8.6593764
8.6549532
8.650183
8.6451307
8.6399049
8.6346443
8.6294966
8.6245905
8.6200223
8.6158522
8.6121129
8.6088237
8.6060074
8.6036953
8.6019126
8.6006515
8.5998672
8.6416977
8.6424763
8.6437298
8.6455035
8.6478041
8.6506033
8.6538666
8.6575679
8.6616845
8.6661802
8.6709921
8.6760235
8.6811486
8.6862263
8.6911272
8.6957528
8.7000474
8.7040014
8.7076414
8.7110186
8.7141943
8.7172277
8.7201699
8.7230604
8.7259261
8.7287819
8.7316324
8.7344752
8.7373015
8.740099
8.7428522
8.7455411
8.7481424
8.7506277
8.7529664
8.7551283
8.7570894
8.7588341
8.7603527
8.7616227
8.762602
8.7632562
8.8035869
8.8029392
8.8019693
8.8007101
8.7992028
8.7974686
8.7955162
8.7933613
8.7910282
8.7885473
8.7859493
8.7832626
8.7805103
8.7777122
8.7748839
8.7720386
8.7691853
8.7663279
8.7634639
8.7605806
8.7576548
8.7546511
8.7515229
8.7482155
8.7446714
8.74084
8.7366924
8.732232
8.7275047
8.7225976
8.7176296
8.7127345
8.7080343
8.7036263
8.6995763
8.6959241
8.6926964
8.6899223
8.6876396
8.6858796
8.6846371
8.6838664
8.7263927
8.7271528
8.7283805
8.7301216
8.7323798
8.7351207
8.7383036
8.7418959
8.7458671
8.7501735
8.7547463
8.7594882
8.7642806
8.7689979
8.7735329
8.7778104
8.7817949
8.7854893
8.7889251
8.7921513
8.7952217
8.7981864
8.8010871
8.803955
8.8068096
8.8096609
8.8125096
8.8153506
8.8181739
8.8209659
8.823711
8.8263895
8.8289782
8.8314493
8.8337718
8.8359149
8.8378541
8.8395738
8.8410661
8.8423113
8.8432696
8.8439096
8.8842671
8.8836364
8.8826921
8.8814645
8.8799916
8.8782913
8.8763707
8.874245
8.8719393
8.8694846
8.8669118
8.8642487
8.8615183
8.85874
8.8559297
8.8531012
8.8502654
8.8474289
8.8445926
8.8417493
8.838883
8.8359668
8.832964
8.8298295
8.8265132
8.8229675
8.8191589
8.815078
8.8107496
8.8062366
8.801634
8.7970585
8.7926251
8.7884315
8.7845493
8.7810263
8.7778968
8.7751964
8.772969
8.7712519
8.7700432
8.7692962
8.8241148
8.8275608
8.8313464
8.83542
8.8397065
8.8441077
8.8485124
8.852813
8.8569265
8.8608029
8.8644275
8.8678165
8.871005
8.8740391
8.8769651
8.8798231
8.8826452
8.8854539
8.8882619
8.8910737
8.8938867
8.8966933
8.8994813
8.9022367
8.9049437
8.9075829
8.9101315
8.9125622
8.9148442
8.9169459
8.918842
8.9205174
8.921966
8.923172
8.9240995
8.9247197
8.9653439
8.9647354
8.9638278
8.962648
8.9612292
8.959585
8.9577201
8.9556496
8.9533994
8.9510011
8.9484855
8.9458796
8.9432058
8.9404832
8.9377278
8.9349539
8.9321743
8.9293976
8.9266283
8.9682102
8.9709303
8.9736611
8.9763967
8.9791271
8.9818393
8.9845186
8.9871491
8.989712
8.9921852
8.9945422
8.9967522
8.9987836
9.0006101
9.0022167
9.0035999
9.0047495
9.0056346
9.0062297
9.0474698
9.0468889
9.0460293
9.0449149
9.043573
9.0420106
9.0402298
9.0382455
9.0360843
9.033778
9.031357
9.0288474
9.0262708
9.0236456
9.0209876
9.0183116
9.015631
9.0129567
9.0102958
9.0581758
9.0607914
9.0634028
9.0659961
9.0685571
9.0710698
9.0735164
9.0758756
9.0781222
9.080226
9.0821553
9.0838832
9.0853947
9.0866892
9.0877637
9.0885949
9.0891607
9.131396
9.1308468
9.1300463
9.1290157
9.1277739
9.1263194
9.1246511
9.1227839
9.1207452
9.1185664
9.1162775
9.1139028
9.111463
9.1089753
9.1064554
9.1039174
9.1013753
9.145292
9.1477548
9.1502129
9.1526527
9.1550602
9.1574202
9.1597161
9.1619279
9.164032
9.1659992
9.167798
9.1694012
9.1707936
9.1719783
9.1729614
9.1737291
9.1742608
9.179348
9.1365869
9.0944429
9.0528314
9.0116592
8.9708302
8.9302509
8.8898321
8.8494966
8.8091844
8.7688524
8.7284788
8.6880609
8.6476135
8.607165
8.566753
8.5264197
8.486208
8.4461591
8.4063104
8.366694
8.3273365
8.2882596
8.24948
8.2110104
8.1728596
8.1350337
22.356165
22.719362
23.095829
23.486386
23.89198
24.313501
24.751781
25.207327
25.680245
26.169867
26.674942
27.193476
27.725672
28.300773
29.029238
29.727535
30.365975
25.894096
25.698352
25.778046
25.847476
25.925814
26.013085
26.110266
26.213339
26.326988
26.452391
26.589004
26.649202
26.694935
26.801891
26.867637
26.993891
27.039299
27.075843
27.07201
27.028261
26.969669
26.817097
26.701937
26.477272
26.320124
26.050189
25.865969
25.578657
25.382833
25.09954
24.895192
24.603949
24.39722
24.120305
23.912583
23.636039
23.432991
23.181792
22.989513
22.748298
22.569463
22.359883
22.197648
22.004574
21.858599
21.689411
21.550466
21.505877
21.517367
21.410203
21.270063
21.158884
21.0172
20.908365
20.773301
20.665418
20.528635
20.423254
20.2961
20.195977
20.074358
19.981671
19.873877
19.78889
19.687632
19.610449
19.524035
19.456549
19.374248
19.312855
19.247331
19.19881
19.144577
19.105539
19.064597
19.034891
19.003114
18.981514
18.960701
18.948528
18.941132
18.94342
18.956662
18.965963
18.975096
18.983176
18.994331
19.005562
19.021978
19.038092
19.061839
19.084634
19.116891
19.146874
19.188664
19.228914
19.288925
19.351747
19.444419
19.540621
19.683934
19.832058
20.049844
20.278967
20.613646
20.944239
21.407519
21.861928
22.491164
23.061124
23.802843
24.455748
25.284628
25.93976
26.689267
27.238707
27.812486
28.148464
28.398496
28.544759
28.599093
28.545565
28.442554
28.420378
28.362272
28.196712
27.931386
27.572564
27.02133
26.456466
25.744896
25.074789
24.291278
23.624299
22.921883
22.341809
21.745476
21.280164
20.838032
20.500268
20.182241
19.949168
19.740981
19.587663
19.449008
19.350936
19.264479
19.202859
19.145346
19.103363
19.064194
19.034807
19.0054
18.98322
18.961207
18.944762
18.928943
18.917458
18.906752
18.898876
18.890691
18.882654
18.873205
18.872134
18.878946
18.891027
18.910016
18.931688
18.961121
18.991222
19.02942
19.069244
19.120138
19.169832
19.231609
19.293332
19.368891
19.439034
19.52261
19.600563
19.693262
19.779793
19.881843
19.977753
20.092287
20.19522
20.314894
20.423566
20.552036
20.66359
20.791146
20.904444
21.036558
21.15076
21.283357
21.399283
21.289687
21.432527
21.57126
21.734575
21.884814
22.070923
22.235575
22.435979
22.617653
22.850226
23.049526
23.288754
23.492147
23.756752
23.973139
24.236125
24.448401
24.724941
24.936092
25.205255
25.409372
25.68275
25.876518
26.132915
26.299852
26.5133
26.636909
26.782246
26.846213
26.888427
26.894265
26.86305
26.818654
26.704934
26.640716
26.547013
26.50343
26.369447
26.245907
26.133003
26.024932
25.926435
25.834267
25.753082
25.668494
25.82021
25.656606
25.751558
25.841919
25.942733
26.048676
26.163905
26.282156
26.410443
26.492523
26.354932
26.228189
26.105672
25.992397
25.883004
25.784549
25.680229
25.8362
25.700749
25.814402
25.922309
26.037658
26.154357
26.282256
26.413827
26.555063
26.656649
26.50578
26.364969
26.229711
26.105791
25.985418
25.905772
25.916991
25.915876
25.878132
25.825492
25.73367
25.61171
25.452926
25.279587
25.072004
24.867293
24.644031
24.427977
24.200556
23.984969
23.755529
23.527698
23.290371
23.063468
22.849691
22.653694
22.453807
22.271988
22.094061
21.919845
21.743217
21.57601
21.40987
21.249644
21.090247
20.939404
20.794924
20.65952
20.541903
20.444498
20.340507
20.23635
20.128901
20.024059
19.91954
19.817881
19.716779
19.620309
19.525633
19.435169
19.346595
19.263055
19.17811
19.093058
19.009442
18.92815
18.858636
18.799852
18.754563
18.724739
18.694649
18.666686
18.640068
18.616217
18.59422
18.573894
18.55699
18.543907
18.533716
18.52637
18.522652
18.523002
18.525004
18.528329
18.533409
18.540552
18.54921
18.560305
18.572559
18.58677
18.602991
18.622423
18.644614
18.673172
18.709776
18.755447
18.804935
18.872425
18.963283
19.081006
19.221319
19.397619
19.611965
19.87673
20.184704
20.548267
20.962548
21.437874
21.950449
22.511412
23.099816
23.719827
24.323585
24.917185
25.465723
25.982684
26.435836
26.833057
27.144271
27.375366
27.384865
27.356796
27.316165
27.044118
26.703281
26.288815
25.827547
25.315176
24.77115
24.188157
23.59547
22.993718
22.415759
21.867958
21.365818
20.905463
20.505583
20.156553
19.853411
19.588018
19.372742
19.199345
19.061344
18.950812
18.867591
18.802573
18.752224
18.708596
18.672818
18.644693
18.622491
18.603377
18.587212
18.573909
18.562695
18.553695
18.548523
18.541339
18.532155
18.526759
18.524866
18.526496
18.53289
18.5404
18.548989
18.561988
18.577853
18.597644
18.619862
18.644227
18.66852
18.695878
18.723987
18.739084
18.771233
18.824657
18.898135
18.994013
19.083366
19.167178
19.248875
19.32935
19.413936
19.50083
19.592521
19.688816
19.79053
19.896197
20.003561
20.110298
20.216769
20.320836
20.417871
20.496544
20.610109
20.761213
20.914331
21.074223
21.236841
21.401999
21.566984
21.729525
21.897546
22.070359
22.252541
22.414306
22.582019
22.757718
22.976882
23.225145
23.453992
23.672646
23.894796
24.107976
24.330586
24.546109
24.768474
24.97639
25.179623
25.344827
25.490254
25.608335
25.699716
25.756719
25.800189
25.813738
25.811525
25.794879
25.706764
25.685258
25.739366
25.724703
25.658799
25.854069
30.246866
30.106384
30.321081
29.532062
28.841189
29.476336
29.57139
28.947237
29.569394
30.269419
25.859858
25.609889
25.663755
25.705638
25.648399
25.682518
25.692889
25.704495
25.687386
25.64407
25.601011
25.557032
25.549096
25.556119
25.642878
25.80116
25.868063
25.926724
25.991179
26.06888
26.156016
26.251968
26.357599
26.47737
26.607004
26.683828
26.805544
26.948826
27.069267
27.066899
27.195076
27.215333
27.420032
27.446993
27.675947
27.695531
27.788601
27.790615
27.755192
27.736182
27.528975
27.488684
27.173451
27.116643
26.729686
26.660407
26.245231
26.168411
25.75295
25.669155
25.235273
25.147215
24.727893
24.634413
24.209293
24.118387
23.731378
23.639854
23.267541
23.182675
22.862876
22.784964
22.49089
22.420131
22.173451
22.108193
21.881376
21.820703
21.619385
21.561608
21.358971
21.301028
21.105812
21.047466
20.847631
20.789898
20.603874
20.548465
20.370598
20.319164
20.162222
20.115271
19.969807
19.926496
19.795662
19.755564
19.636962
19.603135
19.503909
19.474243
19.392279
19.369414
19.307562
19.289774
19.240519
19.226837
19.193819
19.186478
19.177436
19.181563
19.219037
19.227015
19.242467
19.246947
19.261328
19.268017
19.293399
19.303762
19.340682
19.355319
19.40596
19.424724
19.487672
19.513648
19.602584
19.638476
19.766754
19.823572
20.027523
20.115448
20.421685
20.555764
21.032609
21.227343
21.891602
22.159054
23.071631
23.406683
24.485188
24.865923
26.071581
26.448609
27.517528
27.827823
28.611096
28.792029
28.981966
29.055077
28.814896
28.576618
28.311503
27.644855
27.193617
26.298299
25.755917
24.75359
24.209825
23.314558
22.836396
22.07677
21.696189
21.142321
20.865824
20.46744
20.276409
20.019281
19.894959
19.724558
19.644582
19.537544
19.485658
19.411702
19.375219
19.323495
19.297221
19.256661
19.236668
19.206817
19.192385
19.171665
19.161913
19.149541
19.142383
19.130094
19.11999
19.095205
19.091178
19.099671
19.109713
19.136117
19.154454
19.194666
19.21989
19.27138
19.304841
19.373456
19.415056
19.496459
19.544694
19.642102
19.69968
19.809231
19.872243
19.994008
20.062666
20.193897
20.269473
20.418229
20.498863
20.653696
20.738194
20.905354
20.991521
21.155111
21.241001
21.411823
21.498561
21.667792
21.758072
21.949354
22.050632
22.260691
22.368482
22.616982
22.73605
23.00611
23.137237
23.453879
23.595263
23.923666
24.069478
24.431383
24.575949
24.934171
25.076232
25.450198
25.58633
25.946948
26.074379
26.438536
26.555483
26.896853
26.993865
27.274004
27.343556
27.529851
27.563499
27.599996
27.598306
27.524639
27.492942
27.299627
27.254965
27.08435
27.050439
26.944728
26.797658
26.671554
26.744867
26.887761
26.929918
26.791534
26.914008
27.076145
27.132941
26.978419
27.121827
27.302023
27.34235
27.167626
27.215604
27.40418
27.405314
27.215704
27.177667
27.370581
27.325626
27.124674
26.968197
27.157662
27.06662
26.861661
26.628767
26.814948
26.689816
26.482293
26.200787
26.384194
26.235021
26.027945
25.728359
25.908843
25.747975
25.544577
25.249542
25.425788
25.255306
25.056121
24.749716
24.920228
24.742573
24.548871
24.25903
24.425227
24.250151
24.063207
23.771757
23.929416
23.750283
23.573289
23.307352
23.458602
23.28949
23.122752
22.868775
23.008849
22.85103
22.694915
22.475092
22.611181
22.468394
22.31818
22.115818
22.247056
22.118462
21.97521
21.802511
21.930575
21.800638
21.670073
21.68944
21.816851
21.99658
22.134498
22.351727
22.50547
22.7332
22.902784
23.175542
23.357425
23.631324
23.822085
24.129965
24.320445
24.614898
24.805574
25.120501
25.30428
25.596048
25.768116
26.062556
26.221822
26.487992
26.619631
26.829315
26.922818
27.053711
27.095477
27.098973
27.091426
27.020322
26.969154
26.787758
26.71815
26.574009
26.519623
26.410035
26.412884
26.538008
26.812738
26.943307
27.094343
27.222501
27.300069
27.472364
27.855679
28.02535
28.126183
28.251865
28.189562
28.220541
28.34553
28.48165
28.650443
28.808116
28.989998
29.095544
29.179575
29.193862
29.190481
29.094284
28.971514
28.777887
28.585331
28.342174
28.10363
27.830838
27.57509
27.29591
27.041625
26.755769
26.482506
26.191612
25.920512
25.627868
25.345394
25.059619
24.802623
24.537709
24.292556
24.052754
23.839386
23.625784
23.432935
23.25048
23.093544
22.937283
22.794937
22.652543
22.52045
22.383225
22.250466
22.113152
21.979846
21.837951
21.699098
21.557812
21.423575
21.291677
21.160882
21.043748
20.928864
20.822164
20.713838
20.613804
20.513834
20.421448
20.330171
20.250671
20.175354
20.110173
20.048172
19.996631
19.9482
19.908927
19.871183
19.840949
19.813604
19.793514
19.774551
19.751942
19.657864
19.658152
19.674893
19.692333
19.711729
19.736926
19.765901
19.801294
19.839744
19.886091
19.936897
19.996282
20.059442
20.131542
20.21164
20.302467
20.39193
20.486662
20.585527
20.691598
20.797231
20.908772
21.024402
21.152049
21.281178
21.412901
21.550128
21.687514
21.825961
21.958565
22.092535
22.225075
22.359444
22.491791
22.631076
22.773584
22.926424
23.083813
23.261833
23.45326
23.66087
23.872815
24.10642
24.348113
24.603236
24.858483
25.13622
25.415592
25.700005
25.971754
26.256371
26.530242
26.810345
27.067014
27.339861
27.600519
27.87046
28.114745
28.355113
28.551113
28.741587
28.871823
28.968179
28.98145
28.970906
28.89483
28.792501
28.623227
28.473613
28.317355
28.189103
28.075559
28.05434
27.945539
27.769761
27.315869
27.777041
27.95706
28.058355
27.875347
27.489233
27.989766
28.179418
28.324835
28.130485
27.75292
28.267159
28.467866
28.625264
28.423362
28.044618
28.516293
28.723547
28.790434
28.58097
28.171612
28.587779
28.796599
28.774322
28.566345
28.144779
28.475815
28.678357
28.545757
28.345581
27.91264
28.162814
28.354257
28.152338
27.962182
27.551262
27.734333
27.913896
27.667681
27.486967
27.097888
27.232119
27.40147
27.140413
26.969809
26.604077
26.708122
26.868684
26.60942
26.446199
26.102342
26.181301
26.332705
26.059394
25.903021
25.569958
25.638417
25.782681
25.511174
25.363822
25.047386
25.095143
25.230537
24.954721
24.814263
24.510962
24.559106
24.685531
24.433616
24.302553
24.015819
24.062519
24.183428
23.943723
23.81529
23.537155
23.597316
23.715637
23.505683
23.383198
23.123318
23.189181
23.302325
23.112459
22.993312
22.742693
22.826678
22.938479
22.78161
22.664432
22.425244
22.520612
22.63159
22.488806
22.371322
22.130689
22.239836
22.352188
22.220549
22.103381
21.866339
21.977341
22.088862
21.956475
21.839873
21.599183
21.714149
21.825059
21.693589
21.578479
21.339901
21.449799
21.558461
21.422085
21.309532
21.072259
21.181897
21.287467
21.157239
21.048684
20.821515
20.928374
21.030795
20.906381
20.80171
20.581409
20.691673
20.791149
20.681153
20.57949
20.368955
20.480521
20.577151
20.475064
20.376545
20.170684
20.284871
20.378812
20.284998
20.189026
19.991625
20.104174
20.196574
20.109187
20.016826
19.828156
19.943849
20.030877
19.960101
19.871205
19.692871
19.811083
19.898145
19.840099
19.751777
19.579445
19.704524
19.790141
19.745098
19.659282
19.493301
19.623559
19.707575
19.673419
19.588202
19.425142
19.561329
19.645805
19.622105
19.53705
19.378566
19.51987
19.604437
19.590658
19.509217
19.364438
19.517596
19.584842
19.568656
19.609647
19.797607
19.938046
20.068739
20.198853
20.330008
20.464153
20.600177
20.740399
20.882811
21.034217
21.193882
21.194948
21.198993
21.196425
21.212053
21.059489
21.042579
21.04041
21.036368
20.885294
20.743539
20.603413
20.467207
20.332915
20.202039
20.071437
19.939563
19.796946
19.612083
19.800297
19.942586
20.074385
20.204695
20.335402
20.469488
20.606041
20.746574
20.889114
20.894581
20.75391
20.614683
20.478889
20.345732
20.215317
20.085526
19.953483
19.810455
19.62947
19.824035
19.966761
20.098878
20.228476
20.359132
20.492569
20.629031
20.768675
20.910575
20.517056
20.383437
20.252091
20.122084
19.988918
19.844788
19.6662
19.869923
20.015102
20.1496
20.281155
20.414098
20.550005
20.594478
20.45633
20.321243
20.187387
20.050669
19.902533
19.723795
19.937956
20.088213
20.227126
20.36381
20.501522
20.642958
20.131994
19.979185
19.799641
20.02347
20.178858
20.231051
20.073627
19.892873
20.127218
20.286978
29.185974
28.940737
28.714659
28.583379
28.340872
28.031567
27.42601
26.906957
26.108819
25.486474
24.596593
23.974984
23.180782
22.636266
21.961039
21.528053
21.033389
20.717366
20.359756
20.141234
19.909717
19.769005
19.617415