/*--------------------------------*- C++ -*----------------------------------*\
| =========                 |                                                 |
| \\      /  F ield         | OpenFOAM: The Open Source CFD Toolbox           |
|  \\    /   O peration     | Version:  v2012                                 |
|   \\  /    A nd           | Website:  www.openfoam.com                      |
|    \\/     M anipulation  |                                                 |
\*---------------------------------------------------------------------------*/
FoamFile
{
    version     2.0;
    format      ascii;
    class       surfaceScalarField;
    location    "206";
    object      phi;
}
// * * * * * * * * * * * * * * * * * * * * * * * * * * * * * * * * * * * * * //

dimensions      [0 3 -1 0 0 0 0];
oriented        oriented;


internalField   nonuniform List<scalar> 
97295
(
0.0013979114
-2.3862428e-05
7.8753442e-06
0.0013032937
2.1152904e-05
7.3464811e-05
0.00083845579
0.00016826505
0.00029657289
0.00028590974
0.00041002204
0.00014252401
0.00014156798
4.8101025e-05
9.6240739e-05
0.00016323133
-2.5897926e-05
4.234574e-06
0.0002098071
-2.9167723e-05
-1.7408046e-05
0.00024426338
-1.8911534e-05
-1.554475e-05
0.00017257733
7.7834209e-05
-6.1481563e-06
0.00018542933
-1.5853619e-06
-1.1266644e-05
0.00021655586
-2.8844489e-05
-2.2820401e-06
0.00024042797
-2.0796235e-05
-3.075871e-06
0.00025473106
-1.3005066e-05
-1.298023e-06
0.00026430756
-9.1027387e-06
-4.7375872e-07
0.00027119939
-6.9917343e-06
9.9897332e-08
0.00027613636
-5.7062582e-06
7.6929128e-07
0.00027873998
-4.4505085e-06
1.8468869e-06
0.00027854813
-3.0825582e-06
3.2744067e-06
0.00027175081
4.236451e-07
6.3736779e-06
0.00024484789
1.6083723e-05
1.0819195e-05
0.00014269996
8.5149084e-05
1.6998851e-05
0.00012538422
5.8730626e-06
1.1442672e-05
0.00012765021
-1.4033424e-06
-8.6264448e-07
0.00024561833
-3.7868406e-05
-8.0099715e-05
0.00057631756
-0.00023530206
-9.5397165e-05
0.001015693
-0.00027392082
-0.00016545462
0.00074992429
9.4135532e-05
0.00017163318
0.00026002393
0.00036729855
0.00012260181
0.00012973188
4.0087068e-05
9.0204981e-05
0.00015379856
-2.6375428e-05
2.3087439e-06
0.00020621913
-2.9527638e-05
-2.2892929e-05
0.00024517517
-1.9997115e-05
-1.8958923e-05
0.00017120737
7.6444294e-05
-2.4764941e-06
0.00018066459
-2.1420641e-06
-7.3151605e-06
0.00020963066
-2.9013537e-05
4.747284e-08
0.00023286764
-2.0914875e-05
-2.3221026e-06
0.00024717971
-1.3231366e-05
-1.0807119e-06
0.00025638775
-9.0874539e-06
-1.2058082e-07
0.00026237419
-6.7061086e-06
7.1967044e-07
0.00026474209
-4.5113979e-06
2.1434936e-06
0.00026029851
-8.9469766e-07
5.3382766e-06
0.0002359151
1.4259345e-05
1.0124068e-05
0.00013760946
8.1763139e-05
1.6542501e-05
0.000120915
5.3876345e-06
1.1306827e-05
0.00012369323
-1.9624476e-06
-8.1578152e-07
0.00023872861
-3.7634727e-05
-7.7400654e-05
0.00055970682
-0.00023070566
-9.0272553e-05
0.00098997404
-0.0002747203
-0.00015554692
0.0007256989
9.3586337e-05
0.0001706888
0.00025306388
0.00035358227
0.00011905275
0.00012624579
3.9195613e-05
8.7622471e-05
0.00014896129
-2.5066509e-05
2.3510112e-06
0.00019841117
-2.7387548e-05
-2.206233e-05
0.00023474536
-1.7717778e-05
-1.861641e-05
0.00016397091
7.3629119e-05
-2.8546699e-06
0.00017256203
-1.6624721e-06
-6.9286492e-06
0.00019859016
-2.6700045e-05
6.7191723e-07
0.00021718971
-1.7924488e-05
-6.7506959e-07
0.00022497189
-9.728499e-06
1.9463192e-06
0.00022242583
-3.991505e-06
6.5375718e-06
0.00020805
-7.1491012e-08
1.4447319e-05
0.00018848295
-3.5525858e-06
2.3119633e-05
0.00019534835
-7.0971203e-06
2.3171952e-07
0.00027341055
3.3691447e-05
-0.00011175364
0.00043452144
-0.00011527757
-4.5833314e-05
0.00066345376
-0.0001332253
-9.5707021e-05
0.00071398389
6.2384925e-06
-5.6768626e-05
0.0011034808
4.8311481e-05
-0.00043780837
0.0026502173
-0.0012151243
-0.00033161229
0.004866515
-0.0011468094
-0.0010694883
0.0054572762
-0.00030543974
-0.00028532144
0.0056107475
-8.4497829e-05
-6.8973447e-05
0.0056517143
-2.418207e-05
-1.6784746e-05
0.0056671636
-8.2346061e-06
-7.2147038e-06
0.0056788829
-4.669387e-06
-7.0499194e-06
0.0056909477
-3.827147e-06
-8.2376646e-06
0.0057034583
-3.4942661e-06
-9.0163019e-06
0.0057150307
-2.8001376e-06
-8.7722411e-06
0.0057253073
-2.1592764e-06
-8.117382e-06
0.0057341305
-1.5402139e-06
-7.2829778e-06
0.0057416119
-1.0068246e-06
-6.4745796e-06
0.005747948
-5.6804189e-07
-5.7680616e-06
0.0057533232
-2.0512767e-07
-5.1700669e-06
9.0499527e-08
-4.6771943e-06
-0.0060601652
-1.4194824e-06
2.5693086e-06
2.1131731e-06
-0.0060638917
-2.2036816e-06
4.1541108e-06
1.7761538e-06
-0.0060681601
-3.1004498e-06
5.9648457e-06
1.4039352e-06
-0.00607307
-4.1204899e-06
8.0324977e-06
9.9793936e-07
-0.0060787459
-5.2723708e-06
1.0387459e-05
5.6075682e-07
-0.0060853362
-6.5535803e-06
1.3043773e-05
1.0013127e-07
-0.0060929954
-7.9349369e-06
1.596766e-05
-3.7346812e-07
-0.006101853
-9.3948833e-06
1.9101798e-05
-8.4935e-07
-0.0061119758
-1.0871764e-05
2.230786e-05
-1.3133166e-06
-0.006123345
-1.2279584e-05
2.5390034e-05
-1.741194e-06
-0.0061358513
-1.3536142e-05
2.8149596e-05
-2.1071992e-06
-0.0061493071
-1.457611e-05
3.0428053e-05
-2.3961559e-06
-0.0061634772
-1.53519e-05
3.2119004e-05
-2.5970144e-06
-0.0061781056
-1.5836668e-05
3.3168543e-05
-2.703494e-06
-0.0061929374
-1.6020154e-05
3.3565947e-05
-2.7139636e-06
-1.5905232e-05
3.3325489e-05
-2.6304334e-06
0.0060522363
1.8550999e-05
-4.1505596e-06
0.0060364832
1.9870679e-05
-4.1175034e-06
0.0060196396
2.090804e-05
-4.0644659e-06
0.0060019784
2.1661078e-05
-3.999918e-06
0.0059837699
2.2130257e-05
-3.9217332e-06
0.00596528
2.231723e-05
-3.8273737e-06
0.005946772
2.2232503e-05
-3.7245041e-06
0.0059285001
2.1889726e-05
-3.6177967e-06
0.0059107001
2.1304227e-05
-3.5042076e-06
0.005893585
2.0501297e-05
-3.3861917e-06
0.0058773385
1.9513566e-05
-3.2670804e-06
0.0058621095
1.8375416e-05
-3.1463975e-06
0.0058480092
1.7127057e-05
-3.0267589e-06
0.005835109
1.5812277e-05
-2.9120406e-06
0.0058234408
1.4465308e-05
-2.797114e-06
0.0058130034
1.3116902e-05
-2.6795133e-06
0.0058037684
1.180529e-05
-2.5703192e-06
0.0057956804
1.0557298e-05
-2.4693367e-06
0.0057886643
9.3848639e-06
-2.3686906e-06
0.0057826359
8.2985062e-06
-2.2701162e-06
0.0057775087
7.3016151e-06
-2.1744613e-06
0.0057731925
6.4005311e-06
-2.0843084e-06
0.0057695934
5.5997351e-06
-2.0006069e-06
0.0057666247
4.8895574e-06
-1.9209323e-06
0.0057642086
4.2595318e-06
-1.8434034e-06
0.0057622713
3.7072687e-06
-1.7699351e-06
3.2267631e-06
-1.6980119e-06
-0.0060483052
6.5577536e-06
-1.7856228e-06
-0.0060502773
7.5373884e-06
-1.8579967e-06
-0.0060527427
8.6619153e-06
-1.9369814e-06
-0.0060557766
9.9464501e-06
-2.0230024e-06
-0.0060594796
1.1405246e-05
-2.1025391e-06
-0.006063944
1.3051418e-05
-2.1864608e-06
-0.0060692511
1.4894593e-05
-2.2859236e-06
-0.0060755018
1.6939261e-05
-2.3900603e-06
-0.0060828078
1.9179812e-05
-2.4889378e-06
-0.0060912609
2.1601987e-05
-2.5916107e-06
-0.0061009414
2.4185294e-05
-2.6995035e-06
-0.0061119023
2.6896379e-05
-2.8185147e-06
-0.0061241817
2.9686676e-05
-2.9419474e-06
-0.0061377945
3.2486101e-05
-3.0610447e-06
-0.0061527069
3.522338e-05
-3.1839778e-06
-0.00616884
3.7819314e-05
-3.3107442e-06
-0.0061860764
4.0188642e-05
-3.4386848e-06
-0.0062042583
4.2249849e-05
-3.5667072e-06
-0.0062231851
4.3927489e-05
-3.6963842e-06
-0.0062426303
4.5155923e-05
-3.8210617e-06
-0.0062623382
4.5881548e-05
-3.9411222e-06
-0.006282037
4.6071841e-05
-4.0558541e-06
-0.0063014471
4.5700429e-05
-4.1599751e-06
-0.006320283
4.4748362e-05
-4.2514502e-06
-0.0063382551
4.3209779e-05
-4.3296644e-06
-0.0063550754
4.1083877e-05
-4.3928783e-06
3.8374703e-05
-4.4362673e-06
0.0067520796
6.0217368e-05
-4.9815045e-06
0.0067336768
6.4422402e-05
-4.9357777e-06
0.006714039
6.7714133e-05
-4.8665459e-06
0.0066934771
7.0084144e-05
-4.7739169e-06
0.0066723067
7.1536143e-05
-4.6652579e-06
0.0066508442
7.2079108e-05
-4.5447682e-06
0.0066293927
7.1742725e-05
-4.4096801e-06
0.0066082549
7.0560908e-05
-4.2671947e-06
0.0065877172
6.8593664e-05
-4.1284278e-06
0.0065680283
6.5922849e-05
-3.9841781e-06
0.0065494067
6.2645867e-05
-3.8355595e-06
0.0065320267
5.8881771e-05
-3.682444e-06
0.0065160199
5.4762754e-05
-3.5325886e-06
0.0065014641
5.0426586e-05
-3.3847435e-06
0.0064883916
4.6003052e-05
-3.2438619e-06
0.0064767754
4.1613464e-05
-3.1008582e-06
0.0064665626
3.7358308e-05
-2.9602673e-06
0.0064576865
3.3310466e-05
-2.8323641e-06
0.0064500591
2.9522877e-05
-2.7156081e-06
0.0064435692
2.6032989e-05
-2.6038513e-06
0.0064380846
2.2863883e-05
-2.4846677e-06
0.0064334945
2.0013186e-05
-2.3717394e-06
0.0064297102
1.746694e-05
-2.2773553e-06
0.006426631
1.5214135e-05
-2.1884637e-06
0.0064241442
1.3241135e-05
-2.0923924e-06
0.0064221677
1.1518127e-05
-2.0042577e-06
1.0018995e-05
-1.9248353e-06
-0.0067404087
1.3478399e-05
-2.0167144e-06
-0.0067422863
1.5497856e-05
-2.1020856e-06
-0.0067446787
1.7827733e-05
-2.1942617e-06
-0.0067476788
2.0505799e-05
-2.2915362e-06
-0.0067513932
2.3569479e-05
-2.3881164e-06
-0.0067559344
2.7044511e-05
-2.4900988e-06
-0.0067614162
3.0951728e-05
-2.6060585e-06
-0.0067679651
3.5310142e-05
-2.7282781e-06
-0.0067757205
4.0126371e-05
-2.8481127e-06
-0.0067848142
4.5377424e-05
-2.9732047e-06
-0.0067953613
5.101467e-05
-3.1093322e-06
-0.006807458
5.6966166e-05
-3.255955e-06
-0.0068211759
6.3128503e-05
-3.4075218e-06
-0.0068365532
6.9364523e-05
-3.5606911e-06
-0.0068535753
7.5503973e-05
-3.7191454e-06
-0.0068721651
8.1352954e-05
-3.8813592e-06
-0.0068921818
8.6709916e-05
-4.0473267e-06
-0.0069134287
9.1385488e-05
-4.2157825e-06
-0.0069356618
9.5211294e-05
-4.384461e-06
-0.0069586072
9.8043411e-05
-4.5370995e-06
-0.0069819537
9.9776137e-05
-4.6869507e-06
-0.0070053571
0.00010032709
-4.8445789e-06
-0.0070284771
9.964529e-05
-4.9891085e-06
-0.0070509694
9.7696213e-05
-5.1198493e-06
-0.0070724897
9.4463025e-05
-5.2285695e-06
-0.0070926943
8.9944133e-05
-5.3171435e-06
8.4152553e-05
-5.3815934e-06
0.0072776201
0.00011000079
-5.6169201e-06
0.0072556374
0.00011744538
-5.5185517e-06
0.0072322776
0.00012322063
-5.3977978e-06
0.0072079227
0.00012731002
-5.2589106e-06
0.0071829544
0.00012971701
-5.1034435e-06
0.0071577496
0.00013046393
-4.9320032e-06
0.0071326825
0.0001295977
-4.7544358e-06
0.0071081358
0.00012718353
-4.5934578e-06
0.007084443
0.00012332007
-4.415966e-06
0.0070619146
0.00011815153
-4.2376709e-06
0.0070408224
0.0001118647
-4.062583e-06
0.0070213784
0.00010468904
-3.8920863e-06
0.0070037247
9.6885832e-05
-3.7281655e-06
0.0069879264
8.8733621e-05
-3.5707425e-06
0.006973976
8.0498059e-05
-3.4191997e-06
0.0069618093
7.240549e-05
-3.272591e-06
0.0069513232
6.4633028e-05
-3.1322579e-06
0.0069423881
5.7312688e-05
-3.000229e-06
0.0069348557
5.0535239e-05
-2.8764609e-06
0.006928572
4.4351448e-05
-2.7575692e-06
0.0069233855
3.8778803e-05
-2.6405792e-06
0.0069191509
3.3808019e-05
-2.5288614e-06
0.0069157345
2.9411233e-05
-2.4254259e-06
0.006913014
2.5553245e-05
-2.3269648e-06
0.0069108834
2.2190719e-05
-2.2323511e-06
0.0069092472
1.9275579e-05
-2.1414732e-06
1.6757942e-05
-2.054873e-06
-0.0069380067
1.9733251e-05
-2.0813507e-06
-0.0069392653
2.2703963e-05
-2.1697272e-06
-0.0069409711
2.615795e-05
-2.2614675e-06
-0.0069432185
3.0158453e-05
-2.3577939e-06
-0.0069461165
3.4768598e-05
-2.4593325e-06
-0.0069497923
4.0049794e-05
-2.5659538e-06
-0.006954392
4.6056316e-05
-2.6778807e-06
-0.0069600744
5.2828087e-05
-2.7941948e-06
-0.006967009
6.0383629e-05
-2.9138651e-06
-0.0069753711
6.8712657e-05
-3.0378395e-06
-0.006985336
7.7765371e-05
-3.1673795e-06
-0.0069970685
8.7441839e-05
-3.3038426e-06
-0.00701071
9.7586702e-05
-3.4471912e-06
-0.0070263664
0.00010798873
-3.5986716e-06
-0.0070440893
0.00011836961
-3.7609134e-06
-0.007063847
0.00012838095
-3.9341762e-06
-0.0070855069
0.00013764257
-4.1180127e-06
-0.0071088525
0.00014580684
-4.3097153e-06
-0.0071335928
0.00015256822
-4.507848e-06
-0.0071593863
0.00015768619
-4.709167e-06
-0.0071858711
0.00016098022
-4.897691e-06
-0.0072126365
0.00016233248
-5.1032037e-06
-0.007239272
0.00016165753
-5.3049952e-06
-0.0072653595
0.00015889129
-5.4937523e-06
-0.0072904682
0.0001539959
-5.6665438e-06
-0.0073141593
0.00014695887
-5.8224452e-06
0.00013779495
-5.9574038e-06
0.0072658991
0.00016770446
-6.4466587e-06
0.0072404642
0.00017866077
-6.2669311e-06
0.0072136074
0.00018691937
-6.0667387e-06
0.0071858608
0.00019248712
-5.8491844e-06
0.0071577307
0.00019540392
-5.6163268e-06
0.0071296938
0.00019574571
-5.3762735e-06
0.0071021934
0.00019361015
-5.1295639e-06
0.0070756622
0.00018911625
-4.8988056e-06
0.007050492
0.0001824065
-4.6680938e-06
0.0070270384
0.00017369313
-4.4326842e-06
0.0070055978
0.00016328871
-4.2055992e-06
0.0069863606
0.00015160753
-3.9892925e-06
0.0069694076
0.00013911324
-3.7906439e-06
0.0069546905
0.00012632176
-3.6159658e-06
0.0069420732
0.00011366822
-3.4642246e-06
0.0069313867
0.00010145657
-3.328186e-06
0.006922453
8.9899385e-05
-3.2003342e-06
0.0069150884
7.9154426e-05
-3.0772204e-06
0.0069091061
6.9322365e-05
-2.9564056e-06
0.0069043215
6.0449997e-05
-2.8372918e-06
0.0069005572
5.2540638e-05
-2.7200684e-06
0.0068976487
4.556415e-05
-2.6058294e-06
0.0068954473
3.9465146e-05
-2.4950905e-06
0.0068938243
3.4170769e-05
-2.3893925e-06
0.0068926704
2.9601037e-05
-2.2891271e-06
0.0068918932
2.5675537e-05
-2.194429e-06
2.2314963e-05
-2.1023244e-06
-0.0068327048
2.4417649e-05
-2.1020423e-06
-0.0068329209
2.8089545e-05
-2.1979117e-06
-0.0068334241
3.2399852e-05
-2.2956491e-06
-0.006834301
3.744571e-05
-2.3980157e-06
-0.0068356557
4.3324825e-05
-2.5049954e-06
-0.0068376105
5.0134109e-05
-2.6151631e-06
-0.0068403062
5.7962209e-05
-2.7258058e-06
-0.0068438954
6.6874683e-05
-2.8355081e-06
-0.0068485354
7.690335e-05
-2.9410185e-06
-0.0068543818
8.8041741e-05
-3.0408564e-06
-0.0068615889
0.00010024189
-3.1354238e-06
-0.0068703168
0.00011341328
-3.2288346e-06
-0.006880754
0.00012743865
-3.3331739e-06
-0.0068931535
0.00014219182
-3.4706404e-06
-0.0069078188
0.00015744068
-3.6620712e-06
-0.0069249988
0.00017269532
-3.9078444e-06
-0.0069447704
0.00018724576
-4.1854668e-06
-0.0069670509
0.00020044487
-4.4712201e-06
-0.0069915682
0.00021167724
-4.7534629e-06
-0.0070179431
0.00022052827
-5.037062e-06
-0.007045769
0.00022676233
-5.3263524e-06
-0.0070746183
0.00023021155
-5.6165272e-06
-0.0071040089
0.00023069969
-5.9051207e-06
-0.0071333782
0.00022804997
-6.193587e-06
-0.0071621011
0.00022211819
-6.4759114e-06
-0.0071895066
0.00021281115
-6.744926e-06
0.0002000453
-6.993619e-06
0.0071113285
0.00023558746
-7.5756257e-06
0.0070814514
0.00024991292
-7.2247433e-06
0.0070506471
0.00025978571
-6.8631897e-06
0.0070197254
0.00026546046
-6.4887802e-06
0.0069894787
0.00026706668
-6.1203247e-06
0.0069606258
0.00026483679
-5.7723568e-06
0.0069336897
0.00025913394
-5.4354257e-06
0.0069090386
0.0002502693
-5.0899499e-06
0.0068870678
0.00023837522
-4.7272394e-06
0.006868226
0.00022364213
-4.355409e-06
0.0068527659
0.00020667344
-3.9676077e-06
0.0068404952
0.00018854802
-3.582024e-06
0.0068309179
0.00017026739
-3.2493916e-06
0.0068233067
0.00015283922
-3.0361581e-06
0.0068170277
0.00013666013
-2.9425369e-06
0.0068117331
0.00012162477
-2.9168122e-06
0.0068073043
0.00010757483
-2.9041495e-06
0.0068037095
9.4513196e-05
-2.8766672e-06
0.0068009234
8.2515968e-05
-2.82658e-06
0.006798873
7.1680133e-05
-2.7550057e-06
0.00679751
6.1993124e-05
-2.6678988e-06
0.0067967065
5.350916e-05
-2.5715628e-06
0.0067963482
4.6152942e-05
-2.4697897e-06
0.0067963301
3.9830402e-05
-2.3665961e-06
0.0067965829
3.4412917e-05
-2.2659129e-06
0.0067969957
2.9846494e-05
-2.1696825e-06
2.5960292e-05
-2.0740888e-06
-0.0067995469
2.6872297e-05
-2.0243352e-06
-0.0067984415
3.0861526e-05
-2.1203855e-06
-0.0067974032
3.5591181e-05
-2.2165956e-06
-0.0067964432
4.118385e-05
-2.3134699e-06
-0.006795643
4.7761256e-05
-2.4084697e-06
-0.0067950726
5.5433909e-05
-2.4951724e-06
-0.0067947911
6.4278838e-05
-2.5671602e-06
-0.0067947987
7.430408e-05
-2.6163998e-06
-0.0067950758
8.5425543e-05
-2.6324947e-06
-0.0067954397
9.747921e-05
-2.6021023e-06
-0.006795628
0.00011028145
-2.5183273e-06
-0.006795347
0.00012373382
-2.390037e-06
-0.006794443
0.00013802455
-2.2684368e-06
-0.0067933119
0.00015397795
-2.2698444e-06
-0.006793143
0.00017260653
-2.5080162e-06
-0.0067957523
0.00019414169
-2.9843698e-06
-0.0068026411
0.00021712068
-3.558432e-06
-0.0068145979
0.00023972086
-4.1218948e-06
-0.006831216
0.00025962191
-4.628567e-06
-0.0068517425
0.00027586725
-5.0714729e-06
-0.0068758712
0.00028871743
-5.454841e-06
-0.0069035158
0.0002983077
-5.8262609e-06
-0.0069340765
0.00030387329
-6.2459114e-06
-0.0069664428
0.0003045591
-6.7323155e-06
-0.0069995768
0.00030016102
-7.2413027e-06
-0.0070327208
0.00029078644
-7.7295666e-06
0.00027593764
-8.2396411e-06
0.0069438727
0.00032368655
-9.1159154e-06
0.0069066539
0.00033624124
-8.2360089e-06
0.0068710727
0.00034329392
-7.5516722e-06
0.0068371715
0.00034530783
-6.8475221e-06
0.0068064945
0.00034073492
-6.1846664e-06
0.0067813577
0.00032909413
-5.6495913e-06
0.00676261
0.00031273918
-5.2740298e-06
0.0067492078
0.0002942591
-4.9896682e-06
0.0067409676
0.00027244355
-4.5814677e-06
0.006739882
0.00024471645
-3.9099388e-06
0.0067473562
0.00021268047
-3.0339781e-06
0.0067613142
0.00018234327
-2.1596477e-06
0.0067778598
0.00015755503
-1.494098e-06
0.0067929889
0.00014010087
-1.2519919e-06
0.0068046885
0.00012771696
-1.3919938e-06
0.006812927
0.00011720745
-1.7121944e-06
0.0068185589
0.00010666667
-2.0171078e-06
0.0068224797
9.5791737e-05
-2.2332549e-06
0.0068254151
8.4848692e-05
-2.3585535e-06
0.0068278665
7.4262547e-05
-2.4099514e-06
0.0068301178
6.4435119e-05
-2.407535e-06
0.0068322904
5.5628204e-05
-2.3668687e-06
0.0068344117
4.7939441e-05
-2.2994993e-06
0.0068364669
4.1344072e-05
-2.2154636e-06
0.0068384326
3.5748838e-05
-2.1233065e-06
0.0068402891
3.1033393e-05
-2.0283549e-06
2.7071524e-05
-1.9329894e-06
-0.006903905
2.6462946e-05
-1.7779472e-06
-0.0069012484
3.0250307e-05
-1.8735503e-06
-0.0068983043
3.4772347e-05
-1.9676652e-06
-0.0068950553
4.0150503e-05
-2.0554042e-06
-0.0068914776
4.6491335e-05
-2.129599e-06
-0.0068875178
5.3847483e-05
-2.1790992e-06
-0.0068830433
6.2153268e-05
-2.1926017e-06
-0.0068777678
7.1143703e-05
-2.1566739e-06
-0.006871156
8.0292786e-05
-2.0558612e-06
-0.0068623486
8.8853639e-05
-1.8693575e-06
-0.0068501186
9.6018066e-05
-1.5813378e-06
-0.0068327834
0.00010107554
-1.2033028e-06
-0.0068080674
0.00010380241
-8.0147094e-07
-0.006774363
0.00010694097
-5.4446239e-07
-0.0067339207
0.00011777373
-6.6106862e-07
-0.006694691
0.00014451513
-1.4014889e-06
-0.0066662447
0.0001871308
-2.8966942e-06
-0.0066539169
0.00023709181
-4.7031122e-06
-0.0066520937
0.00027615682
-5.5364517e-06
-0.0066544872
0.00030165437
-5.001784e-06
-0.0066644055
0.00032705716
-4.3996802e-06
-0.0066868183
0.00035630593
-4.7990079e-06
-0.0067192622
0.00037884319
-5.6643237e-06
-0.0067557788
0.00038830894
-6.4845604e-06
-0.006793355
0.0003882434
-7.3732752e-06
-0.0068342976
0.00038556277
-8.3789102e-06
0.00038107372
-1.0033201e-05
0.0068306213
0.00044369168
-5.1649677e-05
0.0067609385
0.00045554382
-1.8583917e-05
0.0067045455
0.00044687764
-9.4109572e-06
0.0066654887
0.00043171869
-7.099036e-06
0.0066293062
0.00043022597
-5.8000999e-06
0.0065875097
0.00043525213
-5.146652e-06
0.0065473324
0.00042339927
-4.3787915e-06
0.006523528
0.00038204294
-1.932619e-06
0.0065265576
0.00032455737
-5.2984191e-07
0.006537643
0.00029625223
-5.6832352e-06
0.0065411052
0.00028473272
-1.2038152e-05
0.006561442
0.00022695311
-1.0198034e-05
0.0066183669
0.00013415436
-3.9485452e-06
0.0066943027
6.9660653e-05
-1.081271e-06
0.0067646357
4.8891728e-05
-1.4509754e-06
0.0068161213
5.7530476e-05
-2.0751896e-06
0.0068505254
7.1245096e-05
-1.8467685e-06
0.0068745552
7.8507756e-05
-1.461977e-06
0.006892101
7.9856972e-05
-1.3847588e-06
0.0069052805
7.7185359e-05
-1.5111775e-06
0.0069154134
7.1812459e-05
-1.6526061e-06
0.0069235184
6.4793035e-05
-1.7542522e-06
0.0069302482
5.7233866e-05
-1.8104392e-06
0.0069360327
4.9884439e-05
-1.821503e-06
0.0069410948
4.3223023e-05
-1.7937121e-06
0.0069455536
3.7426871e-05
-1.7352067e-06
0.006949483
3.2500594e-05
-1.6576541e-06
0.0069529386
2.8364738e-05
-1.5700722e-06
2.4909406e-05
-1.4793119e-06
-0.0069238651
2.2189797e-05
-9.5502408e-07
-0.0069196219
2.5159889e-05
-1.038358e-06
-0.0069147263
2.8722857e-05
-1.117816e-06
-0.0069090857
3.2972284e-05
-1.1860286e-06
-0.006902588
3.7958844e-05
-1.2335549e-06
-0.0068950813
4.3628878e-05
-1.2511309e-06
-0.0068863239
4.9711605e-05
-1.2351241e-06
-0.0068759424
5.5600878e-05
-1.189328e-06
-0.0068633089
6.0317131e-05
-1.1382118e-06
-0.006847777
6.2797526e-05
-1.1440217e-06
-0.0068289795
6.2533243e-05
-1.4737657e-06
-0.0068064283
5.9049124e-05
-3.0925715e-06
-0.0067749034
4.730903e-05
-7.5888435e-06
-0.0067203967
1.5473536e-05
-1.2449771e-05
-0.0066235692
-3.7909155e-05
-1.0026602e-05
-0.0064962564
-5.5903837e-05
-1.7483868e-06
-0.0063962799
3.8484489e-05
-4.306624e-06
-0.0063745701
0.00024092467
-3.5681358e-05
-0.0063867329
0.0003526065
-5.5710949e-05
-0.0062969189
0.00022081329
-1.4375022e-05
-0.0062846256
0.00029346571
1.8798312e-05
-0.0063293672
0.00041604302
1.0741513e-05
-0.0063862523
0.0004796254
6.5900925e-07
-0.0064336523
0.00048578568
-3.1335619e-06
-0.0064502461
0.00044803111
-1.2112849e-06
-0.0064592074
0.00043828474
2.3952352e-06
-0.0065242403
0.00050582235
6.0881235e-06
-0.0066217181
0.00055760142
-4.5797527e-06
0.00054060246
-7.5088528e-05
0.00044341731
-0.00029544064
0.001350609
-0.00023122893
0.005817076
0.00081280115
-0.00065429778
0.0058247834
-0.00050485638
0.0009905553
4.7196114e-05
0.0056565389
-0.00041749491
0.0010202655
0.00012307528
0.0056025122
-0.00047126314
0.00092157635
0.00010953589
0.0056619567
-0.00055303984
0.00085049038
8.1389706e-05
0.0058769642
-0.00056671719
0.00086741143
-6.7670622e-05
0.0059994945
-0.00047335648
0.00090387793
-6.7266052e-05
0.0058770082
-0.00039869394
0.00090950788
9.1297682e-05
0.0057963165
-0.00042900954
0.00082702978
9.8714472e-05
0.0057495067
-0.00050201662
0.00072837319
0.000113919
0.0061088174
-0.00059723217
0.00034009103
0.00011864368
0.0059912813
0.00091157668
-0.00044143408
0.0060325649
0.00025743389
-5.779281e-05
0.0061867384
-0.0001220351
6.3460876e-06
0.0064634786
-0.00030927288
-2.3371141e-05
0.006585004
-8.296341e-05
-7.6471144e-05
0.0066218718
4.1539624e-05
-6.293394e-05
0.0066319883
5.9231635e-05
-2.2039048e-05
0.0066472096
4.9590649e-05
-5.7628515e-06
0.0066641102
4.6405842e-05
-7.7322911e-07
0.0066798674
4.6614045e-05
4.2629317e-07
0.0066936608
4.5904871e-05
6.1893545e-07
0.0067055641
4.3165361e-05
5.3219272e-07
0.0067158456
3.9058923e-05
3.7119672e-07
0.0067247474
3.4508279e-05
2.187894e-07
0.0067324551
3.0142298e-05
1.0881387e-07
0.0067391145
2.6264644e-05
4.8200851e-08
0.0067448579
2.2952074e-05
2.7395341e-08
0.0067498099
2.0175557e-05
3.2393056e-08
1.7866413e-05
5.0883807e-08
-0.0064219299
1.189695e-05
1.0823558e-06
-0.0064162522
1.3414119e-05
1.0836627e-06
-0.0064096393
1.5253958e-05
1.0852766e-06
-0.006401936
1.7462426e-05
1.0989292e-06
-0.0063929906
2.0060552e-05
1.1362841e-06
-0.0063826702
2.2974958e-05
1.2129683e-06
-0.0063709013
2.59615e-05
1.3284644e-06
-0.0063577196
2.853005e-05
1.453655e-06
-0.0063433195
2.9985594e-05
1.5191788e-06
-0.0063282305
3.0367851e-05
1.15714e-06
-0.0063129746
3.2043829e-05
-8.9383215e-07
-0.0062987058
4.5124348e-05
-9.8025378e-06
-0.0062941326
9.8081353e-05
-4.3422869e-05
-0.0062924694
0.00021243636
-0.00017255996
-0.0059634715
0.00025930132
-0.00067126259
-0.0051302886
-0.0009699869
-2.2582012e-05
-0.00014988692
-0.0050456338
-0.00069730827
0.00045817894
3.2439445e-05
-0.005069014
-0.00046526874
0.00071745906
2.8623785e-05
-0.0016091927
-0.00030564824
0.00084882636
-0.0025403793
-0.0005510434
0.0012239673
-0.00058785038
-0.0012039318
-0.0010413779
0.0012276646
-0.00018075647
-0.00012858904
0.0017629008
9.3677913e-05
0.00021991219
0.0012312275
7.2616484e-05
-6.2118594e-06
0.0017457034
4.104433e-05
0.0001619388
0.0012002441
-4.66442e-05
-0.00010520477
0.0016921522
-8.3872031e-05
5.0142832e-05
0.0010402612
-0.00013815349
-0.0001799424
0.0011446376
-9.844084e-05
-2.8517492e-05
0.00018870966
-0.00063933879
-0.0010686609
0.0026639276
-0.00011320205
-0.00088944184
-0.0010736296
0.0022649832
-0.000737417
-0.00054259785
-0.00076791495
8.5035499e-06
2.8232897e-05
-0.00026284226
-1.4948088e-06
-0.0004350314
-0.00020177179
-7.8047513e-06
-0.00010162826
-5.2850067e-05
-0.00010055919
-0.00010015171
-2.2930617e-05
-5.1524082e-05
-1.4936177e-05
-0.00015071361
-2.0212292e-05
1.7773559e-05
-0.00017406184
5.4356936e-06
1.0815425e-05
-0.00020468933
1.4871042e-05
1.2203857e-05
-0.00021835702
1.972577e-06
1.1623618e-05
-0.00022032714
-6.3719169e-06
4.3505358e-06
-0.00021424259
-1.563392e-05
-1.7912577e-07
-0.00019884807
-2.9327702e-05
-3.9913039e-06
-0.00015038703
-7.0278749e-05
-4.8823429e-06
-0.00014697242
-5.0770793e-06
-7.4146479e-05
8.0317822e-07
-0.00020578845
-4.9336217e-05
0.00018875573
-7.7775423e-06
-0.000166079
-4.0319311e-05
-1.7107914e-05
-0.00012505126
-1.2268206e-05
-5.6147083e-05
-9.1657229e-05
-5.0453309e-05
-8.0072338e-06
-7.9308474e-05
2.6846858e-05
0.00019963299
7.4640812e-05
-7.0142164e-05
3.4524614e-05
0.00018479723
-0.001311747
-0.00015525396
0.0010530895
5.2465638e-05
0.00029130361
-0.0012543573
0.00018930555
-0.00015310892
-0.00045493262
-0.00020240802
-0.00058922888
-0.00028250807
4.6894946e-05
-7.827467e-05
-0.00023527486
-0.00018827804
-0.00012133678
-6.2473936e-05
-0.00012564253
-3.3328974e-05
-0.00012093553
-1.8033483e-05
1.1364031e-05
-0.00011705051
1.502617e-06
-4.1680237e-05
6.3928659e-06
-0.00025913634
-1.3678589e-05
0.00020867023
2.2464463e-05
-0.00025350216
-3.0915664e-06
1.1716733e-05
-0.00025714233
-2.2167142e-06
4.9621806e-06
-0.00025548654
-7.1977948e-06
1.0306089e-06
-0.00025044145
-1.1293635e-05
-4.5756692e-07
-0.00024236335
-1.5759386e-05
-1.4061674e-06
-0.00023038266
-2.2441265e-05
-2.7707874e-06
-0.00021114481
-3.4846861e-05
-5.3058702e-06
-0.00015785372
-7.6786615e-05
-5.5180083e-06
-0.00015467259
-5.3231932e-06
-7.9269014e-05
1.0407157e-06
-0.00021622728
-5.5708828e-05
0.00020040893
-7.741839e-06
-0.00017351449
-4.5199941e-05
-1.7509961e-05
-0.00012962793
-1.2665583e-05
-6.0748615e-05
-9.4153667e-05
-5.3532091e-05
-8.3175997e-06
-8.1792049e-05
2.772545e-05
0.00020793062
7.7575885e-05
-7.5732292e-05
3.7207133e-05
0.00019292369
-0.0013419418
-0.00023328904
0.0011351567
4.7302915e-05
0.00031703899
-0.0012730556
-0.00013556526
0.00016081458
-0.00047081521
-0.00016062657
-0.00060179659
-0.00031373806
4.4939686e-05
-7.7190103e-05
-0.00024478514
-0.00019377964
-0.00012570768
-6.4654692e-05
-0.00012927215
-3.4303937e-05
-0.00012523734
-1.7069705e-05
1.1631549e-05
-0.00012083468
1.4704054e-06
-4.2180869e-05
6.4952697e-06
-0.00026853367
-1.1459528e-05
0.00021528477
2.2527559e-05
-0.00026406808
-7.5772369e-07
1.2375848e-05
-0.0002697122
2.3771792e-07
5.8300502e-06
-0.00027032533
-4.3696939e-06
1.900264e-06
-0.00026790418
-7.3033727e-06
4.3171552e-07
-0.00026353619
-9.6266848e-06
-4.4755747e-07
-0.00025741484
-1.2095386e-05
-1.0177031e-06
-0.00024903201
-1.5773639e-05
-1.7119335e-06
-0.00023682872
-2.2041289e-05
-3.1670676e-06
-0.00021685474
-3.4370584e-05
-6.3996222e-06
-0.00016071613
-7.7148708e-05
-7.8343929e-06
-0.00015579444
-6.5070567e-06
-7.8159771e-05
1.9954202e-07
-0.00021689812
-5.4304441e-05
0.00020270591
-9.6631184e-06
-0.00017670722
-1.641694e-05
-4.2685494e-05
-0.00013737787
-5.8253023e-05
-1.0244048e-05
-0.00010071031
-5.4845878e-05
-7.719616e-06
-8.2522879e-05
2.9913597e-05
0.00024580273
8.1696437e-05
-4.5477589e-05
0.00020009326
3.6341178e-05
-0.0013228197
-0.00020054318
0.0011022725
0.00031757462
5.8038107e-05
-0.0013411924
-4.8055642e-05
0.00023469344
-0.0013884974
1.7529861e-05
5.0928049e-05
2.3219704e-06
1.5354716e-05
0.005838937
7.169945e-06
1.7362641e-06
0.0058297267
7.3520374e-06
1.8582247e-06
0.0058203431
7.4630706e-06
1.9205617e-06
0.0058109099
7.502557e-06
1.9306487e-06
0.0058015356
7.4871745e-06
1.8870725e-06
0.0057923142
7.4241689e-06
1.7972214e-06
0.0057833313
7.3141608e-06
1.6687706e-06
0.0057746648
7.1614058e-06
1.5051527e-06
0.0057663766
6.9764594e-06
1.3116498e-06
0.0057585093
6.7728959e-06
1.0944859e-06
0.0057510922
6.5497398e-06
8.6736456e-07
0.0057441487
6.3074769e-06
6.3600776e-07
0.0057376897
6.0595145e-06
3.9942885e-07
0.0057317108
5.8189743e-06
1.599832e-07
0.0057261991
5.5857003e-06
-7.401509e-08
0.0057211446
5.3473546e-06
-2.928507e-07
5.1166708e-06
-5.0020219e-07
4.4508537e-05
-0.0070641491
5.4714574e-06
4.1699184e-05
-0.0070667144
5.3718436e-06
3.8978543e-05
-0.0070693401
5.2315226e-06
3.638769e-05
-0.0070720317
5.068922e-06
3.3893525e-05
-0.0070747144
4.8975727e-06
3.149894e-05
-0.0070774302
4.7274586e-06
2.9240638e-05
-0.0070802311
4.5652901e-06
2.708535e-05
-0.0070831112
4.4164454e-06
2.5016346e-05
-0.0070862955
4.2842921e-06
2.3016941e-05
-0.0070903669
4.1716869e-06
2.1069314e-05
-0.0070966991
4.0804853e-06
1.9153892e-05
-0.0071080407
4.0122816e-06
1.725131e-05
-0.0071288841
3.968409e-06
1.5343856e-05
-0.0071644381
3.9488308e-06
1.3418155e-05
-0.0072162359
3.9496944e-06
1.1467386e-05
-0.007272954
3.96184e-06
9.4888932e-06
-0.007298158
3.9726608e-06
7.4809136e-06
-0.0072251366
3.9630624e-06
5.4624416e-06
-0.006984435
3.8900576e-06
3.5084103e-06
-0.0065748245
3.7061255e-06
-0.0061121507
3.4369682e-06
-3.6585118e-06
-0.0061142116
3.9494132e-06
-5.6904448e-06
-0.0065770555
4.2629255e-06
-7.7867406e-06
-0.0069868153
4.4766162e-06
-9.8750625e-06
-0.0072276084
4.5601627e-06
-1.1929342e-05
-0.0073006745
4.5708191e-06
-1.3953521e-05
-0.0072754873
4.5574484e-06
-1.5951145e-05
-0.0072187793
4.5410619e-06
-1.792896e-05
-0.0071669965
4.5362015e-06
-1.9900098e-05
-0.0071314657
4.5527577e-06
-2.1882121e-05
-0.0071106532
4.5945267e-06
-2.3894397e-05
-0.007099348
4.6611843e-06
-2.5956385e-05
-0.0070930558
4.7509197e-06
-2.808701e-05
-0.0070890262
4.8613927e-06
-3.03045e-05
-0.0070858847
4.9910246e-06
-3.2625873e-05
-0.0070830476
5.1378838e-06
-3.5063084e-05
-0.0070802918
5.2988405e-06
-3.76198e-05
-0.0070776262
5.468536e-06
-4.0315238e-05
-0.0070749757
5.6394313e-06
-4.3081338e-05
-0.0070723756
5.8015984e-06
-4.5955647e-05
-0.0070697811
5.9410006e-06