/*--------------------------------*- C++ -*----------------------------------*\
| =========                 |                                                 |
| \\      /  F ield         | OpenFOAM: The Open Source CFD Toolbox           |
|  \\    /   O peration     | Version:  v2012                                 |
|   \\  /    A nd           | Website:  www.openfoam.com                      |
|    \\/     M anipulation  |                                                 |
\*---------------------------------------------------------------------------*/
FoamFile
{
    version     2.0;
    format      ascii;
    class       volScalarField;
    location    "100";
    object      nut;
}
// * * * * * * * * * * * * * * * * * * * * * * * * * * * * * * * * * * * * * //

dimensions      [0 2 -1 0 0 0 0];


internalField   nonuniform List<scalar> 
74980
(
0.033495019
0.033495197
0.033524357
0.033524186
0.033524252
0.033524116
0.03352415
0.033524014
0.033524105
0.033524093
0.033524108
0.033524095
0.033524083
0.033524076
0.033524073
0.033524072
0.033524072
0.033524073
0.033524075
0.033524083
0.033524095
0.033524108
0.033524093
0.033524105
0.033524014
0.03352415
0.033524116
0.033524252
0.033524186
0.033524357
0.033524318
0.033524497
0.033524419
0.033524546
0.033524515
0.033524515
0.033524484
0.033524464
0.033524454
0.033524451
0.033524451
0.033524453
0.033524454
0.033524455
0.033524457
0.033524458
0.033524459
0.03352446
0.033524461
0.033524462
0.033524463
0.033524463
0.033524464
0.033524465
0.033524465
0.033524466
0.033524466
0.033524466
0.033527836
0.033527831
0.033527826
0.033527821
0.033527811
0.033527761
0.033527307
0.03352673
0.033526132
0.033525578
0.03352512
0.033524795
0.033524605
0.033524518
0.033524487
0.033524477
0.033524472
0.033524468
0.033524466
0.033524466
0.033524475
0.033524493
0.033524521
0.033524519
0.033524549
0.033524421
0.033524498
0.033524318
0.033495228
0.033494864
0.033494981
0.033494935
0.033495051
0.033495042
0.033495039
0.033495015
0.033495002
0.033494998
0.033495001
0.033495008
0.03349502
0.033495049
0.033495144
0.033495414
0.033495995
0.033496978
0.03349835
0.033500002
0.033501768
0.033503447
0.033504719
0.033504892
0.033504926
0.03350494
0.033504952
0.033504964
0.018835632
0.019570935
0.02030407
0.021039475
0.021775258
0.022507341
0.023232509
0.023947283
0.024648985
0.025334308
0.02599943
0.026642423
0.02725864
0.02784803
0.028406521
0.028931925
0.029421027
0.029873922
0.030289821
0.030668544
0.031010335
0.031314754
0.031583387
0.031817395
0.032019998
0.032193252
0.032340265
0.032463778
0.032567461
0.032654102
0.032726845
0.032788211
0.032840548
0.032885965
0.032926199
0.032962714
0.032996639
0.033028805
0.033059858
0.033090249
0.033120302
0.033150232
0.033180189
0.033210284
0.03324062
0.03327131
0.033302502
0.033334309
0.033366826
0.033399823
0.033432874
0.033465055
0.033495523
0.033495197
0.033464441
0.033432129
0.033399231
0.033366396
0.033334086
0.033302406
0.033271309
0.033240671
0.033210365
0.033180278
0.033150313
0.033120354
0.03309025
0.033059775
0.033028593
0.03299623
0.032962033
0.032925133
0.032884374
0.032838218
0.032784912
0.032722289
0.03264811
0.03255976
0.03245404
0.032327971
0.032177883
0.032000818
0.031794459
0.031556623
0.031283636
0.030973833
0.030627261
0.030244887
0.029826211
0.029370071
0.028877784
0.028348673
0.027786443
0.027194012
0.026577762
0.025933772
0.025266725
0.024579194
0.023876288
0.023161178
0.022435632
0.021704299
0.020972115
0.02024461
0.019520637
0.018795322
0.018624426
0.018630122
0.018637508
0.018637497
0.018646657
0.018668531
0.018704526
0.018731841
0.018758839
0.018738264
0.018700662
0.018670878
0.018672169
0.01873815
0.018850662
0.019026625
0.019189124
0.019255565
0.01930664
0.019332229
0.019352453
0.019370827
0.019367221
0.019395989
0.019417526
0.019392352
0.019337461
0.019390094
0.019417574
0.019413368
0.01945446
0.019484787
0.019515532
0.019486304
0.019452535
0.019424552
0.019404012
0.019394236
0.019386075
0.019377996
0.019385333
0.019395293
0.019371922
0.019405676
0.020159631
0.02012844
0.020148295
0.020132269
0.020123498
0.020131365
0.020142076
0.020150154
0.020172106
0.020196132
0.020231255
0.020261837
0.020227167
0.020198214
0.020151268
0.020156502
0.020138711
0.020089656
0.020140603
0.020165884
0.020142945
0.020110643
0.020117014
0.020096587
0.020077111
0.020049574
0.019997401
0.019930499
0.019762887
0.019583996
0.019471083
0.020198785
0.020312251
0.02049592
0.020665779
0.02073365
0.020785357
0.020817373
0.020833053
0.020858373
0.020846143
0.020884835
0.020906704
0.020883858
0.020837473
0.02088046
0.020893984
0.020890111
0.020938124
0.020968151
0.021003686
0.020974187
0.02093671
0.020917962
0.020892818
0.020888916
0.020874251
0.020869043
0.02087441
0.020896167
0.020881678
0.020913168
0.021660384
0.021632912
0.021641652
0.021614922
0.021619229
0.021619963
0.021640482
0.021638057
0.021668388
0.021679684
0.021720825
0.021743537
0.021712333
0.021676316
0.021626592
0.021634395
0.021619455
0.021583089
0.021624405
0.021645568
0.021624513
0.021583773
0.021598324
0.021571998
0.021556395
0.021524138
0.021474411
0.021400841
0.021228264
0.0210452
0.020932819
0.021663269
0.021782114
0.02195886
0.022132002
0.022215551
0.022266244
0.022294555
0.022312797
0.022336246
0.022323714
0.022362963
0.022379214
0.022360488
0.02232485
0.022358454
0.022371065
0.022360034
0.022409228
0.022454897
0.022482977
0.022466922
0.022425231
0.022419466
0.022386064
0.022392805
0.022368635
0.022369744
0.022354291
0.022383677
0.022379447
0.022406186
0.023140485
0.023118848
0.023118555
0.023092214
0.023106344
0.023108292
0.023130119
0.023124787
0.023155477
0.023161399
0.023198613
0.023212302
0.023183393
0.023134764
0.023092051
0.023102618
0.023089636
0.023059626
0.023088939
0.023105812
0.02309257
0.023056671
0.023066063
0.023045947
0.023024576
0.023000522
0.022943747
0.022857219
0.022689612
0.022519347
0.022401833
0.02312922
0.023242798
0.023414775
0.023572566
0.02365941
0.023726292
0.023742324
0.023770574
0.023785675
0.023780167
0.023809947
0.023820764
0.023806938
0.023784018
0.023811745
0.023822518
0.023816421
0.023849078
0.023900539
0.023927463
0.023916452
0.023886132
0.023878603
0.02385219
0.023854678
0.023836999
0.02383174
0.023820364
0.023843179
0.023846899
0.023867046
0.024575849
0.024560922
0.024553243
0.024534832
0.024542878
0.024551809
0.024564142
0.024565441
0.024586556
0.024596611
0.024619831
0.024629136
0.024604196
0.024553855
0.024526571
0.024526125
0.024518707
0.024495585
0.024511579
0.024522584
0.024513341
0.024490653
0.024491156
0.024476377
0.024451111
0.024434274
0.024367423
0.024276678
0.024122767
0.023955131
0.023850011
0.024558051
0.024660435
0.024817002
0.024964825
0.025061737
0.025125701
0.025145475
0.025165044
0.025179848
0.02518451
0.025200259
0.02520722
0.025199919
0.025190105
0.025206965
0.025211644
0.025223104
0.025248736
0.025293522
0.025313124
0.02530584
0.025291273
0.025277037
0.025263194
0.025256298
0.025251121
0.025236538
0.025233643
0.02524673
0.025259342
0.025270027
0.025941343
0.025932467
0.025919924
0.025907913
0.025914961
0.02592498
0.025927455
0.025935154
0.025946339
0.025960263
0.025971414
0.025977376
0.025961756
0.025922687
0.025894873
0.025881186
0.02587567
0.025865206
0.025869088
0.025872623
0.025866918
0.025858761
0.025849823
0.025833871
0.025815935
0.025796778
0.025731984
0.025634887
0.0254934
0.025348996
0.02524889
0.025913438
0.026019547
0.026149319
0.026282865
0.026379226
0.026443071
0.026461664
0.026477445
0.026496188
0.02651144
0.026510843
0.026518897
0.026515453
0.026519149
0.026524467
0.026528639
0.026542203
0.026574552
0.026604761
0.026617363
0.026613823
0.026601736
0.026591965
0.026580335
0.026574832
0.026571201
0.026572658
0.026557897
0.026569745
0.026578718
0.026591419
0.027214821
0.027202783
0.027199715
0.027187055
0.027199571
0.027195007
0.027197739
0.027200604
0.027212447
0.027220232
0.027231187
0.027235544
0.027221422
0.02719616
0.027167535
0.027151366
0.027152082
0.027143649
0.027141248
0.027140477
0.027129113
0.027134485
0.027122111
0.027099468
0.027087288
0.027065543
0.02700204
0.02691001
0.026786261
0.026663133
0.026562732
0.027184428
0.027279915
0.027399487
0.02751729
0.027598642
0.027659543
0.027687858
0.02769883
0.027722474
0.027728905
0.027720486
0.027731743
0.027739867
0.027737634
0.027753861
0.027751034
0.027767054
0.027788689
0.027812325
0.027825318
0.02782116
0.027816168
0.027805934
0.027791971
0.027794483
0.027794033
0.027797796
0.027787879
0.02780481
0.027803878
0.027815356
0.028380965
0.028372904
0.028372751
0.028356841
0.028363011
0.028361448
0.028359422
0.028356115
0.028368988
0.028376673
0.028379321
0.028382637
0.028371958
0.028349373
0.028330935
0.028318447
0.028320855
0.028303923
0.028304116
0.028292353
0.028285745
0.028292581
0.028287632
0.028266312
0.028253698
0.028223204
0.028165022
0.028090266
0.027979755
0.027867666
0.027778405
0.028336782
0.028421601
0.02852558
0.028628281
0.028698533
0.028753232
0.02878431
0.028800136
0.028818013
0.028820156
0.028819724
0.028820934
0.028833918
0.028836693
0.028852015
0.028851613
0.028859365
0.028873997
0.028896125
0.028905662
0.028903814
0.028900848
0.028899504
0.028890151
0.028889996
0.02889596
0.028894114
0.028890735
0.028904536
0.028907286
0.028912921
0.029410384
0.029406268
0.029400313
0.029389033
0.029389665
0.029392079
0.029387479
0.029387716
0.029393764
0.029392362
0.02939389
0.029393973
0.029385312
0.029363636
0.029355556
0.029349601
0.029347268
0.029334211
0.029329069
0.029317838
0.029314936
0.029315263
0.029313738
0.029299453
0.029280455
0.029249576
0.029201947
0.029135027
0.029041581
0.028943513
0.028867925
0.029362602
0.029431933
0.029524857
0.02961111
0.029671952
0.02971164
0.029740105
0.029762729
0.029773625
0.029777627
0.02977302
0.029779144
0.029787073
0.02979488
0.029804666
0.029810459
0.029816272
0.029818141
0.029838456
0.029847697
0.029848474
0.029850315
0.029850218
0.029848744
0.029848844
0.029850119
0.029847213
0.029850283
0.029858401
0.029867944
0.029872848
0.030293035
0.030288521
0.030278274
0.030271439
0.030270109
0.030270275
0.030269278
0.030268767
0.030268158
0.030267575
0.030265697
0.030264438
0.030254618
0.030237861
0.030236664
0.030230413
0.030224102
0.030215455
0.030207508
0.030200731
0.030193379
0.030199073
0.030195771
0.030186177
0.030162975
0.03013686
0.030102083
0.030046493
0.02996886
0.02988387
0.029821131
0.030239059
0.030296526
0.030373598
0.030442009
0.030493246
0.030522859
0.030547556
0.03056942
0.030578386
0.03058087
0.030575183
0.030582095
0.030589383
0.030595668
0.03060476
0.030609618
0.030617414
0.030620087
0.030634052
0.030642051
0.030643526
0.030644816
0.030647093
0.030647925
0.03064964
0.03065002
0.03065548
0.030652952
0.030658929
0.030668011
0.030674253
0.031016838
0.031011008
0.031004175
0.030998634
0.031000475
0.030993263
0.030992717
0.030989617
0.030988643
0.03098577
0.030984249
0.030982646
0.030976062
0.030964992
0.030960925
0.030952739
0.030948682
0.030940036
0.030934655
0.030927607
0.030922396
0.030927466
0.03092416
0.030915857
0.030895331
0.03087335
0.030847871
0.030801768
0.030741687
0.030673797
0.030624086
0.030971254
0.031015945
0.031073465
0.031126603
0.03116632
0.03118915
0.031206656
0.03122523
0.031233149
0.031237224
0.031234186
0.031238952
0.031244016
0.031249409
0.031256228
0.031260715
0.031267458
0.031272292
0.031280951
0.031286025
0.03128857
0.031291995
0.031293416
0.031293682
0.03129926
0.031300459
0.031307506
0.031306611
0.031313097
0.031318701
0.0313241
0.031593939
0.031589444
0.031583835
0.031577972
0.031577605
0.03157117
0.031569468
0.031563273
0.031562746
0.031560944
0.031557437
0.031554133
0.031550241
0.031543874
0.031538317
0.031532864
0.031528138
0.031522928
0.031517668
0.03151281
0.031509781
0.031510592
0.031506638
0.031499584
0.031484121
0.031469462
0.031449072
0.031415552
0.031370932
0.031321728
0.03128308
0.031556468
0.031591205
0.031632218
0.031669689
0.03169704
0.031715596
0.031727899
0.03173964
0.031745542
0.03174933
0.031750928
0.031751703
0.031756093
0.031762436
0.03176549
0.03177113
0.031774537
0.031781051
0.03178535
0.03178792
0.031791631
0.031794777
0.03179817
0.031799643
0.031804927
0.031807121
0.03181279
0.031813879
0.031818429
0.031825114
0.031828692
0.032031281
0.032027636
0.032021493
0.032017536
0.032015484
0.032010867
0.032007799
0.032003373
0.032001522
0.031997927
0.031994611
0.031990925
0.031989002
0.031985617
0.031979847
0.031976866
0.03197191
0.031969383
0.031963885
0.031959948
0.031958969
0.031957162
0.031953011
0.031948007
0.031939633
0.03192985
0.031914231
0.031891581
0.031859648
0.031824722
0.031795802
0.032001876
0.032025923
0.032055812
0.032082397
0.032100915
0.032113781
0.032121575
0.032127652
0.032132062
0.032136402
0.032137126
0.032138585
0.032142369
0.032146332
0.032148918
0.032152689
0.032155819
0.032160384
0.032163527
0.032165669
0.03216889
0.032172745
0.032175096
0.032177562
0.032180855
0.032184737
0.032188236
0.032191218
0.032194898
0.032199796
0.032204441
0.032349995
0.032345286
0.032340922
0.03233757
0.032334493
0.032331491
0.032327518
0.032324723
0.032322151
0.032320165
0.032316772
0.032314018
0.032311965
0.032308909
0.032304913
0.032302114
0.032298981
0.03229676
0.032293611
0.032290744
0.032289666
0.03228948
0.032285635
0.032281824
0.032276903
0.032270787
0.032259892
0.032244713
0.032223581
0.032199175
0.032179438
0.032329353
0.032346032
0.032365301
0.032381979
0.03239433
0.032403132
0.032407864
0.032411857
0.032414929
0.032418008
0.032418298
0.03241896
0.032420833
0.032423239
0.032425125
0.032427709
0.032430147
0.032433612
0.032436525
0.032438987
0.032440813
0.032443733
0.032445583
0.032447884
0.03245052
0.032454182
0.032457062
0.032459748
0.032462946
0.032466779
0.032471746
0.032573097
0.032568408
0.032564922
0.032562065
0.032559672
0.032557049
0.03255393
0.032551293
0.032549442
0.032547528
0.032545072
0.032543458
0.032540982
0.032538348
0.032535716
0.032533503
0.032531548
0.032529793
0.032528081
0.032526719
0.032526211
0.032525452
0.032523129
0.0325207
0.032517815
0.032514062
0.032507275
0.032497546
0.032484303
0.0324689
0.032455761
0.032561307
0.032571606
0.03258396
0.032594119
0.032601554
0.032606815
0.032609631
0.032611746
0.032613805
0.032615529
0.032616542
0.032616777
0.032618039
0.032619362
0.032620938
0.032622431
0.032624277
0.032626013
0.032628206
0.032630343
0.032632261
0.032634621
0.032636432
0.032637964
0.032640484
0.032643232
0.032645293
0.032647615
0.032649863
0.032653223
0.03265748
0.032720745
0.032718713
0.032716674
0.032714845
0.032712463
0.032710199
0.03270885
0.032707097
0.032704985
0.03270318
0.03270137
0.03269968
0.032698258
0.032696777
0.032695564
0.032694248
0.032693164
0.032692108
0.032691794
0.032691009
0.032689584
0.032688023
0.032686439
0.032684514
0.032680364
0.03267465
0.032666986
0.032657496
0.032649604
0.032723258
0.032729278
0.032736432
0.032742247
0.032746554
0.032749579
0.032751005
0.032752157
0.032753207
0.03275432
0.032755
0.032755399
0.032756177
0.032757207
0.032758151
0.032759293
0.032760372
0.032761705
0.032762934
0.032764477
0.032765999
0.032767796
0.032769433
0.032770753
0.032772636
0.032774696
0.032776317
0.032778139
0.03278019
0.032830609
0.032828624
0.032827069
0.032825561
0.032823844
0.032822232
0.03282097
0.032819478
0.032818028
0.03281668
0.032815469
0.032814463
0.032813356
0.032812453
0.032811526
0.032810738
0.032809915
0.032809303
0.032808858
0.032808275
0.032807485
0.032806764
0.032805886
0.032804728
0.032802615
0.032799537
0.032795215
0.032789955
0.032785644
0.032838729
0.032841825
0.032845582
0.032848757
0.03285093
0.032852364
0.032853285
0.032853917
0.032854428
0.032854958
0.032855409
0.032855872
0.032856371
0.032856948
0.032857669
0.032858353
0.032859169
0.032860021
0.032860953
0.032861955
0.032863094
0.032864195
0.032865496
0.032866661
0.032868082
0.032869489
0.032870928
0.032872295
0.03291079
0.032909578
0.032908295
0.032907081
0.03290588
0.032904859
0.032903763
0.032902855
0.03290191
0.032901088
0.032900305
0.032899598
0.032898931
0.032898379
0.032897784
0.032897318
0.032896915
0.032896517
0.03289617
0.032895777
0.032895402
0.032894919
0.03289429
0.032893303
0.032891816
0.032889575
0.032886954
0.032884815
0.032925512
0.032926992
0.032928787
0.032930312
0.032931291
0.032931949
0.032932386
0.03293274
0.032933023
0.032933322
0.032933593
0.032933908
0.032934236
0.032934644
0.032935108
0.032935579
0.032936088
0.032936696
0.032937307
0.032938008
0.032938769
0.032939538
0.032940442
0.032941318
0.032942304
0.032943362
0.032944445
0.032945542
0.032977716
0.032976773
0.032975862
0.032974985
0.032974171
0.032973431
0.032972691
0.032972046
0.032971423
0.032970857
0.032970362
0.03296987
0.032969461
0.032969072
0.032968706
0.032968384
0.032968115
0.03296788
0.032967662
0.032967441
0.032967219
0.032966969
0.032966659
0.03296624
0.032965612
0.032964627
0.032963422
0.03296238
0.032996512
0.03299728
0.032998086
0.032998692
0.032999084
0.032999343
0.032999562
0.03299974
0.032999912
0.033000077
0.033000248
0.033000423
0.033000631
0.033000861
0.03300115
0.033001462
0.033001802
0.03300219
0.033002598
0.03300304
0.033003548
0.033004086
0.033004684
0.033005301
0.033005974
0.03300668
0.033007435
0.033008233
0.033037772
0.033037116
0.0330365
0.033035925
0.033035379
0.033034874
0.033034394
0.033033955
0.033033548
0.033033195
0.033032865
0.033032555
0.033032282
0.033032037
0.033031813
0.033031637
0.033031477
0.033031345
0.033031213
0.033031089
0.033030956
0.033030827
0.033030673
0.033030523
0.033030306
0.033029959
0.033029431
0.033028861
0.033060029
0.033060469
0.033060816
0.033060989
0.033061084
0.033061166
0.033061273
0.033061373
0.033061473
0.033061569
0.033061667
0.03306177
0.033061892
0.033062031
0.033062203
0.033062395
0.033062609
0.033062854
0.033063118
0.033063403
0.033063725
0.033064079
0.033064457
0.033064867
0.033065302
0.033065771
0.033066266
0.033066804
0.033095636
0.033095208
0.033094812
0.033094437
0.033094091
0.033093765
0.033093467
0.033093188
0.033092935
0.033092708
0.033092498
0.033092307
0.033092139
0.033091988
0.033091856
0.033091746
0.033091652
0.033091573
0.0330915
0.033091428
0.033091352
0.033091271
0.033091193
0.033091153
0.033091137
0.033091081
0.033090854
0.033090504
0.03312061
0.033120901
0.033121042
0.033121016
0.033120983
0.033120999
0.03312106
0.033121127
0.033121188
0.033121239
0.033121293
0.033121354
0.033121426
0.033121514
0.033121615
0.033121734
0.033121866
0.033122014
0.033122177
0.033122357
0.033122554
0.03312277
0.033123004
0.033123258
0.033123532
0.033123827
0.033124141
0.03312448
0.033153454
0.033153191
0.033152945
0.033152716
0.033152504
0.033152307
0.033152126
0.03315196
0.033151808
0.033151668
0.033151542
0.033151427
0.033151324
0.033151233
0.033151154
0.033151085
0.033151029
0.033150983
0.033150944
0.033150907
0.033150859
0.033150801
0.033150749
0.033150744
0.033150805
0.033150888
0.033150817
0.033150572
0.033180535
0.033180733
0.033180746
0.033180618
0.033180545
0.033180547
0.033180596
0.033180646
0.033180684
0.03318071
0.033180738
0.033180772
0.033180815
0.033180868
0.03318093
0.033181001
0.033181081
0.033181169
0.033181266
0.033181372
0.033181489
0.033181616
0.033181754
0.033181904
0.033182066
0.033182241
0.03318243
0.033182632
0.033212056
0.033211904
0.033211762
0.03321163
0.033211508
0.033211396
0.033211292
0.033211196
0.033211108
0.033211027
0.033210953
0.033210886
0.033210825
0.03321077
0.033210722
0.033210681
0.033210647
0.033210622
0.033210604
0.033210586
0.033210557
0.033210512
0.033210465
0.033210459
0.033210535
0.033210699
0.033210743
0.033210608
0.033240877
0.033240923
0.033240818
0.033240622
0.033240552
0.033240563
0.033240611
0.03324065
0.03324067
0.033240681
0.033240692
0.03324071
0.033240736
0.033240768
0.033240806
0.033240848
0.033240895
0.033240946
0.033241002
0.033241062
0.033241128
0.033241199
0.033241276
0.033241359
0.033241449
0.033241546
0.03324165
0.033241762
0.033271805
0.033271725
0.03327165
0.03327158
0.033271515
0.033271455
0.033271399
0.033271347
0.033271299
0.033271254
0.033271213
0.033271174
0.033271138
0.033271106
0.033271077
0.033271051
0.033271032
0.033271019
0.033271013
0.03327101
0.033270997
0.033270965
0.033270917
0.033270901
0.033270958
0.033271183
0.033271354
0.033271439
0.033302404
0.033302141
0.033301905
0.033301653
0.033301615
0.033301636
0.033301681
0.033301706
0.03330171
0.033301708
0.03330171
0.033301718
0.033301733
0.033301753
0.033301775
0.0333018
0.033301827
0.033301856
0.033301886
0.033301919
0.033301954
0.033301991
0.033302031
0.033302073
0.033302119
0.033302168
0.03330222
0.033302276
0.033333305
0.033333268
0.033333233
0.0333332
0.033333169
0.03333314
0.033333112
0.033333086
0.033333062
0.033333038
0.033333016
0.033332995
0.033332975
0.033332956
0.033332938
0.033332923
0.033332912
0.033332907
0.033332909
0.033332916
0.033332919
0.033332904
0.033332863
0.03333284
0.033332852
0.033333125
0.033333412
0.033333893
0.033365985
0.033365282
0.033364979
0.033364697
0.033364719
0.033364741
0.033364776
0.033364781
0.033364771
0.03336476
0.033364755
0.033364758
0.033364767
0.033364778
0.033364792
0.033364806
0.033364821
0.033364836
0.033364852
0.033364868
0.033364885
0.033364902
0.033364921
0.03336494
0.03336496
0.033364981
0.033365003
0.033365027
0.033397488
0.033397474
0.033397461
0.033397448
0.033397436
0.033397424
0.033397412
0.033397401
0.033397389
0.033397378
0.033397368
0.033397357
0.033397346
0.033397336
0.033397326
0.033397317
0.033397311
0.03339731
0.033397315
0.033397329
0.033397345
0.033397351
0.033397322
0.033397304
0.033397237
0.033397509
0.03339777
0.033398648
0.033431574
0.033430667
0.033430524
0.033430287
0.033430403
0.033430414
0.033430436
0.033430421
0.033430401
0.033430386
0.03343038
0.033430381
0.033430385
0.033430392
0.033430399
0.033430406
0.033430414
0.033430421
0.033430428
0.033430435
0.033430442
0.033430449
0.033430456
0.033430463
0.03343047
0.033430477
0.033430485
0.033430492
0.033463384
0.033463381
0.033463377
0.033463373
0.03346337
0.033463366
0.033463362
0.033463358
0.033463354
0.03346335
0.033463345
0.03346334
0.033463336
0.033463331
0.033463326
0.033463321
0.033463318
0.033463317
0.033463322
0.033463336
0.033463357
0.033463381
0.03346337
0.03346337
0.033463221
0.033463387
0.033463364
0.033464116
0.033495227
0.033494862
0.033494976
0.033494928
0.033495041
0.033495028
0.03349502
0.033494992
0.033494974
0.033494964
0.033494962
0.033494963
0.033494966
0.033494968
0.033494971
0.033494974
0.033494977
0.03349498
0.033494982
0.033494984
0.033494987
0.033494989
0.033494991
0.033494992
0.033494994
0.033494996
0.033494997
0.033494998
0.03352404
0.03352404
0.033524039
0.033524038
0.033524038
0.033524037
0.033524037
0.033524036
0.033524035
0.033524034
0.033524033
0.033524032
0.033524031
0.033524029
0.033524028
0.033524027
0.033524025
0.033524025
0.033524025
0.03352403
0.033524041
0.033524061
0.033524085
0.033524084
0.033524079
0.033523989
0.033524037
0.033524036
0.033524215
0.033523907
0.033523574
0.033523382
0.033523327
0.033523386
0.033523421
0.033523426
0.033523407
0.033523388
0.033523375
0.033523369
0.033523367
0.033523368
0.033523369
0.03352337
0.033523371
0.033523373
0.033523374
0.033523375
0.033523376
0.033523377
0.033523378
0.033523379
0.03352338
0.033523381
0.033523381
0.033523382
0.033523383
0.033523383
0.03352287
0.033522869
0.033522869
0.033522868
0.033522867
0.033522866
0.033522865
0.033522864
0.033522863
0.033522861
0.03352286
0.033522859
0.033522858
0.033522856
0.033522855
0.033522853
0.033522852
0.033522852
0.033522855
0.033522861
0.033522875
0.033522895
0.033522912
0.033522903
0.033522855
0.033522807
0.033522893
0.033523221
0.033523751
0.033523622
0.033523066
0.033522699
0.033522602
0.033522651
0.033522704
0.033522714
0.033522697
0.033522676
0.033522662
0.033522655
0.033522652
0.033522652
0.033522653
0.033522655
0.033522656
0.033522658
0.033522659
0.033522661
0.033522662
0.033522663
0.033522665
0.033522666
0.033522667
0.033522668
0.03352267
0.033522671
0.033522672
0.033522673
0.033522709
0.033522708
0.033522707
0.033522705
0.033522704
0.033522702
0.033522701
0.033522699
0.033522698
0.033522696
0.033522695
0.033522693
0.033522691
0.03352269
0.033522688
0.033522686
0.033522685
0.033522685
0.033522687
0.033522694
0.033522709
0.033522731
0.03352275
0.03352274
0.033522684
0.03352263
0.033522724
0.033523097
0.033523679
0.033523707
0.033523162
0.033522808
0.033522723
0.03352278
0.033522837
0.033522846
0.033522826
0.033522804
0.033522789
0.033522782
0.03352278
0.03352278
0.033522781
0.033522783
0.033522785
0.033522787
0.033522789
0.033522791
0.033522793
0.033522794
0.033522796
0.033522798
0.0335228
0.033522802
0.033522803
0.033522805
0.033522807
0.033522809
0.033522875
0.033522873
0.03352287
0.033522868
0.033522866
0.033522864
0.033522861
0.033522859
0.033522857
0.033522855
0.033522853
0.033522851
0.033522849
0.033522847
0.033522844
0.033522842
0.033522841
0.03352284
0.033522842
0.033522849
0.033522864
0.033522887
0.033522907
0.033522899
0.033522843
0.033522784
0.033522863
0.033523206
0.033523735
0.033523734
0.033523217
0.033522882
0.033522805
0.033522864
0.033522919
0.033522927
0.033522907
0.033522884
0.033522869
0.033522863
0.033522861
0.033522862
0.033522864
0.033522866
0.033522868
0.033522871
0.033522873
0.033522875
0.033522878
0.03352288
0.033522883
0.033522885
0.033522888
0.03352289
0.033522893
0.033522896
0.033522898
0.033522901
0.03352291
0.033522906
0.033522903
0.0335229
0.033522897
0.033522894
0.033522891
0.033522888
0.033522885
0.033522882
0.03352288
0.033522877
0.033522874
0.033522872
0.033522869
0.033522867
0.033522865
0.033522864
0.033522865
0.033522871
0.033522886
0.033522908
0.033522929
0.033522921
0.033522866
0.033522808
0.033522884
0.033523216
0.033523727
0.033523721
0.033523212
0.033522882
0.033522806
0.033522864
0.033522919
0.033522927
0.033522906
0.033522884
0.03352287
0.033522864
0.033522862
0.033522864
0.033522866
0.033522869
0.033522872
0.033522874
0.033522877
0.03352288
0.033522883
0.033522886
0.03352289
0.033522893
0.033522896
0.033522899
0.033522903
0.033522907
0.03352291
0.033522914
0.033522919
0.033522915
0.033522911
0.033522907
0.033522903
0.033522899
0.033522895
0.033522892
0.033522888
0.033522885
0.033522882
0.033522878
0.033522875
0.033522872
0.033522869
0.033522866
0.033522864
0.033522862
0.033522863
0.033522869
0.033522883
0.033522905
0.033522925
0.033522918
0.033522863
0.033522804
0.03352288
0.03352321
0.033523718
0.033523717
0.033523209
0.033522879
0.033522804
0.033522862
0.033522917
0.033522925
0.033522905
0.033522883
0.033522869
0.033522863
0.033522863
0.033522864
0.033522867
0.03352287
0.033522874
0.033522877
0.03352288
0.033522884
0.033522887
0.033522891
0.033522895
0.033522899
0.033522902
0.033522906
0.033522911
0.033522915
0.03352292
0.033522925
0.03352293
0.033522925
0.03352292
0.033522915
0.033522911
0.033522906
0.033522902
0.033522898
0.033522894
0.03352289
0.033522886
0.033522883
0.033522879
0.033522876
0.033522872
0.033522869
0.033522866
0.033522864
0.033522864
0.03352287
0.033522884
0.033522906
0.033522925
0.033522918
0.033522862
0.033522804
0.033522879
0.033523209
0.033523717
0.033523718
0.03352321
0.03352288
0.033522805
0.033522863
0.033522919
0.033522927
0.033522907
0.033522885
0.033522872
0.033522866
0.033522866
0.033522868
0.033522871
0.033522875
0.033522879
0.033522883
0.033522886
0.03352289
0.033522894
0.033522898
0.033522902
0.033522907
0.033522911
0.033522915
0.03352292
0.033522925
0.033522931
0.033522936
0.033522946
0.03352294
0.033522935
0.033522929
0.033522924
0.03352292
0.033522915
0.033522911
0.033522907
0.033522902
0.033522898
0.033522894
0.03352289
0.033522885
0.03352288
0.033522874
0.033522871
0.033522869
0.033522869
0.033522874
0.033522888
0.033522909
0.033522929
0.033522921
0.033522865
0.033522807
0.033522882
0.033523213
0.033523721
0.033523727
0.033523216
0.033522885
0.033522809
0.033522868
0.033522924
0.033522932
0.033522912
0.033522891
0.033522877
0.033522872
0.033522872
0.033522874
0.033522878
0.033522887
0.033522903
0.033522913
0.033522919
0.033522924
0.033522928
0.033522933
0.033522937
0.033522941
0.033522946
0.033522951
0.033522956
0.033522961
0.033522967
0.033522972
0.033523046
0.03352304
0.033523035
0.033523029
0.033523024
0.03352302
0.033523015
0.03352301
0.033523006
0.033523001
0.033522996
0.033522987
0.033522968
0.033522916
0.033522888
0.033522878
0.033522874
0.033522872
0.033522872
0.033522877
0.03352289
0.033522912
0.033522931
0.033522922
0.033522866
0.033522806
0.033522883
0.033523218
0.033523734
0.033523735
0.033523206
0.033522864
0.033522785
0.033522845
0.033522902
0.033522912
0.033522893
0.033522871
0.033522858
0.033522853
0.033522853
0.033522855
0.03352286
0.03352287
0.033522902
0.033522987
0.033523109
0.033523144
0.033523156
0.033523163
0.033523168
0.033523173
0.033523177
0.033523182
0.033523187
0.033523192
0.033523198
0.033523203
0.033523466
0.03352346
0.033523455
0.03352345
0.033523445
0.03352344
0.033523435
0.03352343
0.033523423
0.033523406
0.033523351
0.03352313
0.03352294
0.033522845
0.033522811
0.033522801
0.033522796
0.033522794
0.033522794
0.033522799
0.033522812
0.033522833
0.033522851
0.033522841
0.033522783
0.033522724
0.033522809
0.033523163
0.033523708
0.03352368
0.033523098
0.033522725
0.033522632
0.033522687
0.033522744
0.033522755
0.033522739
0.033522718
0.033522706
0.033522701
0.033522701
0.033522703
0.033522708
0.033522718
0.033522753
0.03352285
0.033523059
0.033523391
0.033523713
0.033523788
0.033523809
0.033523817
0.033523823
0.033523828
0.033523833
0.033523838
0.033523843
0.033523849
0.033524401
0.033524395
0.03352439
0.033524385
0.03352438
0.033524374
0.033524365
0.033524341
0.033524254
0.033523862
0.033523391
0.033523033
0.03352282
0.033522722
0.033522687
0.033522676
0.033522672
0.033522669
0.033522669
0.033522674
0.033522686
0.033522705
0.033522721
0.033522709
0.033522654
0.033522604
0.033522701
0.033523066
0.033523622
0.033523751
0.033523221
0.033522895
0.03352281
0.033522859
0.033522908
0.033522919
0.033522904
0.033522886
0.033522874
0.03352287
0.03352287
0.033522873
0.033522877
0.033522888
0.033522922
0.033523019
0.033523231
0.033523589
0.033524087
0.033524649
0.033525047
0.033525134
0.033525157
0.033525166
0.033525171
0.033525176
0.033525181
0.033525186
0.033526178
0.033526173
0.033526168
0.033526163