/*--------------------------------*- C++ -*----------------------------------*\
| =========                 |                                                 |
| \\      /  F ield         | OpenFOAM: The Open Source CFD Toolbox           |
|  \\    /   O peration     | Version:  v2012                                 |
|   \\  /    A nd           | Website:  www.openfoam.com                      |
|    \\/     M anipulation  |                                                 |
\*---------------------------------------------------------------------------*/
FoamFile
{
    version     2.0;
    format      ascii;
    class       volScalarField;
    location    "100";
    object      p;
}
// * * * * * * * * * * * * * * * * * * * * * * * * * * * * * * * * * * * * * //

dimensions      [0 2 -2 0 0 0 0];


internalField   nonuniform List<scalar> 
74980
(
-0.1904572
-0.19020327
-0.18995904
-0.19060492
-0.19083272
-0.19131718
-0.19212402
-0.19331228
-0.19488556
-0.19684617
-0.19913318
-0.20170462
-0.20450137
-0.20747268
-0.21056617
-0.21372866
-0.21690631
-0.22004569
-0.22309455
-0.22600284
-0.22872269
-0.23120868
-0.2334098
-0.23528733
-0.23679514
-0.23792603
-0.23870475
-0.23917151
-0.23941107
-0.23901487
-0.23823818
-0.23695058
-0.23508506
-0.23260566
-0.22950723
-0.2258446
-0.22164248
-0.21694109
-0.21176162
-0.20612666
-0.20005892
-0.19358344
-0.18672657
-0.17951553
-0.1719778
-0.16414077
-0.15603136
-0.14767582
-0.13909959
-0.13032682
-0.12138051
-0.11228277
-0.10305442
-0.093715218
-0.084283849
-0.074778035
-0.065214833
-0.055610816
0.13113643
0.1124552
0.094188666
0.076335546
0.058895502
0.041869882
0.025262184
0.0090787222
-0.0066708119
-0.021973106
-0.036811042
-0.051163646
-0.065006217
-0.078310677
-0.091045914
-0.10317809
-0.11467201
-0.12549342
-0.13560432
-0.1449705
-0.15356074
-0.16134286
-0.16828647
-0.17432776
-0.17943209
-0.18350541
-0.18657306
-0.18868118
-0.18891404
-0.18678652
-0.18370629
-0.17960983
-0.17450805
-0.16845031
-0.16149251
-0.15368319
-0.14506084
-0.13565938
-0.12551238
-0.11465217
-0.10311843
-0.090946319
-0.078170978
-0.064826513
-0.050944058
-0.036551719
-0.021674468
-0.0063334605
0.0094544786
0.025676231
0.042322201
0.059386364
0.076865782
0.094759496
0.11306807
0.13179351
-0.90623804
-0.92976073
-0.95105142
-0.96988534
-0.98605071
-0.99934789
-1.0096256
-1.0167762
-1.0205167
-1.0208112
-1.0181752
-1.0121963
-1.0029408
-0.99059132
-0.9752541
-0.95715438
-0.93649802
-0.91355661
-0.88860127
-0.86193576
-0.83386225
-0.80469513
-0.77473324
-0.74429405
-0.71359959
-0.68291654
-0.65253373
-0.62265002
-0.5934438
-0.56507426
-0.53767059
-0.51133816
-0.48615921
-0.46219527
-0.43948942
-0.41806882
-0.3979471
-0.37912669
-0.36160077
-0.34535518
-0.33036998
-0.31662006
-0.3040749
-0.29269849
-0.28244641
-0.27327606
-0.26515027
-0.25808739
-0.2520991
-0.24730267
-0.24368886
-0.24123463
-0.23984737
-0.23947638
-0.24090435
-0.24339497
-0.2470205
-0.25182123
-0.25777225
-0.264814
-0.2729192
-0.28208994
-0.29234786
-0.30373314
-0.31628663
-0.33004433
-0.34503729
-0.36129153
-0.37882773
-0.39766082
-0.41779811
-0.43923739
-0.46196555
-0.48595583
-0.51116549
-0.53753335
-0.56497733
-0.59339276
-0.62265012
-0.65259608
-0.6830412
-0.71379127
-0.74455898
-0.77507283
-0.80511261
-0.83436265
-0.86251408
-0.88925608
-0.91428384
-0.93729275
-0.95800828
-0.97615935
-0.991534
-1.0039108
-1.0131695
-1.0191493
-1.0218265
-1.0216279
-1.0177808
-1.0105709
-1.0002459
-0.98689433
-0.97066745
-0.95176619
-0.93040399
-0.90680602
-1.0235111
-1.0220811
-1.0201569
-1.0176856
-1.0146793
-1.0111069
-1.0069813
-1.0022748
-0.99702693
-0.9912598
-0.98501202
-0.97833831
-0.97128785
-0.90807694
-0.91018654
-0.91326564
-0.91736918
-0.92244806
-0.92839516
-0.93510114
-0.94247152
-0.95040705
-0.95881202
-0.96756897
-0.97656868
-0.98570677
-0.99484555
-1.0038772
-1.0126904
-1.0211761
-1.0292547
-1.0368522
-1.0439186
-1.0503949
-1.0562561
-1.0614766
-1.0660689
-1.070019
-1.0733622
-1.0761028
-1.0782979
-1.0799576
-1.0811102
-1.0818368
-1.1367096
-1.1353274
-1.1334748
-1.1310708
-1.1280757
-1.1244816
-1.1202281
-1.115305
-1.1096744
-1.1033466
-1.0963112
-1.0885977
-1.0802269
-1.0712725
-1.0617905
-1.051868
-1.0416037
-1.0311156
-1.0205356
-1.0099915
-0.99963422
-0.98958449
-0.97996473
-0.97090217
-0.962505
-0.95487855
-0.94812698
-0.94236826
-0.93771786
-0.9342277
-0.93183848
-0.95335807
-0.95601464
-0.95989913
-0.96507356
-0.97148376
-0.97900697
-0.98751868
-0.99690437
-1.0070552
-1.0178493
-1.0291534
-1.0408306
-1.0527442
-1.0647325
-1.0766441
-1.0883349
-1.0996728
-1.1105419
-1.1208412
-1.1305073
-1.1394588
-1.14767
-1.1551158
-1.1617975
-1.1677178
-1.1729062
-1.1773875
-1.1812159
-1.1844078
-1.1870084
-1.189093
-1.2383908
-1.2355515
-1.2321585
-1.2281366
-1.2234492
-1.2180464
-1.2119067
-1.2049678
-1.1972312
-1.1886601
-1.179283
-1.1691019
-1.1581674
-1.1465479
-1.1343266
-1.1216137
-1.1085418
-1.0952593
-1.0819208
-1.0686962
-1.0557602
-1.0432616
-1.0313524
-1.0201719
-1.0098525
-1.0005066
-0.99225737
-0.98523528
-0.97956882
-0.97531452
-0.97240657
-0.98876864
-0.99190739
-0.99649962
-1.0026173
-1.0101996
-1.0191164
-1.0292293
-1.0404115
-1.052543
-1.0654884
-1.0790968
-1.0932086
-1.1076618
-1.1222719
-1.1368517
-1.1512346
-1.1652572
-1.1787775
-1.1916695
-1.2038378
-1.2152215
-1.2257543
-1.2354362
-1.2442365
-1.2521963
-1.2593135
-1.2656534
-1.2712341
-1.2761252
-1.2803573
-1.2839997
-1.3253453
-1.3208479
-1.3157343
-1.3099376
-1.3034211
-1.2961226
-1.2880099
-1.2790273
-1.2691665
-1.2583943
-1.2467332
-1.234193
-1.220838
-1.2067391
-1.1919967
-1.176745
-1.1611444
-1.1453644
-1.1295858
-1.1140087
-1.0988268
-1.0842126
-1.0703321
-1.0573462
-1.0453902
-1.0345924
-1.02508
-1.0169993
-1.0104801
-1.005586
-1.002241
-1.0126661
-1.016186
-1.0213373
-1.0281973
-1.0367043
-1.0467246
-1.0581102
-1.0707322
-1.0844569
-1.0991504
-1.1146445
-1.1307675
-1.1473401
-1.1641611
-1.18102
-1.1977261
-1.2140989
-1.2299668
-1.2451908
-1.2596641
-1.2733055
-1.2860555
-1.2978912
-1.3088004
-1.3188047
-1.3279252
-1.3362034
-1.3436886
-1.3504261
-1.3564667
-1.3618672
-1.3930439
-1.3866883
-1.3796776
-1.3719625
-1.3634852
-1.3542106
-1.3440812
-1.3330643
-1.3211319
-1.3082697
-1.2944855
-1.27981
-1.2643048
-1.2480532
-1.2311717
-1.2138052
-1.1961314
-1.1783365
-1.1606228
-1.1432065
-1.1262925
-1.1100656
-1.0947021
-1.0803735
-1.0672124
-1.0553532
-1.0449288
-1.0360843
-1.0289582
-1.0236094
-1.0199558
-1.023905
-1.0276772
-1.0331823
-1.0405087
-1.0496012
-1.0603229
-1.0725316
-1.086094
-1.1008789
-1.1167536
-1.1335485
-1.151084
-1.1691742
-1.1876128
-1.2061816
-1.2246711
-1.2428922
-1.2606641
-1.2778331
-1.2942767
-1.3099044
-1.3246518
-1.3384874
-1.3514056
-1.363413
-1.3745416
-1.3848177
-1.394302
-1.4030227
-1.4110383
-1.4183911
-1.4375326
-1.4291575
-1.4201264
-1.4103853
-1.3998779
-1.3885807
-1.3764511
-1.3634627
-1.3495875
-1.3348248
-1.3191845
-1.3026945
-1.285421
-1.267461
-1.2489438
-1.2300275
-1.2108917
-1.1917291
-1.1727514
-1.1541731
-1.1361992
-1.1190132
-1.1027939
-1.0877047
-1.0738767
-1.0614357
-1.0505106
-1.0412375
-1.0337459
-1.0280896
-1.0241845
-1.0214131
-1.0252694
-1.0309227
-1.0384419
-1.0477629
-1.0587542
-1.0712799
-1.0852123
-1.1004301
-1.1168075
-1.1341868
-1.1523939
-1.1712502
-1.1905507
-1.2100906
-1.2296589
-1.2490609
-1.2681219
-1.2866839
-1.3046227
-1.3218636
-1.3383403
-1.3539873
-1.3687918
-1.3827534
-1.395892
-1.4082293
-1.4197834
-1.430573
-1.4406593
-1.4501062
-1.4555588
-1.4449452
-1.433692
-1.4218117
-1.4092798
-1.3960348
-1.3820371
-1.367258
-1.3516858
-1.3353221
-1.3181936
-1.3003465
-1.2818565
-1.2628177
-1.2433558
-1.2236295
-1.2038064
-1.1840844
-1.1646605
-1.1457315
-1.1274981
-1.1101268
-1.0937845
-1.0786205
-1.0647543
-1.0523048
-1.0413958
-1.0321591
-1.0247241
-1.0191569
-1.0153802
-1.0060812
-1.0097698
-1.0152033
-1.0224689
-1.0315095
-1.0422009
-1.0544185
-1.0680468
-1.0829725
-1.0990823
-1.1162391
-1.1342847
-1.1530631
-1.1723889
-1.192071
-1.2119293
-1.2317731
-1.2514376
-1.2707717
-1.2896521
-1.3079866
-1.325696
-1.342728
-1.3590492
-1.3746499
-1.389539
-1.4037293
-1.4172367
-1.4300838
-1.4422918
-1.4538844
-1.4453445
-1.4326901
-1.419461
-1.4056387
-1.3912103
-1.376157
-1.3604737
-1.3441511
-1.3271925
-1.3096148
-1.2914635
-1.272789
-1.2536742
-1.2342136
-1.2145312
-1.194766
-1.1750782
-1.1556434
-1.1366301
-1.1182157
-1.1005636
-1.0838214
-1.0681358
-1.0536271
-1.0404006
-1.0285601
-1.0182116
-1.0094703
-1.0024523
-0.99720381
-0.99363751
-0.97817337
-0.98158207
-0.98659436
-0.99329381
-1.001642
-1.0115333
-1.0228634
-1.0355374
-1.0494637
-1.0645468
-1.080681
-1.0977403
-1.1155874
-1.1340786
-1.1530575
-1.172369
-1.1918577
-1.2113685
-1.2307745
-1.2499577
-1.2688221
-1.2872803
-1.3052781
-1.3227647
-1.3397122
-1.3561063
-1.3719485
-1.3872321
-1.4019655
-1.4161558
-1.4298134
-1.4074204
-1.3928238
-1.3777455
-1.3621785
-1.3461302
-1.3295997
-1.3126035
-1.2951522
-1.2772708
-1.2589975
-1.2403854
-1.2214999
-1.2024237
-1.183257
-1.1641049
-1.1450898
-1.1263532
-1.1080289
-1.0902559
-1.0731661
-1.0568878
-1.0415375
-1.0272203
-1.0140299
-1.0020464
-0.99134944
-0.98201992
-0.9741532
-0.96784119
-0.9631198
-0.95990679
-0.93905621
-0.94204105
-0.94642441
-0.95228591
-0.95959524
-0.96827133
-0.97822978
-0.98940239
-1.0017244
-1.0151291
-1.0295422
-1.0448742
-1.0610344
-1.0779112
-1.0953986
-1.1133758
-1.1317302
-1.1503402
-1.1690866
-1.1878779
-1.2066131
-1.2252125
-1.2436025
-1.2617262
-1.2795356
-1.2969981
-1.3140893
-1.3307814
-1.34707
-1.3629348
-1.3783755
-1.3430385
-1.3268789
-1.3103582
-1.2934862
-1.2762898
-1.258785
-1.2410138
-1.2230064
-1.2048063
-1.1864683
-1.1680569
-1.1496465
-1.1313188
-1.1131664
-1.0952763
-1.0777551
-1.0607036
-1.0442165
-1.0283913
-1.0133107
-0.99906529
-0.98572186
-0.973351
-0.96200904
-0.95174712
-0.94261603
-0.93467204
-0.92798604
-0.92262829
-0.91862254
-0.91589524
-0.89070338
-0.89315209
-0.89674914
-0.90156266
-0.9075748
-0.91472705
-0.92296147
-0.93223481
-0.9425105
-0.95375204
-0.9659219
-0.97896821
-0.99284685
-1.0074912
-1.0228395
-1.0388197
-1.0553543
-1.0723631
-1.0897555
-1.1074491
-1.1253596
-1.1434063
-1.1615132
-1.1796116
-1.197641
-1.2155466
-1.2332917
-1.2508283
-1.2681232
-1.2851453
-1.3018742
-1.2554455
-1.2383217
-1.2209732
-1.2034357
-1.1857457
-1.1679478
-1.1500919
-1.1322274
-1.1144152
-1.0967208
-1.0792137
-1.0619732
-1.0450749
-1.0285966
-1.0126123
-0.99719683
-0.98240932
-0.9683116
-0.95494877
-0.94236589
-0.93060114
-0.91968228
-0.90963856
-0.90049097
-0.89226128
-0.88497204
-0.87865275
-0.87335003
-0.86910882
-0.86594314
-0.863788
-0.83545603
-0.83731125
-0.84003473
-0.84368727
-0.84826232
-0.85372468
-0.86004325
-0.86719782
-0.87518138
-0.88398497
-0.89360644
-0.9040341
-0.91526078
-0.92726827
-0.94003399
-0.95353031
-0.96772027
-0.98255787
-0.99798706
-1.0139413
-1.030353
-1.0471481
-1.064253
-1.081592
-1.0990993
-1.1167095
-1.1343634
-1.1520076
-1.1695895
-1.1870669
-1.2043965
-1.149439
-1.1321104
-1.1147125
-1.0972923
-1.0798986
-1.0625899
-1.0454233
-1.0284636
-1.0117784
-0.99544126
-0.97952428
-0.96409436
-0.94921939
-0.93495821
-0.92136712
-0.90848545
-0.89634574
-0.88496691
-0.87435979
-0.86452429
-0.85545745
-0.84714992
-0.83959587
-0.83278317
-0.82670665
-0.82136316
-0.81676122
-0.81291864
-0.80985854
-0.8075782
-0.80602569
-0.77581306
-0.77706774
-0.77891129
-0.78139583
-0.78451948
-0.7882699
-0.79264302
-0.79764156
-0.80328162
-0.8095828
-0.81657067
-0.82426806
-0.83269867
-0.8418836
-0.85184243
-0.86258004
-0.87409727
-0.88637335
-0.89938563
-0.91308708
-0.92742817
-0.9423447
-0.95776867
-0.97362323
-0.98984492
-1.0063656
-1.0231228
-1.0400587
-1.0571085
-1.0742135
-1.0913276
-1.0308373
-1.0141587
-0.99756567
-0.98110244
-0.96482781
-0.94879423
-0.93307185
-0.91772993
-0.90283633
-0.88845743
-0.87466643
-0.8615283
-0.84909482
-0.83741026
-0.82650698
-0.81639721
-0.80708484
-0.7985536
-0.79078294
-0.78374077
-0.77739165
-0.77169701
-0.76661893
-0.76212112
-0.75817073
-0.7547418
-0.75182121
-0.74940525
-0.74749593
-0.74608303
-0.74512534
-0.71419216
-0.71486929
-0.7158722
-0.71723673
-0.71897881
-0.72110761
-0.72363865
-0.726597
-0.73001307
-0.73392843
-0.73838854
-0.7434417
-0.74913899
-0.75552759
-0.76265132
-0.77054542
-0.7792353
-0.78873108
-0.7990293
-0.81011029
-0.8219401
-0.83447428
-0.84766051
-0.8614388
-0.87574116
-0.89049823
-0.90564353
-0.9211018
-0.9368161
-0.9527273
-0.96877603
-0.90579537
-0.89055034
-0.87550646
-0.86072713
-0.84627257
-0.83220878
-0.81859613
-0.80549356
-0.79296531
-0.78107016
-0.76986547
-0.75939806
-0.74970504
-0.740811
-0.73272609
-0.72544355
-0.71894279
-0.71318855
-0.70813531
-0.70372955
-0.69991424
-0.69662895
-0.69381672
-0.6914236
-0.68940106
-0.68770867
-0.68631445
-0.68519538
-0.68433351
-0.6837083
-0.68329
-0.65270356
-0.6528813
-0.65315542
-0.65355026
-0.65409009
-0.65480119
-0.65571442
-0.6568681
-0.65830944
-0.66009238
-0.66227694
-0.66492714
-0.66810995
-0.67188972
-0.67632802
-0.68147772
-0.68738245
-0.69407086
-0.70155881
-0.70984446
-0.71891221
-0.72873194
-0.73926535
-0.75046157
-0.76226792
-0.77462392
-0.78747268
-0.80075233
-0.81440509
-0.82837535
-0.84260948
-0.78000792
-0.76694365
-0.75418173
-0.74177838
-0.72978526
-0.71825795
-0.7072521
-0.69682178
-0.68701997
-0.67789469
-0.66948862
-0.66183337
-0.65495149
-0.64885131
-0.64352626
-0.6389543
-0.63509896
-0.63191156
-0.62933244
-0.62729555
-0.62573076
-0.62456646
-0.62373396
-0.62316841
-0.62281157
-0.62261146
-0.62252422
-0.62251231
-0.62254295
-0.62258805
-0.62262806
-0.59325484
-0.59301764
-0.59268432
-0.59227
-0.59180541
-0.59132908
-0.59088385
-0.59051817
-0.59028715
-0.59025206
-0.59048085
-0.59104525
-0.59201951
-0.59347746
-0.59548858
-0.59811632
-0.60141388
-0.60542287
-0.61017044
-0.6156702
-0.62192071
-0.62890648
-0.6366031
-0.64497474
-0.65397953
-0.66357092
-0.67369939
-0.68431352
-0.69536411
-0.70680035
-0.71857272
-0.63841694
-0.62879101
-0.61961634
-0.61093602
-0.60279639
-0.59524172
-0.58831176
-0.58204215
-0.57646215
-0.57158966
-0.56743329
-0.56398858
-0.56123673
-0.55914601
-0.55767123
-0.55675618
-0.55633524
-0.55633707
-0.55668614
-0.55730676
-0.55812584
-0.55907386
-0.56008773
-0.5611101
-0.56208945
-0.56297852
-0.56373417
-0.56432366
-0.56473561
-0.5372003
-0.5366349
-0.53582071
-0.5347649
-0.53350196
-0.53207864
-0.53054545
-0.52895616
-0.52736912
-0.52584823
-0.52446333
-0.5232875
-0.52239663
-0.52186655
-0.52176908
-0.52217059
-0.52312908
-0.52469196
-0.52689463
-0.52975959
-0.53329706
-0.53750399
-0.54236864
-0.54786782
-0.55397229
-0.5606485
-0.56785792
-0.57555924
-0.58371582
-0.53155685
-0.52488821
-0.51866724
-0.51292696
-0.50770265
-0.50302719
-0.49892832
-0.49542941
-0.49254757
-0.49028937
-0.48865261
-0.48762267
-0.48717396
-0.48726872
-0.4878581
-0.48888356
-0.49027905
-0.49197316
-0.49389125
-0.49595824
-0.49810187
-0.50025314
-0.50234838
-0.50432906
-0.50614023
-0.5077288
-0.50904552
-0.51005478
-0.51075323
-0.48547585
-0.48466336
-0.48348656
-0.48194551
-0.48007623
-0.47792977
-0.47556088
-0.47302492
-0.47037981
-0.46768811
-0.46501714
-0.46243773
-0.46002318
-0.45784589
-0.45597615
-0.45447885
-0.45341207
-0.45282533
-0.45275772
-0.45323752
-0.45428272
-0.45589967
-0.45808643
-0.46083173
-0.46411762
-0.46792172
-0.47221666
-0.47697315
-0.43194182
-0.42861432
-0.42572247
-0.42329007
-0.42133947
-0.41988774
-0.41894793
-0.41852633
-0.4186208
-0.41922144
-0.42030755
-0.42184904
-0.42380621
-0.42612953
-0.42876206
-0.43164066
-0.43469717
-0.43786163
-0.44106335
-0.4442337
-0.44730752
-0.45022405
-0.45292651
-0.45535988
-0.45746855
-0.45920028
-0.46051916
-0.46142828
-0.43865223
-0.43766226
-0.43622425
-0.43433227
-0.43202171
-0.42934531
-0.42635887
-0.42311659
-0.41967355
-0.41608834
-0.41242348
-0.40874484
-0.40512005
-0.40161638
-0.39829919
-0.39522937
-0.39246226
-0.39004681
-0.3880228
-0.38642143
-0.38526554
-0.38456787
-0.38433419
-0.3845624
-0.38524392
-0.3863665
-0.3879127
-0.38986338
-0.35075588
-0.35011648
-0.34984704
-0.3499621
-0.35047462
-0.35139269
-0.35272093
-0.35445765
-0.35659418
-0.35911533
-0.3619968
-0.36520687
-0.3687059
-0.37244618
-0.37637425
-0.38043179
-0.38455645
-0.38868409
-0.39275034
-0.39669249
-0.4004509
-0.4039696
-0.40719553
-0.41007573
-0.41255475
-0.41457992
-0.41611656
-0.41717332
-0.39700373
-0.39589254
-0.39427526
-0.39214076
-0.38952274
-0.38647335
-0.38304736
-0.37929611
-0.37527043
-0.37102335
-0.36661153
-0.36209425
-0.35753254
-0.35298706
-0.34851704
-0.34417816
-0.34002178
-0.33609395
-0.33243386
-0.32907335
-0.32603754
-0.32334386
-0.32100326
-0.31902059
-0.31739494
-0.31612177
-0.31519215
-0.31459565
-0.28132599
-0.28307585
-0.28512104
-0.2874682
-0.29012274
-0.29308593
-0.29635548
-0.2999239
-0.30377846
-0.30789984
-0.3122624
-0.31683451
-0.32157786
-0.32644804
-0.33139609
-0.33636896
-0.34131072
-0.34616413
-0.35087158
-0.35537729
-0.35962784
-0.36357306
-0.36716456
-0.37035284
-0.3730842
-0.37530732
-0.37698972
-0.37814475
-0.36058809
-0.35939826
-0.35766413
-0.35537019
-0.35254761
-0.34924662
-0.3455196
-0.34141404
-0.33697577
-0.33225217
-0.32729337
-0.3221517
-0.31688129
-0.31153608
-0.30616872
-0.30082954
-0.29556508
-0.29041802
-0.28542562
-0.28061904
-0.27602425
-0.27166188
-0.26754623
-0.26368695
-0.26008911
-0.25675427
-0.2536804
-0.2508639
-0.22310721
-0.22690156
-0.23091619
-0.23515201
-0.23960801
-0.24428013
-0.249161
-0.25423911
-0.2594987
-0.26491845
-0.27047226
-0.27612945
-0.2818539
-0.28760489
-0.29333807
-0.29900592
-0.30455895
-0.3099464
-0.3151176
-0.32002349
-0.32461712
-0.32885401
-0.33269085
-0.33608216
-0.33897711
-0.34132667
-0.34310103
-0.34431788
-0.32931278
-0.32807543
-0.32627049
-0.32387814
-0.32092677
-0.3174641
-0.31353935
-0.30919596
-0.30447483
-0.29941752
-0.29406796
-0.28847217
-0.28267743
-0.27673152
-0.27068083
-0.26457023
-0.25844198
-0.25233478
-0.24628353
-0.24031841
-0.23446553
-0.22874651
-0.22317839
-0.21777415
-0.21254317
-0.20749177
-0.20262357
-0.19794028
-0.17523866
-0.18072372
-0.18636032
-0.1921444
-0.19807012
-0.20412909
-0.21031027
-0.21659938
-0.22297848
-0.22942568
-0.23591504
-0.24241696
-0.24889782
-0.25532068
-0.26164548
-0.26782981
-0.27383007
-0.27960145
-0.28509975
-0.29028188
-0.29510678
-0.29953559
-0.30352976
-0.30704782
-0.31004217
-0.31246654
-0.31429391
-0.31554622
-0.30298691
-0.30172452
-0.29988156
-0.29743425
-0.29440816
-0.29084807
-0.28679997
-0.28230346
-0.27739491
-0.27211065
-0.26648912
-0.26057061
-0.25439658
-0.24800895
-0.2414488
-0.23475626
-0.22796922
-0.22112304
-0.21425014
-0.20737942
-0.20053658
-0.19374366
-0.18701929
-0.18037893
-0.17383493
-0.16739751
-0.16107449
-0.15487196
-0.13670565
-0.14354514
-0.15047675
-0.15749245
-0.16458264
-0.17173571
-0.17893806
-0.18617327
-0.19342218
-0.20066266
-0.20786933
-0.21501397
-0.22206531
-0.22898953
-0.23575061
-0.24231063
-0.24863092
-0.25467206
-0.26039508
-0.26576227
-0.27073763
-0.27528707
-0.27937623
-0.28296726
-0.28601578
-0.2884785
-0.29033095
-0.29159871
-0.28133998
-0.28007135
-0.27821571
-0.27574443
-0.27268131
-0.26906844
-0.26494873
-0.26035853
-0.25533041
-0.24989649
-0.24409052
-0.23794794
-0.23150541
-0.22479994
-0.21786823
-0.21074611
-0.20346788
-0.19606603
-0.18857065
-0.18100935
-0.17340717
-0.16578625
-0.15816619
-0.1505642
-0.14299497
-0.13547126
-0.12800422
-0.12060363
-0.10643352
-0.1143242
-0.12225834
-0.13022466
-0.13821073
-0.14620268
-0.15418492
-0.16213965
-0.17004689
-0.17788449
-0.1856278
-0.19324978
-0.2007214
-0.20801143
-0.21508706
-0.2219142
-0.22845784
-0.23468328
-0.24055608
-0.24604293
-0.25111212
-0.25573332
-0.25987541
-0.263503
-0.26657395
-0.26904762
-0.2709067
-0.27217542
-0.26407994
-0.26281493
-0.26095493
-0.25847535
-0.25539795
-0.25176099
-0.24760356
-0.24295904
-0.23785711
-0.23232677
-0.22639818
-0.220103
-0.21347393
-0.20654548
-0.1993497
-0.19191874
-0.18428398
-0.17647551
-0.16852146
-0.16044822
-0.15228013
-0.14403936
-0.13574616
-0.12741879
-0.11907359
-0.11072545
-0.10238791
-0.094073535
-0.08344953
-0.092125696
-0.10080749
-0.10948125
-0.11813251
-0.12674556
-0.13530338
-0.14378735
-0.15217703
-0.16045026
-0.16858298
-0.17654939
-0.18432209
-0.19187197
-0.19916886
-0.2061818
-0.21287925
-0.21922947
-0.22520139
-0.23076495
-0.23589153
-0.24055344
-0.24472194
-0.24836445
-0.25144328
-0.2539223
-0.25578192
-0.25704379
-0.25109537
-0.24983445
-0.24797449
-0.24549406
-0.24241241
-0.23876469
-0.23458762
-0.22991248
-0.22476705
-0.21917781
-0.21317205
-0.20677836
-0.20002645
-0.19294662
-0.18556911
-0.17792377
-0.17003975
-0.16194524
-0.15366703
-0.14523043
-0.13665924
-0.12797556
-0.11919996
-0.11035141
-0.1014475
-0.0925046
-0.083537948
-0.074562131
-0.067417435
-0.076632231
-0.085825939
-0.094983243
-0.10408828
-0.11312411
-0.12207274
-0.13091489
-0.13962992
-0.14819575
-0.15658885
-0.16478428
-0.17275576
-0.18047583
-0.18791618
-0.1950479
-0.20184174
-0.20826859
-0.21429996
-0.21990843
-0.22506794
-0.2297531
-0.23393731
-0.23758993
-0.24067528
-0.24315852
-0.24502128
-0.24628513
-0.24264375
-0.24137134
-0.23950376
-0.23701766
-0.2339293
-0.23027349
-0.22608475
-0.22139276
-0.2162233
-0.21060095
-0.20455094
-0.19809977
-0.19127503
-0.18410498
-0.17661807
-0.16884249
-0.16080595
-0.15253534
-0.14405653
-0.13539418
-0.12657162
-0.11761091
-0.10853277
-0.099356653
-0.090100896
-0.080782818
-0.071418792
-0.062024659
-0.058352429
-0.067867131
-0.077345526
-0.086771374
-0.096128125
-0.10539802
-0.11456248
-0.12360205
-0.13249589
-0.14122198
-0.14975709
-0.1580768
-0.16615556
-0.17396682
-0.18148322
-0.18867717
-0.19552088
-0.20198673
-0.20804786
-0.21367861
-0.21885451
-0.22355145
-0.22774335
-0.23140019
-0.23448646
-0.23697338
-0.23884707
-0.24013166
-0.23869469
-0.23740385
-0.2355358
-0.23305337
-0.22996731
-0.22630868
-0.22211362
-0.21741357
-0.21223441
-0.2065996
-0.20053288
-0.19405937
-0.18720549
-0.1799985
-0.1724659
-0.16463504
-0.15653298
-0.14818607
-0.13961971
-0.13085817
-0.12192459
-0.11284101
-0.10362826
-0.09430595
-0.084892722
-0.075406433
-0.065863955
-0.05628171
-0.054825404
-0.064464753
-0.074062202
-0.083601048
-0.093064362
-0.10243464
-0.1116931
-0.12081992
-0.12979436
-0.13859454
-0.14719718
-0.15557791
-0.16371144
-0.17157158
-0.17913133
-0.18636334
-0.19324016
-0.19973456
-0.20582014
-0.2114718
-0.21666602
-0.22137974
-0.22558779
-0.22925853
-0.23235677
-0.23484785
-0.23672043
-0.23800903
-0.23878684
-0.23832303
-0.23755148
-0.23626362
-0.23437871
-0.23186809
-0.22874904
-0.22505608
-0.22082475
-0.21608471
-0.2108609
-0.2051765
-0.19905539
-0.19252286
-0.18560544
-0.17833047
-0.17072549
-0.16281795
-0.15463494
-0.14620269
-0.13754654
-0.12869089
-0.11965891
-0.11047253
-0.1011524
-0.091718417
-0.082189207
-0.072582053
-0.062913819
-0.053201229
-0.050458167
-0.060294528
-0.070082468
-0.079805593
-0.089447219
-0.098989601
-0.10841409
-0.11770125
-0.12683049
-0.13577992
-0.1445264
-0.15304552
-0.16131187
-0.16929915
-0.17698017
-0.18432732
-0.19131286
-0.1979093
-0.20408989
-0.20982913
-0.21510299
-0.21988838
-0.22416095
-0.22789147
-0.23104358
-0.2335803
-0.23548236
-0.2367759
-0.23754588
-0.23640881
-0.23562809
-0.2343177
-0.23238939
-0.22981633
-0.22661865
-0.22283471
-0.21850152
-0.2136486
-0.20830024
-0.20247956
-0.19621077
-0.18951963
-0.18243317
-0.17497914
-0.16718553
-0.15908012
-0.15069021
-0.14204228
-0.13316186
-0.12407334
-0.11479985
-0.10536322
-0.095784071
-0.08608174
-0.076274588
-0.066380102
-0.05641498
-0.046395344
-0.040942313
-0.051209057
-0.061412935
-0.071538066
-0.081567985
-0.09148546
-0.10127241
-0.11090967
-0.12037677
-0.12965191
-0.138712
-0.14753262
-0.15608818
-0.16435202
-0.17229665
-0.179894
-0.1871158
-0.19393397
-0.20032112
-0.20625116
-0.21169963
-0.21664321
-0.2210574
-0.2249122
-0.22816971
-0.23079086
-0.23275565
-0.23409215
-0.23489051
-0.23300783
-0.23218825
-0.23081838
-0.22880761
-0.22612661
-0.22279509
-0.21885269
-0.21433808
-0.2092818
-0.20370874
-0.19764252
-0.19110796
-0.18413158
-0.17674119
-0.16896528
-0.16083248
-0.15237116
-0.14360911
-0.13457313
-0.12528892
-0.11578091
-0.10607218
-0.096184385
-0.086137807
-0.075951386
-0.065642897
-0.055229238
-0.044726542
-0.034150352
-0.026138088
-0.0370817
-0.047938973
-0.058694779
-0.069333398
-0.079838371
-0.090192289
-0.10037653
-0.11037105
-0.12015435
-0.12970342
-0.13899384
-0.14799981
-0.15669431
-0.16504927
-0.17303596
-0.1806253
-0.18778837
-0.19449685
-0.20072373
-0.20644374
-0.21163283
-0.21626569
-0.22031114
-0.22372975
-0.22648123
-0.22854583
-0.22995373
-0.23079679
-0.2283017
-0.22743358
-0.22598379
-0.22385887
-0.22102779
-0.21751055
-0.21334832
-0.20858142
-0.20324169
-0.19735497
-0.19094581
-0.18403999
-0.17666507
-0.16884989
-0.16062393
-0.1520167
-0.14305735
-0.13377425
-0.12419466
-0.11434447
-0.10424808
-0.093928376
-0.083406647
-0.072702619
-0.061834546
-0.050819384
-0.039673081
-0.02841082
-0.017047216
-0.007023463
-0.018853988
-0.030566077
-0.042145775
-0.05357851
-0.064848941
-0.075940684
-0.086835925
-0.097515302
-0.10795782
-0.11814077
-0.12803976
-0.13762884
-0.14688054
-0.15576613
-0.16425604
-0.17232029
-0.17992882
-0.18705221
-0.19366232
-0.19973279
-0.20523855
-0.21015317
-0.21444404
-0.2180698
-0.22098824
-0.22317895
-0.22467397
-0.22556928
-0.22264668
-0.2217222
-0.22017884
-0.21791765
-0.21490537
-0.21116285
-0.20673345
-0.2016597
-0.19597504
-0.18970655
-0.18287988
-0.17552198
-0.16766161
-0.15932881
-0.15055421
-0.14136832
-0.13180113
-0.12188169
-0.1116377
-0.10109518
-0.090278435
-0.079209981
-0.067910462
-0.056398793
-0.044692259
-0.032806568
-0.020756334
-0.0085554033
0.0037830115
0.015211492
0.0023308506
-0.010391433
-0.022943009
-0.035310885
-0.047481262
-0.05943919
-0.071168039
-0.08264942
-0.09386309
-0.10478679
-0.11539634
-0.12566565
-0.13556686
-0.14507057
-0.15414637
-0.16276321
-0.17088988
-0.17849569
-0.18555126
-0.19202903
-0.19790273
-0.20314462
-0.20772034
-0.21158613
-0.21469739
-0.21703287
-0.21862715
-0.21958242
-0.21642707
-0.2154399
-0.21379281
-0.2113803
-0.20816638
-0.20417272
-0.19944518
-0.19402878
-0.18795884
-0.1812638
-0.17397053
-0.16610721
-0.1577039
-0.1487919
-0.13940301
-0.12956879
-0.11932014
-0.10868672
-0.097696579
-0.086375807
-0.074748435
-0.0628364
-0.050659492
-0.038235472
-0.02558023
-0.01270787
0.00036873269
0.013637543
0.027087194
0.039220587
0.025183593
0.011351343
-0.002265812
-0.015657044
-0.028810522
-0.041713113
-0.054349828
-0.066703516
-0.078754898
-0.090482389
-0.10186215
-0.11286814
-0.12347217
-0.13364425
-0.14335312
-0.15256671
-0.16125261
-0.16937887
-0.17691482
-0.18383164
-0.19010186
-0.19569632
-0.20057875
-0.20470282
-0.2080214
-0.21051246
-0.21221339
-0.21323309
-0.21005419
-0.20900186
-0.20724697
-0.2046772
-0.20125368
-0.19699883
-0.19196105
-0.18618795
-0.17971677
-0.17257736
-0.1647978
-0.15640751
-0.1474378
-0.13792122
-0.12789077
-0.11737904
-0.10641764
-0.095036776
-0.083264824
-0.071127849
-0.058649426
-0.045850292
-0.032749385
-0.019363532
-0.005706655
0.0082093432
0.022373807
0.036777378
0.051410762
0.063453677
0.048226335
0.033253746
0.018543108
0.0041036029
-0.010055126
-0.02392203
-0.037483942
-0.05072482
-0.063625875
-0.076168065
-0.088327963
-0.10007926
-0.11139388
-0.12224123
-0.13258928
-0.142405
-0.15165484
-0.16030567
-0.16832556
-0.17568453
-0.18235389
-0.18830313
-0.19349405
-0.19787779
-0.2014047
-0.20405202
-0.20586006
-0.20694453
-0.20395788
-0.20284232
-0.20098286
-0.19826054
-0.19463362
-0.19012518
-0.18478604
-0.1786663
-0.17180506
-0.16423348
-0.15598081
-0.1470776
-0.13755633
-0.12745068
-0.11679472
-0.10562198
-0.093964878
-0.081854293
-0.069317287
-0.056379525
-0.043065134
-0.029395448
-0.015387023
-0.0010536144
0.013592466
0.028540967
0.043783578
0.059312901
0.075122481
0.086204506
0.069836869
0.053774503
0.038022697
0.022587333
0.0074754423
-0.0073040959
-0.021740081
-0.035818907
-0.049524
-0.062835085
-0.07573084
-0.088185528
-0.10016847
-0.11164997
-0.12259816
-0.13297908
-0.14275801
-0.15190075
-0.16037429
-0.16814759
-0.17519088
-0.18147236
-0.18695207
-0.19157874
-0.19530048
-0.19809396
-0.20000233
-0.20114737
-0.19856576
-0.19739333
-0.1954393
-0.19257978
-0.18877024
-0.18403408
-0.17842419
-0.17199288
-0.16478095
-0.1568208
-0.14814265
-0.13877801
-0.12876036
-0.11812459
-0.10690588
-0.095136667
-0.082850301
-0.070079555
-0.056851673
-0.043192171
-0.029123226
-0.014664017
0.00016947953
0.015364335
0.030910363
0.046799851
0.063026977
0.079587162
0.09647652
0.10570763
0.088345678
0.071334934
0.054677986
0.038378175
0.022440184
0.0068706871
-0.008321102
-0.023123065
-0.037519901
-0.05149301
-0.065020322
-0.0780765
-0.090633652
-0.10266053
-0.11412432
-0.12498889
-0.13522087
-0.14478491
-0.1536469
-0.16177495
-0.16913841
-0.17570433
-0.18143117
-0.18626567
-0.19015412
-0.19307318
-0.19506888
-0.19626728
-0.19430133
-0.19308027
-0.19104827
-0.18807784
-0.18412148
-0.17920241
-0.17337496
-0.16669313
-0.15919908
-0.15092625
-0.14190575
-0.13216972
-0.12175264
-0.11068807
-0.099016578
-0.086767785
-0.07397661
-0.060674003
-0.046888295
-0.03264459
-0.017964596
-0.0028664706
0.012635098
0.028528688
0.044805936
0.061461119
0.078490583
0.095892116
0.11366429
0.12013879
0.10203092
0.084309779
0.066975835
0.050030403
0.033476211
0.017318136
0.0015638998
-0.013775671
-0.028686441
-0.043150705
-0.057146986
-0.070650213
-0.083632171
-0.096061464
-0.1079033
-0.11912538
-0.12969446
-0.13957218
-0.1487218
-0.15711245
-0.16471269
-0.17148848
-0.17739714
-0.18238439
-0.18639564
-0.18940807
-0.19147062
-0.19271327
-0.19151565
-0.1902566
-0.18817089
-0.18512732
-0.18107663
-0.17604028
-0.17007245
-0.16322719
-0.1555478
-0.14706846
-0.13782042
-0.12783768
-0.11715949
-0.10581548
-0.093845403
-0.081280416
-0.068155166
-0.054501286
-0.040347074
-0.025717244
-0.010632915
0.0048883482
0.020832759
0.037189862
0.053952635
0.071116898
0.088680502
0.10664286
0.12500425
0.12830049
0.10976692
0.091640822
0.073921377
0.056608642
0.039704369
0.023212336
0.0071392329
-0.0085049922
-0.023707036
-0.038449294
-0.052710554
-0.066466279
-0.079688323
-0.09234522
-0.10440229
-0.11582816
-0.12658291
-0.13663526
-0.14594881
-0.15448807
-0.16222126
-0.16911302
-0.17511877
-0.1801845
-0.18425703
-0.18731862
-0.18942086
-0.1906946
-0.19019675
-0.18891369
-0.18680298
-0.18373561
-0.17965634