/*--------------------------------*- C++ -*----------------------------------*\
| =========                 |                                                 |
| \\      /  F ield         | OpenFOAM: The Open Source CFD Toolbox           |
|  \\    /   O peration     | Version:  v2012                                 |
|   \\  /    A nd           | Website:  www.openfoam.com                      |
|    \\/     M anipulation  |                                                 |
\*---------------------------------------------------------------------------*/
FoamFile
{
    version     2.0;
    format      ascii;
    class       surfaceScalarField;
    location    "100";
    object      phi;
}
// * * * * * * * * * * * * * * * * * * * * * * * * * * * * * * * * * * * * * //

dimensions      [0 3 -1 0 0 0 0];
oriented        oriented;


internalField   nonuniform List<scalar> 
220385
(
-5.9323482e-05
-0.0025341385
-4.3062384e-05
0.0024819715
6.1467344e-05
9.3085529e-05
-0.0024018788
2.2949348e-05
-1.417093e-05
0.0023337769
3.6777224e-05
-2.9200981e-06
5.0023671e-05
-3.5395534e-05
0.0023299275
-4.1480399e-06
2.9759856e-05
0.0024181329
-7.9164126e-05
4.7646739e-05
0.0025738013
-2.1084652e-05
4.9976207e-05
0.0027719983
-5.5841474e-05
5.1145274e-05
0.0029253506
-1.6677545e-05
5.4757711e-05
0.003042159
-1.5320279e-05
5.8554558e-05
0.0030976687
-3.697732e-06
6.0824288e-05
0.0031248863
-5.573173e-07
6.1681869e-05
0.0031334695
3.2614543e-07
6.1982877e-05
0.0031352533
3.2967725e-07
6.2059911e-05
0.0031351449
2.4624537e-07
6.207396e-05
0.0031348576
1.450522e-07
6.2073263e-05
0.003134687
5.8673849e-08
6.2074327e-05
0.0031346766
-2.7738438e-08
6.2077596e-05
0.0031348549
-3.6713908e-08
6.2066816e-05
0.0031351498
8.2768841e-07
6.1992052e-05
0.0031352628
3.9452931e-06
6.1693106e-05
0.0031334818
1.5541173e-05
6.083753e-05
0.0031249012
1.686712e-05
5.8569377e-05
0.0030976855
5.5997395e-05
5.4774728e-05
0.0030421775
2.1207001e-05
5.1165986e-05
0.0029253715
7.9255602e-05
5.0000809e-05
0.0027720209
4.2095526e-06
4.7672419e-05
0.0025738238
3.5427245e-05
2.9782878e-05
0.0024181542
-3.6759137e-05
0.0023299483
-2.8907235e-06
0.0024019049
4.9992536e-05
-8.26514e-05
0.0025264111
8.1839462e-05
-1.8298135e-05
0.002690466
9.6699144e-05
-5.4726345e-05
0.0028047166
0.00010430861
-1.0546123e-05
0.0028905063
0.00011013698
-1.1044062e-05
0.0029196304
0.00011293164
9.4907357e-07
0.0029285294
0.00011403055
2.039705e-06
0.0029242985
0.00011380866
1.9242069e-06
0.0029185482
0.00011348385
8.7081629e-07
0.0029142368
0.00011319607
2.6189287e-07
0.0029119017
0.00011303369
-1.0009899e-07
0.002910798
0.00011295046
-2.6073875e-07
0.0029103474
0.0001129141
-3.2492468e-07
0.0029101829
0.00011289895
-3.3469903e-07
0.0029101244
0.00011289371
-3.4450496e-07
0.0029101234
0.00011289181
-3.6015849e-07
0.0029101282
0.00011289013
-3.7681441e-07
0.0029101297
0.00011288778
-3.8792663e-07
0.0029101284
0.00011288569
-3.9677373e-07
0.0029101284
0.00011288306
-4.0094547e-07
0.0029101304
0.00011287994
-4.1013842e-07
0.002910134
0.00011287693
-4.1565303e-07
0.0029101402
0.00011287437
-4.2178456e-07
0.0029101472
0.00011287227
-4.3094982e-07
0.0029101472
0.00011287103
-4.4590727e-07
0.0029101456
0.000112868
-4.3318589e-07
0.0029101334
0.00011286448
-4.3785228e-07
0.0029101582
0.00011286188
0.0029101565
0.00011285888
8.4468203e-07
0.0029099932
0.00011300408
8.3165574e-07
0.002909996
0.00011299959
8.1763946e-07
0.0029100004
0.00011299627
7.8332888e-07
0.0029100228
0.0001129928
7.72251e-07
0.0029100089
0.00011298853
7.5294944e-07
0.0029100152
0.00011298515
7.3365736e-07
0.0029100207
0.00011298354
7.1781675e-07
0.0029100229
0.00011298077
7.0476131e-07
0.0029100255
0.00011297614
6.7653408e-07
0.0029100369
0.00011297277
6.3887849e-07
0.0029100529
0.00011297156
6.1510926e-07
0.0029100426
0.00011296862
6.0536808e-07
0.0029100336
0.00011296532
5.8640347e-07
0.0029100508
0.00011296351
5.3900011e-07
0.0029100666
0.00011296174
4.6393083e-07
0.0029101141
0.00011296396
2.9353955e-07
0.0029102811
0.00011297582
-7.7017625e-08
0.0029107403
0.00011300917
-6.9436887e-07
0.0029118488
0.00011308912
-1.7565229e-06
0.0029141872
0.00011324809
-1.8816747e-06
0.0029185026
0.0001135331
-8.0197578e-07
0.0029242574
0.00011385589
1.1174743e-05
0.0029284956
0.00011407606
1.0650766e-05
0.0029196056
0.00011297557
5.4802524e-05
0.0028904849
0.00011017973
1.8352619e-05
0.0028046929
0.00010434758
8.2690146e-05
0.0026904388
9.6730962e-05
0.0025263833
8.186842e-05
1.1402662e-05
0.0024481831
8.9746932e-05
7.273514e-06
0.0025882795
0.00010628849
-5.4386361e-06
0.0027022354
0.00011516965
-4.4257533e-06
0.0027693148
0.00012015721
-4.6610152e-06
0.0027971631
0.00012267785
-2.4409851e-06
0.0028026144
0.00012366116
-1.3141473e-06
0.0027994448
0.0001236857
-9.6680188e-07
0.0027946825
0.0001234727
-1.0911861e-06
0.0027910702
0.00012324137
-1.2915127e-06
0.0027889612
0.00012308788
-1.4703611e-06
0.002787914
0.00012300514
-1.6073046e-06
0.0027874498
0.00012296833
-1.7162446e-06
0.0027872669
0.00012295611
-1.8087079e-06
0.0027872024
0.00012295666
-1.8869604e-06
0.0027871674
0.00012296165
-1.9207976e-06
0.0027870995
0.00012296795
-1.9925309e-06
0.0027871382
0.00012297618
-2.1016271e-06
0.0027871769
0.00012298507
-2.1660347e-06
0.0027871087
0.00012299259
-2.1815854e-06
0.0027870411
0.00012299996
-2.2850262e-06
0.0027871171
0.00012300922
-2.346396e-06
0.0027870631
0.00012301898
-2.4044146e-06
0.0027870451
0.00012302809
-2.4283715e-06
0.0027869946
0.00012303832
-2.5281163e-06
0.0027870726
0.00012304996
-2.5933116e-06
0.0027870047
0.00012306085
-2.6032723e-06
0.0027869338
0.00012307218
0.0027870044
0.00012308533
-0.0022716548
1.5031306e-06
6.3350658e-07
-0.0022736074
1.4176205e-06
5.3494648e-07
-0.0022753577
1.3189427e-06
4.3135049e-07
-0.0022768858
1.2092555e-06
3.1884655e-07
-0.0022781753
1.0926206e-06
1.9684713e-07
-0.0022792108
9.6553552e-07
6.9998884e-08
-0.0022799801
8.3096831e-07
-6.1698311e-08
-0.0022804759
6.933136e-07
-1.9745868e-07
-0.0022806953
5.5032462e-07
-3.3100326e-07
-0.0022806523
4.1232172e-07
-4.5529217e-07
-0.002280327
2.6488979e-07
-5.9016908e-07
-0.0022797036
1.0860871e-07
-7.3199229e-07
-0.0022788091
-3.5627808e-08
-8.5885132e-07
-0.0022776506
-1.8035149e-07
-9.782148e-07
-0.0022762424
-3.1861395e-07
-1.0895782e-06
-0.0022746019
-4.485692e-07
-1.1918664e-06
-0.0022727517
-5.6951111e-07
-1.2807727e-06
-0.002270714
-6.8042082e-07
-1.3572707e-06
-0.0022685123
-7.8103893e-07
-1.4206718e-06
-0.0022661718
-8.7166312e-07
-1.4687779e-06
-0.0022637157
-9.5002428e-07
-1.5060872e-06
-0.0022611695
-1.0154946e-06
-1.5306713e-06
-0.0022585633
-1.0699189e-06
-1.536285e-06
-0.0022559222
-1.1124983e-06
-1.5286122e-06
-0.0022532664
-1.1415806e-06
-1.5142959e-06
-0.0022506155
-1.1611298e-06
-1.4897329e-06
-0.0022479915
-1.1737271e-06
-1.4502545e-06
-0.0022454132
-1.1758694e-06
-1.402391e-06
-0.0022428943
-1.1664794e-06
-1.3524798e-06
-0.0022404486
-1.15026e-06
-1.2954475e-06
-0.0022380865
-1.1298935e-06
-1.2321986e-06
-0.0022358158
-1.1033799e-06
-1.1672846e-06
-0.0022336443
-1.071177e-06
-1.1003688e-06
-0.0022315777
-1.0345344e-06
-1.0320853e-06
-0.0022296203
-9.9387683e-07
-9.6351686e-07
-0.0022277738
-9.4998228e-07
-8.9646346e-07
-0.0022260381
-9.055596e-07
-8.3019421e-07
-0.0022244141
-8.5843282e-07
-7.6556069e-07
-0.0022229042
-8.0808306e-07
-7.0182052e-07
-0.0022215079
-7.5733728e-07
-6.3892674e-07
-0.0022202209
-7.0713392e-07
-5.79875e-07
-0.0022190355
-6.6122847e-07
-5.2415325e-07
-0.002217968
-6.1244176e-07
-4.5502599e-07
-0.0022170248
-5.7332135e-07
-3.6996902e-07
-0.0022164652
-4.4226243e-07
-1.17322e-07
-0.0022164467
-2.8279258e-07
2.6433486e-07
-0.0022185575
5.6856392e-07
1.542226e-06
-0.0022214081
7.6967167e-07
2.0809487e-06
-0.0022292071
3.0134112e-06
4.7855958e-06
-0.0022391889
4.0549531e-06
5.9268466e-06
-0.002260712
9.4423356e-06
1.208072e-05
-0.0022978716
1.683078e-05
2.0328789e-05
1.4213923e-05
1.7862834e-05
0.0023338549
2.3034264e-05
5.9229583e-05
0.0022878801
2.3766364e-05
3.903927e-05
0.0022649235
1.3317539e-05
1.9081369e-05
0.002254896
5.9408357e-06
8.1416383e-06
0.0022504959
3.2189415e-06
4.1945396e-06
0.0022481707
1.6013137e-06
1.4935758e-06
0.0022477139
6.0044983e-07
4.2488806e-07
0.0022481137
-2.7926781e-07
-4.0328527e-07
0.0022491267
-8.2273043e-07
-6.3257201e-07
0.0022503276
-1.0966707e-06
-6.774907e-07
0.0022515921
-1.2319332e-06
-6.450682e-07
0.002252889
-1.3211369e-06
-6.3695695e-07
0.0022542447
-1.4048883e-06
-6.5797421e-07
0.002255684
-1.4935938e-06
-7.0307569e-07
0.0022572253
-1.5865826e-06
-7.6279776e-07
0.0022588743
-1.6807247e-06
-8.2668365e-07
0.0022606363
-1.7722718e-06
-8.9523222e-07
0.0022625133
-1.8596311e-06
-9.674367e-07
0.0022645019
-1.9437807e-06
-1.0386595e-06
0.0022666013
-2.02249e-06
-1.1114828e-06
0.0022688078
-2.0934859e-06
-1.1841155e-06
0.0022711157
-2.1557684e-06
-1.2555184e-06
0.002273518
-2.2068497e-06
-1.3254058e-06
0.0022760071
-2.2466279e-06
-1.3926881e-06
0.0022785697
-2.2763568e-06
-1.4527524e-06
0.0022811916
-2.291787e-06
-1.5059302e-06
0.0022838616
-2.2878792e-06
-1.5558992e-06
0.0022865628
-2.264959e-06
-1.5973614e-06
0.0022892693
-2.2241586e-06
-1.62392e-06
0.002291959
-2.1635729e-06
-1.6386377e-06
0.002294614
-2.0803785e-06
-1.6444707e-06
0.002297208
-1.9736586e-06
-1.6358372e-06
0.0022997107
-1.843024e-06
-1.6097659e-06
0.0023020975
-1.6887142e-06
-1.5697433e-06
0.0023043441
-1.5115689e-06
-1.5160062e-06
0.0023064227
-1.312887e-06
-1.4461587e-06
0.0023083089
-1.0940095e-06
-1.3617593e-06
0.0023099809
-8.5640759e-07
-1.2640912e-06
0.0023114161
-6.0088004e-07
-1.1530004e-06
0.0023125995
-3.3055102e-07
-1.0331241e-06
0.0023135156
-4.7949595e-08
-9.0386498e-07
0.0023141486
2.3881164e-07
-7.6315112e-07
0.0023144807
5.4309976e-07
-6.1030685e-07
0.0023145371
8.2462203e-07
-4.6869766e-07
0.0023143171
1.1013645e-06
-3.3103367e-07
0.0023138137
1.3817162e-06
-1.8500673e-07
0.0023130283
1.6537387e-06
-3.7393365e-08
0.0023119753
1.9154495e-06
1.030919e-07
0.0023106656
2.1627263e-06
2.3955308e-07
0.0023091104
2.3927204e-06
3.7179294e-07
0.002307332
2.6055781e-06
4.9177793e-07
0.0023053472
2.7975613e-06
6.0478711e-07
2.9667364e-06
7.1177809e-07
-2.406233e-05
-0.0027758788
6.212053e-06
-2.4545038e-05
-0.0027746895
6.1266205e-06
-2.4991405e-05
-0.0027734855
6.0302189e-06
-2.541113e-05
-0.0027722385
5.9177844e-06
-2.5811667e-05
-0.002770923
5.787971e-06
-2.6158111e-05
-0.0027695594
5.634565e-06
-2.6415994e-05
-0.0027681736
5.4575121e-06
-2.6584549e-05
-0.0027667527
5.2530552e-06
-2.6664053e-05
-0.0027652771
5.0225781e-06
-2.6609549e-05
-0.0027637629
4.7663442e-06
-2.6408126e-05
-0.0027622349
4.4854976e-06
-2.6045567e-05
-0.0027606733
4.1859578e-06
-0.0027591033
3.8713999e-06
4.5147338e-06
-0.0024204919
7.5167768e-07
6.1910799e-06
-0.0025615035
7.8099133e-07
7.9563578e-06
-0.0026737165
8.375702e-07
9.7546011e-06
-0.0027360172
9.2061413e-07
1.1544e-05
-0.0027588192
1.0219826e-06
1.3296427e-05
-0.002761687
1.1444249e-06
1.4992081e-05
-0.0027584883
1.2925816e-06
1.6615424e-05
-0.0027554272
1.4677105e-06
1.8152631e-05
-0.0027540789
1.6685558e-06
1.9588915e-05
-0.0027541864
1.8938164e-06
2.0909234e-05
-0.0027551545
2.142168e-06
2.209894e-05
-0.0027565475
2.4113462e-06
2.3145124e-05
-0.002758137
2.699648e-06
2.4037528e-05
-0.0027598165
3.0016582e-06
2.4766859e-05
-0.0027615525
3.3135063e-06
2.5330544e-05
-0.002763294
3.6270432e-06
2.5732727e-05
-0.0027650094
3.9339616e-06
2.598039e-05
-0.0027667109
4.228331e-06
2.608698e-05
-0.0027683744
4.5048957e-06
2.6070138e-05
-0.0027700199
4.7595882e-06
2.5950369e-05
-0.0027716224
4.9894804e-06
2.5743666e-05
-0.0027731613
5.1943726e-06
2.5464914e-05
-0.0027746547
5.3741058e-06
2.5131063e-05
-0.0027761204
5.5312724e-06
2.4759769e-05
-0.0027775329
5.6656208e-06
2.4359578e-05
-0.0027788681
5.7828095e-06
2.3936824e-05
-0.0027801519
5.8851871e-06
2.3496907e-05
-0.0027814161
5.9772307e-06
2.3048519e-05
-0.002782602
6.0586538e-06
2.2595172e-05
-0.002783767
6.1313585e-06
-0.0027848829
6.2016505e-06
-2.2544396e-05
-0.0027903881
5.926415e-06
-2.2960576e-05
-0.0027891982
5.8474351e-06
-2.3341947e-05
-0.0027879871
5.766471e-06
-2.3734177e-05
-0.0027867015
5.6776338e-06
-2.4099045e-05
-0.0027853649
5.5778375e-06
-2.4439603e-05
-0.0027839963
5.4687153e-06
-2.4748406e-05
-0.00278257
5.3458997e-06
-2.5016144e-05
-0.0027810598
5.2071109e-06
-2.5227813e-05
-0.0027794905
5.0475004e-06
-2.5369367e-05
-0.0027778867
4.8669507e-06
-2.5426307e-05
-0.0027762282
4.662747e-06
-2.5381917e-05
-0.0027744996
4.4353317e-06
-2.5217059e-05
-0.0027727239
4.1846365e-06
-2.4917527e-05
-0.0027709249
3.9144964e-06
-2.4471653e-05
-0.0027690836
3.6283514e-06
-2.3872483e-05
-0.0027672251
3.3319602e-06
-2.3117367e-05
-0.0027653385
3.0308909e-06
-2.2210299e-05
-0.002763456
2.7324327e-06
-2.116144e-05
-0.0027616305
2.44461e-06
-1.9981873e-05
-0.0027598982
2.171057e-06
-1.8684433e-05
-0.0027583686
1.9166377e-06
-1.7283128e-05
-0.0027572711
1.6833221e-06
-1.5792841e-05
-0.0027570421
1.4729082e-06
-1.4227533e-05
-0.0027582789
1.286391e-06
-1.2600325e-05
-0.00276124
1.1245334e-06
-1.0925799e-05
-0.0027643497
9.8814579e-07
-9.2221204e-06
-0.0027613988
8.7593509e-07
-7.5151693e-06
-0.0027385079
7.8379468e-07
-5.8427296e-06
-0.002676098
7.0904522e-07
-4.2578841e-06
-0.0025637479
6.5950628e-07
-0.0024225888
6.3663217e-07
3.968915e-06
-0.0024244663
5.1415662e-07
5.4511905e-06
-0.0025657586
5.284409e-07
7.0186042e-06
-0.0026782343
5.688786e-07
8.6219187e-06
-0.0027407447
6.334717e-07
1.0227479e-05
-0.0027637188
7.1445383e-07
1.1812539e-05
-0.0027667492
8.1447213e-07
1.3360351e-05
-0.0027637251
9.372182e-07
1.4857636e-05
-0.0027608596
1.0834607e-06
1.6292006e-05
-0.0027597294
1.2529138e-06
1.765079e-05
-0.0027600749
1.4450115e-06
1.8919494e-05
-0.0027612966
1.6592906e-06
2.0084625e-05
-0.0027629578
1.8945293e-06
2.1133234e-05
-0.0027648281
2.148949e-06
2.2052963e-05
-0.0027667946
2.4188412e-06
2.2832927e-05
-0.0027688188
2.7003145e-06
2.3468795e-05
-0.0027708472
2.9862296e-06
2.3962325e-05
-0.0027728468
3.2696226e-06
2.4319312e-05
-0.0027748269
3.5449946e-06
2.4548956e-05
-0.0027767597
3.8061203e-06
2.4661654e-05
-0.002778663
4.0506466e-06
2.4666711e-05
-0.0027805071
4.2738764e-06
2.4604453e-05
-0.0027823002
4.4757571e-06
2.4464815e-05
-0.0027840074
4.6565209e-06
2.4268613e-05
-0.0027856818
4.8182016e-06
2.4028588e-05
-0.0027872911
4.9611342e-06
2.3754156e-05
-0.0027888113
5.0894238e-06
2.3452267e-05
-0.0027902684
5.205401e-06
2.3127083e-05
-0.0027916892
5.3128868e-06
2.2776235e-05
-0.0027930463
5.4100265e-06
2.2425541e-05
-0.0027943477
5.5001571e-06
-0.0027956006
5.5882051e-06
-2.2234265e-05
-0.0028004644
5.1898133e-06
-2.253898e-05
-0.0027991346
5.0916507e-06
-2.2824543e-05
-0.0027977522
4.9914317e-06
-2.308728e-05
-0.0027963114
4.8849438e-06
-2.332208e-05
-0.0027948044
4.7708138e-06
-2.3524543e-05
-0.0027932566
4.6477543e-06
-2.3690213e-05
-0.0027916403
4.5149232e-06
-2.3809563e-05
-0.0027899298
4.3673329e-06
-2.3872494e-05
-0.0027881494
4.2048791e-06
-2.3865289e-05
-0.0027863311
4.0237415e-06
-2.3775672e-05
-0.0027844216
3.8248772e-06
-2.3595901e-05
-0.0027824495
3.6067342e-06
-2.3288533e-05
-0.0027804384
3.3713026e-06
-2.2861437e-05
-0.0027783751
3.1211385e-06
-2.2325604e-05
-0.0027762421
2.8595187e-06
-2.1652944e-05
-0.0027741121
2.592237e-06
-2.0848814e-05
-0.0027719477
2.3248244e-06
-1.9918091e-05
-0.0027697892
2.0639404e-06
-1.8872694e-05
-0.0027676895
1.8160746e-06
-1.7726399e-05
-0.0027656888
1.5846553e-06
-1.649255e-05
-0.0027639027
1.3722218e-06
-1.5184262e-05
-0.0027625631
1.1799658e-06
-1.3814657e-05
-0.0027621082
1.0091746e-06
-1.2395399e-05
-0.0027631383
8.5944807e-07
-1.0937925e-05
-0.002765914
7.3147599e-07
-9.4535556e-06
-0.0027688587
6.2511259e-07
-7.9573218e-06
-0.0027657547
5.3960396e-07
-6.4692753e-06
-0.0027427041
4.7140419e-07
-5.018758e-06
-0.0026801037
4.1887795e-07
-3.6500577e-06
-0.0025675174
3.901459e-07
-0.0024261097
3.8605171e-07
3.3024064e-06
-0.0024274934
2.4402327e-07
4.5470185e-06
-0.0025690015
2.3946435e-07
5.8698419e-06
-0.0026816842
2.5773451e-07
7.2324969e-06
-0.0027443646
2.9783386e-07
8.6088011e-06
-0.0027674831
3.5211623e-07
9.9818721e-06
-0.0027706533
4.2153729e-07
1.1339221e-05
-0.0027677806
5.0926979e-07
1.2670903e-05
-0.0027650865
6.1644009e-07
1.3967211e-05
-0.002764148
7.4349798e-07
1.5217263e-05
-0.0027647033
8.9015497e-07
1.6409199e-05
-0.0027661516
1.056952e-06
1.7531119e-05
-0.0027680542
1.2435324e-06
1.8569886e-05
-0.0027701774
1.4490667e-06
1.9518285e-05
-0.0027724093
1.6716364e-06
2.0338565e-05
-0.0027746762
1.9081317e-06
2.1041607e-05
-0.0027769682
2.1530615e-06
2.1645539e-05
-0.0027792462
2.4001014e-06
2.2128108e-05
-0.0027815027
2.6450083e-06
2.2499912e-05
-0.0027836917
2.8815659e-06
2.2767395e-05
-0.0027858231
3.1061895e-06
2.2947735e-05
-0.0027879197
3.3177676e-06
2.30298e-05
-0.0027899262
3.5130642e-06
2.3049564e-05
-0.0027918621
3.6929373e-06
2.3012004e-05
-0.0027937489
3.8566413e-06
2.2925763e-05
-0.0027955615
4.0074546e-06
2.2799552e-05
-0.0027972757
4.145382e-06
2.2644428e-05
-0.0027989239
4.2746268e-06
2.2440242e-05
-0.0028005034
4.3961848e-06
2.2215315e-05
-0.0028020394
4.5121257e-06
2.1966637e-05
-0.0028035085
4.6225655e-06
-0.0028049213
4.7306796e-06
-2.1618827e-05
-0.0028089141
4.2126929e-06
-2.180915e-05
-0.0028074125
4.0943505e-06
-2.1969465e-05
-0.0028058535
3.9744615e-06
-2.2095287e-05
-0.0028042275
3.8499206e-06
-2.2182656e-05
-0.002802557
3.7204732e-06
-2.2229249e-05
-0.0028008139
3.5847746e-06
-2.2232344e-05
-0.0027990001
3.4416406e-06
-2.2184047e-05
-0.0027970851
3.2879041e-06
-2.2076537e-05
-0.0027950928
3.1232122e-06
-2.189843e-05
-0.0027930498
2.9454642e-06
-2.1639507e-05
-0.002790934
2.7553261e-06
-2.1290566e-05
-0.0027887244
2.5523333e-06
-2.0844947e-05
-0.002786477
2.339628e-06
-2.0298058e-05
-0.0027841688
2.1191957e-06
-1.9648596e-05
-0.0027817902
1.8945545e-06
-1.8905038e-05
-0.0027793825
1.6707378e-06
-1.8044066e-05
-0.0027769891
1.4519943e-06
-1.7096763e-05
-0.0027746002
1.2436252e-06
-1.6069626e-05
-0.0027722545
1.0499502e-06
-1.4977896e-05
-0.0027700197
8.7372154e-07
-1.3834247e-05
-0.0027680117
7.1646807e-07
-1.2649544e-05
-0.0027664664
5.783445e-07
-1.143477e-05
-0.0027658215
4.5874307e-07
-1.0199312e-05
-0.0027666789
3.5701234e-07
-8.9511775e-06
-0.0027693013
2.7257391e-07
-7.699238e-06
-0.00277211
2.0482656e-07
-6.4531177e-06
-0.0027688818
1.5255813e-07
-5.2265842e-06
-0.0027457049
1.1375909e-07
-4.0416433e-06
-0.0026829575
8.8311012e-08
-2.9303634e-06
-0.002570196
8.3272412e-08
-0.0024286065
9.8178818e-08
2.5369397e-06
-0.0024294384
-5.133292e-08
3.5063996e-06
-0.0025710872
-7.8280922e-08
4.5446261e-06
-0.0026839078
-8.7927406e-08
5.6258557e-06
-0.0027467081
-7.8085893e-08
6.7330398e-06
-0.0027699332
-5.5767642e-08
7.8551953e-06
-0.0027732099
-2.2317214e-08
8.9851159e-06
-0.0027704551
2.3812015e-08
1.0116314e-05
-0.002767894
8.3897913e-08
1.1242348e-05
-0.0027671061
1.585565e-07
1.2354783e-05
-0.0027678275
2.4870759e-07
1.3444443e-05
-0.0027694569
3.5553765e-07
1.4500858e-05
-0.0027715562
4.8005901e-07
1.5511378e-05
-0.0027738879
6.2287682e-07
1.6461417e-05
-0.0027763338
7.8357506e-07
1.7337324e-05
-0.0027788254
9.6034352e-07
1.8129557e-05
-0.0027813245
1.1497857e-06
1.8833433e-05
-0.0027838412
1.3470895e-06
1.9446236e-05
-0.0027863301
1.548515e-06
1.9967445e-05
-0.0027887482
1.7500262e-06
2.039968e-05
-0.002791105
1.9483398e-06
2.0747024e-05
-0.0027934221
2.1407623e-06
2.1015946e-05
-0.0027956434
2.3246323e-06
2.1214422e-05
-0.0027977906
2.4993148e-06
2.1350724e-05
-0.0027998859
2.6645352e-06
2.1432909e-05
-0.0028019036
2.8213799e-06
2.146825e-05
-0.0028038195
2.970249e-06
2.1459459e-05
-0.0028056607
3.1124568e-06
2.1407387e-05
-0.0028074255
3.2500799e-06
2.1315207e-05
-0.0028091446
3.383293e-06
2.1186536e-05
-0.0028107966
3.5127408e-06
-0.0028123905
3.6403182e-06
-2.0663304e-05
-0.0028153037
3.0190729e-06
-2.0728304e-05
-0.002813614
2.8824323e-06
-2.075885e-05
-0.0028118578
2.7436674e-06
-2.0727686e-05
-0.0028100581
2.6014654e-06
-2.0656816e-05
-0.0028081872
2.4555862e-06
-2.0530471e-05
-0.0028062527
2.3068318e-06
-2.0369762e-05
-0.0028042178
2.1534064e-06
-2.0143469e-05
-0.0028021066
1.9944514e-06
-1.9852303e-05
-0.0027999115
1.8297248e-06
-1.9491314e-05
-0.0027976635
1.6591068e-06
-1.9054595e-05
-0.0027953417
1.4828426e-06
-1.8537382e-05
-0.0027929244
1.302238e-06
-1.7939017e-05
-0.0027904669
1.120371e-06
-1.726024e-05
-0.0027879485
9.3958352e-07
-1.6502949e-05
-0.0027853616
7.6315462e-07
-1.5672424e-05
-0.00278275
5.9492748e-07
-1.4777216e-05
-0.0027801588
4.3817316e-07
-1.3820281e-05
-0.0027775873
2.9651646e-07
-1.2838731e-05
-0.0027750417
1.7227023e-07
-1.1822778e-05
-0.002772638
6.5885453e-08
-1.0792882e-05
-0.0027704635
-2.329272e-08
-9.758863e-06
-0.0027687652
-9.6313626e-08
-8.7285338e-06
-0.0027679818
-1.5464621e-07
-7.70892e-06
-0.0027687137
-1.9993615e-07
-6.7045985e-06
-0.0027712257
-2.3367662e-07
-5.719606e-06
-0.0027739382
-2.5669345e-07
-4.7592499e-06
-0.0027706232
-2.7034977e-07
-3.830169e-06
-0.0027473615
-2.7559606e-07
-2.9453361e-06
-0.0026845223
-2.7026379e-07
-2.1248182e-06
-0.00257166
-2.4770486e-07
-0.0024299715
-2.0999832e-07
1.7007196e-06
-0.0024302024
-3.6841472e-07
2.3681718e-06
-0.00257191
-4.1746584e-07
3.0940112e-06
-0.0026847941
-4.5409305e-07
3.8643082e-06
-0.0027476557
-4.7610201e-07
4.6714591e-06
-0.0027709411
-4.8925262e-07
5.5124284e-06
-0.0027742828
-4.9637041e-07
6.3849982e-06
-0.0027716008
-4.9753779e-07
7.2868395e-06
-0.0027691238
-4.9177292e-07
8.2151283e-06
-0.0027684324
-4.7771175e-07
9.1648801e-06
-0.0027692616
-4.5338239e-07
1.0129191e-05
-0.0027710111
-4.1667127e-07
1.1099137e-05
-0.0027732424
-3.6552916e-07
1.2070643e-05
-0.0027757156
-2.9756275e-07
1.3006458e-05
-0.0027783117
-2.1135016e-07
1.3917847e-05
-0.0027809633
-1.0688499e-07
1.4783616e-05
-0.0027836305
1.4716758e-08
1.5590984e-05
-0.0027863208
1.5180878e-07
1.6333519e-05
-0.0027889924
3.0138437e-07
1.700823e-05
-0.0027916011
4.5947919e-07
1.7617947e-05
-0.0027941574
6.2322584e-07
1.8135734e-05
-0.0027966499
7.9041635e-07
1.8589489e-05
-0.0027990748
9.5757875e-07
1.8974754e-05
-0.0028014196
1.1228548e-06
1.9292497e-05
-0.0028037104
1.2859883e-06
1.9548432e-05
-0.0028059195
1.4458406e-06
1.9749445e-05
-0.0028080565
1.6027729e-06
1.9899118e-05
-0.0028100937
1.7568594e-06
1.9997039e-05
-0.0028120653
1.909295e-06
2.0044351e-05
-0.0028139643
2.059221e-06
2.004352e-05
-0.00281582
2.2067872e-06
-0.0028176101
2.3528619e-06
-1.9324414e-05
-0.0028192727
1.6489584e-06
-1.92604e-05
-0.0028173784
1.4944362e-06
-1.9143706e-05
-0.0028154203
1.3393621e-06
-1.8971912e-05
-0.00281342
1.1828609e-06
-1.8744824e-05
-0.0028113463
1.0255547e-06
-1.8462458e-05
-0.0028092066
8.6780532e-07
-1.8120567e-05
-0.0028069704
7.0895455e-07
-1.7720835e-05
-0.0028046593
5.4915744e-07
-1.7227192e-05
-0.0028023021
3.8881092e-07
-1.6681495e-05
-0.0027998504
2.2989058e-07
-1.6075843e-05
-0.0027973289
7.3426393e-08
-1.5393047e-05
-0.0027947616
-7.8568383e-08
-1.4638178e-05
-0.0027921337
-2.2228088e-07
-1.3843059e-05
-0.0027894323
-3.5517947e-07
-1.2996944e-05
-0.0027866917
-4.7515749e-07
-1.2092032e-05
-0.0027839562
-5.7918499e-07
-1.1168383e-05
-0.0027812223
-6.6459379e-07
-1.0234531e-05
-0.002778515
-7.3060155e-07
-9.3024206e-06
-0.0027758706
-7.7713669e-07
-8.384018e-06
-0.0027733556
-8.0517978e-07
-7.490803e-06
-0.0027710871
-8.1722777e-07
-6.6309266e-06
-0.0027693049
-8.1654458e-07
-5.8099993e-06
-0.0027684474
-8.0585795e-07
-5.0314251e-06
-0.0027691145
-7.8782825e-07
-4.296493e-06
-0.0027715711
-7.6461357e-07
-3.6051029e-06
-0.0027742362
-7.3792149e-07
-2.9564729e-06
-0.0027708814
-7.0828807e-07
-2.3502717e-06
-0.0027475868
-6.7509798e-07
-1.7885319e-06
-0.0026847209
-6.3497083e-07
-1.2779691e-06
-0.0025718382
-5.8237009e-07
-0.002430136
-5.1973754e-07
8.5650363e-07
-0.0024297801
-6.693392e-07
1.2138109e-06
-0.0025714516
-7.4389331e-07
1.6134824e-06
-0.0026843086
-8.1196332e-07
2.0561268e-06
-0.0027471597
-8.6980924e-07
2.5454548e-06
-0.0027704479
-9.2287865e-07
3.0858836e-06
-0.0027738017
-9.7497783e-07
3.6809913e-06
-0.002771139
-1.027162e-06
4.3329463e-06
-0.0027686872
-1.079317e-06
5.0424613e-06
-0.0027680272
-1.1297834e-06
5.8078293e-06
-0.0027688945
-1.1757725e-06
6.6252351e-06
-0.0027706903
-1.2141594e-06
7.4874091e-06
-0.0027729765
-1.2413053e-06
8.383735e-06
-0.0027755136
-1.2533298e-06
9.2951021e-06
-0.0027781788
-1.2475717e-06
1.0232193e-05
-0.002780938
-1.2214211e-06
1.1153546e-05
-0.0027837037
-1.1738824e-06
1.2049143e-05
-0.0027864825
-1.1048197e-06
1.2907274e-05
-0.0027892746
-1.0158867e-06
1.3719087e-05
-0.002792036
-9.0955363e-07
1.4475271e-05
-0.0027947295
-7.882631e-07
1.5171223e-05
-0.0027973698
-6.5506116e-07
1.5811763e-05
-0.0027999794
-5.1146859e-07
1.6367898e-05
-0.002802498
-3.6021015e-07
1.6861105e-05
-0.002804948
-2.0445281e-07
1.7285764e-05
-0.0028073487
-4.6314261e-08
1.7638834e-05
-0.002809673
1.1331374e-07
1.7948844e-05
-0.0028119299
2.735531e-07
1.8192537e-05
-0.0028140982
4.3453612e-07
1.8377705e-05
-0.0028162014
5.9590244e-07
1.8506152e-05
-0.0028182634
7.5655861e-07
-0.0028202635
9.1738874e-07
-1.7593616e-05
-0.002820564
1.6915931e-07
-1.7403706e-05
-0.0028184574
4.0593662e-09
-1.7155619e-05
-0.0028162895
-1.6002711e-07
-1.6850289e-05
-0.002814084
-3.1954496e-07
-1.6484118e-05
-0.0028118176
-4.7851113e-07
-1.605319e-05
-0.0028094658
-6.3811599e-07
-1.555369e-05
-0.0028070522
-7.9599055e-07
-1.4982701e-05
-0.0028045683
-9.5072701e-07
-1.4339461e-05
-0.002802041
-1.1002335e-06
-1.3626124e-05
-0.00279945
-1.2427726e-06
-1.2848135e-05
-0.0027967727
-1.375107e-06
-1.201308e-05
-0.0027940708
-1.4937437e-06
-1.1131155e-05
-0.002791323
-1.5949126e-06
-1.0214359e-05
-0.0027885155
-1.6758858e-06
-9.2758256e-06
-0.0027856868
-1.7342868e-06
-8.3310716e-06
-0.0027828802
-1.7682259e-06
-7.3982415e-06
-0.0027800932
-1.7776643e-06
-6.4950682e-06
-0.0027773187
-1.7632887e-06
-5.6357215e-06
-0.002774645
-1.72791e-06
-4.8315081e-06
-0.0027721057
-1.6750389e-06
-4.0917324e-06
-0.0027698222
-1.6078803e-06
-3.4219813e-06
-0.0027680327
-1.5315285e-06
-2.8246026e-06
-0.0027671741
-1.4504072e-06
-2.2993168e-06
-0.0027678445
-1.3679607e-06
-1.8433347e-06
-0.0027703075
-1.2874852e-06
-1.4523704e-06
-0.0027729819
-1.2107451e-06
-1.1203193e-06
-0.0027696419
-1.1380657e-06
-8.3937286e-07
-0.0027463729
-1.067707e-06
-6.0146231e-07
-0.0026835513
-9.952117e-07
-4.0187944e-07
-0.002570736
-9.1517639e-07
-0.0024291118
-8.3138388e-07
-3.5222581e-08
-0.0024281405
-9.8403597e-07
5.7151202e-09
-0.0025696992
-1.0777544e-06
8.028091e-08
-0.0026824559
-1.1699104e-06
1.9843871e-07
-0.0027452336
-1.2574474e-06
3.7228055e-07
-0.0027684708
-1.3449144e-06
6.1294055e-07
-0.0027717848
-1.4377741e-06
9.2849886e-07
-0.0027690846
-1.538473e-06
1.3250655e-06
-0.0027665943
-1.6467652e-06
1.8074161e-06
-0.002765896
-1.7605143e-06
2.3775491e-06
-0.0027667267
-1.8761344e-06
3.0344954e-06
-0.0027684895
-1.9897167e-06
3.7742718e-06
-0.002770749
-2.096489e-06
4.5885481e-06
-0.0027732687
-2.1905833e-06
5.4657416e-06
-0.0027759284
-2.2674695e-06
6.3910004e-06
-0.0027786955
-2.3228718e-06
7.3463375e-06
-0.0027814826
-2.3529081e-06
8.313072e-06
-0.0027842978
-2.3557177e-06
9.2728754e-06
-0.0027871448
-2.3304898e-06
1.0209519e-05
-0.0027899811
-2.2785148e-06
1.1109316e-05
-0.0027927686
-2.2020309e-06
1.1960556e-05
-0.0027955204
-2.1035215e-06
1.275315e-05
-0.0027982563
-1.9863427e-06
1.3479819e-05
-0.0028009135
-1.8541604e-06
1.4137142e-05
-0.0028035147
-1.7109178e-06
1.4724278e-05
-0.0028060803
-1.5590331e-06
1.5241811e-05
-0.002808583
-1.4003851e-06
1.5691229e-05
-0.00281103
-1.237006e-06
1.6072906e-05
-0.0028133948
-1.0708575e-06
1.6386111e-05
-0.0028156993
-9.0338627e-07
1.6632066e-05
-0.0028179673
-7.3606308e-07
-0.0028201767
-5.6883173e-07
-1.5501427e-05
-0.002819087
-1.3407011e-06
-1.5187314e-05
-0.0028167698
-1.5116299e-06
-1.4806218e-05
-0.0028143998
-1.6806073e-06
-1.4358397e-05
-0.002811996
-1.8466367e-06
-1.3844281e-05
-0.0028095352
-2.008839e-06
-1.3261285e-05
-0.0028069991
-2.1669145e-06
-1.2607091e-05
-0.0028044161
-2.3184426e-06
-1.1881383e-05
-0.0028017789
-2.4614652e-06
-1.1087013e-05
-0.0027991148
-2.5930481e-06
-1.0229377e-05
-0.0027964032
-2.7106818e-06
-9.317768e-06
-0.0027936226
-2.8094821e-06
-8.364272e-06
-0.0027908359
-2.8862204e-06
-7.3828322e-06
-0.0027880253
-2.93723e-06
-6.389656e-06
-0.0027851782
-2.9597437e-06
-5.4037117e-06
-0.0027823322
-2.9515017e-06
-4.445206e-06
-0.0027795286
-2.9125324e-06
-3.5343245e-06
-0.0027767623
-2.8441487e-06
-2.6894965e-06
-0.0027740239
-2.7493582e-06
-1.9259033e-06
-0.0027713996
-2.6326825e-06
-1.2549211e-06
-0.0027689206
-2.4993253e-06
-6.8362154e-07
-0.0027667058
-2.3549203e-06
-2.1500682e-07
-0.0027649896
-2.2057825e-06
1.5142711e-07
-0.0027642054
-2.0569975e-06
4.19454e-07
-0.002764949
-1.9132912e-06
5.9518546e-07
-0.002767482
-1.7782953e-06
6.8662078e-07
-0.002770222
-1.6542162e-06
7.0385227e-07
-0.0027669468
-1.5411749e-06
6.6087439e-07
-0.0027437543
-1.4363426e-06
5.745e-07
-0.0026810363
-1.3332674e-06
4.6104762e-07
-0.0025683584
-1.2273989e-06
-0.0024268874
-1.1225911e-06
-8.685365e-07
-0.0024253689
-1.2508049e-06
-1.1297401e-06
-0.0025667319
-1.365272e-06
-1.3712538e-06
-0.0026793113
-1.4834466e-06
-1.5704835e-06
-0.002741954
-1.6010958e-06
-1.7060311e-06
-0.0027650889
-1.7223462e-06
-1.7610342e-06
-0.0027683128
-1.8542458e-06
-1.7228317e-06
-0.0027655203
-1.9999447e-06
-1.5820239e-06
-0.0027629301
-2.1596992e-06
-1.3313456e-06
-0.0027621249
-2.3311592e-06
-9.6548314e-07
-0.0027628448
-2.5106313e-06
-4.8254586e-07
-0.0027644958
-2.6930045e-06
1.1551561e-07
-0.0027666462
-2.8724708e-06
8.2240442e-07
-0.002769064
-3.0425214e-06
1.6272489e-06
-0.002771632
-3.1966953e-06
2.5150381e-06
-0.0027743213
-3.3287254e-06
3.4669241e-06
-0.0027770469
-3.4335694e-06
4.4612965e-06
-0.0027798191
-3.5074789e-06
5.4762875e-06
-0.0027826445
-3.5486898e-06
6.4906773e-06
-0.0027854836
-3.5560852e-06
7.4866174e-06
-0.0027883003
-3.5315602e-06
8.4487863e-06
-0.002791107
-3.4777212e-06
9.3629194e-06
-0.0027939189
-3.3984925e-06
1.0217545e-05
-0.0027966721
-3.297373e-06
1.1013018e-05
-0.002799395
-3.1793894e-06
1.172035e-05
-0.0028020757
-3.0476851e-06
1.2363551e-05
-0.0028047369
-2.9053485e-06
1.2929171e-05
-0.0028073461