/*--------------------------------*- C++ -*----------------------------------*\
| =========                 |                                                 |
| \\      /  F ield         | OpenFOAM: The Open Source CFD Toolbox           |
|  \\    /   O peration     | Version:  v2012                                 |
|   \\  /    A nd           | Website:  www.openfoam.com                      |
|    \\/     M anipulation  |                                                 |
\*---------------------------------------------------------------------------*/
FoamFile
{
    version     2.0;
    format      ascii;
    class       volVectorField;
    location    "100";
    object      U;
}
// * * * * * * * * * * * * * * * * * * * * * * * * * * * * * * * * * * * * * //

dimensions      [0 1 -1 0 0 0 0];


internalField   nonuniform List<vector> 
74980
(
(5.0000961 0.0001224874 -0.00030785635)
(5.0000947 3.9403628e-05 -0.00031121944)
(5.000013 1.3663696e-05 -0.00010291965)
(5.0000191 1.3529568e-05 -3.5386712e-05)
(5.0000187 4.039654e-05 -3.4644501e-05)
(5.0000183 6.8945145e-05 -3.5259162e-05)
(5.0000181 9.8359282e-05 -3.4255142e-05)
(5.0000184 0.00012981359 -3.456187e-05)
(5.0000186 0.00015937493 -3.3685224e-05)
(5.0000193 0.00018812658 -3.3030048e-05)
(5.0000198 0.000213365 -3.2175892e-05)
(5.0000205 0.00023518185 -3.1308239e-05)
(5.000021 0.00025272512 -3.0463598e-05)
(5.0000216 0.00026580539 -2.9610772e-05)
(5.0000221 0.00027424045 -2.8738936e-05)
(5.0000226 0.00027795615 -2.7854662e-05)
(5.0000231 0.0002769465 -2.6974161e-05)
(5.0000236 0.00027128228 -2.6111156e-05)
(5.000024 0.00026110644 -2.5276212e-05)
(5.0000245 0.00024662132 -2.446697e-05)
(5.0000249 0.00022810839 -2.3664745e-05)
(5.0000255 0.00020587851 -2.2805933e-05)
(5.000026 0.00018070441 -2.2124153e-05)
(5.0000264 0.0001527145 -2.1254099e-05)
(5.000027 0.00012412011 -2.108498e-05)
(5.0000266 9.4278614e-05 -2.0553978e-05)
(5.0000271 6.6653562e-05 -2.1009862e-05)
(5.0000266 3.9881478e-05 -2.1076497e-05)
(5.0000295 1.3718939e-05 -2.1661395e-05)
(5.0000254 1.3240803e-05 -6.2918488e-05)
(5.0000261 1.2834438e-05 -0.00010535001)
(5.0000256 1.2478239e-05 -0.00014926898)
(5.0000263 1.2783986e-05 -0.00019764748)
(5.0000258 1.3041279e-05 -0.00024511673)
(5.0000255 1.4064999e-05 -0.00029400494)
(5.0000253 1.485528e-05 -0.00034093746)
(5.0000252 1.5846693e-05 -0.00038664028)
(5.0000253 1.6694757e-05 -0.00043012543)
(5.0000255 1.7546306e-05 -0.00047148929)
(5.0000258 1.8446631e-05 -0.00051061556)
(5.0000261 1.9433954e-05 -0.0005474709)
(5.0000265 2.0504541e-05 -0.00058199437)
(5.0000269 2.1654398e-05 -0.00061414974)
(5.0000273 2.2875307e-05 -0.00064391843)
(5.0000279 2.4163115e-05 -0.00067130708)
(5.0000284 2.5516381e-05 -0.00069634479)
(5.0000291 2.6932317e-05 -0.00071908111)
(5.0000298 2.8411869e-05 -0.00073957988)
(5.0000306 2.9960295e-05 -0.00075791388)
(5.0000314 3.1563586e-05 -0.0007741153)
(5.0000324 3.3216392e-05 -0.000788343)
(5.0000334 3.4925927e-05 -0.00080069709)
(5.0000345 3.6694594e-05 -0.00081128019)
(5.0000357 3.8522651e-05 -0.00082018588)
(5.0000369 4.0410768e-05 -0.0008274998)
(5.0000382 4.2363017e-05 -0.00083329047)
(5.0000396 4.4382803e-05 -0.00083761319)
(5.0000411 4.6470871e-05 -0.00084050045)
(4.9999709 5.3995939e-05 -0.0016479374)
(4.9999729 5.1169562e-05 -0.0016115038)
(4.9999748 4.8481971e-05 -0.0015751979)
(4.9999766 4.592715e-05 -0.0015389724)
(4.9999784 4.3494477e-05 -0.0015027103)
(4.9999801 4.1176351e-05 -0.0014662472)
(4.9999818 3.896768e-05 -0.0014293564)
(4.9999836 3.6858393e-05 -0.0013917764)
(4.9999853 3.4845413e-05 -0.001353206)
(4.9999871 3.292889e-05 -0.0013133243)
(4.9999888 3.1102262e-05 -0.0012718007)
(4.9999906 2.9359611e-05 -0.0012283077)
(4.9999924 2.7700275e-05 -0.0011825377)
(4.9999943 2.6124454e-05 -0.0011342108)
(4.9999961 2.4628599e-05 -0.0010830788)
(4.9999979 2.3211352e-05 -0.0010289761)
(4.9999998 2.1872536e-05 -0.00097174278)
(5.0000013 2.055563e-05 -0.00091138241)
(5.0000029 1.9420291e-05 -0.00084777364)
(5.0000043 1.8326429e-05 -0.00078093188)
(5.0000057 1.7340292e-05 -0.00071089994)
(5.0000072 1.6554666e-05 -0.00063785395)
(5.0000089 1.6198685e-05 -0.0005616302)
(5.0000105 1.593642e-05 -0.00048373755)
(5.0000123 1.608252e-05 -0.00040292198)
(5.0000135 1.599479e-05 -0.00032449101)
(5.0000134 1.5120275e-05 -0.00024473229)
(5.0000139 1.5009424e-05 -0.00017249528)
(5.0000916 4.0004572e-05 -0.00052455868)
(5.0000886 4.1098852e-05 -0.00075292347)
(5.0000857 4.2987834e-05 -0.00099305958)
(5.0000799 4.4395511e-05 -0.001238413)
(5.000073 4.5393892e-05 -0.0014835017)
(5.0000645 4.6717681e-05 -0.0017238022)
(5.0000551 4.8378175e-05 -0.0019567797)
(5.0000447 5.0721917e-05 -0.0021810022)
(5.0000337 5.3573656e-05 -0.0023958625)
(5.0000219 5.6812385e-05 -0.002601021)
(5.0000096 6.0337465e-05 -0.0027963779)
(4.9999964 6.4058122e-05 -0.0029816936)
(4.999983 6.8049067e-05 -0.0031571173)
(4.9999692 7.2317333e-05 -0.0033229356)
(4.9999553 7.6819554e-05 -0.0034795707)
(4.9999414 8.1569451e-05 -0.0036275573)
(4.9999276 8.6563364e-05 -0.0037676586)
(4.9999139 9.1788414e-05 -0.0039007292)
(4.9999003 9.726373e-05 -0.0040277155)
(4.9998869 0.00010301156 -0.0041496298)
(4.9998737 0.00010902138 -0.0042675061)
(4.9998605 0.00011530502 -0.0043823127)
(4.9998474 0.00012188905 -0.0044949878)
(4.9998341 0.00012879706 -0.0046063423)
(4.9998206 0.00013603327 -0.004717077)
(4.9998067 0.00014362504 -0.0048276946)
(4.9997923 0.00015162324 -0.0049385484)
(4.9997771 0.00016002671 -0.0050498062)
(5.1314947 -0.00048812081 0.0012856552)
(5.136129 -0.00041175505 0.0012116427)
(5.1403238 -0.00032857657 0.0011284811)
(5.1440366 -0.00023918829 0.0010366862)
(5.147228 -0.00014425445 0.00093679332)
(5.1498622 -4.4468733e-05 0.00082936189)
(5.1519096 5.9439348e-05 0.00071500165)
(5.1533468 0.00016668313 0.00059454857)
(5.154146 0.00027476119 0.0004710033)
(5.1543268 0.00036208671 0.00036975195)
(5.1539631 0.00047346311 0.0002371208)
(5.152858 0.00058518959 0.00010102829)
(5.1511476 0.00068456791 -2.3266352e-05)
(5.1488099 0.00077917451 -0.00014516932)
(5.1459038 0.00086626929 -0.00026153411)
(5.1424481 0.0009455757 -0.0003722448)
(5.138496 0.0010156496 -0.00047558295)
(5.1340886 0.0010758612 -0.00057086513)
(5.1292831 0.001125448 -0.00065711526)
(5.1241325 0.0011641153 -0.00073386249)
(5.1186965 0.0011916696 -0.00080067509)
(5.1130328 0.0012082021 -0.00085742374)
(5.1072 0.0012141385 -0.00090380269)
(5.101257 0.0012100487 -0.00094022112)
(5.0952524 0.0011964196 -0.00096707114)
(5.0892454 0.0011741666 -0.00098472538)
(5.0832765 0.0011443634 -0.00099402011)
(5.0773904 0.001107971 -0.00099557349)
(5.071623 0.001066427 -0.00098970222)
(5.066006 0.0010205446 -0.00097747468)
(5.0605668 0.00097126466 -0.00095960224)
(5.0553275 0.00091955512 -0.00093681162)
(5.0503061 0.00086630642 -0.00090975506)
(5.0455161 0.00081230114 -0.00087905153)
(5.0409677 0.00075822457 -0.00084526861)
(5.0366675 0.00070465627 -0.00080892433)
(5.0326196 0.00065206543 -0.00077048004)
(5.0288256 0.00060082602 -0.00073033336)
(5.0252851 0.00055121722 -0.00068883065)
(5.0219962 0.00050342979 -0.0006462538)
(5.0189556 0.00045755782 -0.00060281608)
(5.016159 0.00041361467 -0.00055867001)
(5.013601 0.00037156151 -0.00051393221)
(5.0112749 0.00033134974 -0.00046872481)
(5.0091724 0.0002930486 -0.00042325989)
(5.0072858 0.00025686792 -0.00037786802)
(5.0056074 0.0002229582 -0.00033268152)
(5.0041406 0.00019082693 -0.00028790629)
(5.0028864 0.00015968235 -0.00024254457)
(5.0018661 0.00012963324 -0.00019815239)
(5.00108 9.8029333e-05 -0.00015097393)
(5.0005261 6.9797892e-05 -0.00010840767)
(5.0001859 4.025133e-05 -6.3455017e-05)
(5.000177 4.0144528e-05 -0.00018943248)
(5.000518 6.8797545e-05 -0.0003189225)
(5.0010725 9.9337647e-05 -0.0004519193)
(5.0018568 0.00013134383 -0.00059141538)
(5.0028752 0.00016148268 -0.00073304786)
(5.0041217 0.00019019607 -0.00087691071)
(5.0055846 0.00021935715 -0.0010195283)
(5.007259 0.00025062104 -0.0011609191)
(5.0091448 0.0002848556 -0.0013004138)
(5.0112473 0.0003215569 -0.001438348)
(5.0135742 0.0003603447 -0.0015750885)
(5.016133 0.00040108046 -0.0017107039)
(5.0189304 0.0004437459 -0.00184494)
(5.0219721 0.00048833767 -0.0019773445)
(5.0252626 0.00053482235 -0.0021072952)
(5.0288053 0.00058311548 -0.002234011)
(5.0326022 0.0006330124 -0.0023565965)
(5.0366539 0.00068426168 -0.0024739642)
(5.0409588 0.00073650996 -0.0025848706)
(5.0455131 0.00078929819 -0.002687908)
(5.0503103 0.0008420669 -0.0027814907)
(5.0553404 0.0008941576 -0.0028638729)
(5.06059 0.0009448186 -0.0029331438)
(5.0660412 0.00099320938 -0.002987284)
(5.0716719 0.0010384163 -0.0030241113)
(5.0774553 0.0010792407 -0.0030414958)
(5.0833591 0.0011149053 -0.0030366784)
(5.0893472 0.0011442179 -0.0030080161)
(5.0953748 0.0011663023 -0.002953642)
(5.1014019 0.001179969 -0.0028711119)
(5.1073685 0.0011841961 -0.0027590098)
(5.113226 0.0011785374 -0.002616651)
(5.1189147 0.0011629097 -0.0024429171)
(5.1243755 0.0011363598 -0.0022380877)
(5.1295507 0.0010988748 -0.0020027813)
(5.13438 0.001050689 -0.0017383757)
(5.1388098 0.00099207534 -0.0014463818)
(5.1427828 0.00092380266 -0.0011296233)
(5.1462566 0.00084647296 -0.00079040857)
(5.1491792 0.00076148196 -0.00043353468)
(5.1515279 0.0006691455 -5.9829262e-05)
(5.1532483 0.00057176732 0.0003228224)
(5.1543508 0.00046427604 0.00073406271)
(5.1547412 0.00036283301 0.0011074258)
(5.1545822 0.00026620322 0.0014697817)
(5.1537764 0.00016289968 0.0018421924)
(5.1523343 5.9743735e-05 0.0022048809)
(5.1502829 -4.079263e-05 0.0025524041)
(5.1476435 -0.00013759197 0.0028805014)
(5.1444454 -0.00022972492 0.0031863745)
(5.1407243 -0.00031643613 0.003467602)
(5.1365201 -0.00039711789 0.0037222452)
(5.1318758 -0.00047112801 0.0039487048)
(5.1885041 -0.0036899205 0.044569391)
(5.1863815 -0.0036387809 0.045468411)
(5.1841864 -0.0035816677 0.046340793)
(5.1819134 -0.0035143028 0.047173829)
(5.1795568 -0.0034371076 0.047948115)
(5.1771218 -0.0033455391 0.048636883)
(5.1746141 -0.0032412308 0.049210811)
(5.1720429 -0.0031197633 0.049636848)
(5.1694137 -0.0029835406 0.049878264)
(5.1667223 -0.0028316321 0.049897413)
(5.1639726 -0.0026659753 0.04966185)
(5.161171 -0.0024890646 0.049140369)
(5.158351 -0.002303533 0.048310717)
(5.1324384 -0.00046120032 0.0068211483)
(5.1332257 -0.00046811943 0.0099243562)
(5.1342694 -0.00049425374 0.013204824)
(5.1355866 -0.00053927109 0.016575472)
(5.1371749 -0.00060153638 0.019953198)
(5.1390196 -0.00067948183 0.023277238)
(5.1410971 -0.00077144784 0.026505603)
(5.1433853 -0.00087736483 0.029612718)
(5.1458585 -0.00099727585 0.032571135)
(5.1485012 -0.0011312468 0.035357109)
(5.1512869 -0.001278797 0.037941328)
(5.1541819 -0.0014387733 0.040296543)
(5.1571647 -0.0016095955 0.042394742)
(5.1602229 -0.0017877698 0.044213912)
(5.1633145 -0.0019731934 0.045732381)
(5.1664103 -0.0021589781 0.046938949)
(5.1695035 -0.002340244 0.047838753)
(5.172569 -0.0025145925 0.048442076)
(5.1755745 -0.0026777355 0.048769577)
(5.1785089 -0.0028288339 0.048850129)
(5.1813693 -0.0029644405 0.048713836)
(5.1841585 -0.0030857341 0.048397794)
(5.186869 -0.0031918165 0.047934253)
(5.1894931 -0.0032852289 0.047354953)
(5.1920254 -0.0033649337 0.046687924)
(5.1944618 -0.0034348359 0.045959473)
(5.196808 -0.0034956129 0.045187026)
(5.1990694 -0.0035513265 0.044381551)
(5.201244 -0.0035999284 0.043549121)
(5.2033366 -0.0036416672 0.042706041)
(5.2053426 -0.0036844323 0.041848214)
(5.2158899 -0.0035224371 0.04179037)
(5.2137634 -0.0034744101 0.042566745)
(5.2115427 -0.0034274306 0.043320276)
(5.2092307 -0.0033743023 0.044054691)
(5.2068229 -0.0033143353 0.044756245)
(5.2043194 -0.003249744 0.045418457)
(5.2017143 -0.0031766257 0.046030855)
(5.1990018 -0.0030944146 0.04657746)
(5.1961846 -0.0029995978 0.047033538)
(5.1932681 -0.0028928296 0.04737363)
(5.1902588 -0.0027719122 0.047567013)
(5.1871654 -0.0026379156 0.047584958)
(5.1839862 -0.0024891752 0.047392714)
(5.1807246 -0.0023297389 0.046963343)
(5.1773949 -0.0021598479 0.046269712)
(5.1740295 -0.0019842607 0.045294078)
(5.170657 -0.0018055627 0.044029464)
(5.1672891 -0.0016280226 0.042473643)
(5.1639567 -0.001458035 0.04063856)
(5.1607044 -0.0012960131 0.038546947)
(5.1575494 -0.0011450094 0.036222159)
(5.1545156 -0.0010064546 0.033691509)
(5.1516391 -0.00088139905 0.030982093)
(5.148949 -0.00076982737 0.028122092)
(5.1464628 -0.00067177449 0.025133795)
(5.1442084 -0.00058679368 0.022042922)
(5.1422092 -0.00051497576 0.018872754)
(5.1404904 -0.0004578046 0.015662181)
(5.1390694 -0.00041691029 0.012466779)
(5.1379488 -0.00039375703 0.009363387)
(5.1371109 -0.00038810777 0.006432379)
(5.1413416 -0.00030840641 0.0059950363)
(5.1422275 -0.00031258125 0.0087319748)
(5.1434215 -0.00033226085 0.011635363)
(5.1449419 -0.00036832611 0.014632379)
(5.1467859 -0.000419496 0.017653023)
(5.1489334 -0.00048404458 0.020646977)
(5.1513582 -0.00056070026 0.023579536)
(5.1540351 -0.00064937484 0.026429277)
(5.1569347 -0.00075087719 0.029173297)
(5.1600375 -0.00086515324 0.031790383)
(5.163312 -0.00099264561 0.034254277)
(5.1667199 -0.0011325304 0.036538003)
(5.1702349 -0.0012834421 0.038615677)
(5.173835 -0.0014430724 0.040462287)
(5.1774737 -0.0016103434 0.042054595)
(5.181118 -0.001779851 0.043379601)
(5.1847516 -0.0019475631 0.044436191)
(5.1883423 -0.0021112358 0.045227523)
(5.1918578 -0.0022655529 0.045768305)
(5.1952806 -0.0024105422 0.046083431)
(5.1986068 -0.002542212 0.046196063)
(5.2018365 -0.0026619065 0.046137492)
(5.2049605 -0.0027690788 0.045933495)
(5.2079733 -0.0028648987 0.045612609)
(5.21087 -0.0029497224 0.045198148)
(5.2136484 -0.0030258066 0.044712588)
(5.2163152 -0.0030944365 0.044170853)
(5.2188765 -0.0031584952 0.043582712)
(5.2213331 -0.0032165893 0.042955357)
(5.2236899 -0.0032694907 0.042298938)
(5.2259459 -0.0033226115 0.0416116)
(5.2353995 -0.0030865238 0.041302678)
(5.2330048 -0.003027654 0.041894529)
(5.2305033 -0.0029688624 0.042446322)
(5.2278949 -0.0029052268 0.042959129)
(5.2251733 -0.0028377859 0.043424995)
(5.2223383 -0.0027644028 0.043837336)
(5.2193824 -0.0026860233 0.044186054)
(5.2162988 -0.0025980715 0.044458137)
(5.2130887 -0.002502059 0.044632715)
(5.2097571 -0.0023942927 0.044689553)
(5.2063082 -0.002276883 0.044602092)
(5.202752 -0.0021478488 0.044348063)
(5.1990892 -0.002008321 0.043899971)
(5.1953254 -0.0018601195 0.043239218)
(5.1914798 -0.0017047884 0.042343344)
(5.1875861 -0.0015467492 0.041202389)
(5.1836789 -0.0013884797 0.039815737)
(5.1797792 -0.0012337449 0.038188498)
(5.1759219 -0.0010868853 0.036334978)
(5.172155 -0.0009492018 0.034279267)
(5.168505 -0.00082275626 0.032047084)
(5.1650016 -0.00070826263 0.029663586)
(5.1616836 -0.00060663834 0.027154223)
(5.1585855 -0.0005168398 0.02454367)
(5.155728 -0.00043907233 0.02185148)
(5.1531427 -0.00037198929 0.019097537)
(5.1508553 -0.00031578541 0.016301213)
(5.1488938 -0.00027146342 0.013492209)
(5.14728 -0.00024098336 0.01071549)
(5.1460174 -0.00022522496 0.008033967)
(5.1450868 -0.00022271362 0.0055117824)
(5.1483066 -0.00013162803 0.0049859915)
(5.1492774 -0.00013230039 0.007274397)
(5.1506028 -0.00014370346 0.0097138313)
(5.1523024 -0.00016797718 0.012249546)
(5.1543715 -0.00020450028 0.014826595)
(5.1567875 -0.00025145102 0.017405298)
(5.1595211 -0.00030755053 0.019961366)
(5.1625452 -0.00037319469 0.022477777)
(5.1658277 -0.00044949453 0.024938101)
(5.1693453 -0.00053687863 0.027324484)
(5.1730624 -0.00063620055 0.029614397)
(5.1769393 -0.00074716471 0.031784217)
(5.1809431 -0.00086931122 0.03380985)
(5.1850427 -0.0010012299 0.035664793)
(5.1891897 -0.0011414039 0.03732434)
(5.1933466 -0.0012864113 0.038772227)
(5.1974892 -0.0014324394 0.040000517)
(5.2015796 -0.0015777908 0.041005965)
(5.2055834 -0.001717981 0.041794375)
(5.2094797 -0.0018512281 0.042383776)
(5.2132612 -0.0019764838 0.042788498)
(5.2169261 -0.0020917197 0.043031244)
(5.220464 -0.0021986726 0.043131546)
(5.2238717 -0.0022955592 0.043112575)
(5.227144 -0.0023855033 0.042992171)
(5.230281 -0.0024671877 0.042788608)
(5.2332889 -0.0025442736 0.042513893)
(5.236177 -0.002615796 0.042177966)
(5.2389449 -0.0026848848 0.041786094)
(5.2415995 -0.0027497411 0.041345016)
(5.2441425 -0.0028141432 0.040854932)
(5.2520691 -0.0025078893 0.040258242)
(5.2493686 -0.0024375911 0.040641702)
(5.246552 -0.0023668991 0.040966418)
(5.2436174 -0.0022926251 0.041232471)
(5.2405571 -0.0022161588 0.041432791)
(5.237372 -0.0021353017 0.041563056)
(5.2340509 -0.0020503985 0.041614237)
(5.2305889 -0.0019586932 0.041575704)
(5.2269843 -0.0018612432 0.041431227)
(5.2232432 -0.0017556167 0.041166004)
(5.2193672 -0.0016432703 0.040759892)
(5.2153674 -0.0015231283 0.040197261)
(5.2112469 -0.0013970689 0.039460433)
(5.2070145 -0.0012663814 0.038538782)
(5.2026925 -0.0011331067 0.037420351)
(5.1983166 -0.0010005025 0.03610384)
(5.1939266 -0.00087095104 0.03459546)
(5.1895507 -0.00074742534 0.032907271)
(5.1852274 -0.00063266242 0.031057013)
(5.1810063 -0.00052808634 0.02907035)
(5.1769219 -0.00043459618 0.026973714)
(5.1730106 -0.0003522332 0.024790294)
(5.1693124 -0.00028082313 0.022541304)
(5.1658636 -0.00021951888 0.020247308)
(5.1626897 -0.00016740597 0.017923494)
(5.1598234 -0.00012338984 0.015583368)
(5.1572926 -8.6744717e-05 0.013240488)
(5.1551274 -5.875408e-05 0.010914308)
(5.1533513 -4.1279466e-05 0.0086385296)
(5.1519705 -3.4591674e-05 0.0064593065)
(5.1509646 -3.5965499e-05 0.0044218231)
(5.1530307 6.3357217e-05 0.0038242403)
(5.154066 6.6894924e-05 0.0055958074)
(5.1554933 6.5263548e-05 0.0074990759)
(5.1573345 5.5096025e-05 0.0094984629)
(5.1595823 3.6338501e-05 0.011556859)
(5.1622114 1.0994211e-05 0.013647491)
(5.1651922 -1.9984484e-05 0.015755583)
(5.1684957 -5.7268486e-05 0.017871219)
(5.1720892 -0.00010222897 0.019984252)
(5.1759451 -0.00015613616 0.022081951)
(5.1800272 -0.00021986223 0.024146583)
(5.1842954 -0.00029403401 0.026159218)
(5.1887102 -0.00037906355 0.028098024)
(5.1932338 -0.00047464903 0.029936534)
(5.1978167 -0.00057960583 0.031648832)
(5.2024189 -0.00069198644 0.033214775)
(5.2070088 -0.00080912555 0.034619386)
(5.2115454 -0.00092880224 0.035852265)
(5.2159919 -0.0010484773 0.036910201)
(5.2203248 -0.0011661299 0.037798408)
(5.2245335 -0.0012801054 0.03852425)
(5.2286133 -0.0013889687 0.039098878)
(5.2325533 -0.0014925911 0.039534825)
(5.2363524 -0.0015903503 0.039847992)
(5.2400046 -0.001683356 0.040051)
(5.2435117 -0.0017714702 0.040157166)
(5.2468785 -0.0018558817 0.040176385)
(5.2501164 -0.0019373851 0.040115987)
(5.2532252 -0.0020165634 0.039980426)
(5.2562118 -0.0020932286 0.039776012)
(5.2590795 -0.0021691006 0.039503585)
(5.2650789 -0.0018010734 0.038580608)
(5.2620349 -0.0017196187 0.038739175)
(5.25887 -0.0016373225 0.038820228)
(5.2555805 -0.0015532676 0.038822294)
(5.2521597 -0.0014671979 0.038739561)
(5.2486082 -0.0013792546 0.038568236)
(5.2449138 -0.0012883919 0.038301427)
(5.2410726 -0.0011943363 0.037931205)
(5.2370828 -0.0010968604 0.03744612)
(5.2329501 -0.00099571313 0.036836739)
(5.2286756 -0.00089119934 0.036090712)
(5.22427 -0.00078419365 0.03519962)
(5.2197394 -0.00067632675 0.034158345)
(5.2150966 -0.0005688896 0.032964373)
(5.2103659 -0.00046405476 0.031617913)
(5.2055847 -0.000363995 0.030127394)
(5.2007947 -0.00027071267 0.028507782)
(5.1960311 -0.00018605886 0.026777409)
(5.1913344 -0.00011149586 0.024958275)
(5.1867539 -4.7728408e-05 0.023076861)
(5.1823298 5.5746994e-06 0.021158821)
(5.178104 4.9208793e-05 0.019224633)
(5.1741169 8.4240931e-05 0.017290895)
(5.1704038 0.0001116503 0.015372237)
(5.166994 0.00013313017 0.013478572)
(5.1639201 0.00015015801 0.011616664)
(5.1612112 0.00016351333 0.0097924846)
(5.1588972 0.00017241126 0.0080162986)
(5.1570043 0.00017485975 0.0063071421)
(5.1555409 0.00017124369 0.0046931296)
(5.1544836 0.00016552351 0.0032002263)
(5.1552978 0.00026849092 0.0025599837)
(5.1563709 0.00027680867 0.0037648072)
(5.1578606 0.00028591861 0.0050788001)
(5.1597913 0.00029158067 0.0064861179)
(5.1621542 0.00029315722 0.0079684144)
(5.1649226 0.00029236127 0.0095141168)
(5.1680662 0.00029000456 0.011117843)
(5.1715566 0.00028516167 0.012777654)
(5.1753613 0.00027615113 0.014490115)
(5.1794501 0.000261125 0.016248378)
(5.183789 0.00023875571 0.018041207)
(5.1883376 0.000207686 0.019854385)
(5.1930522 0.00016656391 0.021669005)
(5.1978912 0.00011453066 0.023460094)
(5.2028061 5.1742668e-05 0.025201333)
(5.2077556 -2.090143e-05 0.02686868)
(5.2127022 -0.00010233624 0.028440389)
(5.2176037 -0.00019112524 0.029896503)
(5.222423 -0.00028496195 0.031224066)
(5.2271342 -0.00038197158 0.0324167)
(5.2317228 -0.00048096476 0.033472271)
(5.2361802 -0.0005801947 0.034389327)
(5.2404974 -0.00067826231 0.035172318)
(5.2446724 -0.0007747893 0.035829471)
(5.2486999 -0.00086945194 0.03636743)
(5.2525811 -0.00096248588 0.036795427)
(5.2563197 -0.0010537024 0.037119577)
(5.259927 -0.0011437655 0.037346377)
(5.263403 -0.0012323906 0.037479319)
(5.266753 -0.0013197722 0.037522886)
(5.269982 -0.0014064321 0.037480365)
(5.2737154 -0.00098934072 0.036194894)
(5.2702952 -0.00089794147 0.036120969)
(5.2667551 -0.0008062088 0.035952525)
(5.2630888 -0.00071357615 0.035685269)
(5.2592913 -0.00062022485 0.035315712)
(5.2553636 -0.00052633165 0.034840748)
(5.2512959 -0.00043198774 0.034253604)
(5.2470851 -0.00033741842 0.033550555)
(5.2427308 -0.00024266531 0.03272407)
(5.2382385 -0.00014843287 0.031770865)
(5.2336104 -5.5604813e-05 0.030686072)
(5.2288554 3.4273092e-05 0.029471257)
(5.2239834 0.0001193953 0.028132516)
(5.2190111 0.0001985364 0.026677922)
(5.2139649 0.00026988382 0.02511896)
(5.2088824 0.00033154666 0.023474229)
(5.2038051 0.00038249489 0.021767246)
(5.198772 0.00042225491 0.02002386)
(5.1938248 0.00045057672 0.018269981)
(5.1890111 0.00046803523 0.016532043)
(5.1843725 0.00047596719 0.014833445)
(5.1799537 0.00047621489 0.013191736)
(5.175795 0.00047045183 0.011618685)
(5.1719285 0.00046037988 0.010122374)
(5.1683849 0.00044788936 0.0087067929)
(5.1651959 0.00043503294 0.0073713827)
(5.1623889 0.0004226197 0.0061140771)
(5.1599945 0.00040997072 0.0049353679)
(5.1580397 0.00039553029 0.0038394119)
(5.156534 0.00037999628 0.0028344521)
(5.1554539 0.00036759392 0.0019250087)
(5.1550296 0.00046665813 0.0012863965)
(5.1560867 0.00048136945 0.0019099708)
(5.1575811 0.00050245337 0.0026124124)
(5.159534 0.00052540309 0.0033994711)
(5.1619338 0.00054911766 0.0042740639)
(5.1647521 0.0005748329 0.0052404717)
(5.1679576 0.00060295188 0.0063038209)
(5.171523 0.00063277419 0.0074702077)
(5.1754178 0.00066218463 0.0087432301)
(5.1796115 0.00068905856 0.010123334)
(5.1840734 0.00071133217 0.011605607)
(5.188764 0.00072691386 0.01318105)
(5.1936383 0.0007333985 0.014833081)
(5.1986554 0.00072938211 0.01654015)
(5.203769 0.00071315001 0.018275407)
(5.208937 0.00068461305 0.020011035)
(5.2141205 0.00064356211 0.021717567)
(5.2192785 0.00059069116 0.023367017)
(5.2243741 0.00052745869 0.024935567)
(5.229381 0.00045570501 0.026406348)
(5.2342828 0.00037697963 0.027764947)
(5.239068 0.00029183872 0.02900833)
(5.243725 0.00020233462 0.030124689)
(5.2482509 0.000110296 0.031113261)
(5.2526404 1.6692761e-05 0.031974945)
(5.2568926 -7.8095236e-05 0.032714457)
(5.2610098 -0.00017347265 0.033334526)
(5.2650001 -0.00026906565 0.033842291)
(5.2688606 -0.00036455006 0.034240984)
(5.2725964 -0.00045948188 0.034532989)
(5.2762153 -0.00055454819 0.034722321)
(5.2774166 -0.00010946056 0.033070324)
(5.2735922 -1.1870174e-05 0.032770391)
(5.2696526 8.5095832e-05 0.032358417)
(5.265595 0.00017913052 0.03184551)
(5.2614197 0.00027281406 0.031220855)
(5.2571276 0.00036696284 0.030475184)
(5.2527087 0.00046031767 0.029600649)
(5.2481603 0.00055170673 0.028596116)
(5.2434837 0.00064017629 0.027458915)
(5.2386847 0.00072453519 0.026191227)
(5.2337661 0.00080304245 0.024796052)
(5.2287411 0.00087347157 0.023283855)
(5.2236228 0.00093358845 0.021671775)
(5.2184284 0.00098174119 0.019981388)
(5.2131857 0.0010165917 0.01823708)
(5.2079312 0.0010371179 0.016467817)
(5.2027047 0.0010434903 0.014704346)
(5.1975452 0.0010358534 0.012980191)
(5.1924938 0.001015664 0.011323672)
(5.1875953 0.0009850943 0.0097616283)
(5.1828894 0.00094588477 0.0083134506)
(5.1784202 0.00090119709 0.0069937668)
(5.1742256 0.00085345649 0.0058086363)
(5.1703348 0.00080491223 0.0047597655)
(5.166777 0.00075812849 0.0038425052)
(5.1635816 0.00071495033 0.003049941)
(5.160775 0.00067639505 0.0023720462)
(5.1583884 0.00064236853 0.001798429)
(5.1564496 0.00061210326 0.0013179183)
(5.1549692 0.00058671564 0.00091965923)
(5.1539234 0.00057129222 0.00059111559)
(5.1521894 0.00066829785 -7.0069662e-05)
(5.1532161 0.00068600505 -3.7960065e-05)
(5.1546709 0.0007164662 5.305877e-05)
(5.156579 0.00075443771 0.0002244699)
(5.1589311 0.00079864457 0.00049538121)
(5.1617005 0.00084984645 0.00088305082)
(5.1648571 0.00090783867 0.0014027712)
(5.1683751 0.00097136644 0.0020676635)
(5.1722275 0.00103864 0.0028880488)
(5.1763866 0.0011068373 0.0038717659)
(5.1808243 0.0011734847 0.0050200899)
(5.1855051 0.0012360184 0.0063296251)
(5.1903875 0.0012907866 0.0077880773)
(5.195433 0.0013351534 0.0093773491)
(5.200599 0.0013669744 0.0110707)
(5.2058459 0.0013837058 0.012838661)
(5.2111362 0.0013848082 0.01464575)
(5.2164319 0.0013695488 0.01645744)
(5.2216969 0.0013385549 0.018240442)
(5.2269033 0.0012930881 0.019965658)
(5.2320334 0.0012345774 0.021607896)
(5.2370727 0.0011650792 0.023147634)
(5.242008 0.0010866843 0.024569361)
(5.2468342 0.0010018051 0.025865696)
(5.2515443 0.00091184007 0.027032439)
(5.256134 0.00081770437 0.02806888)
(5.2606042 0.00072065026 0.028974564)
(5.2649605 0.00062180339 0.029751704)
(5.2692004 0.00052247968 0.030399459)
(5.273324 0.00042327093 0.030920878)
(5.2773333 0.00032424802 0.03132055)
(5.2759755 0.00078256308 0.029269215)
(5.2717585 0.00088403489 0.028739939)
(5.267434 0.00098429576 0.02809058)
(5.2630023 0.0010826218 0.027319393)
(5.2584636 0.0011790781 0.026420937)
(5.2538214 0.0012727865 0.025392558)
(5.2490725 0.0013624579 0.024231375)
(5.2442177 0.0014467512 0.022938533)
(5.2392621 0.0015247363 0.021515509)
(5.2342132 0.0015944011 0.01996965)
(5.2290776 0.0016530273 0.018311472)
(5.2238698 0.0016986244 0.016560889)
(5.2186052 0.0017290334 0.014741548)
(5.2133024 0.001742562 0.012883672)
(5.2079893 0.0017379812 0.011021623)
(5.2027006 0.0017154867 0.0091926799)
(5.1974721 0.001676089 0.0074344809)
(5.1923394 0.0016208695 0.0057845738)
(5.1873401 0.001552905 0.0042734324)
(5.1825139 0.0014747676 0.0029272661)
(5.1778973 0.0013900687 0.0017627436)
(5.1735285 0.0013023632 0.00078986963)
(5.1694406 0.0012144985 9.869984e-06)
(5.1656596 0.0011293926 -0.0005816003)
(5.1622111 0.0010498825 -0.00099531913)
(5.1591197 0.00097779483 -0.0012444169)
(5.15641 0.00091453465 -0.0013450618)
(5.1541107 0.00086055546 -0.0013168674)
(5.1522465 0.0008151535 -0.0011833703)
(5.1508259 0.00077987518 -0.00097218463)
(5.149824 0.00075995846 -0.00071441526)
(5.1468769 0.00084428194 -0.0013300941)
(5.1478444 0.00086621858 -0.0018658486)
(5.1492184 0.00090595431 -0.0023681948)
(5.151023 0.00095827641 -0.0027968923)
(5.1532503 0.0010213656 -0.003115847)
(5.1558774 0.0010959118 -0.003295303)
(5.1588774 0.0011811018 -0.0033115457)
(5.162227 0.0012754982 -0.0031454802)
(5.1659042 0.001377071 -0.0027813074)
(5.1698861 0.0014831326 -0.0022059482)
(5.1741491 0.0015906424 -0.001412028)
(5.1786629 0.0016961029 -0.00039873817)
(5.183393 0.0017960144 0.0008259306)
(5.1883057 0.0018863522 0.0022464425)
(5.1933651 0.0019638381 0.0038377008)
(5.1985357 0.0020251311 0.0055682386)
(5.2037843 0.0020683124 0.00739934)
(5.209078 0.0020924671 0.0092905895)
(5.2143842 0.0020967446 0.011201389)
(5.2196748 0.002082156 0.013093381)
(5.2249316 0.002050233 0.0149324)
(5.2301374 0.0020033916 0.016690545)
(5.2352779 0.001943618 0.018344941)
(5.2403435 0.0018737495 0.019880981)
(5.2453262 0.0017959646 0.021289165)
(5.2502188 0.0017119295 0.022565338)
(5.2550188 0.0016227166 0.023707273)
(5.2597265 0.001530129 0.024716051)
(5.2643373 0.0014350956 0.025594073)
(5.2688482 0.0013380259 0.026345409)
(5.2732587 0.0012394858 0.026972793)
(5.2692208 0.0016821227 0.024489905)
(5.2646256 0.0017766846 0.023766539)
(5.259939 0.0018691608 0.02291823)
(5.2551636 0.0019591244 0.021942422)
(5.250304 0.0020458238 0.020835285)
(5.245366 0.0021284301 0.019594842)
(5.240351 0.0022051463 0.018220474)
(5.2352642 0.0022744681 0.016716138)
(5.2301135 0.0023346556 0.015087141)
(5.2249089 0.0023830424 0.013346364)
(5.2196615 0.0024173442 0.011510477)
(5.2143866 0.0024347412 0.0096061288)
(5.2091022 0.0024334204 0.007664514)
(5.2038271 0.0024115456 0.00572344)
(5.1985885 0.002368825 0.003824145)
(5.1934165 0.0023059389 0.0020103067)
(5.1883411 0.0022241719 0.00032438523)
(5.1833929 0.0021260868 -0.0011939738)
(5.1786043 0.0020153071 -0.0025130653)
(5.1740072 0.0018956729 -0.0036088222)
(5.1696318 0.0017712481 -0.0044667216)
(5.1655086 0.0016459475 -0.0050806916)
(5.1616645 0.001523638 -0.0054537099)
(5.1581202 0.0014072244 -0.0055954003)
(5.1548959 0.0012994742 -0.0055210261)
(5.152011 0.0012024365 -0.0052485586)
(5.1494871 0.0011178925 -0.0048001191)
(5.1473488 0.0010465663 -0.0042031069)
(5.1456172 0.00098818872 -0.0034931387)
(5.1443 0.00094441492 -0.002714091)
(5.1433743 0.00092090122 -0.0019146407)
(5.1393675 0.00098845753 -0.0024607143)
(5.1402442 0.0010132084 -0.0035067628)
(5.1414944 0.0010603748 -0.0045449705)
(5.1431399 0.0011240412 -0.0055191091)
(5.1451733 0.0012024401 -0.0063780996)
(5.1475753 0.0012956215 -0.0070811854)
(5.1503236 0.0014028119 -0.0075974669)
(5.1533987 0.0015221003 -0.0079023369)
(5.1567837 0.0016513209 -0.007975875)
(5.1604614 0.0017878148 -0.0078009588)
(5.164414 0.0019283849 -0.0073658981)
(5.1686186 0.0020693436 -0.0066661845)
(5.173049 0.0022063101 -0.0057059139)
(5.1776787 0.0023352355 -0.0044986445)
(5.1824801 0.0024517902 -0.0030673262)
(5.1874247 0.002552206 -0.001443712)
(5.1924846 0.0026335236 0.00033230093)
(5.197633 0.0026937891 0.0022169674)
(5.2028424 0.0027327711 0.0041641374)
(5.2080874 0.0027500394 0.0061306575)
(5.2133482 0.0027474729 0.0080757978)
(5.218607 0.0027268162 0.009965312)
(5.2238474 0.0026907245 0.011770555)
(5.2290568 0.0026416746 0.01347149)
(5.2342231 0.0025825077 0.01505325)
(5.2393375 0.0025147948 0.016509175)