/*--------------------------------*- C++ -*----------------------------------*\
| =========                 |                                                 |
| \\      /  F ield         | OpenFOAM: The Open Source CFD Toolbox           |
|  \\    /   O peration     | Version:  v2012                                 |
|   \\  /    A nd           | Website:  www.openfoam.com                      |
|    \\/     M anipulation  |                                                 |
\*---------------------------------------------------------------------------*/
FoamFile
{
    version     2.0;
    format      ascii;
    class       volScalarField;
    location    "200";
    object      omega;
}
// * * * * * * * * * * * * * * * * * * * * * * * * * * * * * * * * * * * * * //

dimensions      [0 0 -1 0 0 0 0];


internalField   nonuniform List<scalar> 
33368
(
11.073551
11.073279
11.130477
11.12983
11.130596
11.129916
11.131355
11.130692
11.131472
11.131144
11.131273
11.131175
11.131175
11.131273
11.131144
11.131472
11.130692
11.131355
11.129916
11.130596
11.12983
11.130477
11.129726
11.131026
11.130359
11.131098
11.130807
11.130941
11.130842
11.130829
11.130813
11.130817
11.13082
11.130824
11.130826
11.130827
11.130828
11.130829
11.130829
11.130829
11.13083
11.13083
11.13083
11.13083
11.130831
11.13083
11.13083
11.13083
11.13083
11.130829
11.130827
11.130824
11.130821
11.130817
11.130834
11.130846
11.130946
11.130812
11.131102
11.130363
11.131031
11.129731
11.130482
11.129835
11.130605
11.129935
11.131388
11.130746
11.131549
11.131248
11.131403
11.131328
11.131345
11.13145
11.131317
11.131628
11.130823
11.131452
11.129983
11.130637
11.129856
11.130506
11.12976
11.131065
11.130403
11.131148
11.130865
11.131004
11.130909
11.130899
11.130884
11.130885
11.130869
11.130811
11.130686
11.130499
11.130282
11.130083
11.130032
11.130025
11.130022
11.130019
11.130016
11.130014
11.130011
11.130013
11.130058
11.13025
11.130461
11.130642
11.130762
11.130816
11.130828
11.130825
11.13084
11.130851
11.130948
11.130812
11.131101
11.130361
11.131028
11.129726
11.072615
11.073861
11.073325
11.074132
11.073924
11.074072
11.073974
11.073947
11.07392
11.073908
11.073838
11.073606
11.073128
11.072433
11.071644
11.070948
11.070776
11.070766
11.07077
11.070777
11.070783
11.07079
11.070799
11.070824
11.071009
11.071721
11.072526
11.073236
11.073727
11.073972
11.074052
11.074072
11.074105
11.074136
11.074236
11.074088
11.074294
11.073484
11.074019
11.072772
11.073432
11.072623
11.013482
10.949856
10.885639
10.821084
10.759799
10.704254
10.658896
10.630955
10.632884
10.691544
10.891027
11.287082
12.084462
13.920544
18.831484
33.033769
74.472516
244.20014
386.55271
336.16435
304.14573
248.57448
238.84782
229.80273
189.8059
181.55321
175.18895
168.50904
148.43186
142.25007
137.48382
133.15857
129.10671
118.2299
110.76256
108.89886
106.87366
104.58583
102.09071
100.18489
96.565805
87.183788
84.983264
84.47497
84.039234
83.162096
80.730098
77.95745
76.382409
74.964856
73.612499
72.320656
71.072533
69.877396
68.730275
67.630119
66.580347
65.571775
64.617815
63.702962
62.852817
62.049373
61.306266
60.664144
59.373887
57.568492
56.98895
56.335927
55.705454
55.157965
54.441027
53.708802
53.032189
52.436379
51.897963
50.971002
50.255773
49.655251
49.325316
49.093017
48.743111
48.023566
47.417461
46.921445
46.457397
46.023048
45.611055
45.198385
44.795691
44.404811
44.009553
43.621322
43.245396
42.863842
42.489628
42.131309
41.770406
41.416945
41.081008
40.747348
40.41612
40.085529
39.735178
39.359172
38.679598
37.446093
36.90622
9.7419004
9.7921858
9.8436669
9.8964186
9.9504435
10.005699
10.062119
10.119636
10.178183
10.237708
10.298169
10.359539
10.421801
10.484958
10.54903
10.614052
10.680049
10.746966
10.814503
10.88209
10.948506
11.012688
11.011944
11.012802
11.012474
11.013146
11.013049
11.01316
11.013074
11.01303
11.012993
11.01296
11.012824
11.012402
11.011556
11.010337
11.00897
11.007803
11.007496
11.007469
11.007475
11.007486
11.007498
11.007512
11.00753
11.007583
11.007917
11.009115
11.010512
11.011761
11.012636
11.013084
11.013246
11.013305
11.013366
11.013434
11.013542
11.013453
11.013572
11.01292
11.013272
11.012434
11.013187
10.9498
10.885032
10.820659
10.759119
10.703167
10.657012
10.628217
10.631628
10.71307
11.009144
11.507184
11.388354
11.259231
11.107948
11.328623
11.641259
12.128978
12.455947
12.727261
13.055993
14.080812
19.384942
35.657401
86.171668
267.57657
347.56872
438.50933
349.15499
345.44296
266.72463
248.23427
239.95036
197.9417
185.56965
177.8404
172.24836
150.43993
142.35149
137.09067
132.35464
128.54363
123.16894
117.89796
114.46739
109.97509
120.50497
123.54597
126.51057
129.7972
133.6798
135.85556
156.78164
161.08508
165.71696
166.25965
202.92727
206.82748
202.10966
267.15048
234.67372
266.39073
355.39018
222.31052
156.17704
88.595396
43.766628
36.078682
47.850338
73.720433
132.22142
237.09017
384.09114
271.386
405.98331
309.22478
300.74058
297.21626
228.69265
229.94472
221.90448
216.48608
176.40832
174.71788
169.14822
164.43172
160.36958
139.47197
137.70885
133.11706
129.197
125.47311
121.83298
110.24074
108.34937
106.6937
105.21455
104.18247
102.03111
101.05799
99.78016
100.65727
103.65097
105.54813
102.64622
92.699919
91.04857
89.146989
88.316052
89.860073
91.921347
93.503881
103.10053
105.78541
108.6656
112.12399
125.38035
128.54037
132.59049
137.09415
142.08965
145.89508
169.24156
175.01553
181.08772
184.10123
226.14108
234.1944
233.17582
311.6558
297.65304
281.69012
319.37884
261.34585
139.45267
191.79856
105.15695
46.503869
22.466673
15.022802
16.691952
27.568857
24.7486
35.492118
45.303056
50.312171
55.625225
67.485537
32.068989
26.493971
17.458928
13.149036
12.016834
11.570044
11.253057
10.899617
10.695662
10.626086
10.625823
10.656008
10.702788
10.759083
10.820801
10.885257
10.950066
11.013436
11.073651
11.073179
11.074708
11.074266
11.075176
11.07495
11.075092
11.074979
11.074942
11.074985
11.074791
11.074986
11.074071
11.074524
11.073017
11.073513
11.072506
11.013093
10.948814
10.883203
10.815787
10.74899
10.683002
10.618385
10.555191
10.49345
10.433163
10.374336
10.316955
10.260971
10.206289
10.152768
10.100226
10.048459
9.9972514
9.9464056
9.8957676
9.8452315
9.7947516
9.7443339
9.6940307
9.6439262
9.594128
9.5447501
9.4959082
9.4476943
9.4001898
9.3534553
9.3075245
9.2624059
9.2180847
9.2230095
9.2671999
9.3121738
9.357946
9.4045078
9.4518263
9.4998454
9.5484886
9.5976549
9.6472295
9.6971008
9.7471609
9.7973249
9.8475409
9.8978064
9.9481729
9.9987502
10.049695
10.101211
10.153521
10.206835
10.261341
10.317184
10.37446
10.433214
10.49346
10.555188
10.618381
10.682998
10.748909
10.815751
10.882876
10.949016
11.01302
11.012532
10.948551
10.882336
10.815291
10.74853
10.682728
10.618213
10.555118
10.493501
10.433396
10.374824
10.317786
10.262242
10.2081
10.155212
10.10338
10.052384
10.00199
9.9519783
9.9021843
9.8524906
9.8028382
9.7532248
9.7036982
9.654342
9.6052608
9.5565615
9.5083566
9.4607469
9.4138158
9.3676159
9.3221776
9.2775088
9.2335943
9.2513813
9.2948682
9.3390598
9.38397
9.4295903
9.4758908
9.5228221
9.5703027
9.6182305
9.6664886
9.7149774
9.7636009
9.8122836
9.8609866
9.9097207
9.9585541
10.007617
10.057095
10.107227
10.15827
10.210463
10.264019
10.319092
10.375768
10.434076
10.494001
10.555503
10.618533
10.683028
10.748859
10.815713
10.882931
10.949411
11.013712
11.01353
10.949384
10.883
10.815853
10.749071
10.683325
10.61894
10.55606
10.49477
10.435149
10.377269
10.321172
10.266852
10.214228
10.16314
10.11335
10.064582
10.016544
9.9689611
9.9216181
9.8743624
9.8271097
9.7798368
9.7325725
9.6853786
9.6383385
9.591546
9.5451296
9.4991879
9.4537998
9.4090121
9.364856
9.3213416
9.2784581
9.317822
9.3598818
9.4024747
9.4456058
9.4892607
9.5334066
9.5779939
9.6229449
9.6681643
9.7135059
9.7588729
9.8041928
9.8494198
9.8945453
9.9396118
9.9847292
10.030082
10.075933
10.122612
10.170474
10.219857
10.27104
10.324206
10.379424
10.436671
10.495858
10.556866
10.619576
10.683871
10.749585
10.816386
10.883594
10.950076
11.014338
11.014289
10.95011
10.883685
10.816537
10.74982
10.684227
10.620119
10.557697
10.497132
10.438612
10.382333
10.328458
10.277069
10.22811
10.181365
10.136471
10.092983
10.050439
10.008419
9.9665936
9.9247296
9.8826786
9.8403667
9.7977782
9.7549449
9.7119342
9.6688666
9.6259111
9.5831666
9.5407162
9.4986152
9.4568993
9.4155913
9.374695
9.4597621
9.4988516
9.5381866
9.577751
9.6175173
9.657444
9.6974693
9.7375077
9.7774559
9.8170973
9.8562489
9.8948472
9.9328814
9.9703988
10.007513
10.044422
10.081427
10.118951
10.157545
10.197846
10.240494
10.286005
10.334662
10.386493
10.441319
10.49885
10.558769
10.620784
10.684644
10.750092
10.816734
10.883854
10.950282
11.014475
11.01448
10.950327
10.883947
10.816903
10.750392
10.685168
10.621681
10.560273
10.50132
10.445282
10.392684
10.344041
10.299709
10.259712
10.223634
10.190648
10.159762
10.130046
10.100793
10.071524
10.041897
10.011665
9.9806125
9.9485741
9.9154789
9.8813704
9.8466138
9.8114847
9.7760758
9.7404558
9.7046734
9.6687579
9.6327397
9.5966523
9.8372108
9.8686709
9.899298
9.9289715
9.95763
9.9853068
10.012055
10.037901
10.062812
10.086563
10.108136
10.12748
10.144923
10.161073
10.176626
10.192214
10.208305
10.225289
10.243833
10.265105
10.29053
10.321443
10.358645
10.402153
10.451265
10.505016
10.56251
10.623013
10.685952
10.750853
10.817177
10.884113
10.95043
11.014545
11.014661
10.950587
10.884353
10.817569
10.751517
10.687091
10.624964
10.565821
10.510554
10.460372
10.416906
10.381898
10.356435
10.34043
10.332863
10.332002
10.335378
10.34193
10.352042
10.365934
10.382372
10.398282
10.410875
10.418147
10.419431
10.415639
10.409896
10.40168
10.390944
10.377346
10.360387
10.339844
10.316037
10.289515
11.165541
11.194164
11.216115
11.229054
11.230924
11.22274
11.207513
11.186342
11.158926
11.124471
11.082085
11.022358
10.943939
10.851859
10.756892
10.671776
10.601245
10.54403
10.494739
10.451768
10.424158
10.413279
10.418936
10.440033
10.47431
10.51877
10.570613
10.62771
10.688622
10.752339
10.81798
10.884519
10.950599
11.014576
11.014699
10.95073
10.884769
10.818507
10.753404
10.690674
10.631511
10.577451
10.530921
10.495461
10.476172
10.479661
10.511768
10.578024
10.686643
10.850803
11.004407
11.190177
11.418124
11.684437
11.968325
12.229095
12.436825
12.583106
12.69176
12.783389
12.85688
12.916447
12.965841
13.00379
13.016389
12.991359
16.743149
16.947267
16.878803
16.792107
16.723851
16.655936
16.566732
16.437255
16.225034
15.882279
15.380361
14.740887
14.047467
13.370194
12.753532
12.189949
11.781739
11.198775
10.879016
10.692365
10.58849
10.534206
10.52724
10.548514
10.586904
10.636452
10.693118
10.754437
10.818734
10.884518
10.950173
11.013932
11.014139
10.950324
10.884804
10.819422
10.755982
10.696337
10.642878
10.599516
10.572951
10.575035
10.638441
10.790076
11.106117
11.607418
12.476993
13.863931
14.597941
14.832413
14.760248
15.345039
15.512202
16.193921
16.449306
17.192984
17.462627
18.245058
18.467976
19.200318
19.126087
19.656226
19.272416
19.662383
19.17743
19.565837
19.116696
19.501924
19.09012
19.459881
19.072404
19.424355
19.059206
19.397756
19.076136
19.425248
19.138008
19.467776
19.647436
22.080425
26.094525
34.891608
35.516079
37.541432
38.367864
38.762845
39.061
39.351512
39.647533
39.95627
40.273945
40.612343
40.957279
41.314457
41.67467
42.046412
42.412879
42.788631
43.159256
43.534243
43.901421
44.276912
44.643387
45.030473
45.429079
45.885598
46.404885
47.395661
47.235459
45.594973
45.780143
45.487543
46.828351
47.228073
48.806744
49.064021
49.30053
49.604795
49.985829
50.430383
50.000865
49.799671
51.651902
52.229589
54.917187
54.441248
53.489999
53.092403
52.893272
52.972917
53.048926
53.309605
53.46832
53.770619
53.927446
54.222919
54.367658
54.692016
54.897656
55.469618
55.775794
56.474348
55.461309
54.912045
52.681027
47.680548
40.582575
31.360949
24.976115
21.018164
16.897523
14.492619
12.747739
11.666781
11.186056
10.795292
10.642642
10.60202
10.613919
10.649885
10.699628
10.757374
10.819773
10.884512
10.949551
11.012958
11.013391
11.014264
11.014744
11.015257
11.015313
11.015275
11.015162
11.0151
11.015096
11.015037
11.014911
11.014358
11.013858
11.012981
11.012706
11.012787
11.012041
11.012894
11.012559
11.013224
11.013119
11.01322
11.013124
11.01307
11.013025
11.013007
11.012998
11.012995
11.012992
11.012991
11.012988
11.012985
11.012982
11.01298
11.012977
11.012974
11.012971
11.012969
11.012966
11.012963
11.012961
11.012957
11.012955
11.012951
11.012948
11.012946
11.012949
11.012962
11.013001
11.013051
11.013142
11.013036
11.013138
11.012469
11.012801
11.011946
11.012691
11.012998
11.072477
11.073279
11.072615
11.073859
11.07332
11.074125
11.073914
11.074059
11.073957
11.073926
11.073897
11.073893
11.073894
11.073897
11.0739
11.073903
11.073905
11.073906
11.073907
11.073908
11.073909
11.07391
11.073911
11.073912
11.073913
11.073913
11.073913
11.073914
11.073914
11.073914
11.073912
11.073911
11.073911
11.073916
11.073947
11.073979
11.074083
11.073939
11.074152
11.073347
11.073887
11.072643
11.073308
11.073588
11.130592
11.130715
11.131265
11.131458
11.131808
11.13183
11.131841
11.131777
11.131733
11.131703
11.131691
11.131686
11.131685
11.131685
11.131686
11.131685
11.131686
11.131686
11.131686
11.131685
11.131685
11.131685
11.131685
11.131684
11.131684
11.131683
11.131682
11.131681
11.131681
11.13168
11.131681
11.131685
11.131697
11.131726
11.13177
11.131833
11.131822
11.131799
11.131449
11.131256
11.130706
11.130583
11.130836
11.13149
11.132102
11.132618
11.132949
11.133058
11.133033
11.132962
11.1329
11.13286
11.13284
11.132832
11.132829
11.132829
11.132829
11.13283
11.132831
11.132832
11.132832
11.132833
11.132834
11.132834
11.132835
11.132835
11.132836
11.132836
11.132836
11.132836
11.132837
11.132838
11.132842
11.132852
11.132873
11.132914
11.132977
11.133048
11.133074
11.132966
11.132636
11.132121
11.131509
11.130855
11.131589
11.132275
11.133075
11.133729
11.134104
11.134211
11.134165
11.134076
11.134001
11.133953
11.133928
11.133916
11.133911
11.133908
11.133907
11.133906
11.133905
11.133904
11.133903
11.133902
11.133901
11.1339
11.1339
11.133899
11.133898
11.133897
11.133896
11.133895
11.133894
11.133895
11.133898
11.133908
11.133931
11.133977
11.134051
11.134138
11.134183
11.134074
11.133698
11.133042
11.132242
11.131556
11.131776
11.132814
11.133754
11.134472
11.134849
11.134932
11.134861
11.134756
11.134673
11.134624
11.1346
11.13459
11.134587
11.134587
11.134587
11.134588
11.13459
11.134591
11.134592
11.134593
11.134595
11.134596
11.134597
11.134599
11.1346
11.134602
11.134603
11.134605
11.134607
11.134611
11.134617
11.13463
11.134657
11.134709
11.134794
11.134902
11.134975
11.134895
11.13452
11.133805
11.132867
11.13183
11.132222
11.133213
11.134188
11.134898
11.13524
11.135282
11.135179
11.135054
11.134961
11.134905
11.134877
11.134863
11.134856
11.134852
11.134849
11.134846
11.134844
11.134841
11.134839
11.134837
11.134835
11.134833
11.134832
11.13483
11.134828
11.134827
11.134825
11.134824
11.134823
11.134823
11.134825
11.134835
11.134859
11.13491
11.135
11.135121
11.135221
11.135175
11.13483
11.134116
11.133138
11.132145
11.132132
11.133217
11.134189
11.134871
11.135176
11.135186
11.135062
11.134927
11.134833
11.13478
11.134756
11.134747
11.134745
11.134746
11.134747
11.134749
11.134751
11.134753
11.134755
11.134757
11.134759
11.134762
11.134764
11.134767
11.13477
11.134773
11.134776
11.13478
11.134784
11.134789
11.134796
11.134811
11.134841
11.134899
11.134999
11.135138
11.135267
11.135262
11.134961
11.134284
11.133317
11.132234
11.132262
11.133302
11.134245
11.134892
11.13516
11.135139
11.134992
11.134842
11.134738
11.134678
11.134648
11.134633
11.134624
11.134618
11.134613
11.134609
11.134605
11.134601
11.134597
11.134594
11.134591
11.134588
11.134585
11.134583
11.13458
11.134578
11.134576
11.134573
11.134572
11.134571
11.134572
11.13458
11.134604
11.134656
11.134754
11.134898
11.135039
11.135055
11.13478
11.134128
11.133178
11.132135
11.132084
11.13313
11.134065
11.134701
11.13496
11.134932
11.134783
11.134635
11.134536
11.134483
11.13446
11.134453
11.134451
11.134453
11.134455
11.134457
11.134459
11.134462
11.134465
11.134468
11.134471
11.134474
11.134478
11.134482
11.134486
11.134491
11.134496
11.134501
11.134507
11.134514
11.134523
11.134539
11.13457
11.134631
11.134738
11.134893
11.135049
11.135083
11.134832
11.134202
11.133274
11.132233
11.132249
11.133289
11.134217
11.134846
11.135097
11.135062
11.134905
11.134749
11.134642
11.13458
11.134548
11.134532
11.134522
11.134514
11.134508
11.134502
11.134497
11.134492
11.134487
11.134482
11.134478
11.134475
11.134471
11.134468
11.134465
11.134462
11.134459
11.134457
11.134455
11.134453
11.134454
11.134461
11.134484
11.134536
11.134635
11.134783
11.134932
11.13496
11.134702
11.134065
11.13313
11.132084
11.132135
11.133179
11.134128
11.134781
11.135056
11.13504
11.1349
11.134756
11.134659
11.134607
11.134584
11.134576
11.134575
11.134577
11.134579
11.134582
11.134584
11.134588
11.134591
11.134594
11.134598
11.134602
11.134606
11.134611
11.134616
11.134621
11.134627
11.134633
11.13464
11.134648
11.134658
11.134676
11.134708
11.13477
11.134876
11.135028
11.135176
11.135198
11.134931
11.134287
11.133345
11.132307
11.1323
11.13338
11.134344
11.13502
11.135319
11.135323
11.135192
11.13505
11.134948
11.134887
11.134853
11.134834
11.134823
11.134815
11.134808
11.134802
11.134796
11.134791
11.134786
11.134781
11.134777
11.134773
11.134769
11.134766
11.134762
11.134759
11.134756
11.134754
11.134751
11.13475
11.134752
11.134761
11.134785
11.134837
11.134931
11.135065
11.135189
11.135178
11.134872
11.134189
11.133218
11.132132
11.132145
11.133139
11.134117
11.134831
11.135177
11.135224
11.135125
11.135004
11.134916
11.134866
11.134841
11.134821
11.134815
11.134815
11.134817
11.134819
11.134822
11.134825
11.134828
11.134832
11.134835
11.134839
11.134843
11.134848
11.134853
11.134858
11.134864
11.13487
11.134876
11.134885
11.134901
11.134929
11.134963
11.135021
11.135117
11.135244
11.135349
11.135308
11.134967
11.134258
11.133286
11.132298
11.131904
11.132938
11.133875
11.134589
11.134964
11.135045
11.134971
11.134863
11.134776
11.134721
11.134689
11.134658
11.134607
11.134584
11.134575
11.134569
11.134564
11.134559
11.134555
11.134551
11.134547
11.134543
11.13454
11.134536
11.134533
11.13453
11.134528
11.134526
11.134527
11.134541
11.134585
11.134607
11.134633
11.134681
11.134762
11.134865
11.134935
11.134851
11.134473
11.133755
11.132814
11.131776
11.131556
11.132242
11.133043
11.1337
11.134077
11.134187
11.134144
11.134058
11.133986
11.133941
11.133917
11.133893
11.133839
11.133743
11.133711
11.133707
11.133709
11.133711
11.133714
11.133717
11.13372
11.133724
11.133727
11.133731
11.133735
11.13374
11.133745
11.133756
11.133796
11.133899
11.13396
11.13399
11.13402
11.134069
11.134145
11.134233
11.134278
11.134169
11.133791
11.133136
11.132336
11.131652
11.130903
11.131556
11.13217
11.132689
11.133023
11.133136
11.133113
11.133044
11.132981
11.13294
11.132915
11.132887
11.132823
11.132701
11.13254
11.132476
11.132464
11.132458
11.132455
11.132451
11.132448
11.132445
11.132442
11.132439
11.132436
11.132435
11.132442
11.132498
11.132653
11.132769
11.132826
11.13285
11.132871
11.132909
11.13297
11.133039
11.133063
11.132953
11.13262
11.132103
11.13149
11.130836
11.130583
11.130706
11.131257
11.131451
11.131803
11.131827
11.13184
11.131778
11.131736
11.131708
11.131695
11.131676
11.131618
11.131497
11.131318
11.131126
11.131059
11.131052
11.131054
11.131056
11.131059
11.131062
11.131065
11.131068
11.131073
11.131085
11.131158
11.131357
11.131542
11.131669
11.131732
11.131755
11.13177
11.131799
11.131841
11.131902
11.131886
11.131858
11.131503
11.131305
11.130751
11.130626
11.073728
11.074196
11.075155
11.075616
11.076146
11.076219
11.07622
11.076139
11.076104
11.076118
11.076066
11.075964
11.075428
11.074977
11.074038
11.074874
11.073783
11.012657
10.947865
10.947997
10.948496
10.948264
10.948784
10.948719
10.948768
10.94866
10.948581
10.948518
10.948485
10.948465
10.948452
10.948443
10.948434
10.948425
10.948417
10.94841
10.948402
10.948395
10.948388
10.948381
10.948375
10.948369
10.948363
10.948357
10.948352
10.948346
10.948341
10.948337
10.948335
10.948341
10.948362
10.948411
10.948477
10.948572
10.948513
10.948567
10.948038
10.948262
10.947757
10.948515
10.948572
10.882692
10.814825
10.747344
10.680372
10.614408
10.549433
10.485409
10.422278
10.36001
10.298585
10.237992
10.178221
10.119263
10.061109
10.003745
9.9471579
9.8913291
9.8362367
9.7818562
9.7281601
9.2178116
9.2172981
9.2165645
9.2156319
9.2145078
9.2131812
9.2116471
9.2099208
9.2080296
9.2060046
9.2038746
9.2016621
9.1993863
9.1970633
9.1947075
9.1923327
9.1899524
9.2353974
9.2376978
9.2399908
9.2422635
9.2445025
9.2466939
9.2488221
9.2508692
9.2528135
9.254627
9.2562792
9.2577423
9.2590012
9.2600626
9.260943
9.2616421
9.2621377
9.3072595
9.3067806
9.3061158
9.3052877
9.3042888
9.3030969
9.3017037
9.3001245
9.2983872
9.2965215
9.2945546
9.2925071
9.290396
9.2882362
9.2860409
9.2838234
9.2815959
9.3285031
9.3306703
9.3328241
9.3349525
9.3370431
9.3390827
9.3410575
9.3429514
9.3447446
9.3464113
9.3479225
9.3492499
9.3503784
9.3513178
9.3520959
9.3527279
9.3531918
9.3999256
9.3994739
9.3988715
9.398139
9.3972535
9.3961818
9.3949125
9.3934606
9.3918546
9.3901227
9.3882899
9.3863747
9.3843926
9.3823565
9.3802788
9.3781722
9.3760482
9.3739175
9.4220253
9.4241392
9.4262413
9.4283216
9.4303683
9.4323692
9.4343123
9.4361853
9.4379738
9.4396595
9.4412192
9.4426248
9.4438474
9.4448721
9.4457121
9.4464059
9.4469837
9.4474269
9.4956348
9.4951953
9.4946356
9.4939717
9.4931665
9.4921759
9.4909855
9.4896102
9.4880785
9.4864193
9.4846554
9.4828038
9.480878
9.4788897
9.4768509
9.474773
9.4726674
9.4705447
9.5193648
9.5215174
9.5236486
9.5257482
9.5278047
9.5298063
9.531741
9.533597
9.535361
9.5370164
9.5385401
9.5399038
9.5410789
9.5420503
9.5428334
9.5434775
9.5440264
9.5444674
9.5938329
9.5933843
9.592836
9.5921982
9.5914203
9.5904488
9.5892675
9.5878927
9.5863538
9.5846798
9.5828932
9.5810106
9.5790451
9.5770087
9.5749136
9.5727723
9.5705963
9.5683965
9.6175749
9.6198296
9.6220607
9.624257
9.6264061
9.6284949
9.6305105
9.6324405
9.6342712
9.6359857
9.637561
9.6389674
9.6401743
9.641164
9.6419523
9.6425972
9.6431541
9.643616
9.6937033
9.6932226
9.6926473
9.6919827
9.6911686
9.6901436
9.6888931
9.6874369
9.6858077
9.6840364
9.6821469
9.6801568
9.6780805
9.6759312
9.6737227
9.6714688
9.6691831
9.6668773
9.6978338
9.7001327
9.7024254
9.704718
9.7070173
9.7093281
9.7116515
9.7139866
9.7163284
9.7186676
9.7209941
9.7232952
9.7255566
9.7277634
9.7299008
9.7319546
9.7339094
9.7357464
9.7374402
9.7389581
9.7402647
9.7413377
9.7421895
9.7428841
9.7434847
9.7439877
9.7943881
9.7938617
9.7932296
9.7924977
9.791601
9.7904732
9.7891046
9.7875213
9.7857618
9.7838611
9.7818464
9.7797378
9.7775519
9.7753041
9.7730098
9.7706851
9.768345
9.7660027
9.763669
9.7613537
9.7590628
9.7567983
9.7545611
9.7523495
9.7501602
9.7479908
9.745842
9.7437209
9.7416437
9.7396373
9.7377379
9.7359852
9.7344148
9.7330482
9.7318859
9.730906
9.7300728
9.7293599
9.7287772
9.7283767
9.7281842
9.7281488
9.7818228
9.7818185
9.781959
9.7822923
9.7827859
9.7833807
9.7840645
9.784864
9.785817
9.7869489
9.7882648
9.7897518
9.7913845
9.7931335
9.7949708
9.7968749
9.7988314
9.8008329
9.802877
9.8049635
9.8070934
9.8092666
9.8114816
9.8137341
9.816018
9.8183227
9.820638
9.8229503
9.8252447
9.8275043
9.8297131
9.8318549
9.8339119
9.8358624
9.8376777
9.8393196
9.8407463
9.8419275
9.8428693
9.8436403
9.8443065
9.8448546
9.8953829
9.894817
9.8941194
9.8933131
9.8923338
9.8911098
9.8896392
9.8879564
9.8861075
9.8841333
9.8820644
9.8799234
9.8777287
9.8754972
9.8732445
9.8709877
9.8687415
9.8665192
9.8643321
9.8621891
9.8600963
9.8580585
9.8560776
9.8541545
9.8522895
9.8504837
9.8487406
9.8470671
9.8454747
9.8439802
9.8426037
9.8413665
9.8402858
9.8393682
9.8386045
9.8379668
9.8374162
9.8369259
9.8365096
9.836235
9.8361409
9.8361821
9.8912545
9.8911789
9.8912323
9.8914571
9.8918077
9.8922084
9.8926437
9.8931403
9.8937381
9.8944661
9.8953365
9.8963467
9.8974856
9.8987385
9.9000911
9.9015314
9.9030508
9.9046436
9.9063069
9.908039
9.909839
9.9117054
9.913636
9.9156269
9.9176723
9.9197651
9.9218943
9.9240477
9.9262113
9.9283699
9.9305069
9.9326056
9.9346476
9.9366093
9.9384594
9.9401544
9.9416445
9.942891
9.943892
9.9447233
9.9454434
9.9460218
9.9968763
9.9962923
9.9955628
9.9947235
9.9937229
9.9924811
9.9910033
9.9893316
9.9875193
9.9856119
9.9836422
9.981633
9.9796015
9.9775637
9.9755358
9.9735311
9.9715616
9.9696383
9.9677702
9.965964
9.9642249
9.9625557
9.9609587
9.9594348
9.957985
9.9566107
9.955314
9.9540991
9.952972
9.9519408
9.9510151
9.9502049
9.9495175
9.9489524
9.9484964
9.9481195
9.9477815
9.9474557
9.9471587
9.9469749
9.9469562
9.9470641
10.003634
10.003496
10.003484
10.003634
10.003889
10.004154
10.004411
10.004689
10.005027
10.005455
10.005987
10.006626
10.007365
10.0082
10.009122
10.010127
10.011211
10.012372
10.013608
10.014919
10.016304
10.017761
10.019291
10.02089
10.022554
10.024279
10.026056
10.027877
10.029732
10.031607
10.033489
10.035364
10.037216
10.039024
10.040755
10.042362
10.04379
10.044994
10.045966
10.046792
10.047515
10.048098
10.099878
10.099303
10.098604
10.097817
10.096905
10.095773
10.094433
10.092929
10.091319
10.08965
10.087953
10.086248
10.084549
10.082868
10.081217
10.079604
10.07804
10.076532
10.075085
10.073703
10.072389
10.071145
10.069972
10.068869
10.067837
10.066876
10.065987
10.06517
10.064428
10.063765
10.063183
10.062689
10.062284
10.061969
10.061727
10.061531
10.061338
10.061122
10.0609
10.060776
10.060813
10.06098
10.119117
10.118922
10.118864
10.118967
10.119166
10.119344
10.119486
10.119617
10.119781
10.120006
10.120307
10.120683
10.121133
10.121653
10.12224
10.122892
10.123608
10.124388
10.125232
10.126141
10.127114
10.128152
10.129254
10.130421
10.131649
10.132936
10.134278
10.135669
10.137103
10.13857
10.140063
10.141571
10.143084
10.144583
10.14604
10.14741
10.148632
10.149662
10.150488
10.151213
10.15187
10.152433
10.205966
10.205418
10.204814
10.204171
10.203453
10.202548
10.201467
10.200256
10.198972
10.197662
10.19635
10.195051
10.193774
10.192527
10.191315
10.190144
10.189021
10.187949
10.186931
10.185969
10.185064
10.184217
10.183427
10.182694
10.182017
10.181395
10.180829
10.180317
10.17986
10.179459
10.179116
10.178834
10.178617
10.178463
10.17836
10.17828
10.178178
10.178028
10.177846
10.177759
10.177834
10.178058
10.237812
10.23756
10.23747
10.237544
10.237717
10.237844
10.237915
10.237956
10.238011
10.23811
10.238262
10.238469
10.238727
10.239031
10.239382
10.239777
10.240217
10.240703
10.241236
10.241816
10.242444
10.243121
10.243847
10.244623
10.245447
10.246319
10.247236
10.248196
10.249195
10.250228
10.251291
10.252379
10.253487
10.254602
10.255703
10.256746
10.257673
10.25844
10.259035
10.259586
10.260128
10.260659
10.316654
10.316138
10.315661
10.315207
10.31474
10.314114
10.313343
10.312468
10.311548
10.310623
10.309712
10.308824
10.307963
10.30713
10.306328
10.30556
10.304829
10.304137
10.303485
10.302873
10.302303
10.301774
10.301284
10.300835
10.300424
10.30005
10.299714
10.299414
10.299149
10.298921
10.29873
10.298582
10.298479
10.298424
10.298405
10.298395
10.298348
10.298238
10.298068
10.298005
10.298108
10.29839
10.359802
10.359486
10.359375
10.359427
10.359597
10.359693
10.359723
10.359709
10.359699
10.359722
10.359787
10.35989
10.360029
10.360197
10.360394
10.360618
10.360871
10.361153
10.361464
10.361806
10.362179
10.362584
10.363022
10.363493
10.363996
10.364533
10.365101
10.365699
10.366327
10.366981
10.36766
10.368365
10.369095
10.369844
10.370596
10.371312
10.371934
10.372426
10.372766
10.373129
10.373542
10.374046
10.432883
10.432385
10.432032
10.431751
10.431528
10.431157
10.430669
10.430095
10.429494
10.428901
10.428331
10.427786
10.427264
10.426764
10.426287
10.425832
10.425402
10.424997
10.424618
10.424264
10.423935
10.423632
10.423354
10.4231
10.422869
10.422661
10.422474
10.422309
10.422165
10.422043
10.421945
10.421874
10.421839
10.42184
10.421872
10.421905
10.421889
10.421804
10.421631
10.42159
10.421709
10.422061
10.485188
10.484794
10.484671
10.484697
10.484877
10.48495
10.484954
10.484905
10.484857
10.484836
10.484851
10.484896
10.484964
10.485052
10.485155
10.485274
10.485409
10.48556
10.485727
10.485912
10.486115
10.486336
10.486576
10.486835
10.487114
10.487412
10.487728
10.488063
10.488416
10.488787
10.489176
10.489586
10.490021
10.490481
10.490954
10.491407
10.49178
10.492049
10.492166
10.492382
10.49268
10.493184
10.554943
10.55442
10.554169
10.554
10.553974
10.553785
10.553508
10.553152
10.552784
10.552433
10.552109
10.551809
10.551528
10.551261
10.551009
10.550769
10.550543
10.550331
10.550133
10.549948
10.549778
10.549621
10.549477
10.549346
10.549228
10.549122
10.549026
10.548942
10.548869
10.548808
10.548762
10.548736
10.548737
10.548771
10.548833
10.548897
10.548902
10.548842
10.548653
10.548648
10.548773
10.549218
10.614196
10.613683
10.613562
10.61354
10.613742
10.613785
10.613771
10.613694
10.613621
10.613575
10.613563
10.613575
10.613605
10.613647
10.613697
10.613756
10.613821
10.613894
10.613976
10.614066
10.614164
10.614272
10.614389
10.614516
10.614652
10.614798
10.614953
10.615118
10.615292
10.615476
10.615673
10.615886
10.616122
10.616387
10.616672
10.616953
10.617156
10.617286
10.617233
10.617377
10.617585
10.618151
10.682768
10.682134
10.681972
10.681837
10.681961
10.681869
10.681722
10.681497
10.681274
10.681074
10.680906
10.680759
10.680627
10.680506
10.680391
10.680283
10.680181
10.680085
10.679995
10.679912
10.679835
10.679764
10.679699
10.679639
10.679586
10.679537
10.679493
10.679454
10.67942
10.679393
10.679374
10.679371
10.679392
10.679445
10.679527
10.679618
10.679638
10.679616
10.679393
10.679447
10.679552
10.680151
10.747033
10.746328
10.746271
10.746181
10.74644
10.746441
10.74642
10.746319
10.746231
10.746172
10.746147
10.746144
10.746154
10.746171
10.746193
10.746219
10.746247
10.746278
10.746312
10.746349
10.74639
10.746435
10.746483
10.746535
10.74659
10.74665
10.746713
10.74678
10.746851
10.746927
10.747011
10.747108