/*--------------------------------*- C++ -*----------------------------------*\
| =========                 |                                                 |
| \\      /  F ield         | OpenFOAM: The Open Source CFD Toolbox           |
|  \\    /   O peration     | Version:  v2012                                 |
|   \\  /    A nd           | Website:  www.openfoam.com                      |
|    \\/     M anipulation  |                                                 |
\*---------------------------------------------------------------------------*/
FoamFile
{
    version     2.0;
    format      ascii;
    class       volScalarField;
    location    "200";
    object      p;
}
// * * * * * * * * * * * * * * * * * * * * * * * * * * * * * * * * * * * * * //

dimensions      [0 2 -2 0 0 0 0];


internalField   nonuniform List<scalar> 
33368
(
-0.17686061
-0.17624175
-0.17590135
-0.17730813
-0.17792394
-0.17920749
-0.18124542
-0.18405767
-0.18751758
-0.1914974
-0.19576908
-0.20020438
-0.20466334
-0.20904894
-0.21322757
-0.21707533
-0.22039266
-0.22306076
-0.22500102
-0.22621981
-0.22685171
-0.22600057
-0.22432991
-0.22162286
-0.21778871
-0.21284293
-0.20683628
-0.19994556
-0.19225037
-0.18385133
-0.17479873
-0.16514622
-0.15494633
-0.14425717
-0.13313762
-0.12164573
-0.1098367
-0.097762126
-0.085469838
-0.073004158
-0.060406443
-0.0477159
-0.034970543
-0.022208105
-0.0094671261
0.0032119699
0.015786032
0.028208374
0.040428171
0.052390134
0.064034144
0.075295995
0.086109516
0.096407839
0.10612868
0.11520623
0.12357908
0.13112453
0.1377594
0.14325572
0.14756639
0.15060166
0.15250535
0.15344707
0.15876716
0.16926064
0.1861287
0.20981422
0.23995202
0.27602105
0.31662745
0.36104202
0.40823965
0.45736117
0.50691591
0.55523718
0.59913609
0.63613003
0.66391599
0.68170194
0.69054431
0.68659244
0.67901469
0.66690012
0.65020673
0.6293447
0.60497894
0.57821144
0.54967437
0.51998637
0.48951013
0.45856481
0.42741638
0.39630307
0.36542526
0.33494631
0.3049935
0.27566149
0.24701714
0.21910463
0.19194989
0.16556474
0.13995091
0.115104
0.091017384
0.067685871
0.045109022
0.023294093
0.0022587144
-0.017967337
-0.037341602
-0.05581006
-0.073310388
-0.089775356
-0.10514342
-0.11934326
-0.13230066
-0.14386959
-0.15393164
-0.16219717
-0.16860286
-0.17311191
-0.17341858
-0.16885365
-0.16241315
-0.15409227
-0.14402693
-0.13241357
-0.11941606
-0.10515003
-0.089711772
-0.0731689
-0.055592437
-0.037050053
-0.017604376
0.002690898
0.023793936
0.045675724
0.06831968
0.09171974
0.11587774
0.1408006
0.16649688
0.19297302
0.22022892
0.2482545
0.27702582
0.30650077
0.33661443
0.36727454
0.39835673
0.4297005
0.46110756
0.49234164
0.52312778
0.55314026
0.58197262
0.6090698
0.63369698
0.65495073
0.67199259
0.68445923
0.69229368
0.69619324
0.71354518
0.74498299
0.79420392
0.86560512
0.96472516
1.0968396
1.2688133
1.4934914
1.7968561
2.2086892
2.7267264
3.3585763
4.0770649
5.0838602
6.3544399
7.8545602
10.512458
12.784372
10.646389
7.2336301
5.1827171
3.1237797
1.8400194
0.50647469
-0.010490987
-0.42814034
-1.2701396
-1.7551279
-1.9145966
-2.1878601
-2.6545789
-2.9670325
-3.0616569
-3.0734128
-3.1823576
-3.2455655
-3.6337941
-3.634327
-3.8241693
-3.8539922
-3.9610818
-3.804956
-3.9065879
-4.1957789
-4.2728363
-4.3723095
-4.1767124
-4.3161599
-4.2961439
-4.4645406
-4.4015003
-4.5283559
-4.493331
-4.5849319
-4.5706535
-4.5999888
-4.6230075
-4.6157073
-4.6485997
-4.6296231
-4.6373612
-4.6626262
-4.5688612
-4.7267912
-4.5852707
-4.5545809
-4.5874705
-4.5733304
-4.5353761
-4.620505
-4.5543265
-4.4854369
-4.5689069
-4.50916
-4.4505917
-4.4489013
-4.4540397
-4.3880492
-4.3723035
-4.4230318
-4.3939188
-4.2944127
-4.2671387
-4.3406
-4.1885329
-4.1702403
-4.2216241
-4.0814719
-4.0600675
-4.0966918
-3.9593129
-3.9405921
-3.9662113
-3.8366521
-3.7944125
-3.8458524
-3.7111351
-3.6560571
-3.6804952
-3.5957246
-3.5233743
-3.4998924
-3.4813757
-3.3819295
-3.341712
-3.2975134
-3.1785455
-0.68739542
-0.61785714
-0.55485888
-0.49887088
-0.44981903
-0.40727345
-0.37061412
-0.33914774
-0.31218537
-0.28908787
-0.26928867
-0.25230145
-0.23771851
-0.22520426
-0.21448728
-0.20535385
-0.19764251
-0.19124062
-0.18607574
-0.18209759
-0.17922052
-0.17731044
-0.17443695
-0.1697859
-0.16321218
-0.15474645
-0.14453626
-0.13276086
-0.11958729
-0.105132
-0.089483844
-0.072724553
-0.054929273
-0.036169462
-0.016510161
0.0039940296
0.025301953
0.047386499
0.070233977
0.093842138
0.11821736
0.14337154
0.16931866
0.19607095
0.22363397
0.25200336
0.28116113
0.31107119
0.34167475
0.37288575
0.40458594
0.43662024
0.46879423
0.5008726
0.53257573
0.56356948
0.59343405
0.62161479
0.64735036
0.66970711
0.68779062
0.70110237
0.70958237
0.74075038
0.78926973
0.85967732
0.95693631
1.0869789
1.257173
1.4820307
1.7936512
2.2482208
2.8905538
3.8168456
3.6427668
3.5612966
3.4592089
3.4689304
3.9721189
4.1467712
4.3286763
4.5746107
4.667216
5.3104378
6.3033042
7.9325589
10.775224
12.281973
12.511094
10.801887
7.9244074
5.4734129
3.1677704
1.9425275
0.21950158
-0.17307272
-0.4029778
-1.3831454
-2.0053533
-2.0232513
-2.157292
-2.6806763
-3.0365029
-3.2149733
-3.2214697
-3.3296009
-3.2458216
-3.5833593
-3.3367763
-3.2477561
-3.0348515
-2.6556774
-2.1036919
-2.1896528
-2.0118822
-1.2760186
-0.27880877
-0.35210415
0.45420033
2.2814821
3.3068794
5.596706
8.7810661
8.666352
11.837235
11.576495
11.538868
10.709222
9.5377945
9.1044037
9.2551854
10.593614
11.644424
12.755411
12.24145
12.27544
9.7422042
8.3822335
6.1247162
4.2433822
3.2160267
1.9189443
0.5171846
-0.41262335
-0.33755182
-0.94680776
-1.2393669
-2.0320367
-2.383634
-2.1862562
-2.5496292
-2.6698046
-3.0232758
-3.3096092
-3.4589287
-3.5747929
-3.5062024
-3.5468547
-3.5581079
-3.6580782
-3.8032798
-3.937658
-3.9661139
-3.8976105
-3.7262579
-3.7581562
-3.8850216
-3.869922
-3.8109773
-3.8563856
-4.265306
-4.2279302
-4.0824011
-3.9328294
-4.0865527
-3.9771089
-3.7518671
-3.7919128
-3.6913424
-3.5734244
-3.3873272
-3.0468211
-2.6358787
-2.5837491
-2.4701567
-1.9123063
-1.0579751
-1.0453243
-0.35021271
1.1343192
2.3370431
4.8181545
7.6797353
9.3253698
11.524153
12.905245
11.558785
10.866778
10.505179
8.6312917
6.7314153
5.4595964
5.9068004
7.2982018
6.2725733
6.3171127
6.407562
6.6979732
6.6841264
7.1288129
6.6466376
6.6434566
5.7477009
4.7273814
4.2412495
3.7145192
3.7097772
2.7575788
2.1593164
1.7410319
1.4451358
1.231434
1.0684294
0.94349313
0.84965242
0.78148285
0.734349
0.70400345
0.68720751
0.66869681
0.64000911
0.60218285
0.55738789
0.50850338
0.45825339
0.40856975
0.36083437
0.31604491
0.27513058
0.2389984
0.20862362
0.1847818
0.16764951
0.1569923
0.15174951
0.14638693
0.13659944
0.12160961
0.10066691
0.073045971
0.038546047
-0.0032577967
-0.052694864
-0.11017554
-0.17603422
-0.25037742
-0.33305881
-0.42360883
-0.52116662
-0.62446147
-0.73184007
-0.84139127
-0.95054542
-1.0570552
-1.1590906
-1.2543662
-1.3409597
-1.4172549
-1.4819865
-1.5341549
-1.5732041
-1.5987357
-1.6110509
-1.6106635
-1.5977719
-1.5718605
-1.5347263
-1.4875116
-1.4311384
-1.4374876
-1.4948296
-1.5429715
-1.5809214
-1.607719
-1.6219322
-1.6224115
-1.6101641
-1.5847339
-1.5457168
-1.4933376
-1.4281186
-1.3510295
-1.2633577
-1.1667786
-1.0632403
-0.95500892
-0.84397028
-0.73252092
-0.6233629
-0.5184767
-0.4195997
-0.32802164
-0.24459878
-0.16977844
-0.10368241
-0.046154115
0.0031378504
0.044638058
0.078813019
0.10607914
0.12684676
0.14171155
0.15150019
0.1624352
0.15295697
0.13850387
0.11824245
0.091555631
0.057951824
0.016937691
-0.032048156
-0.089555696
-0.15605122
-0.2318067
-0.31678423
-0.41055967
-0.51226241
-0.62056494
-0.73355909
-0.84907737
-0.96420561
-1.0762823
-1.1832469
-1.2827286
-1.372724
-1.4515326
-1.5179098
-1.570902
-1.6100821
-1.6353342
-1.6469767
-1.6448831
-1.6289956
-1.6006286
-1.5609187
-1.5108294
-1.4514429
-1.4743355
-1.537077
-1.5903711
-1.63306
-1.6641076
-1.6824333
-1.6867649
-1.6766247
-1.6520316
-1.6127173
-1.5587555
-1.4905456
-1.4089461
-1.31517
-1.2109355
-1.098272
-0.9797389
-0.85769677
-0.73532185
-0.61583966
-0.50177775
-0.39529147
-0.29783556
-0.21032712
-0.13310028
-0.066029936
-0.0086562328
0.039689622
0.079759335
0.11228732
0.13792112
0.15724816
0.17097308
0.17995244
0.20436036
0.19621478
0.18364606
0.16579425
0.14184861
0.11105582
0.07255914
0.025373803
-0.031549943
-0.099195197
-0.17834172
-0.2693893
-0.37216116
-0.48571543
-0.60840107
-0.73763765
-0.87030055
-1.0025995
-1.1306968
-1.2517202
-1.3629765
-1.4622588
-1.5478211
-1.6184801
-1.6735318
-1.7126933
-1.7360058
-1.7438282
-1.7364317
-1.7144812
-1.6794703
-1.6324672
-1.5745674
-1.5070117
-1.5495782
-1.6234785
-1.6874763
-1.7402465
-1.7806517
-1.8075218
-1.8190709
-1.8145767
-1.79336
-1.7548776
-1.6988356
-1.6252759
-1.5347583
-1.428384
-1.3078094
-1.1753904
-1.034172
-0.88764357
-0.74054607
-0.59755428
-0.46275655
-0.33944997
-0.22959927
-0.13408918
-0.052794776
0.015124326
0.070945743
0.11613883
0.15216746
0.1803526
0.20182551
0.2175562
0.22847901
0.23544156
0.27237165
0.26697413
0.25828547
0.24545708
0.22743884
0.20300793
0.17065918
0.12866033
0.074983665
0.0074827235
-0.075860073
-0.17660048
-0.29539419
-0.43150953
-0.58253675
-0.74410958
-0.91065686
-1.0759675
-1.2342235
-1.3811108
-1.5133613
-1.6282748
-1.7244022
-1.800889
-1.8574864
-1.8944792
-1.9125255
-1.9124729
-1.8954104
-1.8623219
-1.8149643
-1.7549116
-1.6833352
-1.6015928
-1.6625388
-1.7535448
-1.8341809
-1.9031094
-1.9588661
-1.9996613
-2.0237907
-2.0298655
-2.0164096
-1.9821464
-1.9259188
-1.8469531
-1.7450351
-1.620558
-1.4747921
-1.3102613
-1.1306965
-0.94111952
-0.74890184
-0.56261601
-0.39011466
-0.23742462
-0.10767467
-0.0011603474
0.083639251
0.14941679
0.19925153
0.23629072
0.26329092
0.28256031
0.29596334
0.30498149
0.3107876
0.31425716
0.3602948
0.35919998
0.35702711
0.3529062
0.3455562
0.33323972
0.31367779
0.28393337
0.24034019
0.17856597
0.093802792
-0.018550148
-0.16148221
-0.33547711
-0.53628435
-0.75519989
-0.980816
-1.2011625
-1.4068868
-1.5923713
-1.7534336
-1.8878899
-1.9952276
-2.0755875
-2.1299303
-2.159733
-2.1667985
-2.1529007
-2.1200178
-2.0698101
-2.0042599
-1.925029
-1.8338032
-1.7321502
-1.8103536
-1.9240297
-2.0271669
-2.1180165
-2.1948565
-2.2561928
-2.299712
-2.323546
-2.3251415
-2.3021453
-2.2519188
-2.1719963
-2.0604092
-1.9165382
-1.7400423
-1.531541
-1.2952276
-1.0366184
-0.76696348
-0.5035355
-0.26386458
-0.061622159
0.097109199
0.21443458
0.29661999
0.35098826
0.38470472
0.40382054
0.4131084
0.41619151
0.41574631
0.41371038
0.41139689
0.40957892
0.46111652
0.46644109
0.47418675
0.48380598
0.49408595
0.50301481
0.50762286
0.50364232
0.48505088
0.44358285
0.36873057
0.24830721
0.070920324
-0.16704317
-0.45744721
-0.7799894
-1.1080475
-1.4159133
-1.6896406
-1.9243442
-2.1162322
-2.2671535
-2.3803153
-2.4569474
-2.5000479
-2.5132767
-2.5003283
-2.4642202
-2.40815
-2.334063
-2.2448256
-2.1410553
-2.0246809
-1.8976363
-1.9944588
-2.1355414
-2.2658204
-2.3835617
-2.4861773
-2.5745988
-2.6453753
-2.6964937
-2.7241844
-2.7246024
-2.6928701
-2.6236935
-2.5122308
-2.354952
-2.1460741
-1.8820447
-1.5656347
-1.1978789
-0.79239069
-0.38638327
-0.023025228
0.25950726
0.45100787
0.56684301
0.62679764
0.64683139
0.64250152
0.62547191
0.60246546
0.57826316
0.55587449
0.5371521
0.52299533
0.51355294
0.56489016
0.57899081
0.60040765
0.62963591
0.66639758
0.70939613
0.75606544
0.80188549
0.83864539
0.85379859
0.82773422
0.73749929
0.53164519
0.18061266
-0.29465354
-0.81943444
-1.3275051
-1.7619234
-2.1202015
-2.4105337
-2.6335601
-2.7967812
-2.9050581
-2.962953
-2.9787399
-2.9603374
-2.9146231
-2.8459935
-2.758704
-2.6551853
-2.541382
-2.4067111
-2.5626231
-2.6986757
-2.8347219
-2.9577803
-3.0665637
-3.1579229
-3.2286362
-3.2743465
-3.285192
-3.2502878
-3.1576705
-3.0014089
-2.777872
-2.4751646
-2.0841492
-1.5548251
-0.90892672
-0.20739195
0.4371885
0.91780627
1.1523705
1.1752795
1.1324745
1.0600637
0.97760791
0.8944304
0.81886895
0.75400878
0.70116923
0.66053834
0.63141266
0.61240015
0.65290229
0.67663434
0.71320418
0.76508628
0.83430408
0.92238825
1.0304448
1.1583768
1.3033632
1.4708502
1.6284607
1.7086377
1.5233605
0.80764942
-0.14149514
-1.0631223
-1.6889087
-1.5430669
-1.9970738
-2.2242373
-2.5142336
-2.6397839
-2.8997434
-2.9731081
-3.1951034
-3.2283472
-3.4059541
-3.4050001
-3.5321709
-3.5016691
-3.5826536
-3.5293417
-3.5766109
-3.5057337
-3.5244988
-3.4434703
-3.4454863
-3.3599473
-3.3467054
-3.2574102
-3.2310974
-3.1382794
-3.10322
-3.0090614
-2.9701902
-2.8722879
-2.8765694
-2.8078325
-2.8456401
-3.1026063
-3.2027118
-3.3076096
-3.3546316
-3.4102081
-3.4447441
-3.4815176
-3.538199
-3.587727
-3.6153651
-3.6653513
-3.7344324
-3.7432053
-3.7955862
-3.8589786
-3.8784552
-3.9137277
-3.987513
-3.9912986
-4.0340421
-4.1027163
-4.1068577
-4.1390413
-4.2199298
-4.2093567
-4.2601097
-4.3114194
-4.3178084
-4.2748288
-4.2204435
-4.2729728
-4.290499
-4.3179508
-4.3628523
-4.3823193
-4.4165922
-4.3944504
-4.4358311
-4.4182976
-4.3806873
-4.4153619
-4.3871906
-4.4306134
-4.4731282
-4.414531
-4.4242018
-4.3842463
-4.3745452
-4.3457232
-4.3308774
-4.2952358
-4.2688127
-4.2183108
-4.1912273
-4.119254
-4.0779322
-3.9962837
-3.9544323
-3.8600903
-3.8257108
-3.7309352
-3.4909602
-3.3621793
-2.9249814
-2.3685102
-1.6926366
-0.87559505
0.078979209
1.0986075
2.1463346
2.8671342
3.1480289
3.0589
2.6062334
2.1833341
1.8488032
1.5476141
1.3235014
1.1487263
1.0090246
0.89956234
0.81587555
0.75434406
0.71149653
0.68383579
0.67831252
0.6468068
0.6062693
0.55942233
0.50914633
0.45777273
0.4071311
0.35860257
0.31322738
0.27183761
0.23534163
0.20447733
0.17989194
0.16207303
0.15090134
0.14546357
0.14369032
0.14075153
0.13655933
0.13115966
0.12469673
0.1173079
0.109113
0.10020173
0.090648902
0.080522116
0.069887324
0.058810375
0.047355965
0.035586142
0.023558902
0.011327893
-0.0010575339
-0.013552179
-0.026114404
-0.038705242
-0.051287479
-0.063824605
-0.076279794
-0.088614841
-0.10078914
-0.11275885
-0.12447653
-0.13589079
-0.14694625
-0.15758459
-0.16774586
-0.17737048
-0.18640043
-0.19477864
-0.20244239
-0.20931582
-0.21529562
-0.22026508
-0.2241294
-0.226878
-0.22858423
-0.22937493
-0.22746098
-0.22663302
-0.22494596
-0.22221589
-0.21837438
-0.21341727
-0.20743602
-0.20055397
-0.19287518
-0.18448047
-0.17543108
-0.16578216
-0.15558942
-0.14491104
-0.13380602
-0.1223322
-0.11054472
-0.098495024
-0.086230747
-0.073796134
-0.061232376
-0.048578408
-0.035871916
-0.023150351
-0.010451945
0.0021832699
0.014712539
0.027089521
0.039263739
0.051180291
0.062779749
0.07399882
0.084771892
0.095032655
0.10471584
0.11375415
0.12207383
0.12957512
0.13614179
0.14161765
0.14589024
0.14891728
0.15079683
0.15617235
0.15782407
0.15585105
0.15272694
0.14832604
0.14271221
0.13597955
0.12829801
0.11978382
0.11053733
0.10063696
0.090153363
0.079154432
0.067708571
0.05588301
0.043742543
0.03134859
0.018757416
0.0060200297
-0.0068164317
-0.019708491
-0.032615656
-0.045499557
-0.058322781
-0.07104728
-0.083634018
-0.096042106
-0.10822732
-0.12014186
-0.13173451
-0.14295041
-0.15373189
-0.16402022
-0.17375749
-0.18288792
-0.19135563
-0.19909781
-0.20603226
-0.21205286
-0.21703834
-0.22090308
-0.22364698
-0.22535285
-0.22410544
-0.22237495
-0.21958925
-0.21565567
-0.21057858
-0.20446107
-0.19742125
-0.18955982
-0.1809594
-0.17168312
-0.16178789
-0.15133062
-0.14036991
-0.12896485
-0.11717326
-0.10504997
-0.092646055
-0.080008948
-0.067182496
-0.054207119
-0.04112134
-0.027962856
-0.014768795
-0.0015773384
0.01157087
0.024631965
0.03755797
0.050296307
0.062789248
0.074974789
0.086785326
0.098148961
0.10899233
0.11924176
0.12882257
0.13765317
0.14563185
0.1526294
0.15848497
0.16308173
0.16636
0.16839708
0.18525929
0.18316454
0.17970637
0.17482368
0.1685977
0.16117748
0.15273005
0.14338848
0.13326417
0.12244477
0.11101606
0.099060943
0.086659695
0.073889326
0.060822158
0.047524496
0.034056437
0.020472242
0.0068207738
-0.00685367
-0.020510408
-0.034111639
-0.047620839
-0.061001018
-0.074214232
-0.087220648
-0.099977254
-0.11243724
-0.12454962
-0.13625942
-0.14750842
-0.1582366
-0.1683839
-0.17789174
-0.18670151
-0.19475216
-0.20196743
-0.20824294
-0.21345587
-0.2175046
-0.2203679
-0.2221368
-0.21944317
-0.21761155
-0.21463663
-0.21044628
-0.2050524
-0.19856157
-0.19110108
-0.18277918
-0.17367235
-0.16384146
-0.15334595
-0.14224532
-0.13060055
-0.11847238
-0.10591938
-0.092996504
-0.07975434
-0.066238987
-0.052492481
-0.038553681
-0.024459178
-0.010244289
0.0040552905
0.018401503
0.032753639
0.047066997
0.061291356
0.075370112
0.089239592
0.10282872
0.11605918
0.12884643
0.14110104
0.1527294
0.16363527
0.17371677
0.18285118
0.19088709
0.19763685
0.20292616
0.20665345
0.20887256
0.23891533
0.23649955
0.23239503
0.22655863
0.21911081
0.2102584
0.20021758
0.18916719
0.17724476
0.16456847
0.15124824
0.13739122
0.12309837
0.1084631
0.093571116
0.07849922
0.063315267
0.04807867
0.032841319
0.017648693
0.0025409038
-0.012445313
-0.027275251
-0.041915084
-0.056329802
-0.070482015
-0.084331124
-0.097832093
-0.11093496
-0.1235849
-0.13572298
-0.14728758
-0.15821665
-0.16844954
-0.17792579
-0.18658361
-0.19434603
-0.20110137
-0.20671708
-0.21108153
-0.21417995
-0.21609072
-0.21222372
-0.2102306
-0.20699443
-0.20243124
-0.19656217
-0.18950448
-0.18139633
-0.17235216
-0.16244974
-0.15175235
-0.14032176
-0.12822
-0.11551041
-0.10225556
-0.088514716
-0.074342412
-0.059787753
-0.044894422
-0.029701352
-0.014243763
0.0014457169
0.017335277
0.033392099
0.049580866
0.065861692
0.082188645
0.098508371
0.11475855
0.13086671
0.14674959
0.16231299
0.17745247
0.19205478
0.20599892
0.21915965
0.23139927
0.24255879
0.25242537
0.26074755
0.267283
0.27189791
0.27465461
0.31504668
0.3118624
0.30661708
0.29923476
0.28987224
0.2788108
0.26633766
0.2527098
0.23811296
0.22270484
0.20662868
0.19002081
0.17300816
0.15570678
0.13821994
0.12063765
0.10303699
0.085483214
0.068031037
0.050726503
0.03360853
0.016710742
6.3663424e-05
-0.016303352
-0.032360259
-0.048074472
-0.063409417
-0.078323212
-0.092767912
-0.10668946
-0.12002834
-0.13271961
-0.14470098
-0.15591008
-0.16628097
-0.17574835
-0.18423375
-0.19162022
-0.19776372
-0.20254115
-0.20592059
-0.2080041
-0.20357636
-0.20139996
-0.19787147
-0.19287094
-0.18643973
-0.17870686
-0.1698223
-0.15990057
-0.14902828
-0.13727642
-0.1247086
-0.1113889
-0.097382857
-0.082753993
-0.067561636
-0.051858977
-0.035692245
-0.019101373
-0.0021203767
0.015221127
0.032896217
0.050878648
0.069140791
0.087651282
0.10637256
0.12525836
0.14425313
0.16328951
0.18228695
0.20114779
0.21975923
0.23799297
0.25570791
0.272753
0.28896881
0.304179
0.31816252
0.33061456
0.34117458
0.34950364
0.35545655
0.35916114
0.40611488
0.40182847
0.39500429
0.38556284
0.3736664
0.35970563
0.34409387
0.32717579
0.30920417
0.29038119
0.2708876
0.25089412
0.23055879
0.21002266
0.18940753
0.16881692
0.14833701
0.12803722
0.10797276
0.088189453
0.068722736
0.049601071
0.030848543
0.012487671
-0.0054584949
-0.022963712
-0.039996345
-0.056517861
-0.072485118
-0.087846296
-0.10254266
-0.11651153
-0.12968461
-0.14199644
-0.15338266
-0.16377404
-0.17307264
-0.18116145
-0.18788695
-0.19311428
-0.19679441
-0.19906592
-0.19458723
-0.19222094
-0.18838904
-0.18293648
-0.17591611
-0.16746926
-0.15774687
-0.14688581
-0.13498268
-0.1221105
-0.10833047
-0.093707842
-0.078312313
-0.062208658
-0.045455441
-0.028103075
-0.010194512
0.008234912
0.027158453
0.046553695
0.066402099
0.086685638
0.10738427
0.12847278
0.14991829
0.17167781
0.19369588
0.21590236
0.23820621
0.26049841
0.28265275
0.30451196
0.32590278
0.34663486
0.3665021
0.38527437
0.40265761
0.41825546
0.43160099
0.44224659
0.44996618
0.45486376
0.50404412
0.49851651
0.48987986
0.47800404
0.46314648
0.44582586
0.42658048
0.40586981
0.38403312
0.36132981
0.33798921
0.31422035
0.29020916
0.26612202
0.24209846
0.21825399
0.19468316
0.17145403
0.14862123
0.126225
0.1042947
0.082851287
0.061910564
0.041486166
0.021592569
0.0022484085
-0.01652342
-0.034691302
-0.052213728
-0.069043401
-0.085123851
-0.10038679
-0.11476544
-0.12818767
-0.14059055
-0.15191079
-0.16204802
-0.17084911
-0.17815714
-0.18382222
-0.18780958
-0.19027152
-0.1862687
-0.18371579
-0.17958072
-0.17371547
-0.16613707
-0.15699745
-0.14647556
-0.13472881
-0.12185093
-0.10790276
-0.092961901
-0.077100346
-0.060367948
-0.042847574
-0.024593095
-0.0056494376
0.01394339
0.034157327
0.054972904
0.076376861
0.098359528
0.120912
0.14402321
0.16767659
0.19184691
0.21650021
0.24158089
0.26701722
0.29271513
0.31855535
0.34439141
0.37004696
0.39532001
0.41998353
0.44378434
0.46643048
0.48753599
0.50657976
0.52294801
0.53604418
0.54558456
0.55174104
0.59537445
0.58871356
0.57833639
0.56410618
0.54632551
0.52565352
0.50279256
0.4783202
0.4526707
0.42616933
0.39909183
0.3716822
0.34415513
0.31669514
0.28945337
0.26255412
0.23609248
0.21013928
0.18474534
0.15994458
0.13575835
0.11219866
0.089271823
0.06698259
0.045337464
0.024343351
0.0040155586
-0.015621049
-0.034531233
-0.052668514
-0.069978495
-0.086405523
-0.10183378
-0.11624749
-0.12956004
-0.14169361
-0.152552
-0.1619853
-0.16980396
-0.17585341
-0.1801234
-0.18276643
-0.17992032
-0.17720138
-0.17281986
-0.16661204
-0.15859908
-0.14893555
-0.13779621
-0.12533677
-0.11166668
-0.096870508
-0.081001368
-0.06413599
-0.046350173
-0.027704228
-0.0082474003
0.011969064
0.032911774
0.05455661
0.076893711
0.099918497
0.12362983
0.14802775
0.17311005
0.19886859
0.22528566
0.25233026
0.27995396
0.3080868
0.33663386
0.36547081
0.39444159
0.42335546
0.4519865
0.4800739
0.5073199
0.53336593
0.55774
0.57981213
0.59882152
0.61404974
0.62512144
0.63208674
0.6598251
0.65251709
0.64096586
0.62504104
0.60508432
0.58193537
0.55638988
0.52912345
0.50063535
0.47132464
0.44150567
0.41144686
0.38137884
0.35149499
0.3219552
0.29288677
0.2643838
0.2365151
0.20932779
0.18284986
0.15709594
0.13207088
0.10777355
0.084200544
0.061349657
0.039223214
0.017830785
-0.0028075036
-0.022660933
-0.041686329
-0.059829554
-0.077029024
-0.093209628
-0.10830251
-0.12224964
-0.13494737
-0.14628513
-0.15612306
-0.16427473
-0.17059751
-0.17506221
-0.17784015
-0.1765204
-0.17370841
-0.16919648
-0.16281547
-0.15458575
-0.14463736
-0.13315959
-0.12030686
-0.10618867
-0.090904049
-0.074525733
-0.057121288
-0.038758067
-0.019497803
0.00060589137
0.021510736
0.043186954
0.065615933
0.088789542
0.11270772
0.13737435
0.16279481
0.18897247
0.21590456
0.24357829
0.27196703
0.30102525
0.33068562
0.36085421
0.39140468
0.42217598
0.45297042
0.48355349
0.51365287
0.54294784
0.57103502
0.59737185
0.62123856
0.64177509
0.65819187
0.67017169
0.677723
0.68292132
0.66407238
0.63512836
0.59738032
0.55310477
0.50497282
0.45539605
0.40629087
0.35902825
0.31467921
0.27411204
0.23825639
0.20805105
0.18422594
0.16700094
0.16512955
0.15428741
0.14919669
0.13964067
0.13401414
0.13119873
0.1271311
0.12187386
0.11557538
0.10837955
0.10040011
0.091722819
0.082417537
0.072548735
0.062180304
0.051376185
0.04019901
0.028708639
0.016960858
0.0050070147
-0.007105646
-0.019334004
-0.0316384
-0.04398177
-0.056328704
-0.068644374
-0.080893457
-0.093039044
-0.10504155
-0.1168579
-0.12844095
-0.13973917
-0.1506967
-0.16125416
-0.17135007
-0.18092291
-0.18991282
-0.19826141
-0.20590628
-0.21277061
-0.21875227
-0.22372916
-0.22760481
-0.23036249
-0.23207487
-0.23283768
-0.238073
-0.245264
-0.25455298
-0.26588145
-0.27927027
-0.29472259
-0.3122969
-0.33205948
-0.35407545
-0.37839465
-0.40504591
-0.43402931
-0.46530774
-0.49879701
-0.53435558
-0.5717734
-0.61076494
-0.65095365
-0.69189935
-0.73297127
-1.431439
-1.4314342
-1.4316675
-1.4317124
-1.4317597
-1.4317183
-1.4315783
-1.4312484
-1.4306761
-1.4298
-1.4285594
-1.4268926
-1.4247332
-1.4220117
-1.4186538
-1.4145773
-1.4096936
-1.449223
-1.4558014
-1.461522
-1.4664623
-1.4706951
-1.4742853
-1.4772962
-1.479789
-1.4818216
-1.4834494
-1.4847302
-1.4857158
-1.4864753
-1.4870241
-1.4874283
-1.4875614
-1.4877372
-1.5348538
-1.5344736
-1.5339761
-1.5330529
-1.5318248
-1.530253
-1.5283192
-1.5259696
-1.5231612
-1.5198414
-1.5159668
-1.5114855
-1.5063379
-1.5004679
-1.4938226
-1.4863225
-1.4778751
-1.4942981
-1.5047987
-1.5142556
-1.5228011
-1.530517
-1.5374407
-1.5436122
-1.549075
-1.553847
-1.5579511
-1.5614689
-1.5644402
-1.5669057
-1.5688686
-1.5703591
-1.5712585
-1.5718641
-1.5976376
-1.5967448
-1.5953727
-1.5932323
-1.5904258
-1.5869469
-1.5828097
-1.5779931
-1.572455
-1.5660657
-1.5587952
-1.5506764
-1.5417097
-1.5318798
-1.5211459
-1.5095285
-1.4970577
-1.4836303
-1.4723665
-1.487899
-1.5024346
-1.515989
-1.5285558
-1.5401446
-1.5507642
-1.5604283
-1.56916
-1.5770502
-1.5841832
-1.5904784
-1.5959427
-1.6005842
-1.6043684
-1.6072651
-1.6091773
-1.6103959
-1.6106487
-1.6091663
-1.6068045
-1.6032729
-1.5986479
-1.5929827
-1.5863283
-1.578698
-1.5700885
-1.5605128
-1.5499667
-1.5384307
-1.5258947
-1.5123559
-1.4978153
-1.4822769
-1.4657505
-1.4482428
-1.4115686
-1.4308987
-1.4492911
-1.4667258
-1.4831773
-1.4986193
-1.5130281
-1.5263832
-1.5386703
-1.5498838
-1.5600065
-1.5690314
-1.5769457
-1.583714
-1.5892604
-1.5935069
-1.59638
-1.5981658
-1.5724594
-1.5703505
-1.5669428
-1.5619491
-1.5554531
-1.5475582
-1.5383718
-1.5279559
-1.5163474
-1.503571
-1.4896473
-1.4746034
-1.4584729
-1.4412959
-1.423116
-1.4039782
-1.3839292
-1.3630146
-1.3036128
-1.3257585
-1.3471377
-1.3676858
-1.3873362
-1.4060227
-1.4236799
-1.4402456
-1.4556638
-1.4698859
-1.482869
-1.4945716
-1.5049374
-1.5138785
-1.5212575
-1.5269458
-1.5308497
-1.5332553
-1.4809387
-1.4782561
-1.4738849
-1.4675524
-1.4593604
-1.4494664
-1.4380395
-1.4251972
-1.4110203
-1.3955706
-1.3789083
-1.361102
-1.3422278
-1.3223677
-1.301607
-1.2800306
-1.257725
-1.2347751
-0.96785358
-0.99079104
-1.0142897
-1.0381721
-1.0622708
-1.0864462
-1.1105697
-1.134512
-1.1581583
-1.1814078
-1.204157
-1.2263037
-1.2477445
-1.2683771
-1.2880981
-1.3068062
-1.3244053
-1.3408064
-1.3559279
-1.3696866
-1.3819792
-1.3926598
-1.40153
-1.4084029
-1.4131719
-1.4160844
-1.3396928
-1.3366024
-1.331524
-1.3242326
-1.3148478
-1.3035836
-1.2906661
-1.2762693
-1.2605193
-1.2435199
-1.2253707
-1.2061791
-1.1860591
-1.1651287
-1.1435078
-1.1213089
-1.0986486
-1.0756479
-1.0524283
-1.0290898
-1.0057499
-0.98252364
-0.95955689
-0.9370212
-0.91509271
-0.89395939
-0.87383452
-0.85491766
-0.83737905
-0.82134517
-0.80688086
-0.79398278
-0.78259126
-0.77260913
-0.763922
-0.75642229
-0.75002553
-0.7446846
-0.74039837
-0.73715363
-0.73491989
-0.73354305
-0.69222938
-0.69309701
-0.69450038
-0.69657649
-0.69937499
-0.702953
-0.70735327
-0.71265857
-0.71898701
-0.72647955
-0.73528456
-0.74553508
-0.75732807
-0.77070524
-0.7856419
-0.80205069
-0.81979596
-0.83871527
-0.85863461
-0.87936189
-0.90071964
-0.92253338
-0.94464346
-0.96692009
-0.98923558
-1.0114482
-1.0334564
-1.055146
-1.0764017
-1.097113
-1.1171404
-1.1363487
-1.1546095
-1.1718025
-1.1878104
-1.2025098
-1.2157541
-1.2273449
-1.2370351
-1.2445878
-1.2498479
-1.2530472
-1.1577771
-1.1545464
-1.1492489
-1.1416211
-1.1318616
-1.1202375
-1.1070049
-1.0923806
-1.0765293
-1.0595948
-1.0417115
-1.0230003
-1.0035922
-0.98362038
-0.96319624
-0.94246718
-0.92156235
-0.90059773
-0.87969123
-0.85898954
-0.83862432
-0.81874365
-0.79948913
-0.78100645
-0.76345741
-0.74700904
-0.73182041
-0.71803096
-0.7057448
-0.69501495
-0.68583253
-0.67812554
-0.67177001
-0.66660825
-0.66246895
-0.65918771
-0.65661886
-0.65464673
-0.65318527
-0.65215112
-0.65148731
-0.65107199
-0.6106892
-0.61070181
-0.61071276
-0.61081587
-0.61108487
-0.61162403
-0.61255454
-0.61401563
-0.61617079
-0.61919864
-0.62328341
-0.62859743
-0.63528216
-0.6434314
-0.65308065
-0.66420675
-0.67673593
-0.69055709
-0.70553567
-0.72152498
-0.7383775
-0.75595097
-0.77411005
-0.79272499
-0.81167495
-0.83085686
-0.85014022
-0.86939858
-0.88850231
-0.90730103
-0.92567071
-0.94347921
-0.96058486
-0.97683257
-0.99209434
-1.0062329
-1.0190771
-1.0304022
-1.0399558
-1.0474275
-1.0526238
-1.0557792
-0.94929204
-0.94628835
-0.94134301
-0.93421998
-0.92509535
-0.91432774
-0.90216536
-0.88883782
-0.87451973
-0.85935219
-0.84347273
-0.82703805
-0.81019109
-0.79307199
-0.7758254
-0.75855926
-0.74138781
-0.72442305
-0.70777696
-0.69155862
-0.67588139
-0.66086414
-0.64662944
-0.63330418
-0.62101688
-0.60989201
-0.60003973
-0.59154452
-0.58445326
-0.57876449
-0.57442251
-0.57131897
-0.56930267
-0.56819486
-0.56780635
-0.56795208
-0.56845902
-0.56916822
-0.56993677
-0.57063723
-0.57119876
-0.57153581
-0.53398066
-0.53334693
-0.53230255
-0.53091771
-0.52926463
-0.52748622
-0.52574167
-0.52420152
-0.52304281
-0.52245022
-0.52261178
-0.52370623
-0.52588819
-0.52927457
-0.53393545
-0.53989198
-0.54712047
-0.55556092
-0.56512711
-0.57571678
-0.58722071
-0.59952839
-0.61253148
-0.6261252
-0.64020866
-0.6546837
-0.66944992
-0.68440485
-0.69944209
-0.71445046
-0.72930816
-0.74388857
-0.75806088
-0.77170188
-0.78466745
-0.79680238
-0.80792934
-0.81782306
-0.82624764
-0.83281494
-0.83737642
-0.84015577
-0.7306607
-0.72817148
-0.72408541
-0.71830503
-0.71090452
-0.70223089
-0.69250372
-0.68194084
-0.67070823
-0.65894641
-0.64678434
-0.63434534
-0.62174973
-0.60911205
-0.5965403
-0.58413275
-0.57198244
-0.56017873
-0.54880884
-0.53795937
-0.52771822
-0.51817607
-0.50942571
-0.50156019
-0.49466941
-0.48883421
-0.48411867
-0.48056144
-0.47816698
-0.47689911
-0.4766782
-0.47738365
-0.47886218
-0.48093972
-0.48343431
-0.48616602
-0.48895888
-0.49163666
-0.49402959
-0.49598458
-0.49742991
-0.49830985
-0.46473051
-0.46365039
-0.46187895
-0.45945795
-0.45645725
-0.45303541
-0.44936798
-0.44563218
-0.4419992
-0.43864113
-0.43573044
-0.43343331
-0.43189823
-0.43124581
-0.43156127
-0.4328918
-0.43524837
-0.43861063
-0.44293411
-0.44815748
-0.45420938
-0.46101377
-0.46849355
-0.47657259
-0.48517639
-0.49423158
-0.50366437
-0.51339888
-0.52335576
-0.53345043
-0.54359106
-0.55367916
-0.56361017
-0.57327547
-0.58256055
-0.59133919
-0.59946217
-0.60673575
-0.61297324
-0.61782426
-0.62126613
-0.62339358
-0.52024072
-0.51853156
-0.51577247
-0.51195011
-0.50701529
-0.50128499
-0.4949127
-0.48806431
-0.48086712
-0.47342846
-0.46584534
-0.4582098
-0.45060904
-0.44312451
-0.43583145
-0.42879907
-0.42209218
-0.41577273
-0.40990104
-0.40453736
-0.39974269
-0.39557899
-0.39210828
-0.38939044
-0.38747975
-0.38642012
-0.38623913
-0.38694194
-0.38850553
-0.3908751
-0.39396292
-0.39765104
-0.40179805
-0.40624782
-0.41083907