/*--------------------------------*- C++ -*----------------------------------*\
| =========                 |                                                 |
| \\      /  F ield         | OpenFOAM: The Open Source CFD Toolbox           |
|  \\    /   O peration     | Version:  v2012                                 |
|   \\  /    A nd           | Website:  www.openfoam.com                      |
|    \\/     M anipulation  |                                                 |
\*---------------------------------------------------------------------------*/
FoamFile
{
    version     2.0;
    format      ascii;
    class       surfaceScalarField;
    location    "200";
    object      phi;
}
// * * * * * * * * * * * * * * * * * * * * * * * * * * * * * * * * * * * * * //

dimensions      [0 3 -1 0 0 0 0];
oriented        oriented;


internalField   nonuniform List<scalar> 
96731
(
1.4701707e-05
-0.0062487664
-1.0000291e-05
-4.9195092e-05
-3.5994032e-06
0.0062968595
-0.0059770024
2.3199134e-05
0.0059720668
-3.5617937e-06
7.2020098e-05
1.0920451e-05
-1.7409592e-05
-7.7713718e-05
0.0057031134
4.7875842e-06
1.4036519e-05
0.0059530915
-0.00018453564
1.7443146e-05
0.0062016312
-3.3182192e-05
3.1925877e-06
0.0065531069
-0.0001232627
-6.4487142e-06
0.006674142
-1.3578976e-05
-1.0775036e-05
0.0067701552
-2.1336529e-05
-1.2893602e-05
0.0067152384
4.4772189e-06
-1.5210978e-05
0.0066659088
3.3639528e-07
-1.6850043e-05
0.0066217656
-3.8539718e-06
-1.6846908e-05
0.0066217837
2.1917064e-05
-1.5199854e-05
0.0066659163
1.4110294e-05
-1.2871963e-05
0.0067152535
0.00012372921
-1.0743298e-05
0.0067701874
3.3566988e-05
-6.4057077e-06
0.0066741914
0.00018483211
3.2475798e-06
0.0065531662
-4.5840542e-06
1.7505361e-05
0.0062016955
7.7819028e-05
1.4095039e-05
0.0059531572
-7.1976511e-05
0.0057031862
1.0995497e-05
0.0059770855
-1.7524931e-05
-0.00017159732
0.0062717952
-3.2696019e-05
-2.7779935e-05
0.0066702645
-6.2166967e-05
-0.00011762635
0.0068442043
-7.8656973e-05
-1.3732953e-05
0.006978715
-8.4089589e-05
-1.893244e-05
0.0069513263
-8.4066133e-05
1.0829269e-05
0.0069096455
-8.4843997e-05
1.0054905e-05
0.0068495873
-8.598846e-05
8.6614211e-06
0.0068070075
-8.706964e-05
4.1790409e-06
0.0067800131
-8.7755658e-05
1.6293696e-06
0.0067664095
-8.815228e-05
1.1575945e-07
0.006760153
-8.8343682e-05
-5.5734719e-07
0.0067576459
-8.8430794e-05
-8.0018957e-07
0.006756744
-8.8467275e-05
-8.8559786e-07
0.0067564567
-8.8485047e-05
-8.9801559e-07
0.0067563813
-8.8498365e-05
-9.1307321e-07
0.0067564064
-8.850792e-05
-9.5420809e-07
0.0067564326
-8.8514037e-05
-9.6252734e-07
0.0067564269
-8.8523159e-05
-9.6025963e-07
0.0067564412
-8.8535696e-05
-9.6181554e-07
0.0067564463
-8.8547729e-05
-9.8088405e-07
0.0067564498
-8.8559359e-05
-9.7299311e-07
0.0067564666
-8.8572607e-05
-9.4050371e-07
0.0067564721
-8.8587103e-05
-9.3432427e-07
0.0067565034
-8.8602073e-05
-9.42933e-07
0.0067565124
-8.8616406e-05
-9.3244705e-07
0.0067565217
-8.8631662e-05
-9.7136107e-07
0.0067566012
-8.8645653e-05
-1.1534136e-06
0.0067569104
-8.8652775e-05
-1.7625766e-06
0.0067578343
-8.8639969e-05
-3.2044932e-06
0.0067603599
-8.8577211e-05
-5.6718672e-06
0.0067666329
-8.8410113e-05
-1.0061002e-05
0.006780253
-8.8037588e-05
-1.1349791e-05
0.0068072636
-8.7375345e-05
-1.200669e-05
0.0068498583
-8.6317788e-05
1.7884545e-05
0.0069099307
-8.5196126e-05
1.2824425e-05
0.0069516257
-8.4439869e-05
0.00011686001
0.0069790318
-8.4480649e-05
2.7162761e-05
0.0068445251
-7.9059775e-05
0.00017113119
0.0066705866
-6.2570398e-05
-1.1307865e-05
0.0062721006
-3.3090321e-05
7.1816335e-05
0.0059773808
-1.7906831e-05
-7.8186758e-05
0.0057034455
3.8648436e-06
0.0059533653
1.4258426e-05
-0.00018592021
0.0062019104
1.7679143e-05
-3.5042713e-05
0.0065533789
3.4384573e-06
-0.00012559361
0.0066743869
-6.2000249e-06
-1.633319e-05
0.0067703314
-1.0524551e-05
-2.4454425e-05
0.0067153271
-1.2638362e-05
1.0693978e-06
0.0066658923
-1.495212e-05
-3.2820412e-06
0.0066216386
-1.6581037e-05
-7.4764085e-06
0.0066214808
-1.6566079e-05
1.8387588e-05
0.0066654767
-1.4907219e-05
1.0787619e-05
0.0067146524
-1.2570799e-05
0.0001207249
0.0067694206
-1.0434432e-05
3.1013603e-05
0.0066732611
-6.1042531e-06
0.00018280244
0.0065521303
3.5385308e-06
-5.989249e-06
0.0062005408
1.7798496e-05
7.708303e-05
0.0059519234
1.4421991e-05
-7.1594967e-05
0.0057018413
1.1703222e-05
0.005975877
-1.6815695e-05
-0.00017055333
0.0062705953
-3.1999924e-05
-2.6422392e-05
0.0066690688
-6.1461019e-05
-0.00011594219
0.0068429778
-7.7934874e-05
-1.1741154e-05
0.0069775061
-8.3363578e-05
-1.6653326e-05
0.006950165
-8.3349219e-05
1.3352293e-05
0.006908563
-8.4144264e-05
1.2777036e-05
0.0068485899
-8.5311761e-05
1.1537467e-05
0.0068060902
-8.6418175e-05
7.1669903e-06
0.0067791672
-8.7130044e-05
4.6928654e-06
0.0067656277
-8.7551377e-05
3.2262384e-06
0.0067594279
-8.7766106e-05
2.5771379e-06
0.0067569702
-8.7875628e-05
2.3386896e-06
0.0067561139
-8.7934763e-05
2.270973e-06
0.0067558524
-8.7971234e-05
2.2083142e-06
0.0067558389
-8.7996085e-05
2.1556022e-06
0.0067558745
-8.8019542e-05
2.0947937e-06
0.0067559074
-8.8042254e-05
2.0291382e-06
0.0067559344
-8.8062224e-05
1.9664677e-06
0.0067559568
-8.8081477e-05
1.9176008e-06
0.0067559707
-8.8101491e-05
1.8750315e-06
0.0067559903
-8.811924e-05
1.8212772e-06
0.006756017
-8.8134018e-05
1.7563577e-06
0.0067560349
-8.8148501e-05
1.6921099e-06
0.0067560479
-8.8163433e-05
1.6328838e-06
0.0067560652
-8.81783e-05
1.5685383e-06
0.0067560873
-8.8191034e-05
1.4595058e-06
0.0067561662
-8.8201221e-05
1.1874413e-06
0.0067564642
-8.8204628e-05
4.8803168e-07
0.0067573858
-8.8186943e-05
-1.0552788e-06
0.0067599175
-8.8117643e-05
-3.6352311e-06
0.0067661955
-8.7942734e-05
-8.1476949e-06
0.0067798214
-8.756055e-05
-9.5745334e-06
0.0068068394
-8.6886571e-05
-1.0392149e-05
0.0068494426
-8.5815325e-05
1.9313375e-05
0.006909523
-8.4680199e-05
1.4046213e-05
0.0069512232
-8.3911728e-05
0.0001178657
0.0069786296
-8.3945024e-05
2.7946968e-05
0.0068441343
-7.8520925e-05
0.00017170862
0.0066701961
-6.2039665e-05
0.0062717185
-3.2575176e-05
-2.5228786e-05
0.0063613164
-4.117003e-05
-1.6043376e-05
0.0067314505
-7.0439798e-05
-5.0378464e-05
0.0069656383
-8.7168979e-05
-3.051657e-05
0.0070511989
-9.2431113e-05
-2.5890961e-05
0.0070394853
-9.288774e-05
-1.2130326e-05
0.0069880132
-9.2250922e-05
-6.2415528e-06
0.0069357458
-9.2192011e-05
-3.513654e-06
0.0068962966
-9.2185146e-05
-3.3977934e-06
0.0068720541
-9.2348561e-05
-3.8320949e-06
0.0068591206
-9.2490748e-05
-4.3436544e-06
0.0068530162
-9.2587144e-05
-4.729984e-06
0.0068503964
-9.2624257e-05
-5.0008845e-06
0.0068493604
-9.2625239e-05
-5.2073858e-06
0.0068489761
-9.2603361e-05
-5.3888757e-06
0.0068488353
-9.2566459e-05
-5.5711203e-06
0.0068487716
-9.2524157e-05
-5.7669504e-06
0.0068487244
-9.2480692e-05
-5.9675309e-06
0.0068486686
-9.2433116e-05
-6.1565014e-06
0.0068485885
-9.238257e-05
-6.2265096e-06
0.0068483899
-9.2329593e-05
-6.4058578e-06
0.0068484214
-9.2271361e-05
-6.703721e-06
0.0068484634
-9.220873e-05
-6.8965469e-06
0.0068482703
-9.2143077e-05
-7.0768523e-06
0.0068481599
-9.20722e-05
-7.2417295e-06
0.0068480359
-9.1996573e-05
-7.3885854e-06
0.0068479027
-9.1916949e-05
-7.4287561e-06
0.00684772
-9.1827448e-05
-7.5777454e-06
0.0068479839
-9.1721013e-05
-7.7896385e-06
0.0068487712
-9.1589116e-05
-8.0555079e-06
0.0068511117
-9.1417885e-05
-8.1529589e-06
0.0068569109
-9.1185744e-05
-7.5888237e-06
0.0068695102
-9.0907108e-05
-4.2786463e-06
0.0068933868
-9.0606845e-05
2.3493579e-06
0.0069324403
-9.0478355e-05
1.7023325e-05
0.0069842937
-9.0404734e-05
2.2735916e-05
0.0070353688
-9.0916388e-05
4.3833404e-05
0.0070467655
-9.0356882e-05
1.0818421e-05
0.0069610294
-8.5036567e-05
2.134491e-05
0.006726861
-6.8318718e-05
-2.5799323e-05
0.0063568451
-3.9105518e-05
-4.8999781e-06
0.0059676697
-1.2692129e-05
0.0056985914
-1.6500993e-06
0.005678245
1.2225981e-05
8.1204356e-06
0.0056742246
2.3695232e-06
1.6508659e-06
0.0056692792
1.0428155e-06
3.9026318e-06
0.0056606659
1.6438222e-06
6.9694448e-06
0.0056542182
-8.0760273e-07
7.2553351e-06
0.0056484164
-2.1576278e-06
7.9593831e-06
0.0056409961
-1.759206e-06
9.1795488e-06
0.0056064511
1.3249636e-05
2.1295331e-05
0.0054552565
7.6121346e-05
7.5073259e-05
0.0048631777
0.0003030478
0.00028903107
0.0028225375
0.0010405535
0.0010000866
0.0011970459
0.00051984889
0.0011056427
0.00066203473
0.00040204713
0.00013296407
0.00068932613
2.9199131e-05
-5.6490532e-05
0.00066213303
-8.1350414e-06
3.5328134e-05
0.00030699666
0.00019879957
0.0001563368
0.00010077357
0.0001018492
0.00010437389
6.7551663e-05
5.7289536e-05
-2.406763e-05
6.2784972e-05
9.7534639e-06
-4.9867731e-06
0.00012298582
-1.1649237e-05
-4.855161e-05
0.00013753861
2.0575733e-06
-1.6610359e-05
0.00019857091
-2.484452e-06
-5.8547855e-05
0.00017359489
-4.4761133e-06
2.9452136e-05
0.00016677087
4.5658301e-06
2.2581913e-06
0.00024746415
-1.2432156e-06
-7.9450065e-05
0.00023544851
-1.7536703e-07
1.2191006e-05
0.00020228494
-8.8485709e-06
4.201214e-05
0.00018781952
5.1331703e-06
9.3322488e-06
0.00026824543
-2.4487158e-06
-7.7977189e-05
0.00024473697
-9.570106e-07
2.4465463e-05
0.0002100616
2.6687852e-07
3.4408497e-05
0.00016545476
8.2630792e-06
3.6343765e-05
0.000131443
2.884072e-05
5.1710349e-06
0.0001927102
4.6052323e-06
-6.5872431e-05
0.00032190697
-8.5077217e-05
-4.411955e-05
0.00034076418
-7.8905798e-05
6.0048583e-05
0.00015477146
0.00013117547
5.4817258e-05
0.00012586143
1.8438779e-05
1.0471243e-05
0.00010478514
4.0855298e-06
1.6990768e-05
9.2389531e-05
-4.9759099e-06
1.7371516e-05
0.00018960503
-6.7474661e-05
-2.9740835e-05
0.00053750382
-6.6428751e-05
-0.00028147004
0.00045057884
-1.8111501e-05
0.00010503648
0.00019457813
3.7854676e-05
0.00021814603
9.6914061e-05
5.7464536e-05
4.0199531e-05
0.00010296323
6.3580962e-06
-1.2407261e-05
0.00019080279
-1.3163278e-05
-7.4676281e-05
0.00024563366
-3.8216495e-05
-1.6614381e-05
0.00027271821
-2.5316464e-05
-1.7680834e-06
0.00028454798
-1.2013068e-05
1.8329976e-07
0.00028773742
-6.2746012e-06
3.0851533e-06
0.00028742132
-3.6395464e-06
3.9556534e-06
0.00028494895
-2.1847768e-06
4.6571404e-06
0.00028170373
-1.4250057e-06
4.6702271e-06
0.00027822786
-1.1840632e-06
4.6599324e-06
0.00027434468
-8.768954e-07
4.7600791e-06
0.00027037477
-8.2814453e-07
4.7980515e-06
0.00026540247
-6.0496298e-07
5.5772613e-06
0.00025907833
-4.2755773e-07
6.7517009e-06
0.00024954463
1.4842919e-07
9.3852725e-06
0.00023369806
1.7765734e-06
1.4069997e-05
0.00020659943
5.5363643e-06
2.1562265e-05
0.00016976183
1.0449444e-05
2.6388155e-05
0.00013792182
3.0130214e-05
1.7098008e-06
0.00020584282
5.2667188e-06
-7.3187723e-05
0.00035770432
-7.4151675e-05
-7.7709827e-05
0.0004274731
-9.2766723e-06
-6.0492101e-05
0.00043442998
1.2807087e-05
-1.9763967e-05
0.00038979336
5.5307068e-05
-1.0670448e-05
0.00018424155
4.9465157e-05
0.00015608665
0.00017106768
-1.9947481e-06
1.5168611e-05
0.00018333986
-2.3721786e-07
-1.2034955e-05
0.00018279101
6.5650194e-07
-1.0765325e-07
0.00016837043
1.641694e-06
1.2778888e-05
0.00018623478
-1.7078723e-06
-1.6156483e-05
0.00038796197
-4.7657415e-05
-0.00015406977
0.00039400029
-2.8059329e-05
2.202101e-05
0.00034401386
-5.038732e-06
5.5025159e-05
0.00019925282
6.9312194e-05
7.544885e-05
0.00013421065
7.0892372e-05
-5.8502029e-06
0.00016636028
-1.8153599e-06
-3.0334272e-05
0.00020316181
-2.5456936e-05
-1.13446e-05
0.00022997668
-2.0421708e-05
-6.3931529e-06
0.00024557329
-1.2858711e-05
-2.7379008e-06
0.00025437481
-7.7866138e-06
-1.0149095e-06
0.00025978678
-4.8664655e-06
-5.4550677e-07
0.00026392078
-3.7193621e-06
-4.1463408e-07
0.00026700807
-2.7404064e-06
-3.4688634e-07
0.00026962302
-2.2523609e-06
-3.6259028e-07
0.00027253961
-2.4886429e-06
-4.2794779e-07
0.00027522908
-2.3386693e-06
-3.5079514e-07
0.00027780255
-2.2088826e-06
-3.645941e-07
0.00028084644
-2.620359e-06
-4.2352484e-07
0.00028374214
-2.5630798e-06
-3.3262015e-07
0.00028634838
-2.3197863e-06
-2.8645258e-07
0.00028920788
-2.5051051e-06
-3.5439675e-07
0.00029146499
-2.2140406e-06
-4.3065973e-08
0.00029242379
-1.4185085e-06
4.5970563e-07
0.00029184081
-5.6491382e-07
1.14789e-06
0.00028811073
8.319098e-07
2.898177e-06
0.0002787397
2.757436e-06
6.6135915e-06
0.00026215387
3.0507693e-06
1.3535058e-05
0.00025185882
-8.7957436e-06
1.9090795e-05
0.0002928122
-1.651987e-05
-2.4433508e-05
0.00066488959
-0.00012314736
-0.00024893004
0.001217294
-0.00028889369
-0.00026351068
-0.00010570052
-5.8905028e-05
-0.0061787306
2.3483921e-05
-4.9165183e-05
9.2928338e-06
-0.0061635512
2.2172011e-05
-4.6306943e-05
8.9555172e-06
-0.0061497766
2.0526873e-05
-4.2784442e-05
8.4829975e-06
-0.006137483
1.8711423e-05
-3.8928926e-05
7.9239097e-06
-0.006126647
1.6845244e-05
-3.4992979e-05
7.31171e-06
-0.0061171782
1.5013685e-05
-3.1154045e-05
6.6715739e-06
-0.0061089594
1.3280429e-05
-2.7531334e-05
6.0320952e-06
-0.0061018629
1.1683916e-05
-2.4195166e-05
5.4147254e-06
-0.0060957463
1.0236063e-05
-2.1177015e-05
4.8244205e-06
-0.0060904606
8.9378417e-06
-1.8484374e-05
4.2608348e-06
-0.0060858559
7.7932334e-06
-1.6116885e-05
3.7189554e-06
-0.0060817632
6.8096179e-06
-1.4078615e-05
3.1762427e-06
-0.0060779663
6.0008579e-06
-1.239298e-05
2.5952054e-06
-0.0060742009
5.4179054e-06
-1.1105497e-05
1.9222155e-06
-0.0060702031
5.0544795e-06
-1.02568e-05
1.2045339e-06
-0.0060659153
4.9295485e-06
-9.8241754e-06
6.0682455e-07
-0.0060615856
4.374404e-06
-9.7455738e-06
1.0414827e-06
-0.0060580303
4.582189e-06
-9.9710026e-06
1.8335467e-06
-0.0060532163
3.0146399e-06
-9.5557017e-06
1.7270523e-06
-0.0060373892
3.2846386e-06
-8.8100718e-06
-1.0301659e-05
-0.006006527
1.1352258e-06
-2.3673063e-06
-2.9630123e-05
1.1641024e-05
-9.8991442e-06
-3.6202109e-05
2.3499957e-06
0.0064411114
-7.0503998e-05
-1.1867136e-05
0.006841693
-9.6025384e-05
-2.3886254e-05
0.0070860621
-0.00010840467
-2.7964043e-05
0.0071668847
-0.00011160804
-2.4595904e-05
0.0071475052
-0.00011138799
-1.8934078e-05
0.0070929154
-0.00011056394
-1.3546557e-05
0.0070403211
-0.00010996287
-1.0289855e-05
0.0070025974
-0.00010955745
-8.8466245e-06
0.0069799526
-0.00010934176
-8.5122111e-06
0.0069680226
-0.0001092364
-8.677453e-06
0.0069623583
-0.00010917687
-9.0231491e-06
0.0069598666
-0.00010912449
-9.4046401e-06
0.0069588088
-0.00010906693
-9.6632778e-06
0.0069582357
-0.00010900099
-1.0017655e-05
0.0069581158
-0.00010892615
-1.0368706e-05
0.0069579674
-0.00010884471
-1.0725132e-05
0.0069578389
-0.00010875804
-1.1086043e-05
0.0069576949
-0.00010866538
-1.1446499e-05
0.0069575148
-0.00010856585
-1.1909983e-05
0.0069573133
-0.00010845995
-1.2263842e-05
0.006957124
-0.00010834878
-1.2511635e-05
0.0069569402
-0.00010822898
-1.2866269e-05
0.0069567228
-0.00010809792
-1.321025e-05
0.0069564613
-0.00010795748
-1.3530583e-05
0.006956164
-0.00010780775
-1.3819664e-05
0.0069558383
-0.00010764654
-1.4168671e-05
0.0069555421
-0.0001074731
-1.4334038e-05
0.0069554365
-0.00010728714
-1.4353137e-05
0.0069558771
-0.00010708682
-1.4056365e-05
0.0069576898
-0.00010687487
-1.3085969e-05
0.0069626068
-0.00010666629
-1.0790381e-05
0.0069737161
-0.00010650156
-6.4188153e-06
0.0069954619
-0.00010644664
3.9244098e-07
0.0070322114
-0.00010658234
7.8218668e-06
0.0070837815
-0.00010691723
1.3302213e-05
0.0071373749
-0.0001074864
1.1622514e-05
0.0071559398
-0.00010749461
2.1604344e-06
0.0070746728
-0.00010418134
-9.4913685e-06
0.0068303697
-9.1856943e-05
-1.6334236e-05
0.0064302126
-6.6524656e-05
0.0059959989
-3.2437463e-05
0.0060175072
4.6448703e-06
-2.3783629e-05
0.0060205911
2.239433e-07
-2.2649791e-06
0.0060100914
3.3350333e-07
1.1810001e-05
0.0059967982
-1.1049148e-06
1.359046e-05
0.0059836506
-3.4800023e-06
1.4470038e-05
0.0059674758
-3.402127e-06
1.7817674e-05
0.0059349221
1.332368e-05
3.2479689e-05
0.005844381
8.1864186e-05
8.4798281e-05
0.0055846505
0.00026950451
0.00029327381
0.0022849591
0.002442819
0.00046936272
0.0014280631
0.00014367397
0.0013129546
0.0013481795
0.0001804391
0.001058462
0.0013475919
0.00022637948
0.00098895742
-0.0023297745
0.0012948767
0.0011389704
0.00067992562
-0.0027076276
0.0011151111
0.00014056379
-0.00010952272
0.00097018722
0.00013774208
1.7703036e-05
0.00085862306
-5.5836683e-05
-3.8114765e-06
0.0011237582
-0.00011328627
2.5693838e-05
0.0011536876
-0.00012473091
0.00025992899
0.0011197181
-4.0998684e-05
0.00063436218
2.7613938e-05
0.00069698536
-3.3424048e-05
0.00080226379
-0.00014663274
3.3219268e-05
0.00024787073
9.6471919e-05
0.00034583964
0.00031088108
0.00017480812
0.00010435568
7.055612e-05
6.2335222e-06
0.00012464898
5.9148364e-05
-1.5222745e-05
5.6511134e-05
7.0119243e-06
6.2377619e-05
3.8869787e-06
0.00014341459
-3.0922882e-05
-6.1763328e-05
0.00014530342
2.5048702e-06
-2.3361261e-06
0.00022049616
2.6329726e-06
-8.0310163e-05
0.00020054656
-1.2931609e-05
2.840509e-05
0.00017589783
3.6789591e-06
2.5535609e-05
0.00026703144
6.8528172e-06
-9.9229643e-05
0.00027468062
-2.8972513e-05
2.1147966e-05
0.00022447134
1.9174513e-06
3.9443257e-05
0.0001905206
8.4626183e-06
3.0621287e-05
0.00028443313
5.8698164e-06
-0.00010223106
0.00029191574
-3.2565384e-05
2.4125765e-05
0.00025690507
-4.0480324e-06
3.932558e-05
0.00019852075
3.3849091e-05
3.2798311e-05
0.00015404781
4.6017422e-05
2.7296241e-05
0.0001939087
-3.5255664e-05
0.0001559729
-4.7141411e-05
0.0001524516
-6.3523864e-05
-1.1860635e-05
-0.00014181997
5.20972e-05
0.00041886842
-0.00017669405
-0.00027102171
1.3432261e-05
5.2245621e-05
-0.00030464897
1.7568431e-05
6.2076251e-05
-0.00032984231
1.3582473e-05
4.5459955e-05
-0.00037726617
1.2631003e-05
3.074483e-05
-0.00035315878
-0.00012329086
6.6618081e-05
-0.00026486613
0.00013235366
-0.0002147765
-0.00031518194
-1.9034005e-05
7.7812431e-05
-0.00036104565
-1.5486308e-07
4.7936027e-05
-0.00034257821
-0.00011953531
7.2095356e-05
-0.00025165523
0.00012938164
-0.00021345181
-0.00029911004
-7.077773e-06
5.8211538e-05
-0.00028801859
-0.00011032129
8.6298234e-05
-0.00020866494
0.0001053349
-0.00018205558
-0.00021894601
-1.2216685e-05
2.5002629e-05
5.7446488e-05
-0.0001826664
-8.8544974e-05
9.564489e-05
0.00024194001
-0.00019159344
-3.7747543e-05
3.5414127e-05
-5.2844319e-05
-3.336724e-05
9.4198491e-06
-4.91968e-05
2.0294084e-06
-0.00010039998
1.7795213e-05
7.1606349e-05
2.0418263e-05
-0.00010673915
2.2374956e-05
-2.6222791e-05
1.0187012e-05
5.218804e-05
-0.00030029163
-2.7484773e-05
0.00016884921
0.000194974
8.2470388e-05
-0.00039805382
0.00017279747
-1.1592191e-05
8.5246511e-05
1.5579527e-06
0.00011976173
8.2772985e-05
1.0480169e-05
4.0073508e-05
2.1724499e-05
3.8770192e-05
2.0347322e-05
1.5939382e-05
3.7868044e-06
-5.0540469e-05
3.5805748e-05
3.5859351e-05
-7.7730795e-07
0.00012405389
-6.757388e-05
4.4454482e-05
8.7324842e-05
2.8080312e-05
8.6738451e-05
7.8405467e-05
-2.5044546e-05
0.00024611052
7.0351252e-05
8.228537e-05
0.00012344974
5.1297237e-06
3.5245689e-05
0.00010375352
-2.6454544e-05
0.000330055
3.735971e-05
-0.00014021145
0.00027769912
-1.2023736e-05
5.7301848e-05
8.7268293e-05
0.00014479547
-9.7382986e-06
5.5373648e-05
0.00012635855
-2.9243922e-05
0.00039480183
3.9409557e-05
-0.00016305736
0.00036333668
-1.0770952e-05
4.208124e-05
0.0002835241
-2.0624879e-05
8.1403449e-05
9.1320168e-05
0.00014931977
-9.7871725e-06
5.267134e-05
0.00013455738
-3.41744e-05
0.00040987976
4.1282235e-05
-0.00016728485
0.00040362318
-1.8145962e-06
2.0702184e-05
0.00036724661
-6.9580882e-07
5.0654845e-05
0.00031852303
5.7090935e-06
6.0582922e-05
0.00025889103
-1.6215496e-06
7.4685807e-05
0.00040065237
-0.00025185621
0.00016219207
-7.1623661e-06
0.00045327273
7.1929773e-05
-0.00011738776
2.8742304e-05
0.00035085984
3.2103906e-05
0.00015268136
7.2364146e-06
0.00016989139
1.2287452e-06
0.00013794487
1.2855715e-05
2.3176339e-05
0.00012252578
1.044318e-05
5.9813119e-05
-4.7620043e-06
-0.00029415513
3.0723849e-05
0.00029372921
2.9515185e-05
1.6641817e-05
5.2918615e-05
0.00039398683
4.0584767e-05
3.5342951e-05
0.00033444177
2.8042281e-05
6.2226626e-05
-5.9797974e-05
0.00048654656
0.00030913144
-0.00040143826
0.0005035147
-0.00033601222
0.00044059305
0.00039974311
7.0416026e-05
-0.00015631596
0.00021751353
-7.1145353e-05
0.00024731752
0.00030227556
-0.00027147589
0.00025895247
0.00034112118
-0.00031067566
6.0891522e-05
4.8724274e-05
-0.00010414273
-5.3717454e-05
-0.00043933012
-1.925597e-05
0.00030717205
4.7271319e-05
-0.00046696033
-3.8319031e-06
5.9504392e-05
-0.00045917508
1.2940368e-05
1.9859147e-05
-0.00015970115
5.2799765e-05
-0.00019033816
-0.00016193553
-0.00030275348
-5.3282973e-07
5.3842038e-05
8.9743126e-05
-0.00037343188
-5.5565305e-06
7.4613374e-05
-0.00042181353
-2.5090247e-06
5.6599769e-05
-0.00046960169
1.5219022e-05
3.1873332e-05
-0.0004129329
-0.00013286725
7.4383865e-05
-0.00027294296
0.00015144602
-0.00025015372
-0.0003402253
-2.1249362e-05
7.8744525e-05
-0.00042173756
1.933355e-06
5.8954023e-05
-0.00039526875
-0.00013009999
9.2860229e-05
-0.00026374685
0.00015018723
-0.00024229957
-0.00034734176
1.5169596e-06
7.2339651e-05
-0.00034047041
-0.00012055228
0.00010165719
-0.00021893223
0.00013635748
-0.00022053594
-0.00025631423
2.9035215e-06
3.9608199e-05
5.0992691e-05
-0.00014157661
-0.00014435248
9.8493017e-05
0.00026300413
-0.00016615197
-3.2042928e-05
-4.3166207e-05
-3.3283999e-05
-1.7364637e-05
1.2610903e-06
9.0957789e-05
-0.00011582027
7.4978482e-06
5.3315363e-05
-5.5237807e-06
-0.00024314075
9.048774e-05
0.00015501106
5.0957316e-05
-0.00095236395
0.00010784033
0.00031788892
0.00039073116
-2.1990696e-05
-0.0011506948
-4.4854862e-05
1.2956034e-05
0.00023022972
4.796793e-05
-3.2507484e-05
-1.2467663e-05
0.0010041913
1.6862022e-05
0.00035746286
0.00039630049
0.00016518995
-2.2801906e-05
-6.7887425e-05
-0.0012727206
0.00042755349
0.00039735647
0.00033447235
-1.913509e-05
0.00015595123
0.00033891587
6.9475519e-06
-8.6379068e-05
-1.4018039e-05
0.00015971859
0.00031883474
-9.0669937e-05
-0.00039300044
-1.23188e-05
0.00015437371
-0.00010251579
0.00031248087
-0.00036603803
1.8089843e-06
-0.00015003328
3.8321877e-05
0.00016678696
-6.9203341e-05
-7.7923117e-05
0.00011326259
1.0918853e-05
-4.4449344e-05
-0.0003783849
0.00019524266
-4.4814154e-05
-0.00081352967
0.0001135337
0.00026555617
0.0002123917
-0.0007414222
-4.2076588e-05
5.2972485e-06
-0.00063980246
-0.00011165237
-4.64579e-05
-0.00067380417
0.00016696579
9.9535278e-05
0.00033230325
-0.0021344513
0.0009041422
0.00022029135
0.001109553
-0.0055489682
0.0003871697
0.0025433428
0.001484091
-0.0057742431
0.00023664528
0.00027766076
-0.0058689893
9.9412053e-05
7.0407321e-05
-0.0059040463
4.0002632e-05
1.6349722e-05
-0.0059212103
2.3364558e-05
2.9790166e-06
-0.0059345161
1.8996083e-05
2.2691447e-06
-0.0059475278
1.589162e-05
4.3753557e-06
-0.005958193
1.1855736e-05
5.7789329e-06
-0.0059566409
6.0918693e-06
-3.7413011e-06
-0.0059407005
3.6769973e-06
-1.796658e-05
-0.0059238609
8.2632476e-06
-1.6982409e-05
1.5086312e-05
1.1326072e-05
-3.7103845e-05
0.0062496745
3.0564012e-06
-2.3175207e-05
0.0065510845
-1.2882863e-05
-5.2899156e-05
0.0067260723
-2.3087226e-05
-2.6226515e-05
0.0067699181
-2.7170141e-05
-1.7340254e-05
0.0067345053
-2.8739154e-05
-3.298548e-08
0.0066775857
-2.9416277e-05
1.061482e-05
0.0066408656
-3.0032614e-05
2.0847303e-05
0.0066414936
-3.0087403e-05
3.7180834e-05
0.0066791408
-2.9582065e-05
4.4469255e-05
0.0067370548
-2.9016124e-05
6.8937846e-05
0.0067734292
-2.756641e-05
3.6478576e-05
0.006730421
-2.3574841e-05
4.7291833e-05
0.0065559993
-1.3433709e-05
-8.1909541e-06
0.0062549329
2.4602193e-06
5.1645111e-06
0.0059293404
1.0669395e-05
0.0057044021
4.2079063e-06
0.0056915433
1.776527e-06
1.1082279e-05
0.0056990568
-8.2164903e-06
7.0290929e-07
0.0057093655
-9.5750945e-06
-7.3354238e-07
0.0057190935
-1.0031187e-05
3.0314224e-07
0.0057317893
-1.2184103e-05
-5.116786e-07
0.0057442894
-1.2960909e-05
4.6080338e-07
0.0057579731
-1.4349424e-05
6.6567843e-07
0.0057721333
-1.5478268e-05
1.3181334e-06
0.00578725
-1.687601e-05
1.7592573e-06
0.0058036939
-1.8466589e-05
2.0227175e-06
0.0058217278
-2.0141364e-05
2.1074249e-06
0.0058413946
-2.1740305e-05
2.0735583e-06
0.0058625857
-2.3135825e-05
1.9447267e-06
0.0058850643
-2.4226849e-05
1.7482342e-06
0.0059084979
-2.4925663e-05
1.4920321e-06
0.0059324871
-2.5158254e-05
1.1690984e-06
0.0059565801
-2.4892935e-05
7.999743e-07
0.0059802853
-2.4106944e-05
4.0171637e-07
0.0060031137
-2.2797249e-05
-3.1161961e-08
0.0060246009
-2.0988382e-05
-4.9882058e-07
0.0060443266
-1.8749664e-05
-9.7603552e-07
0.0060619339
-1.6168854e-05
-1.4384676e-06
0.0060771318
-1.3316279e-05
-1.8815872e-06
0.0060897008
-1.0262732e-05
-2.3062371e-06
0.0060994813
-7.0900291e-06
-2.6904912e-06
0.0061063885
-3.8820416e-06
-3.0252137e-06
0.006110355
-6.467849e-07
-3.3196934e-06
0.006111438
2.4993199e-06
-3.5822836e-06
0.0061099085
5.2735214e-06
-3.7440802e-06
0.006105793
8.0082583e-06
-3.8927231e-06
0.0060992104
1.0583783e-05
-4.0012225e-06
0.0060903388
1.2954704e-05
-4.083076e-06
0.0060793914
1.5081231e-05
-4.1338132e-06
1.6949179e-05
-4.1540753e-06
-0.0063841111
3.5087811e-05
-4.4481194e-06
-0.0063958477
3.1250719e-05
-4.4329551e-06
-0.0064053844
2.6882077e-05
-4.3906641e-06
-0.0064125012
2.2014342e-05
-4.3137028e-06
-0.0064169882
1.6699704e-05
-4.2044297e-06
-0.0064186723
1.1008084e-05
-4.0505393e-06
-0.0064174473
5.1149491e-06
-3.8405679e-06
-0.0064132873
-1.2241595e-06
-3.5826457e-06
-0.0064060398
-7.8431912e-06
-3.2863949e-06
-0.006395695
-1.4494858e-05
-2.9398901e-06
-0.006382357
-2.107151e-05
-2.5292135e-06
-0.0063661915
-2.7411415e-05
-2.0704262e-06
-0.0063474068
-3.3360114e-05
-1.5934162e-06
-0.0063263158
-3.8743406e-05
-1.0972406e-06
-0.0063033292
-4.339844e-05
-5.7657788e-07
-0.006278905
-4.7159679e-05
-6.1782212e-08
-0.0062535279
-4.9904915e-05
4.208938e-07
-0.0062277304
-5.156232e-05
8.7190315e-07
-0.0062020671
-5.2106187e-05
1.2846593e-06
-0.006177044
-5.159148e-05
1.6427136e-06
-0.0061530844
-5.0108538e-05
1.9220069e-06
-0.0061305362
-4.7807375e-05
2.1233722e-06
-0.0061096563
-4.486757e-05
2.2473427e-06
-0.006090549
-4.1508153e-05
2.2595522e-06
-0.0060731736
-3.7981499e-05
2.1394626e-06
-0.0060573527
-3.4562712e-05
1.8658015e-06
-0.0060428455
-3.150055e-05
1.5150879e-06
-0.0060295498
-2.8948763e-05
1.3036776e-06
-0.00601773
-2.6908809e-05
2.1281116e-06
-0.0060080096
-2.524931e-05
3.3448176e-06
-0.0059988951
-2.3137848e-05
3.9921257e-06
-0.0059813006
-2.1468531e-05
-5.7010973e-06
-0.0059537449
-1.6104325e-05
-1.9667854e-05
-4.4449672e-06
-1.8182969e-05
0.0063099853
-1.9480094e-05
-4.0017265e-05
0.0063560301
-2.6740268e-05
-3.5408833e-05
0.006375592
-3.2533858e-05
-8.4965708e-06
0.0063825031
-3.6316687e-05
6.2677547e-06
0.0063898834
-3.9191007e-05
6.5613458e-06
0.0064009487
-4.1630173e-05
3.6560868e-06
0.0064144113
-4.4602321e-05
2.1909932e-06
0.006429522
-4.8615628e-05
2.004346e-06
0.0064462581
-5.3560838e-05
2.26204e-06
0.0064648171
-5.9079865e-05
2.5393863e-06
0.0064853706
-6.4758258e-05
2.6965717e-06
0.006507961
-7.0170655e-05
2.7126641e-06
0.0065324772
-7.4919238e-05
2.5956683e-06
0.0065586475
-7.8649647e-05
2.3708753e-06
0.006586074
-8.1061842e-05
2.0437993e-06
0.006614262
-8.1916003e-05
1.6218297e-06
0.0066426311
-8.1060008e-05
1.128608e-06
0.0066705473
-7.8410399e-05
5.8928875e-07
0.006697384
-7.4025275e-05
2.8913536e-08
0.0067225891
-6.8045397e-05
-5.5817908e-07
0.0067456527
-6.0667683e-05
-1.1393469e-06
0.0067661177
-5.2129332e-05
-1.6957109e-06
0.0067836558
-4.2705265e-05
-2.2442929e-06
0.0067980497
-3.2692328e-05
-2.7730961e-06
0.0068091499
-2.2343935e-05
-3.2510896e-06
0.0068168755
-1.1913651e-05
-3.6551218e-06
0.0068212674
-1.6178862e-06
-3.9982174e-06
0.0068224103
8.2666342e-06
-4.2945781e-06
0.0068203761
1.7574794e-05
-4.5325225e-06
0.0068153051
2.6477858e-05
-4.7071033e-06
0.006807385
3.4768512e-05
-4.8341241e-06
0.006796845
4.2346659e-05
-4.9245199e-06
0.0067839254
4.9144215e-05
-4.9739268e-06
5.5109529e-05
-4.9921198e-06
-0.0071277799
7.7101427e-05
-5.41215e-06
-0.0071420808
6.8858505e-05
-5.4133878e-06
-0.0071538178
5.946331e-05
-5.3796084e-06
-0.0071627301
4.8985355e-05
-5.3045377e-06
-0.0071685804
3.7514779e-05
-5.1866077e-06
-0.0071711609
2.5172877e-05
-5.0176544e-06
-0.0071702939
1.2186431e-05
-4.7867378e-06
-0.0071658594
-1.558628e-06
-4.4937466e-06
-0.0071577802
-1.5851271e-05
-4.1416455e-06
-0.0071460003
-3.0403173e-05
-3.7206806e-06
-0.0071305551
-4.490944e-05
-3.2280722e-06
-0.0071115626
-5.9015604e-05
-2.6821515e-06
-0.0070892567
-7.2336984e-05
-2.0982049e-06
-0.0070639976
-8.445672e-05
-1.4700511e-06
-0.0070362717
-9.4972218e-05
-7.9909748e-07
-0.007006641
-0.00010351657
-1.3939828e-07
-0.0069757712
-0.00010979468
5.1446161e-07
-0.0069443898
-0.00011358184
1.1404699e-06
-0.0069132521
-0.00011478987
1.7361652e-06
-0.0068830478
-0.00011351305
2.246859e-06
-0.006854379
-0.00010996821
2.6497687e-06
-0.0068277149
-0.00010451163
2.9282684e-06
-0.0068033493
-9.7601553e-05
3.0653652e-06
-0.0067814015
-8.9759488e-05
3.0533994e-06
-0.0067618143
-8.1551145e-05
2.8841038e-06
-0.0067444007
-7.3566819e-05
2.592375e-06
-0.0067289999
-6.6377136e-05
2.3606832e-06
-0.0067158739
-6.0432061e-05
2.7037184e-06
-0.006706348
-5.5766382e-05
4.6103523e-06
-0.0067022867
-5.1613981e-05
8.3616598e-06
-0.0067000093
-4.6789968e-05
8.1958416e-06
-0.0066818642
-4.1186845e-05
-9.4920981e-06
-0.006628087
-3.6387291e-05
-4.4130157e-05
-3.5570982e-05
-5.5996784e-05
0.0068047519
-4.6329543e-05
-6.3572322e-05
0.0068587293
-4.3047756e-05
-4.7316949e-05
0.0068740403
-4.6889541e-05
-9.6083475e-06
0.0068724291
-5.4077737e-05
8.8989675e-06
0.0068733113
-6.1343257e-05
8.8470964e-06
0.0068807794
-6.8078588e-05
4.8441157e-06
0.0068927913
-7.5311037e-05
2.8670788e-06
0.006907734
-8.387788e-05
2.5579907e-06
0.0069251789
-9.3851376e-05
2.8397094e-06
0.0069452376
-0.00010477373
3.1638551e-06
0.0069681142
-0.00011597519
3.3390985e-06
0.0069938945
-0.00012671285
3.3310248e-06
0.0070224653
-0.00013623038
3.1479773e-06
0.0070535014
-0.00014379943
2.7950976e-06
0.007086443
-0.00014875124
2.2965566e-06
0.0071205505
-0.00015057182
1.6744623e-06
0.0071549818
-0.00014897164
9.5857103e-07
0.0071888312
-0.00014386326
2.1915519e-07
0.0072212397
-0.00013538908
-5.3598515e-07
0.0072514421
-0.00012388232
-1.2923251e-06
0.0072788001
-0.00010978356
-2.0311335e-06
0.0073027899
-9.3619043e-05
-2.7077192e-06
0.0073230354
-7.5944472e-05
-3.3166771e-06
0.0073393096
-5.7326657e-05