/*--------------------------------*- C++ -*----------------------------------*\
| =========                 |                                                 |
| \\      /  F ield         | OpenFOAM: The Open Source CFD Toolbox           |
|  \\    /   O peration     | Version:  v2012                                 |
|   \\  /    A nd           | Website:  www.openfoam.com                      |
|    \\/     M anipulation  |                                                 |
\*---------------------------------------------------------------------------*/
FoamFile
{
    version     2.0;
    format      ascii;
    class       volScalarField;
    location    "100";
    object      k;
}
// * * * * * * * * * * * * * * * * * * * * * * * * * * * * * * * * * * * * * //

dimensions      [0 2 -2 0 0 0 0];


internalField   nonuniform List<scalar> 
24880
(
0.047612006
0.045284078
0.043010585
0.04079431
0.038638228
0.036545076
0.034516802
0.032554896
0.030660862
0.028835996
0.027081367
0.025397938
0.023786433
0.02224746
0.020781261
0.01938778
0.01806661
0.016817214
0.01563869
0.014529815
0.013489188
0.012515189
0.011605925
0.01075928
0.009972974
0.0092445423
0.0085713705
0.007950686
0.0073796282
0.0068553908
0.0063754688
0.0059375531
0.0055393983
0.0051804745
0.0048562869
0.0045678683
0.0043084968
0.0040788518
0.0036722559
0.0056771331
0.0046363804
0.0059316192
0.0045379295
0.0058432993
0.0044662238
0.0057938949
0.0044737119
0.0058908448
0.0045534129
0.0059611574
0.0044891666
0.0059781099
0.004638683
0.0060830739
0.0047632
0.0064295229
0.0050400929
0.0067570235
0.0054448123
0.0074657491
0.0062315975
0.0073977655
0.0053991453
0.0046412344
0.0061502857
0.0071520799
0.0081879977
0.014202804
0.023984126
0.035051375
0.03190075
0.038251209
0.03243147
0.037106354
0.028936482
0.026371667
0.027745344
0.035113967
0.027918064
0.026345964
0.025081869
0.025182829
0.024703847
0.024467446
0.025051316
0.025701683
0.024907827
0.025882566
0.026225619
0.02713887
0.028389572
0.037045071
0.02901657
0.025844956
0.025851254
0.025656018
0.025577515
0.025686462
0.026264661
0.025892047
0.02583848
0.025788894
0.026082686
0.025862724
0.02518795
0.025409018
0.02601941
0.025607199
0.025627801
0.026192713
0.026628455
0.026367569
0.025632908
0.025807924
0.025761774
0.025888368
0.025427921
0.025741567
0.026484765
0.026518831
0.025992761
0.026348646
0.02667287
0.026446717
0.026412038
0.026609702
0.027084688
0.027334308
0.028729391
0.032630598
0.040661978
0.035676622
0.041368201
0.034926419
0.04035691
0.033113338
0.038359068
0.030728531
0.037591317
0.030189483
0.036039612
0.024938698
0.017999237
0.0094761072
0.0052898296
0.0073370592
0.013464742
0.0216686
0.025820228
0.033668996
0.030129098
0.034537231
0.030906265
0.035252294
0.034640985
0.038266105
0.036873017
0.039696602
0.03869
0.036320317
0.03774961
0.034775643
0.036313527
0.034788848
0.033699494
0.031579055
0.035033223
0.032142576
0.031960793
0.028729025
0.023948602
0.016529094
0.0090583872
0.0089445023
0.014133684
0.022740153
0.027521545
0.029067516
0.030194016
0.031540825
0.03090094
0.031774509
0.034332935
0.034800571
0.033428172
0.035308659
0.032782868
0.033846748
0.034173827
0.0327395
0.03395171
0.034547627
0.033110585
0.031639642
0.032659007
0.03145154
0.028992333
0.025376296
0.022950704
0.016154586
0.0096404422
0.0095622422
0.016897779
0.022974463
0.025777931
0.028924848
0.030633775
0.032480761
0.031092731
0.031624015
0.033880077
0.03329549
0.033686544
0.033125195
0.032171699
0.030680306
0.031656359
0.03158603
0.032624183
0.032885598
0.031157601
0.031107865
0.032801014
0.030659392
0.027371368
0.025588543
0.023653763
0.016166837
0.0092370382
0.0089026098
0.016101924
0.023101486
0.025588089
0.028012017
0.029475349
0.031358738
0.030196698
0.029589715
0.030882862
0.030522549
0.031489245
0.031564263
0.032699612
0.034021068
0.033341263
0.030838972
0.030729928
0.030829208
0.031080165
0.030584689
0.0323053
0.030815865
0.026822998
0.025568212
0.023204608
0.01596633
0.0094142486
0.008991446
0.01553879
0.022255017
0.026261514
0.028971416
0.031782978
0.032727462
0.031083277
0.02993617
0.031193973
0.030679094
0.032181284
0.033604346
0.0318434
0.029454289
0.030282762
0.03085856
0.031148281
0.032367553
0.031036785
0.030123599
0.033280758
0.031727758
0.029515465
0.026289467
0.02329597
0.016073799
0.0094129665
0.0092964241
0.015982609
0.022093419
0.025335531
0.027669674
0.029238319
0.030771553
0.030087216
0.030725522
0.031397592
0.030632661
0.031491286
0.031653226
0.032700118
0.033218879
0.034229224
0.032513368
0.031563488
0.031110982
0.03047179
0.029325192
0.031169352
0.029387777
0.027339481
0.025219003
0.021213087
0.015737994
0.0088036251
0.0079382013
0.015652349
0.022422859
0.026310545
0.027530706
0.029121041
0.030306339
0.029748004
0.028966579
0.030303773
0.031350757
0.031642275
0.031453925
0.030241763
0.030276747
0.030856145
0.030069918
0.031380182
0.030498852
0.028550522
0.028125875
0.030030363
0.028947533
0.026365265
0.024830842
0.023252177
0.017854606
0.0095178923
0.0090279755
0.016565164
0.023225109
0.027054552
0.028732062
0.030832766
0.031627633
0.029071205
0.028247774
0.029105356
0.02961609
0.030489
0.030318767
0.031133853
0.030821323
0.030062998
0.029819988
0.029474632
0.029066859
0.029322514
0.029696939
0.032678753
0.030070131
0.028148542
0.026821345
0.023231608
0.016176731
0.0089198623
0.0091255586
0.017547879
0.02332151
0.026166849
0.027739621
0.029948299
0.031392806
0.028540164
0.029627395
0.031051498
0.029444936
0.031690203
0.030320756
0.031459385
0.029692055
0.02977297
0.029399353
0.029173268
0.030948816
0.030086279
0.0291251
0.030799335
0.02927107
0.027953121
0.026056816
0.023106015
0.017152199
0.0093929346
0.0093721248
0.01845582
0.024483232
0.02769133
0.027847172
0.029899052
0.031113436
0.029222189
0.029517508
0.031072051
0.03026278
0.032079789
0.030941715
0.032704316
0.033622813
0.031850266
0.031045624
0.031362766
0.030719382
0.03137636
0.030292136
0.032320369
0.028819257
0.02747427
0.028498659
0.025456233
0.019093058
0.010491763
0.011034104
0.019949179
0.02543158
0.026908693
0.027297445
0.030100637
0.031300594
0.029371704
0.030779727
0.031599701
0.031388546
0.031544929
0.032248611
0.032879377
0.030345169
0.031453702
0.030957123
0.032454975
0.032675258
0.031506762
0.030254525
0.031285394
0.028629023
0.027390539
0.027632927
0.026406452
0.021228387
0.01223139
0.012956844
0.020601142
0.024898219
0.026754597
0.026913239
0.029271701
0.030832489
0.029154616
0.030820056
0.031737239
0.03164524
0.032255409
0.032480858
0.031407616
0.033288936
0.034773017
0.032482758
0.032204215
0.031318408
0.031733893
0.029488698
0.031937612
0.028301555
0.026613939
0.024340408
0.021059729
0.016198764
0.011321537
0.0083347489
0.011560126
0.014136501
0.018016212
0.023909511
0.028149455
0.032141522
0.029787199
0.03091681
0.030443386
0.031739943
0.032635367
0.033130037
0.029876571
0.030154822
0.03137728
0.030338375
0.032460767
0.032101596
0.029560288
0.029696034
0.031109074
0.028005173
0.022399944
0.016566608
0.010072298
0.0075229585
0.0061516527
0.0067724738
0.007594549
0.009148492
0.014054044
0.021054736
0.02637776
0.029820351
0.031043343
0.030668907
0.030577317
0.031879069
0.03115954
0.031446586
0.031192345
0.032911895
0.032704789
0.030984331
0.032402607
0.031310408
0.031173116
0.030048001
0.030705595
0.026415634
0.021360162
0.016450397
0.011337694
0.0088043723
0.0074541253
0.010199287
0.014168222
0.017202642
0.019583373
0.023534099
0.028975903
0.031725255
0.029175882
0.030856754
0.032819596
0.032944718
0.032045434
0.033648636
0.031119938
0.030845468
0.032313965
0.031497261
0.033629971
0.032921726
0.030406282
0.030363631
0.032729878
0.029149981
0.026684409
0.025850005
0.025147809
0.023296771
0.019272901
0.026417543
0.02742855
0.028226193
0.027576215
0.026859451
0.029965988
0.03180422
0.028833657
0.030194976
0.032309799
0.033539605
0.031905723
0.032581138
0.031657773
0.033702867
0.033656539
0.032241482
0.033634642
0.032647335
0.033032863
0.030178489
0.033636501
0.031591319
0.029999249
0.029829727
0.032047466
0.031277813
0.03255145
0.032356859
0.031134545
0.030758401
0.029815608
0.030535209
0.031908932
0.031559588
0.03023334
0.032991136
0.033130221
0.033137941
0.030917121
0.032368874
0.031368117
0.030897021
0.032025118
0.030886708
0.033065999
0.032867005
0.033061189
0.031110001
0.032444252
0.031947293
0.030805663
0.03048761
0.032611434
0.032285618
0.035119859
0.033707837
0.033258079
0.032966999
0.030974036
0.030665677
0.031587948
0.031498124
0.031838406
0.03228632
0.031975895
0.032262162
0.030281373
0.032010361
0.031172368
0.033774948
0.034241399
0.033449627
0.033819033
0.032439265
0.032245423
0.032160442
0.031996901
0.031309031
0.031027371
0.031622418
0.033417229
0.032231838
0.033477182
0.030468319
0.031536779
0.033297889
0.030648556
0.030507867
0.031100053
0.03125179
0.03062227
0.031132433
0.032391997
0.033081192
0.032675867
0.03293519
0.031217449
0.030785396
0.031668386
0.031766538
0.031724026
0.030071288
0.030391661
0.029660333
0.028745847
0.029512643
0.029471477
0.029714531
0.031980172
0.030930292
0.032414949
0.035195747
0.029222101
0.032292654
0.03556488
0.039036275
0.042692889
0.046535662
0.050528476
0.054673367
0.058976709
0.063408877
0.067969854
0.072650254
0.077453542
0.082391465
0.087401583
0.092498738
0.097699895
0.1029764
0.10833787
0.1137635
0.11926881
0.12482665
0.13044684
0.13614159
0.14187771
0.14765912
0.15346924
0.15929696
0.16514579
0.1709997
0.17685016
0.182687
0.18850226
0.19429426
0.20001145
0.20567232
0.21129232
0.21778126
0.21238869
0.2069289
0.20141266
0.19585619
0.19026797
0.18466167
0.17904472
0.17342934
0.16782198
0.16223337
0.15666915
0.15113874
0.14564751
0.14020377
0.13481202
0.12947948
0.1242105
0.1190118
0.11388782
0.10884497
0.103888
0.099023162
0.094255279
0.089590215
0.085032766
0.08058827
0.076261088
0.072055245
0.067974588
0.064020753
0.060205958
0.056527232
0.053017149
0.049654179
0.046444541
0.043421355
0.038723281
0.042017926
0.045471254
0.049074243
0.052817796
0.056698328
0.060703824
0.064828957
0.069067946
0.073417079
0.077872477
0.082431115
0.087089394
0.091845303
0.096693551
0.10163156
0.10665541
0.11176115
0.1169426
0.12219532
0.12751451
0.13289527
0.13833289
0.14382321
0.14935939
0.15493886
0.16055165
0.16619072
0.17184785
0.17751509
0.18318315
0.18884211
0.19448163
0.20009497
0.20566554
0.21118727
0.21670326
0.21724274
0.21179306
0.20629225
0.20074937
0.19517038
0.18956685
0.18394947
0.17832815
0.17271328
0.16711394
0.16153918
0.15599687
0.1504947
0.14504399
0.13964781
0.13431175
0.1290408
0.12383973
0.11871369
0.11366752
0.10870607
0.10383621
0.09906253
0.094389019
0.089818151
0.085355218
0.081002634
0.076763356
0.072638813
0.06863235
0.064746313
0.060984137
0.057352814
0.053854485
0.050514635
0.047324142
0.044252964
0.037959967
0.041317713
0.044847958
0.04852666
0.052352559
0.056319965
0.06040547
0.064605291
0.068931291
0.073327625
0.077822324
0.08241535
0.087103021
0.091883324
0.096750718
0.10170364
0.1067379
0.11185182
0.11703963
0.12229759
0.1276217
0.1330075
0.13845134
0.14394979
0.14949688
0.15509113
0.16072267
0.16638506
0.1720709
0.17777213
0.18347995
0.18918502
0.1948776
0.20054978
0.20618722
0.21178051
0.21737676
0.21875786
0.21318185
0.20755663
0.20189314
0.19620172
0.190493
0.18477796
0.17906633
0.1733679
0.1676959
0.16205792
0.1564603
0.15090567
0.14540481
0.13995994
0.13457599
0.12925469
0.12400491
0.1188318
0.11373989
0.10873201
0.1038153
0.098992858
0.09426854
0.089642204
0.085100732
0.080666066
0.076344182
0.072137305
0.068050298
0.064084851
0.060245376
0.056541218
0.053001966
0.04962896
0.046397086
0.043276143
0.036127378
0.039425278
0.042899523
0.046536775
0.050340061
0.054276127
0.058359191
0.062566739
0.066903831
0.071376949
0.075963964
0.080660254
0.085461561
0.090364031
0.095362334
0.10045403
0.10563408
0.11090367
0.11624151
0.12165184
0.12715797
0.13267524
0.13824249
0.14386753
0.14954417
0.15527057
0.16103704
0.16683753
0.17266365
0.17851406
0.18437312
0.1902356
0.19609262
0.20193966
0.20775193
0.21352982
0.21931942
0.22117655
0.21532564
0.20943786
0.20352145
0.19757351
0.19163114
0.18569947
0.17978266
0.17386949
0.16795748
0.16207303
0.15622921
0.15043211
0.14469568
0.1390223
0.13342146
0.12789707
0.12248955
0.11718361
0.11197424
0.10685446
0.10184224
0.096938849
0.092146302
0.087461077
0.08289926
0.078460879
0.074141306
0.069932479
0.065851076
0.061899777
0.058082794
0.054410107
0.050908517
0.047573936
0.044370732
0.041260111
0.033747628
0.037002259
0.040408063
0.043973984
0.047713571
0.051598145
0.055641839
0.059823416
0.064148781
0.068624431
0.073228624
0.077956947
0.082805022
0.087766847
0.092836819
0.098010858
0.10328538
0.10865695
0.11410966
0.11964597
0.12527839
0.13094526
0.13668933
0.14253829
0.14845193
0.15442192
0.16044197
0.16651455
0.17262649
0.17877329
0.18494598
0.19113467
0.19733712
0.20354353
0.20973491
0.21591003
0.22208416
0.22433593
0.21806398
0.2118068
0.20555287
0.19928147
0.19299036
0.18671122
0.18046296
0.17425634
0.16814084
0.16209708
0.15612669
0.15022608
0.14440208
0.13865868
0.13300019
0.12741878
0.12189826
0.11646668
0.11113194
0.10589796
0.10077423
0.095793009
0.09094525
0.086220359
0.081606989
0.077145952
0.072829544
0.068654877
0.064622919
0.06073418
0.056990185
0.053395376
0.049949969
0.046666835
0.04351528
0.040461548
0.033174629
0.036378891
0.039735219
0.043253375
0.046940182
0.050788671
0.054787936
0.058930868
0.063213085
0.067631699
0.07218265
0.076862639
0.081669107
0.086596984
0.091641645
0.096801082
0.10207215
0.10744866
0.11292303
0.11849272
0.1241549
0.12990865
0.13573884
0.14165016
0.14765745
0.15369641
0.15981327
0.16603626
0.17232498
0.17867843
0.18507505
0.19151227
0.19797945
0.20446709
0.21096298
0.21746354
0.22398565
0.22155922
0.21504313
0.20851934
0.20201148
0.19552572
0.18911791
0.1827687
0.17646617
0.17019401
0.16402473
0.15792122
0.15187749
0.14591424
0.14007431
0.13434274
0.12871429
0.12318093
0.11776129
0.1124527
0.10724673
0.10213445
0.097164466
0.092327916
0.087622845
0.083049065
0.078609581
0.074306719
0.070142184
0.066115122
0.062231621
0.058491494
0.054894228
0.051438324
0.048138766
0.044993233
0.041965666
0.038979032
0.027524106
0.030311754
0.033252619
0.036357716
0.039637044
0.04308352
0.046688422
0.050446023
0.054351532
0.05840161
0.062594523
0.066927942
0.071398091
0.07600178
0.080736111
0.085596834
0.090580263
0.095684253
0.10090229
0.10623097
0.11166922
0.11721602
0.12285556
0.12859301
0.13443949
0.14033585
0.14631807
0.15240878
0.15858946
0.16479924
0.17107283
0.17743755
0.18387075
0.19030852
0.19678894
0.20333827
0.20991312
0.2100858
0.20472199
0.19928366
0.19379051
0.18825064
0.18268165
0.17709135
0.17149362
0.16589582
0.16031045
0.15474409
0.14920903
0.14370967
0.13825648
0.13285421
0.12751196
0.12223442
0.11703345
0.11191343
0.10687859
0.1019346
0.097087976
0.092345267
0.087711418
0.083191955
0.078792606
0.074517814
0.070373027
0.06636136
0.062487149
0.058751019
0.055163387
0.051719416
0.048449336
0.045330367
0.042358387
0.039576971
0.031732994
0.028635158
0.028706632
0.028480711
0.028452448
0.028557302
0.029145985
0.028775418
0.028708132
0.028661343
0.028941185
0.028723412
0.028025434
0.028260868
0.028890713
0.028463495
0.028502732
0.029086214
0.029528521
0.029255833
0.028501533
0.028675576
0.028614726
0.028744714
0.028286255
0.028609909
0.029385991
0.029425601
0.028888525
0.029258886
0.029608096
0.029390685
0.029334499
0.02957754
0.03003357
0.030322812
0.031731431
0.035611109
0.038913874
0.034980828
0.033537226
0.033220718
0.03276
0.032501889
0.032573231
0.032789834
0.032411606
0.032034077
0.032573033
0.032534952
0.031726902
0.031386938
0.031847425
0.03171299
0.031784951
0.031618289
0.032383371
0.032672445
0.032220913
0.031626972
0.031561337
0.032009617
0.031361323
0.031104033
0.031829945
0.032042837
0.031776298
0.031827115
0.031901424
0.032265057
0.031664522
0.031545089
0.031532077
0.031754885
0.031658279
0.034768883
0.037965812
0.034885768
0.035006721
0.034799376
0.034841801
0.034984924
0.035593422
0.035246425
0.035160608
0.035111809
0.035357508
0.035150113
0.034402627
0.034682297
0.035344997
0.034876942
0.034971564
0.035571173
0.036029401
0.035724575
0.034957971
0.035111872
0.035028522
0.035165169
0.034708155
0.035063961
0.035898175
0.035935222
0.035399923
0.035781312
0.03618736
0.035971639
0.035891277
0.036158805
0.036629887
0.036966371
0.038439718
0.042392377
0.046005231
0.042075026
0.040596253
0.040252828
0.039777683
0.039492952
0.039591255
0.039806614
0.039371946
0.038985206
0.039514667
0.039472448
0.038618709
0.038249985
0.038697843
0.038560674
0.038658467
0.038508338
0.039281217
0.039601821
0.039138544
0.038534402
0.038411466
0.038891855
0.038221593
0.037920988
0.03868308
0.038882692
0.038659791
0.038707245
0.038801868
0.039130126
0.038516383
0.038347967
0.038271726
0.038455816
0.03830122
0.041325886
0.044840163
0.041898892
0.042092059
0.041945925
0.042065513
0.042260845
0.042872294
0.042567232
0.042468946
0.042419813
0.042614428
0.042428879
0.041656734
0.04197432
0.042651371
0.042158888
0.042309537
0.042916294
0.043386441
0.043047062
0.042273599
0.042418547
0.042309447
0.042443737
0.042012069
0.042385606
0.04325945
0.043304202
0.042783639
0.043177413
0.043636006
0.043423541
0.043308969
0.043606864
0.044082377
0.044420003
0.045893443
0.04977557
0.053685473
0.049873651
0.048427961
0.048101953
0.047620226
0.047330448
0.047441656
0.047658228
0.047170409
0.046780391
0.047278106
0.047224154
0.046353116
0.045982332
0.046377194
0.046262483
0.046365763
0.046243688
0.046994987
0.047361041
0.046877225
0.046281816
0.046091986
0.046592128
0.045925708
0.045597996
0.046359684
0.046539947
0.046381864
0.046413018
0.046534662
0.046815687
0.046197931
0.045963468
0.045817673
0.045907557
0.045670288
0.048523569
0.052354134
0.049608328
0.049905382
0.049868342
0.050038867
0.050320632
0.050932935
0.05068081
0.05053821
0.050528237
0.050645295
0.050474491
0.049733321
0.050064412
0.050710168
0.050213416
0.050440557
0.051023285
0.051515176
0.051127152
0.050401129
0.050501589
0.050402468
0.050499624
0.050142373
0.050501729
0.051368998
0.05143769
0.050963549
0.051347975
0.051870564
0.05164658
0.051538122
0.051819717
0.052291638
0.05260361
0.054010858
0.057749206
0.061934244
0.058298534
0.056938907
0.056643591
0.056184831
0.055919195
0.056019167
0.056233918
0.05570449
0.055321447
0.055764639
0.055682749
0.054821095
0.054478592
0.054791991
0.054715756
0.054806211
0.054731505
0.055423566
0.055836989
0.05533398
0.054769682
0.054503012
0.055002244
0.054375221
0.054031126
0.054765497
0.05492483
0.054843724
0.054841605
0.054993385
0.0552181
0.054619893
0.054281884
0.054084837
0.05405828
0.053714896
0.056340956
0.060458797
0.057963482
0.058359149
0.058457315
0.058695742
0.059078532
0.059680007
0.059471322
0.059311525
0.059321112
0.059384225
0.059222688
0.058498878
0.058850856
0.059475807
0.05896067
0.059261384
0.059810367
0.060310542
0.059883866
0.059226613
0.059278859
0.059194374
0.05925327
0.058982432
0.059313297
0.060158447
0.060259099
0.05983972
0.060229744
0.06075603
0.060557027
0.060464184
0.060712641
0.061158065
0.061430007
0.062731314
0.066261791
0.070695253
0.067303086
0.066047165
0.065795484
0.06540199
0.065161741
0.06524277
0.06542879
0.064892544
0.064510094
0.06490153
0.064786514
0.06393891
0.063642385
0.063865135
0.063827041
0.063900494
0.063874386
0.064488566
0.064927169
0.064431372
0.063905877
0.063566673
0.064077224
0.063479899
0.063131105
0.063815972
0.063974836
0.06394898
0.063928475
0.064081961
0.064270216
0.063686579
0.063249386
0.062977106
0.062815645
0.06235056
0.064736596
0.069131215
0.066880273
0.067396356
0.06763148
0.067941152
0.068428879
0.068996749
0.06883244
0.068693226
0.06871433
0.068706295
0.068557848
0.067910976
0.0682495
0.068819815
0.068324701
0.068686964
0.069191796
0.069693643
0.069240052
0.068668119
0.068672646
0.068607195
0.068628625
0.068450648
0.06870693
0.069559872
0.069688303
0.069332604
0.069700329
0.070244173
0.070075972
0.070002545
0.070227189
0.070567173
0.070799991
0.072002041
0.075262782
0.079922733
0.076799262
0.075689392
0.07546401
0.075181152
0.074977812
0.075037555
0.07519455
0.07465207
0.074272344
0.074618094
0.074477356
0.073610555
0.073395845
0.073523842
0.073522129
0.07357512
0.073594339
0.074118392
0.074562826
0.074088559
0.073595606
0.073210772
0.073693555
0.073149296
0.072824157
0.073429127
0.073582072
0.073608635
0.073570436
0.073722851
0.073864816
0.073298354
0.072764069
0.072411279
0.072100011
0.071546252
0.073664759
0.078295365
0.076330377
0.076921301
0.077316145
0.077720938
0.078295741
0.078859685
0.078742318
0.078570813
0.078634392
0.07859247
0.078432634
0.07786378
0.078179617
0.078692554
0.078227279
0.078638917
0.079118963
0.079551004
0.079126076
0.078646264
0.078610486
0.078565079
0.07855278
0.07847078
0.078655614
0.079533633
0.079677767
0.079343141
0.079737057
0.080273727
0.080130957
0.080072484
0.080263928
0.080477761
0.08069364
0.081714379
0.084708875
0.089575564
0.0867209
0.085807269
0.085619441
0.085438436
0.08527826
0.08533232
0.085475142
0.084916577
0.084543952
0.084830881
0.084706244
0.083812416
0.083662063
0.083694457
0.083727287
0.083757627
0.083814803
0.084243656
0.084649931
0.084229825
0.083766931
0.083374896
0.083804991
0.083302904
0.083019901
0.083546201
0.083713891
0.083751888
0.083692511
0.083850797
0.083959091
0.083381768
0.082802275
0.082312341
0.081851269
0.081224106
0.083066017
0.087900898
0.08622113
0.086883198
0.087416616
0.087986951
0.088569292
0.089172265
0.089067163
0.088923483
0.088975049
0.088951475
0.088777205
0.088276798
0.088540544
0.08902444
0.088625269
0.088997519
0.089441511
0.089853118
0.089477197
0.089083777
0.089023282
0.088993232
0.088952341
0.088962439
0.089086839
0.089979811
0.090095803
0.089853534
0.090203267
0.090793216
0.090639271
0.090597623
0.090717277
0.090848366
0.091016092
0.091820795
0.094559742
0.099611754
0.097011009
0.096313963
0.096166853
0.096103154
0.095990412
0.096054652
0.096173224
0.095599264
0.095261275
0.095450639
0.095345782
0.094452716
0.094363314
0.094303964
0.094354779
0.094380408
0.094444917
0.094801581
0.095150942
0.094746252
0.094324803
0.093970886
0.09433998
0.093869132
0.09362568
0.094099145
0.094263435
0.094305658
0.094224993
0.094391748
0.094445203
0.093860785
0.093266705
0.092610464
0.092008392
0.091314687
0.092857404
0.097895811
0.096498574
0.097221932
0.097899507
0.098626907
0.09924237
0.099797289
0.099801649
0.099623991
0.099733234
0.099666724
0.09951761
0.099077771
0.099300196
0.099746886
0.099416966
0.099753478
0.10013966
0.10053913
0.1002215
0.099908798
0.099835139
0.099822101
0.099757718
0.099848371
0.099915248
0.10081269
0.10090097
0.10075934
0.10109058
0.10163526
0.1015656
0.10147191
0.10158556
0.10157147
0.10170312
0.10230055
0.10477441
0.1099918
0.1076834
0.10714688
0.10705573
0.10712169
0.10704732
0.10713043
0.10717738
0.106636
0.10633771
0.10642545
0.10633104
0.10547703
0.1054099
0.10528839
0.10534348
0.10539178
0.10542153
0.10574319
0.10600567
0.10561208
0.10527377
0.10491803
0.10523728
0.10480671
0.10457761
0.10503743
0.10516553
0.10521513
0.10508939
0.1052904
0.10522641
0.10467354
0.10406123
0.10326196
0.10251743
0.1017643
0.10306029
0.10824955
0.10710701
0.10788264
0.10869759
0.10957558
0.11018422
0.11072007
0.11084455
0.11062153
0.11077005
0.11074781
0.11062798
0.11014733
0.11039608
0.11080072
0.11049928
0.11087374
0.11115508
0.11154458
0.11133524
0.11100358
0.11101957
0.11093682
0.11089687
0.11105783
0.11111391
0.11191209
0.11202986
0.11199166
0.11226589
0.11278785
0.1127682
0.11270508
0.11273158
0.11261359
0.11266766
0.11313858
0.11530964
0.12066724
0.11865894
0.11824875
0.11825317
0.11842155
0.11839946
0.11848591
0.11847563
0.1179557
0.11771081
0.11769389
0.11757141
0.11681555
0.11673579
0.11659091
0.11661636
0.11671195
0.1166528
0.1169905
0.11717104
0.11675957
0.11650888
0.11616503
0.11644277
0.11607104
0.11578407
0.11628074
0.11636697
0.11640549
0.11623355
0.11645676
0.11628609
0.11574999
0.11512627
0.1142128
0.11332562
0.11251916
0.11353483
0.1188777
0.11799828
0.11886373
0.11979241
0.12073858
0.12137772
0.12194277
0.12213284
0.12192375
0.12210602
0.12204949
0.12200126
0.1214984
0.1218098
0.12218113
0.12189156
0.12221415
0.12244736
0.12284337
0.12271573
0.12238122
0.12247425
0.12238041
0.12235434
0.12246361
0.12257857
0.12332838
0.12342535
0.12348912
0.12371205
0.12425833
0.12426775
0.12415565
0.12417756
0.12397128
0.12389794
0.12423447
0.12611646
0.13159253
0.12986002
0.1295917
0.12973957
0.12995335
0.12998026
0.13006753
0.13005052
0.12954111
0.12932115
0.12920132
0.1290978
0.12839506
0.12826561
0.12814101
0.12819475
0.12825716
0.12818133
0.12846238
0.12855935
0.1281686
0.12795554
0.12766749
0.1279292
0.12759919
0.12728275
0.1277441
0.12780093
0.12782423
0.12765835
0.12782411
0.12760579
0.12707614
0.12642049
0.12539221
0.12441574
0.12353661
0.12433354
0.1298178
0.12911955
0.1300087
0.13103986
0.13214396
0.13280876
0.13330121
0.13355981
0.13343624
0.13359058
0.13359827
0.13353719
0.1331108
0.13342541
0.13371417
0.13348746
0.13373532
0.13392836
0.13432081
0.1342612
0.13402955
0.13409078
0.13405854
0.13398491
0.13410139
0.13425251
0.13490769
0.13503152
0.13519039
0.13541599
0.13587896
0.13591434
0.13584877
0.13577972
0.13554493
0.13533156
0.13554354
0.1371518
0.14272637
0.14123977
0.14112826
0.14138257
0.14163265
0.14175357
0.14179136
0.14174341
0.14132625
0.14109108
0.14089353
0.1407546
0.1401442
0.13997536
0.13985882
0.13996032
0.13995334
0.13991497
0.14009287
0.14012384
0.13972671
0.1395524
0.1393451
0.13953366
0.13928157
0.13897155
0.13935743
0.1394289
0.13938269
0.1392477
0.13932385
0.13902814
0.13857035
0.13790134
0.13671965
0.13564268
0.13474626
0.13538344
0.14096517
0.14042325
0.14131548
0.14243959
0.14368146
0.14436828
0.14478242
0.14512195
0.1450877
0.14520885
0.14528768
0.14521292
0.14486039
0.14517453
0.14538463
0.14523806
0.1454306
0.14556299
0.14595816
0.14596411
0.14583305
0.14585327
0.14589436
0.14577135
0.14592091
0.14608068
0.14663583
0.14679246
0.1470345
0.14726773
0.1476403
0.14770668
0.14767984
0.14751923
0.14726186
0.14696438
0.14697795
0.14837403
0.15402778
0.15276756
0.15279716
0.15312871
0.15345271
0.15362175
0.15363825
0.15356236
0.15323251
0.1529646
0.15274386
0.15256764
0.15200947
0.15185075
0.15173218
0.15185447
0.15176761
0.15177375
0.15185282
0.15183325
0.15142767
0.15132818
0.15115662
0.15125664
0.15105367
0.15076674
0.1510804
0.15116701
0.1510466
0.15094735
0.15093538
0.15055692
0.15015225
0.149476
0.14817835
0.14702033
0.146105
0.14661466
0.15226496
0.15181964
0.15275163
0.15394007
0.15528932
0.15595072
0.15634523
0.15676887
0.15682132
0.1569059
0.15705297
0.15696746
0.15668782
0.15695545
0.15714541
0.15709228
0.1572481
0.15733328
0.1577708
0.15776735
0.15773206
0.15770643
0.15782373
0.15770511
0.15779054
0.15796046
0.15850574
0.15871055
0.1588998
0.15920935
0.15950116
0.15958567
0.15958751
0.15939675
0.15900254
0.15865359
0.15858545
0.15974314
0.16544588
0.16441932
0.16452033
0.16490762
0.16534637
0.16551904
0.16556305
0.16546914
0.16519484
0.16486168
0.16468113
0.16445214
0.16394474
0.16374137
0.1636804
0.16379401
0.16364272
0.16369962
0.16368178
0.1636778
0.16327464
0.16319652
0.16303972
0.16304352
0.16285673
0.16261369
0.16284992
0.16293663
0.16276031
0.16270005
0.16260302
0.16214237
0.16177307
0.16107792
0.15973815
0.15852091
0.15757877
0.15797919
0.16367427
0.16335608
0.16432246
0.16554114
0.16687133
0.16760269
0.16795631
0.16844183
0.16857654
0.16861559
0.16882933
0.16873519
0.16853863
0.16876738
0.16894343
0.1689889
0.16915983
0.16921954
0.16957826
0.16960324
0.16966443
0.16958236
0.16977516
0.16966542
0.16971386
0.16993583
0.17043913
0.17066533
0.1708507
0.17119621
0.17145665
0.17154745
0.17143429
0.17130619
0.17084297
0.17039975
0.17026421
0.17119543
0.17691586
0.17611045
0.17626924
0.17677078
0.17722674
0.17736225
0.17748713
0.17742236
0.17714995
0.17682564
0.17660403
0.17637256
0.17591915
0.17570291
0.17560778
0.17570969
0.17553649
0.17561903
0.17551146
0.17547348
0.17515394
0.17507561
0.1749296
0.17485496
0.17466318
0.17445189
0.1746012
0.17467052
0.174482
0.17444135
0.17426359
0.17378257
0.17339152
0.17264021
0.17133659
0.17012186
0.1691374
0.16941228
0.17511343
0.17490718
0.17590766
0.17711777
0.17837951
0.17916278
0.17959042
0.18006772
0.18028233
0.18032664
0.18047996
0.18045093
0.18034657
0.18055222
0.18076864
0.1808501
0.18096121
0.18107299
0.18135054
0.18140318
0.18156372
0.18147232
0.18161136
0.18153719
0.18166861
0.18187699
0.18227803
0.18252765
0.18277871
0.1830843
0.18338004
0.18341303
0.18326787
0.18313591
0.18268559
0.18213188
0.18194671
0.18266601
0.18836746
0.18776102
0.18796492
0.188577
0.18901168
0.18915246
0.18930396
0.1892718
0.18901357
0.18870093
0.18841872
0.18815657
0.18780097
0.18759843
0.18743269
0.18750097
0.18737818
0.18744964
0.18728988
0.18721646
0.18696664
0.1868366
0.18673609
0.18664639
0.18640125
0.18621037
0.18626743
0.18625906
0.18613938
0.1860897
0.18583133
0.18536698
0.18490009
0.18408936
0.1828711
0.18166738
0.18066396
0.18083372
0.18650057
0.1863929
0.18740824
0.18859343
0.18978733
0.19060434
0.19110268
0.19155755
0.19184794
0.19191089
0.19200078
0.19205233
0.19203388
0.19221198
0.1924945
0.19259483
0.19269612
0.1928311
0.19308307
0.19314879
0.19329382
0.19324944
0.1933925
0.19329467
0.19349765
0.19369229
0.19399965
0.19427484
0.19458793
0.19489732
0.19510891
0.19516282
0.19502552
0.19485882
0.19443223
0.19376518
0.19355961
0.1940785
0.19972205
0.19928849
0.19954627
0.20024515
0.20064921
0.20085002
0.2009666
0.20091294
0.2007233
0.20039218
0.2001096
0.19981208
0.19950026
0.19930675
0.19912775
0.19919845
0.1990693
0.19910342
0.19892128
0.19885877
0.19864129
0.19849543
0.19836574
0.19825348
0.19799411
0.19780535
0.19778103
0.19770786
0.19762501
0.19754499
0.19721737
0.19678546
0.19625477
0.19542645
0.19427258
0.19307562
0.19208534
0.19216685
0.19775615
0.19772578
0.19867934
0.19989334
0.20099819
0.20184797
0.20240404
0.20281136
0.20317574
0.20327039
0.203372
0.20344574
0.20350842
0.20370701
0.20393408
0.20406659
0.20423635
0.20438035
0.20456033
0.20462934
0.20485974
0.20482155
0.20493029
0.20489783
0.20504104
0.2052513
0.20558818
0.20588027
0.20613097
0.20649115
0.20667125
0.206707
0.20661131
0.20637738
0.20599233
0.20527076
0.20495756
0.20535035
0.21089627
0.21055668