/*--------------------------------*- C++ -*----------------------------------*\
| =========                 |                                                 |
| \\      /  F ield         | OpenFOAM: The Open Source CFD Toolbox           |
|  \\    /   O peration     | Version:  v2012                                 |
|   \\  /    A nd           | Website:  www.openfoam.com                      |
|    \\/     M anipulation  |                                                 |
\*---------------------------------------------------------------------------*/
FoamFile
{
    version     2.0;
    format      ascii;
    class       volScalarField;
    location    "100";
    object      nut;
}
// * * * * * * * * * * * * * * * * * * * * * * * * * * * * * * * * * * * * * //

dimensions      [0 2 -1 0 0 0 0];


internalField   nonuniform List<scalar> 
24880
(
0.0018890503
0.0018207527
0.0017519611
0.0016829275
0.0016139083
0.0015451569
0.0014768951
0.0014093232
0.0013426401
0.001277034
0.0012126814
0.0011497524
0.0010884046
0.0010287884
0.00097103529
0.00091526043
0.00086155978
0.0008100206
0.0007607096
0.00071367454
0.00066895092
0.00062655972
0.00058650419
0.00054877193
0.00051333757
0.00048016174
0.00044919283
0.00042036615
0.00039360999
0.00036884644
0.00034601541
0.00032501451
0.00030580435
0.00028826259
0.00027230123
0.00025788496
0.00024478581
0.00023299967
0.00021920258
0.00035464456
0.00028669041
0.00037374149
0.00028087421
0.00036785237
0.0002759737
0.00036471082
0.0002767544
0.0003710878
0.00028156457
0.00037448754
0.00027691159
0.00037588191
0.00028686181
0.00038351619
0.00029556413
0.00040628318
0.00031374835
0.00042917159
0.0003415465
0.00047646304
0.00039217054
0.00046602223
0.00032813789
0.0002681201
0.00032987583
0.00036187661
0.00043829009
0.00094659858
0.0018849044
0.002984342
0.0026964347
0.0033582837
0.0027456973
0.0032339856
0.0023764168
0.0021176964
0.0022252208
0.003001937
0.0022451523
0.0021021286
0.0019884683
0.0020011519
0.0019572154
0.0019363169
0.0019885287
0.0020483429
0.0019749634
0.0020634386
0.0020949914
0.0021784924
0.0022915833
0.003199471
0.0023542599
0.0020581617
0.0020589649
0.0020419097
0.0020331586
0.0020408342
0.0020917028
0.0020566184
0.0020514773
0.0020453694
0.0020709987
0.0020505087
0.0019895297
0.0020079317
0.0020601847
0.0020230185
0.0020232744
0.0020718338
0.0021092668
0.0020862468
0.0020203229
0.0020355243
0.0020309491
0.0020418522
0.001999156
0.0020261716
0.0020898958
0.0020925624
0.0020450775
0.0020760401
0.0021026983
0.0020825257
0.0020799183
0.0020962833
0.0021374435
0.0021585235
0.0022798388
0.0026415068
0.0034992116
0.0029381778
0.0035832526
0.0028642348
0.0034633383
0.0026809669
0.0032383885
0.0024422082
0.0031316027
0.0023685546
0.0029208827
0.0018613176
0.0012586602
0.00061142519
0.00031692988
0.00045834535
0.00090590363
0.0015679419
0.0019595177
0.0027111382
0.0023945381
0.0028417717
0.0024919782
0.0029385632
0.0028833623
0.0032674016
0.0031269356
0.0034332961
0.0033120399
0.0030733966
0.0032312038
0.0029188257
0.0030760627
0.0029186098
0.002805639
0.0025844278
0.0029123819
0.0026114009
0.0025683134
0.0022391028
0.0017820269
0.0011564727
0.00059125651
0.00059207701
0.0010006846
0.0017104114
0.0021567525
0.0023233865
0.0024449215
0.002587201
0.0025395763
0.0026340754
0.0028917432
0.0029419035
0.0028031758
0.0029878733
0.0027204807
0.0028275954
0.0028782161
0.0027479147
0.0028782691
0.0029357877
0.0027902095
0.0026344134
0.002721117
0.0025886867
0.0023394741
0.0019902744
0.0017484457
0.0011647342
0.00064336409
0.00063889821
0.0012285864
0.0017624484
0.0020379796
0.002347754
0.0025272941
0.0027207442
0.0025977643
0.0026584921
0.0028855438
0.0028257368
0.0028502603
0.0027728548
0.0026599095
0.0025155122
0.0026312612
0.0026430454
0.0027626893
0.0027948162
0.002621925
0.0026055521
0.0027595491
0.0025363695
0.0022122208
0.0020281425
0.0018257441
0.0011735187
0.00061632075
0.00059268089
0.0011689009
0.001781988
0.0020322156
0.0022773501
0.0024331529
0.002627026
0.0025252695
0.002474431
0.0026008074
0.0025594326
0.0026354668
0.00262118
0.0027159471
0.0028496844
0.0027996925
0.0025726202
0.0025782839
0.002596832
0.0026205005
0.0025636229
0.0027197416
0.0025608704
0.0021706417
0.0020334934
0.0017928401
0.0011583764
0.00062947516
0.00059997816
0.0011248285
0.0017139243
0.002098155
0.0023723556
0.0026578884
0.0027647931
0.0026153832
0.0025112372
0.0026353305
0.0025776074
0.0027096724
0.0028285921
0.0026329124
0.00239949
0.0024983848
0.0025781604
0.0026256048
0.0027530064
0.0026215108
0.0025251999
0.0028216653
0.0026540044
0.0024231559
0.0021015594
0.0018032618
0.001167214
0.00063045659
0.00062251537
0.0011590959
0.0017003217
0.0020178292
0.0022544403
0.0024187965
0.0025784232
0.0025222158
0.0025918149
0.00265926
0.0025766193
0.0026442229
0.0026348868
0.0027248915
0.0027770283
0.0028968507
0.0027392848
0.0026657097
0.0026297922
0.0025675997
0.0024509483
0.0026194436
0.0024340174
0.0022261909
0.0020081858
0.0016261256
0.0011398832
0.00058803709
0.0005276908
0.0011345225
0.0017318757
0.0021096889
0.0022458965
0.0024122174
0.0025392694
0.0024935642
0.0024251473
0.0025572257
0.0026494579
0.0026625395
0.0026202604
0.0024823585
0.0024855291
0.0025609888
0.0025072062
0.0026520266
0.0025753677
0.0023866945
0.0023394077
0.0025139628
0.0023971736
0.0021392957
0.0019766172
0.001803101
0.0013100946
0.00063995746
0.00060479259
0.0012081055
0.0018039423
0.0021794022
0.0023598086
0.00257958
0.0026709234
0.0024316477
0.0023591246
0.0024426008
0.0024830099
0.0025523588
0.0025133525
0.0025801311
0.0025457067
0.00249132
0.0024858085
0.0024678519
0.0024370248
0.0024631903
0.0024920798
0.0027746041
0.0025066051
0.0023064535
0.0021585237
0.0018047314
0.0011769934
0.00059686301
0.00061185025
0.0012860654
0.0018119028
0.0021006031
0.0022700354
0.00249729
0.0026508345
0.0023837155
0.0024946657
0.002633823
0.0024671339
0.0026756866
0.0025152479
0.0026108861
0.0024340278
0.0024606553
0.0024462353
0.0024415548
0.0026243494
0.0025405589
0.0024413327
0.0025942721
0.002433288
0.002289903
0.0020902619
0.0017933504
0.0012540236
0.00063071618
0.00062993053
0.0013599687
0.001914605
0.0022412824
0.0022837626
0.0024983288
0.0026287841
0.0024523547
0.0024867602
0.0026392647
0.0025492402
0.0027119118
0.0025735771
0.0027370873
0.0028292105
0.0026653964
0.0026071697
0.00265594
0.0026017569
0.0026691946
0.0025564487
0.0027474029
0.0023959939
0.0022500541
0.0023163645
0.0020012393
0.0014123912
0.00071003154
0.00074939783
0.0014811054
0.0019950291
0.0021678937
0.0022330301
0.0025185157
0.002647963
0.0024684527
0.0026120531
0.0026914002
0.0026628405
0.0026588208
0.0027059744
0.002753711
0.0025031156
0.0026317622
0.0026023662
0.0027694943
0.002800384
0.0026849069
0.0025544827
0.0026455471
0.0023751593
0.002237917
0.0022280022
0.0020745734
0.0015819374
0.00083538402
0.0008855607
0.0015213626
0.0019290028
0.0021333782
0.0021831415
0.0024304764
0.002599102
0.0024479323
0.0026174849
0.0027077156
0.002692236
0.0027358674
0.0027356513
0.0026072405
0.0028028801
0.0029711254
0.0027554121
0.002748733
0.0026688248
0.002709171
0.0024803589
0.0027034749
0.0023292039
0.0021322791
0.0018853696
0.0015670255
0.0011494459
0.00075558206
0.00052681906
0.00076006126
0.00095140923
0.0013003133
0.0018566842
0.0023005342
0.0027175722
0.002510625
0.0026301639
0.0025851127
0.0027058971
0.0027792142
0.0028086218
0.0024624678
0.0024888799
0.0026304751
0.0025499006
0.0027784457
0.0027497957
0.00249646
0.0025005396
0.0026141246
0.0022698111
0.0016860135
0.0011281761
0.0006126229
0.00043348007
0.00036122734
0.00035992982
0.00041775498
0.0005381503
0.00092487326
0.0015633048
0.002121491
0.0024937456
0.0026359311
0.0026085801
0.0026013198
0.002722375
0.0026329359
0.0026413329
0.0026011498
0.0027697082
0.0027722932
0.0026146544
0.0027728743
0.0026757563
0.0026622457
0.0025422755
0.0025901778
0.0021468792
0.0016305526
0.0011507331
0.00071089392
0.00050363464
0.00038792881
0.00061701216
0.00094627538
0.0012332463
0.0014812893
0.0018730319
0.0024131411
0.002702782
0.0024650739
0.0026347437
0.0028305178
0.0028317285
0.0027239211
0.002866375
0.0025890643
0.002566109
0.0027339036
0.0026689947
0.0029031837
0.0028420005
0.0025933337
0.0025873653
0.0028140639
0.002449449
0.0021941804
0.0020860743
0.0019833706
0.0017789435
0.0013955883
0.0021197595
0.002230756
0.0023256105
0.0022834277
0.0022297424
0.0025406458
0.0027291532
0.0024399193
0.0025749193
0.0027840504
0.0028963563
0.002712169
0.002760496
0.0026461965
0.0028578079
0.0028760564
0.0027467066
0.0029080912
0.0028177635
0.0028631991
0.0025741744
0.0029176262
0.0027069269
0.0025421909
0.0025170209
0.0027214397
0.0026340156
0.0027475783
0.0027520516
0.0026398663
0.0026098922
0.0025247478
0.0025994333
0.0027412659
0.002710258
0.0025785836
0.0028593812
0.0028712364
0.0028626742
0.0026187608
0.0027442418
0.0026185615
0.0025765143
0.0027084148
0.0026142591
0.002854038
0.0028392703
0.0028620743
0.0026591755
0.0027962264
0.0027421985
0.0026257561
0.0025911074
0.0027984601
0.0027586392
0.0030383618
0.0028885657
0.0028502794
0.0028260736
0.0026311672
0.0026034327
0.0026949693
0.002688922
0.0027199722
0.002770409
0.0027359164
0.0027648225
0.0025518979
0.0027072954
0.0026077581
0.0028737849
0.0029407604
0.0028647698
0.0029110217
0.0027654466
0.0027471406
0.0027406125
0.0027217547
0.0026504608
0.0026211683
0.0026775914
0.0028561643
0.0027330928
0.0028521912
0.002540019
0.0026558497
0.0028365347
0.0025652971
0.0025552612
0.0026190379
0.0026359644
0.0025700078
0.0026221551
0.0027488541
0.0028223915
0.0027782899
0.0027993585
0.0026051897
0.0025590028
0.0026651045
0.0026736055
0.0026673633
0.0024944911
0.0025381458
0.0024620639
0.0023676729
0.0024445284
0.0024467921
0.0024624632
0.0026903555
0.00257499
0.0027255229
0.0029838464
0.0023673518
0.0026397647
0.0029341721
0.0032507833
0.0035894752
0.0039514864
0.0043348385
0.0047408925
0.0051714169
0.0056243065
0.0061003862
0.0065993817
0.0071224035
0.0076715342
0.0082401194
0.0088302821
0.0094444339
0.010079306
0.010736268
0.011412611
0.012110308
0.012825383
0.013558843
0.014311832
0.015078978
0.015859819
0.016650969
0.01744963
0.018254818
0.019062724
0.019870528
0.020674849
0.02147284
0.022262734
0.023034558
0.023789855
0.024529872
0.025387019
0.024701639
0.023995395
0.023271068
0.022532381
0.021782063
0.021023625
0.020259727
0.019493675
0.018727916
0.017965413
0.017208321
0.016459191
0.01571989
0.014992528
0.014278571
0.013579677
0.012896984
0.012231778
0.011584917
0.010957353
0.010349704
0.0097626361
0.0091965322
0.0086517847
0.0081285698
0.0076270441
0.0071471906
0.0066889164
0.0062520268
0.0058360529
0.0054412127
0.0050665545
0.0047131097
0.004378793
0.0040610587
0.0037658049
0.0032214257
0.0035333119
0.0038654533
0.0042168019
0.0045871121
0.0049769553
0.0053864346
0.0058159261
0.006265576
0.0067355573
0.0072259327
0.0077367985
0.0082681529
0.0088201251
0.0093924203
0.0099849752
0.010597489
0.01122956
0.011880405
0.012549325
0.013235449
0.013937749
0.014655091
0.015386255
0.016129516
0.016883579
0.017645994
0.018414561
0.019186796
0.019960138
0.020731761
0.02149866
0.022257781
0.023006667
0.023741252
0.024459304
0.025166691
0.025208112
0.024517204
0.023808472
0.023084472
0.02234743
0.021600457
0.020846569
0.020088683
0.019329749
0.018572478
0.017819484
0.017073115
0.016335564
0.015609373
0.014895823
0.014196396
0.013512343
0.012844748
0.012194598
0.011562711
0.010949785
0.010356635
0.0097836875
0.0092312041
0.0086991853
0.0081878812
0.007697154
0.0072268801
0.0067767316
0.0063465426
0.0059359638
0.0055446327
0.0051723722
0.0048181926
0.0044836686
0.0041670045
0.003864688
0.0031419491
0.0034563062
0.0037927836
0.0041485697
0.0045240621
0.0049199352
0.0053350307
0.0057699004
0.0062265368
0.0066993014
0.0071916524
0.0077039369
0.0082360859
0.0087881654
0.009359793
0.0099509586
0.010561276
0.011190563
0.01183806
0.012503131
0.013184997
0.013882696
0.014595245
0.015321551
0.016060049
0.016809635
0.017567946
0.018332937
0.01910231
0.019873571
0.020644034
0.021410854
0.02217111
0.022922212
0.023660461
0.024383157
0.025096709
0.025164906
0.024464195
0.023746151
0.023013578
0.02226932
0.02151633
0.020757643
0.019996115
0.019234574
0.018476265
0.017723557
0.01697853
0.01624263
0.015518274
0.014806595
0.014108955
0.013426167
0.012759829
0.012110919
0.01148021
0.010868155
0.010275615
0.0097028553
0.0091501401
0.0086171963
0.008102025
0.0076069341
0.0071321751
0.0066775124
0.00624296
0.0058280993
0.0054326679
0.0050567267
0.0047021931
0.0043678276
0.004050004
0.0037454171
0.0029523711
0.003254639
0.0035783529
0.0039221794
0.0042870079
0.0046707431
0.0050760765
0.0055017417
0.0059490468
0.0064193423
0.0069108097
0.0074234068
0.0079570743
0.0085117403
0.0090871138
0.009683077
0.010299192
0.010935716
0.011589747
0.012261699
0.012954613
0.013656254
0.014371708
0.015101322
0.015843519
0.016597153
0.017359929
0.018129885
0.018904631
0.019682637
0.020460321
0.021235444
0.022005268
0.022767736
0.023517714
0.024253899
0.024982418
0.024936653
0.024216767
0.023481752
0.022734005
0.021974426
0.021209705
0.020442001
0.019673321
0.018903469
0.018132931
0.017367005
0.016608718
0.015860019
0.015123782
0.014401218
0.01369428
0.013004067
0.012336412
0.01168942
0.011062481
0.010454706
0.0098681457
0.0093027273
0.0087583963
0.0082344032
0.0077321626
0.0072511948
0.0067904734
0.0063485794
0.0059268339
0.0055249111
0.0051425138
0.0047797473
0.0044381753
0.0041160159
0.0038086348
0.0035120478
0.0027078158
0.0029981957
0.003306138
0.0036326142
0.0039796083
0.0043455259
0.0047329443
0.0051407704
0.0055704139
0.0060232548
0.0064976497
0.0069936566
0.0075112841
0.0080503104
0.0086104846
0.009191595
0.0097934343
0.010415755
0.011056539
0.011716016
0.012395719
0.013087051
0.013795443
0.014524017
0.015266659
0.016021422
0.016786522
0.017561165
0.018342397
0.019128298
0.019916313
0.020703623
0.021488453
0.022267936
0.023037969
0.023796961
0.024545842
0.024150643
0.023430305
0.022702155
0.021965771
0.021219526
0.02046391
0.019704605
0.018945422
0.0181891
0.017443821
0.016708061
0.01598296
0.015268962
0.014567728
0.013880452
0.013208262
0.012550729
0.011905981
0.011277979
0.010667894
0.010076291
0.0095042939
0.0089555974
0.0084288197
0.0079224195
0.0074347211
0.0069699167
0.0065266281
0.006104038
0.0057017289
0.0053191919
0.0049559065
0.0046114646
0.0042847997
0.0039760125
0.0036811177
0.0033967295
0.0026257084
0.0029050721
0.0032010044
0.0035144168
0.0038464772
0.0041975401
0.0045675949
0.0049567593
0.005365206
0.0057931174
0.0062404897
0.0067073353
0.007193697
0.0076993117
0.0082238943
0.0087673499
0.0093293917
0.009909327
0.010506214
0.011119525
0.011748646
0.012393106
0.013050524
0.013720931
0.014405628
0.015095506
0.015795927
0.016509492
0.017229927
0.017955962
0.01868379
0.019411856
0.020137632
0.020858727
0.021572469
0.022277257
0.022974145
0.021074229
0.020467674
0.019849237
0.01922235
0.018588646
0.017955635
0.017322132
0.016687701
0.016051235
0.015422245
0.014797265
0.014176329
0.013562676
0.01296204
0.012373349
0.011796566
0.011231292
0.010679954
0.010142606
0.0096185906
0.0091070793
0.0086135435
0.0081370159
0.0076772426
0.0072341233
0.0068078364
0.0063984563
0.0060059692
0.0056300984
0.0052711974
0.0049289615
0.004602899
0.0042922031
0.0039974998
0.0037176152
0.0034484764
0.0031826645
0.0020660619
0.0022882205
0.0025237397
0.0027733907
0.0030383089
0.0033185231
0.0036139332
0.0039245097
0.0042501096
0.0045906468
0.0049461254
0.005316464
0.0057014187
0.0061007512
0.0065142021
0.0069413359
0.0073817039
0.0078349416
0.0083002213
0.0087769142
0.0092645676
0.0097626874
0.010269196
0.01078408
0.011307919
0.011834001
0.012365376
0.012903585
0.013445966
0.013985392
0.01452471
0.015065769
0.01560535
0.016136058
0.016661036
0.017181893
0.017693477
0.024714184
0.02401151
0.023287611
0.02254678
0.021791796
0.021026874
0.020254874
0.019479504
0.018703493
0.017930206
0.01716206
0.016402108
0.015652185
0.014914763
0.014191377
0.013483952
0.012793663
0.012122422
0.011471013
0.010840041
0.010230156
0.009641958
0.0090759309
0.0085322549
0.0080110877
0.0075125231
0.0070364531
0.0065828335
0.0061513424
0.0057417235
0.0053533449
0.004986169
0.0046390291
0.0043128225
0.0040053063
0.0037130449
0.0034429657
0.0025988458
0.002303262
0.0023099189
0.002289742
0.002284902
0.0022920756
0.0023449178
0.0023089813
0.0023024443
0.0022963056
0.0023212455
0.0023003943
0.002235712
0.0022556791
0.0023106321
0.0022711718
0.0022728697
0.0023239978
0.0023628266
0.0023382106
0.002268923
0.002284354
0.0022784058
0.0022897606
0.0022459743
0.0022743788
0.0023423051
0.002345449
0.0022957865
0.0023286327
0.0023578344
0.0023379398
0.002333537
0.002354278
0.0023946668
0.0024196922
0.0025446834
0.0029120544
0.0032176548
0.0028357746
0.0027048286
0.0026768158
0.0026350422
0.0026125174
0.0026182253
0.002638576
0.0026063586
0.0025721988
0.0026233706
0.0026203762
0.0025480837
0.0025176775
0.0025630036
0.0025511155
0.002558158
0.0025430542
0.0026151191
0.0026418472
0.0026012757
0.0025481685
0.0025442904
0.0025867335
0.0025290272
0.0025067582
0.0025758135
0.0025968289
0.0025725429
0.0025793236
0.002586743
0.0026231383
0.0025680925
0.0025597154
0.002561321
0.0025817066
0.002572649
0.0028771547
0.0031740744
0.00286422
0.0028756575
0.0028561004
0.0028567128
0.002867163
0.0029241419
0.0028881666
0.0028793841
0.0028725005
0.0028954059
0.0028742557
0.0028011585
0.00282587
0.0028860851
0.0028406153
0.0028469937
0.0029017338
0.0029439271
0.0029150213
0.0028408706
0.0028551395
0.0028469512
0.0028591482
0.0028126994
0.0028451291
0.0029214933
0.0029243608
0.0028720916
0.0029073092
0.0029425673
0.0029217288
0.0029152318
0.0029391617
0.0029829414
0.0030134804
0.0031502728
0.0035442693
0.0038878182
0.0034855201
0.0033448337
0.0033128452
0.0032675646
0.0032414345
0.0032495704
0.0032709769
0.0032324655
0.0031960226
0.0032492511
0.0032459611
0.0031659172
0.0031316715
0.0031787692
0.0031664593
0.0031761014
0.0031618917
0.0032386689
0.0032698838
0.003226118
0.0031697813
0.0031608587
0.0032088278
0.0031466337
0.0031195133
0.0031962375
0.003217336
0.0031960733
0.0032031093
0.0032130971
0.0032484235
0.0031897103
0.0031769413
0.0031736202
0.0031916241
0.0031769146
0.0034897872
0.0038244593
0.0035111777
0.0035296954
0.0035146812
0.0035217466
0.0035371181
0.0035968995
0.0035626956
0.0035518929
0.0035444336
0.0035634369
0.0035429601
0.0034628211
0.0034920798
0.0035562639
0.0035056741
0.0035172021
0.0035750167
0.0036206337
0.0035866829
0.0035076947
0.0035216795
0.0035108391
0.0035228835
0.0034757763
0.0035111285
0.0035951211
0.0035985819
0.0035446294
0.0035824855
0.0036239569
0.0036021793
0.0035924882
0.0036205425
0.0036670371
0.0036993798
0.0038431915
0.0042516558
0.0046350876
0.0042226893
0.0040777302
0.0040455277
0.0039972107
0.003969169
0.0039786159
0.0040014697
0.0039563831
0.0039181069
0.0039714858
0.0039672295
0.0038812486
0.0038454906
0.0038906195
0.0038805151
0.00389095
0.0038789263
0.0039580418
0.0039956467
0.0039474146
0.0038894038
0.0038740419
0.0039269772
0.0038623871
0.0038315575
0.0039133459
0.0039340486
0.003918233
0.0039242122
0.0039378186
0.0039707374
0.0039090305
0.0038897364
0.0038804207
0.0038905509
0.0038675758
0.0041806506
0.0045576202
0.0042468653
0.0042760313
0.0042706333
0.0042821771
0.0043063985
0.0043689069
0.0043378529
0.0043215203
0.0043174143
0.0043294193
0.0043088706
0.0042262915
0.0042580998
0.0043221312
0.0042677951
0.0042869915
0.0043450758
0.0043955067
0.0043545137
0.004275562
0.0042856319
0.0042754574
0.0042836728
0.0042407125
0.0042760126
0.0043640535
0.0043696563
0.0043169373
0.0043554515
0.0044048768
0.0043805657
0.004371282
0.0043993438
0.0044479722
0.0044798431
0.004624988
0.0050410686
0.0054673137
0.005050713
0.0049062926
0.0048749842
0.0048263621
0.0047990112
0.0048075734
0.0048317385
0.0047805529
0.0047413974
0.0047926735
0.004785848
0.0046957792
0.0046615363
0.0047015584
0.0046957199
0.0047051732
0.0046975978
0.0047754907
0.0048204036
0.0047673543
0.0047097832
0.0046863393
0.0047427571
0.0046791219
0.0046453363
0.0047301528
0.0047503733
0.0047418873
0.0047449506
0.0047629941
0.0047922095
0.0047297836
0.0046994979
0.0046854027
0.0046848061
0.0046505407
0.0049574098
0.0053784131
0.0050770227
0.0051172365
0.0051248944
0.0051432447
0.0051786956
0.0052427845
0.0052143667
0.0051945968
0.005192157
0.0051987678
0.0051774427
0.0050906741
0.0051259737
0.0051908891
0.0051309011
0.0051582391
0.0052155742
0.0052699001
0.0052221324
0.0051454591
0.0051507236
0.0051417338
0.0051453884
0.0051083682
0.0051419964
0.005233111
0.0052417642
0.0051912814
0.0052319343
0.0052839762
0.0052606299
0.0052526483
0.0052791701
0.0053277481
0.0053578161
0.0055003649
0.0059170269
0.006387019
0.0059742445
0.0058323286
0.0058031879
0.0057587546
0.0057321207
0.0057390323
0.0057618009
0.0057074688
0.0056668183
0.005715978
0.0057059058
0.0056117052
0.0055811408
0.0056143561
0.0056134135
0.0056214044
0.0056189906
0.0056934662
0.005744084
0.0056886107
0.0056324278
0.0056005315
0.0056620827
0.005598566
0.0055628715
0.0056486786
0.0056706635
0.0056681234
0.0056695435
0.0056896562
0.0057166922
0.0056531829
0.0056112935
0.0055892324
0.0055750917
0.0055268848
0.0058246025
0.006292142
0.0060014773
0.0060559859
0.0060780278
0.0061044553
0.0061526465
0.006215706
0.0061905737
0.0061709157
0.0061694281
0.0061680258
0.0061461618
0.0060612916
0.0060965977
0.0061586744
0.0060966811
0.0061316639
0.0061868946
0.0062446601
0.0061907392
0.006118536
0.0061184119
0.0061111103
0.0061096012
0.0060800999
0.0061067909
0.0062045012
0.0062159249
0.0061690613
0.0062088886
0.006265376
0.0062437593
0.0062374759
0.006263433
0.0063033519
0.0063316971
0.0064719343
0.0068810739
0.007395098
0.0069909743
0.0068568674
0.006828079
0.0067933274
0.0067687121
0.0067736853
0.0067948023
0.0067370373
0.0066951864
0.0067423841
0.0067296954
0.0066274464
0.0066049911
0.0066299311
0.0066343863
0.006640514
0.0066435724
0.0067126964
0.0067673623
0.0067109831
0.0066558601
0.0066176963
0.0066804531
0.0066198564
0.0065853389
0.006668732
0.0066921502
0.0066960345
0.0066957798
0.0067180535
0.0067413033
0.0066772034
0.0066228809
0.0065911585
0.0065605838
0.0065010073
0.0067842087
0.0072967937
0.007024297
0.0070890817
0.0071294323
0.0071678071
0.0072278378
0.007292759
0.0072718586
0.0072461543
0.0072491374
0.007242927
0.0072176262
0.0071352045
0.0071693113
0.0072276687
0.0071647794
0.0072067309
0.0072615351
0.0073147411
0.0072605034
0.0071942643
0.0071889171
0.0071834143
0.0071764886
0.0071559618
0.007175269
0.0072818599
0.0072948496
0.0072475707
0.0072917067
0.0073502683
0.0073300923
0.007325025
0.0073493061
0.007377249
0.0074062449
0.00753418
0.0079335401
0.0084914996
0.0080990639
0.0079798698
0.0079528661
0.0079278852
0.0079062308
0.007911052
0.007931839
0.0078692823
0.0078269249
0.0078699321
0.0078592956
0.0077477729
0.0077323036
0.0077477072
0.0077580009
0.007762021
0.0077703697
0.0078326909
0.0078865206
0.0078331989
0.0077793354
0.007738825
0.0077997203
0.0077414608
0.0077105675
0.0077911058
0.0078184946
0.0078249527
0.0078226083
0.0078481524
0.007868331
0.0078008096
0.0077390147
0.0076897277
0.0076411592
0.0075710863
0.0078355617
0.0083920969
0.0081412745
0.008216689
0.0082746279
0.0083348042
0.0083982178
0.0084697995
0.0084497625
0.0084245197
0.0084257234
0.008420196
0.0083907937
0.0083103036
0.0083394543
0.0083966001
0.0083373602
0.0083763536
0.0084289098
0.0084826241
0.0084307099
0.0083706858
0.008361374
0.0083570506
0.0083447449
0.0083339171
0.0083464118
0.0084608646
0.0084703749
0.0084315778
0.0084718437
0.0085396399
0.0085169532
0.0085133185
0.0085310753
0.0085508276
0.0085766265
0.0086863368
0.0090738758
0.0096748566
0.0092959926
0.0091962139
0.0091718635
0.0091597341
0.0091420026
0.0091486718
0.009167603
0.0091002025
0.0090608226
0.0090940929
0.0090860541
0.008968654
0.0089603672
0.0089655158
0.0089801399
0.0089843102
0.0089947517
0.0090520725
0.0091023646
0.0090481734
0.0089975647
0.0089600162
0.0090175025
0.0089610527
0.0089339007
0.0090140582
0.009043532
0.009052194
0.0090477247
0.0090772693
0.0090911043
0.0090208868
0.0089547415
0.0088824339
0.0088151284
0.0087345826
0.0089738029
0.0095762399
0.0093506862
0.0094363268
0.009514346
0.0095974391
0.009667641
0.0097349644
0.0097283725
0.0096959718
0.0097036515
0.0096909686
0.0096620859
0.0095832755
0.0096081907
0.0096623559
0.0096079646
0.0096440227
0.0096909042
0.0097456863
0.0096978381
0.0096443704
0.0096320709
0.0096290429
0.0096115726
0.009610094
0.0096156357
0.0097363645
0.0097422168
0.0097141668
0.0097532059
0.0098184767
0.0098051756
0.0097944706
0.0098130626
0.0098158882
0.0098392139
0.0099294629
0.010300092
0.010942504
0.010586241
0.010501173
0.010482307
0.010485881
0.010471636
0.010481407
0.01049218
0.010425916
0.010390606
0.0104123
0.010405802
0.01028799
0.010282378
0.010280057
0.01029753
0.010305498
0.010312973
0.010369056
0.010411258
0.010356124
0.010314835
0.010275741
0.01033041
0.010277733
0.010251657
0.010335766
0.010363295
0.010374882
0.010365522
0.010402453
0.010401273
0.010333552
0.010262351
0.010167863
0.01007977
0.0099888536
0.010205465
0.010848465
0.010648648
0.010744056
0.010843147
0.010950399
0.011022563
0.011088513
0.011097865
0.011056587
0.011068376
0.011059292
0.01103143
0.010942014
0.01097088
0.011020494
0.010966725
0.011008742
0.011042917
0.011098502
0.011061951
0.011003291
0.011000914
0.010988005
0.010971287
0.010978728
0.010982937
0.011095806
0.011105266
0.011089666
0.011122297
0.011187269
0.011179808
0.011172241
0.011180732
0.011170433
0.011184969
0.011263718
0.011608154
0.012288767
0.011960853
0.01188824
0.011881256
0.011898352
0.011890115
0.011901169
0.011904836
0.011839
0.011809875
0.011818327
0.011808278
0.011699027
0.011691581
0.01168622
0.011702245
0.011717338
0.011714891
0.011775459
0.011809375
0.011749972
0.011719751
0.011681423
0.011733286
0.011687923
0.011653821
0.01174784
0.011772646
0.011784983
0.011770789
0.011813487
0.011797642
0.011731275
0.011655658
0.011541007
0.011430266
0.011329105
0.011514736
0.012199073
0.01202978
0.012140858
0.012259386
0.01238133
0.012460479
0.012531169
0.012549885
0.012507844
0.012522577
0.012506737
0.012485585
0.012388449
0.012425889
0.012471263
0.012416634
0.012452377
0.012480184
0.012538094
0.012510321
0.012449291
0.012455338
0.012440017
0.012422713
0.012423357
0.012435633
0.012545831
0.012552399
0.012550222
0.012576779
0.01264724
0.012643254
0.012628375
0.012636705
0.012614207
0.012611857
0.012675956
0.012991206
0.013706024
0.013407908
0.013352105
0.013365117
0.013388953
0.013387438
0.013399202
0.013402248
0.013336062
0.013309516
0.013303886
0.013296347
0.013191264
0.013176914
0.013174007
0.013196378
0.013207701
0.01320516
0.013259416
0.013283955
0.013226197
0.013201373
0.013170347
0.01322203
0.013182564
0.013144537
0.013237887
0.013261875
0.013274069
0.013262753
0.013299817
0.013276868
0.01321097
0.013128072
0.012991763
0.012864277
0.012749412
0.01290902
0.013632377
0.013485515
0.013603865
0.013741553
0.013891485
0.013977094
0.014037854
0.01406682
0.014034743
0.014043199
0.014034369
0.014008154
0.013917988
0.013955478
0.01398886
0.013941327
0.013966596
0.013988336
0.014046666
0.014026498
0.013978742
0.013978101
0.013970647
0.013944332
0.013946042
0.013963594
0.014063179
0.014073725
0.014084788
0.014112621
0.01417297
0.014172451
0.014163314
0.014158823
0.014131386
0.014108627
0.014157311
0.014440707
0.015184742
0.014916808
0.014882153
0.014911542
0.014941911
0.014954095
0.014959596
0.014958406
0.0149041
0.014874386
0.014857741
0.014844872
0.01475086
0.014730648
0.014728918
0.014760351
0.014762501
0.014767657
0.014807868
0.014824812
0.014765678
0.014746966
0.014727757
0.014770436
0.014742724
0.014706371
0.014792144
0.014821525
0.014825793
0.014821539
0.014847547
0.014813046
0.014757243
0.014669663
0.014505636
0.014358843
0.014237348
0.014376235
0.015130364
0.015005215
0.015128174
0.01528455
0.015459979
0.015551628
0.015600938
0.015642053
0.015621486
0.015622289
0.015621706
0.015590253
0.015508124
0.01554445
0.015565459
0.0155284
0.015545166
0.015557299
0.015616024
0.015603773
0.015570352
0.015561368
0.015563782
0.015528221
0.015534831
0.015553731
0.015640183
0.015655908
0.015679121
0.015708934
0.015757102
0.015761018
0.015756518
0.015738374
0.015706117
0.015669331
0.015689858
0.015945823
0.016712908
0.016476788
0.016462613
0.016505736
0.016548946
0.016568499
0.016572061
0.016566771
0.016524754
0.016489257
0.016469284
0.016450414
0.016363159
0.016344387
0.016342515
0.016378816
0.016370001
0.01638409
0.016409636
0.016420593
0.016360637
0.016353795
0.016340599
0.016371176
0.01635181
0.016320429
0.01639769
0.016432549
0.016427992
0.016431983
0.016446163
0.0163993
0.016351398
0.016260003
0.016073853
0.015909848
0.015781263
0.015901645
0.016678925
0.016568822
0.01670201
0.016873213
0.017069182
0.017159617
0.017205984
0.017259521
0.017250955
0.017243368
0.017250566
0.017214505
0.0171416
0.017169131
0.017185805
0.01716192
0.017172147
0.017176516
0.017240795
0.017225657
0.01720688
0.017188886
0.017201594
0.017165126
0.017162026
0.017182498
0.017267596
0.017291048
0.017306419
0.017348457
0.017384907
0.017391474
0.017390134
0.01736685
0.017312148
0.017264922
0.01727295
0.01749338
0.018274629
0.018075139
0.01807261
0.018127511
0.018189795
0.018210741
0.018219768
0.018211929
0.018177955
0.018132277
0.018117997
0.018090684
0.018011801
0.017986242
0.01799306
0.018029354
0.018012183
0.01803588
0.018046268
0.018060714
0.018002627
0.017999602
0.017989865
0.018006608
0.017991145
0.017968504
0.018035296
0.01807286
0.018062594
0.018075316
0.018077401
0.018018669
0.017976156
0.017879138
0.017683173
0.017505062
0.017368347
0.017470619
0.018262661
0.018174404
0.018316852
0.018497459
0.018693257
0.018796952
0.018837229
0.018899101
0.018902435
0.018885238
0.018899827
0.018859871
0.01879874
0.01881804
0.018831005
0.01882144
0.01883277
0.018832604
0.018882816
0.018871316
0.018867602
0.018839479
0.0188622
0.018825917
0.018817238
0.018845439
0.018923282
0.018950042
0.01896534
0.019012809
0.019044675
0.019051931
0.019031753
0.019016916
0.018950121
0.018884756
0.01888116
0.019064554
0.019849838
0.019687989
0.019696122
0.019772502
0.019838678
0.019855917
0.019878014
0.019875117
0.019841319
0.019797546
0.01977623
0.019748717
0.019679395