/*--------------------------------*- C++ -*----------------------------------*\
| =========                 |                                                 |
| \\      /  F ield         | OpenFOAM: The Open Source CFD Toolbox           |
|  \\    /   O peration     | Version:  v2012                                 |
|   \\  /    A nd           | Website:  www.openfoam.com                      |
|    \\/     M anipulation  |                                                 |
\*---------------------------------------------------------------------------*/
FoamFile
{
    version     2.0;
    format      ascii;
    class       volScalarField;
    location    "100";
    object      omega;
}
// * * * * * * * * * * * * * * * * * * * * * * * * * * * * * * * * * * * * * //

dimensions      [0 0 -1 0 0 0 0];


internalField   nonuniform List<scalar> 
24880
(
25.204202
24.871075
24.549966
24.240088
23.940783
23.651369
23.371194
23.099666
22.836248
22.580445
22.331807
22.089918
21.854403
21.624913
21.401139
21.182802
20.969653
20.761465
20.558029
20.359162
20.16469
19.974454
19.788307
19.606105
19.427711
19.252976
19.081717
18.913716
18.74858
18.586029
18.42539
18.268579
18.114191
17.971373
17.834245
17.712814
17.601089
17.505826
16.752795
16.007952
16.172081
15.870915
16.156448
15.884903
16.183512
15.886271
16.164917
15.874531
16.171825
15.918173
16.211552
15.904223
16.170445
15.861323
16.115622
15.825225
16.064126
15.74434
15.941643
15.669104
15.890019
15.874276
16.453892
17.310282
18.644245
19.763863
18.681685
15.004041
12.72432
11.745094
11.830715
11.390106
11.811743
11.473877
12.176518
12.452998
12.46858
11.697103
12.43482
12.532994
12.613663
12.584166
12.621936
12.636075
12.597916
12.547549
12.611792
12.543414
12.518247
12.457638
12.388628
11.578499
12.325135
12.557301
12.555461
12.564717
12.580187
12.586256
12.556593
12.589621
12.59506
12.608428
12.594255
12.612833
12.660253
12.654324
12.629649
12.657916
12.666498
12.642285
12.624508
12.638758
12.687531
12.67876
12.684599
12.678865
12.719329
12.704535
12.672768
12.672899
12.709915
12.691781
12.685068
12.699347
12.698594
12.693753
12.671534
12.663429
12.601501
12.353024
11.620326
12.142432
11.544874
12.193979
11.652604
12.351267
11.84511
12.582273
12.003859
12.745952
12.338603
13.398411
14.300315
15.498392
16.690851
16.00771
14.863328
13.819773
13.176828
12.418768
12.582426
12.153415
12.402301
11.996439
12.014094
11.711479
11.792062
11.562243
11.681623
11.817647
11.682832
11.914258
11.805197
11.919664
12.011344
12.218973
12.029062
12.308557
12.444273
12.830596
13.438968
14.292679
15.320571
15.106991
14.124014
13.295136
12.760642
12.51084
12.349687
12.1911
12.167754
12.06287
11.872747
11.82927
11.925107
11.817321
12.050395
11.970152
11.873267
11.914307
11.795878
11.767754
11.866702
12.010128
12.002059
12.149613
12.392671
12.750149
13.126346
13.869761
14.984427
14.96677
13.753838
13.035538
12.648768
12.320221
12.121175
11.93819
11.969035
11.89547
11.741315
11.782941
11.81876
11.946242
12.095035
12.196445
12.030869
11.95062
11.80885
11.766641
11.883483
11.939069
11.886367
12.087904
12.372801
12.616738
12.955684
13.776378
14.987388
15.020916
13.775268
12.963884
12.591228
12.300268
12.114055
11.936973
11.957812
11.958189
11.874336
11.925514
11.948261
12.042005
12.039856
11.938539
11.908902
11.987378
11.918753
11.871853
11.860393
11.930261
11.878077
12.033356
12.357174
12.573541
12.942933
13.78337
14.955711
14.986289
13.814364
12.984831
12.51648
12.212088
11.95798
11.837219
11.884789
11.920885
11.836835
11.902159
11.876448
11.880238
12.094364
12.275229
12.120936
11.969217
11.863278
11.757166
11.839274
11.929194
11.794722
11.954674
12.180588
12.509505
12.918796
13.771081
14.930396
14.933646
13.788859
12.99367
12.555836
12.273412
12.087962
11.934252
11.928883
11.854829
11.806891
11.888703
11.909467
12.013126
12.000521
11.962024
11.816012
11.869291
11.840557
11.830205
11.867812
11.964835
11.899226
12.073775
12.280834
12.558102
13.045171
13.806672
14.971207
15.043282
13.796421
12.947152
12.471291
12.258226
12.072312
11.935063
11.929913
11.944255
11.850253
11.832895
11.884246
12.004122
12.182673
12.181208
12.048528
11.993397
11.832529
11.842524
11.96237
12.022648
11.945429
12.075693
12.324274
12.562292
12.89566
13.628486
14.872695
14.927391
13.711686
12.874641
12.413749
12.17559
11.95263
11.84146
11.955352
11.973837
11.915724
11.927496
11.945421
12.063078
12.066772
12.107178
12.067096
11.996092
11.943437
11.927191
11.904283
11.916528
11.777807
11.996358
12.204253
12.425782
12.872613
13.744114
14.944572
14.914693
13.644624
12.871281
12.456827
12.219907
11.992319
11.842612
11.972974
11.876299
11.789516
11.934875
11.843765
12.054778
12.049313
12.198733
12.099611
12.018204
11.948643
11.792948
11.842386
11.93
11.872053
12.029431
12.20712
12.465814
12.884273
13.677732
14.89249
14.878029
13.570768
12.787615
12.355128
12.193549
11.967621
11.835676
11.915972
11.869865
11.772995
11.871294
11.829216
12.022844
11.948583
11.884168
11.949542
11.907788
11.808537
11.807168
11.754992
11.849303
11.763971
12.028101
12.210493
12.303184
12.720235
13.518251
14.776475
14.72396
13.469115
12.747473
12.412368
12.224397
11.951737
11.820631
11.898832
11.783729
11.740989
11.787618
11.864255
11.91756
11.940025
12.122959
11.951574
11.89576
11.718737
11.668135
11.734769
11.843699
11.82568
12.053517
12.239301
12.402558
12.728618
13.419233
14.641637
14.631232
13.541244
12.9073
12.540954
12.327757
12.043607
11.862747
11.909895
11.774683
11.721038
11.754259
11.789829
11.873172
12.046306
11.876689
11.703652
11.788711
11.716021
11.734906
11.713507
11.888884
11.813541
12.150741
12.481452
12.910152
13.439302
14.092672
14.983861
15.820895
15.209466
14.858487
13.855285
12.877533
12.236051
11.827293
11.864456
11.754708
11.776425
11.729915
11.74266
11.795834
12.132777
12.115821
11.92837
11.897866
11.683067
11.674175
11.840882
11.87585
11.900379
12.338108
13.285744
14.684416
16.441269
17.354797
17.029864
18.816095
18.179434
16.999883
15.195644
13.468095
12.433595
11.958056
11.776993
11.756935
11.75454
11.710021
11.834523
11.905575
11.991752
11.882802
11.797017
11.850259
11.685567
11.701517
11.709331
11.819333
11.854628
12.304201
13.099953
14.295579
15.948504
17.481666
19.215189
16.530123
14.97262
13.949072
13.220492
12.564708
12.007546
11.738
11.835703
11.711482
11.594909
11.634137
11.76445
11.739091
12.019763
12.020327
11.819716
11.80117
11.583825
11.583997
11.724786
11.735348
11.630822
11.900628
12.161447
12.391699
12.679329
13.095846
13.809876
12.462519
12.29563
12.137111
12.076676
12.045989
11.794634
11.653512
11.817463
11.726572
11.605321
11.57993
11.763914
11.802639
11.9635
11.793259
11.702323
11.738233
11.565883
11.586258
11.537047
11.72356
11.528722
11.670548
11.800549
11.851203
11.775924
11.874574
11.847324
11.757359
11.793985
11.785315
11.809341
11.746872
11.640218
11.644496
11.724786
11.537859
11.53866
11.575869
11.806012
11.795198
11.979141
11.991791
11.824303
11.814708
11.58569
11.575863
11.551478
11.699116
11.60287
11.650248
11.732112
11.766247
11.65335
11.703458
11.558814
11.669403
11.668358
11.665301
11.771976
11.77894
11.721079
11.714034
11.705416
11.653991
11.687453
11.6688
11.866216
11.823742
11.953704
11.752775
11.643723
11.676201
11.617582
11.730208
11.737813
11.734764
11.755983
11.812675
11.83723
11.810024
11.700037
11.793174
11.737356
11.995311
11.874459
11.738932
11.947371
11.939236
11.87461
11.855923
11.915244
11.872842
11.783818
11.720979
11.761144
11.765263
11.982793
12.030232
11.882606
11.881535
11.893403
12.05508
11.973962
12.046939
12.140971
12.072939
12.044945
12.066995
11.886969
12.011811
11.893112
11.795429
12.343793
12.233156
12.120925
12.008267
11.893908
11.776749
11.656369
11.532294
11.404362
11.274079
11.141894
11.008646
10.874636
10.739894
10.606835
10.475174
10.344706
10.216616
10.090832
9.9682275
9.8485367
9.7327818
9.6207938
9.51252
9.4089735
9.3102648
9.2168351
9.1289591
9.0466957
8.9703709
8.9001234
8.8361953
8.778637
8.7273313
8.6831036
8.6453795
8.613674
8.5784494
8.5981618
8.6236923
8.6550675
8.6922099
8.7350759
8.783531
8.8374693
8.8966979
8.9610596
9.0303168
9.1042671
9.1826347
9.2651738
9.3515758
9.4415624
9.5347985
9.630973
9.7297217
9.8306981
9.9335096
10.037775
10.143076
10.249002
10.355114
10.460975
10.566121
10.670079
10.772334
10.872408
10.969872
11.064805
11.156938
11.248868
11.339696
11.43656
11.530432
12.020542
11.891938
11.763498
11.637787
11.51439
11.392171
11.26976
11.146799
11.023399
10.899926
10.776806
10.654422
10.533114
10.413152
10.294849
10.178449
10.064216
9.952407
9.8433171
9.7372026
9.6343172
9.5349164
9.439238
9.3475127
9.2600042
9.1768965
9.0984759
9.0249621
8.9565684
8.8934802
8.8358703
8.7839015
8.7376918
8.6972603
8.6627924
8.6342304
8.610717
8.6179694
8.6385488
8.6646573
8.6962947
8.73346
8.7760575
8.8239687
8.8770457
8.9351023
8.9979342
9.0653114
9.1369893
9.2127027
9.2921085
9.3749643
9.4609755
9.5498461
9.6412739
9.7349412
9.830525
9.9276902
10.026057
10.125275
10.224995
10.324892
10.424579
10.523712
10.621922
10.718856
10.814132
10.907464
10.998769
11.0883
11.177321
11.266362
11.356873
11.450591
12.081662
11.954298
11.82455
11.697203
11.572025
11.447298
11.322422
11.196951
11.070567
10.945563
10.821202
10.697823
10.575779
10.455348
10.336844
10.220487
10.106535
9.9951912
9.8867241
9.7813573
9.6793118
9.5808116
9.4860579
9.3952491
9.3086191
9.2263234
9.1486318
9.0757448
9.0078578
8.9451529
8.8877954
8.8359397
8.7897088
8.7491461
8.7144212
8.6855246
8.6615646
8.6929735
8.7140348
8.7406431
8.7727836
8.8104048
8.8534149
8.9016832
8.9550559
9.0133476
9.0762879
9.1436453
9.2151852
9.290716
9.3699086
9.4525406
9.5383383
9.6270728
9.7183831
9.8119552
9.9074747
10.004642
10.103074
10.202446
10.302415
10.402711
10.503637
10.604281
10.704193
10.803021
10.900326
10.995841
11.089464
11.181387
11.271755
11.36239
11.456059
11.554425
12.236733
12.113564
11.988623
11.86503
11.74247
11.620448
11.496909
11.37217
11.246143
11.119044
10.99205
10.865665
10.740325
10.616399
10.494238
10.374185
10.256541
10.141418
10.029685
9.921287
9.8156514
9.7153464
9.619072
9.5268173
9.438823
9.3552535
9.2763648
9.2023493
9.133405
9.069621
9.0112527
8.9583998
8.9111669
8.8695538
8.833849
8.8039377
8.7789506
8.8695363
8.8915932
8.919175
8.9522918
8.9910657
9.0350686
9.0842116
9.1383992
9.1977553
9.2625663
9.3322384
9.4064585
9.4849896
9.5674268
9.6535098
9.7428602
9.8351589
9.9291065
10.024758
10.121983
10.220704
10.320301
10.420476
10.52091
10.621423
10.721355
10.820407
10.91843
11.015453
11.110667
11.20376
11.294631
11.383469
11.470596
11.558249
11.650036
11.748163
12.463045
12.341509
12.222134
12.105327
11.989514
11.873855
11.756284
11.637053
11.515981
11.393247
11.270017
11.146808
11.024083
10.902294
10.781834
10.663096
10.54639
10.43198
10.320559
10.212172
10.106585
10.005712
9.9082959
9.8139715
9.7239307
9.6384654
9.5577854
9.4819761
9.4113377
9.3460116
9.2861556
9.2319429
9.1834029
9.1406554
9.1038802
9.0730086
9.0477304
9.2890252
9.3069202
9.3298101
9.3578717
9.3914197
9.430767
9.4755118
9.5254125
9.580262
9.6389916
9.7017288
9.7683218
9.8386568
9.9124641
9.9894935
10.069469
10.152301
10.238405
10.326911
10.417421
10.509617
10.603021
10.69644
10.789797
10.883084
10.97647
11.068418
11.158832
11.247452
11.333916
11.417934
11.499447
11.578833
11.65748
11.737095
11.821214
11.911913
12.634544
12.522543
12.41336
12.307412
12.203421
12.099627
11.99492
11.888991
11.782043
11.674491
11.566825
11.45949
11.35287
11.247367
11.143339
11.041088
10.940922
10.843185
10.748214
10.656275
10.567592
10.482332
10.401026
10.323655
10.249983
10.1816
10.117372
10.057018
10.001492
9.9509251
9.9056481
9.8657367
9.8313174
9.8024721
9.7792692
9.7616837
9.7494662
10.513278
10.506476
10.505156
10.509198
10.518556
10.53251
10.551166
10.574625
10.603172
10.635594
10.672325
10.713456
10.758514
10.806502
10.857428
10.911166
10.967655
11.026385
11.087161
11.149943
11.214841
11.280429
11.346655
11.413322
11.480184
11.546926
11.613226
11.678745
11.743156
11.805974
11.8669
11.926012
11.984131
12.042218
12.102714
12.169335
12.247295
13.322014
13.246868
13.175931
13.109482
13.045758
12.982739
12.919005
12.854096
12.788266
12.721869
12.655264
12.588808
12.522864
12.457774
12.39386
12.331464
12.270915
12.212504
12.156578
12.103453
12.053366
12.006533
11.963503
11.924338
11.888969
11.858699
11.832885
11.811351
11.794576
11.78367
11.778055
11.77753
11.782546
11.793991
11.811327
11.834451
11.86387
8.5006165
8.525994
8.5574969
8.5950415
8.6386014
8.6880077
8.7431479
8.8037983
8.8697775
8.9408032
9.0166386
9.0969424
9.1814448
9.269774
9.361615
9.4565718
9.5542944
9.6542957
9.7561936
9.8596111
9.9641302
10.069322
10.174743
10.279981
10.384602
10.488168
10.590252
10.690385
10.78811
10.882995
10.974637
11.063281
11.148759
11.233789
11.317578
11.407992
11.495023
12.210418
12.432436
12.42755
12.438393
12.452371
12.459145
12.429427
12.462387
12.468546
12.481502
12.467955
12.486299
12.535351
12.528762
12.503381
12.532515
12.540416
12.515594
12.497117
12.512061
12.561701
12.553035
12.5591
12.553589
12.594202
12.579219
12.545757
12.545829
12.583281
12.564835
12.557326
12.57119
12.570831
12.563317
12.541858
12.531681
12.469697
12.228861
12.093862
12.335546
12.399021
12.410536
12.432439
12.440831
12.440958
12.427095
12.43559
12.453966
12.416482
12.416138
12.451279
12.466624
12.425821
12.431029
12.424937
12.433195
12.383135
12.367273
12.386581
12.411649
12.40477
12.374532
12.400548
12.408071
12.35724
12.339218
12.352096
12.339326
12.332661
12.300174
12.329977
12.32367
12.310865
12.299959
12.305713
12.084468
11.961223
12.179849
12.173467
12.184227
12.196466
12.20193
12.172262
12.203737
12.211156
12.22343
12.211589
12.229292
12.281571
12.273139
12.246693
12.277953
12.283682
12.258593
12.238551
12.255339
12.305372
12.297778
12.303872
12.299177
12.339802
12.324207
12.287612
12.288231
12.325485
12.307364
12.297887
12.311765
12.311638
12.302421
12.279787
12.267003
12.202028
11.960823
11.833175
12.071377
12.137002
12.150531
12.173495
12.183788
12.183535
12.169641
12.18016
12.198038
12.161161
12.160481
12.198269
12.21392
12.173845
12.177852
12.171673
12.178892
12.128815
12.111079
12.131777
12.156801
12.152225
12.120269
12.14682
12.156059
12.102693
12.085369
12.096028
12.084272
12.076158
12.045882
12.075198
12.070719
12.059328
12.04898
12.056106
11.84195
11.724576
11.933002
11.925125
11.934489
11.944503
11.947818
11.919236
11.948041
11.956708
11.968009
11.9588
11.975545
12.02971
12.019863
11.993309
12.0259
12.029316
12.004501
11.983107
12.001915
12.051676
12.044977
12.051093
12.04801
12.087104
12.07179
12.032821
12.033685
12.069989
12.052362
12.040984
12.054797
12.055424
12.04429
12.021252
12.007419
11.941492
11.707338
11.582407
11.810874
11.876205
11.890155
11.913364
11.924523
11.924161
11.910181
11.922609
11.939539
11.904387
11.90356
11.942836
11.957468
11.92026
11.921738
11.916309
11.921775
11.873292
11.85316
11.875425
11.899463
11.897648
11.864629
11.890498
11.900643
11.846559
11.830039
11.837444
11.827347
11.817371
11.790174
11.818258
11.816602
11.807399
11.799757
11.808505
11.606703
11.487165
11.681163
11.670958
11.677037
11.68538
11.685085
11.65805
11.683386
11.694544
11.703356
11.697942
11.714088
11.767603
11.757454
11.732677
11.765658
11.765957
11.742784
11.719963
11.741185
11.788188
11.783931
11.78879
11.788861
11.824044
11.810472
11.770937
11.771564
11.805487
11.789357
11.775713
11.789934
11.790162
11.778965
11.756287
11.742289
11.678054
11.455747
11.328094
11.542635
11.605282
11.619236
11.641238
11.652233
11.652275
11.638444
11.652311
11.667752
11.635393
11.634876
11.674547
11.686832
11.654006
11.652261
11.648075
11.650956
11.605837
11.583468
11.606853
11.628918
11.630189
11.597103
11.620817
11.631262
11.577955
11.562213
11.565801
11.557887
11.54597
11.522472
11.548074
11.550571
11.543263
11.539065
11.550248
11.364999
11.24101
11.416825
11.404427
11.40654
11.412201
11.407995
11.383265
11.405282
11.417927
11.425138
11.42275
11.438599
11.491381
11.480913
11.45773
11.491289
11.488685
11.467648
11.444343
11.467321
11.510462
11.508841
11.512532
11.515801
11.546237
11.535072
11.495733
11.495958
11.526965
11.511946
11.498165
11.511364
11.511181
11.500414
11.479159
11.465494
11.404937
11.198494
11.068584
11.265539
11.324322
11.337817
11.356968
11.367824
11.368253
11.355614
11.369759
11.38383
11.354405
11.354291
11.393847
11.403114
11.375327
11.370451
11.367354
11.367591
11.326767
11.303311
11.326381
11.346062
11.350114
11.3169
11.3386
11.348654
11.297504
11.28172
11.282214
11.275771
11.262888
11.242553
11.265615
11.271801
11.267577
11.267195
11.281321
11.114337
10.986913
11.143968
11.128883
11.127208
11.129765
11.121861
11.100388
11.118911
11.131772
11.137877
11.139106
11.154579
11.204044
11.194686
11.174452
11.206868
11.202011
11.183607
11.160518
11.184456
11.222966
11.223933
11.226633
11.232914
11.258145
11.250906
11.211195
11.211252
11.238761
11.225895
11.211486
11.223362
11.222896
11.212252
11.195182
11.181835
11.125274
10.937651
10.807529
10.985488
11.03848
11.052012
11.066911
11.077117
11.077804
11.066481
11.080846
11.093395
11.067019
11.066973
11.106926
11.112179
11.089684
11.081979
11.079733
11.077525
11.041523
11.018004
11.039897
11.057265
11.062879
11.031221
11.049982
11.058528
11.010958
10.995281
10.99287
10.987583
10.973841
10.957053
10.977403
10.98677
10.986123
10.989877
11.00541
10.858268
10.730105
10.866622
10.850672
10.844643
10.843056
10.832526
10.813423
10.828362
10.843105
10.847414
10.850927
10.866818
10.912621
10.90476
10.887681
10.918309
10.911871
10.895625
10.875437
10.898153
10.931801
10.934955
10.937011
10.945852
10.965791
10.962044
10.922159
10.922469
10.94755
10.935308
10.921197
10.93178
10.93136
10.921293
10.908912
10.895351
10.845822
10.677311
10.548851
10.707521
10.752966
10.76586
10.776952
10.786209
10.786469
10.776207
10.790892
10.801682
10.779112
10.777842
10.817614
10.819811
10.802481
10.792379
10.790698
10.786463
10.755391
10.733495
10.752928
10.767878
10.773586
10.744615
10.760618
10.767029
10.723279
10.707162
10.703181
10.698799
10.684145
10.670508
10.688861
10.69933
10.704195
10.711892
10.728197
10.601157
10.474247
10.590618
10.573991
10.564417
10.556571
10.546201
10.528262
10.540789
10.555318
10.55993
10.564062
10.580311
10.622572
10.617067
10.602439
10.629896
10.624852
10.611279
10.592609
10.613246
10.642351
10.646968
10.64888
10.659684
10.674745
10.673669
10.634825
10.636578
10.656788
10.647419
10.631972
10.642218
10.641869
10.633745
10.624511
10.612109
10.570716
10.421097
10.295941
10.435788
10.473219
10.484985
10.491915
10.499933
10.4993
10.490553
10.50518
10.513535
10.495894
10.49364
10.531426
10.531188
10.518521
10.50705
10.505026
10.500003
10.472914
10.453431
10.471313
10.48337
10.487803
10.461875
10.475235
10.479821
10.439154
10.423299
10.417989
10.41422
10.398694
10.388749
10.404829
10.415343
10.426249
10.437556
10.454385
10.347609
10.222782
10.319946
10.302942
10.289673
10.276378
10.265417
10.251428
10.258823
10.274781
10.277908
10.284496
10.299806
10.338612
10.334953
10.323247
10.347349
10.343555
10.333366
10.31627
10.334416
10.359287
10.364868
10.366773
10.378917
10.389947
10.390915
10.354244
10.357086
10.372412
10.364857
10.351429
10.358366
10.360122
10.352075
10.347659
10.336509
10.302727
10.172182
10.051794
10.172014
10.203325
10.212994
10.215802
10.222597
10.220997
10.214977
10.227974
10.234024
10.221128
10.218437
10.252442
10.251509
10.242004
10.229976
10.226752
10.222225
10.197957
10.181831
10.198032
10.206055
10.210264
10.187136
10.197454
10.201044
10.16252
10.147885
10.141333
10.138359
10.12169
10.116686
10.129483
10.140097
10.155719
10.170612
10.187786
10.09854
9.9783284
10.058273
10.041146
10.024543
10.006538
9.9962433
9.9851148
9.987916
10.005034
10.007796
10.014005
10.028435
10.066458
10.062646
10.054061
10.075869
10.071427
10.065735
10.050418
10.064702
10.088217
10.091849
10.096175
10.107918
10.115728
10.116958
10.08598
10.087994
10.09874
10.093769
10.081804
10.086774
10.087957
10.082666
10.081399
10.073131
10.044514
9.9335038
9.8193126
9.9206086
9.9467
9.9529184
9.9527691
9.9578065
9.9558209
9.9518915
9.9633157
9.9671514
9.9585915
9.9566936
9.9850655
9.984602
9.9767854
9.9652984
9.9606204
9.9576509
9.9351113
9.9218663
9.9370083
9.9412418
9.9444246
9.9241404
9.9308524
9.935288
9.8980534
9.884522
9.8774429
9.8747464
9.8579499
9.8567228
9.8667875
9.8772869
9.8962597
9.9145223
9.9318671
9.8599592
9.7448136
9.8088479
9.7903896
9.7714852
9.7516651
9.7410162
9.7311568
9.7317896
9.747783
9.7508702
9.7587001
9.7713694
9.8073946
9.8029043
9.797013
9.8167962
9.8145239
9.8113428
9.7976111
9.8091594
9.8303766
9.8330735
9.8376398
9.8492446
9.8575301
9.857043
9.8302283
9.8328095
9.839596
9.8365449
9.8249367
9.8287785
9.831483
9.8267357
9.827909
9.8239253
9.8007967
9.7078331
9.6010727
9.6853304
9.7057129
9.7073274
9.7060124
9.7091213
9.7071102
9.7036345
9.7135956
9.7164428
9.7115476
9.7092687
9.7333401
9.7341166
9.726806
9.7143888
9.7107859
9.7069126
9.6883893
9.6777914
9.6905105
9.6925938
9.6935556
9.6754582
9.6793908
9.6833192
9.649886
9.6367161
9.629619
9.6253281
9.6109675
9.6111368
9.6189859
9.6297837
9.6516703
9.6714133
9.6895931
9.6315244
9.5227563
9.5746843
9.5567474
9.5360296
9.5125868
9.501886
9.4958395
9.4946691
9.507566
9.512831
9.5193641
9.5328186
9.5639399
9.5607913
9.558618
9.574946
9.5753697
9.5742883
9.5624696
9.5719694
9.5880982
9.5929182
9.5957284
9.608557
9.6157311
9.6144664
9.5929723
9.5945827
9.5983264
9.5953824
9.5871905
9.5900378
9.5915948
9.5897598
9.5917647
9.5921141
9.5741018
9.4975817
9.3993278
9.4684981
9.4830542
9.481418
9.478885
9.4792476
9.4782878
9.475837
9.4823738
9.4855062
9.4828367
9.4816985
9.5007482
9.5023217
9.4955261
9.4821813
9.480327
9.4744191
9.460705
9.4519815
9.4629393
9.4631264
9.4613936
9.4468206
9.4474782
9.4497517
9.4210436
9.4071897
9.4013648
9.3949557
9.3836275
9.3855202
9.3899893
9.4004435
9.4252779
9.4466303
9.4642806
9.4171692
9.3167072
9.3582965
9.3412118
9.3191875
9.2937682
9.2831618
9.2803664
9.2776791
9.2877018
9.2949788
9.3003721
9.3143401
9.3409353
9.3393161
9.3402082
9.3530603
9.3553586
9.3565721
9.3466912
9.354411
9.3660725
9.3727794
9.3739661
9.3875114
9.393144
9.3920026
9.3755829
9.3761704
9.3777259
9.3747757
9.3697622
9.3716455
9.3726192
9.3732191
9.3760831
9.3791097
9.3677045
9.3048834
9.2160971
9.2716835
9.2814642
9.2773024
9.272658
9.2719168
9.2709197
9.2692996
9.2729068
9.2766218
9.2744689
9.2743951
9.289739
9.2906973
9.2845062
9.2713949
9.2710813
9.2634834
9.2538809
9.2465148
9.2556096
9.2533982
9.2503719
9.2392042
9.2377339
9.2379148
9.2135171
9.1992429
9.1944651
9.1861924
9.1775436
9.1806919
9.1828391
9.1928645
9.2185957
9.2408378
9.258131
9.220094
9.1291831
9.162971
9.1457034
9.1233409
9.0976431
9.0882401
9.0866774
9.0830369
9.0905877
9.0994926
9.1042215
9.1183256
9.1407934
9.1417237
9.1439074
9.1535376
9.15716
9.1597904
9.1510166
9.1588584
9.1668017
9.1749067
9.1749481
9.18753
9.1941676
9.1931022
9.1793748
9.1787694
9.1815529
9.1771479
9.1746917
9.1760861
9.1768994
9.178219
9.1844493
9.1893602
9.1811444
9.1316339
9.0533099
9.096435
9.1032967
9.0970916
9.0900623
9.0890884
9.0870012
9.0857554
9.0876472
9.0921665
9.0893675
9.0904323
9.1020738
9.1037007
9.0968627
9.0848519
9.0851131
9.0763311
9.0701179
9.0626427
9.0694898
9.0666735
9.0628654
9.0546496
9.0520493
9.0499293
9.0295123
9.0155423
9.0109048
9.0012284
8.9948227
8.9985766
8.9993137
9.0092665
9.0333422
9.0557179
9.0727554
9.0425639
8.9622354
8.9882497
8.9711083
8.9493986
8.9268193
8.9164825
8.9161898
8.91269
8.9182446
8.9284334
8.9328504
8.9467837
8.9654213
8.9683823
8.9715564
8.9785323
8.9822065
8.9854567
8.98056
8.9873564
8.9923685
9.0014357
9.0008145
9.012332
9.0190635
9.0173456
9.006848
9.006066
9.0085754
9.0042565
9.0028656
9.0042028
9.0078035
9.0080952
9.0154025
9.0231377
9.0176772
8.9797764
8.9127103
8.9450706
8.9494387
8.940233
8.9333944
8.9324632
8.928816
8.9268584
8.9283354
8.9316947
8.9301159
8.9308362
8.9392557
8.9404909
8.9351152
8.9242075
8.9238019
8.9150987
8.9112209
8.9048521
8.9080476
8.9052592
8.9008098
8.8945028
8.891413
8.8875714
8.8707614
8.8576344
8.8520201
8.8419147
8.8372533
8.8397766
8.8408679
8.8511315
8.8718308
8.8927458
8.9098073
8.8868189
8.8180796
8.8376782
8.8208913
8.8007224
8.7820963
8.771696
8.7699935
8.7683158
8.7723737
8.7823247
8.7891078
8.801194
8.8164344
8.8207903
8.823755
8.8299049
8.8351311
8.8372886
8.8357266
8.8416119
8.8443863
8.852881
8.8544713
8.8643246
8.8688822
8.8680888
8.8615383
8.8606187
8.8616877
8.8590469
8.8573592
8.8599746
8.8638975
8.8651578
8.8716751
8.881975
8.8788707
8.8508292
8.7956647
8.8192125
8.8212565
8.8098985
8.803853
8.8019596
8.7981481
8.7955633
8.7961871
8.7986642
8.7980669
8.7989701
8.803969
8.8043838
8.8005096
8.7911929
8.7889016
8.7812474
8.7783682
8.7730353
8.7734201
8.7714486
8.7660402
8.7600632
8.7572651
8.7522561
8.7385373
8.727285
8.7195561
8.709788
8.7063879
8.7070799
8.7093976
8.71971
8.7363445
8.755745
8.7719499
8.7547838
8.6983902
8.7128003
8.6969981
8.6786708
8.663489
8.6537185
8.651069
8.6511444
8.6543029
8.6637355
8.6721642
8.6825113
8.6950553
8.7005311
8.7030973
8.7089187
8.71432
8.7164005
8.7164555
8.7218201
8.725039
8.7318344
8.7340464
8.7434306
8.7466788
8.7466981
8.7431782
8.7422688
8.7425102
8.7404704
8.7408743
8.7430564
8.7464531
8.7491854
8.7550219
8.76712
8.7658307
8.7459893
8.7030997
8.7196766
8.7192843
8.7070305
8.7016184
8.6979942
8.6951113
8.692809
8.6919516
8.6940171
8.6929891
8.6939988
8.6971244
8.6968438
8.692994
8.6846757
8.6818842
8.6755924
8.672963
8.6676719
8.6665376
8.6644411
8.6595502
8.6539285
8.6504276
8.6449762
8.6336018
8.6236293
8.6150287
8.6059907
8.6031042
8.6021039
8.6050566
8.6143783
8.6278236
8.6457033
8.6603076
8.6477666
8.6042191
8.6146209
8.6012671
8.583913
8.5721587
8.5631292
8.5601472
8.5619272
8.5646636
8.5734359
8.5816956
8.5916361
8.6020398
8.6075134
8.6119094
8.6172136
8.6215253
8.6238897
8.625977
8.6309856
8.6330167
8.6390539
8.6424339
8.6496461
8.6541429
8.6543772
8.6514031
8.650849
8.6524792
8.6504177
8.6515177
8.6541636
8.6566241
8.660937
8.6661552
8.6782806
8.6802046
8.6659302
8.6354383
8.6473987
8.6442255
8.6324011
8.626984
8.622435
8.6201113
8.6175071
8.6166277
8.6177875
8.6159693
8.6161561
8.6187871
8.618436
8.613407
8.6070178
8.6033617
8.5981556
8.5956144
8.5909668
8.5884144
8.5862551
8.5815857
8.5766012
8.5717869
8.5662823
8.5564215
8.5468042
8.5390286
8.5308636
8.5273838
8.5252202
8.5282365
8.5367597
8.5471422
8.5634257
8.575811
8.5665776
8.5358792
8.5433799
8.5317492
8.5166375
8.5079356
8.5002201
8.4973871
8.4998961
8.5038704
8.5114752
8.51899
8.5281554
8.5375788
8.542929
8.5479829
8.5528486
8.5578999
8.5598147
8.5626464
8.5674662
8.5705157
8.5747906
8.5784426
8.5843634
8.5894992
8.5901825
8.587959
8.5878831
8.5899005
8.5895091
8.5901648
8.5928475
8.5951423
8.5998208
8.6052214
8.6167284
8.6205232
8.6102684
8.5663264
8.567989
8.5670323
8.5621906
8.5565545
8.5529943
8.5492644
8.5459298
8.5414902
8.5387276
8.5362821
8.5316217
8.5265536
8.5216252
8.5159907
8.5073807
8.4983438
8.4913076
8.48386
8.479218
8.4763146
8.4785383
8.4854086
8.4651045
8.4701441
8.4775668
8.4840963
8.4930183
8.501055
8.5068426
8.5115832
8.516843
8.5213146
8.5241902
8.5267692
8.6182892
8.6411916
8.6698211
8.7042382
8.7446127
8.7911639
8.8434994
8.9014022
8.9646948
9.0330964
9.1063702
9.1842172
9.2663092
9.3515793
9.4404739
9.5330456
9.6286912
9.727024
9.8276962
9.9302742
10.034326
10.138709
10.243292
10.347846
10.452158
10.555672
10.658368
10.759938
10.859685
10.956689
11.050682
11.141533
11.229476
11.316327
11.404324
11.495239
11.587814
11.453712
11.68638
11.811913
11.586938
11.721537
11.940563
11.696485
11.826063
11.725797
11.697629
11.576477
11.34828
11.248523
11.473201
11.373222
11.138747
11.056571
11.270469
11.437202
11.252212
11.36727
11.449206
11.534783
11.626288
11.830465
11.721836
11.617502
11.514866
11.343463
11.4239
11.329737
11.409333
11.494179
11.595715
11.506391
11.630158
11.605626
11.516807
11.526735
11.430728
11.390619
11.362555
11.279644
11.357465
11.436561
11.521234
11.61424
11.914049
11.877767
12.299095
12.1262
11.914404
11.808425
11.706277
11.72781
11.781617
11.977998
12.080545
11.992832
12.022331
12.195778
11.780407
11.811687
11.713025
11.606128
11.509823
11.533034
11.61151
11.690744
12.095061
11.985087
11.887163
11.786669
11.563407
11.483184
11.55936
11.442183
11.523024
11.609141
11.718689
11.634854
11.624132
11.554645
11.635832
11.697429
11.892157
11.806143
11.71979
11.93908
11.907231
11.805501
11.719806
11.636943
11.858121
11.812099
11.726288
11.630307
11.473064
11.546634
11.467725
11.497034
11.574125
11.492992
11.592714
11.680895
11.774605
11.869996
11.988195
11.845859
11.760758
11.812763
11.711832
11.853665
11.925193
12.08407
11.932499
11.941038
11.846755
11.748752
11.757597
11.611205
11.726715
11.665132
11.572437
11.644294
11.513384
11.66637
11.789562
11.883022
11.749135
11.812254
11.962853
11.860325
11.73252
11.826699
11.832202
11.742353
11.718749
11.664882
11.653175
11.552217
11.574859
11.409621
11.565326
11.671343
11.569021
11.485099
11.39131
11.479986
11.31888
11.464222
11.552272
11.678781
11.762447
11.614063
11.511194
11.578279
11.654765
11.629455
11.534745
11.561191
11.650305
11.744114
11.839302
11.991222
11.776125
11.798816
11.899212
11.783745
11.869493
12.014614
12.16291
11.89753
11.913454
11.812988
11.720848
11.771851
11.694152
11.811066
11.704113
11.613349
11.725156
11.606485
11.5997
11.798642
11.889155
11.683595
11.909124
12.050572
11.938925
11.704722
11.795684
11.805594
11.716475
11.805943
11.676757
11.63046
11.534958
11.586558
11.511762
11.638462
11.548128
11.462188
11.483359
11.418006
11.387572
11.407562
11.410992
11.479547
11.546834
11.564761
11.635964
11.71239
11.690375
11.655583
11.692026
11.70396
11.684036
11.787425
11.837638
11.753435
11.621967
11.598133
11.522895
11.513556
11.578002
11.615255
11.733222
11.794666
11.940358
11.890044
11.818924
11.798433
11.863007
11.880662
11.873564
11.805703
11.728469
11.736832
11.672574
11.655725
11.816495
11.872089
11.815069
11.743866
11.665065
11.741473
11.576338
11.490901
11.662013
11.5977
11.553626
11.380816
11.4446
11.450707
11.482433
11.547299
11.551324
11.612154
11.695522
11.620407
11.67369
11.595759
11.515034
11.493655
11.425514
11.484879
11.553657
11.69534
11.611688
11.609207