/*--------------------------------*- C++ -*----------------------------------*\
| =========                 |                                                 |
| \\      /  F ield         | OpenFOAM: The Open Source CFD Toolbox           |
|  \\    /   O peration     | Version:  v2012                                 |
|   \\  /    A nd           | Website:  www.openfoam.com                      |
|    \\/     M anipulation  |                                                 |
\*---------------------------------------------------------------------------*/
FoamFile
{
    version     2.0;
    format      ascii;
    class       surfaceScalarField;
    location    "100";
    object      phi;
}
// * * * * * * * * * * * * * * * * * * * * * * * * * * * * * * * * * * * * * //

dimensions      [0 3 -1 0 0 0 0];
oriented        oriented;


internalField   nonuniform List<scalar> 
71805
(
0.0063994976
5.7834076e-06
-1.2469858e-05
0.0064049108
6.0899618e-06
-1.1503089e-05
0.0064092616
6.3854006e-06
-1.0736255e-05
0.0064127162
6.6866344e-06
-1.0141165e-05
0.0064154522
6.9677582e-06
-9.7037628e-06
0.006417633
7.2203169e-06
-9.4011732e-06
0.0064193603
7.4612537e-06
-9.1885708e-06
0.0064207056
7.703742e-06
-9.0490225e-06
0.0064217258
7.950201e-06
-8.9703581e-06
0.0064224641
8.20043e-06
-8.9387358e-06
0.0064229554
8.4545966e-06
-8.9459329e-06
0.0064232308
8.7128822e-06
-8.9883077e-06
0.0064233153
8.975091e-06
-9.0595533e-06
0.0064232297
9.2409067e-06
-9.1552748e-06
0.0064229915
9.5088929e-06
-9.2706726e-06
0.006422618
9.7754669e-06
-9.4020433e-06
0.0064221235
1.004266e-05
-9.5481434e-06
0.0064215184
1.0314975e-05
-9.7099116e-06
0.0064208127
1.0583915e-05
-9.878165e-06
0.0064200131
1.0852015e-05
-1.0052369e-05
0.0064191331
1.1116843e-05
-1.0236862e-05
0.006418184
1.1376531e-05
-1.0427484e-05
0.0064171725
1.1631016e-05
-1.0619512e-05
0.0064161008
1.1881342e-05
-1.0809589e-05
0.0064149574
1.2127866e-05
-1.098447e-05
0.0064136993
1.2375959e-05
-1.1117931e-05
0.0064122513
1.2612223e-05
-1.1164214e-05
0.006410416
1.2859821e-05
-1.102446e-05
0.0064081677
1.2940569e-05
-1.0692272e-05
0.006405365
1.2898319e-05
-1.009566e-05
0.0064040289
1.1373874e-05
-1.0037763e-05
0.0064019394
1.1159755e-05
-9.070288e-06
0.0064054798
6.8698935e-06
-1.0410304e-05
0.0064095915
5.2662066e-06
-9.3778778e-06
0.0064259087
-5.0549884e-06
-1.1262186e-05
0.0064713583
-2.4356417e-05
-2.1093208e-05
0.0065020407
-1.9859675e-05
-1.0822672e-05
8.7805672e-05
8.8544705e-05
1.2168423e-06
2.2511103e-05
-0.0068200916
0.00020991693
4.207276e-05
-0.0072641752
6.6525004e-05
9.3204411e-05
-0.0078264807
0.00017262767
0.00012203848
-0.00818164
7.3424621e-05
0.00012977055
-0.008452995
7.9583241e-05
0.00012549494
-0.008536775
5.0301315e-05
0.00012330292
-0.0085634547
4.6649012e-05
0.00012238725
-0.008547445
4.5700123e-05
0.00012221284
-0.0085277666
4.7518201e-05
0.0001219726
-0.0085134134
4.855047e-05
0.00012164418
-0.0085026466
5.0138178e-05
0.00012038559
-0.0085051063
5.2609181e-05
0.00011885424
-0.0085023633
5.4889062e-05
0.00011872707
-0.008492036
5.6297296e-05
0.00011921795
-0.0084786303
5.7365859e-05
0.0001191947
-0.0084660227
5.8789062e-05
0.00011868844
-0.0084579488
6.1340998e-05
0.00011756164
-0.0084557171
6.5214363e-05
0.00011615571
-0.008448434
7.0629118e-05
0.00011484336
-0.0084349921
7.9084219e-05
0.00011191962
-0.0084249454
9.2634654e-05
0.00010691342
-0.0084227781
0.0001131791
9.9971277e-05
-0.0084203596
0.00014303058
9.0524661e-05
-0.0084164254
0.00018259634
8.0265986e-05
-0.0084044036
0.00022572553
7.5152907e-05
-0.0083998463
0.00023695985
0.00010539738
-0.008392218
0.00017623291
0.00017361768
-0.0083706439
9.4740402e-05
0.00019777877
-0.0084162619
4.915551e-05
0.00016388711
-0.0085094498
2.6866466e-05
0.00013963627
-0.0085537878
-1.2514516e-05
0.00013238011
-0.0085687617
-1.3876577e-05
0.00013200543
-0.0085357076
-0.00011922625
0.00013504761
-0.0084459682
-2.1035165e-05
0.00012874029
-0.0081662958
-0.00017402237
0.00010254669
-0.0078030437
1.9453009e-05
5.5841594e-05
-0.0072391418
-7.592232e-05
3.0713085e-05
-0.0067974984
9.8480166e-05
-0.0064683916
2.6246413e-06
-0.00010719229
-0.0066930831
0.00022880534
-0.0001653194
-0.0069341468
4.5775968e-05
-0.00018899546
-0.0072908581
0.00015247412
-0.00019641538
-0.00742002
2.5861579e-05
-0.00019965069
-0.0075288629
3.6013292e-05
-0.00019778478
-0.0074933002
4.8193576e-06
-0.00019612551
-0.0074749117
-2.6551809e-05
-0.00019591402
-0.0074734506
-1.6903514e-05
-0.00019715563
-0.0074890263
-0.00014425843
-0.00019856687
-0.0075219411
-3.8893331e-05
-0.00019493987
-0.0074108995
-0.00022316773
-0.00018715509
-0.0072801492
9.3683546e-07
-0.000163301
-0.0069227735
-9.6551512e-05
-0.00010517373
-0.0066813454
7.7561138e-05
-0.0064564629
-1.5540361e-05
2.8587054e-05
-0.0067849249
0.00017999358
5.3316363e-05
-0.0072256654
3.0257038e-05
9.9390813e-05
-0.0077884773
0.0001320224
0.00012476129
-0.008150769
3.1896489e-05
0.00012986052
-0.0084298996
3.7608824e-05
0.00012483715
-0.0085198387
9.2540096e-06
0.00012158702
-0.0085550922
7.0569188e-06
0.00012025401
-0.0085478254
7.7477013e-06
0.00012012935
-0.0085363614
1.0964951e-05
0.00012031961
-0.0085282675
1.3080788e-05
0.00012063505
-0.0085257413
1.4464768e-05
0.00012097484
-0.0085266925
1.5142867e-05
0.00012131808
-0.0085297034
1.5285067e-05
0.00012166161
-0.0085336739
1.5082469e-05
0.00012196409
-0.0085381478
1.4683853e-05
0.00012221928
-0.0085429147
1.4112037e-05
0.00012242023
-0.0085478692
1.3461426e-05
0.00012256962
-0.0085529074
1.2742362e-05
0.00012267254
-0.0085579172
1.2033984e-05
0.00012273497
-0.0085630022
1.1341638e-05
0.0001227834
-0.0085682138
1.0670669e-05
0.00012281767
-0.0085734382
1.0012923e-05
0.00012284087
-0.0085786417
9.4449216e-06
0.00012286371
-0.0085838159
8.970627e-06
0.00012290347
-0.0085891106
8.7465688e-06
0.00012293786
-0.0085946429
8.992876e-06
0.0001229469
-0.0086007829
9.7515722e-06
0.00012293607
-0.008608465
1.1410142e-05
0.00012292857
-0.0086193121
1.0327491e-05
0.00012301236
-0.0086353226
6.1559856e-06
0.00012337864
-0.0086542142
-2.4652766e-05
0.00012492612
-0.0086681741
-2.1028085e-05
0.00012838073
-0.0086383463
-0.00012481966
0.00013356647
-0.008552128
-2.370484e-05
0.00012841573
-0.0082728126
-0.00017783729
0.00010261659
-0.0079077652
1.8835332e-05
5.5694278e-05
-0.0073379308
-7.7396041e-05
3.0362988e-05
-0.006891059
9.9130667e-05
-0.0065575054
1.4286295e-06
-0.00010851538
-0.0067873034
0.00023072767
-0.0001677972
-0.0070351694
4.5043335e-05
-0.0001922858
-0.0074029419
0.00015402181
-0.00020038612
-0.0075420792
2.6062457e-05
-0.00020433074
-0.0076630163
3.7441055e-05
-0.00020302826
-0.0076384307
6.9165401e-06
-0.00020200747
-0.0076324973
-2.3793208e-05
-0.00020231362
-0.0076439546
-1.2217322e-05
-0.00020429844
-0.0076722621
-0.0001412333
-0.00020613537
-0.0077171895
-3.0503019e-05
-0.00020336668
-0.0076116239
-0.00021800748
-0.00019502383
-0.0074825426
1.6532859e-05
-0.00017207207
-0.0071091514
-0.00010063941
-0.0068321549
7.6074308e-05
-0.00011780648
-0.0072179342
0.00021455621
-0.00020956857
-0.0076346335
0.00021727939
-0.00023162645
-0.0079611232
0.00021474528
-0.00023405039
-0.0081352502
0.000123187
-0.00022881762
-0.0081851524
5.9297723e-05
-0.00022297321
-0.0081648584
-7.2057613e-06
-0.00021815383
-0.0081295744
-7.3482078e-05
-0.00021780949
-0.008117646
-0.0001369602
-0.00022134441
-0.0081296445
-0.00022747199
-0.00022655465
-0.0081289583
-0.00022995684
-0.00023019692
-0.0080624783
-0.0002267225
-0.00022848027
-0.007878748
-8.9366472e-05
-0.00020551406
-0.0075577882
-0.00013258623
-0.0071784071
0.00018414831
-5.1580119e-05
-0.0077526614
0.00033149534
-0.00011432296
-0.0082333191
0.00038812929
-0.00011815983
-0.0085939867
0.00033521266
-0.00010646012
-0.008778653
0.00022530748
-9.5406263e-05
-0.0088324439
0.00011060159
-8.7252991e-05
-0.0088243377
7.598288e-06
-8.2920233e-05
-0.0088108869
-9.5596313e-05
-8.3111048e-05
-0.0088235328
-0.0002111395
-8.8564744e-05
-0.0088616033
-0.00032243853
-9.7099016e-05
-0.0088921707
-0.0003764235
-0.00010951014
-0.0088561876
-0.00031980569
-0.00012027295
-0.0086814388
-0.0001713398
-0.00011683842
-0.0083143229
-3.520253e-05
-0.0077912467
0.00027133045
2.8274496e-05
-0.0083493552
0.00045028414
5.990039e-06
-0.0089319663
0.00050672397
2.2110415e-05
-0.0093272553
0.00042253365
4.0880261e-05
-0.0095013203
0.00027207501
5.3919968e-05
-0.009526265
0.00012294436
6.0231445e-05
-0.0094863013
-7.7879898e-06
6.3622141e-05
-0.0094434694
-0.0001382117
6.3664623e-05
-0.0094302119
-0.00028611559
6.1088204e-05
-0.0094472556
-0.00043446519
5.4729679e-05
-0.0094635124
-0.00051644192
4.233846e-05
-0.0094198177
-0.0004590614
2.2148911e-05
-0.009235739
-0.0002796452
4.8709275e-06
-0.0088481289
1.0021717e-05
-0.0083136969
0.0003381187
6.5794669e-05
-0.0087231981
0.00053830843
7.260997e-05
-0.0092712102
0.00059413662
9.7748858e-05
-0.0096628536
0.00049188908
0.00011675786
-0.0098424548
0.00031904783
0.00012525481
-0.0098798542
0.00015200862
0.00012758765
-0.0098585601
7.6706715e-06
0.00012762814
-0.0098388837
-0.00013717635
0.00012762547
-0.0098523277
-0.00030566624
0.00012694176
-0.00989822
-0.00048100901
0.00012494905
-0.0099436209
-0.0005859607
0.00011644548
-0.0099254785
-0.00053149807
9.9487603e-05
-0.0097558591
-0.00033201183
7.7412127e-05
-0.0093555286
8.7126222e-05
-0.0087545199
0.00035125219
7.7683898e-05
-0.0089873574
0.00056152721
8.5646687e-05
-0.0095817742
0.00061595404
0.00010147248
-0.0099742041
0.00050228002
0.00011114132
-0.010137699
0.00031689854
0.0001142166
-0.010151607
0.0001416029
0.00011309833
-0.010103168
-7.0719526e-06
0.00011221382
-0.010055502
-0.0001551942
0.00011222354
-0.010042267
-0.00032882041
0.00011366606
-0.01006384
-0.00051137026
0.00011431061
-0.010088134
-0.0006219244
0.00011070252
-0.010055182
-0.00056583005
9.8436184e-05
-0.0098820871
-0.00035493183
7.7884114e-05
-0.0094988783
5.3365044e-05
-0.0089590024
0.0003527232
3.5776236e-05
-0.0090625024
0.00056707699
5.1535743e-05
-0.0095924937
0.00062342297
6.3962677e-05
-0.0099662895
0.0005108142
6.9727981e-05
-0.010132879
0.00032664873
7.01043e-05
-0.010161802
0.00015317321
6.8324882e-05
-0.010134695
6.4622726e-06
6.6617965e-05
-0.010111382
-0.0001408127
6.6595247e-05
-0.01012419
-0.00031599183
6.7828773e-05
-0.010172801
-0.00050298606
7.0111729e-05
-0.010223473
-0.00061872814
7.0752448e-05
-0.010212996
-0.0005639941
6.8011628e-05
-0.010055238
-0.0003498979
6.165127e-05
-0.0096711291
6.2942997e-05
-0.0090848894
0.00034675495
4.1805535e-05
-0.0091053427
0.00056070027
3.602013e-05
-0.0096889462
0.0006143202
3.5051049e-05
-0.010067802
0.00049795179
3.3488483e-05
-0.01022107
0.00031175516
3.114794e-05
-0.010228695
0.00013869369
2.8863019e-05
-0.010176488
-5.7885403e-06
2.7833183e-05
-0.010127351
-0.0001496983
2.7819204e-05
-0.010115093
-0.00032101057
2.9137237e-05
-0.010139965
-0.00050428931
3.0785588e-05
-0.010169504
-0.00061738642
3.1655089e-05
-0.010144138
-0.0005619422
2.977565e-05
-0.0099826262
-0.00034784344
2.3802089e-05
-0.0096150226
1.2541228e-05
-0.0090878178
0.00034481591
6.9932827e-08
-0.0090820121
0.00055735355
5.8802298e-06
-0.0096079824
0.00061137957
8.3072806e-06
-0.0099723579
0.00049800026
8.5068176e-06
-0.010130417
0.00031587791
7.5400859e-06
-0.010153149
0.00014669348
6.4873635e-06
-0.010121651
5.2989869e-06
5.7033235e-06
-0.010095647
-0.00013665743
5.7902603e-06
-0.010107382
-0.00030757099
6.5546497e-06
-0.010156529
-0.00049257462
8.4568548e-06
-0.010209624
-0.00060914862
1.1313196e-05
-0.010203744
-0.00055693797
1.495595e-05
-0.01005296
-0.00034442067
2.0124528e-05
-0.0096764106
3.121654e-05
-0.0090931015
0.00034307348
2.6965353e-05
-0.0090731163
0.00055433294
1.2993738e-05
-0.0096558544
0.00060552592
5.7266702e-06
-0.010031497
0.00048891719
1.265805e-06
-0.010181275
0.00030484924
-1.6405133e-06
-0.010186447
0.00013541917
-3.2275754e-06
-0.010133236
-4.8720121e-06
-3.8466937e-06
-0.010084323
-0.0001446105
-4.0379627e-06
-0.010073184
-0.00031234137
-3.7077608e-06
-0.010100013
-0.0004936061
-3.1981902e-06
-0.010132701
-0.0006071817
-2.5519036e-06
-0.01011177
-0.00055432386
-2.266233e-06
-0.0099556461
-0.00034321031
-3.0513847e-06
-0.0095926237
-5.8322978e-06
-0.0090657591
0.00034237745
-7.854335e-06
-0.00905098
0.000552527
-6.9464422e-06
-0.0095782789
0.00060467523
-6.8236309e-06
-0.0099408361
0.00049103617
-7.0981475e-06
-0.010095877
0.00031030434
-7.4091292e-06
-0.010115687
0.00014342144
-7.541309e-06
-0.010082074
4.5904672e-06
-7.5532097e-06
-0.010054675
-0.00013472667
-7.240598e-06
-0.01006533
-0.00030325043
-6.6283568e-06
-0.010113745
-0.00048666828
-5.1644277e-06
-0.010166653
-0.00060314266
-2.2613021e-06
-0.010161268
-0.00055245141
2.4575353e-06
-0.010011368
-0.00034201836
1.0766818e-05
-0.0096351473
2.6479053e-05
-0.0090532609
0.00034138049
2.7014253e-05
-0.0090378474
0.00055137218
1.0612957e-05
-0.009618071
0.00060180312
1.8592502e-06
-0.009994792
0.00048546571
-2.9834707e-06
-0.010145049
0.00030245046
-5.9608298e-06
-0.010150859
0.00013440853
-7.4630044e-06
-0.01009851
-4.4060498e-06
-8.1777356e-06
-0.010050646
-0.0001427997
-8.622949e-06
-0.010040544
-0.00030924482
-8.834048e-06
-0.010068637
-0.00048965769
-8.9403544e-06
-0.010102957
-0.00060326108
-8.8614137e-06
-0.010083718
-0.00055146966
-8.6763757e-06
-0.0099291771
-0.00034192651
-8.5381949e-06
-0.0095668756
-8.5910678e-06
-0.0090397138
0.00034169277
-8.9828281e-06
-0.0090316791
0.00055088662
-9.2887699e-06
-0.0095582304
0.00060250638
-9.5247195e-06
-0.0099200608
0.00048897547
-9.6354157e-06
-0.010074198
0.00030877295
-9.5650956e-06
-0.010092958
0.00014257392
-9.3054163e-06
-0.010058173
4.423377e-06
-8.9225111e-06
-0.010029422
-0.00013412568
-8.3498749e-06
-0.010038842
-0.00030183983
-7.4909768e-06
-0.010086108
-0.0004844898
-5.8768428e-06
-0.010137835
-0.00060053023
-2.8154874e-06
-0.010131423
-0.00054996876
2.0155061e-06
-0.0099809139
-0.00033998085
1.0811225e-05
-0.0096048317
2.7372929e-05
-0.0090286386
0.0003382556
2.7600141e-05
-0.0090201904
0.00054841334
1.0756064e-05
-0.0095932919
0.00059923078
2.1709328e-06
-0.0099688646
0.00048356076
-2.536523e-06
-0.01011955
0.00030124057
-5.6260272e-06
-0.010126474
0.00013377658
-7.3506293e-06
-0.010075238
-4.589143e-06
-8.3623253e-06
-0.010028603
-0.00014258494
-9.0681302e-06
-0.01001982
-0.00030862599
-9.6001154e-06
-0.010049183
-0.00048867985
-9.9706365e-06
-0.010084476
-0.00060213434
-1.0155834e-05
-0.010066182
-0.00055057728
-1.0111245e-05
-0.0099125151
-0.00034155805
-9.8518788e-06
-0.0095511823
-9.4104098e-06
-0.0090250529
0.00034141118
-9.9201549e-06
-0.0090190264
0.00055032382
-1.0420384e-05
-0.0095447309
0.00060188239
-1.0684622e-05
-0.0099056819
0.0004885555
-1.0671696e-05
-0.010058879
0.0003086838
-1.0398048e-05
-0.010076712
0.00014281739
-9.9233814e-06
-0.010040925
4.9699195e-06
-9.2399692e-06
-0.010011049
-0.00013323516
-8.3878261e-06
-0.010019121
-0.00030049088
-7.2110088e-06
-0.010065099
-0.00048256663
-5.334847e-06
-0.010115789
-0.00059804227
-2.1803384e-06
-0.010108447
-0.00054727952
2.4579161e-06
-0.0099574055
-0.00033751706
1.089702e-05
-0.0095818054
2.8091103e-05
-0.0090086233
0.00033736064
2.901627e-05
-0.0089985034
0.00054639105
1.1622274e-05
-0.0095717361
0.00059686454
2.9313826e-06
-0.0099470932
0.00048142015
-1.8014746e-06
-0.010098016
0.00029952816
-5.066369e-06
-0.010105549
0.00013247654
-7.093082e-06
-0.010055326
-5.5385231e-06
-8.4407658e-06
-0.01000993
-0.00014319273
-9.4602567e-06
-0.010002439
-0.00030884274
-1.0314285e-05
-0.010032917
-0.00048848406
-1.0929043e-05
-0.010069244
-0.00060164568
-1.1301171e-05
-0.010051813
-0.00055006189
-1.1298316e-05
-0.0098989614
-0.00034125249
-1.087416e-05
-0.0095384992
-1.0350208e-05
-0.0090132547
0.00034114669
-1.1023633e-05
-0.009007792
0.00054985138
-1.156424e-05
-0.0095324693
0.00060143999
-1.200025e-05
-0.0098924039
0.00048844001
-1.2028722e-05
-0.010044823
0.00030904221
-1.1624594e-05
-0.010061793
0.00014365661
-1.0900425e-05
-0.010024979
6.2569323e-06
-9.8897195e-06
-0.0099940663
-0.00013150337
-8.6830297e-06
-0.010001057
-0.00029829303
-7.1040528e-06
-0.01004595
-0.00047997195
-4.8343469e-06
-0.010095695
-0.00059538474
-1.3762167e-06
-0.010087924
-0.00054516721
3.4911177e-06
-0.009937016
-0.00033669143
1.2302918e-05
-0.0095617966
2.9948422e-05
-0.0089871658
0.00033573598
3.1276388e-05
-0.008979295
0.00054362634
1.3541841e-05
-0.009552268
0.0005934943
4.4379128e-06
-0.0099270072
0.00047809488
-7.9390863e-07
-0.010077863
0.00029667658
-4.6596377e-06
-0.010085871
0.00013024206
-7.3227427e-06
-0.01003657
-7.1899586e-06
-9.216787e-06
-0.0099922038
-0.0001442274
-1.056884e-05
-0.0099856969
-0.00030930744
-1.1669072e-05
-0.010017077
-0.00048845064
-1.2457552e-05
-0.010054252
-0.00060129333
-1.2904706e-05
-0.010037777
-0.00054967901
-1.2832273e-05
-0.0098858157
-0.00034104896
-1.2326455e-05
-0.0095264253
-1.1735464e-05
-0.0090021765
0.00034093872
-1.2624197e-05
-0.0089966524
0.00054950022
-1.3285879e-05
-0.0095203667
0.00060117199
-1.3731268e-05
-0.0098793626
0.00048851693
-1.3874231e-05
-0.010030831
0.00030966351
-1.347986e-05
-0.01004695
0.00014494444
-1.2730035e-05
-0.010009272
8.3699176e-06
-1.155126e-05
-0.0099773249
-0.00012859666
-1.0054663e-05
-0.0099833206
-0.00029453419
-7.8393503e-06
-0.010027216
-0.0004755554
-4.673153e-06
-0.010076074
-0.00059087969
-1.1316034e-07
-0.010067813
-0.00054139141
5.8217197e-06
-0.0099170177
-0.00033414933
1.5392324e-05
-0.0095427938
3.289734e-05
-0.0089716707
0.00033148502
3.5318815e-05
-0.0089660636
0.00053772665
1.7841018e-05
-0.0095348761
0.0005869311
7.3677837e-06
-0.0099077282
0.00047194481
3.2518418e-07
-0.010058126
0.00029162868
-5.1865166e-06
-0.010066424
0.00012645747
-8.9341698e-06
-0.010017926
-9.8133769e-06
-1.1440327e-05
-0.0099745131
-0.00014579828
-1.295628e-05
-0.0099689987
-0.00031004434
-1.4066078e-05
-0.010001403
-0.00048853537
-1.4688734e-05
-0.010039547
-0.00060097036
-1.495558e-05
-0.010023828
-0.00054925522
-1.4677761e-05
-0.009872749
-0.00034076983
-1.3988462e-05
-0.0095142724
-1.3240368e-05
-0.0089909931
0.00034058419
-1.3978761e-05
-0.0089856956
0.00054895148
-1.4824928e-05
-0.0095083935
0.00060069264
-1.5648528e-05
-0.0098664776
0.00048845537
-1.6112694e-05
-0.010017039
0.00031033941
-1.608705e-05
-0.010032353
0.00014661561
-1.5735622e-05
-0.0099937197
1.1355409e-05
-1.4900403e-05
-0.0099607901
-0.0001239798
-1.3568331e-05
-0.0099658551
-0.00028800302
-1.0955674e-05
-0.010008771
-0.0004671546
-6.6992672e-06
-0.010056905
-0.0005814076
8.2811875e-08
-0.010048628
-0.00053242625
9.056273e-06
-0.0098985546
-0.00032773472
2.1547639e-05
-0.0095265951
4.0001951e-05
-0.0089574408
0.00032165004
4.8045499e-05
-0.0089513584
0.00052476979
2.6921855e-05
-0.0095190046
0.00057402867
1.0408658e-05
-0.0098895297
0.00046122999
-1.4668732e-06
-0.01003894
0.00028393473
-9.8276468e-06
-0.010047244
0.00012148319
-1.4387136e-05
-0.0099996377
-1.2703986e-05
-1.6757092e-05
-0.0099573134
-0.00014716547
-1.757079e-05
-0.0099528616
-0.00031036955
-1.7844969e-05
-0.0099862589
-0.00048818431
-1.7717145e-05
-0.010025231
-0.00060029239
-1.7388157e-05
-0.010010371
-0.00054856797
-1.6705149e-05
-0.0098602165
-0.00034033905
-1.5830021e-05
-0.0095025865
-1.4833335e-05
-0.00898037
0.00033998976
-1.5482775e-05
-0.0089750724
0.00054801441
-1.6599783e-05
-0.0094968702
0.00059961864
-1.7673218e-05
-0.0098541086
0.0004875289
-1.8641539e-05
-0.010003916
0.00030987628
-1.9422897e-05
-0.010018442
0.0001470276
-2.0244575e-05
-0.0099790075
1.3217275e-05
-2.0836541e-05
-0.0099450994
-0.00011987199
-2.0967023e-05
-0.0099489418
-0.00028061819
-1.940397e-05
-0.009990549
-0.00045558141
-1.5089666e-05
-0.010037444
-0.00056584948
-5.4522835e-06
-0.010028799
-0.00051514937
1.022315e-05
-0.0098800074
-0.00031291916
3.3198618e-05
-0.0095111314
5.9855672e-05
-0.0089462043
0.00030254954
7.4928064e-05
-0.0089421556
0.00050511054
3.8896903e-05
-0.0095022031
0.00055935837
6.3439443e-06
-0.0098685247
0.00045274402
-1.2846394e-05
-0.01001731
0.00028013595
-2.2406703e-05
-0.010027141
0.00012050707
-2.52575e-05
-0.0099814493
-1.2181196e-05
-2.537269e-05
-0.0099407318
-0.00014586054
-2.4040745e-05
-0.0099375893
-0.00030870695
-2.2456737e-05
-0.0099720139
-0.00048640402
-2.0913168e-05
-0.010011882
-0.00059860454
-1.9642131e-05
-0.0099976378
-0.00054723435
-1.8363749e-05
-0.0098480977
-0.00033951351
-1.7145693e-05
-0.0094912252
-1.5935322e-05
-0.0089697427
0.00033891133
-1.5997317e-05
-0.0089647872
0.00054625363
-1.7205969e-05
-0.0094858063
0.00059727996
-1.8683208e-05
-0.0098423559
0.00048474312
-2.022849e-05
-0.0099916202
0.00030664306
-2.1845209e-05
-0.010005575
0.0001432113
-2.3907426e-05
-0.0099653302
8.6722658e-06
-2.6227813e-05
-0.0099304022
-0.00012502474
-2.8594327e-05
-0.0099328756
-0.00028532677
-3.0270013e-05
-0.0099723897
-0.00045684769
-3.0497413e-05
-0.010015934
-0.00055817416
-2.5246201e-05
-0.010002222
-0.0004952305
-6.4357273e-06
-0.0098497678
-0.00028823304
3.9384391e-05
-0.009486886
9.4618643e-05
-0.0089360184
0.00026994672
0.00012199109
-0.0089139394
0.00048781615
2.7559481e-05
-0.009441404
0.00056745008
-3.5240342e-05
-0.0098015772
0.00047032428
-4.018002e-05
-0.009975218
0.00029642495
-3.5510688e-05
-0.010001993
0.00013288731
-3.1797231e-05
-0.009963249
-3.303541e-06
-2.9234968e-05
-0.009925548
-0.00013951027
-2.6639551e-05
-0.0099238491
-0.00030402409
-2.4194012e-05
-0.0099592294
-0.00048279347
-2.1983942e-05
-0.00999974
-0.00059582105
-2.0242917e-05
-0.0099860134
-0.00054519698
-1.8643317e-05
-0.0098370244
-0.00033825206
-1.710956e-05
-0.0094808646
-1.5856685e-05
-0.0089601662
0.0003375207
-1.5335819e-05
-0.0089560097
0.00054405789
-1.6683251e-05
-0.0094765247
0.00059423137
-1.8212186e-05
-0.0098324368
0.00048063967
-1.968758e-05
-0.0099810373
0.0003010451
-2.1243398e-05
-0.009994506
0.00013525483
-2.3140445e-05
-0.0099538493
-2.9398775e-06
-2.5038577e-05
-0.0099181385
-0.00014208021
-2.6891872e-05
-0.0099191081
-0.00031035122
-2.8567037e-05
-0.0099546338
-0.00049056202
-3.3371711e-05
-0.0099854949
-0.00059214461
-4.6757672e-05
-0.0099290827
-0.00050780943
-6.5216903e-05
-0.0096785
-0.00026921647
-1.2253639e-05
-0.009274457
0.00014066681
-0.008841522
0.00033754148
0.00010923263
-0.008706433
0.0005656689
-4.770931e-05
-0.0091617394
0.00061486139
-6.2417695e-05
-0.0096049384
0.00050104416
-3.9213949e-05
-0.0099020399
0.00031670639
-2.6519996e-05
-0.0099754397
0.00014725717
-2.3911386e-05
-0.0099485649
6.9365029e-06
-2.3381804e-05
-0.0099142964
-0.00013210567
-2.2630358e-05
-0.009913771
-0.0002986663
-2.1412664e-05
-0.0099496333
-0.00047882081
-2.0077584e-05
-0.0099904955
-0.00059285207
-1.8887893e-05
-0.0099771419
-0.0005430528
-1.7653568e-05
-0.009828721
-0.00033685654
-1.6144589e-05
-0.0094731113
-1.4537636e-05
-0.0089529056
0.00033630878
-1.3829636e-05
-0.0089519436
0.00054234627
-1.6128818e-05
-0.0094717322
0.0005919079
-1.7723142e-05
-0.0098269622
0.00047750833
-1.8624123e-05
-0.0099752001
0.00029685222
-1.9287632e-05
-0.00998843
0.00012972499
-1.9940573e-05
-0.0099475712
-9.9472457e-06
-2.0406579e-05
-0.0099116883
-0.00015064312
-2.0287042e-05
-0.0099122288
-0.00032056061
-1.975934e-05
-0.0099474287
-0.00050710139
-1.9468661e-05
-0.0099802536
-0.00063552133
-2.350005e-05
-0.009940398
-0.00061543123
-3.3101346e-05
-0.0097385346
-0.00043006561
-3.1793828e-05
-0.0093097185
5.5411283e-05
-0.008729344
0.00043109536
3.118596e-05
-0.0088650495
0.00060644176
-5.3040683e-06
-0.0094234959
0.00063219776
-1.2613558e-05
-0.0098046385
0.00050717434
-1.5242872e-05
-0.0099680237
0.00032161725
-1.6760947e-05
-0.0099898022
0.00015206971
-1.8703242e-05
-0.0099511019
1.1318275e-05
-1.9750185e-05
-0.0099141972
-0.00012867404
-2.0466651e-05
-0.0099132366
-0.00029625977
-2.072155e-05
-0.0099489655
-0.00047726832
-2.0881516e-05
-0.0099896703
-0.00059183683
-2.0837337e-05
-0.0099763605
-0.00054222103
-2.0201783e-05
-0.0098282312
-0.00033601606
-1.813618e-05
-0.0094734141
-1.4142022e-05
-0.0089542165
0.00033619592
-1.8096941e-05
-0.0089606023
0.00054298553
-2.4938892e-05
-0.0094788873
0.00059305391
-2.8426562e-05
-0.0098334983
0.00047847771
-2.9298505e-05
-0.0099819586
0.00029697147
-2.8750673e-05
-0.0099957254
0.00012871615
-2.7719671e-05
-0.0099553523
-1.1897337e-05
-2.6765947e-05
-0.0099198771
-0.00015299932
-2.5701501e-05
-0.0099213413
-0.00032254083
-2.4635083e-05
-0.0099594026
-0.00050648339
-2.2572578e-05
-0.010001087
-0.00062529677
-1.9893453e-05
-0.0099862327
-0.00058292234
-1.3709393e-05
-0.0098336574
-0.00038600668
-3.5668355e-06
-0.0094722957
1.8676396e-05
-0.0089434545
0.00036424863
-2.0125271e-07
-0.0089753665
0.00057267142
-2.0278503e-05
-0.0094941674
0.0006228605
-3.2170624e-05
-0.0098507995
0.00050711075
-3.9243815e-05
-0.010000574
0.00032377237
-4.2000645e-05
-0.010013929
0.00015368255
-4.347223e-05
-0.0099713654
1.1579122e-05
-4.4222502e-05
-0.0099328365
-0.00013024041
-4.5429859e-05
-0.0099310985
-0.00029962632
-4.7036255e-05
-0.0099660009
-0.00048180331
-4.8874143e-05
-0.010005595
-0.0005961811
-4.9553162e-05
-0.0099906644
-0.00054514655
-4.7236158e-05
-0.0098409538
-0.00033725585
-4.0445764e-05
-0.0094857606
-2.8386674e-05
-0.0089689963
0.000339771
-4.9169599e-05
-0.0089679456
0.00054891374
-6.5488412e-05
-0.0094850746
0.000601217
-7.8468229e-05
-0.0098429126
0.00048720303
-8.445072e-05
-0.0099954409
0.00030413325
-8.4859315e-05
-0.010012431
0.00013304787
-8.2769208e-05
-0.0099741167
-1.077625e-05
-8.0732442e-05
-0.0099400132
-0.00015471539
-7.9547377e-05
-0.0099420596
-0.00032598841
-7.9260159e-05
-0.0099803052
-0.00050920707
-7.8289151e-05
-0.010022247
-0.00062295866
-7.4857758e-05
-0.010007866
-0.00056929794
-6.5067404e-05
-0.009856721
-0.00035713161
-4.8519167e-05
-0.0094991561
-2.7784376e-05
-0.0089814762
0.00035669048
-4.8172731e-05
-0.0089526599
0.00056931309
-7.5542398e-05
-0.0094722397
0.0006245151
-9.8851209e-05
-0.0098348173
0.00051202453
-0.00011395617
-0.0099899817
0.00032870091
-0.00011996468
-0.010006951
0.00015594367
-0.00012151024
-0.0099667044
9.7528076e-06
-0.00012181798
-0.0099293571
-0.00013648409
-0.00012287553
-0.0099272035
-0.0003093705
-0.00012467094
-0.0099603026
-0.0004930631
-0.0001257351
-0.0099966762
-0.00060647844
-0.00012221892
-0.0099765847
-0.00055336003
-0.00010993839
-0.0098194853
-0.00034418334
-8.9080316e-05
-0.0094560752
-6.4275494e-05
-0.0089366537
0.00034612137
-7.427242e-05
-0.0088294652
0.00055174702
-8.1510471e-05
-0.00935824
0.00060458325
-0.00010679376
-0.0097305859
0.00049329927
-0.00012566624
-0.0098936295
0.00031139264
-0.00013397057
-0.0099172967
0.00013861655
-0.00013583087
-0.0098833252
-8.707636e-06
-0.00013553748
-0.0098514681
-0.00015586983
-0.00013466002
-0.0098535761
-0.00032830898
-0.00013318115
-0.0098895834
-0.0005095554
-0.00012920716
-0.0099274943
-0.0006196066
-0.00011894314
-0.0099070675
-0.0005645521
-9.8000348e-05
-0.0097461071
-0.00035564307
-7.1047312e-05
-0.009374738
-6.2292677e-05
-0.0088458288
0.00033707422
-8.3874442e-06
-0.0086089421
0.00053506008
-4.6451685e-06
-0.0091455367
0.00058976689
-2.3240574e-05
-0.0095248229
0.00048806155
-4.47801e-05
-0.0096920076
0.00031663662
-5.8478637e-05
-0.0097166665
0.00015093667
-6.6036998e-05
-0.0096818062
7.6723967e-06
-6.9790685e-05
-0.0096475843
-0.0001357851
-7.0493103e-05
-0.0096455261
-0.00030191343
-6.8170411e-05
-0.0096758043
-0.00047411614
-6.224375e-05
-0.0097068936
-0.00057712755
-5.0029913e-05
-0.0096790837
-0.00052455622
-2.9960977e-05
-0.0095098418
-0.00032950608
-1.2501025e-05
-0.0091295222
-1.7139902e-05
-0.0085929267
0.00027202373
4.5563646e-05
-0.0081867726
0.00044671642
0.00010696485
-0.0087097871
0.00050095948
0.00011033832
-0.0090859369
0.00041806321
9.8544798e-05
-0.0092597666
0.00027009587
8.7499359e-05
-0.0092938976
0.00012291025
7.9610402e-05
-0.009267759
-6.6019966e-06
7.5337879e-05
-0.009240154
-0.00013605344
7.5886422e-05
-0.0092420503
-0.00028276032
8.1254676e-05
-0.0092733832
-0.00042992118
9.0368089e-05
-0.0093029879
-0.0005115597
0.00010250282
-0.0092718431
-0.00045538807
0.00011531575
-0.0091000943
-0.00027814115
0.00011268076
-0.0087248815
5.172302e-05
-0.0082017265
0.00018323279
0.00013119351
-0.0076463777
0.00032872002
0.00020248703
-0.0081165058
0.00038417276
0.00022429975
-0.0084653416
0.00033128297
0.00022501278
-0.0086381468
0.00022209801
0.00022040174
-0.008679829
0.00010816425
0.00021434991
-0.0086589844
5.7179685e-06
0.00020988252
-0.0086318455
-9.6747667e-05
0.00020949726
-0.0086301559
-0.00021117753
0.00021319385
-0.0086539146
-0.00032116836
0.00021838583
-0.0086715368
-0.0003752638
0.00022225363
-0.0086272256
-0.00032153451
0.00022087033
-0.0084525873
-0.0001782395
0.00019862355
-0.0081027609
0.00012717951
-0.0076326539
8.5291082e-05
-0.0070664352
0.00021888468
-0.0074370891
0.00022031866
-0.0077481668
0.00021600198
-0.0079224308
0.00012525647
-0.0079796665
6.1312285e-05
-0.0079712239
-5.1384017e-06
-0.0079493502
-7.1445025e-05
-0.0079509433
-0.00013490669
-0.0079758436
-0.0002248587
-0.0079871534
-0.00022797133
-0.00793227
-0.00022503008
-0.0077596893
-8.9451136e-05
-0.0074494757
-0.0070789671
-9.9037333e-06
0.00010135425
5.0826946e-05
-0.000157865
-0.0070633795
-0.0067715379
3.2017437e-05
-6.7881667e-05
-0.0067793224
3.7222721e-05
-5.975908e-05
3.0320836e-05
-0.0067931882
1.8731572e-05
-3.1681224e-05
2.6815463e-05
-0.0067992552
8.9791392e-06
-1.4156585e-05
1.1244396e-05
-0.0067992289
7.6227964e-06
-8.9095179e-06
1.260482e-06
-0.006798838
3.3701895e-06
-6.1051335e-06
2.3440135e-06
-0.0068004855
3.0149615e-06
-4.5793484e-06
3.2119003e-06
-0.0068023695
1.296198e-06
-3.1523953e-06
3.7401353e-06
-0.0068042021
1.0232039e-06
-2.3266678e-06
3.1361157e-06
-0.006805596
8.6550568e-07
-2.002276e-06
2.5306986e-06
-0.0068066363
8.6841259e-07
-1.9055326e-06
2.0773424e-06
-0.0068074483
8.4929603e-07
-1.8710609e-06
1.8338306e-06
-0.0068081584
8.2954625e-07
-1.8329919e-06
1.7134779e-06
-0.0068088351
7.9650762e-07
-1.777715e-06
1.657971e-06
-0.0068095199
7.5684054e-07
-1.702182e-06
1.6300761e-06
-0.0068102333
7.1454042e-07
-1.6150484e-06
1.6139841e-06
-0.0068109801
6.6798336e-07
-1.520426e-06
1.5991719e-06
-0.0068117664
6.1667215e-07
-1.4158437e-06
1.585528e-06
-0.0068125989
5.5970276e-07
-1.2986095e-06
1.5713828e-06
-0.0068134828
4.9694787e-07
-1.1696586e-06
1.5565725e-06
-0.0068144165
4.2703157e-07