/*--------------------------------*- C++ -*----------------------------------*\
| =========                 |                                                 |
| \\      /  F ield         | OpenFOAM: The Open Source CFD Toolbox           |
|  \\    /   O peration     | Version:  v2012                                 |
|   \\  /    A nd           | Website:  www.openfoam.com                      |
|    \\/     M anipulation  |                                                 |
\*---------------------------------------------------------------------------*/
FoamFile
{
    version     2.0;
    format      ascii;
    class       volVectorField;
    location    "100";
    object      U;
}
// * * * * * * * * * * * * * * * * * * * * * * * * * * * * * * * * * * * * * //

dimensions      [0 1 -1 0 0 0 0];


internalField   nonuniform List<vector> 
24880
(
(4.98397 0.0025061011 -0.0062964393)
(4.9886312 0.0022508883 -0.0060873698)
(4.992402 0.0020129162 -0.0059182241)
(4.9954204 0.0017913315 -0.005787577)
(4.9977761 0.0015782161 -0.0056848918)
(4.9996686 0.0013669528 -0.0056048576)
(5.0011768 0.0011636717 -0.0055458039)
(5.0023629 0.00097052616 -0.0055080745)
(5.0032748 0.00078785434 -0.0054898)
(5.0039512 0.00061547664 -0.0054888043)
(5.0044234 0.00045299202 -0.0055035436)
(5.0047163 0.00030021574 -0.0055328799)
(5.0048511 0.0001566572 -0.0055757762)
(5.0048457 2.1673213e-05 -0.0056314818)
(5.0047161 -0.0001045922 -0.0056989172)
(5.0044757 -0.00022065347 -0.0057772849)
(5.0041353 -0.00032789024 -0.0058654382)
(5.003704 -0.00042676319 -0.0059625423)
(5.0031904 -0.00051602874 -0.0060667625)
(5.0026027 -0.00059535571 -0.006177696)
(5.0019486 -0.0006642386 -0.0062961072)
(5.0012353 -0.00072195768 -0.0064209645)
(5.0004699 -0.00076675192 -0.006550083)
(4.9996593 -0.00079852949 -0.0066834359)
(4.9988102 -0.00081635752 -0.0068197775)
(4.99793 -0.00081873181 -0.0069579019)
(4.9970248 -0.00080414906 -0.0070968464)
(4.9961012 -0.00077084389 -0.0072353062)
(4.9951624 -0.00071900766 -0.0073722915)
(4.9942165 -0.00064616162 -0.0075074185)
(4.9932511 -0.00055543599 -0.0076352464)
(4.9923116 -0.0004291055 -0.0077699041)
(4.9913213 -0.00029912465 -0.0078758124)
(4.9904661 -9.7935021e-05 -0.0080325047)
(4.9895101 4.6214671e-05 -0.0081384101)
(4.98879 0.00027265959 -0.0083140238)
(4.9882 0.00041253882 -0.0084132113)
(4.9869141 0.00075373515 -0.0085038504)
(4.9785697 -0.00031227614 -0.0074703057)
(4.9803088 -0.0094944259 -0.021001586)
(4.979152 -0.0067959904 -0.027371506)
(4.9746834 -0.0036900061 -0.03379152)
(4.9707402 -0.0016544637 -0.035501947)
(4.9683575 -0.00092093179 -0.037748876)
(4.9649729 -0.00032156702 -0.0382379)
(4.9616326 9.7188781e-05 -0.038376362)
(4.9588172 0.00023980579 -0.037985395)
(4.9572572 0.00013943089 -0.037680138)
(4.9547395 -0.00011740559 -0.037464717)
(4.9580767 -0.0010212407 -0.037341457)
(4.9572989 -0.0019130514 -0.038679806)
(4.9515202 -0.0017798994 -0.040541808)
(4.9438427 -0.0012841723 -0.041964199)
(4.9365627 -0.0010551876 -0.04263692)
(4.9318915 -0.001253765 -0.043628752)
(4.9305964 -0.0019532831 -0.044780661)
(4.9263218 -0.0024306907 -0.047409986)
(4.9182488 -0.0023393509 -0.050620502)
(4.9122651 -0.0029514232 -0.055535754)
(4.9109334 -0.0045634198 -0.063368346)
(4.9094818 -0.0074254731 -0.075875986)
(4.9072053 -0.010756308 -0.094300648)
(4.9003678 -0.012584779 -0.12064573)
(4.8982873 -0.0094940451 -0.15377227)
(4.8941004 -0.0037207181 -0.18488958)
(4.881982 0.0075450155 -0.1695099)
(4.903661 0.030612735 -0.092072896)
(4.9494233 0.021333709 -0.043243877)
(4.9660168 0.0079292918 -0.024429843)
(4.9685741 0.0036941385 -0.015046432)
(4.9682046 0.0021911777 -0.0098983477)
(4.9670091 0.0014311054 -0.006456442)
(4.9657566 0.0010197886 -0.0043720321)
(4.9644996 0.00075579678 -0.0028040134)
(4.9634947 0.00062287769 -0.0018236289)
(4.9625273 0.00056603487 -0.00094917838)
(4.9617315 0.00050011904 -0.00031008439)
(4.9619914 0.0015040068 -0.00027222137)
(4.9621696 0.0024007339 -0.00023117962)
(4.962037 0.0032385252 -0.00016547512)
(4.9616258 0.0038523056 -7.2313755e-05)
(4.9609393 0.004242823 9.1613582e-06)
(4.9600995 0.0044213666 9.4759244e-05)
(4.9591664 0.0043568281 0.0001644033)
(4.9581915 0.0041394495 0.00022590053)
(4.9572528 0.0037711012 0.00026782762)
(4.956351 0.0033089683 0.0003052005)
(4.9555101 0.0027353211 0.00034364141)
(4.9547253 0.0021074496 0.00037371821)
(4.95401 0.0014492053 0.00040381182)
(4.9532749 0.00077125504 0.0003862446)
(4.9525594 0.00023377124 0.00031739987)
(4.9533312 0.0002925692 0.001067063)
(4.9542604 0.0003344574 0.0019376161)
(4.955236 0.00034091679 0.0028796588)
(4.9563062 0.0003268339 0.0038832191)
(4.9575157 0.00031391843 0.004890709)
(4.9588976 0.00031913119 0.0059362819)
(4.9604483 0.00031721394 0.00697129)
(4.9621649 0.00030064881 0.0079784022)
(4.9640614 0.00026724334 0.008917042)
(4.9661076 0.00022611079 0.0097631339)
(4.9682938 0.00017098071 0.010483164)
(4.9706033 9.5720445e-05 0.011032821)
(4.9730836 1.2288022e-05 0.011393491)
(4.9756864 -7.0011244e-05 0.011535951)
(4.9783875 -0.00014217031 0.011467829)
(4.9811804 -0.00020026649 0.011223819)
(4.9840732 -0.00024107119 0.010844957)
(4.9870113 -0.00027193676 0.010366098)
(4.9899624 -0.0002854167 0.0098409051)
(4.9929273 -0.0002824908 0.0092976666)
(4.9959642 -0.00026945335 0.0087651987)
(4.999019 -0.00025931062 0.008242707)
(5.0020711 -0.00024110612 0.0077506216)
(5.0050886 -0.00022447934 0.0072947942)
(5.008098 -0.00021284707 0.0068654062)
(5.0110567 -0.00020637525 0.0064408225)
(5.0139131 -0.00020344725 0.0060279155)
(5.0166295 -0.00019855778 0.0056317632)
(5.0192654 -0.00019950644 0.0052341159)
(5.0217618 -0.00021116656 0.0048157634)
(5.0240887 -0.00023137433 0.0043606027)
(5.0261937 -0.0002464125 0.0038704887)
(5.0280645 -0.00026512388 0.0033294627)
(5.0296006 -0.00028198669 0.002740079)
(5.0307182 -0.00029605945 0.0021370372)
(5.031326 -0.000293996 0.0015505378)
(5.031421 -0.00029473641 0.0010115807)
(5.0310122 -0.00025793645 0.00053231331)
(5.0302818 -0.00019117103 0.00014672413)
(5.0320408 -0.00067836815 0.00021116271)
(5.0346143 -0.001287697 0.00024404603)
(5.03844 -0.001958663 0.00027257003)
(5.0433716 -0.002782553 0.0002937533)
(5.0494653 -0.0036049447 0.00033702933)
(5.0563803 -0.0046611953 0.00034398636)
(5.0639523 -0.0054602479 0.00038880125)
(5.0716433 -0.0067072112 0.00039187729)
(5.0789012 -0.0073060968 0.00049565396)
(5.0854347 -0.0090354689 0.00048316479)
(5.0900933 -0.0091636188 0.00081602916)
(5.092883 -0.012357731 0.0007856186)
(5.0873896 -0.010821063 0.0023000567)
(5.0641416 -0.018007564 -0.0020273949)
(5.0595553 -0.011468712 -0.0097077052)
(5.0861663 -0.009679424 0.0020507063)
(5.0918639 -0.011179342 0.0011384963)
(5.0896075 -0.0091342425 0.0018403932)
(5.08499 -0.0088569843 0.0013188162)
(5.0786209 -0.0073732575 0.0013781125)
(5.0714935 -0.006708975 0.0011616145)
(5.0639508 -0.0055190493 0.0011666329)
(5.0564996 -0.0046969163 0.0010559151)
(5.0497066 -0.0036835729 0.0010254992)
(5.0437407 -0.0028685498 0.0009087547)
(5.0388716 -0.0020498635 0.00082768469)
(5.0351436 -0.001380801 0.0007368093)
(5.0326491 -0.00077673437 0.00065396053)
(5.0328842 -0.00083949466 0.0011330849)
(5.0352981 -0.0014557847 0.0012439501)
(5.0389452 -0.002126858 0.001388375)
(5.0437716 -0.002942768 0.0015216133)
(5.0496029 -0.0037252107 0.0016896752)
(5.0562883 -0.00468201 0.0017672461)
(5.0635735 -0.0054899712 0.0019611094)
(5.0709607 -0.0066139152 0.0019933149)
(5.0779306 -0.0073229295 0.0023139205)
(5.0842189 -0.008621848 0.0022923558)
(5.088771 -0.0090123774 0.002904324)
(5.0905704 -0.010313233 0.0020416187)
(5.0846973 -0.009652752 0.0025767662)
(5.0571271 -0.010197161 -0.011198494)
(5.0532302 -0.0051752721 -0.010312325)
(5.0826153 -0.0074307096 0.0022480258)
(5.0889224 -0.0083741316 0.0024781666)
(5.0874912 -0.0080416571 0.0034948723)
(5.0830196 -0.0078653719 0.0031047063)
(5.0768126 -0.0069086983 0.0031567549)
(5.0699017 -0.0062527183 0.0028009698)
(5.0626525 -0.0052719354 0.00273729)
(5.055573 -0.0045402513 0.0024743022)
(5.0489802 -0.0036733407 0.0023553843)
(5.0432928 -0.002935753 0.0021528028)
(5.0385994 -0.0021486308 0.0019906372)
(5.0350574 -0.0014831874 0.0017977556)
(5.0327189 -0.00085588755 0.0016668869)
(5.032061 -0.00086717117 0.0022418996)
(5.0343336 -0.001495064 0.0023803037)
(5.037743 -0.0021455972 0.002594433)
(5.0423417 -0.0028657989 0.0027599531)
(5.0479052 -0.0035392552 0.0029715178)
(5.0542831 -0.0042944542 0.003125302)
(5.0611856 -0.0049542249 0.0034480132)
(5.0682308 -0.0057567476 0.0035695931)
(5.0749704 -0.0063303033 0.0039172558)
(5.0810637 -0.0069983285 0.0037800347)
(5.0854672 -0.0070663885 0.0038176939)
(5.0866268 -0.0070459367 0.0024219855)
(5.0798939 -0.0058874233 0.00035513894)
(5.0488679 -0.0032229097 -0.012441477)
(5.0455545 -0.0014621925 -0.013322351)
(5.0768765 -0.0040359926 -0.00083443205)
(5.0837476 -0.0052375866 0.0022641982)
(5.082836 -0.0056951677 0.0039816318)
(5.0785703 -0.005831961 0.0042070133)
(5.072587 -0.0055106581 0.0044444971)
(5.0659799 -0.005111881 0.0041514181)
(5.0591905 -0.0045343651 0.0040296306)
(5.0524866 -0.0039796629 0.0036930703)
(5.0462317 -0.0033350043 0.0035310617)
(5.0408574 -0.0027252514 0.0033215465)
(5.036395 -0.0020897626 0.0031667667)
(5.033136 -0.0014747876 0.0029692354)
(5.0308909 -0.00085198353 0.0028357303)
(5.0293358 -0.00080639757 0.0034302407)
(5.0315226 -0.0013943468 0.0035376515)
(5.0347289 -0.001981877 0.0036909962)
(5.039013 -0.0025631201 0.0038149681)
(5.0441919 -0.0031227215 0.0040045375)
(5.0502216 -0.0036749529 0.0041702348)
(5.0566864 -0.004159302 0.0044789425)
(5.0632042 -0.004575167 0.0045778866)
(5.0695439 -0.0048743401 0.0047810571)
(5.0753629 -0.0050104287 0.0044447867)
(5.0794282 -0.0048379757 0.0038285086)
(5.0800213 -0.0042148387 0.0018019919)
(5.0725427 -0.0031244103 -0.0025008563)
(5.0405493 -0.00095646213 -0.015654793)
(5.0359081 9.3112889e-05 -0.016461266)
(5.0679427 -0.0017414813 -0.0033725572)
(5.075874 -0.0029753605 0.0014684321)
(5.0755124 -0.0038221542 0.0036998062)
(5.071636 -0.0041379992 0.0045893525)
(5.0660851 -0.0042108045 0.0049824584)
(5.06001 -0.004035093 0.0048711712)
(5.0537828 -0.0037737097 0.0048166541)
(5.0475886 -0.003378022 0.0045735401)
(5.0417646 -0.0029072076 0.0044347045)
(5.0367552 -0.002375511 0.0042838765)
(5.0325871 -0.0018270211 0.0041926351)
(5.0294892 -0.0012726977 0.0040705581)
(5.0273507 -0.00074145237 0.0039694142)
(5.0252708 -0.00069227396 0.0044447596)
(5.0272105 -0.0011680034 0.0045426686)
(5.0301826 -0.0016748915 0.0046528198)
(5.0341591 -0.0021916418 0.0047186547)
(5.0389922 -0.0027072074 0.0048266139)
(5.0445347 -0.0031258175 0.0048967035)
(5.0504853 -0.0034896702 0.0050521528)
(5.0564522 -0.0036644948 0.0050370633)
(5.0622138 -0.0037957071 0.0050234651)
(5.0675118 -0.0036132186 0.0044910756)
(5.0711203 -0.0032514803 0.0032854612)
(5.0711585 -0.0023584774 0.00072925622)
(5.0627531 -0.0010730403 -0.0047121153)
(5.0302832 0.00051219007 -0.017730032)
(5.0258993 0.00059934942 -0.018340933)
(5.0576165 -0.00069821003 -0.0055229989)
(5.0661392 -0.0019081147 0.00022183455)
(5.0663989 -0.0027827702 0.0030026856)
(5.0630685 -0.0031754489 0.0044160113)
(5.0580875 -0.0034353285 0.0050318651)
(5.052591 -0.0033494294 0.0051688653)
(5.0469204 -0.003230695 0.005249205)
(5.0412188 -0.0029040508 0.0051863817)
(5.0358836 -0.0025270707 0.0051761905)
(5.0313214 -0.0020442575 0.0051093799)
(5.0275473 -0.0015857193 0.0050544279)
(5.024758 -0.0011085863 0.0049535833)
(5.022914 -0.00065201513 0.0048794005)
(5.0203582 -0.00062136684 0.0053043483)
(5.0222057 -0.0010621804 0.0053571296)
(5.0248621 -0.0015276968 0.0054227452)
(5.0283845 -0.0019508316 0.0054530633)
(5.0326613 -0.0024044109 0.0054733941)
(5.0376892 -0.0027520529 0.0054359497)
(5.0431653 -0.0030728501 0.0054058492)
(5.0485969 -0.0031652753 0.0052397474)
(5.0537934 -0.0032447904 0.0049782431)
(5.0584644 -0.0029540406 0.0042305198)
(5.0614048 -0.0025501916 0.0025993162)
(5.0607468 -0.001721275 -0.00039690887)
(5.0517123 -0.00064615685 -0.0064750799)
(5.0205705 0.00045746578 -0.019254061)
(5.0155063 0.00028719941 -0.019782767)
(5.0458967 -0.00053861255 -0.007083682)
(5.0553221 -0.0015303034 -0.00082622568)
(5.056287 -0.0023675077 0.0022888145)
(5.0536489 -0.0027860385 0.0040683638)
(5.0492946 -0.0031177994 0.0049328217)
(5.0443725 -0.0030539834 0.0053183346)
(5.0392149 -0.0029780289 0.0055658535)
(5.0340851 -0.0026621461 0.0056745467)
(5.0293733 -0.0023362129 0.00575834)
(5.0252898 -0.0018940717 0.0057786184)
(5.0219267 -0.0014805837 0.0057810608)
(5.0193642 -0.0010247614 0.0057511982)
(5.017593 -0.0006082381 0.0056982638)
(5.0149005 -0.00062418722 0.0060713433)
(5.016474 -0.0010365756 0.0061028232)
(5.0188529 -0.001495033 0.0061180061)
(5.0220423 -0.001914691 0.0060888851)
(5.0259023 -0.002359868 0.0060283762)
(5.030369 -0.0026799496 0.0058927031)
(5.0351517 -0.0029995135 0.0056961642)
(5.0399709 -0.003066836 0.0053589199)
(5.0446105 -0.003138791 0.0048393582)
(5.0486617 -0.0028145095 0.0038341716)
(5.0509861 -0.0024623575 0.001885646)
(5.0498317 -0.0017375476 -0.0013644708)
(5.0406363 -0.0010645026 -0.0077154527)
(5.012368 -0.0005934629 -0.020317205)
(5.0085281 -0.0017351502 -0.02008309)
(5.0353503 -0.001803377 -0.0076438)
(5.0444293 -0.0021880357 -0.0014539251)
(5.0457205 -0.0027117716 0.0016969685)
(5.0436576 -0.0029748783 0.0036870522)
(5.0398287 -0.0032695182 0.0047865843)
(5.0354856 -0.0031868359 0.0054109397)
(5.0309967 -0.0031175153 0.005827578)
(5.026547 -0.0027944238 0.0061067339)
(5.0223593 -0.0024790972 0.0062938139)
(5.0187403 -0.0020282587 0.0064048973)
(5.0157566 -0.0015906438 0.0064652109)
(5.0135469 -0.001103696 0.0064795349)
(5.0120136 -0.00065473684 0.00647007)
(5.0089833 -0.00067723377 0.006911269)
(5.0104759 -0.0011589039 0.0069121647)
(5.0125978 -0.001694532 0.0068621928)
(5.0153773 -0.0021782767 0.0067419858)
(5.0187679 -0.0026730785 0.006575014)
(5.0226807 -0.0030267778 0.0063318327)
(5.0268523 -0.0033729457 0.0059615411)
(5.0309766 -0.0034579045 0.0054528928)
(5.0350052 -0.0035536947 0.0047144973)
(5.0385822 -0.0032759276 0.0035366036)
(5.0404307 -0.0030323774 0.0015308592)
(5.0388864 -0.0025431292 -0.0015529978)
(5.0296085 -0.0021157407 -0.0075521148)
(5.0024233 -0.0018777428 -0.020394655)
(4.9969185 -0.0015064842 -0.020659392)
(5.0244386 -0.0022176242 -0.0077280644)
(5.0337642 -0.0028769164 -0.0017316468)
(5.0353096 -0.0034626968 0.001346988)
(5.0335555 -0.0037346876 0.003394268)
(5.0301934 -0.003997981 0.0046678699)
(5.0264436 -0.0038736413 0.0055187237)
(5.0226181 -0.0037357709 0.006131797)
(5.0187716 -0.0033339098 0.0066054221)
(5.0151513 -0.0029031178 0.0069152794)
(5.011966 -0.0023292346 0.0071397118)
(5.0093069 -0.0017823268 0.0072940396)
(5.0073183 -0.0012059407 0.0073609487)
(5.0058871 -0.0007053049 0.0073430259)
(5.0028655 -0.00075719579 0.0078118045)
(5.0041744 -0.0012878764 0.0078369235)
(5.0060136 -0.00189187 0.0077807274)
(5.0085094 -0.0024924961 0.0076166769)
(5.0114681 -0.0031511661 0.0073478685)
(5.0148193 -0.0036727492 0.0069491555)
(5.0184328 -0.0041773879 0.006360927)
(5.0219989 -0.0044101127 0.0056251425)
(5.0255136 -0.0046179979 0.0046188701)
(5.0286608 -0.004405573 0.0032055417)
(5.0302947 -0.0041158881 0.0010470033)
(5.0286821 -0.0034216862 -0.0021332967)
(5.019234 -0.0025768839 -0.0083113895)
(4.9906433 -0.0015470765 -0.021491163)
(4.986305 -0.0018731559 -0.022285282)
(5.0142656 -0.0031195566 -0.008955671)
(5.0236317 -0.0042267762 -0.0025947644)
(5.0252822 -0.005066585 0.00074198959)
(5.0237642 -0.0053618829 0.0030858798)
(5.0208145 -0.0054709407 0.0046845197)
(5.0175521 -0.0051039663 0.0058455607)
(5.0142274 -0.0047107316 0.0067090442)
(5.010866 -0.0040650823 0.007390179)
(5.0077137 -0.0034352791 0.00783978)
(5.0049999 -0.0026992893 0.0081347155)
(5.0026786 -0.0020378229 0.0082761413)
(5.0009906 -0.0013942232 0.0083331983)
(4.9997305 -0.00081191639 0.0082977252)
(4.9966584 -0.00085656714 0.00884679)
(4.9978115 -0.0014807511 0.0088873872)
(4.9994173 -0.0021887734 0.008849687)
(5.001544 -0.0029317357 0.0087257444)
(5.0040843 -0.0037599311 0.0084256809)
(5.006974 -0.0045319933 0.007950574)
(5.0100235 -0.0053688019 0.0072114282)
(5.0130876 -0.0060097367 0.0062542221)
(5.0161297 -0.0066332363 0.0048680136)
(5.0188766 -0.0067272179 0.0029682261)
(5.0202706 -0.0065135143 0.00027284038)
(5.0185796 -0.0055209311 -0.0034098596)
(5.0093245 -0.004134138 -0.010050436)
(4.9821677 -0.0025857917 -0.023428729)
(4.9791107 -0.0038679109 -0.024366324)
(5.0051703 -0.0061508878 -0.011234044)
(5.0138693 -0.0078439761 -0.0043364636)
(5.0154292 -0.0088038102 -0.00010329597)
(5.0140572 -0.0087323403 0.0031141999)
(5.0114745 -0.0082033713 0.005365301)
(5.0086637 -0.0071846537 0.0069491096)
(5.0058444 -0.0061599076 0.00797256)
(5.0030444 -0.0050532609 0.0087173566)
(5.0004062 -0.0040734564 0.0091383657)
(4.9980619 -0.0031171615 0.0093950806)
(4.9960832 -0.0022880949 0.0094692472)
(4.9946216 -0.0015329492 0.0094756444)
(4.9935205 -0.00087904397 0.0093960811)
(4.9905686 -0.00088928496 0.0099647905)
(4.9915293 -0.0015401483 0.01008765)
(4.9929082 -0.0023372484 0.010152376)
(4.994684 -0.0032261709 0.010166752)
(4.9968267 -0.0043168433 0.01001169)
(4.9992005 -0.0055192235 0.0097071954)
(5.0017204 -0.0069563144 0.0090668139)
(5.0043118 -0.0084888988 0.0080888402)
(5.006887 -0.010112027 0.0063096081)
(5.009312 -0.011392812 0.0036355752)
(5.0106873 -0.012064507 -0.00030899357)
(5.009217 -0.011354759 -0.0054724453)
(5.0007738 -0.0091928599 -0.013442288)
(4.9742102 -0.0055121625 -0.026958689)
(4.9707254 -0.0086640426 -0.031395905)
(4.9967413 -0.013962931 -0.016604435)
(5.0046568 -0.016360776 -0.006628813)
(5.0058506 -0.016364681 0.0001826342)
(5.0044761 -0.014542006 0.0051095844)
(5.0022923 -0.012134939 0.0080994111)
(5.000007 -0.009705215 0.0098363818)
(4.9977242 -0.0075813145 0.010618433)
(4.9954586 -0.0057859899 0.010979736)
(4.9932713 -0.0043895509 0.011043031)
(4.9913513 -0.0032335313 0.011006181)
(4.9897261 -0.0023115571 0.010852424)
(4.988461 -0.0015072682 0.010691278)
(4.98759 -0.00086344977 0.010504411)
(4.9846447 -0.00079041368 0.011031624)
(4.9854594 -0.0013882906 0.011279955)
(4.9866296 -0.0021302509 0.011547895)
(4.9881258 -0.0030059129 0.011845701)
(4.9898833 -0.0041557528 0.012135989)
(4.9918247 -0.005634153 0.012469306)
(4.9938158 -0.0076846784 0.012583118)
(4.9957884 -0.010300495 0.012294365)
(4.9977317 -0.013579775 0.010809778)
(4.9995738 -0.017236082 0.0077207406)
(5.0008111 -0.020740291 0.0016641485)
(4.9998771 -0.0223237 -0.0073575231)
(4.9925992 -0.02042042 -0.021009523)
(4.9678508 -0.013706792 -0.038731122)
(4.9655793 -0.020080699 -0.048410653)
(4.9878923 -0.027787421 -0.025112261)
(4.9941081 -0.027749468 -0.0063676093)
(4.995043 -0.023234269 0.0054710501)
(4.9944068 -0.017883397 0.011979229)
(4.993148 -0.013196307 0.014650939)
(4.9916528 -0.0096471878 0.015326305)
(4.9900327 -0.0069261457 0.014861039)
(4.988318 -0.0049349846 0.014065673)
(4.9866055 -0.0035407203 0.013233008)
(4.984985 -0.0025059162 0.012619303)
(4.9835815 -0.0017510336 0.012122357)
(4.982492 -0.0011488744 0.011763162)
(4.9816856 -0.00065454063 0.011446811)
(4.9789041 -0.00046141035 0.011712551)
(4.9796112 -0.00079319201 0.012047164)
(4.9806405 -0.0012012976 0.012511563)
(4.9819539 -0.0017256559 0.013190909)
(4.9834392 -0.0024590316 0.014082775)
(4.9849526 -0.0034699151 0.01537035)
(4.9864081 -0.0049100386 0.01679772)
(4.9876881 -0.0068680379 0.018097283)
(4.9886081 -0.0096573267 0.018465056)
(4.9887699 -0.013883652 0.017267728)
(4.9874525 -0.020770969 0.011304649)
(4.9846437 -0.030358719 -0.0021771721)
(4.9800265 -0.037226903 -0.029021107)
(4.9622206 -0.029392955 -0.060716235)
(4.9498253 -0.041137811 -0.076961437)
(4.9562811 -0.048460347 -0.02558681)
(4.9597601 -0.025263463 0.010839518)
(4.9733376 -0.010001294 0.021875354)
(4.9815713 -0.0048109289 0.022631776)
(4.9838985 -0.0030752995 0.02136248)
(4.983919 -0.0025441933 0.019689292)
(4.9830147 -0.0019145901 0.01787121)
(4.98181 -0.0015262853 0.016076946)
(4.9804275 -0.0010788795 0.01453143)
(4.979053 -0.00081391054 0.013434811)
(4.9778314 -0.00056745281 0.0126443)
(4.9768976 -0.00038343747 0.012137894)
(4.97621 -0.0002227522 0.011783777)
(4.9735679 4.8925935e-05 0.011639588)
(4.9742881 9.3998552e-05 0.011997649)
(4.9752096 0.00016173344 0.012510114)
(4.9762961 0.00025574005 0.013257913)
(4.9775553 0.00047777427 0.014315177)
(4.9788595 0.00078000907 0.015808099)
(4.979906 0.0014845858 0.017388251)
(4.9804427 0.0025880813 0.018990969)
(4.9793579 0.0044565384 0.020452402)
(4.9728144 0.0072305371 0.023838998)
(4.9485478 0.0077706367 0.030884956)
(4.8952153 -0.002014958 0.036595101)
(4.8700141 -0.03334901 -0.012813825)
(4.910571 -0.050678777 -0.10065762)
(4.8396355 -0.014431166 -0.10365404)
(4.8122152 0.02876949 0.030627249)
(4.8580478 0.021429898 0.050742983)
(4.9336511 0.01877228 0.030743621)
(4.9668957 0.011956858 0.019973672)
(4.9755319 0.0086434322 0.017288815)
(4.9773341 0.0055651968 0.016712131)
(4.9770261 0.0039474516 0.015870465)
(4.9760769 0.0025701143 0.014764882)
(4.9748815 0.0018306095 0.013595845)
(4.9736704 0.0012193818 0.012688781)
(4.9726141 0.00085065721 0.012033877)
(4.9717293 0.00052797713 0.011575177)
(4.9710447 0.00029685989 0.011247973)
(4.9687491 0.00052088016 0.010683677)
(4.9693613 0.0009187016 0.010940274)
(4.9701917 0.0014399287 0.011317169)
(4.9712066 0.002062432 0.01182307)
(4.97235 0.002973434 0.012509809)
(4.973525 0.0040696043 0.013346403)
(4.974467 0.0057842573 0.014050932)
(4.9747714 0.0078437555 0.014202402)
(4.9734917 0.010885316 0.014062589)
(4.9681922 0.014657571 0.014489622)
(4.9534527 0.022229649 0.020161379)
(4.9253553 0.038609283 0.032625518)
(4.8850609 0.067725439 0.035564828)
(4.8496431 0.066556418 -0.054956621)
(4.9191344 0.073753468 -0.025558659)
(4.9416054 0.055298118 0.0072107232)
(4.9563766 0.031247479 0.0096157999)
(4.9647513 0.020399589 0.0088256422)
(4.9701104 0.014374152 0.0094126646)
(4.9722288 0.011542184 0.010690403)
(4.9726215 0.0086983547 0.011552311)
(4.9721055 0.0067829239 0.01186357)
(4.9711313 0.0049206367 0.011619401)
(4.9699434 0.0037051178 0.011147253)
(4.9688464 0.002653657 0.010696956)
(4.9678952 0.001878244 0.010372862)
(4.9671202 0.0012239317 0.010107652)
(4.9665414 0.00070344791 0.0099178656)
(4.9644976 0.0008340453 0.0090359965)
(4.965078 0.0014604645 0.0091638231)
(4.9658185 0.0022109216 0.0093252358)
(4.9667202 0.0030760983 0.0094970274)
(4.9677822 0.0041721075 0.0097312793)
(4.9689516 0.0054778357 0.0098876825)
(4.9699749 0.0072143566 0.0098548836)
(4.9707304 0.0090454579 0.0092279443)
(4.9710226 0.011330146 0.008160479)
(4.9705614 0.01368851 0.006109028)
(4.9690096 0.01690103 0.0040249944)
(4.966195 0.021499247 -4.2008483e-05)
(4.962218 0.029082141 -0.0056582825)
(4.9560936 0.036086262 -0.021363874)
(4.966659 0.016520117 -0.015233193)
(4.9679323 0.016876677 -0.0068572205)
(4.9690552 0.015686806 -0.0022096514)
(4.9697606 0.014072877 0.0013664362)
(4.9699667 0.012152033 0.0037844382)
(4.9695866 0.010494646 0.0058468598)
(4.9688924 0.008663819 0.0071117786)
(4.9680033 0.0071297404 0.0078921772)
(4.9668723 0.0055659522 0.0081604139)
(4.9657147 0.0043471143 0.0082469084)
(4.9646945 0.0032607236 0.0082194027)
(4.963851 0.0023827099 0.0081801207)
(4.9631444 0.0015851767 0.0081139164)
(4.9625678 0.00091450735 0.0080414561)
(4.9608621 0.00096624305 0.0070180092)
(4.9613924 0.0016553628 0.0070360195)
(4.9620941 0.0024637435 0.0070326822)
(4.9628936 0.0033294804 0.0069627225)
(4.9638341 0.0043516636 0.0068462575)
(4.9649169 0.0054233038 0.0065980223)
(4.9661191 0.0067132771 0.0062247843)
(4.9671576 0.0079630962 0.0054103358)
(4.9680406 0.0092649969 0.0042163576)
(4.9687965 0.01029843 0.0023071252)
(4.9691772 0.011151845 0.00025130123)
(4.9692113 0.011437198 -0.0027816261)
(4.9689701 0.010928756 -0.0061075467)
(4.9686297 0.0091150755 -0.010826181)
(4.9683384 0.0057710193 -0.0075006307)
(4.968444 0.0076194015 -0.0047115108)
(4.9683635 0.0086187429 -0.0024194541)
(4.9680064 0.0088766173 -0.00025829018)
(4.9673525 0.0085642613 0.0014163575)
(4.9664191 0.0079939857 0.0029661348)
(4.9654647 0.0071058981 0.0040255987)
(4.9643725 0.0061499459 0.0047911077)
(4.9631939 0.0051198073 0.0052389417)
(4.9621725 0.0042198534 0.0055533206)
(4.9612613 0.0032989206 0.0057363679)
(4.9605058 0.0024681126 0.0058718179)
(4.9598317 0.0016728288 0.0059354274)
(4.959304 0.00098399829 0.0059602249)
(4.9579586 0.00097701802 0.0048965215)
(4.9584871 0.0016651409 0.0048466555)
(4.9591293 0.0024347551 0.0047609145)
(4.9598504 0.0032084284 0.0046071069)
(4.9607277 0.0040192636 0.0044008797)
(4.9617364 0.0047925255 0.0040620514)
(4.9628487 0.0055999694 0.003622352)
(4.9639262 0.0062900355 0.0029652724)
(4.9649106 0.0068628095 0.0020998096)
(4.9658971 0.0071310791 0.00086108581)
(4.9666524 0.0070912583 -0.00043010717)
(4.9671135 0.0065937636 -0.0020176754)
(4.9673058 0.00554603 -0.0035783772)
(4.9672345 0.0039418291 -0.0052757226)
(4.9660227 0.0028983701 -0.0036356165)
(4.9660296 0.004266542 -0.0025840155)
(4.9658001 0.0052647171 -0.0015376412)
(4.9653174 0.0058500934 -0.00042934477)
(4.964551 0.0060596328 0.00052633163)
(4.963578 0.0059705859 0.0014581938)
(4.9625837 0.0056033779 0.0021494015)
(4.9615109 0.0051007429 0.0026789542)
(4.9604711 0.0044705837 0.0030664491)
(4.9594942 0.0038019412 0.0033700178)
(4.9586356 0.0030775412 0.0035646761)
(4.9579257 0.0023550563 0.0037083625)
(4.9572712 0.001623001 0.0038057473)
(4.9567213 0.00097333697 0.0038678335)
(4.9557061 0.00098318508 0.0029028444)
(4.956215 0.0016057698 0.0028455066)
(4.956829 0.0022698082 0.0027368217)
(4.9575884 0.0029278504 0.0026227049)
(4.9584546 0.0035771253 0.0024615414)
(4.9594101 0.0041678041 0.0022127959)
(4.9604225 0.0046937436 0.0019057356)
(4.9614406 0.0050577373 0.0014923428)
(4.962448 0.0052940137 0.00097471455)
(4.963365 0.005273733 0.00031246328)
(4.9641185 0.0049822238 -0.00036450025)
(4.9646116 0.0043716471 -0.0011265284)
(4.9648535 0.0034473743 -0.0018140667)
(4.9647903 0.0022491765 -0.0024509196)
(4.9637408 0.0018716478 -0.0015577597)
(4.9637698 0.0029284885 -0.0011796994)
(4.963503 0.0037884113 -0.0007665666)
(4.9630623 0.0044007705 -0.00028279254)
(4.9623593 0.0047437263 0.00015874713)
(4.961466 0.0048347102 0.00060610584)
(4.9605097 0.0046945678 0.00096754766)
(4.9595342 0.0044082376 0.0012582514)
(4.9585352 0.003951298 0.0014724945)
(4.9575673 0.0034210111 0.0016643182)
(4.956738 0.002828012 0.0017921841)
(4.9559859 0.0022145591 0.0018879483)
(4.9553334 0.0015913248 0.0019826747)
(4.954804 0.00097528565 0.0020114502)
(4.9539659 0.00089841295 0.0011675735)
(4.9545959 0.0015344091 0.0011806545)
(4.9552712 0.0021545654 0.0011145037)
(4.9560561 0.0027565953 0.001042299)
(4.956885 0.0033334236 0.00095153452)
(4.957833 0.0038254782 0.00083226527)
(4.9587777 0.0042187151 0.00070917925)
(4.959779 0.0044692922 0.00053980041)
(4.9607219 0.0045646722 0.00032957906)
(4.9615674 0.0044194567 7.4021954e-05)
(4.9622384 0.0040450679 -0.00017089747)
(4.9626562 0.0034423532 -0.00045071211)
(4.9628566 0.0026164047 -0.00067154587)
(4.9627628 0.0016674832 -0.00083984873)
(4.9631565 0.0016732898 -0.00082185316)
(4.9629414 0.00057075322 -0.00095463205)
(4.9631308 0.00057028333 -0.0009457764)
(4.9634749 0.00057054727 -0.00093726622)
(4.9637696 0.0005699877 -0.00093034386)
(4.9641231 0.00056730145 -0.00092134966)
(4.9644632 0.0005644771 -0.00091137646)
(4.964829 0.00056128267 -0.00089821261)
(4.9651904 0.00055892223 -0.0008830684)
(4.9655739 0.00055537532 -0.00086462636)
(4.9659581 0.0005515648 -0.00084403994)
(4.9663652 0.0005476279 -0.00082042826)
(4.966781 0.00054417033 -0.0007946088)
(4.9672211 0.00054037441 -0.00076564477)
(4.9676782 0.00053590213 -0.00073411807)
(4.9681591 0.00053127593 -0.0006994508)
(4.968664 0.00052702316 -0.00066142003)
(4.9691946 0.00052179923 -0.00061958217)
(4.9697542 0.0005166296 -0.00057357917)
(4.9703436 0.00051105579 -0.00052254775)
(4.9709693 0.00050510983 -0.0004663384)
(4.9716298 0.00049858112 -0.00040478769)
(4.9723332 0.00049104575 -0.00033579426)
(4.9730786 0.00048229487 -0.00025927457)
(4.9738759 0.00047174511 -0.00017294163)
(4.9747235 0.00045950321 -7.5647343e-05)
(4.9756333 0.00044454825 3.5362366e-05)
(4.9766056 0.00042709993 0.000162104)
(4.9776542 0.00040624523 0.00030839832)
(4.978783 0.00038126939 0.00047776061)
(4.9800085 0.00035138929 0.00067543971)
(4.9813409 0.0003156968 0.00090686437)
(4.9828017 0.00027295589 0.001179655)
(4.9844102 0.00022163878 0.0015025334)
(4.9861965 0.00016054717 0.001886689)
(4.988197 8.9803301e-05 0.0023443765)
(4.9904535 7.3505946e-06 0.0028899358)
(4.9930287 -8.8287418e-05 0.0035408532)
(5.0372649 -0.0016482485 0.00062380816)
(5.0353975 -0.0014257803 0.00059577856)
(5.0339278 -0.0012371039 0.00056912768)
(5.0327816 -0.0010770585 0.00054412348)
(5.0319078 -0.00094255202 0.00052065637)
(5.0312512 -0.00082931591 0.00049845564)
(5.0307739 -0.00073541237 0.00047754216)
(5.030437 -0.0006523696 0.00045863952)
(5.030212 -0.00058468052 0.00044177309)
(5.030073 -0.00052607652 0.00042449673)
(5.0300105 -0.00047871918 0.00040835436)
(5.0300002 -0.00044350027 0.00039221297)
(5.0300244 -0.00041858272 0.00037747486)
(5.0300716 -0.00039643359 0.00036290801)
(5.0301339 -0.00037670588 0.00034927641)
(5.0302052 -0.00035949072 0.0003365558)
(5.0302807 -0.0003445855 0.00032460929)
(5.0303563 -0.00033172152 0.0003132958)
(5.0304288 -0.00032060538 0.00030256384)
(5.0304958 -0.00031107734 0.00029229396)
(5.0305553 -0.00030277856 0.00028244644)
(5.0306062 -0.00029552472 0.00027292337)
(5.0306476 -0.00028903435 0.00026373897)
(5.0306789 -0.00028319901 0.00025485215)
(5.0307001 -0.00027765225 0.00024630835)
(5.0307113 -0.00027263347 0.00023784707)
(5.0307128 -0.00026850144 0.00022971756)
(5.0307052 -0.00026440111 0.0002217665)
(5.0306887 -0.00025989443 0.0002142143)
(5.0306639 -0.00025495844 0.00020700141)
(5.0306318 -0.00024958903 0.00019954428)
(5.0305925 -0.00024445111 0.00019238211)
(5.0305475 -0.00023837911 0.0001839727)
(5.030497 -0.00023407806 0.00017691898)
(5.0304453 -0.0002260415 0.00016866674)
(5.0303927 -0.0002217025 0.0001621219)
(5.0303528 -0.00021331024 0.00015715265)
(5.0321127 -0.00071271789 0.00021281581)
(5.0321214 -0.0007243843 0.00021157371)