/*--------------------------------*- C++ -*----------------------------------*\
| =========                 |                                                 |
| \\      /  F ield         | OpenFOAM: The Open Source CFD Toolbox           |
|  \\    /   O peration     | Version:  v2012                                 |
|   \\  /    A nd           | Website:  www.openfoam.com                      |
|    \\/     M anipulation  |                                                 |
\*---------------------------------------------------------------------------*/
FoamFile
{
    version     2.0;
    format      ascii;
    class       volScalarField;
    location    "100";
    object      k;
}
// * * * * * * * * * * * * * * * * * * * * * * * * * * * * * * * * * * * * * //

dimensions      [0 2 -2 0 0 0 0];


internalField   nonuniform List<scalar> 
15114
(
0.36240645
0.37296867
0.40002822
0.44120035
0.56067357
0.66034202
0.64373872
0.64370644
0.63898367
0.60648773
0.59223607
0.58169173
0.56995473
0.54698439
0.53461287
0.52481255
0.51515356
0.50656267
0.4985247
0.49123952
0.48175175
0.47378036
0.46694931
0.46041691
0.454275
0.44826527
0.4424926
0.43692835
0.4315869
0.42635658
0.42130357
0.41647463
0.41167378
0.40697895
0.40239675
0.39780938
0.39331133
0.38877064
0.38421908
0.37965959
0.37500463
0.37034461
0.36552632
0.36070118
0.35567466
0.35062355
0.34535812
0.3400555
0.33455461
0.32899907
0.32329441
0.31750563
0.31162335
0.30562343
0.29958139
0.29339704
0.28708447
0.28075733
0.27369007
0.26718984
0.26676943
0.26167676
0.25542831
0.2491666
0.3656
0.38536036
0.38556765
0.40303722
0.4238119
0.45671423
0.49022934
0.51912999
0.44918602
0.42061406
0.4386669
0.44453428
0.43149183
0.42133136
0.44524136
0.47827936
0.49279436
0.51427022
0.49571599
0.50028797
0.63893983
0.7029125
0.56767588
0.55996663
0.60770737
0.69748458
0.70605398
0.70825907
0.6960273
0.64716081
0.62341294
0.60577291
0.59115466
0.56451883
0.55047128
0.53647162
0.52461656
0.51414501
0.50433305
0.49580519
0.48680304
0.47891675
0.47036256
0.46311515
0.45640794
0.4500596
0.44397264
0.43814477
0.43256753
0.42718812
0.42198343
0.41698784
0.41208761
0.40729653
0.40261029
0.39797117
0.39337602
0.38877339
0.38413234
0.37949402
0.37477532
0.37002441
0.36514202
0.36022034
0.35512732
0.34996776
0.34462049
0.33920629
0.33364006
0.32800154
0.32226491
0.31642006
0.31048896
0.30446618
0.29834692
0.29212943
0.28569188
0.27886429
0.27187322
0.2642488
0.265969
0.27224079
0.27394846
0.27921444
0.28245262
0.28718609
0.29302503
0.2953697
0.29938273
0.30032732
0.29439025
0.29188645
0.29157387
0.28824928
0.28586453
0.28046255
0.27590999
0.2724422
0.26728654
0.26406649
0.25777766
0.25743527
0.25823899
0.25519537
0.26117728
0.25605704
0.25861408
0.26086093
0.26584913
0.26329548
0.26571109
0.26159811
0.25724602
0.2513728
0.24503716
0.28413489
0.28480258
0.29029101
0.29168094
0.30118396
0.30263403
0.30848248
0.30926984
0.31207228
0.31303479
0.31929676
0.3208718
0.32834817
0.32847858
0.33088081
0.33738802
0.34647826
0.34921609
0.36240938
0.36602009
0.38061474
0.38448871
0.3988435
0.40181328
0.40973032
0.41135218
0.41540495
0.41616685
0.41778191
0.41799696
0.41867818
0.41879545
0.41939927
0.41939563
0.41943279
0.4192055
0.41871353
0.41744897
0.41805092
0.42295037
0.42915213
0.42942298
0.43021051
0.43032658
0.43082516
0.43077347
0.43054142
0.43029494
0.42979835
0.42943632
0.4288721
0.42754701
0.42817556
0.43323718
0.4397724
0.44013595
0.44158295
0.44190585
0.44358578
0.44411617
0.44706792
0.44714459
0.44981917
0.45698099
0.46538013
0.46806392
0.47882493
0.48315893
0.36229229
0.37237753
0.37896051
0.40768139
0.39617491
0.44652937
0.53220889
0.53499384
0.56062736
0.5728283
0.69420327
0.692135
0.58464918
0.54655337
0.55627174
0.53468503
0.61540008
0.58785496
0.58638023
0.61897812
0.58338573
0.55127474
0.51125639
0.53547117
0.53612885
0.56717628
0.58549655
0.54878741
0.56121095
0.53424921
0.4902178
0.55424006
0.56227475
0.61774173
0.6417605
0.8817611
0.82504608
0.80394756
0.72019186
0.67838339
0.69876958
0.68721204
0.64098952
0.62708353
0.60959129
0.59484658
0.58490193
0.56030836
0.55840501
0.54382201
0.53179998
0.52086874
0.509947
0.50119397
0.49561957
0.4846116
0.48444806
0.4753318
0.46808182
0.46125493
0.4546957
0.4483479
0.44224833
0.43637906
0.43071883
0.42525246
0.42000004
0.41486103
0.40984202
0.40495425
0.40011958
0.39533521
0.39058876
0.3857782
0.38097875
0.37612847
0.3712348
0.36622696
0.36117808
0.35597764
0.35074648
0.34534661
0.33987
0.33425575
0.32852915
0.32270301
0.31677213
0.31074481
0.30466222
0.29846184
0.29221367
0.28573354
0.27889696
0.28056928
0.28730592
0.29374231
0.30004572
0.30629787
0.31247905
0.31863898
0.324713
0.33066722
0.33652152
0.34227246
0.34792303
0.35353267
0.35898609
0.36436318
0.36960504
0.37482493
0.37995237
0.38502669
0.39009399
0.39514605
0.40015619
0.40522731
0.41039051
0.41559775
0.42094794
0.42646558
0.4320918
0.43794454
0.44404035
0.45036512
0.45693007
0.46379558
0.47096252
0.47831934
0.48581749
0.49413854
0.50403712
0.51082677
0.51944138
0.52959903
0.54055209
0.55326956
0.56251648
0.58700964
0.5987312
0.61225089
0.62951604
0.68775576
0.69720041
0.70515408
0.71451834
0.72008179
0.71256601
0.65264593
0.64447789
0.62844803
0.61458032
0.60476721
0.56817254
0.57300125
0.55815408
0.54646364
0.53524489
0.52518448
0.51771886
0.50918324
0.50083364
0.49298755
0.48473286
0.47666383
0.46909489
0.4619016
0.45500599
0.44839391
0.44206194
0.4359339
0.42999616
0.42425627
0.41863158
0.41312119
0.40771672
0.40238523
0.39706866
0.39176293
0.38645679
0.38110765
0.37572526
0.37028518
0.36475526
0.35915523
0.35344659
0.34766865
0.34180146
0.33585978
0.32983104
0.32373544
0.31756493
0.31136714
0.30511036
0.29883907
0.29245072
0.2857327
0.28916859
0.29607904
0.30261725
0.30906266
0.31548827
0.32186691
0.32828008
0.33458163
0.34080658
0.34698982
0.35308326
0.35910549
0.36505163
0.37092487
0.3767316
0.38247051
0.38817518
0.39381772
0.39944945
0.40504802
0.41070988
0.41639969
0.42217138
0.42806657
0.43411705
0.44032587
0.44676138
0.45345102
0.46042345
0.46773525
0.47545183
0.4836303
0.49241907
0.5019518
0.51287196
0.52188081
0.53311483
0.55763837
0.58133165
0.59552402
0.61341539
0.6562747
0.66968338
0.68751081
0.70648652
0.73096646
0.84039872
0.8702414
0.86766435
0.96909034
0.72757355
0.71280022
0.58336924
0.56556451
0.53561639
0.55530175
0.51319357
0.54777683
0.53312552
0.4711987
0.51890806
0.53933177
0.52789935
0.57097893
0.49618365
0.52022483
0.53269703
0.59235457
0.59074144
0.55462756
0.64917443
0.56758348
0.51411383
0.49239198
0.42951044
0.38782594
0.37003157
0.36187275
0.32357544
0.32091296
0.31823806
0.31556383
0.31290857
0.31029186
0.30773075
0.30523782
0.30282141
0.30048379
0.29822174
0.29602718
0.29388778
0.2917877
0.29228691
0.29437773
0.2965052
0.29868534
0.30093056
0.30324897
0.30564385
0.30811312
0.31064893
0.3132392
0.3158658
0.3185096
0.32115252
0.32378163
0.32425687
0.32170398
0.31913495
0.31656179
0.31400154
0.31147211
0.30899187
0.30657423
0.30422648
0.30195043
0.29974274
0.29759538
0.29549609
0.2934291
0.29546989
0.29750339
0.29956125
0.30165877
0.3038076
0.30601533
0.30828505
0.31061491
0.31299827
0.31542178
0.31786527
0.32031192
0.32274679
0.32516009
0.32676289
0.3245838
0.32236896
0.32012458
0.3178635
0.31560256
0.31336466
0.31116267
0.30900309
0.30688801
0.30481506
0.30277781
0.30076602
0.29876605
0.30366687
0.30566816
0.3076625
0.30966059
0.31166912
0.31369132
0.31572714
0.31777402
0.31982459
0.32186588
0.32387119
0.32582028
0.3277011
0.32951183
0.33412758
0.33284608
0.33141596
0.32983833
0.32813186
0.32632943
0.32446196
0.32254391
0.32058427
0.31858748
0.31655914
0.31450379
0.31242281
0.31031314
0.31817861
0.3206226
0.32302308
0.3253726
0.32765541
0.32984894
0.33192499
0.33386915
0.3356797
0.33733331
0.33879434
0.3399937
0.34089122
0.34147772
0.35253601
0.35269039
0.35221308
0.35116939
0.34966291
0.34783056
0.34571706
0.34336724
0.34077461
0.33792645
0.33491172
0.33180692
0.32865791
0.3254899
0.32804263
0.33240991
0.33688663
0.34145589
0.34615476
0.35090407
0.3550573
0.35870195
0.36205818
0.36495011
0.36718558
0.36860688
0.36896688
0.36804591
0.35691947
0.3623637
0.36927364
0.37229613
0.37291263
0.37265348
0.37557182
0.37653317
0.37925121
0.37958427
0.38159958
0.3807994
0.38181537
0.38007173
0.38017424
0.3777244
0.37718043
0.37435859
0.37333937
0.37032631
0.36889684
0.36579677
0.363999
0.36087875
0.35876222
0.35571011
0.35335418
0.35031101
0.34752872
0.3403734
0.3292075
0.3391318
0.27201792
0.28163622
0.28831482
0.29274064
0.28346971
0.287056
0.29291003
0.29821541
0.30406789
0.30938194
0.31505069
0.32026912
0.32578198
0.3308884
0.33624705
0.34123903
0.3464368
0.35128927
0.35627141
0.36095257
0.36569648
0.37019387
0.37473647
0.3791004
0.38347317
0.38774227
0.39200296
0.3962367
0.40042698
0.40467256
0.40887124
0.41317547
0.41745702
0.42184141
0.42620661
0.43075406
0.43519053
0.43976933
0.4441852
0.44866042
0.45274383
0.45666099
0.45983657
0.4626603
0.45896787
0.45568926
0.44809309
0.43204433
0.41378632
0.39513327
0.38143605
0.37055281
0.3631846
0.29176113
0.29170875
0.29162365
0.29150605
0.29136391
0.2912006
0.29102112
0.29082773
0.29062584
0.29041815
0.2902083
0.28999912
0.2897919
0.28958886
0.28939045
0.28919439
0.29139817
0.29158523
0.29177575
0.29197099
0.29217058
0.29237255
0.29257487
0.29277534
0.29297006
0.29315603
0.29332844
0.29348474
0.29362085
0.29373327
0.29381474
0.29386449
0.29600626
0.29595922
0.29588191
0.29577561
0.29564669
0.29549855
0.29533439
0.29515706
0.29497088
0.29477911
0.29458546
0.29439219
0.29420135
0.2940147
0.293833
0.29365527
0.29597676
0.29614549
0.29631817
0.29649575
0.29667716
0.29686094
0.29704503
0.29722709
0.2974037
0.29757148
0.29772638
0.2978655
0.29798625
0.29808564
0.29815829
0.29820261
0.30046598
0.30042448
0.30035677
0.30026483
0.30015285
0.30002327
0.29987813
0.29972034
0.2995537
0.29938166
0.29920737
0.29903319
0.29886106
0.29869237
0.29852805
0.29836739
0.30082453
0.3009791
0.30113662
0.30129773
0.30146168
0.30162711
0.30179224
0.30195479
0.30211183
0.3022599
0.30239545
0.30251559
0.30261874
0.30270311
0.30276576
0.30280456
0.30522165
0.30518531
0.30512747
0.30505019
0.30495528
0.30484367
0.3047167
0.30457712
0.30442831
0.30427363
0.30411587
0.30395716
0.3037992
0.30364325
0.30348993
0.30619865
0.30635276
0.30650789
0.30666294
0.30681622
0.30696578
0.30710891
0.30724228
0.30736272
0.30746752
0.30755561
0.30762689
0.30768058
0.30771494
0.31027609
0.310243
0.31019231
0.31012537
0.31004199
0.30994149
0.30982462
0.30969426
0.30955355
0.30940564
0.30925313
0.30909793
0.30894165
0.31154564
0.3117071
0.3118668
0.31202304
0.31217387
0.31231664
0.31244812
0.31256499
0.31266443
0.31274587
0.31281061
0.31285976
0.3128925
0.31554699
0.31551334
0.31546365
0.31539818
0.31531516
0.31521286
0.31509196
0.31495559
0.31480715
0.31465002
0.31448695
0.31431999
0.31415095
0.31674939
0.31692607
0.31710114
0.31727264
0.31743827
0.31759514
0.31773953
0.31786765
0.31797599
0.31806358
0.31813231
0.31818432
0.31822003
0.3208934
0.32085468
0.3207988
0.32072481
0.32063048
0.32051406
0.32037716
0.32022385
0.32005843
0.31988495
0.31970658
0.3195258
0.3193447
0.32195072
0.32213034
0.32231163
0.32249241
0.32267011
0.32284138
0.32300182
0.32314654
0.32327077
0.3233721
0.32345191
0.32351219
0.32355428
0.32375415
0.32112685
0.31848552
0.31584284
0.31321687
0.31062673
0.30809065
0.3056208
0.30322503
0.30090544
0.29865871
0.29647673
0.29434702
0.29225348
0.3237043
0.32108067
0.31844252
0.31580191
0.31317675
0.31058608
0.30804846
0.30557629
0.30317771
0.30085511
0.29860535
0.29642046
0.29428796
0.29219178
0.49546171
0.47684012
0.46947415
0.46026656
0.45663381
0.44752169
0.43938242
0.43847726
0.43786318
0.43571194
0.43495732
0.43359631
0.43296507
0.43172501
0.43155121
0.42348434
0.41550964
0.41862573
0.41994155
0.42067546
0.42128677
0.42191092
0.42224215
0.42249576
0.42251892
0.42213223
0.42185635
0.42115755
0.42113986
0.41332459
0.40552428
0.40872849
0.4099376
0.41058379
0.41095368
0.41106815
0.41111008
0.41068658
0.41042927
0.40992465
0.40956766
0.40813325
0.40691104
0.40339413
0.40086642
0.39402195
0.38938143
0.37719559
0.37119618
0.35866268
0.35289232
0.3413069
0.33710359
0.32879474
0.32177789
0.32041537
0.3193263
0.31325311
0.31076276
0.30546578
0.30390955
0.30138422
0.30003854
0.29502001
0.29270065
0.28474051
0.28247172
0.27774102
0.27660011
0.25546168
0.26227695
0.26430353
0.26813619
0.27111741
0.27730264
0.28046661
0.28461131
0.28648623
0.28873804
0.29082629
0.29509256
0.29825344
0.30289517
0.30478293
0.30710408
0.31096681
0.3168792
0.32814555
0.33615423
0.34605474
0.35424377
0.36360979
0.36995687
0.37559031
0.37912993
0.38208252
0.38380086
0.38494706
0.3852446
0.38477895
0.38718653
0.3939747
0.39443182
0.39435168
0.39408267
0.39357087
0.39275572
0.39143598
0.38936792
0.388341
0.38770104
0.39014471
0.39701372
0.39751644
0.39745793
0.39714393
0.39666568
0.39568441
0.39387706
0.39558669
0.40203215
0.40098548
0.39898058
0.39799191
0.39741148
0.4001651
0.40768133
0.40894013
0.40962173
0.41003795
0.41281416
0.42061136
0.42236245
0.42536044
0.43128809
0.44286175
0.45234271
0.46681264
0.47830146
0.49600054
0.50932831
0.52825113
0.5181966
0.50561658
0.48689107
0.46933883
0.46076502
0.45187028
0.44335373
0.43379337
0.43087024
0.42935451
0.42854004
0.42718135
0.42637488
0.42510223
0.424238
0.4231438
0.41488757
0.4063019
0.40705264
0.40931745
0.41064485
0.41151882
0.41274897
0.41343989
0.41380163
0.41406094
0.41409653
0.41377558
0.41341212
0.41277104
0.40471954
0.39633512
0.39718934
0.39951082
0.40075303
0.4015025
0.40197815
0.40221211
0.40233998
0.4020431
0.40177898
0.40172696
0.40126491
0.39999897
0.39852446
0.39530438
0.39225976
0.38612009
0.38058602
0.36987553
0.36274867
0.35160541
0.34450371
0.33378279
0.32635024
0.31864378
0.31490779
0.31278427
0.3111322
0.30601214
0.30305988
0.29845858
0.29654396
0.2941943
0.29247309
0.28802385
0.28514888
0.27838941
0.27563519
0.27148755
0.26982078
0.30817092
0.31509849
0.32160228
0.3250459
0.32876454
0.33506389
0.34212837
0.34924991
0.35629641
0.36313342
0.36979611
0.37625328
0.3825204
0.38860094
0.39446808
0.40017281
0.40570322
0.41106713
0.41609632
0.4207894
0.42486722
0.42818626
0.43018342
0.42976515
0.42437958
0.4179629
0.40878508
0.40118093
0.39064838
0.38018649
0.37167661
0.36532945
0.36055514
0.36249776
0.36418276
0.36947133
0.37413256
0.38211351
0.38505649
0.37816891
0.39038358
0.37898163
0.38405714
0.38799884
0.39109041
0.39326125
0.39462429
0.39502406
0.39464441
0.39359343
0.39203502
0.39016152
0.38788359
0.38542477
0.38261002
0.37974423
0.37654575
0.37334765
0.36985574
0.36636954
0.36265709
0.35898343
0.35523459
0.35172566
0.34885593
0.34121136
0.34484818
0.34916514
0.3539416
0.35897463
0.36390293
0.36877422
0.37341981
0.37796098
0.38227062
0.38642821
0.39032719
0.39402799
0.39746542
0.40062187
0.40343168
0.40575505
0.40756262
0.4085691
0.40868278
0.40721508
0.40422076
0.39841294
0.39683599
0.38620471
0.38345645
0.38698069
0.39541101
0.39098606
0.39286595
0.40041373
0.39515646
0.39512791
0.40088977
0.39547519
0.39403649
0.39839945
0.3930386
0.39080401
0.39387592
0.38891874
0.38614265
0.38797719
0.3835975
0.38043403
0.38105625
0.37738739
0.37396858
0.37341731
0.3704958
0.36691393
0.36528535
0.36310071
0.35945528
0.35685556
0.35546854
0.35204727
0.34863779
0.34868795
0.34188184
0.34585034
0.35048052
0.35463223
0.36003868
0.36435916
0.35023672
0.34362862
0.33613234
0.33055808
0.32606122
0.32355417
0.31754541
0.31285821
0.32792633
0.51243925
0.49878562
0.48132277
0.46983748
0.45627661
0.44194264
0.43107061
0.42191281
0.415999
0.41249321
0.40974313
0.40110327
0.40086242
0.40007732
0.39910502
0.39715467
0.38848348
0.38844417
0.38880164
0.3897255
0.39121755
0.39167663
0.38326125
0.38505162
0.38654333
0.38751199
0.38799832
0.38834561
0.38811153
0.38699526
0.37857341
0.37901051
0.37945227
0.38046712
0.38226325
0.38361671
0.38448526
0.38504695
0.38530503
0.38511641
0.3840824
0.37592928
0.37635151
0.3764249
0.37603449
0.37496111
0.37324697
0.37034661
0.36671912
0.36120302
0.35480333
0.34581941
0.33740345
0.3272588
0.3176479
0.31022586
0.30343853
0.29925641
0.29652628
0.29445207
0.29025971
0.28698868
0.2830209
0.28079049
0.27857209
0.27657815
0.27276267
0.26947112
0.26387115
0.26062871
0.25670344
0.25339052
0.24784722
0.25032677
0.25404056
0.24741535
0.24089441
0.24385827
0.25062885
0.25738854
0.26247706
0.25543597
0.24852127
0.25165946
0.25874435
0.26584936
0.26945082
0.2623527
0.25529985
0.2483124
0.24155213
0.23481983
0.22833996
0.2300655
0.23662684
0.24337573
0.25017356
0.25729578
0.26444369
0.2715749
0.27377969
0.2667255
0.2597335
0.25279234
0.24603411
0.23932815
0.23289865
0.22653652
0.22042898
0.21499548
0.21205332
0.21431044
0.21387622
0.21673358
0.22212769
0.22823766
0.23463665
0.24118359
0.24792446
0.25476013
0.2618751
0.26896995
0.2760965
0.27980473
0.27259673
0.26549699
0.25841533
0.25152292
0.24471567
0.23815786
0.23172269
0.22555355
0.22009083
0.21708198
0.2193501
0.21900556
0.22199589
0.22761673
0.23392212
0.240486
0.24721913
0.2541305
0.26115574
0.26847182
0.27575501
0.28309775
0.28694197
0.27945609
0.2721101
0.26480463
0.25770279
0.25070944
0.24398824
0.23740226
0.23108668
0.225403
0.22222708
0.22425344
0.22408764
0.22731945
0.23303806
0.23942433
0.24605148
0.25285026
0.25985226
0.26696317
0.27437499
0.28176898
0.28920706
0.29215839
0.28493554
0.27773497
0.27053026
0.26350028
0.256543
0.24983433
0.2432444
0.23697078
0.23128377
0.22798897
0.23068536
0.23143676
0.23475466
0.24053259
0.24691775
0.25357669
0.26040396
0.26738213
0.27441945
0.28179377
0.28912422
0.29638243
0.30321985
0.29596246
0.28872607
0.28139887
0.27423536
0.26709376
0.26015313
0.25329389
0.2467005
0.24067371
0.23697635
0.24006058
0.24230444
0.24622195
0.25243355
0.25922949
0.2663157
0.27350522
0.28092188
0.28841199
0.29607082
0.30381784
0.31150153
0.31918771
0.32901049
0.32101785
0.31308175
0.30518947
0.29728637
0.28958921
0.28194567
0.2745127
0.26716117
0.26009025
0.25354137
0.24912052
0.25161275
0.2550915
0.25974496
0.26648383
0.27375859
0.28130644
0.28894884
0.2968284
0.30478895
0.31294168
0.32120161
0.32941473
0.3375703
0.34622709
0.33791797
0.32953964
0.32119839
0.31288505
0.30476157
0.29671684
0.28887601
0.28110962
0.2736133
0.26658365
0.26150732
0.26251615
0.26627331
0.27150455
0.27862768
0.28626131
0.29416725
0.30217237
0.31041742
0.31874907
0.327219
0.33576623
0.3442744
0.35268758
0.35811681
0.34970892
0.34119492
0.3327414
0.32430481
0.31592946
0.30759927
0.29947601
0.29144898
0.28368891
0.27642021
0.27089244
0.27000213
0.27311116
0.27895544
0.2864375
0.29439455
0.3025381
0.31072827
0.31916535
0.32758811
0.33610356
0.34474452
0.35331737
0.3618039
0.36463306
0.35623248
0.34775339
0.33924056
0.33070656
0.32231914
0.31393538
0.30572106
0.29745349
0.28893064
0.28067192
0.2732429
0.26989786
0.26201611
0.26382915
0.27106017
0.28088079
0.28192985
0.28311959
0.28317496
0.28381431
0.28338828
0.28389678
0.28293768
0.28287683
0.28139503
0.28088257
0.27972069
0.27944556
0.27928148
0.2785639
0.27903904
0.27815878
0.27811475
0.27690078
0.27674029
0.27530897
0.27502624
0.27345082
0.27328875
0.27172868
0.27184179
0.27112435
0.27165831
0.27071789
0.26484281
0.26160213
0.26279083
0.26284338
0.26344942
0.2636478
0.26496481
0.26530139
0.26657073
0.26707523
0.26826554
0.26861462
0.26954086
0.26980717
0.27053433
0.27030694
0.27065451
0.2708418
0.27124099
0.27227666
0.27281737
0.27412618
0.2743796
0.27516004
0.27474654
0.27502711
0.27458187
0.27426906
0.27284467
0.26516616
0.26214051
0.26710244
0.26337866
0.26659908
0.26697357
0.26375654
0.26767949
0.26418857
0.26748113
0.26737951
0.26433038
0.26801695
0.2643809
0.26761369
0.26687264
0.26369017
0.26725408
0.26331227
0.26658516
0.26547031
0.26248661
0.26608356
0.2617424
0.26481065
0.26375506
0.260739
0.26477855
0.26035968
0.26340058
0.26326658
0.26037521
0.26453854
0.26013242
0.26302372
0.263047
0.25997744
0.2639957
0.25954402
0.26252675
0.26220351
0.2592988
0.26320063
0.25853263
0.26139371
0.26085144
0.25787443
0.26195102
0.25704991
0.25988035
0.25933391
0.25663094
0.2609153
0.25558228
0.25819355
0.25760292
0.25487095
0.25954935
0.25388101
0.25648977
0.25616795
0.25367955
0.25915401
0.25318695
0.25558821
0.25529794
0.25340884
0.26148568
0.25549251
0.25541639
0.26076506
0.2796784
0.28307562
0.28896006
0.29669876
0.30474638
0.31304478
0.32143997
0.33000435
0.33871075
0.34764064
0.35646954
0.36541476
0.37452949
0.38356951
0.39239719
0.39178089
0.39098157
0.39003346
0.38132475
0.38005941
0.37974463
0.38014256
0.38104794
0.38240281
0.37371322
0.37477386
0.3762657
0.37764435
0.37863673
0.37913649
0.37951141
0.37928875
0.3707932
0.3703041
0.37051435
0.37097313
0.37197984
0.37356079
0.37492931
0.37583154
0.37645202
0.37670017
0.37658011
0.36809389
0.36768258
0.3678179
0.36781438
0.36742764
0.36638925
0.35799855
0.34956733
0.34106678
0.3324778
0.32402344
0.31556928
0.30729005
0.29894873
0.29010485
0.29072906
0.29954904
0.30783041
0.31619884
0.32471012
0.33317989
0.3418998
0.35052519
0.35907293
0.35944425
0.35098896
0.34243848
0.33385807
0.32543159
0.3169616
0.30873303
0.3005264
0.29176358
0.29176631
0.30048746
0.30867842
0.31690824
0.32538747
0.33388683
0.34244548
0.35102717
0.3595225
0.35951596
0.35114325
0.34268022
0.33422578
0.32576042
0.31735121
0.3091966
0.30108442
0.29241586
0.29202982
0.30068904
0.30881656
0.31705301
0.32547748
0.3339417
0.34258677
0.35122655
0.3597913
0.35963867
0.36817193
0.36790408
0.35941817
0.35080947
0.3511916
0.34273079
0.33417511
0.32574966
0.31735439
0.30918355
0.30102609
0.29241453
0.29146133
0.30016622
0.3083367
0.316542
0.32506858
0.33361604
0.34227028
0.3412357
0.34992474
0.35863853
0.36724015
0.36631197
0.35777044
0.34912761
0.3404901
0.33188745
0.33291631
0.32459294
0.31627779
0.30814899
0.30000331
0.29139939
0.28993959
0.29859504
0.30685992
0.31504853
0.32347063
0.32183938
0.33027006
0.3389191
0.34768568
0.35637375
0.3649588
0.36350843
0.35509766
0.34656312
0.33799164
0.32944599
0.32105624
0.31278033
0.31379033
0.30585596
0.29786795
0.28934529
0.2883039
0.29682456
0.30482869
0.30365414
0.31164809
0.3199317
0.32829143
0.33681164
0.34547354
0.35403914
0.36249967
0.36204074
0.35365551
0.34522363
0.33680388
0.32840341
0.32013693
0.3119365
0.30398811
0.29604798
0.29600862
0.28780272
0.28770099
0.28692777
0.29539376
0.3033383
0.31126931
0.31950246
0.32782503
0.33631779
0.34491307
0.35346156
0.36190977
0.36224553
0.35374217
0.34517027
0.33670808
0.32829578
0.32001609
0.31182076
0.30386252
0.29588663
0.28742319
0.28654949
0.29501001
0.30300804
0.31102117
0.31933271
0.32768082
0.3361755
0.34474085
0.35345911
0.36216298
0.37092578
0.37048762
0.3617809
0.3531734
0.34450905
0.33595878
0.3274543
0.31914619
0.31091652
0.30293056
0.29496655
0.28652631
0.2852562
0.29366037
0.30160728
0.30960273
0.31786967
0.32626811
0.33485382
0.34354025
0.35237896
0.36116835
0.36999519
0.36895457
0.36020714
0.35155521
0.3428773
0.33434614
0.32585013
0.31753926
0.30933075
0.30137239
0.29343579
0.28506645
0.28362865
0.29194897
0.29984498
0.30778134
0.31598021
0.32433944
0.33281759
0.34139908
0.35018054
0.35892429
0.36769251
0.36625807
0.35763244
0.34906466
0.34045311
0.33194021
0.32357351
0.31537553
0.30728389
0.29942228
0.29157865
0.28334368
0.28172759
0.28999341
0.29781006
0.30565996
0.3137688
0.32204066
0.3304529
0.33897316
0.34769251
0.35638753
0.36514149
0.36372911
0.3724352
0.37153663
0.36298471
0.35431096
0.35516683
0.34671612
0.33817204
0.32973662
0.32141604
0.31329713
0.30526668
0.29745659
0.28973644
0.28155381
0.28005743
0.28832417
0.29606167
0.30390636
0.31200033
0.32019361
0.32870573
0.33721455
0.34584424
0.34498569
0.35368373
0.3624417
0.37112744
0.37143457
0.36273016
0.35400538
0.34540614
0.33686588
0.3367011
0.32843741
0.3202051
0.31215092
0.30409535
0.29627551
0.28848748
0.28022014
0.2794946
0.28778788
0.29565918
0.30356192
0.31184397
0.32005883
0.32847601
0.32847728
0.33708101
0.34573505
0.35461163
0.36349975
0.37242691
0.37318898
0.38222943
0.38299199
0.3740664
0.36516986
0.36432097
0.35547916
0.3467623
0.3381459
0.32959083
0.32115435
0.32038719
0.31237444
0.30431629
0.29642203
0.28847612
0.28015568
0.279738
0.28830076
0.29653696
0.30463814
0.31292549
0.31293975
0.3213088
0.32981932
0.33859629
0.34744516
0.35629569
0.3614155
0.36011245
0.35942287
0.3584909
0.35835148
0.35879409
0.35939041
0.36058183
0.36158476
0.3627153
0.36371165
0.36464824
0.3651007
0.3656453
0.36586985
0.36564047
0.36575372
0.36619458
0.36712587
0.36836325
0.36958882
0.37037549
0.37099904
0.37122629
0.37133082
0.3711072
0.37091808
0.3709023
0.37049547
0.36942548
0.36777327
0.36499431
0.36153009
0.35625225
0.35021272
0.34181406
0.33390423
0.32474401
0.31698975
0.30843103
0.3047001
0.30153744
0.29950756
0.29531269
0.292177
0.2882296
0.28607425
0.28378365
0.28184353
0.27804247
0.27489509
0.26947946
0.26648812
0.262795
0.25941517
0.27402623
0.30295185
0.34212195
0.33515031
0.32543358
0.31656904
0.30966213
0.30480224
0.30163116
0.29970919
0.29755961
0.29545765
0.29338747
0.29246023
0.29268239
0.29288315
0.29305806
0.29320362
0.29331346
0.29538702
0.29528128
0.29419623
0.29209636
0.29196698
0.29407252
0.29514096
0.29497163
0.29392526
0.29181406
0.29163813
0.29375654
0.29477715
0.29456118
0.29357156
0.29144661
0.29123894
0.21548108
0.22033423
0.2267248
0.23585258
0.24699066
0.25744462
0.26461893
0.26510575
0.2631537
0.26357127
0.26389505
0.26317589
0.26206289
0.26088142
0.26067369
0.26015057
0.25935674
0.25817929
0.25712487
0.2558675
0.2556797
0.25833283
0.27070926
0.27662878
0.28031881
0.28507615
0.28670249
0.29196991
0.29957184
0.30772234
0.31617163
0.32471578
0.33345311
0.34229051
0.35129547
0.36039287
0.36967919
0.3789745
0.38831073
0.39753659
0.40685434
0.40350305
0.39454206
0.3856531
0.37660139
0.36761147
0.3585819
0.34966732
0.34079422
0.33214133
0.32359325
0.31516641
0.30681439
0.29876868
0.29114725
0.28551219
0.2986803
0.29610716
0.2943936
0.28186131
0.28885327
0.29680241
0.30487855
0.314172
0.31342977
0.31300642
0.31224035
0.31242308
0.31235082
0.31331502
0.31378102
0.31491821
0.31540052
0.3164907
0.31684416
0.31787786
0.31834595
0.31887734
0.31856273
0.31897784
0.31877444
0.31931262
0.3203443
0.32130508
0.32249888
0.32283315
0.32336023
0.32335682
0.32324954
0.32320865
0.32272576
0.32236908
0.32123974
0.3197011
0.3170211
0.31383627
0.30894982
0.30375707
0.29667487
0.29007275
0.28254347
0.27659782
0.27067763
0.26647398
0.26328949
0.26055282
0.25778433
0.25482899
0.25202314
0.24959792
0.24762926
0.24539157
0.33296909
0.32890781
0.32068573
0.31242251
0.30565948
0.30074586
0.29747053
0.29543404
0.2987419
0.30365375
0.31030937
0.31032352
0.3036118
0.29867931
0.29536003
0.2974003
0.30068814
0.30057134
0.29728525
0.29524198
0.29856011
0.30350779
0.30552148
0.30562406
0.31244486
0.31241801
0.31029943
0.31016843
0.30331309
0.29837049
0.29507505
0.29712309
0.3003842
0.30013254
0.2969192
0.29486745
0.29811857
0.30302441
0.30502809
0.30532377
0.31227633
0.31199997
0.30991415
0.30953668
0.3026542
0.29780996
0.294622
0.29667893
0.29982506
0.2994739
0.29640842
0.29434757
0.29745898
0.30221931
0.3042059
0.30464986
0.31159942
0.31110149
0.30906717
0.30852734
0.30173993
0.29707511
0.29404902
0.29222086
0.29432804
0.2933715
0.29316241
0.29102345
0.29197033
0.29408363
0.29623675
0.2964736
0.29669905
0.29690752
0.29709465
0.2972571
0.29739134
0.29749242
0.29964552
0.29954964
0.29852292
0.29633319
0.29621585
0.29841278
0.29942235
0.29926772
0.29828065
0.29607569
0.29591507
0.2981291
0.29908894
0.29888897
0.297961
0.29573806
0.29554645
0.2977789
0.29867223
0.29844411
0.29758732
0.29534567
0.29513859
0.29294721
0.2908014
0.29199617
0.29223918
0.29250849
0.2928013
0.29310633
0.29342074
0.29373755
0.29580813
0.29611523
0.29909105
0.2986907
0.29667512
0.30123318
0.30320126
0.30371772
0.31053534
0.30992217
0.30794478
0.30733132
0.30071724
0.29626792
0.29828413
0.29549581
0.29383374
0.29171505
0.29145763
0.29057727
0.29273055
0.2935833
0.29575151
0.29599438
0.29821038
0.29738988
0.29719088
0.29493051
0.29472329
0.2925152
0.29035534
0.29120591
0.29333716
0.29309688
0.29230308
0.29013619
0.2909602
0.29072612
0.2899234
0.29209788
0.29286904
0.29265356
0.29189942
0.28971814
0.29050586
0.29029754
0.2895174
0.30479382
0.30508834
0.30554905
0.30610378
0.30670838
0.30020527
0.29586748
0.29788367
0.29518561
0.2973
0.29760467
0.29791117
0.29821233
0.29849953
0.29876431
0.29899876
0.29919723
0.29935415
0.29946483
0.29953128
0.30276156
0.30765889
0.31450807
0.31453996
0.30763021
0.30270861
0.3047546
0.30156853
0.30146293
0.30464614
0.30259575
0.30753036
0.30954522
0.30964141
0.31661346
0.31658674
0.31451268
0.31435876
0.30733014
0.30241146
0.30446573
0.30131205
0.30112005
0.30421869
0.30216174
0.30702831
0.30903559
0.30934307
0.31642045
0.31609856
0.31406042
0.31363485
0.30664269
0.30185609
0.30391615
0.30089235
0.30063445
0.30356917
0.30150659
0.30619079
0.30818428
0.30864337
0.31564767
0.31509335
0.31310924
0.31251573
0.30569476
0.30112553
0.30319127
0.30035429
0.30006016
0.30279509
0.30072674
0.30516998
0.30714939
0.30768141
0.31447265
0.31380005
0.31187281
0.3112053
0.30463651
0.30032188
0.30239331
0.29976064
0.29946275
0.29797611
0.30026534
0.30049064
0.30071514
0.300934
0.30114151
0.3013324
0.30150227
0.3016484
0.30176821
0.3018585
0.30191886
0.30419644
0.3065453
0.30896361
0.30891186
0.30649118
0.30413933
0.30405469
0.30310588
0.30077795
0.30067552
0.3030113
0.30394255
0.30380502
0.30289671
0.3005521
0.30041007
0.30276413
0.30364412
0.30346225
0.30261492
0.30025149
0.30007926
0.30245229
0.30326381
0.30305398
0.3022798
0.29989739
0.29970981
0.30210163
0.30283837
0.30262165
0.30192118
0.29952039
0.29933179
0.29699302
0.29774519
0.29551256
0.29527977
0.29451983
0.29679856
0.29752076
0.29730638
0.29660977
0.29432257
0.29505839
0.29484949
0.2941324
0.29642816
0.29710457
0.29942418
0.29961968
0.29982676
0.30004303
0.30240731
0.30174123
0.30156378
0.29914642
0.29896608
0.30139076
0.30199755
0.30219834
0.30462936
0.30483288
0.30504102
0.30525071
0.30545882
0.3056608
0.30585122
0.30602492
0.30617756
0.30630697
0.30641183
0.30550965
0.30798637
0.30883704
0.3104562
0.31054205
0.31059274
0.30826241
0.30599154
0.30378215
0.30687863
0.30899668
0.31115858
0.31336205
0.31780034
0.31574755
0.31370523
0.31167664
0.31860659
0.32061655
0.32259343
0.32453057