/*--------------------------------*- C++ -*----------------------------------*\
| =========                 |                                                 |
| \\      /  F ield         | OpenFOAM: The Open Source CFD Toolbox           |
|  \\    /   O peration     | Version:  v2012                                 |
|   \\  /    A nd           | Website:  www.openfoam.com                      |
|    \\/     M anipulation  |                                                 |
\*---------------------------------------------------------------------------*/
FoamFile
{
    version     2.0;
    format      ascii;
    class       volScalarField;
    location    "100";
    object      nut;
}
// * * * * * * * * * * * * * * * * * * * * * * * * * * * * * * * * * * * * * //

dimensions      [0 2 -1 0 0 0 0];


internalField   nonuniform List<scalar> 
15114
(
0.013045985
0.0060097083
0.0032714249
0.0023744069
0.00077125615
0.00084846049
0.0015651479
0.0031975206
0.003687962
0.0045838453
0.0046511406
0.0047006164
0.0047952333
0.0054898601
0.0055459275
0.0055892395
0.0056535631
0.0057238724
0.0057991511
0.0059105817
0.0064596388
0.0065288523
0.0065871526
0.006656589
0.0067275366
0.006799206
0.0068704092
0.0069412241
0.0070106796
0.0070784764
0.0071445275
0.0072095048
0.0072715359
0.0073315289
0.0073889265
0.0074434328
0.0074945679
0.0075422027
0.0075849519
0.0076239693
0.0076568371
0.0076867484
0.0077085578
0.0077266611
0.0077354035
0.0077395015
0.0077333814
0.0077216329
0.007699816
0.0076717418
0.0076342443
0.0075898635
0.00753717
0.0074774158
0.0074105196
0.0073374645
0.0072576647
0.0071802659
0.0070777753
0.0071246125
0.0075610124
0.0075497597
0.007436014
0.0073081233
0.011665915
0.0048124472
0.0046796728
0.0027614206
0.0018794442
0.0019541755
0.0014000458
0.00080657882
0.0018355819
0.0032554743
0.0012208949
0.0017701985
0.0017079844
0.0021997766
0.0022539772
0.0011330412
0.0012004957
0.0010787966
0.00096622785
0.00096625967
0.000570547
0.00072772952
0.00066193042
0.00093095424
0.00081349041
0.00099143218
0.0012782322
0.0024760788
0.0035115495
0.0040330577
0.0040965841
0.0041667993
0.0042482139
0.0048390775
0.0048746093
0.0049646318
0.0050490774
0.0051331491
0.0052272323
0.0053420869
0.0058312493
0.0058972149
0.0060359127
0.0061345109
0.0062292755
0.0063228967
0.0064149954
0.006505633
0.0065942526
0.0066805937
0.0067641706
0.0068456071
0.0069237085
0.0069987441
0.0070703732
0.0071382867
0.0072018321
0.0072609076
0.0073144255
0.0073635102
0.0074069195
0.0074459987
0.0074774699
0.0075038445
0.0075216994
0.0075332594
0.0075352315
0.0075300102
0.0075160169
0.0074945072
0.007464618
0.0074263869
0.0073800443
0.0073257067
0.007262916
0.0071915359
0.0071053905
0.0070046348
0.0068933242
0.0066605532
0.0066340822
0.0067078039
0.0066822436
0.0067991517
0.0068967609
0.0070642324
0.0072749589
0.0074309531
0.0076166042
0.007766646
0.0077809293
0.0076731442
0.0075642823
0.0073917871
0.0072303116
0.0070202439
0.0068459525
0.0067297135
0.006600824
0.0065691235
0.0064470974
0.0065009373
0.0066044276
0.006579347
0.007223184
0.0065812755
0.0066086769
0.0064850232
0.0066210106
0.0067524303
0.0073314646
0.0073945065
0.0072677601
0.0071855188
0.0070955915
0.0099778264
0.010039976
0.010460449
0.010535178
0.010969869
0.011047345
0.011451293
0.011519526
0.011869228
0.011946957
0.012381874
0.012476426
0.012887121
0.012934271
0.013061419
0.013252008
0.01351814
0.013641532
0.014156035
0.014289934
0.014753544
0.014877269
0.015272831
0.015380615
0.015743483
0.015837772
0.016180035
0.016262465
0.016563979
0.016630107
0.01686445
0.016914832
0.01708434
0.017115861
0.017206721
0.017214695
0.017221594
0.01718066
0.0171566
0.017141974
0.017180385
0.017192015
0.017173998
0.017167725
0.017139866
0.017128452
0.017087613
0.017069385
0.017005576
0.016978536
0.016896344
0.016836855
0.016797989
0.016765002
0.016795976
0.016801209
0.016753466
0.016740498
0.016695842
0.01667136
0.016564983
0.016471928
0.016367195
0.016280536
0.016287441
0.016211238
0.015832159
0.015662153
0.013998502
0.0073432191
0.0057649316
0.0033898128
0.0038680892
0.00272805
0.0011980417
0.0013862608
0.0010367049
0.00095342376
0.0007973849
0.00070484757
0.00048161348
0.00042184357
0.00078353108
0.00053295103
0.00076529632
0.00096067569
0.00074413269
0.00093111276
0.00074277787
0.00098415458
0.00055975598
0.00079302338
0.00099634669
0.00063559067
0.0010196745
0.0010131511
0.00069000031
0.00083752473
0.00062403995
0.00074190362
0.00068800088
0.00088859084
0.0007256016
0.001227837
0.0011979689
0.00089135349
0.001327762
0.0011449322
0.002151437
0.0032689078
0.0039536784
0.0039804326
0.00404128
0.0041040425
0.0041643338
0.0046953532
0.0047817254
0.0048564618
0.0049206266
0.004985531
0.0050695849
0.0051395513
0.0052108628
0.0057029259
0.0057752585
0.0059256829
0.0059967959
0.0060672367
0.0061391967
0.0062122884
0.0062866249
0.0063614413
0.0064365168
0.0065112554
0.0065859041
0.0066591471
0.0067310996
0.00680119
0.0068688495
0.0069333381
0.0069946092
0.007050934
0.0071037099
0.0071522274
0.0071968449
0.0072346404
0.007267737
0.0072931805
0.0073134654
0.0073248372
0.0073290424
0.0073247962
0.0073122531
0.0072909296
0.0072611548
0.0072226952
0.0071764067
0.0071203733
0.0070549766
0.006970481
0.0068709442
0.0068213214
0.0069082382
0.0069823914
0.007040332
0.0070888146
0.007128151
0.0071603558
0.0071842239
0.0071992273
0.0072056941
0.0072044649
0.0071960246
0.0071816412
0.0071590383
0.0071308781
0.0070962816
0.0070578859
0.0070138012
0.0069662833
0.0069161431
0.0068624109
0.0068046149
0.0067444017
0.0066820233
0.0066177742
0.00655225
0.0064862654
0.0064192668
0.0063525734
0.0062861281
0.0062202157
0.0061548579
0.0060907285
0.0060277315
0.0059649957
0.0058992378
0.005798406
0.0052535585
0.005192245
0.0051368018
0.0050814484
0.0050283285
0.0049717518
0.0049359387
0.0043061595
0.0042229656
0.0041615654
0.0041067078
0.0034121757
0.0030985083
0.0013222725
0.0014034934
0.0026587725
0.0036557154
0.0044039118
0.0044316916
0.0044809904
0.0045356917
0.0045908863
0.0049263568
0.0050978837
0.0051488279
0.0051958955
0.0052422849
0.0052916231
0.0053436357
0.0058798844
0.0059634564
0.0060282285
0.0060891473
0.0061485705
0.006208543
0.0062691862
0.0063300483
0.0063912176
0.0064524516
0.006513475
0.0065739092
0.0066339589
0.0066925558
0.0067499871
0.0068056188
0.0068592758
0.006909778
0.0069573373
0.007002762
0.0070452705
0.0070839384
0.0071187095
0.0071488724
0.0071742705
0.0071930789
0.0072061377
0.0072129618
0.0072133303
0.0072059181
0.0071913807
0.0071692731
0.0071401106
0.0071024026
0.0070566215
0.0069964124
0.0069229443
0.0070170065
0.0070851737
0.0071393751
0.0071798811
0.0072123981
0.00723676
0.0072555813
0.0072664211
0.0072703365
0.0072675863
0.007258578
0.0072443096
0.0072246525
0.0071993587
0.0071697654
0.0071366074
0.0071001288
0.0070596742
0.0070172483
0.0069720653
0.0069245768
0.0068742545
0.006822187
0.0067685427
0.0067140778
0.0066584517
0.0066025675
0.0065463682
0.0064902626
0.0064342513
0.006378831
0.0063239973
0.0062702341
0.0062162545
0.006125122
0.0060788927
0.0060301313
0.0060441766
0.0054900658
0.0054289813
0.0053800375
0.0049750082
0.0049028131
0.004822379
0.0047389989
0.0046572003
0.0041340773
0.0034136938
0.0017000342
0.0015292549
0.0010739318
0.0009188523
0.0012061857
0.001183363
0.001071075
0.00060691203
0.00097658225
0.00050002345
0.00082097833
0.00063185578
0.00093275172
0.00072362217
0.00091083282
0.00058947888
0.0014868143
0.0013732004
0.0011709214
0.0015732858
0.0018166499
0.00076395035
0.00085045971
0.00091732607
0.0013237151
0.0013339679
0.0024144843
0.0045560373
0.0077758893
0.01512513
0.032839945
0.032802025
0.032761847
0.032720071
0.032677608
0.032635443
0.032594469
0.032555369
0.032518628
0.032484435
0.03245269
0.032423022
0.032394798
0.032367131
0.032394034
0.032421074
0.032448495
0.032477214
0.032507883
0.032540884
0.032576327
0.03261404
0.032653567
0.032694246
0.032735153
0.032775325
0.032813863
0.032850116
0.032873503
0.032841142
0.032806469
0.032770085
0.03273283
0.032695604
0.032659343
0.032624749
0.032592238
0.032561955
0.032533779
0.032507325
0.032481943
0.03245673
0.032566379
0.032589219
0.032611765
0.032634914
0.032659298
0.032685293
0.032713028
0.032742379
0.032772988
0.032804184
0.032834977
0.03286453
0.032892114
0.03291725
0.032994647
0.03298143
0.032965172
0.032946157
0.032924999
0.032902515
0.032879736
0.032857258
0.032835384
0.032814216
0.032793645
0.032773348
0.032752755
0.032731056
0.032923617
0.032951259
0.032976442
0.03299984
0.033021838
0.033042576
0.033062011
0.033079996
0.033096201
0.033110062
0.033120646
0.033126988
0.033128413
0.03312476
0.033321126
0.033338372
0.033344895
0.03334172
0.033330498
0.033312596
0.033288346
0.033258674
0.033224398
0.033186157
0.033144481
0.033099675
0.033051726
0.033000279
0.032536176
0.032638119
0.032738564
0.032838104
0.032936863
0.033034513
0.033129931
0.033220048
0.033301405
0.033371115
0.033429767
0.033477539
0.033509528
0.033519685
0.033338603
0.03314549
0.032926169
0.032702508
0.032483938
0.032252472
0.032012339
0.031768474
0.031535023
0.031329241
0.031144093
0.030974539
0.030815817
0.030664958
0.026310256
0.026392303
0.026480529
0.026574274
0.026679642
0.026880657
0.027355647
0.027827124
0.028310469
0.028831723
0.029417344
0.030066581
0.030779188
0.031516642
0.018875519
0.016530339
0.015629647
0.016573657
0.019020745
0.017415132
0.019346536
0.019149014
0.021714992
0.021134246
0.024798302
0.023871279
0.027611374
0.027021157
0.026815811
0.026802886
0.026202895
0.026264294
0.025678847
0.025789888
0.025213161
0.025341351
0.024768205
0.024895252
0.024336175
0.0244495
0.023901724
0.023456127
0.020689363
0.017028619
0.01537908
0.019226159
0.0090430008
0.0094183304
0.0095713933
0.00952881
0.0083738157
0.0082821955
0.0083379086
0.0083706958
0.0084584682
0.0085012042
0.0085810668
0.0086146081
0.0086831668
0.0087063194
0.008764673
0.0087772092
0.008824306
0.0088271441
0.0088617191
0.0088540666
0.0088763189
0.0088602085
0.0088721084
0.0088493168
0.0088524296
0.0088265761
0.0088245285
0.0087998038
0.0087957094
0.008778679
0.0087780233
0.0087737186
0.0087840378
0.0087928191
0.0088213831
0.0088529436
0.0089078821
0.0089753651
0.0090759941
0.0092028967
0.0093816888
0.0096130431
0.0099685023
0.010320784
0.012019492
0.012341416
0.0092305532
0.0073886151
0.0061025373
0.0059759008
0.0066877138
0.008497946
0.009666254
0.032365475
0.03236291
0.032358625
0.032352633
0.032345558
0.032337643
0.032329217
0.032320226
0.03231095
0.032301419
0.032291829
0.03228235
0.032273016
0.032264026
0.032255421
0.032247028
0.032281333
0.032289218
0.032297368
0.032305871
0.032314717
0.032323747
0.032332846
0.03234192
0.03235074
0.032359239
0.032367212
0.032374681
0.032381411
0.032387107
0.03239117
0.03239351
0.032421989
0.032419857
0.032416036
0.032410686
0.03240436
0.032397384
0.03238991
0.032381946
0.032373644
0.032365097
0.032356518
0.032348012
0.032339693
0.032331688
0.032324034
0.032316658
0.032353668
0.032360571
0.03236773
0.03237523
0.032383005
0.032390964
0.032398992
0.032406971
0.032414716
0.032422116
0.03242905
0.032435501
0.032441374
0.032446344
0.032449903
0.032451847
0.032483727
0.032481964
0.032478678
0.032474112
0.032468718
0.032462807
0.032456426
0.032449598
0.032442417
0.032435007
0.03242753
0.032420111
0.032412854
0.032405842
0.032399127
0.032392643
0.032433446
0.032439617
0.032445976
0.032452577
0.032459384
0.032466317
0.032473288
0.032480167
0.032486813
0.032493098
0.032498944
0.032504332
0.032509248
0.032513407
0.03251642
0.032518019
0.032554825
0.032553374
0.032550618
0.032546838
0.032542364
0.032537446
0.032532076
0.032526261
0.032520072
0.032513631
0.032507072
0.032500511
0.032494038
0.032487719
0.032481581
0.032530357
0.032536564
0.032542868
0.032549213
0.032555512
0.032561658
0.032567522
0.032572987
0.032577991
0.03258253
0.032586636
0.032590092
0.032592631
0.032593965
0.032634953
0.032633698
0.032631317
0.032628102
0.032624256
0.032619967
0.032615179
0.032609904
0.032604199
0.032598172
0.032591948
0.032585627
0.032579293
0.032621208
0.03262777
0.032634279
0.03264065
0.03264678
0.032652545
0.032657834
0.032662584
0.032666781
0.032670504
0.032673582
0.032675882
0.032677105
0.032719526
0.032718271
0.032715952
0.032712874
0.032709105
0.032704812
0.032699906
0.032694419
0.032688415
0.032682015
0.032675342
0.032668504
0.032661591
0.032700001
0.032707279
0.032714494
0.032721552
0.032728335
0.032734712
0.032740549
0.032745765
0.032750306
0.032754265
0.032757461
0.032759891
0.032761232
0.032801315
0.032799841
0.032797227
0.03279382
0.032789567
0.032784681
0.032779076
0.032772839
0.032766074
0.032758928
0.032751546
0.03274405
0.032736546
0.032771792
0.032779266
0.032786813
0.032794328
0.032801681
0.032808722
0.032815285
0.032821243
0.032826467
0.032831034
0.032834676
0.032837506
0.03283913
0.032849353
0.032813157
0.032774664
0.032734514
0.032693602
0.03265289
0.032613308
0.032575517
0.032539973
0.032506848
0.032476024
0.032447114
0.032419454
0.032392115
0.03284762
0.032811553
0.032773168
0.032733074
0.032692159
0.032651379
0.032611679
0.032573732
0.032538006
0.032504684
0.032473656
0.032444537
0.032416656
0.032389083
0.015051017
0.015506972
0.015741559
0.016069012
0.016185568
0.016201356
0.016155717
0.016378032
0.016496171
0.01660179
0.01664266
0.016681389
0.016698852
0.016724989
0.016712231
0.01671361
0.0166755
0.016759529
0.016826788
0.016902873
0.016949017
0.017007364
0.017035608
0.01707103
0.017088044
0.017108999
0.017115554
0.017116492
0.017094378
0.017083482
0.017038589
0.01710433
0.017148352
0.017149639
0.017140015
0.01706767
0.017021267
0.016880115
0.016804802
0.016610094
0.016509789
0.01625372
0.016125891
0.015829887
0.015681112
0.015356561
0.01518283
0.01482105
0.014621251
0.014198353
0.013976199
0.013498434
0.013287201
0.013114893
0.012997512
0.012790088
0.012695366
0.012348515
0.012196549
0.011823944
0.011698225
0.011397854
0.011285648
0.010936061
0.010808985
0.010431225
0.010307056
0.0099425894
0.0098366848
0.0092766689
0.0095332092
0.0097001235
0.0099989379
0.010171237
0.01048397
0.010661091
0.010949234
0.011102213
0.011346803
0.011515164
0.011819341
0.012017235
0.012296067
0.012432694
0.012640261
0.012859909
0.013085565
0.01345167
0.013801106
0.014199258
0.014514991
0.014860982
0.015131041
0.015423019
0.015642594
0.015884283
0.016060884
0.016251455
0.01637446
0.016476769
0.016541987
0.01668569
0.016808621
0.016868194
0.016918686
0.016924003
0.016907509
0.016853941
0.016791406
0.016738316
0.016678832
0.016697928
0.016788784
0.016793266
0.016776031
0.016744437
0.01670286
0.016634965
0.01652458
0.016499715
0.016567532
0.016516234
0.016444894
0.016375098
0.0162886
0.01629452
0.016370375
0.016350069
0.016283468
0.016133493
0.01606974
0.016093355
0.015898665
0.015601712
0.015453983
0.01537268
0.015055693
0.014547241
0.014282849
0.014145573
0.013897674
0.01378055
0.014546602
0.014444108
0.014932819
0.015411425
0.01568444
0.016007452
0.015903107
0.015831808
0.01608908
0.01628887
0.016442722
0.01656446
0.016613141
0.0166469
0.016669563
0.016695074
0.016634512
0.01656053
0.016618367
0.016690221
0.016754671
0.01684367
0.016915338
0.016970117
0.017003036
0.017034668
0.017053645
0.017069662
0.017079195
0.017079739
0.017012429
0.016929232
0.01697193
0.017031668
0.01708111
0.017089282
0.017081171
0.017021348
0.016965948
0.016836888
0.016762281
0.016599396
0.016480372
0.016254667
0.016100998
0.015832049
0.015649293
0.015345397
0.015128729
0.014783005
0.014533198
0.014131032
0.013846725
0.013385023
0.013250022
0.013102
0.012880415
0.012668035
0.012545187
0.012241348
0.012057052
0.011727466
0.011571449
0.011304647
0.011163153
0.01085143
0.010690552
0.010355228
0.010198036
0.0098731526
0.0097246503
0.012403127
0.012577946
0.012769584
0.012452189
0.012170206
0.012089083
0.012128812
0.01219673
0.012279919
0.012353347
0.012436579
0.012518237
0.01262139
0.012738608
0.012887544
0.013051414
0.013251617
0.013480869
0.013761142
0.014094455
0.01450852
0.015034548
0.015754948
0.016912523
0.014271205
0.012393915
0.01059067
0.0093983615
0.0084119136
0.0083194061
0.0096097624
0.011473696
0.012305116
0.01421066
0.011357333
0.010755436
0.0096880908
0.0097733016
0.010530568
0.013360581
0.014594581
0.017803533
0.017020528
0.018612696
0.019656022
0.021376805
0.023050118
0.0245497
0.023907791
0.023381856
0.022882035
0.022466943
0.022075718
0.021755403
0.021469415
0.021191616
0.020954244
0.020698365
0.020497967
0.020267992
0.020093818
0.019895571
0.019769744
0.019621963
0.019613738
0.016485943
0.016252102
0.01618325
0.016217065
0.016326962
0.016455303
0.016612446
0.016763197
0.016942433
0.017119818
0.01733639
0.017553659
0.01781611
0.018091069
0.018441612
0.018811259
0.019279829
0.019773685
0.020399455
0.020776659
0.01874417
0.017011644
0.015223203
0.014692135
0.015473918
0.018462047
0.019668121
0.01868005
0.02005632
0.02230396
0.02248012
0.022991045
0.02399028
0.020733464
0.022895836
0.022600273
0.019474841
0.021674615
0.021518981
0.018561833
0.020731397
0.020686532
0.017893887
0.020014582
0.020056054
0.017427497
0.019462062
0.019558284
0.017112223
0.019041175
0.01916766
0.016891899
0.018721461
0.01887496
0.016751937
0.018546541
0.018786332
0.016767524
0.018966199
0.016234379
0.01596815
0.015937307
0.015850416
0.016038697
0.015997432
0.012088916
0.012170769
0.011996514
0.012204408
0.012289161
0.012806002
0.012695705
0.012909738
0.016273567
0.013646235
0.013527539
0.014021764
0.013925919
0.014424535
0.014915403
0.015255989
0.015150436
0.015467578
0.015749431
0.015936944
0.015844262
0.016017061
0.016149964
0.016214721
0.016215565
0.016097806
0.01614519
0.016219657
0.01628976
0.016355106
0.016395775
0.016291052
0.016394912
0.016492908
0.016561689
0.016604947
0.016637122
0.0166468
0.016620762
0.016486224
0.016519222
0.016568295
0.016623466
0.016685958
0.016743302
0.016766121
0.016764579
0.016720619
0.016652232
0.01651853
0.016414827
0.016357614
0.016252175
0.016130177
0.015950831
0.015772435
0.01553655
0.015307893
0.015013817
0.014728208
0.014373581
0.01403283
0.013604928
0.01317519
0.013011155
0.012673473
0.012436287
0.012222487
0.01207438
0.011817046
0.011610407
0.011328064
0.011150627
0.010924193
0.010762706
0.010496512
0.010308228
0.010017314
0.0098298356
0.0095384239
0.0093058011
0.0092192694
0.0094117256
0.0096833797
0.0095185558
0.0093476393
0.0095334011
0.0097132825
0.0098798538
0.010152306
0.0099740763
0.0097874028
0.0099783846
0.010169801
0.010347881
0.010598021
0.010412114
0.010216508
0.010012849
0.0098092641
0.0095990331
0.0093917255
0.009529676
0.0097446014
0.0099587896
0.010167202
0.010378818
0.010579037
0.010765856
0.010979091
0.010784818
0.010581638
0.010369757
0.010157434
0.0099397399
0.0097262489
0.0095080657
0.0092979311
0.0091232243
0.0090962996
0.0094077119
0.0092313955
0.0092560188
0.0094320115
0.0096462718
0.0098697013
0.010092066
0.010315328
0.010534183
0.010755764
0.010964866
0.011161668
0.011426572
0.011219458
0.011004189
0.010779192
0.010554041
0.010324225
0.010098524
0.0098707033
0.0096512395
0.0094707127
0.0094403047
0.0097577468
0.0095748654
0.0096048384
0.009794998
0.010023697
0.010260181
0.010496385
0.010733374
0.010966353
0.011202502
0.011425633
0.01163685
0.011877615
0.011657496
0.01142938
0.011191454
0.010953524
0.010711285
0.010474081
0.010235246
0.01000486
0.0098110641
0.0097742454
0.010084931
0.0098981873
0.0099385193
0.010135996
0.010372117
0.010615405
0.010858526
0.011103363
0.01134387
0.01158761
0.011818046
0.012035536
0.012250656
0.012035792
0.011809095
0.011570856
0.011331608
0.011086947
0.010846516
0.010603779
0.010372374
0.010176444
0.010135388
0.010493335
0.010346111
0.01038693
0.010587667
0.010825102
0.011071518
0.011317734
0.011563258
0.011802132
0.012046559
0.012276922
0.012490866
0.01283644
0.012627894
0.012407056
0.012170261
0.01193075
0.011681838
0.011433891
0.011180868
0.010935527
0.010724813
0.010668896
0.011056617
0.010972409
0.011037133
0.011255068
0.011508117
0.011769015
0.012024633
0.012281008
0.012528501
0.012771762
0.013004694
0.01322129
0.013416505
0.013845733
0.013649143
0.013433623
0.013205891
0.012962927
0.012716151
0.012457996
0.012198303
0.011930985
0.011669769
0.011439756
0.011356036
0.011729173
0.011690359
0.011781228
0.012017105
0.012284498
0.012556292
0.012819829
0.013081465
0.013330988
0.01357428
0.013805071
0.014018486
0.014207397
0.014568651
0.01438938
0.014183622
0.013962439
0.013724243
0.013478243
0.013218391
0.012953655
0.012678108
0.012405674
0.012160518
0.012054424
0.012371424
0.012336646
0.012449064
0.01269777
0.01297507
0.013254804
0.013523941
0.013788142
0.01403728
0.014275162
0.01449588
0.014696666
0.0148686
0.015163983
0.014996095
0.014798789
0.0145852
0.014352133
0.014104742
0.01383995
0.013568092
0.013284902
0.013003251
0.012748409
0.012623411
0.012857493
0.012785786
0.012928808
0.013198492
0.013492077
0.013783059
0.014060041
0.014330799
0.014581073
0.014817304
0.015036502
0.01523339
0.015399923
0.01562956
0.015462255
0.01526551
0.015048247
0.014809249
0.014558216
0.01428743
0.014006783
0.013706627
0.013385057
0.013064718
0.012824302
0.012948632
0.012210953
0.012220233
0.012568471
0.013036924
0.013136214
0.013241821
0.013281919
0.013348739
0.013350481
0.013395996
0.013349702
0.013343913
0.013247845
0.013201551
0.013114789
0.01307791
0.013048291
0.012987734
0.012999447
0.012932948
0.012916713
0.012830004
0.012803467
0.012700264
0.012663014
0.012547931
0.012513296
0.012392703
0.012361455
0.012274748
0.012250884
0.012144167
0.011885023
0.011709761
0.011830388
0.011885637
0.011964485
0.012012325
0.012120805
0.012165311
0.012262341
0.012310634
0.01239961
0.012435544
0.01250535
0.012533572
0.012589718
0.012590268
0.012631769
0.012662393
0.012704915
0.012785081
0.012834664
0.012923351
0.012941245
0.012979606
0.012941451
0.012933887
0.012878215
0.012826571
0.012708084
0.012335787
0.012272172
0.012870814
0.012384824
0.012457975
0.012513048
0.012439425
0.012972765
0.012489255
0.012569057
0.012584907
0.012519002
0.013037409
0.012535699
0.012612838
0.012574274
0.012499796
0.01300391
0.012472457
0.012552725
0.01247423
0.012410648
0.012913465
0.012348799
0.012417513
0.012335781
0.01226968
0.012799163
0.012227647
0.012295531
0.012269136
0.012211543
0.012752197
0.012179431
0.012234546
0.012221897
0.012156733
0.012692509
0.012117266
0.012177494
0.01214732
0.012091838
0.012621922
0.012032414
0.012084349
0.012037639
0.011979295
0.012517625
0.01191268
0.01196186
0.011912442
0.011870994
0.01241933
0.011788151
0.011823538
0.011765632
0.011723631
0.012286651
0.01163437
0.011668727
0.011614402
0.011587215
0.012183729
0.011512165
0.011535396
0.011464594
0.01146558
0.012178738
0.011504866
0.011414753
0.011725033
0.012726163
0.012564743
0.012701514
0.012968246
0.013252554
0.01354078
0.013821517
0.014096981
0.01436202
0.01462271
0.014863074
0.015093937
0.015313892
0.01551817
0.015695098
0.015866393
0.015997077
0.016069251
0.015906079
0.015948817
0.015992975
0.016067745
0.016140804
0.016214532
0.01603855
0.016127491
0.016225094
0.016320729
0.016391321
0.016436243
0.01647074
0.016485114
0.01630389
0.016316752
0.016345999
0.016395413
0.016453033
0.016516146
0.016576755
0.016604807
0.016608236
0.016570873
0.016511325
0.0163354
0.016257215
0.01619345
0.016096817
0.015978847
0.015809735
0.015641529
0.015443841
0.015223599
0.014978617
0.014719822
0.014441001
0.014151854
0.013839596
0.013484274
0.013565104
0.013928078
0.01424679
0.014547461
0.014836349
0.015104276
0.015361585
0.015593814
0.015803559
0.015915905
0.01570379
0.015469027
0.015211134
0.014939877
0.014647668
0.014347527
0.014028553
0.013665417
0.013707034
0.014072432
0.014395407
0.014702355
0.015001181
0.01528086
0.015545107
0.015787186
0.016007144
0.016071909
0.015853819
0.015612911
0.015349308
0.015068168
0.014768855
0.014463129
0.014140937
0.013775631
0.013783896
0.014152586
0.014479497
0.01479332
0.015098145
0.015383967
0.015659167
0.015911059
0.01614026
0.016178181
0.016386411
0.016416066
0.016203423
0.015963008
0.015949429
0.015701112
0.015427558
0.015140524
0.014834686
0.014521985
0.014192441
0.013825073
0.013782727
0.014158556
0.014492651
0.014811352
0.015127975
0.015424602
0.015706813
0.015670639
0.01593753
0.01618651
0.016407501
0.016374143
0.016151281
0.015901215
0.015633059
0.01534553
0.015399202
0.015109789
0.014800824
0.014483839
0.01414974
0.01377811
0.013686302
0.014064097
0.014407725
0.014730858
0.01504841
0.014953207
0.015255495
0.015549499
0.015827256
0.016083008
0.016311031
0.016245933
0.016018885
0.01576468
0.015491569
0.015199184
0.014896379
0.014580346
0.014650882
0.014338555
0.014008057
0.013636344
0.013558252
0.013931671
0.014264986
0.014180731
0.014500645
0.014819287
0.015122863
0.015416696
0.01569625
0.015954163
0.016185695
0.016136877
0.015909236
0.015657835
0.015389801
0.015103068
0.014805546
0.014492505
0.014175886
0.013846123
0.013865789
0.013508251
0.013482176
0.013419449
0.01378858
0.014119412
0.014435818
0.014751224
0.015052046
0.015343491
0.015619758
0.015876621
0.016108099
0.016090493
0.015858863
0.015603512
0.015335646
0.015050415
0.014753994
0.01444284
0.014127782
0.013797361
0.013429962
0.013363954
0.013732192
0.014064161
0.014381984
0.014698942
0.014998759
0.015287885
0.015559906
0.015820908
0.016060314
0.016282613
0.016243556
0.016021683
0.015785327
0.015526516
0.015255539
0.014966414
0.014669332
0.014357552
0.014042536
0.013713481
0.013347698
0.013258269
0.013622924
0.013951969
0.01426862
0.014583472
0.014885988
0.015180043
0.015458424
0.015725544
0.015970082
0.016197618
0.016123843
0.01589809
0.015658364
0.015397773
0.015126628
0.014837688
0.014540582
0.01422993
0.013916666
0.013590026
0.013228813
0.013125449
0.013484388
0.01380933
0.014121954
0.014432984
0.014733176
0.015021948
0.015295979
0.015561416
0.015805027
0.016031788
0.015933613
0.015710983
0.015473946
0.015215626
0.014945052
0.014662144
0.014370714
0.014066553
0.013759447
0.013439108
0.01308629
0.012969415
0.013324431
0.013643998
0.013951326
0.014257149
0.014552966
0.014838688
0.015110322
0.015373437
0.01561528
0.015842175
0.015750545
0.015957951
0.015881782
0.015677484
0.015448511
0.01552763
0.015293169
0.015036703
0.014767868
0.014486788
0.014198692
0.01389802
0.013594606
0.013280706
0.012931734
0.012814666
0.013168847
0.01348497
0.013790495
0.014094947
0.014387677
0.014678464
0.014951542
0.01521227
0.01512248
0.015367635
0.015599515
0.015807641
0.015760314
0.015550211
0.015319172
0.015078936
0.014822784
0.014876667
0.014615909
0.014339784
0.014055363
0.013755815
0.013453536
0.013137568
0.012784989
0.012697485
0.013051069
0.013369972
0.013675446
0.013984631
0.014274853
0.014558206
0.014479531
0.014751252
0.015010543
0.015259507
0.015494369
0.015709882
0.015625746
0.015827967
0.015696879
0.015499688
0.01528854
0.015413713
0.01518331
0.01494381
0.01469
0.014424693
0.014146944
0.014213355
0.013936946
0.013643521
0.013343863
0.013027381
0.012677068
0.012592974
0.012939971
0.013261942
0.013565493
0.013864845
0.013725709
0.014010182
0.014287399
0.014558903
0.014818417
0.015060326
0.015526553
0.015638418
0.01572044
0.015768398
0.015821616
0.015893653
0.015960256
0.01604336
0.016123716
0.016204374
0.01628368
0.016351581
0.0163953
0.016435872
0.016468121
0.016485044
0.016506626
0.016552597
0.016607483
0.016660469
0.016716426
0.016738629
0.016743131
0.016705922
0.016658435
0.016577742
0.016491267
0.016390986
0.016273624
0.01609605
0.015920439
0.015687152
0.015460453
0.015164676
0.014881094
0.014527667
0.01419181
0.013782985
0.01342842
0.012989536
0.012775463
0.012534218
0.012386717
0.01212178
0.0119187
0.011627778
0.01145174
0.011214967
0.011054495
0.010780752
0.010597265
0.010306659
0.010126949
0.009834926
0.0095973652
0.010220505
0.011939454
0.025767227
0.030841487
0.032740223
0.033115869
0.032992172
0.032791147
0.032633222
0.032532158
0.032505473
0.032479807
0.032454244
0.032407767
0.032418414
0.032428275
0.032437117
0.032444679
0.032450399
0.032476278
0.032470822
0.032412023
0.032384225
0.032377507
0.032405654
0.032463555
0.03245502
0.032398308
0.032369858
0.032361221
0.032390149
0.032445556
0.032435312
0.032381528
0.032352194
0.03234241
0.0096712382
0.0099963102
0.010404587
0.010958579
0.011616682
0.012241777
0.012713125
0.01282414
0.012786475
0.01287322
0.012934118
0.012901529
0.012813793
0.012706848
0.012662448
0.012604869
0.012534783
0.01243539
0.012337138
0.012211556
0.012121343
0.012139507
0.01260398
0.012787853
0.012492811
0.012561554
0.01222263
0.012308689
0.012542837
0.012807549
0.013079706
0.01334502
0.013607073
0.013858864
0.014105387
0.014340335
0.014568865
0.014782131
0.014984573
0.015166182
0.01533397
0.015623172
0.015463769
0.015287263
0.015087801
0.014877812
0.014650814
0.014414215
0.014164034
0.013910071
0.013645354
0.01337393
0.013094621
0.012822645
0.012576636
0.012466013
0.013409464
0.013543542
0.013621186
0.012636378
0.012858237
0.013149083
0.01344271
0.014216429
0.014330901
0.014410105
0.014450083
0.014515098
0.014558006
0.014643732
0.014700343
0.014787412
0.014839335
0.014920012
0.014960535
0.015032265
0.015072257
0.015116123
0.015118782
0.015159656
0.015169234
0.015216014
0.015284143
0.01534602
0.015407515
0.015418236
0.015421594
0.015390327
0.015337383
0.015283705
0.015195819
0.015108555
0.014969967
0.014817144
0.014605857
0.014382024
0.014082522
0.013786763
0.013414964
0.013068936
0.012670285
0.012344888
0.012010073
0.011759219
0.011544626
0.011364281
0.011170766
0.010972229
0.010758091
0.010575126
0.010398272
0.010229452
0.025642078
0.030553894
0.032551288
0.03302434
0.032942948
0.032749568
0.032586993
0.032563837
0.032727482
0.032915075
0.032973776
0.032946646
0.032905139
0.03272221
0.032559557
0.032583052
0.0327447
0.032738222
0.032576977
0.032553347
0.032715682
0.032898186
0.032926329
0.032933417
0.032996892
0.032986956
0.032937635
0.032949449
0.032894089
0.032707265
0.032544858
0.032568733
0.032729792
0.032719254
0.032558744
0.032534748
0.03269698
0.032889928
0.032916392
0.032921592
0.032997151
0.033017458
0.032971863
0.032992788
0.03288275
0.03268414
0.032522956
0.032547255
0.032706273
0.032691224
0.032534495
0.032509997
0.032669318
0.032872262
0.032896333
0.032908037
0.033035734
0.033049752
0.033009608
0.033018069
0.032858142
0.032652467
0.03249579
0.032396405
0.032424364
0.032372276
0.032362716
0.03233246
0.03238458
0.032412944
0.032441756