/*--------------------------------*- C++ -*----------------------------------*\
| =========                 |                                                 |
| \\      /  F ield         | OpenFOAM: The Open Source CFD Toolbox           |
|  \\    /   O peration     | Version:  v2012                                 |
|   \\  /    A nd           | Website:  www.openfoam.com                      |
|    \\/     M anipulation  |                                                 |
\*---------------------------------------------------------------------------*/
FoamFile
{
    version     2.0;
    format      ascii;
    class       volScalarField;
    location    "100";
    object      omega;
}
// * * * * * * * * * * * * * * * * * * * * * * * * * * * * * * * * * * * * * //

dimensions      [0 0 -1 0 0 0 0];


internalField   nonuniform List<scalar> 
15114
(
10.973066
12.126848
17.362379
28.722289
128.16924
208.325
172.85199
168.60489
163.31968
132.30982
127.33136
123.74797
118.8586
99.635397
96.397378
93.896952
91.120157
88.499993
85.965117
83.111874
74.578743
72.567174
70.887885
69.167093
67.524715
65.929061
64.405567
62.946872
61.56135
60.232818
58.968711
57.767439
56.614419
55.510788
54.459434
53.444343
52.479521
51.546034
50.655441
49.798153
48.97644
48.17962
47.41825
46.682672
45.980104
45.303117
44.6581
44.039324
43.449689
42.884534
42.347926
41.832851
41.344874
40.872869
40.426503
39.986162
39.556039
39.101244
38.668939
37.502367
35.282236
34.660276
34.350165
34.094471
11.194548
13.85623
13.902399
18.035722
24.413935
34.879821
51.399636
84.784134
33.868071
21.868988
32.58221
30.849479
26.569135
22.623264
30.676685
49.403803
56.044613
73.460828
72.415692
94.228785
229.80006
264.64113
139.79149
114.09558
151.28837
215.26793
209.02879
205.56574
198.21088
160.46406
152.17872
145.38087
139.1537
116.65836
112.92624
108.05869
103.90345
100.16171
96.481852
92.811143
83.481774
81.210666
77.927329
75.493411
73.268222
71.179338
69.208566
67.348523
65.597659
63.944633
62.385096
60.913202
59.518337
58.195659
56.943288
55.751636
54.621659
53.543361
52.51709
51.537109
50.598001
49.694397
48.832295
48.004771
47.213708
46.456354
45.734559
45.047255
44.390542
43.765591
43.172325
42.607538
42.071422
41.561339
41.078117
40.621285
40.207766
39.811396
39.440075
39.673701
40.091303
40.585682
40.99648
41.066071
40.954387
40.653545
40.278582
39.748562
39.306589
38.668856
37.834845
38.040005
38.546138
38.995886
39.536959
39.950542
40.302645
40.483477
40.492905
40.198131
39.983522
39.599716
39.100889
38.787341
36.158193
38.906902
39.132504
40.225134
40.152349
38.992698
36.242566
35.37736
35.395502
34.983249
34.533718
28.476632
28.366858
27.751295
27.68638
27.455565
27.394276
26.93866
26.847445
26.292552
26.202051
25.787435
25.718247
25.478784
25.395987
25.332686
25.459388
25.630616
25.599477
25.601051
25.61384
25.798191
25.844038
26.114575
26.124656
26.025392
25.972856
25.673922
25.590638
25.222316
25.134954
24.82608
24.759067
24.548755
24.503332
24.376103
24.351607
24.313285
24.297609
24.36677
24.673376
24.979191
24.978049
25.050108
25.066023
25.135853
25.149586
25.196113
25.208579
25.273965
25.292895
25.382538
25.39352
25.489692
25.84176
26.183201
26.196683
26.357708
26.397413
26.568638
26.639468
26.988734
27.145856
27.482973
28.069161
28.572944
28.872806
30.243817
30.848819
10.970784
11.909274
12.743105
18.239438
15.875954
29.752803
79.014785
76.84741
96.129987
123.10158
225.33379
257.56301
164.3919
136.10874
144.39711
127.98155
204.73798
168.84602
161.33169
196.16384
164.11106
111.7508
75.245022
93.084588
92.940093
118.94759
136.20662
101.53445
113.46222
91.242734
61.34711
98.898954
108.38791
143.64323
166.94486
269.03411
284.8413
317.0739
234.368
214.57737
219.72557
210.22681
162.12485
157.54155
150.84114
144.94162
140.4551
119.33253
116.77898
111.97906
108.07566
104.47608
100.5895
97.517066
95.112764
84.97596
83.883356
80.215532
78.055319
76.023888
74.064365
72.171134
70.347497
68.597514
66.917999
65.310364
63.772571
62.299424
60.887826
59.541676
58.251323
57.019462
55.841399
54.713064
53.630956
52.588998
51.582993
50.621308
49.696086
48.809657
47.958999
47.147343
46.373044
45.633454
44.92858
44.260887
43.625585
43.023387
42.45331
41.9166
41.41951
40.99194
40.590776
41.131221
41.588885
42.069012
42.618121
43.208617
43.837322
44.500439
45.198062
45.930932
46.702165
47.508381
48.349338
49.227281
50.144457
51.096538
52.084325
53.107252
54.172104
55.27003
56.4034
57.581229
58.806588
60.083508
61.417103
62.800231
64.244792
65.749019
67.311706
68.939706
70.638132
72.403458
74.238932
76.147801
78.132632
80.18771
82.352586
85.21972
95.94204
98.382641
101.12155
104.22206
107.50135
111.28262
113.96343
136.3186
141.7798
147.12033
153.28971
201.55931
209.55036
219.34891
198.91527
196.1971
188.94832
148.19687
145.4248
140.24757
135.4987
131.73212
115.33321
112.39983
108.40411
105.17218
102.10145
99.248278
96.885133
86.597491
83.983785
81.779837
79.606033
77.524333
75.556358
73.67808
71.880335
70.157822
68.510696
66.928007
65.409508
63.952201
62.551826
61.203256
59.908839
58.662932
57.464749
56.30932
55.186339
54.094112
53.039035
52.015773
51.022768
50.061568
49.137038
48.246184
47.387116
46.560987
45.772244
45.017146
44.295275
43.608168
42.958753
42.348746
41.800097
41.273292
41.20968
41.788537
42.387077
43.045652
43.742493
44.476659
45.24518
46.0449
46.876314
47.744851
48.643585
49.5707
50.528607
51.521932
52.54448
53.592764
54.67157
55.78412
56.923943
58.095844
59.31191
60.573796
61.882117
63.243535
64.657733
66.13037
67.664795
69.267571
70.94065
72.694589
74.535887
76.475413
78.532805
80.74827
83.73253
85.851295
88.408494
92.260436
105.88792
109.69351
114.01694
131.91429
136.59166
142.56673
149.07928
156.95405
203.28568
214.20056
223.65397
270.97022
198.77623
193.20994
117.99613
101.10141
87.390944
114.20742
81.566906
113.26203
83.255785
53.059999
80.966852
95.130704
85.508215
121.39956
56.053023
70.097758
89.400001
133.81641
123.94289
100.84105
180.35016
110.33958
72.966425
62.158635
25.489009
14.452859
11.692261
10.925069
9.8531054
9.7833277
9.7136787
9.6443504
9.5756265
9.5078181
9.4411956
9.3759596
9.3122443
9.2500852
9.1894305
9.130154
9.0720671
9.0149387
9.0228623
9.0798267
9.1377181
9.196766
9.2571564
9.3190146
9.3823915
9.4472539
9.5134763
9.5808663
9.6491316
9.717969
9.7870988
9.8563314
9.8637759
9.7957608
9.7278053
9.6600845
9.5928627
9.5264217
9.4610558
9.3969834
9.3343231
9.273105
9.2132777
9.1547177
9.0972418
9.0406241
9.0728503
9.1288897
9.1856804
9.2434369
9.302331
9.3624778
9.4239226
9.4866321
9.5504954
9.6152913
9.680691
9.7464325
9.8122847
9.8781063
9.9035122
9.8414105
9.7790773
9.7165987
9.654169
9.5920499
9.5306319
9.470135
9.4106738
9.3522882
9.2949428
9.2385376
9.1829228
9.1279074
9.2233752
9.2763726
9.3297665
9.3836996
9.4382729
9.4935492
9.5495442
9.6062291
9.6634833
9.7210895
9.7785287
9.8354935
9.8918444
9.9475992
10.0275
9.9838733
9.9390315
9.8926609
9.8447931
9.7959772
9.7470136
9.6980386
9.6490618
9.6000114
9.5508855
9.5017185
9.4525413
9.4033491
9.7792257
9.8235626
9.8667458
9.9083858
9.9479849
9.9849797
10.018885
10.050231
10.080046
10.108542
10.134511
10.155875
10.172964
10.187379
10.574409
10.640675
10.697056
10.738302
10.764179
10.784617
10.799494
10.808427
10.806227
10.786295
10.753619
10.712247
10.665234
10.614393
12.468242
12.594957
12.722051
12.849114
12.97449
13.054148
12.979305
12.890371
12.788845
12.657936
12.481942
12.259687
11.987544
11.677827
10.700379
10.970295
11.432249
11.683082
11.79607
11.84835
12.171526
12.363508
12.74871
12.930755
13.340544
13.442029
13.828191
13.834905
14.177242
14.092677
14.394609
14.253518
14.538791
14.359361
14.631122
14.434778
14.69622
14.495887
14.741931
14.548768
14.783628
14.934734
16.797459
19.988315
21.40619
17.639082
30.080493
29.902988
30.122555
30.721636
33.851917
34.659409
35.129916
35.626119
35.94834
36.39272
36.71463
37.177445
37.518799
38.005544
38.363901
38.877851
39.259382
39.796481
40.20342
40.766868
41.199114
41.78162
42.237589
42.839511
43.31841
43.928956
44.421972
45.027901
45.525262
46.097205
46.578965
47.0924
47.524502
47.975673
48.315168
48.656591
48.854546
48.997376
48.940667
48.752087
48.258244
47.50431
46.128953
44.82802
38.185298
32.782862
28.576576
22.775703
18.41406
14.984894
12.977848
11.728313
11.083264
9.0145789
9.013675
9.0122385
9.0102729
9.0078492
9.005004
9.0017994
8.9983199
8.9946548
8.9908792
8.9870504
8.9832098
8.979387
8.975596
8.9718394
8.9680944
9.026832
9.0304209
9.0340409
9.0377065
9.0414094
9.0451319
9.0488436
9.0525034
9.0560545
9.0594231
9.0625182
9.0652551
9.0675743
9.0694509
9.0708282
9.0717087
9.1297993
9.1289487
9.12764
9.1258671
9.1236702
9.121062
9.1180985
9.1148646
9.1114515
9.1079322
9.1043622
9.1007816
9.0972214
9.093701
9.0902328
9.0868083
9.1481672
9.1514297
9.1547404
9.1581048
9.161508
9.1649307
9.1683416
9.1717024
9.1749592
9.1780401
9.1808543
9.1833173
9.185377
9.1870331
9.1882645
9.1890797
9.2497383
9.2489628
9.2478138
9.2462829
9.24437
9.2420618
9.2394069
9.2364886
9.2333965
9.2302015
9.2269553
9.2236942
9.2204488
9.2172382
9.2140772
9.2109614
9.275133
9.2781336
9.28117
9.2842468
9.2873506
9.2904626
9.2935537
9.29659
9.299522
9.3022801
9.3047776
9.3069317
9.3086969
9.3101012
9.3111653
9.3119009
9.3756195
9.374921
9.3739381
9.3726522
9.3710242
9.3690103
9.3666542
9.3640372
9.3612433
9.3583405
9.3553757
9.3523808
9.3493829
9.3464011
9.3434469
9.4127047
9.4156455
9.4185887
9.4215162
9.4244018
9.4272158
9.4299132
9.4324258
9.434674
9.436576
9.4380901
9.4392763
9.4401883
9.4408564
9.5074778
9.5068292
9.5059697
9.5048548
9.5034195
9.5015881
9.4993998
9.496939
9.494285
9.4915028
9.4886361
9.4857136
9.482761
9.5504017
9.5534295
9.5564175
9.5593389
9.5621641
9.5648484
9.5673253
9.5695121
9.5713265
9.5727285
9.5738083
9.5746385
9.575282
9.6439965
9.6433376
9.6425028
9.6414086
9.6399814
9.6381187
9.6358675
9.6333138
9.6305417
9.6276202
9.6245955
9.6214995
9.6183604
9.6865254
9.689772
9.6929861
9.6961365
9.6991879
9.7020905
9.704771
9.7071376
9.7091
9.7106005
9.7117512
9.7126186
9.7133109
9.7829431
9.7822021
9.7812782
9.7800379
9.7784299
9.7763361
9.7738313
9.7710132
9.7679822
9.7648173
9.7615722
9.7582856
9.7549907
9.8240195
9.8272592
9.8305261
9.8337862
9.8369991
9.8401082
9.8430296
9.8456519
9.8478695
9.8495861
9.8509244
9.8519111
9.8527056
9.8557236
9.7865271
9.7174305
9.6486186
9.5803721
9.5129934
9.4467772
9.3819172
9.3185397
9.2566787
9.1962833
9.1372297
9.079333
9.022365
9.8547263
9.785598
9.716562
9.6477926
9.5795677
9.5121886
9.4459551
9.3810649
9.3176489
9.2557463
9.1953105
9.1362211
9.078295
9.0213045
32.91882
30.750048
29.823867
28.643116
28.212405
27.622484
27.196714
26.77228
26.543322
26.244877
26.135084
25.992818
25.927835
25.813171
25.822478
25.337694
24.917372
24.97837
24.956727
24.887809
24.856118
24.807543
24.785858
24.749284
24.725997
24.67311
24.647543
24.605365
24.636162
24.194399
23.800345
23.8962
23.905364
23.941251
23.976273
24.084609
24.152731
24.329607
24.423332
24.67925
24.807566
25.110144
25.233399
25.483071
25.563648
25.658214
25.646169
25.449992
25.387443
25.260865
25.24952
25.284926
25.37055
25.070334
24.756883
25.051851
25.152981
25.367675
25.479564
25.834509
25.979117
26.44219
26.58585
26.976809
27.079385
27.296939
27.405663
27.934476
28.119241
27.538083
27.511926
27.24744
26.816467
26.655302
26.450155
26.307497
25.993718
25.804426
25.446643
25.255939
24.966921
24.818808
24.633499
24.514632
24.295708
24.181104
24.215936
24.39441
24.35705
24.371325
24.405373
24.467413
24.450193
24.35258
24.237025
24.054125
23.896622
23.686929
23.527163
23.352816
23.40629
23.611532
23.466043
23.378417
23.292747
23.255187
23.229662
23.22519
23.188524
23.20072
23.245095
23.364858
23.647557
23.67118
23.692012
23.717962
23.748368
23.786308
23.835828
23.975365
24.266268
24.278264
24.261669
24.304703
24.398136
24.558263
24.903604
25.011523
25.15568
25.415324
25.688914
26.135717
26.565906
27.263704
27.907891
28.808363
30.04463
32.089427
33.487819
35.064013
36.648456
38.333096
35.623207
35.00504
32.605436
30.453954
29.377206
28.228744
27.878435
27.400116
26.780291
26.358765
26.062597
25.78903
25.664916
25.53642
25.449858
25.345429
24.941373
24.534354
24.494142
24.524388
24.509275
24.43166
24.400871
24.362819
24.336926
24.306957
24.281996
24.240409
24.205598
24.167292
23.789638
23.411287
23.402721
23.456941
23.461768
23.494404
23.533408
23.629862
23.714559
23.878706
23.96923
24.201299
24.348049
24.608255
24.751538
24.968618
25.065655
25.161949
25.15651
25.020322
24.960004
24.881792
24.879798
24.937036
24.630167
24.32024
24.448575
24.690828
24.800922
24.998239
25.135488
25.449537
25.627211
26.024191
26.199864
26.542479
26.67298
26.883947
27.028263
27.497554
27.746065
24.846229
25.051665
25.185023
26.103514
27.013885
27.716237
28.207904
28.634716
29.014556
29.39555
29.734552
30.056411
30.307312
30.50576
30.608476
30.661261
30.615375
30.492628
30.237049
29.854961
29.28398
28.480155
27.304655
25.41106
22.290136
19.688929
17.133877
15.54573
13.908278
12.592435
11.725569
11.201578
10.87375
10.983761
11.104453
11.490051
11.881026
12.75566
13.032531
12.299877
14.307383
12.540232
13.265458
13.927658
14.550578
15.111568
15.643286
16.09079
16.506937
16.833284
17.132874
17.366026
17.570599
17.716278
17.821167
17.91955
17.969903
18.037543
18.043533
18.076262
18.048192
18.043384
17.968598
17.925101
17.786305
20.697108
21.218681
21.575713
21.825256
21.986615
22.114629
22.19867
22.276169
22.308543
22.329129
22.290004
22.23623
22.116387
21.970256
21.723799
21.446288
21.045572
20.611365
20.028432
19.382209
18.489745
17.414937
15.897753
15.821909
13.711767
13.256297
13.864914
15.85968
14.743561
15.250108
17.811903
16.135281
16.470333
19.335397
17.2728
17.435032
20.457135
18.133591
18.160898
21.219668
18.759891
18.66638
21.682109
19.165901
18.968538
21.865231
19.390925
19.120725
21.821671
19.457612
19.142344
21.624884
19.394892
19.044028
21.302346
19.166299
18.739543
20.792443
18.384703
21.059126
21.658761
21.9912
22.373686
22.448126
22.776104
28.971721
28.233929
28.019167
27.085138
26.532424
25.265823
25.012035
24.23428
20.150858
37.551695
36.871866
34.326835
33.738345
31.63198
29.629949
28.25583
27.84823
26.894903
26.190992
25.71027
25.315365
25.027214
24.772645
24.613746
24.492189
24.132697
24.059436
23.971015
23.92457
23.920209
23.888875
23.525875
23.486044
23.436943
23.398096
23.36643
23.342114
23.314483
23.283846
22.963015
22.943605
22.902312
22.887352
22.909277
22.911653
22.932272
22.967887
23.043706
23.127015
23.251608
22.901811
23.007727
23.16151
23.312483
23.507308
23.664511
23.837121
23.956211
24.058041
24.090054
24.059377
24.043864
24.054432
24.10955
23.843068
23.942808
24.063163
24.260715
24.386516
24.562798
24.718228
24.984048
25.181587
25.500474
25.697827
25.986029
26.141362
26.341506
26.514046
26.912563
27.229308
26.883608
26.59733
26.2347
25.992951
25.770615
25.579357
25.802693
26.051857
25.853934
25.609987
25.391953
25.220461
25.442419
25.691189
25.424635
25.196872
24.988953
24.799375
24.624898
24.462862
24.312887
24.142007
24.282865
24.438284
24.605941
24.790471
24.996954
25.225574
24.936462
24.731571
24.545679
24.377846
24.222073
24.077909
23.945372
23.825721
23.707315
23.565735
23.312042
22.780294
23.168352
23.415421
23.550405
23.660712
23.773429
23.898337
24.03457
24.184138
24.347419
24.530164
24.736132
24.487198
24.296783
24.126902
23.973535
23.831907
23.703054
23.583432
23.475803
23.370423
23.239099
22.99523
22.479585
22.872965
23.112923
23.238058
23.33691
23.438767
23.552787
23.676664
23.814275
23.965344
24.134769
24.327695
24.158214
23.972222
23.807949
23.661325
23.526929
23.406103
23.294477
23.194583
23.097442
22.974368
22.735983
22.236488
22.63926
22.872567
22.991136
23.083459
23.178718
23.285874
23.403022
23.533695
23.678306
23.842265
24.029429
23.848387
23.674016
23.518735
23.380315
23.253565
23.139192
23.033602
22.939407
22.84634
22.727365
22.494352
21.983988
22.369444
22.600968
22.718187
22.809738
22.903517
23.00849
23.123425
23.251685
23.392054
23.550219
23.727932
23.621802
23.437198
23.27112
23.121844
22.985592
22.864019
22.752809
22.654224
22.559544
22.440831
22.21189
21.711938
22.083068
22.308507
22.428434
22.525796
22.628545
22.745411
22.874496
23.02047
23.181673
23.362167
23.5606
23.790675
23.762592
23.519269
23.305832
23.110101
22.933584
22.773338
22.631704
22.504172
22.392214
22.287525
22.163181
21.937278
21.451874
21.820673
22.047359
22.175377
22.284882
22.403623
22.539212
22.690761
22.863193
23.054018
23.266929
23.498595
23.760179
23.765214
23.483844
23.233815
23.004462
22.797983
22.611373
22.447273
22.300733
22.172837
22.055497
21.922063
21.693888
21.219558
21.58393
21.809233
21.94304
22.06241
22.193255
22.343515
22.51336
22.707324
22.922262
23.162873
23.42534
23.720296
23.616277
23.319999
23.055597
22.813633
22.596279
22.398811
22.225462
22.07208
21.938361
21.816769
21.682722
21.459528
20.999593
21.36053
21.576269
21.70229
21.819809
21.949998
22.100097
22.271288
22.466666
22.68318
22.927176
23.193615
23.493877
23.329707
23.038844
22.780332
22.543527
22.331082
22.140016
21.972838
21.826643
21.701436
21.586059
21.483198
21.306648
20.843735
21.457466
21.589535
21.566679
21.54502
21.462033
21.380715
21.320335
21.261508
21.226822
21.19266
21.194307
21.198942
21.240816
21.276482
21.328646
21.367754
21.403682
21.44823
21.465456
21.507763
21.531388
21.582283
21.614481
21.677422
21.718861
21.792502
21.839869
21.926506
21.991083
22.087976
22.174588
22.292009
22.283743
22.340517
22.213205
22.114371
22.019287
21.948108
21.860331
21.808023
21.738976
21.694677
21.634998
21.600552
21.554043
21.526757
21.488513
21.469515
21.426493
21.389464
21.349296
21.296436
21.256292
21.211695
21.201948
21.199413
21.229964
21.264073
21.321424
21.382883
21.470165
21.495683
21.360564
20.752567
21.266243
21.399872
21.335614
21.203275
20.633958
21.153269
21.280922
21.246046
21.114333
20.557532
21.090239
21.217564
21.223701
21.095558
20.551824
21.1115
21.237234
21.2815
21.150113
20.605124
21.195778
21.325578
21.381302
21.250676
20.687177
21.292706
21.422465
21.45763
21.322056
20.744545
21.35834
21.498445
21.5226
21.385469
20.799331
21.419354
21.558357
21.585296
21.444118
20.852659
21.486348
21.630765
21.669652
21.526678
20.926576
21.577841
21.725748
21.770005
21.618318
21.008807
21.681287
21.83725
21.894524
21.739932
21.124499
21.821637
21.980955
22.05606
21.893056
21.270501
21.992992
22.156865
22.26838
22.101703
21.470672
22.207344
22.375988
22.240028
21.976648
22.52936
22.750048
22.878866
22.995295
23.118666
23.256489
23.409576
23.583782
23.774023
23.983567
24.209373
24.456845
24.717445
25.001257
24.692499
24.440813
24.272037
23.973522
23.829943
23.744465
23.658737
23.607742
23.583956
23.300935
23.2382
23.190356
23.138939
23.09983
23.067101
23.041552
23.007955
22.742622
22.694719
22.666974
22.626641
22.608587
22.617916
22.617774
22.6339
22.666586
22.732669
22.807383
22.53351
22.616579
22.713992
22.850132
22.994628
23.174914
22.887695
22.63474
22.40382
22.196829
22.012729
21.852314
21.713766
21.600973
21.514309
21.43213
21.506847
21.607002
21.735673
21.88612
22.058647
22.256805
22.478478
22.721017
22.583966
22.35059
22.13704
21.94827
21.782749
21.639048
21.518205
21.42248
21.350507
21.285882
21.352916
21.44284
21.554931
21.69079
21.850002
22.02915
22.234942
22.460129
22.369214
22.148811
21.948516
21.774648
21.619113
21.487868
21.378264
21.291688
21.227039
21.186305
21.246226
21.327851
21.432174
21.557447
21.707126
21.877713
22.074367
22.291544
22.229859
22.468125
22.41122
22.18162
21.976401
22.019071
21.828441
21.660921
21.515086
21.392727
21.290722
21.210311
21.15103
21.146854
21.200342
21.275383
21.37158
21.487911
21.628827
21.791199
21.775481
21.956021
22.15663
22.382455
22.371367
22.151212
21.956033
21.780133
21.62763
21.619063
21.482295
21.368931
21.275367
21.202037
21.149446
21.184655
21.231014
21.298292
21.386977
21.495336
21.523101
21.649252
21.796143
21.967528
22.158401
22.374968
22.375349
22.16744
21.983517
21.817779
21.675242
21.552637
21.452189
21.417846
21.331016
21.264044
21.218684
21.26409
21.30574
21.369015
21.413152
21.492015
21.588873
21.708286
21.847199
22.009941
22.191019
22.396299
22.435614
22.229573
22.047979
21.884876
21.744153
21.62277
21.523987
21.444028
21.381291
21.348126
21.305698
21.339359
21.381487
21.423073
21.483777
21.562292
21.659387
21.779433
21.919249
22.081845
22.263022
22.467565
22.513016
22.305645
22.121319
21.955911
21.813072
21.690133
21.589989
21.508155
21.445161
21.401638
21.44197
21.483098
21.544693
21.625748
21.724877
21.847196
21.989666
22.155715
22.341266
22.55018
22.780482
22.808282
22.580705
22.373525
22.188433
22.022085
21.879276
21.756014
21.655259
21.572354
21.509239
21.466346
21.515343
21.55634
21.617543
21.698155
21.79657
21.9178
22.058818
22.223498
22.408062
22.61531
22.842569
22.882545
22.657259
22.451592
22.26798
22.10315
21.960978
21.838139
21.738037
21.655502
21.591997
21.548906
21.609062
21.650888
21.713217
21.794529
21.892924
22.014225
22.155422
22.319532
22.503129
22.709502
22.935215
22.986504
22.763212
22.558219
22.375228
22.210709
22.068635
21.945712
21.845003
21.761215
21.69628
21.651948
21.722459
21.764037
21.827184
21.909026
22.007823
22.128867
22.269684
22.433219
22.616446
22.823
23.048697
23.093112
23.338535
23.393888
23.15325
22.934958
22.873216
22.671306
22.489774
22.327977
22.186839
22.06521
21.964761
21.880487
21.816343
21.772318
21.854446
21.894412
21.954938
22.037378
22.135616
22.254713
22.393741
22.55383
22.734558
22.812772
23.014845
23.234165
23.477725
23.567714
23.326382
23.10865
22.906533
22.726222
22.632831
22.471227
22.329841
22.20867
22.106677
22.022129
21.958972
21.917901
22.011808
22.050905
22.113673
22.197589
22.299049
22.421165
22.562946
22.68563
22.85101
23.032815
23.238734
23.460119
23.706537
23.882955
24.148991
24.399244
24.133802
23.885202
23.636159
23.412494
23.20441
23.018782
22.849071
22.701323
22.541278
22.413407
22.30482
22.21411
22.14383
22.099406
22.213815
22.279862
22.359996
22.456842
22.569707
22.799532
22.933949
23.08463
23.256991
23.446847
23.6579
23.277252
23.027421
22.863411
22.73477
22.649487
22.574678
22.517835
22.475456
22.425647
22.383789
22.335962
22.300489
22.26862
22.246784
22.216855
22.180133
22.157994
22.12309
22.106052
22.110017
22.109321
22.12699
22.158284
22.22124
22.290859
22.385871
22.491788
22.628431
22.766624
22.951314
23.1007
23.267086
23.384184
23.492243
23.534071
23.52849
23.527952
23.561224
23.605886
23.744577
23.850415
24.057141
24.179738
24.362155
24.514166
24.78802
24.980854
25.304012
25.495829
25.790638
25.940192
26.14615
26.314749
26.720588
27.029832
26.811418
25.374011
13.277407
10.866866
9.9398704
9.5594363
9.3859276
9.2952602
9.24307
9.2127056
9.1541389
9.0966564
9.0400341
9.0243869
9.0282759
9.0317216
9.0346518
9.0370326
9.0388244
9.0954704
9.0937421
9.0767622
9.0197114
9.017587
9.0747287
9.0914551
9.088629
9.072241
9.0149935
9.0119632
9.0693174
9.0852859
9.0814968
9.0660191
9.008558
9.0048619
22.280609
22.041556
21.790851
21.522186
21.261722
21.030004
20.814625
20.672401
20.58063
20.474386
20.403018
20.398814
20.451625
20.530774
20.586358
20.638896
20.690964
20.761656
20.841533
20.952898
21.093346
21.28034
21.478078
21.632152
22.43841
22.694338
23.456694
23.720634
23.883899
24.026637
24.172687
24.332355
24.505867
24.698309
24.905057
25.131411
25.374606
25.637338
25.914033
26.212041
26.532877
25.827216
25.513966
25.227087
24.960654
24.708704
24.475221
24.258505
24.060534
23.87776
23.714537
23.565729
23.430567
23.300083
23.149852
22.903249
22.273843
21.863347
21.612919
22.305546
22.464454
22.572099
22.679844
22.099221
21.870905
21.721315
21.608204
21.524008
21.455605
21.395845
21.345149
21.296371
21.254357
21.212496
21.178665
21.146371
21.121319
21.09518
21.070661
21.041232
21.014538
20.9853
20.959258
20.937356
20.931272
20.938397
20.968016
21.010393
21.075926
21.147271
21.237799
21.336857
21.458948
21.576432
21.705066
21.821426
21.938529
22.032516
22.11522
22.195591
22.299694
22.405858
22.53755
22.660857
22.806238
22.927347
23.076692
23.224906
23.426381
23.60236
23.814463
23.988732
12.985262
10.764841
9.8517063
9.460371
9.2784496
9.1832006
9.1285049
9.0724579
9.1281664
9.22537
9.4107928
9.4189714
9.226881
9.1277244
9.0713773
9.1274538
9.1828033
9.1810527
9.1256244
9.0694818
9.1259021
9.2256694
9.2789417
9.280059
9.4689178
9.4709559
9.420817
9.4134633
9.2208994
9.1224532
9.0667181
9.1229552
9.1776996
9.1729638
9.1194918
9.0631546
9.117618
9.2132887
9.2667536
9.2742711
9.463736
9.4495455
9.3993521
9.3819497
9.2040417
9.1117575
9.0588938
9.1153289
9.1672034
9.1606817
9.1105892
9.0540635
9.105148
9.1937484
9.2474108
9.2576127
9.4321932
9.4131262
9.3629456
9.3441971
9.1831099
9.0980909
9.0488343
9.0201632
9.0773728
9.0624304
9.0586468
9.0009683
9.0157206
9.0730306
9.1313415
9.1355599
9.1395614
9.1432291
9.1464496
9.1491538
9.1513309
9.1529837
9.2115868
9.210019
9.1939295
9.1347599
9.1328331
9.1921234
9.2079649
9.2053977
9.1898971
9.1304688
9.1276726
9.1872452
9.2023164
9.1987872
9.1842209
9.1245028
9.121045
9.1809126
9.1949262
9.1908499
9.1774144
9.1173952
9.1136351
9.0547515
8.9969622
9.0124447
9.0169215
9.0217738
9.0269273
9.0323047
9.0378145
9.0433649
9.1000658
9.1054491
9.1537085
9.1464821
9.0907908
9.1722659
9.2260919
9.2368651
9.3944523
9.3757936
9.325557
9.3069368
9.1615379
9.0834715
9.1392319
9.0945996
9.0685827
9.011172
9.0066048
8.992911
9.0508121
9.0641152
9.1226753
9.1270186
9.1866702
9.1738084
9.1701594
9.1098324
9.1060324
9.0468767
8.9888643
9.0020838
9.0596914
9.055366
9.0429835
8.9848596
8.9976657
8.9933901
8.9809193
9.0391584
9.0511826
9.0471671
9.0354129
8.9770493
8.9892793
8.9853179
8.9732265
9.2389316
9.2472719
9.2591207
9.27313
9.2892198
9.1512295
9.0763232
9.1321438
9.0891695
9.1469618
9.15229
9.1576496
9.1629252
9.1679553
9.1725847
9.1766314
9.1799776
9.1825374
9.1842887
9.1853052
9.2388363
9.3319224
9.5099167
9.5187611
9.333617
9.2384859
9.2949575
9.2420902
9.2404265
9.2933764
9.2368176
9.3325917
9.3867606
9.3876957
9.5685174
9.5708429
9.520972
9.513855
9.3280284
9.2335726
9.2902506
9.2379878
9.2347732
9.2857573
9.2289527
9.320619
9.3750213
9.3823077
9.5638352
9.5495689
9.4996286
9.4823349
9.3116053
9.2233086
9.280245
9.2308572
9.2263542
9.2739478
9.2168932
9.3015141
9.3561871
9.3661504
9.5324032
9.513391
9.4632776
9.444704
9.2910805
9.2100214
9.2671927
9.2214504
9.2162994
9.2601638
9.2028875
9.2803931
9.3352889
9.3458786
9.4949659
9.4763714
9.4260624
9.4075789
9.2698129
9.195724
9.253102
9.2110633
9.2058539
9.1824688
9.2436083
9.2476607
9.2516887
9.2556136
9.2593245
9.2627056
9.2656379
9.2680583
9.2699807
9.2714574
9.2725376
9.3337557
9.3964101
9.4604696
9.459483
9.3954013
9.3327137
9.3313284
9.3164433
9.2544521
9.2527758
9.3148995
9.3295394
9.3272669
9.3129695
9.250697
9.2481993
9.3106257
9.3244841
9.3212502
9.3079099
9.2453301
9.2421807
9.3049161
9.3176875
9.3139106
9.3017336
9.2388426
9.2353983
9.2984448
9.3100292
9.3061188
9.295107
9.2319093
9.228418
9.1665118
9.1783032
9.1183724
9.1141634
9.1022741
9.162903
9.1742266
9.1702809
9.1593604
9.0985846
9.1100928
9.1061903
9.0949799
9.1559035
9.1665003
9.2281611
9.2318246
9.2356448
9.2395859
9.3022298
9.2917611
9.288441
9.2249611
9.2215641
9.2851715
9.2947017
9.2984122
9.3624188
9.3661431
9.3699274
9.3737211
9.3774787
9.381127
9.3845588
9.3876596
9.3903052
9.3924388
9.3941011
9.3799455
9.4449119
9.4582557
9.4839868
9.4853284
9.4862199
9.4235395
9.3621102
9.301968
9.3526187
9.4110041
9.4704455
9.5309006
9.6085564
9.5518994
9.4958885
9.4405657
9.6089312
9.6583647
9.7077154
9.7569759
9.7662102
9.6103332
9.5306441
9.4702138
9.4226436
9.3611948
9.3010231
9.3523569
9.4107688
9.4093628
9.3597135
9.2994515
9.3508663
9.4415411
9.4423916
9.4977461
9.667711
9.6181798
9.6206183
9.6702282
9.4969675
9.5530128
9.5537463
9.7170821
9.7196024
9.7686379
9.609602
9.5293475
9.4688776
9.4212419
9.4191786
9.3575316
9.2971415
9.3478639
9.4064805
9.4022535
9.3545975
9.294067
9.3435052
9.4300461
9.4371976
9.4927257
9.6632993
9.6136657
9.5994489
9.6491777
9.4857087
9.5419566
9.5488509
9.4660989
9.5266492
9.4820256
9.4567021
9.4435998
9.3785268
9.376737
9.4419269
9.4546837
9.4521485
9.4398345
9.3745331
9.3719557
9.4373648
9.4491522
9.4719095
9.4759251
9.4793299
9.4163749
9.4619927
9.5226413
9.598691
9.6054814
9.7616906
9.7126962
9.6986762
9.7477778
9.7312796
9.5903989
9.5176236
9.4568748
9.412865
9.3509599
9.2902905
9.3381294
9.3970139
9.3909676
9.3467265
9.2859227
9.3319593
9.4115026
9.4213281
9.4771446
9.6322936
9.5824127
9.5635186
9.6135744
9.4674601
9.5239881
9.5335403
9.6819794
9.6634605
9.7130051
9.5809618
9.5117763
9.4509406
9.4087537
9.4042385
9.3420921
9.2811542
9.325327
9.3844564
9.3776457
9.3372049
9.2761365
9.3184097
9.3908375
9.4013246
9.4574109
9.5954827
9.5452468
9.526748
9.5771084
9.44702
9.5037496
9.5140595
9.4445357
9.5054518
9.4674866
9.4458199
9.4346073
9.3690977
9.3660495
9.4316533
9.4422629
9.4385889
9.4285806
9.3628908
9.359677
9.4254442
9.4348676
9.4531948
9.4579996
9.4627944
9.3994652
9.4378161
9.4987945
9.560874
9.5711281
9.6953221
9.6455748
9.6273163
9.6771758
9.6594144
9.5506757
9.4920699
9.4310414
9.3945969
9.3322284
9.2710321
9.3114533
9.3707902
9.3640473
9.3272652
9.2659487
9.3046246
9.2461802
9.1887134
9.2596447
9.2051859
9.2154318
9.3572368
9.3395932
9.3900626
9.4406496
9.4580278
9.3248026
9.3147194
9.3704454
9.3804461
9.4367148
9.559045
9.508542
9.4913322
9.5420242
9.4267864
9.4836384
9.4935146
9.6094103
9.5925723
9.6427459
9.5408175
9.485428
9.4243669
9.3897323
9.3849315
9.3223822
9.2609586
9.2007492
9.1417485
9.0838634
9.1253333
9.0694728
9.063081
9.1189595
9.07877
9.1367372
9.1958351
9.2331993
9.2394944
9.1819599
9.1756204
9.2413254
9.2500599
9.1955647
9.1415847
9.1328711
9.186837
9.3094965
9.323529
9.3740405
9.4246816
9.305172
9.2964327
9.4106249
9.3599958
9.3477851
9.2335855
9.1698113
9.1320019
9.0739666
9.1131516
9.0572892
9.0523165
9.108129
9.0695297
9.127623
9.1868684
9.1911807
9.2273993
9.2223135
9.1647542
9.2274007
9.1731622
9.1791803
9.1253076
9.119467
9.1159908
9.0483338
9.0083689
9.0654891
9.0433133
9.0317323
9.1024557
9.0914509
9.1525254
9.1628866
9.104049
9.1605931
9.1236307
9.1829293
9.2180782
9.2232959
9.1693625
9.2852446
9.2887814
9.2974677
9.5437728
9.5677314
9.5956838
9.6288758
9.6664998
9.7053553
9.7421938