/*--------------------------------*- C++ -*----------------------------------*\
| =========                 |                                                 |
| \\      /  F ield         | OpenFOAM: The Open Source CFD Toolbox           |
|  \\    /   O peration     | Version:  v2012                                 |
|   \\  /    A nd           | Website:  www.openfoam.com                      |
|    \\/     M anipulation  |                                                 |
\*---------------------------------------------------------------------------*/
FoamFile
{
    version     2.0;
    format      ascii;
    class       surfaceScalarField;
    location    "100";
    object      phi;
}
// * * * * * * * * * * * * * * * * * * * * * * * * * * * * * * * * * * * * * //

dimensions      [0 3 -1 0 0 0 0];
oriented        oriented;


internalField   nonuniform List<scalar> 
43855
(
0.0040263977
0.0018950055
0.0019161762
0.001673409
0.0015959903
0.00075699839
0.0011486863
0.00026663961
0.00025808308
0.00046714411
0.00038110644
0.00030043573
0.00029875526
5.6907392e-05
0.00011148145
0.00028602772
1.5425458e-05
-2.6979107e-06
0.00048311149
-1.0536901e-05
-0.00018654687
0.00043997554
2.1753513e-07
4.2918413e-05
0.00042390105
1.4918933e-05
1.1555584e-06
0.00065161232
-5.069682e-06
-0.00022264159
0.00059798752
3.2435302e-06
5.0381272e-05
0.00051860374
-1.6836887e-05
9.6220664e-05
0.00049712528
2.2526794e-05
-1.0483266e-06
0.00075554762
2.1289797e-05
-0.00027971214
0.00079746191
-3.678304e-05
-5.1312506e-06
0.00077405264
-3.156603e-05
5.4975309e-05
0.00073625947
-1.129717e-05
4.9090334e-05
0.00064410695
-4.5811256e-07
9.2610629e-05
0.00055358246
-5.356652e-06
9.588115e-05
0.0005265745
2.9358534e-05
-2.3505805e-06
0.00075882558
2.6984702e-05
-0.00025923578
0.00078400926
-3.4334474e-05
9.1507908e-06
0.00078905865
-3.3419715e-05
2.8370323e-05
0.00078151129
-1.2861004e-05
2.0408363e-05
0.00077132379
-6.877457e-06
1.7064957e-05
0.00076109925
-4.0494921e-06
1.4274039e-05
0.00075207895
-2.7113824e-06
1.1731684e-05
0.00074394999
-2.1548155e-06
1.0283772e-05
0.00073774185
-2.1181457e-06
8.3262884e-06
0.00073208319
-1.8165019e-06
7.475159e-06
0.0007268802
-1.6950781e-06
6.8980718e-06
0.00072308244
-1.7860886e-06
5.5838441e-06
0.0007198195
-1.4966731e-06
4.7596085e-06
0.00071676711
-1.4158048e-06
4.4681988e-06
0.00071517101
-1.4097851e-06
3.0058871e-06
0.00071319768
-1.0790475e-06
3.0523807e-06
0.00071266309
-1.2892016e-06
1.8237908e-06
0.00071230341
-1.0590593e-06
1.4187311e-06
0.00071243254
-1.0757899e-06
9.4666901e-07
0.00071343864
-1.0747814e-06
6.8679914e-08
0.00071447621
-9.3452755e-07
-1.0304698e-07
0.00071676061
-1.0139957e-06
-1.2704056e-06
0.00071866181
-8.3135229e-07
-1.0698486e-06
0.00072186179
-9.3250616e-07
-2.2674691e-06
0.00072476727
-7.9424896e-07
-2.1112352e-06
0.0007288917
-9.0667152e-07
-3.2177546e-06
0.00073271403
-7.4599509e-07
-3.076337e-06
0.00073744712
-8.8024766e-07
-3.8528444e-06
0.00074222201
-6.4908161e-07
-4.1258097e-06
0.000747468
-7.0920794e-07
-4.5367804e-06
0.00075302904
-4.8408222e-07
-5.076952e-06
0.00075838696
-3.6780266e-07
-4.9901178e-06
0.0007647381
-4.99494e-07
-5.8516463e-06
0.00077007997
-9.0834919e-08
-5.2510377e-06
0.00077673847
-6.2799257e-07
-6.0305091e-06
0.00078259931
-2.6196463e-07
-5.5988778e-06
0.00079028366
-1.2569004e-06
-6.4274437e-06
0.00079513976
8.5832258e-06
-1.343933e-05
0.00088017853
-7.542151e-05
-9.6172618e-06
0.0013421709
-0.00019151911
-0.00027047324
0.0022543255
-0.00032313172
-0.0005890229
0.0024696159
-6.0074239e-05
-0.00015521618
0.0023433444
0.00010123402
2.5037502e-05
0.00040977584
0.00032277714
0.0034059824
0.00075261839
0.0037419036
0.0026543473
-0.00038760479
0.0024035156
0.00025894494
0.0011311266
0.00092959318
0.00027879234
0.0011008836
9.5349188e-05
0.00012760789
0.00073995103
0.00023332467
0.00041316561
9.5548716e-05
0.00010008153
0.00033009275
-1.7008675e-05
-0.00022005622
0.00034376385
-2.3626092e-05
0.00036189812
0.00015799669
0.00078102884
0.00070323663
0.00019555849
0.0010855897
-5.2743476e-05
0.00016121607
0.00025750033
0.00041505591
2.3389683e-05
0.00024802002
0.00037908345
9.4529368e-05
0.00024535883
-0.00071320549
0.00039670697
0.00044108246
0.00018040957
-0.0009129277
0.00038596504
-2.7843052e-05
0.00026284045
0.00021627503
-1.0189978e-05
-4.1829584e-05
0.00018416907
1.0227034e-05
-2.6765806e-05
0.00021721228
1.3082774e-05
-2.7110024e-05
0.0002311493
1.7214946e-05
1.8147422e-05
0.00010670124
9.2573828e-06
0.00018138719
-4.276448e-06
-0.00015896332
1.6159815e-05
0.00014198745
-2.3178875e-05
4.6418793e-05
-0.0004713716
-2.9140314e-06
0.00039790236
9.2543084e-05
-0.00030873033
9.2698739e-05
-0.00025534
9.3152706e-06
2.5718242e-05
0.00030969945
8.6615963e-05
0.00027540368
4.68072e-05
0.00046620389
2.4981477e-07
-0.00020158693
0.00046920973
-1.053197e-06
-1.7351031e-06
0.00041671265
1.8605374e-05
4.8810639e-05
0.00065579291
1.3081942e-05
-0.00025723189
0.00066545379
-5.6871114e-05
5.045376e-05
0.00055440808
1.1805501e-05
8.2403327e-05
0.00052655899
-1.6256513e-05
6.6632401e-05
0.00066824978
0.000213155
-0.00033355599
0.00084442126
-0.00027517546
6.2220936e-05
0.00080209839
9.0149413e-07
9.8553511e-06
0.00075148318
-1.3196559e-05
5.2514599e-05
0.00066644348
2.3185575e-06
8.2263029e-05
0.00054851045
4.0659514e-05
7.1916866e-05
0.00052436632
-7.2689753e-06
6.0771636e-05
0.00066706555
0.00020500911
-0.00032072363
0.00085284537
-0.00027933542
5.9221122e-05
0.00084022597
-7.8835758e-06
-1.2916741e-05
0.0008274938
-1.8618857e-05
1.8490025e-05
0.0008127777
-1.2845899e-05
2.0684539e-05
0.00079803676
-7.7877872e-06
1.8479238e-05
0.00078447725
-5.153496e-06
1.6001621e-05
0.00077202506
-3.9190301e-06
1.4216409e-05
0.00076151097
-3.6618168e-06
1.2057758e-05
0.00075279851
-3.5340654e-06
1.0430029e-05
0.00074485948
-3.2418823e-06
9.4858284e-06
0.00073811739
-3.0263586e-06
7.9823659e-06
0.00073301123
-2.8313246e-06
6.440803e-06
0.00072844624
-2.6137657e-06
5.7629592e-06
0.00072506257
-2.3043793e-06
4.2782568e-06
0.00072255206
-2.1481465e-06
3.5796169e-06
0.00072112789
-2.1326848e-06
2.2676505e-06
0.00072069517
-1.7795599e-06
1.1532184e-06
0.00072064227
-1.7276598e-06
7.0477153e-07
0.00072182468
-1.7502359e-06
-5.0695493e-07
0.00072346412
-1.500247e-06
-1.0737235e-06
0.00072644718
-1.5120703e-06
-2.4849811e-06
0.00072943002
-1.331152e-06
-2.4830455e-06
0.00073370913
-1.3190747e-06
-3.8925391e-06
0.00073819155
-1.213766e-06
-4.0628996e-06
0.00074390582
-1.2108479e-06
-5.4100954e-06
0.00074966648
-1.0877611e-06
-5.4188982e-06
0.00075619022
-1.141841e-06
-6.2621407e-06
0.0007634289
-8.8737987e-07
-7.0003878e-06
0.00077095927
-8.3219827e-07
-7.4073791e-06
0.00077931256
-7.2019184e-07
-8.1171809e-06
0.00078767804
-5.2169199e-07
-8.211592e-06
0.00079682005
-6.9797358e-07
-8.943531e-06
0.00080631876
-6.5761349e-07
-8.9319266e-06
0.0008158674
-1.2613205e-06
-8.9153136e-06
0.00082532264
-2.1139431e-06
-7.6032611e-06
0.00083412614
-8.6583975e-06
-1.4020037e-06
0.00085248336
-4.6686528e-05
3.6912537e-05
0.00065994919
0.00013296364
-1.5850981e-05
-0.00028319908
0.00022486524
0.00037805999
0.00034022304
-0.00028815034
9.9530611e-05
3.8384289e-05
-6.4547104e-05
0.0002437698
-0.00080945484
0.0003420818
-2.2573341e-05
0.0003877362
-0.00085878367
0.00042907371
-8.1415959e-06
0.00042758663
-0.00089649679
0.00045447841
5.7980346e-07
0.00043719515
-0.00090796713
0.00046205058
8.2553074e-06
0.00043359644
-0.00090097227
0.00045970032
1.9723468e-05
0.00042203371
-0.0008847667
0.00045126484
4.3564943e-05
0.00040262554
-0.00086386798
0.00043740096
0.00011682626
0.00036657383
-0.00085611575
0.0004162806
0.00043017634
0.00024252098
-0.00094066231
0.00038479124
7.2490586e-06
9.1216786e-05
-6.5379401e-05
0.0003970899
-2.3503444e-05
0.00030554777
-3.2274284e-05
-1.1705753e-05
0.0004151054
-6.0329258e-05
-5.3054737e-06
0.00046311394
-6.6888672e-05
-2.5570313e-06
0.00048912377
-6.9838509e-05
-4.5457997e-07
0.00050325142
-7.1757432e-05
2.3348627e-06
0.00050679144
-7.2385732e-05
6.2055528e-06
0.00049444782
-7.0731876e-05
2.8810308e-06
0.00045535969
-6.4298966e-05
0.00039161837
-4.5436924e-05
2.4960711e-05
0.00037540751
-6.7731531e-06
-1.9767026e-06
3.2815488e-05
0.00022500105
-7.9905809e-06
0.00034362684
-0.00012427048
0.00094222323
3.6628029e-05
-0.00041022337
-0.00096340426
-0.00013740564
0.002587108
-0.0008672066
-8.5285636e-06
-0.00054284015
-0.00044062461
-1.6514722e-06
0.0010222307
-0.00058848314
-5.7424371e-06
1.3704365e-05
0.00047485684
-3.3272378e-06
1.7175781e-05
0.0011030777
-6.3872165e-06
-0.00062348511
0.0029455334
-4.5419805e-05
-0.00091221084
4.7531717e-05
0.0031313405
-1.6451491e-05
-0.00021688742
0.0027617508
-0.00018718534
0.0027404333
9.3177113e-05
2.9374426e-05
0.00022968161
0.0006025336
-1.087689e-05
0.00067022569
0.00078215933
-0.0014528395
-1.5710961e-05
0.0006703002
0.00078134594
-0.0014468121
-1.0439761e-05
0.00067087887
-0.0014564256
0.00078027552
-1.3203041e-05
0.00067156062
-0.0014493476
0.00078055027
-8.4904855e-06
0.00067297682
-0.0014585129
0.00078082357
-1.2422273e-05
0.00067370872
-0.0014511203
0.0007813434
-8.7771188e-06
0.00067398904
-0.0014589145
0.00078128027
-1.4149864e-05
0.00067308484
-0.0014484487
0.00078073663
-1.0653278e-05
0.00067180074
-0.001454455
0.00077915762
-1.7481317e-05
0.00066862826
-0.0014375523
0.00077575209
-1.6273173e-05
0.00066453763
-0.0014367398
0.00077099403
-3.2959246e-05
0.00065809874
-0.0014039497
0.00076253707
-0.00010841996
0.00066424269
-0.001344309
0.00075552706
-0.00053786094
0.00074923361
-0.0011455526
0.00082575996
-0.00055484166
0.00029304586
-0.00044622786
0.00017016273
-0.00060062991
9.4216226e-05
-0.00012182232
7.3394342e-05
-0.00010403409
0.00038364282
-0.0014956808
0.00061544215
-5.3631436e-05
0.00057226533
-0.0013463135
0.00072364553
-2.2924504e-05
0.00062727359
-0.0014119599
0.00075397941
-2.3425075e-05
0.00064828578
-0.001413556
0.00076577076
-1.4217237e-05
0.00065733852
-0.0014377017
0.0007711553
-1.7508161e-05
0.00066169057
-0.0014337879
0.00077538822
-1.1370948e-05
0.00066457812
-0.0014480425
0.00077732717
-1.5499191e-05
0.0006661201
-0.001441433
0.00077944117
-1.0452163e-05
0.00066741547
-0.0014527495
0.00078028701
-1.4984209e-05
0.00066810587
-0.0014448143
0.00078124052
-9.7841991e-06
0.00066898307
-0.001455852
0.00078166894
-1.37814e-05
0.00066967693
-0.00144847
0.0007827903
-9.4702847e-06
0.00067134212
-0.0014604243
0.00078477105
-1.8116937e-05
0.00067378796
-0.0014532272
0.00078808585
-1.6500565e-05
0.000674591
-0.0014657911
0.00078958372
-2.8253279e-05
0.00067354802
-0.0014506919
0.0007888966
-2.1982153e-05
0.00067290197
-0.0014651697
0.00078599663
-3.1551255e-05
0.00066959705
-0.0014419879
0.00078195995
-2.4791249e-05
0.00066707326
-0.0014512839
0.00077745066
-4.449856e-05
0.00066179443
-0.0014123768
0.00077028967
-0.00011707893
0.00066918973
0.00076395584
-0.0013605652
-0.00055043069
0.00075371338
-0.0011537689
0.00083340729
-0.00056547337
0.00028962912
-0.00044077669
0.00016619024
-0.00061753076
9.2841012e-05
-0.00011146957
7.068595e-05
-0.00011101827
0.0003901629
0.00062678722
-0.0015234626
-6.307902e-05
0.00058224312
0.00073772325
-0.0013679056
-2.8870575e-05
0.0006386036
0.00076951468
-0.0014423267
-3.41227e-05
0.00066008352
0.00078168823
-0.0014365196
-2.1646536e-05
0.00066931786
0.0007869772
-0.0014687712
-2.9310321e-05
0.00067246591
0.00079000937
-0.0014548115
-1.9021975e-05
0.00067393733
0.00079064873
-0.0014748744
-2.8280058e-05
0.00067347746
0.00079108507
-0.0014553044
-2.4654881e-05
0.0006729535
-0.0014671737
0.00079059499
-5.0541141e-05
0.00066843682
-0.0014278491
0.00078529851
-0.00012482198
0.00067544628
-0.0013794482
0.00077828277
-0.0005634547
0.000759063
-0.0011663745
0.0008459442
-0.00057666036
0.00028770947
-0.00043998235
0.00016547854
-0.00063340218
9.1263879e-05
6.9855793e-05
-0.00010437786
-0.00011779881
0.00039635833
0.0006392139
-0.0015511756
-7.3189877e-05
0.00059036028
0.00075091922
-0.0013858884
-3.5189377e-05
0.00064630135
0.00078211187
-0.0014664137
-4.5513301e-05
0.00066525667
0.00079151758
-0.0014464503
-3.2782455e-05
0.00067162838
0.00079487728
-0.0014792365
-6.1425853e-05
0.00067123608
0.00079269447
-0.0014352871
-0.00013084286
0.00067981992
0.00078828664
-0.0013986896
-0.00057636719
0.00076184213
0.00085688141
-0.0011731992
-0.00058843786
0.00027640897
-0.00041823237
0.00015389407
-0.00064945474
7.7912927e-05
-7.0519655e-05
5.3623608e-05
-0.00015083177
0.00039058995
0.00063504681
-0.00015466109
0.00057537484
0.0007391479
-0.0001892311
0.00064384994
0.00077041972
0.00075769898
0.00087100323
0.0037672993
0.00031819016
0.0040147202
0.0023570504
-0.00028092501
0.002959308
0.00015793668
0.00093097965
0.0027078218
0.0010121017
0.00021592532
0.0010613218
0.0022532284
0.00016116599
0.00076083894
-0.00011656783
0.00082511327
0.00016667622
0.00093944513
0.00070140203
-6.7232376e-05
0.00014669588
2.0243702e-05
-6.3177146e-05
0.000149305
3.0808841e-05
-8.6503065e-06
3.4228747e-05
0.00012845669
0.00013403278
-0.00015386805
1.1184969e-05
-8.1364174e-05
-0.00011127211
2.7531297e-05
0.00029913777
-0.00012567905
-0.00010610373
0.00029240606
-7.3807858e-05
1.2860965e-05
-6.4732161e-05
9.7145042e-06
-1.378287e-05
6.3083859e-06
1.7188989e-05
2.4598451e-05
7.9430972e-05
3.5859802e-05
-0.0001536721
4.2362362e-05
3.4963268e-05
-1.6669037e-05
1.6246657e-05
0.00012221571
2.7506095e-05
-2.6622403e-06
-5.6530894e-06
-2.7387713e-05
-6.0652847e-05
-1.3904053e-05
3.8511152e-05
3.0392659e-05
2.8147946e-05
0.00010135367
5.1905851e-05
-0.00024206031
-1.2549083e-05
2.6792976e-05
3.1335892e-05
6.6420529e-06
-1.4925753e-05
-2.6499315e-05
-4.060422e-05
0.00015742479
-8.5556308e-06
-6.8833139e-05
-9.804964e-06
3.299631e-05
3.7086162e-05
2.8530519e-05
5.5504e-05
0.00010790562
-0.00026077328
3.5283689e-05
1.7670613e-05
4.5167273e-05
2.3112726e-05
0.00020115526
0.00037279521
-0.00010391468
-6.7725266e-05
-6.3805157e-05
2.8197962e-05
0.00040295501
5.4473966e-06
-6.6962867e-05
0.00030453382
-2.2383414e-06
5.2924423e-05
0.00018955684
-1.7038066e-05
-0.00030009375
0.00018375079
0.00022513191
-5.5864524e-05
0.00056422997
-0.00046617155
0.00065475505
9.2172519e-05
0.00055829933
2.7901587e-05
8.7159505e-05
0.0007664223
-0.00048490524
0.00028986421
0.00080961426
0.00014597901
-0.00024604209
0.00072787628
1.6595764e-05
7.6947722e-05
0.00059938692
-2.0890086e-05
0.00013312293
0.00020333843
0.00029295464
-1.4333964e-05
0.00011742782
0.0002575435
-0.00011622554
0.00083199971
7.1709342e-05
-0.00035321091
0.00085383579
-1.6718404e-05
-4.2161871e-06
0.00080064087
-1.7036945e-05
5.7035309e-05
0.00072207249
3.4897192e-06
7.7397223e-05
0.00066715245
1.3928488e-05
8.165106e-05
0.00054919301
-1.1298046e-06
0.00011182027
0.00020081569
0.00026767156
-2.3247301e-05
0.00010395306
0.00024315372
-0.00011666434
0.00084450813
8.6104784e-06
-0.00034229333
0.00090030996
-2.523564e-05
-3.8449762e-05
0.00088784317
-2.5874548e-05
1.9722476e-05
0.00086855171
-1.8061774e-05
2.4507339e-05
0.00084908591
-1.0624802e-05
2.230281e-05
0.00083008158
-6.3227301e-06
2.0173568e-05
0.00081308953
-4.9343491e-06
1.8007371e-05
0.00079863276
-4.7776767e-06
1.5572625e-05
0.00078631561
-4.7940101e-06
1.3577093e-05
0.00077505211
-4.3139697e-06
1.2335588e-05
0.00076581052
-4.1303841e-06
1.0345619e-05
0.0007586375
-3.9312637e-06
8.2729602e-06
0.00075198857
-3.3529033e-06
7.3880648e-06
0.00074734608
-3.123171e-06
5.4612831e-06
0.0007438287
-2.9696776e-06
4.3389073e-06
0.00074136968
-2.6506125e-06
2.9769519e-06
0.00074095686
-2.4318037e-06
1.06506e-06
0.00074067395
-2.0700427e-06
6.2530033e-07
0.00074174818
-2.1386101e-06
-6.8585487e-07
0.00074384813
-1.7913385e-06
-1.8088653e-06
0.00074753679
-1.8262217e-06
-3.3745109e-06
0.00075134975
-1.5237743e-06
-3.620333e-06
0.00075679067
-1.5523072e-06
-5.2076867e-06
0.00076258388
-1.3190959e-06
-5.6878821e-06
0.00076999457
-1.3633834e-06
-7.2581487e-06
0.00077745782
-1.1172159e-06
-7.4337982e-06
0.00078569447
-1.0894675e-06
-8.2890232e-06
0.00079528997
-9.7364483e-07
-9.5092332e-06
0.0008052562
-7.9878076e-07
-9.9996502e-06
0.000816095
-7.9982925e-07
-1.0759162e-05
0.00082739178
-6.4951342e-07
-1.1168958e-05
0.00083936918
-8.2599636e-07
-1.1849377e-05
0.0008524219
-1.3307524e-06
-1.237958e-05
0.00086540857
-2.2722358e-06
-1.1975759e-05
0.0008787077
-4.9209828e-06
-1.0492087e-05
0.00088631611
-1.627325e-05
6.4407796e-09
-4.1399807e-05
7.1574549e-05
-0.00092912118
-2.406977e-05
5.3007467e-05
-0.00092847468
-1.266455e-05
-4.2551938e-06
-0.00091335241
-6.4520298e-06
-1.3591228e-05
-0.0008975966
-3.3523566e-06
-1.4675684e-05
-0.00088245283
-1.9533108e-06
-1.452122e-05
-0.00086799765
-1.3356684e-06
-1.3945499e-05
-0.00085465537
-1.0480819e-06
-1.2943721e-05
-0.00084208636
-1.0368886e-06
-1.233195e-05
-0.00083010577
-1.1156389e-06
-1.1663727e-05
-0.00081898207
-1.2325745e-06
-1.0864769e-05
-0.00080928772
-1.3108102e-06
-9.4730055e-06
-0.00080049761
-1.3628421e-06
-8.5444902e-06
-0.00079196197
-1.7273794e-06
-8.1716387e-06
-0.00078512454
-1.6410016e-06
-6.5155289e-06
-0.00077902517
-2.0247465e-06
-5.6269325e-06
-0.00077453177
-1.9373587e-06
-4.0798073e-06
-0.00077056371
-2.317281e-06
-3.4770098e-06
-0.00076798337
-2.4068944e-06
-1.9647818e-06
-0.00076736991
-2.5713678e-06
-1.8069991e-07
-0.00076744791
-2.8404747e-06
8.4842783e-07
-0.00076855605
-3.2531042e-06
1.9294435e-06
-0.00077173141
-3.457328e-06
3.9820772e-06
-0.00077678174
-3.7982783e-06
5.8789299e-06
-0.00078240118
-4.354574e-06
6.850841e-06
-0.00079048705
-4.4704425e-06
9.2034162e-06
-0.00080010751
-5.085804e-06
1.0774994e-05
-0.00081133142
-5.7017957e-06
1.2795319e-05
-0.00082513789
-5.7140371e-06
1.5206542e-05
-0.00084101722
-5.977759e-06
1.7063073e-05
-0.0008587974
-5.912693e-06
1.8915202e-05
-0.00087976886
-5.5977582e-06
2.1634865e-05
-0.00090388704
-5.9106272e-06
2.3706079e-05
-0.00093014676
-1.0189376e-05
2.5824292e-05
-0.00095249926
-2.3427895e-05
2.7718628e-05
-0.0009586929
-4.6689329e-05
2.7008421e-05
-0.00089303067
-7.7739423e-05
-1.3158447e-05
-0.00038822007
-7.9854197e-05
-0.00041634592
-0.00052175715
9.2818153e-06
0.00010100797
-0.0006691808
5.5401559e-05
9.0892282e-05
-0.00077753831
3.5021491e-05
8.7264508e-05
-0.00086425432
9.7972095e-06
8.040852e-05
-0.00094515172
3.3595938e-05
3.0264515e-05
-0.00081346796
-0.00026036402
0.00011196186
-0.00052934787
0.00029845757
-0.00051086832
-0.00065915398
-3.3535054e-05
0.0001490072
-0.00078901628
-1.7994478e-05
0.0001269667
-0.00082430386
-1.5965476e-06
5.3479886e-05
-0.00029344751
8.9596068e-05
-0.00034599227
-0.00027446015
-0.00057132073
1.6647867e-05
9.4386328e-05
0.00016683902
-0.00063925614
5.1486082e-05
4.4350912e-05
8.5131132e-05
-0.00030969852
0.00068007291
9.113063e-05
-0.00038153859
0.00063803481
2.8373693e-05
6.5150496e-05
0.00051601644
-8.6685907e-06
0.00014733483
0.00079744929
-0.00049068439
0.00029884761
0.00088344011
0.00016343714
-0.00025102451
0.00074816943
2.5887256e-05
9.1388953e-05
0.00058671235
-1.6776499e-05
0.00014469852
0.00018707932
0.0003055072
-1.1025339e-05
0.00010515117
0.00030094593
-7.5773058e-05
0.00089404808
8.151526e-05
-0.00036911021
0.00090382841
4.6786169e-06
1.9136995e-05
0.00080831042
6.1432363e-06
9.9171957e-05
0.00069118534
3.7351381e-05
0.0001147952
0.000396817
0.00025839846
9.1371438e-05
0.00027796984
7.0938814e-05
5.719016e-05
0.0010153199
-0.0004148582
-0.0004023461
0.0010195654
-0.0001086103
2.6625409e-05
0.0010079163
-7.0487416e-05
3.5447229e-05
0.00097839539
-2.0962434e-05
2.7055415e-05
0.00094548521
-1.6912561e-06
2.4412058e-05
0.00091769091
-3.4399765e-06
2.5323652e-05
0.00089380769
-5.834189e-06
2.4119651e-05
0.00087341287
-7.0394866e-06
2.1521615e-05
0.00085541463
-7.450987e-06
1.9471463e-05
0.00084028097
-7.5624586e-06
1.6982088e-05
0.00082687791
-7.2924579e-06
1.4993719e-05
0.00081586496
-6.7157376e-06
1.2642883e-05
0.00080718785
-6.1345677e-06
1.0341234e-05
0.00079991625
-5.6407746e-06
8.5578049e-06
0.00079409945
-5.0682117e-06
7.0867267e-06
0.00079043038
-4.6696343e-06
4.8813765e-06
0.00078847473
-4.2816103e-06
2.9841589e-06
0.00078804372
-4.0105451e-06
1.6010777e-06
0.00078860489
-3.5463218e-06
4.1378895e-07
0.00079123449
-3.3730476e-06
-1.6634463e-06
0.00079483127
-3.0503716e-06
-2.8636916e-06
0.00079992977
-2.9421688e-06
-4.0936938e-06
0.00080591697
-2.7863772e-06
-5.2255678e-06
0.00081352375
-2.4597015e-06
-6.7880726e-06
0.00082223947
-2.4032609e-06
-8.0398413e-06
0.00083187105
-2.1225752e-06
-8.8718435e-06
0.00084222324
-1.9402277e-06
-9.7227802e-06
0.00085410171
-1.870874e-06
-1.1240173e-05
0.00086701191
-1.867083e-06
-1.2158746e-05
0.00088060708
-1.76585e-06
-1.2866212e-05
0.00089497109
-1.7987853e-06
-1.3613305e-05
0.00091046363
-2.0480009e-06
-1.4780213e-05
0.00092669014
-2.5237467e-06
-1.5656067e-05
0.0009428694
-3.4148352e-06
-1.6116788e-05
0.00095715844
-5.0380008e-06
-1.5703071e-05
0.00095973097
-7.3489798e-06
-7.8880942e-06
-1.0029865e-05
4.919427e-05
-0.00096681408
4.8841189e-05
-2.4101038e-08
-0.00096433537
-8.9004291e-06
-9.2726819e-07
-0.00095117061
-1.7187899e-06
-1.6483966e-05
-0.00093576193
-2.2213382e-06
-1.6602178e-05
-0.00091975706
-2.5430938e-06
-1.5985523e-05
-0.00090427488
-2.5965731e-06
-1.4933605e-05
-0.00088978925
-2.6262833e-06
-1.3658131e-05
-0.00087604799
-2.6638981e-06
-1.2843214e-05
-0.00086305356
-2.7635874e-06
-1.2097921e-05
-0.00085086771
-2.8259269e-06
-1.1230803e-05
-0.00084045662
-2.820776e-06
-9.5305386e-06
-0.00083085722
-3.0619172e-06
-8.6600572e-06
-0.00082222111
-3.3241039e-06
-7.7152711e-06
-0.00081458346
-3.4017927e-06
-6.6955553e-06
-0.00080882914
-3.8063926e-06
-4.7343079e-06
-0.00080424733
-3.8956215e-06
-3.628359e-06
-0.00080056739
-4.0814234e-06
-2.6488868e-06
-0.00079835826
-4.4837231e-06
-1.0984557e-06
-0.00079791869
-4.792794e-06
8.0690734e-07
-0.00079921181
-5.2216003e-06
2.5041735e-06
-0.00080145469
-5.4930144e-06
3.4542845e-06
-0.00080563422
-6.0993714e-06
5.609269e-06
-0.00081205385
-6.5102644e-06
7.8616775e-06
-0.00082011708
-7.2645155e-06
9.6869764e-06
-0.00082977015
-7.8637021e-06
1.13822e-05
-0.00084156973
-8.5751958e-06
1.3659037e-05
-0.00085601337
-9.2495988e-06
1.6400788e-05
-0.00087244841
-9.6229477e-06
1.8495529e-05
-0.00089153206
-9.1703893e-06
2.0803049e-05
-0.00091335925
-8.445716e-06
2.3233422e-05
-0.00093862136
-6.4863613e-06
2.5914275e-05
-0.00096617171
-2.5610765e-06
2.667145e-05
-0.00099894979
1.1489391e-05
1.9597435e-05
-0.0010844256
8.9427846e-05
-2.4914453e-05
-0.0010291851
6.7600913e-05
-0.00019332885
-0.0012649984
9.8801874e-05
2.8401111e-05
-0.0009898173
0.00072136685
7.0102382e-05
-0.00033463688
-0.00095185153
-0.0004042726
-4.5038988e-05
0.00066914968
-0.00070826368
0.00055383641
-4.7107201e-05
-0.00078828283
-0.00083772745
1.2182403e-05
-2.5062794e-05
0.00014234417
-0.00088083095
3.9664317e-05
-5.2604428e-05
5.6043601e-05
-0.00029155403
5.537414e-05
-0.00035146638
-0.00029318467
-0.00056548179
-1.7861691e-05
0.0001051939
0.00018659556
-0.00072475645
-2.6931608e-05
0.00015005006
3.6156197e-05
-0.00083519586
-2.5707399e-05
0.00012742974
8.7170761e-06
-0.0008703383
-1.3689908e-05
-2.6967754e-05
7.5800098e-05
-0.00045136271
6.9484932e-05
-6.0638577e-05
-0.00042782195
-0.00060334352
2.4927496e-05
6.6465089e-08
0.00012698685
-0.00061085591
3.9662676e-05
-5.1618221e-05
1.9467941e-05
-0.00019584466
9.5021676e-05
-0.00022009185
-0.00028994108
-0.00043873329
5.9242218e-05
0.00010565787
7.7988532e-05
-0.00033691003
4.9906087e-05
-0.00015172934
-0.00032670791
1.799584e-05
-9.4413718e-05
-8.5598308e-05
-4.9023397e-05
2.0676683e-05
-3.3929873e-05
-3.5770208e-05
-2.631511e-05
-3.8606514e-05
-3.0526929e-05
-0.00011164802
-2.3839997e-05
0.00013969983
-1.0736216e-05
-3.8153525e-05
-2.112174e-05
7.2644911e-06
5.8851825e-05
-0.00022977511
6.5061114e-06
4.7278124e-05
3.2402601e-05
1.2209939e-05
0.00018005997
2.1579826e-05
0.00023681898
-0.00072147512
-7.7456805e-05
0.0007205931
2.8894724e-05
0.00017853933
-0.00075764538
0.00072921594
1.3340104e-05
0.00021449924
-0.00073655593
0.00065982702
-3.5670798e-05
0.00020069813
-0.00052531569
-0.00012323276
-2.8095841e-05
4.5849463e-05
6.9808337e-05
4.5163502e-05
5.5408186e-05
-0.00033900552
0.00011520108
6.5273114e-07
6.3222131e-05
-1.1428553e-05
6.748947e-05
-0.00036824186
0.0003541154
-0.00055667203
0.00021832924
8.1582392e-05
-0.0014913674
0.00087640691
0.00013590955
0.0002228146
-0.001560904
0.00031340031
1.4219443e-05
-0.0026696634
0.00058722929
0.0012785285
0.0041189327
0.0026061621
0.010119507
-4.383152e-05
-2.5678279e-06
0.010159399
-3.5937025e-05
-3.9551591e-06
0.010191534
-2.6915382e-05
-5.2200036e-06
0.010215085
-1.7211115e-05
-6.3391325e-06
0.010229582
-7.220962e-06
-7.2765224e-06
0.010234799
2.8680362e-06
-8.0853348e-06
0.010231859
1.1420419e-05
-8.4796158e-06
0.010220941
1.9772636e-05
-8.8550528e-06
0.010202542
2.7486543e-05
-9.0871088e-06
0.010177372
3.4360107e-05
-9.1901622e-06
0.01014638
4.0187928e-05
-9.196477e-06
0.010110664
4.4829914e-05
-9.1134406e-06
0.010071417
4.8191853e-05
-8.9448386e-06
5.021988e-05
-8.7058094e-06
-0.010620965
0.00010412275
-9.3951456e-06
-0.010663047
9.9940183e-05
-9.6661387e-06
-0.010701274
9.2912892e-05
-9.8559729e-06
-0.010734316
8.3176875e-05
-9.9473692e-06
-0.010760989
7.098192e-05
-9.9490962e-06
-0.010780339
5.6668382e-05
-9.8313925e-06
-0.010791612
4.0639488e-05
-9.5937525e-06
-0.010794206
2.3217084e-05
-9.2027736e-06
-0.010787832
5.1611281e-06
-8.6673842e-06
-0.010772283
-1.4854144e-05
-7.9160335e-06
-0.010747175
-3.5357748e-05
-6.9605185e-06
-0.010712849
-5.5443016e-05
-5.7988862e-06
-0.010670179
-7.4155731e-05
-4.4509411e-06
-9.0505972e-05
-2.9523582e-06
0.011512632
-0.00014188947
-3.0799342e-06
0.011559522
-0.00011615098
-4.8951643e-06
0.011597272
-8.6685218e-05
-6.5073893e-06
0.011625011
-5.5217311e-05
-7.8798793e-06
0.011642626
-2.3459679e-05
-9.0094707e-06
0.011650404
7.2958869e-06
-9.9130568e-06
0.011648523
3.5673146e-05
-1.0575043e-05
0.011637302
6.2933304e-05
-1.1072628e-05
0.011617083
8.8331466e-05
-1.144346e-05
0.011588429
0.00011130535
-1.1669403e-05
0.011552283
0.0001310725
-1.1749738e-05
0.011510011
0.00014687353
-1.1689364e-05
0.011463283
0.00015815617
-1.1487245e-05
0.00016465176
-1.1167193e-05
-0.012285719
0.00023245867
-1.241072e-05
-0.012338412
0.0002237246
-1.2875289e-05
-0.012385841
0.00020750177
-1.3199841e-05
-0.012425628
0.00018421793
-1.3358139e-05
-0.012455984
0.0001549827
-1.3321155e-05
-0.012476072
0.00012151759
-1.3098037e-05
-0.012485965
8.5526368e-05
-1.2700539e-05
-0.012486078
4.7930417e-05
-1.2143588e-05
-0.012476342
8.9963767e-06
-1.1436829e-05
-0.012456447
-3.2839618e-05
-1.0515293e-05
-0.012425807
-7.650935e-05
-9.3474174e-06
-0.012384289
-0.00012026051
-7.9428225e-06
-0.012332778
-0.0001614377
-6.2247103e-06
-0.00019733438
-4.1920817e-06
0.012865157
-0.00025475723
-6.3823376e-06
0.012920637
-0.00020836931
-8.54819e-06
0.012965341
-0.00015461831
-1.034623e-05
0.012998345
-9.7832728e-05
-1.1680135e-05
0.013020309
-4.2158954e-05
-1.2644786e-05
0.013032792
9.8631096e-06
-1.3349669e-05
0.013036513
5.8146034e-05
-1.3936797e-05
0.013030932
0.00010556475
-1.4457405e-05
0.013013599
0.00015367489
-1.4824515e-05
0.012982694
0.00020077977
-1.4892138e-05
0.012938837
0.00024271157
-1.4636612e-05
0.012884984
0.00027550278
-1.4148091e-05
0.01282503
0.00029718967
-1.3511341e-05
0.00030745345
-1.27638e-05
-0.013021736
0.00039103855
-1.3209654e-05
-0.013091258
0.00038115161
-1.4440489e-05
-0.01315441
0.00035438734
-1.5732277e-05
-0.013204255
0.00030952607
-1.6969443e-05
-0.013234589
0.00024879495
-1.7681165e-05
-0.013244722
0.0001813413
-1.7533833e-05
-0.013240752
0.00011842726
-1.6831827e-05
-0.013230005
6.357318e-05
-1.6174459e-05
-0.013214302
9.8682589e-06
-1.5708684e-05
-0.0131913
-4.9862341e-05
-1.5298561e-05
-0.013157299
-0.00011720843
-1.4625087e-05
-0.013110444
-0.00018796953
-1.3503461e-05
-0.013051673
-0.00025535135
-1.178907e-05
-0.00031229154
-9.3683636e-06
0.012988812
-0.00036991628
-1.3513339e-05
0.013051213
-0.00030176395
-1.5988925e-05
0.013099226
-0.00021832088
-1.7661124e-05
0.013132129
-0.00013153825
-1.857334e-05
0.013153664
-5.2483359e-05
-1.8914243e-05
0.013171108
1.1185394e-05
-1.8761595e-05
0.013191706
6.1589201e-05
-1.8613824e-05
0.013214217
0.00011552824
-1.9611519e-05
0.013220119
0.00019785296
-2.241369e-05
0.013191035
0.00030233794
-2.4459028e-05
0.013129655
0.00039409096
-2.3184985e-05
0.013051504
0.00045221345
-1.9675026e-05
0.012968626
0.00048050368
-1.6474551e-05
0.00048624523
-1.4213641e-05
-0.012780573
0.00059581405
-1.4863347e-05
-0.012879753
0.00059874829
-1.9064602e-05
-0.012979793
0.00058005228
-2.7798358e-05
-0.013068418
0.00052345115
-4.0735604e-05
-0.013105888
0.00038444772
-4.4639389e-05
-0.013071158
0.00019505212
-3.1929185e-05
-0.013016909
8.1388964e-05
-2.0110075e-05
-0.012989775
5.4507236e-05
-2.0052437e-05
-0.012977617
2.2013188e-05
-2.2985526e-05
-0.01296262
-4.2865163e-05
-2.4615511e-05
-0.012933913
-0.00013506176
-2.5183028e-05
-0.012885975
-0.00024133091
-2.4928303e-05
-0.01281831
-0.00034573053
-2.3697817e-05
-0.00042976619
-2.1775316e-05
0.012510509
-0.00048447551
-4.6461165e-05
0.012583892
-0.00037376915
-4.5344995e-05
0.012629389
-0.00024388103
-4.2946977e-05
0.012649872
-0.00011641893
-3.9125128e-05
0.012651508
-9.8735088e-06
-3.4628369e-05
0.012644803
5.7814953e-05
-2.9096694e-05
0.012649572
6.9229159e-05
-1.949077e-05
0.01272427
1.1340358e-05
-4.6493898e-06
0.012933676
5.3626228e-05
-6.7980157e-05
0.012886467
0.00057497184
-0.00014331537
0.012773206
0.00073648844
-9.9775643e-05
0.012654162
0.000737211
-3.8114745e-05
0.012542555
0.00073073891
-2.0383632e-05
0.0007175816
-1.4263113e-05
-0.012127817
-1.1046602e-05
-0.012222175
-6.4906497e-06
-0.012351664
-1.6778149e-05
-0.012375598
-0.0001446263
-0.012544628
0.0016954937
-0.00095149113
-0.01171874
-0.0013685634
0.00048486445
0.00011143697
-0.011815543
-0.0012410765
0.0012715451
7.7674874e-05
-0.011866688
-0.0012405677
0.0013551975
5.7437465e-06
-0.011897208
-0.0012604683
0.0013681194
-1.9315538e-05
-0.011910883
-0.0013007623
0.0013483625
-4.3798979e-05
-0.011901881
-0.0013557113
0.0013047042
-7.4413522e-05
-0.011865839
-0.0014176068
0.001246065
-0.00010838138
-0.011797504
-0.0014785783
0.0011781528
-0.00014167853
-0.0015302015
0.0011058999
-0.00017040065
0.01001144
-0.00037565588
0.0012581159