/*--------------------------------*- C++ -*----------------------------------*\
| =========                 |                                                 |
| \\      /  F ield         | OpenFOAM: The Open Source CFD Toolbox           |
|  \\    /   O peration     | Version:  v2012                                 |
|   \\  /    A nd           | Website:  www.openfoam.com                      |
|    \\/     M anipulation  |                                                 |
\*---------------------------------------------------------------------------*/
FoamFile
{
    version     2.0;
    format      ascii;
    class       volVectorField;
    location    "100";
    object      U;
}
// * * * * * * * * * * * * * * * * * * * * * * * * * * * * * * * * * * * * * //

dimensions      [0 1 -1 0 0 0 0];


internalField   nonuniform List<vector> 
15114
(
(4.5727023 0.076737806 -0.060410304)
(4.3045098 0.12284664 -0.05179058)
(3.9010764 0.19426904 -0.14466858)
(3.0523534 0.13013121 -0.16493859)
(2.3257174 0.66959353 -0.23191773)
(2.5205224 1.4053466 -0.21718628)
(3.5957154 2.0971323 -0.056004614)
(4.0030754 2.1807509 -0.026203776)
(4.4051683 2.0887418 0.0050729273)
(4.7723432 1.8423239 0.0082609458)
(4.933261 1.7577438 0.013819971)
(5.1080345 1.6203455 0.020991442)
(5.2154919 1.4574136 0.020484762)
(5.3279685 1.294153 0.0099385422)
(5.3958682 1.2303554 0.010572595)
(5.4763121 1.1367895 0.013210466)
(5.5328626 1.0499331 0.013814129)
(5.5775177 0.95554333 0.013246693)
(5.6137258 0.87845141 0.014703503)
(5.6432647 0.79612955 0.014267802)
(5.6810181 0.73081218 0.010548382)
(5.7021804 0.68826461 0.0092458302)
(5.7318961 0.63367974 0.0089367615)
(5.7532212 0.57639758 0.0091024418)
(5.7673807 0.52028696 0.0098128509)
(5.7791158 0.46890438 0.0086051817)
(5.7907423 0.42037392 0.007562843)
(5.8017303 0.37434542 0.0073596012)
(5.8082104 0.32533333 0.0077465089)
(5.8107036 0.2834889 0.00664659)
(5.8172335 0.24711356 0.0058849983)
(5.8203073 0.20373688 0.0067590586)
(5.8168959 0.16809839 0.0057260815)
(5.819121 0.13725936 0.0051606612)
(5.8179818 0.098993856 0.0056057411)
(5.8147598 0.072257462 0.0042243938)
(5.8117766 0.039326126 0.0048780408)
(5.8053634 0.011494094 0.004131556)
(5.8013923 -0.013790211 0.0042354881)
(5.7946973 -0.042383542 0.0042250968)
(5.7895411 -0.063154876 0.0033776429)
(5.7812644 -0.091708412 0.0036812699)
(5.7748741 -0.10896105 0.002907868)
(5.7658636 -0.13599452 0.0032620637)
(5.7579376 -0.15149706 0.0025436521)
(5.7484705 -0.17612019 0.0029108917)
(5.7393852 -0.19086327 0.0023366658)
(5.7303432 -0.21178015 0.0027773205)
(5.7197446 -0.22740425 0.0018691014)
(5.710505 -0.24452964 0.0020967571)
(5.6981633 -0.26174806 0.0015139661)
(5.6890496 -0.27449258 0.0011352638)
(5.6760876 -0.29270256 0.0016951658)
(5.6670418 -0.30216342 0.00030400344)
(5.6550928 -0.32056966 0.0020148693)
(5.6417119 -0.33129346 0.00097616453)
(5.6297444 -0.34544246 0.0013292845)
(5.616211 -0.35837765 0.0018690957)
(5.6022996 -0.37160674 0.00097927113)
(5.5873581 -0.38557126 0.00047398342)
(5.5731585 -0.3955515 0.0023600412)
(5.5554639 -0.4064364 0.0026264715)
(5.5365493 -0.4177685 0.0017255972)
(5.5198188 -0.42917279 0.00093759774)
(4.4907962 0.076856722 -0.072341357)
(4.1386372 0.11321892 -0.1300913)
(4.1256114 0.13974373 -0.1610663)
(3.7924125 0.17498931 -0.19792592)
(3.3856537 0.14747165 -0.21793477)
(2.9089002 0.12215813 -0.16609733)
(2.2912682 0.19358197 -0.2202706)
(2.3869114 0.14022801 -0.68263227)
(3.2238645 0.049239237 -0.46759759)
(3.2872624 0.12219916 -0.32195723)
(2.7642124 0.095956103 -0.50037053)
(2.870527 0.09231795 -0.49360938)
(3.2008677 0.10150289 -0.6243516)
(3.415256 0.11738312 -0.55084289)
(3.2928972 0.16688702 -0.60689326)
(2.9528182 0.25833915 -0.89472338)
(2.6624858 0.29167314 -0.88653433)
(2.3129944 0.26260932 -0.93002508)
(2.0936011 0.1487377 -0.8864012)
(2.1638728 0.2451083 -0.86605297)
(1.908362 0.90707148 -1.2795983)
(2.5263412 1.6715915 -0.42225149)
(2.2817338 0.5137955 -0.72674817)
(1.838659 0.41042613 -0.81096382)
(2.1094829 0.69004969 -0.41908719)
(2.4116494 1.3025519 -0.33397293)
(3.3519467 2.0804838 -0.1237481)
(4.0066034 2.2638946 -0.050814845)
(4.4160126 2.1839764 0.0059353753)
(4.7714823 1.9057976 -0.0026952796)
(4.9257655 1.8339463 0.015698721)
(5.1264968 1.6944769 0.031464412)
(5.2597077 1.4956486 0.036686975)
(5.3446905 1.3319198 0.030209906)
(5.3914771 1.2704209 0.027618704)
(5.4770315 1.1806366 0.028487779)
(5.5422953 1.0873495 0.030181052)
(5.5885194 0.98548487 0.030317863)
(5.6267974 0.90355943 0.031436589)
(5.6584605 0.81030337 0.033165082)
(5.6920454 0.74527542 0.030322507)
(5.705504 0.70566075 0.026236608)
(5.7360622 0.65301509 0.025114149)
(5.7590828 0.59270654 0.025496736)
(5.7739019 0.54023219 0.025042308)
(5.7874371 0.48534089 0.022141807)
(5.7978862 0.43454667 0.019867172)
(5.8072647 0.38700344 0.018475799)
(5.8138773 0.33974235 0.018463685)
(5.8171451 0.29419042 0.017049425)
(5.8217467 0.25610517 0.015586269)
(5.8246539 0.21494288 0.015910648)
(5.8221408 0.17634637 0.014421885)
(5.8226858 0.14438321 0.013649683)
(5.8221813 0.10839866 0.013384804)
(5.8184753 0.077609468 0.011448657)
(5.8148153 0.046599406 0.012277495)
(5.8082771 0.015769726 0.010299989)
(5.8035487 -0.0083725952 0.010311355)
(5.7977198 -0.036440562 0.010597022)
(5.7920258 -0.058845722 0.0088517929)
(5.7836312 -0.086651498 0.0091528289)
(5.7769048 -0.10541654 0.0078061119)
(5.7678978 -0.13142026 0.0081019276)
(5.7596379 -0.14837399 0.0069553557)
(5.7500887 -0.17214699 0.0072880286)
(5.7406069 -0.18797051 0.0063817258)
(5.7322077 -0.20723691 0.007090757)
(5.7211018 -0.22518885 0.0053061253)
(5.7116987 -0.24116476 0.0054106144)
(5.7001119 -0.2590202 0.0047308137)
(5.6896191 -0.27264608 0.003853261)
(5.6786196 -0.28837386 0.0048753083)
(5.6675968 -0.30198632 0.0026250378)
(5.6560203 -0.3162715 0.0050197789)
(5.6436303 -0.32927404 0.0031169679)
(5.6304262 -0.34264671 0.0031168147)
(5.6189599 -0.35432446 0.0031219502)
(5.603893 -0.36890987 0.0017032698)
(5.5972854 -0.37215177 0.00083928209)
(5.6024793 -0.37234686 0.00075682801)
(5.6125984 -0.35973723 0.0024304803)
(5.6138456 -0.35682951 0.003161192)
(5.6147257 -0.35214745 0.0061286526)
(5.6145853 -0.34809219 0.010096298)
(5.6139019 -0.34533881 0.013398032)
(5.6134634 -0.34212997 0.016719655)
(5.6136067 -0.33891122 0.020312252)
(5.614276 -0.33775711 0.024813043)
(5.6137524 -0.33761348 0.02692666)
(5.608183 -0.34463543 0.028407074)
(5.6065699 -0.35154751 0.027361945)
(5.6050884 -0.35369184 0.02436225)
(5.6040093 -0.35600858 0.019704535)
(5.6035521 -0.35802842 0.015917393)
(5.6032938 -0.36091835 0.013019607)
(5.6035434 -0.36428592 0.0095209954)
(5.6044885 -0.36674948 0.005472873)
(5.6046179 -0.36967194 0.0032361263)
(5.6024337 -0.37481601 0.0030454972)
(5.5902629 -0.38336738 0.0039452507)
(5.5922696 -0.38437389 0.0014557081)
(5.5920431 -0.38292747 0.0028809042)
(5.5876193 -0.38718397 0.0058380611)
(5.5748198 -0.39503529 0.0043691339)
(5.5868229 -0.38743873 0.0032083559)
(5.5867311 -0.38621166 0.0050541262)
(5.5918005 -0.38168052 0.0033020238)
(5.5902623 -0.37873028 0.0057430533)
(5.5856881 -0.38238537 0.0051961292)
(5.573557 -0.39233178 0.0065972827)
(5.5550364 -0.40348859 0.0064479245)
(5.555722 -0.40601456 0.0043846565)
(5.5358897 -0.4177068 0.0038885745)
(5.516821 -0.42936361 0.0041257409)
(5.5000948 -0.41357119 0.031857715)
(5.5014572 -0.41137746 0.035031548)
(5.5015681 -0.4090166 0.035991006)
(5.5021995 -0.40715508 0.038978465)
(5.5021156 -0.4058147 0.040189681)
(5.502424 -0.40398478 0.04332225)
(5.5024373 -0.40189695 0.045177059)
(5.5041096 -0.39929892 0.048373096)
(5.5045207 -0.39736217 0.04868989)
(5.5049375 -0.39570725 0.051056005)
(5.5043891 -0.39395071 0.052080993)
(5.5048083 -0.39209759 0.054975395)
(5.5049712 -0.38961983 0.055392597)
(5.5033766 -0.38958861 0.056789098)
(5.5132055 -0.38782589 0.059853805)
(5.5280715 -0.37765482 0.058906203)
(5.5341566 -0.36896492 0.061812716)
(5.5341373 -0.366459 0.063473736)
(5.5357902 -0.36386601 0.063881283)
(5.5382665 -0.36062147 0.065918206)
(5.5398681 -0.35746183 0.066283875)
(5.5417802 -0.35484035 0.068292622)
(5.542693 -0.35255099 0.068868556)
(5.5444556 -0.34954157 0.0711842)
(5.5448162 -0.34670044 0.072020864)
(5.5458708 -0.34409897 0.074603157)
(5.546165 -0.34174053 0.075086727)
(5.5475362 -0.3390975 0.077272078)
(5.5483335 -0.33624495 0.078054429)
(5.549553 -0.33334658 0.080306663)
(5.5500399 -0.33084339 0.080186946)
(5.5530161 -0.32727089 0.081888049)
(5.5545854 -0.32399793 0.081415008)
(5.5567321 -0.32142902 0.083124877)
(5.5592715 -0.31845491 0.083044751)
(5.5622717 -0.31541429 0.084491742)
(5.5648416 -0.31125239 0.08425716)
(5.5662709 -0.30969248 0.084807695)
(5.5787278 -0.30481304 0.088340379)
(5.5964427 -0.28944245 0.087997938)
(5.6046883 -0.27710433 0.090226901)
(5.6067898 -0.27258101 0.090583135)
(5.6110333 -0.26708853 0.090145745)
(5.6159662 -0.26212165 0.090881998)
(5.619823 -0.25782049 0.089602166)
(5.6242713 -0.25316901 0.089512257)
(5.6269127 -0.2486412 0.088122039)
(5.6309664 -0.24408886 0.087789954)
(5.6337267 -0.23995944 0.085283181)
(5.6376117 -0.23572465 0.083978282)
(5.6412761 -0.22955604 0.081137177)
(5.6442376 -0.2264503 0.078970495)
(5.6601342 -0.21853104 0.082226355)
(5.6818569 -0.19715416 0.081719055)
(5.692273 -0.18037206 0.083076388)
(5.6960806 -0.17506635 0.07978093)
(5.7039586 -0.1667396 0.076367859)
(5.7133125 -0.16015768 0.072380039)
(5.7209826 -0.15268985 0.065026664)
(5.729201 -0.14827791 0.057958255)
(5.7359069 -0.14470877 0.046667592)
(5.7439315 -0.14196049 0.038134408)
(5.764606 -0.13080959 0.039071027)
(5.7917518 -0.10696316 0.03918322)
(5.8054793 -0.086303999 0.037507409)
(5.8117911 -0.080978966 0.021336894)
(5.8206084 -0.07458895 -0.0024840175)
(5.8234105 -0.067959195 -0.024264587)
(4.5794734 0.056252006 -0.13603525)
(4.3113215 0.079982578 -0.23426453)
(4.217109 0.1056329 -0.16013041)
(3.6983698 0.18031452 -0.39487129)
(4.0190742 0.15257035 -0.32918285)
(3.2212851 0.1986117 -0.63709728)
(2.6066583 0.19216397 -1.0284495)
(2.4460202 0.20469162 -1.1979051)
(2.0992503 0.22444691 -1.1420697)
(1.9407209 0.2963608 -1.328495)
(1.9541355 0.93009046 -1.2833008)
(2.2038803 1.2239736 -1.5227577)
(1.9468097 0.5784658 -1.4672665)
(1.8086708 0.42985599 -1.1689978)
(2.0707871 1.1387727 -1.1332176)
(2.1023509 1.0921623 -1.1408215)
(1.671349 1.3417071 -1.6293938)
(1.8033426 2.0270229 -1.3813083)
(2.1687975 1.1895979 -1.1002487)
(1.8969519 1.5396415 -1.4016167)
(2.1979528 1.0644213 -1.1893501)
(2.1259288 0.97987816 -1.1318164)
(2.3418341 0.82020227 -0.86462348)
(2.1332252 0.74849287 -1.0108768)
(1.8838054 0.29706815 -1.3052883)
(2.0472492 0.66254604 -1.1236781)
(1.772123 1.130806 -1.1812955)
(2.1580789 1.5295222 -1.0036601)
(2.2544361 0.93107074 -0.91383134)
(2.355421 0.88253204 -0.99995636)
(2.675835 0.7431901 -0.90415602)
(2.2503662 0.66856928 -1.0633994)
(1.9915155 0.81914602 -1.1007415)
(1.7475765 0.57386021 -1.3197867)
(2.0820524 0.67780633 -1.383324)
(2.7145149 1.6693664 -0.99382839)
(2.7852678 2.0182339 -1.0499123)
(3.1635159 2.2577906 -1.1404764)
(3.6191813 2.3406133 -0.27389641)
(3.3269068 2.1907293 -0.3793826)
(4.0762195 2.4863879 -0.082560748)
(4.4715357 2.4347257 -0.0014806636)
(4.8903117 2.0329194 0.00083209547)
(4.9694863 1.9394443 -0.0062807519)
(5.1641838 1.8000254 0.0072512374)
(5.3144788 1.6011285 0.024811853)
(5.3650415 1.4867007 0.017202975)
(5.4012257 1.3178716 0.03373783)
(5.4807356 1.2825224 0.023458075)
(5.5162349 1.2108899 0.026919485)
(5.570376 1.1217583 0.030947545)
(5.6133697 1.0212329 0.033025194)
(5.6484688 0.93547452 0.029575972)
(5.6791722 0.84780413 0.030442447)
(5.6949072 0.79607847 0.029024419)
(5.7128706 0.72875588 0.033190632)
(5.7422708 0.71386955 0.031960192)
(5.7541192 0.66879376 0.030568736)
(5.772476 0.61218497 0.029765856)
(5.78776 0.55983609 0.02700071)
(5.8006353 0.50320262 0.026346939)
(5.8095856 0.45216558 0.024171015)
(5.8176091 0.40178239 0.021874532)
(5.8226754 0.35372025 0.021293729)
(5.8255474 0.30755089 0.021274691)
(5.8297287 0.26836009 0.019303639)
(5.8319088 0.22594825 0.018509125)
(5.828705 0.1860676 0.018305034)
(5.8290546 0.15422012 0.016949398)
(5.8284412 0.11691757 0.015885679)
(5.8234034 0.08461177 0.015637142)
(5.820132 0.055113861 0.015315668)
(5.813407 0.021296095 0.01360091)
(5.80702 -0.0024940136 0.012463836)
(5.8018639 -0.02918128 0.013130275)
(5.7960355 -0.053518261 0.011331303)
(5.787133 -0.081143404 0.011467697)
(5.7801947 -0.10075411 0.010092156)
(5.7709029 -0.12662895 0.010080408)
(5.7623972 -0.1441265 0.0090517577)
(5.7526191 -0.16795999 0.0090710899)
(5.742633 -0.1841841 0.0081498322)
(5.7346612 -0.20245738 0.0082104154)
(5.7236656 -0.22190099 0.0070531288)
(5.7134454 -0.23787751 0.0064621707)
(5.702407 -0.25532739 0.0064208323)
(5.6908732 -0.2702447 0.0054592232)
(5.6805925 -0.28446295 0.0055877458)
(5.6686915 -0.30004426 0.0048555461)
(5.6577207 -0.31208874 0.0050148284)
(5.6463992 -0.32600508 0.0043425661)
(5.6325928 -0.33918054 0.003876754)
(5.6221372 -0.35009046 0.0034690962)
(5.6258337 -0.34501831 0.004666617)
(5.634437 -0.33435528 0.0053563956)
(5.647721 -0.32143066 0.005988952)
(5.6589237 -0.30868032 0.0058832154)
(5.6702306 -0.29518831 0.0066450118)
(5.6814205 -0.28083726 0.0069292202)
(5.6924552 -0.26588397 0.0074145819)
(5.7036543 -0.25060378 0.0082618984)
(5.7146039 -0.23399831 0.00849314)
(5.7255153 -0.21675377 0.0092125593)
(5.7361493 -0.19760954 0.0095749076)
(5.7445654 -0.17932011 0.010014457)
(5.7545656 -0.16219646 0.011579252)
(5.7643806 -0.1387395 0.011221416)
(5.7732151 -0.12002301 0.012913575)
(5.7827035 -0.094899375 0.012608555)
(5.7898908 -0.073629396 0.014597041)
(5.7988887 -0.046907212 0.01431912)
(5.8047846 -0.020499865 0.015653397)
(5.8100387 0.0039475754 0.01603563)
(5.817869 0.031554726 0.018053889)
(5.8241014 0.065216505 0.018622583)
(5.8269235 0.096320645 0.019927611)
(5.8319091 0.12636007 0.020371718)
(5.8342711 0.16598089 0.020085924)
(5.8335079 0.20093478 0.022823812)
(5.8363367 0.2384055 0.023331228)
(5.8360322 0.28338716 0.023112416)
(5.8313296 0.32600256 0.025718993)
(5.8280359 0.37023403 0.026303452)
(5.8247471 0.4207563 0.026801156)
(5.8177894 0.47379929 0.028407586)
(5.8067052 0.52833492 0.030333886)
(5.7957028 0.58062267 0.02968664)
(5.7816808 0.63918331 0.033056218)
(5.7616385 0.6954271 0.03717605)
(5.7472074 0.74061162 0.039285038)
(5.7023901 0.81845292 0.030489292)
(5.6860755 0.88669719 0.032193626)
(5.6583511 0.97219068 0.030187139)
(5.6175744 1.0696387 0.036237335)
(5.5666384 1.1679451 0.02994145)
(5.5052285 1.2584056 0.021983868)
(5.4803293 1.3290126 0.016092302)
(5.3779482 1.5269116 -0.015601076)
(5.2953117 1.6684832 -0.020871057)
(5.1512481 1.8114688 -0.063592579)
(5.0397145 1.8985545 -0.11098474)
(4.7205715 2.3122438 -0.29187206)
(4.5214753 2.352492 -0.34991048)
(3.960648 2.29194 -0.59063345)
(3.6535618 2.2894059 -0.60051545)
(4.2657283 2.4386763 -0.36192072)
(4.6194312 2.423226 -0.25203363)
(4.9922759 2.0144182 -0.10229207)
(5.0721513 1.9358404 -0.064105825)
(5.2437698 1.7948382 -0.028398873)
(5.3788971 1.5940816 -0.0071689339)
(5.4293636 1.4670094 -0.0028012305)
(5.4886002 1.3073933 0.024181368)
(5.5342014 1.2702641 0.023186785)
(5.5647471 1.1989467 0.031684466)
(5.6180818 1.1084114 0.037337509)
(5.6616459 1.0029632 0.038363245)
(5.6805273 0.91300157 0.047734586)
(5.698671 0.8368121 0.05175332)
(5.7523091 0.77358482 0.052387181)
(5.7631627 0.73476883 0.046217692)
(5.780549 0.67411937 0.039959243)
(5.7923997 0.61084594 0.038193124)
(5.8037053 0.55533221 0.037165992)
(5.8159958 0.49710219 0.036810276)
(5.8228754 0.44235064 0.035945632)
(5.826989 0.39095261 0.034830004)
(5.831805 0.34497806 0.03264625)
(5.83557 0.29740417 0.031151442)
(5.8353882 0.25509351 0.03144564)
(5.835077 0.21650586 0.029524343)
(5.8346004 0.17676675 0.027257693)
(5.8314588 0.14035103 0.027610157)
(5.8279233 0.1081311 0.025695246)
(5.8245203 0.075605093 0.024257234)
(5.8186455 0.042974668 0.023537952)
(5.8113718 0.013652389 0.022377977)
(5.8056278 -0.01210917 0.020201517)
(5.7986004 -0.039649518 0.01938249)
(5.790944 -0.06392889 0.018716046)
(5.7831488 -0.088671737 0.01740547)
(5.7740603 -0.11149991 0.017508256)
(5.7646623 -0.13331158 0.015147766)
(5.7551651 -0.15467935 0.015303134)
(5.7451652 -0.17438796 0.013380089)
(5.7358926 -0.19244523 0.012539894)
(5.7253499 -0.21136582 0.012139847)
(5.7146268 -0.22880429 0.011768331)
(5.7038319 -0.24565394 0.010958987)
(5.6924129 -0.26132657 0.010134523)
(5.6814725 -0.27613643 0.0097003719)
(5.6703615 -0.290981 0.0089909202)
(5.6587322 -0.30440345 0.0085106893)
(5.6478912 -0.31664157 0.0082361721)
(5.6353243 -0.32928163 0.0074885194)
(5.6267387 -0.34030082 0.0068272789)
(5.6262833 -0.33642538 0.010940484)
(5.635005 -0.32530504 0.011608089)
(5.6474074 -0.31238436 0.012485004)
(5.657913 -0.30013144 0.013176729)
(5.6695074 -0.28669024 0.014017187)
(5.6804916 -0.27162957 0.01474963)
(5.6913681 -0.25694539 0.01560773)
(5.7031103 -0.24085198 0.016682051)
(5.7134421 -0.22368711 0.017842745)
(5.7236994 -0.20688583 0.018262266)
(5.7349096 -0.18725657 0.018828242)
(5.7447599 -0.16849813 0.02049874)
(5.7542236 -0.14778113 0.022299324)
(5.7636645 -0.12737435 0.022864742)
(5.7733267 -0.10345586 0.025518733)
(5.7809946 -0.081009446 0.02581677)
(5.7892166 -0.057498925 0.026413835)
(5.7973409 -0.030779775 0.02879129)
(5.8046515 -0.0040165143 0.030130554)
(5.8102833 0.024853999 0.03251151)
(5.8161643 0.051819035 0.03309565)
(5.8225996 0.086136722 0.035227198)
(5.8263883 0.11907121 0.036368069)
(5.8293955 0.15373526 0.039034576)
(5.8316742 0.18981581 0.040034329)
(5.8329984 0.23020048 0.041683594)
(5.8327732 0.2712265 0.044124601)
(5.8317443 0.31405277 0.045647546)
(5.8291156 0.36161593 0.046067443)
(5.8246779 0.41202748 0.049024408)
(5.8195019 0.46504759 0.050033892)
(5.8109393 0.52304254 0.051802884)
(5.799113 0.58202143 0.051602913)
(5.7865457 0.64923403 0.051111144)
(5.7724002 0.7233764 0.047154974)
(5.7585324 0.79287648 0.038595584)
(5.7132978 0.89592823 0.052176078)
(5.6940887 0.98683373 0.069790606)
(5.6355385 1.0872879 0.061622029)
(5.6012414 1.179128 0.058199881)
(5.568203 1.2546026 0.052799429)
(5.4688131 1.4369051 0.028461266)
(5.429988 1.5712139 0.025026274)
(5.3204999 1.761864 0.0094543793)
(5.156007 1.9153646 -0.033078278)
(5.0369387 2.0163949 -0.082631455)
(4.7012904 2.4044843 -0.15009537)
(4.4374815 2.48126 -0.2597273)
(3.5030601 2.318387 -0.54385317)
(2.3737861 1.4935813 -0.89118152)
(2.1233388 0.83105757 -1.0753607)
(1.9946684 0.84543407 -0.97611192)
(2.1695882 0.3691184 -1.2147887)
(2.2423232 0.3090827 -1.2230487)
(2.3827908 0.66427418 -1.1019289)
(2.2463627 0.98787431 -1.0853501)
(2.8461801 1.2692702 -0.798107)
(2.7248854 0.68875291 -0.86624408)
(2.54286 0.55264793 -1.1052056)
(2.9876996 0.6771564 -0.73475972)
(2.6680266 0.78727596 -0.98608848)
(2.588371 0.79628568 -0.97425898)
(2.6035478 1.3141836 -0.97266241)
(2.0575066 1.1555142 -1.2115963)
(3.288352 1.2462385 -0.62827907)
(3.155605 1.4643039 -0.55893782)
(3.1942673 1.6382534 -0.62904303)
(3.0790274 1.7892339 -0.45367603)
(3.1692287 1.7898848 -0.33263846)
(3.1043343 1.585238 -0.39486524)
(2.6261473 1.9797116 -0.44866074)
(3.1040212 1.9173084 -0.22969947)
(3.1912372 1.8280494 -0.1984755)
(3.3385651 1.3666593 -0.15179839)
(3.803847 0.68421019 -0.13967095)
(4.1555392 0.42817357 -0.1083615)
(4.3592664 0.27837885 -0.057455353)
(4.603341 0.20281818 -0.053913387)
(5.2750217 0.0090968375 0.00056308541)
(5.2981853 0.0074076727 0.000869046)
(5.3173549 0.0054896655 0.001148164)
(5.3320084 0.0034322368 0.0013935068)
(5.341805 0.001305942 0.0015986875)
(5.3466134 -0.00098333631 0.0017748963)
(5.3463785 -0.0025483921 0.0018600469)
(5.3422125 -0.0042935102 0.0019392756)
(5.3337544 -0.0058886242 0.0019869732)
(5.3215416 -0.0072795009 0.0020071386)
(5.3061327 -0.0084347295 0.002005734)
(5.2880627 -0.0093392219 0.0019838529)
(5.2679238 -0.0099885209 0.0019455304)
(5.246332 -0.01038088 0.0018952777)
(5.2487523 -0.031883072 0.0019582488)
(5.2708484 -0.030679978 0.002014712)
(5.2914803 -0.028692725 0.0020590187)
(5.3100243 -0.025931757 0.0020862959)
(5.3258765 -0.022419063 0.0020929149)
(5.3384891 -0.018202029 0.0020797791)
(5.3473229 -0.013363048 0.0020378201)
(5.3518178 -0.0079742661 0.0019581629)
(5.3517468 -0.0023008859 0.001843639)
(5.3469967 0.004051667 0.0016812522)
(5.3371698 0.01055126 0.0014718382)
(5.3223327 0.01689776 0.0012164206)
(5.3027738 0.022827731 0.00092091517)
(5.2790402 0.028048397 0.00059370413)
(5.2874912 0.048888581 0.00071094906)
(5.3122305 0.039656295 0.001086518)
(5.3324352 0.029208937 0.0014161621)
(5.3475941 0.018090076 0.0016915888)
(5.3574912 0.006826572 0.0019086741)
(5.3621729 -0.0041245837 0.0020711939)
(5.3618874 -0.014082961 0.0021834032)
(5.3567906 -0.02344835 0.0022532699)
(5.3472817 -0.031863376 0.0022808849)
(5.3339046 -0.039165937 0.0022773893)
(5.317207 -0.045232733 0.002252517)
(5.2977676 -0.049996231 0.0022083407)
(5.2762093 -0.053418371 0.0021462853)
(5.253171 -0.055480767 0.002071104)
(5.2597586 -0.081947785 0.0022096066)
(5.284354 -0.078996164 0.0023177211)
(5.3074523 -0.074048883 0.0024127387)
(5.3283918 -0.067133343 0.0024901909)
(5.3465273 -0.058303925 0.0025492296)
(5.3612449 -0.047651429 0.0025847726)
(5.3719653 -0.035324439 0.002591958)
(5.3781259 -0.02153729 0.0025611945)
(5.3792101 -0.0067334665 0.0024818008)
(5.3749535 0.0093427658 0.0023395697)
(5.3650873 0.025974216 0.002120151)
(5.3494855 0.042529916 0.0018167069)
(5.3282809 0.058224846 0.00143401)
(5.3019215 0.072219517 0.00097880228)
(5.3235544 0.098560937 0.0014091739)
(5.3522248 0.078739065 0.001939644)
(5.3747806 0.056773899 0.0023456251)
(5.390881 0.033867169 0.0026384918)
(5.4005131 0.011071568 0.002835531)
(5.4039384 -0.010817437 0.00294757)
(5.4015327 -0.031037727 0.0029936458)
(5.3937154 -0.049644349 0.0029866726)
(5.3811247 -0.066206828 0.0029432008)
(5.3643713 -0.080459602 0.0028695696)
(5.3440718 -0.092235779 0.0027695485)
(5.3208816 -0.10142897 0.0026505794)
(5.2954803 -0.10797281 0.0025155794)
(5.2685585 -0.11182771 0.002368978)
(5.2790458 -0.1455276 0.0025664624)
(5.309127 -0.14082102 0.0027520663)
(5.3376462 -0.13268417 0.0029288301)
(5.3638868 -0.12116428 0.0030924036)
(5.3871393 -0.10632219 0.0032395007)
(5.4067069 -0.088257939 0.0033621828)
(5.4219187 -0.067150517 0.0034576327)
(5.4320698 -0.043386378 0.0035179493)
(5.4364638 -0.017150731 0.0035082479)
(5.4344528 0.011245081 0.0034304141)
(5.4254743 0.041156328 0.0032536537)
(5.4090315 0.071546198 0.0029695254)
(5.3848909 0.10111292 0.0025561545)
(5.3532237 0.12820439 0.0019883606)
(5.3914129 0.16067558 0.0028266259)
(5.4265989 0.12440999 0.00347433)
(5.4522503 0.085689635 0.0039182969)
(5.4685868 0.046616289 0.0042015548)
(5.4762121 0.0087364307 0.0043627772)
(5.4760003 -0.02679939 0.0043882477)
(5.4687934 -0.059403701 0.0043263454)
(5.4554938 -0.088594222 0.0041697349)
(5.4368604 -0.11436932 0.0039930434)
(5.4136309 -0.13631597 0.0037978549)
(5.3865847 -0.15425698 0.0035822992)
(5.3564682 -0.16812769 0.0033507778)
(5.3240175 -0.17787937 0.003108669)
(5.2899562 -0.18343522 0.0028626385)
(5.2998795 -0.225733 0.0032805163)
(5.3386439 -0.21952073 0.0036258344)
(5.3757014 -0.20844636 0.00397709)
(5.4103632 -0.19261218 0.004337562)
(5.4419025 -0.17189178 0.0047111298)
(5.4695019 -0.14613591 0.0051098377)
(5.4924762 -0.11529787 0.0054919922)
(5.509817 -0.080470592 0.0058819155)
(5.5209326 -0.041049818 0.0061307236)
(5.5244994 0.0023469311 0.0062463799)
(5.5193499 0.04936972 0.006162948)
(5.5041207 0.098778527 0.0058815368)
(5.4775877 0.14883049 0.005368724)
(5.4388888 0.19696783 0.0045411555)
(5.4978102 0.23265009 0.0096103678)
(5.539542 0.17007771 0.010692947)
(5.5657315 0.10707066 0.011116747)
(5.578232 0.046489628 0.011109924)
(5.5790964 -0.0099827067 0.010779763)
(5.5704502 -0.061184369 0.010205555)
(5.553927 -0.10705433 0.0094831476)
(5.5315131 -0.14717949 0.0085771397)
(5.5033174 -0.18221754 0.007612115)
(5.4699237 -0.21214116 0.0067314719)
(5.4328909 -0.23590761 0.0059462903)
(5.3931611 -0.25389244 0.005225111)
(5.3511049 -0.26642315 0.0046030558)
(5.3071765 -0.27344737 0.004029151)
(5.3119937 -0.32470538 0.0050000314)
(5.3617268 -0.31714703 0.006025257)
(5.4095482 -0.30370103 0.0069483302)
(5.4551973 -0.28493556 0.0078213818)
(5.4983502 -0.26147455 0.0085017112)
(5.5354126 -0.2354204 0.010320981)
(5.5711532 -0.18913128 0.012978711)
(5.6003105 -0.14384014 0.014915103)
(5.6239264 -0.091133376 0.01672823)
(5.639707 -0.031268536 0.018421795)
(5.6457073 0.03651106 0.019896099)
(5.6391121 0.11165489 0.02087736)
(5.6165907 0.19266369 0.021051697)
(5.5742828 0.27592869 0.020161651)
(4.8765642 0.41960374 -0.019352927)
(4.9760077 0.55337289 -0.019166035)
(5.1662844 0.60255077 0.0092969076)
(5.285838 0.61071677 0.010065123)
(5.3049212 0.58127151 0.0032456112)
(5.3819948 0.53290947 0.0052827702)
(5.4443075 0.5032224 0.0009695652)
(5.5089954 0.44971969 0.0076154654)
(5.5548489 0.40834115 0.0042871569)
(5.6011742 0.35268403 0.01047431)
(5.6325794 0.30533347 0.0073268724)
(5.6593096 0.25248183 0.011695143)
(5.6763456 0.20339727 0.0085556096)
(5.6888236 0.15709168 0.011776808)
(5.6945469 0.11028752 0.0090899297)
(5.6977503 0.069338686 0.011577619)
(5.6954742 0.025897742 0.0091861826)
(5.6920746 -0.009111606 0.010989627)
(5.6838984 -0.048490897 0.0088557293)
(5.6756051 -0.077991178 0.010094263)
(5.6629873 -0.11325304 0.0082630737)
(5.6509248 -0.13786223 0.0090164172)
(5.6349423 -0.16925275 0.0074911412)
(5.6200349 -0.18959664 0.0078591608)
(5.6018134 -0.21701984 0.0066129669)
(5.5844711 -0.23329654 0.0066035228)
(5.5669726 -0.25701305 0.0053205646)
(5.5513009 -0.26715021 0.0047677667)
(5.5429672 -0.27841567 0.0022004834)
(5.5445646 -0.31793514 0.004616064)
(5.5352809 -0.35188912 0.0080760248)
(5.5153418 -0.31546663 0.0086236617)
(5.5131739 -0.42865486 0.00062027232)
(5.5400928 -0.40843245 0.0020502286)
(5.5619663 -0.39135422 0.0023466381)
(5.5842639 -0.37607107 0.0021314125)
(5.5940271 -0.38076222 0.0019772572)
(5.6096676 -0.3676267 0.0015519504)
(5.6215466 -0.35579694 0.0017105256)
(5.6342048 -0.34415289 0.0013518864)
(5.6468745 -0.33011228 0.0013202427)
(5.6586602 -0.31973218 0.0014759886)
(5.6709697 -0.30233928 0.0011664918)
(5.680968 -0.29194087 0.0015644991)
(5.6932757 -0.27444709 0.0014625726)
(5.7030973 -0.26201143 0.0017032394)
(5.7146227 -0.24479367 0.0019716338)
(5.7240249 -0.22929329 0.0020055161)
(5.7346285 -0.21206201 0.0024444781)
(5.7437182 -0.19379671 0.0023843773)
(5.7530416 -0.17716196 0.002744217)
(5.7620195 -0.15575008 0.0026545281)
(5.7705492 -0.137857 0.0030326576)
(5.778952 -0.11451765 0.0030047348)
(5.7862058 -0.094950952 0.0034746625)
(5.7936374 -0.069898046 0.0034157172)
(5.8000081 -0.046968562 0.0038805862)
(5.8060845 -0.021872658 0.0038997605)
(5.8111965 0.0042299119 0.0041012578)
(5.8161897 0.029020032 0.0044672125)
(5.8202426 0.0614559 0.0044182967)
(5.8233978 0.086469987 0.0050793563)
(5.8251473 0.12327811 0.0050828847)
(5.8250055 0.15164059 0.0054368431)
(5.8267845 0.18830204 0.0059954197)
(5.8244728 0.22571625 0.005903452)
(5.8205088 0.26333194 0.0064924041)
(5.8169438 0.29944594 0.0068854452)
(5.8104872 0.34690972 0.0068591887)
(5.8010555 0.38810329 0.0070556836)
(5.7891027 0.43738373 0.0074288774)
(5.7755534 0.48330662 0.0074131641)
(5.7577335 0.54222935 0.0068143788)
(5.7357143 0.59949966 0.0063524465)
(5.7098732 0.67065881 0.0068976949)
(5.6830164 0.73312894 0.0066905947)
(5.5991563 0.82590515 0.0013979926)
(5.4728164 0.93945464 0.0034442423)
(5.2940904 1.0321598 0.00041906004)
(5.0629216 1.0742176 -0.0066509565)
(4.7972681 1.0385025 -0.016807496)
(4.5945165 0.90438427 -0.015299434)
(4.5289265 0.67933649 -0.018538279)
(4.5603706 0.51697877 -0.025229338)
(4.6236682 0.39693076 -0.022622467)
(5.246117 -0.010289419 0.005804939)
(5.2455969 -0.010153186 0.0099500188)
(5.2447403 -0.01002288 0.014208194)
(5.2435542 -0.0098694261 0.018470643)
(5.2420437 -0.0097152063 0.022521487)
(5.2402429 -0.0095669028 0.026297162)
(5.2381831 -0.0094206429 0.02975169)
(5.2358891 -0.0092692896 0.03290323)
(5.2333709 -0.0091128781 0.035779403)
(5.230634 -0.0089537217 0.038422524)
(5.2276754 -0.0087951644 0.040873612)
(5.2244853 -0.0086384639 0.043177779)
(5.2210474 -0.0084814836 0.045378015)
(5.2173391 -0.0083185261 0.047507795)
(5.2133289 -0.0081396915 0.049587915)
(5.2089856 -0.0079279706 0.051614591)
(5.2269847 -0.0070490277 0.050446676)
(5.2318138 -0.0072989157 0.048824256)
(5.2362586 -0.0075205891 0.047090914)
(5.2403574 -0.007728404 0.045249713)
(5.2441478 -0.0079297788 0.043282651)
(5.2476568 -0.0081297659 0.04116307)
(5.2509028 -0.0083304309 0.03885148)
(5.2538969 -0.0085299909 0.036306711)
(5.2566425 -0.0087251895 0.033490958)
(5.259135 -0.0089136709 0.030364196)
(5.2613644 -0.009094277 0.026898904)
(5.2633073 -0.0092725489 0.023080744)
(5.2649307 -0.0094515208 0.018958864)
(5.2662021 -0.0096232238 0.014598886)
(5.2671177 -0.0097623174 0.010230126)
(5.2676809 -0.0099022681 0.0059675537)
(5.2877846 -0.0092601398 0.0060924916)
(5.2871634 -0.0091179103 0.010444064)
(5.2861691 -0.0089706728 0.014893666)
(5.2847817 -0.0087797693 0.019318365)
(5.2830051 -0.0085740771 0.023477858)
(5.280871 -0.0083634097 0.027304613)
(5.2784156 -0.0081447915 0.030747215)
(5.2756627 -0.0079151569 0.03381506)
(5.2726226 -0.0076777904 0.03653748)
(5.2693014 -0.0074346453 0.038951501)
(5.2656959 -0.0071888265 0.041091206)
(5.2617959 -0.006942349 0.042993266)
(5.2575826 -0.0066931917 0.044692751)
(5.2530285 -0.0064365272 0.046207576)
(5.248092 -0.0061677737 0.047551117)
(5.2427311 -0.0058761999 0.048719758)
(5.2555319 -0.0044305101 0.046402327)
(5.2614716 -0.0047648024 0.045721962)
(5.2669602 -0.0050825784 0.044798653)
(5.2720387 -0.0053900272 0.043639165)
(5.2767486 -0.0056878788 0.042236125)
(5.2811172 -0.0059822029 0.040582522)
(5.2851593 -0.0062745418 0.038647421)
(5.2888837 -0.0065631009 0.036399164)
(5.2922907 -0.0068450754 0.033807216)
(5.2953713 -0.0071195766 0.030838031)
(5.2981167 -0.0073780626 0.027457739)
(5.3005002 -0.0076223407 0.023664813)
(5.3024776 -0.0078568368 0.019510247)
(5.3040203 -0.0080679592 0.015064233)
(5.3051155 -0.0082227891 0.010571323)
(5.3058109 -0.008364879 0.0061658087)
(5.3211706 -0.0072205381 0.006175223)
(5.320389 -0.0070822878 0.010590963)