/*--------------------------------*- C++ -*----------------------------------*\
| =========                 |                                                 |
| \\      /  F ield         | OpenFOAM: The Open Source CFD Toolbox           |
|  \\    /   O peration     | Version:  v2012                                 |
|   \\  /    A nd           | Website:  www.openfoam.com                      |
|    \\/     M anipulation  |                                                 |
\*---------------------------------------------------------------------------*/
FoamFile
{
    version     2.0;
    format      ascii;
    class       volScalarField;
    location    "100";
    object      nut;
}
// * * * * * * * * * * * * * * * * * * * * * * * * * * * * * * * * * * * * * //

dimensions      [0 2 -1 0 0 0 0];


internalField   nonuniform List<scalar> 
120695
(
0.0055932462
0.0032154788
0.0023435931
0.0017169187
0.0010425859
0.00083892801
0.00088537737
0.00051491002
0.00060670625
0.00073018941
0.00086963612
0.0012429503
0.001485697
0.0022240763
0.0020965112
0.0025166263
0.0025529917
0.0027549954
0.0027931241
0.0028379038
0.0030826863
0.0031250352
0.0031541055
0.0031873945
0.0033516389
0.0033868824
0.0034105396
0.0034294419
0.0035707813
0.0036704905
0.0036695051
0.0036573338
0.0036428358
0.0036440715
0.0036353442
0.0036214016
0.0037019581
0.0037084006
0.0036951654
0.0036710858
0.0036355023
0.00358706
0.003595209
0.003598926
0.0035514008
0.0034880049
0.0034014861
0.00328258
0.0031496679
0.0032400735
0.0033148261
0.0035507502
0.0035409685
0.0034960422
0.0034404122
0.0033832484
0.0033284329
0.0032701233
0.0032061412
0.0031384954
0.0030672643
0.0029925286
0.0029152604
0.0028349296
0.002750636
0.002661048
0.0025663944
0.0025011058
0.0024870874
0.0024063933
0.0023342137
0.0022574936
0.0021863561
0.0021193694
0.002040027
0.0019760511
0.0022546042
0.0025880207
0.0025890537
0.0025611829
0.0025306352
0.0024984837
0.0024652829
0.0024305641
0.0023943931
0.002356862
0.0023177122
0.0022774078
0.0022355053
0.0021924881
0.0021500975
0.0021071524
0.002063831
0.0020156043
0.0019635708
0.0019065243
0.001817213
0.0017200679
0.0016039178
0.0015231367
0.001435488
0.0013804127
0.0014293347
0.0013763319
0.0013091898
0.0012394973
0.0012397561
0.0012268801
0.0012003108
0.001166197
0.0011283164
0.0010883155
0.0010479503
0.0010074238
0.00096711282
0.0009273004
0.0008880639
0.00084938078
0.00081116672
0.00077289012
0.00073518343
0.0006987209
0.00066360633
0.0006300636
0.00061325875
0.0006579284
0.00090503252
0.00092565254
0.00090896044
0.00087280275
0.00083692245
0.00079356483
0.00075060724
0.00070594469
0.0006855285
0.00066206318
0.00062847095
0.0005956163
0.00058509285
0.00056885265
0.00054883219
0.00052735709
0.00050556769
0.00048387554
0.000462427
0.00044125395
0.0004207081
0.00040123677
0.00038564712
0.00037112766
0.00038040622
0.0005042892
0.00051633472
0.00050171867
0.00048003758
0.0004566516
0.00043408324
0.00041298532
0.00040646607
0.00038723771
0.00036941017
0.00036632091
0.00035885511
0.00034868194
0.00033742239
0.00032589156
0.00031426493
0.00030262804
0.00029107241
0.00028019645
0.00026957214
0.00025958212
0.00024955168
0.00023781393
0.00025989751
0.00035204349
0.0003568632
0.00034320121
0.0003291005
0.00031568883
0.00030316307
0.00029830845
0.00028673721
0.00027616835
0.00027365079
0.00026874922
0.00026235971
0.00025535742
0.00024816454
0.000240985
0.00023416063
0.00022883163
0.00022403967
0.00022625804
0.00026797153
0.00026998313
0.00026126711
0.00025264622
0.00024460953
0.000237032
0.00023368343
0.00022691196
0.00022077388
0.00021920634
0.00021639577
0.00021284908
0.00020901587
0.00020507575
0.0002010381
0.00019732809
0.0001938588
0.00019068764
0.00018747912
0.0001838626
0.00019076907
0.00022085232
0.00021592429
0.00021108143
0.00020660518
0.00020303108
0.00020216765
0.00019837474
0.00019510659
0.00019465171
0.00019326093
0.00019133298
0.00018920663
0.00018701648
0.00018481341
0.00018288321
0.00018108877
0.00015961252
0.00017792333
0.00017603056
0.00017918699
0.000193319
9.4123596e-05
2.8372585e-05
6.0456322e-05
0.00013750381
0.0050815787
0.0032911955
0.0030983524
0.0033218014
0.0039884769
0.00404132
0.0051654457
0.005853013
0.0036366439
0.0030010951
0.0029068068
0.0025571537
0.0022556882
0.002744761
0.0016692134
0.0012145064
0.0012122609
0.00081084489
0.00099616345
0.00055879457
0.00064802605
0.00071427379
0.00087105864
0.0011610282
0.0012828703
0.0020648338
0.0023538012
0.0024480088
0.0024798739
0.0027027586
0.0027733115
0.0028025346
0.0030469825
0.003130241
0.0031733749
0.0031924838
0.0033649183
0.0034306406
0.0034626626
0.0034571697
0.0034818773
0.0035357874
0.0036294053
0.003796194
0.0036781936
0.0036780396
0.0037013051
0.0037049606
0.0037025358
0.0034724747
0.0034467731
0.0034244173
0.0034190372
0.0031188576
0.0030787128
0.0028755628
0.0024782939
0.0027438568
0.0018838273
0.0017952718
0.0011769252
0.00096223024
0.00082621096
0.00073722109
0.00046011794
0.00054254009
0.001118049
0.0010235781
0.001306534
0.0013428493
0.0017282178
0.0019046531
0.0015697979
0.0010993895
0.0012357943
0.00099189003
0.00089019401
0.00061482785
0.00070995913
0.00092452808
0.0004195201
0.000365292
0.00070997933
0.00039854186
0.00033193894
0.00041038915
0.00046910677
0.00067627163
0.00058788395
0.00061788392
0.00065487257
0.00081765174
0.0011495669
0.00089785806
0.0012101012
0.0016906634
0.0013536657
0.0017576912
0.0023508564
0.0017093243
0.0028340939
0.00237222
0.0030434535
0.0029277612
0.0031843493
0.0032213622
0.0034090726
0.0035133031
0.0035396777
0.0035613909
0.0035811378
0.0037022486
0.0037927566
0.0038072023
0.0038142106
0.0038245802
0.0039970355
0.0039819628
0.0038093056
0.0036819207
0.003643601
0.0036792642
0.0036769156
0.0036408778
0.0036990467
0.00373445
0.0037312105
0.0037117401
0.0036777491
0.0035881937
0.0035094561
0.0034817153
0.0035217744
0.003668851
0.0036902019
0.003751901
0.0038308374
0.0038909103
0.0039307838
0.0039576201
0.0039676595
0.0038154083
0.0038283078
0.0038253293
0.0039802679
0.0039699755
0.003961651
0.0040989124
0.0040690222
0.0040502021
0.0040182093
0.0039747262
0.0039213241
0.0038658425
0.0039009653
0.0038434183
0.0036339683
0.003420242
0.0033144757
0.0032132033
0.0031693247
0.0035714703
0.0035008201
0.0033880376
0.0033154854
0.0034071416
0.0035167021
0.0034629493
0.0036812001
0.0037442952
0.0038016754
0.0038700603
0.0039118982
0.0038862259
0.0039425901
0.0039904188
0.0040312469
0.0040640776
0.0040905181
0.0041043304
0.0039887449
0.0040093552
0.0040232723
0.0040326616
0.0040310197
0.0038636511
0.0038639186
0.0038559515
0.0038419076
0.0038190157
0.003599767
0.0035825449
0.0035609507
0.0035609506
0.0032911536
0.0032565146
0.0032286038
0.0028018788
0.0029167748
0.0018442925
0.0019826266
0.0012993793
0.001196719
0.00091535147
0.00075753251
0.00077539701
0.00072076324
0.00065571191
0.00083026478
0.00097566715
0.00062574122
0.00068823428
0.00076623388
0.0012620146
0.00083394192
0.001044028
0.0012089035
0.0022279009
0.0018802306
0.0028560359
0.0020167326
0.0028282003
0.0032528875
0.003267311
0.0032939187
0.0033254326
0.0035055852
0.0035574643
0.0035840795
0.0036141663
0.0038347344
0.0038420916
0.0038611881
0.0038729473
0.0038797938
0.0040662902
0.0040665908
0.004058064
0.0040459903
0.0040336532
0.0041563563
0.0041243264
0.0041057081
0.0040785687
0.0040457972
0.0040056898
0.0039608466
0.0040097314
0.0039498861
0.0039044647
0.0038248371
0.0037790308
0.003928364
0.003791264
0.0036698289
0.0036072848
0.0034528576
0.0033733592
0.0033613788
0.003319422
0.003264784
0.0032029701
0.0031368507
0.0030672102
0.0029942554
0.0029185873
0.0028398584
0.0027565639
0.0026665754
0.0025341335
0.0024121501
0.0023486906
0.0023563645
0.0024486312
0.002507813
0.0026015311
0.0027125685
0.0028114661
0.002901275
0.0029862777
0.0030691515
0.0031513457
0.0032324391
0.0033133615
0.0033975387
0.0034776747
0.0035228826
0.0034404255
0.0035240421
0.0036108604
0.0038149798
0.0038239253
0.0037592801
0.0037278049
0.0037145664
0.0035416613
0.0034656751
0.0034279624
0.0033943253
0.0033801637
0.0033280808
0.0032687029
0.0032044546
0.003136447
0.0030648551
0.0029893155
0.0029082048
0.002821008
0.0027317461
0.0026473034
0.0025590636
0.0024377729
0.002385412
0.0022662924
0.0021846717
0.0021645494
0.0021070516
0.0020137868
0.001954348
0.0021489994
0.0022569933
0.0023447976
0.0024477302
0.0025143342
0.0024747982
0.0025366285
0.0025602919
0.0026517457
0.0027366619
0.0028167566
0.0028996586
0.0029811952
0.0030600094
0.0031355592
0.0032084943
0.0032796587
0.0033479988
0.0034118018
0.003473794
0.0034861511
0.0035262426
0.0036163256
0.0036493083
0.0035773103
0.0035682182
0.0035141303
0.0034907067
0.0034355157
0.0033749114
0.0033108578
0.003244096
0.0031749505
0.0031033869
0.0030295502
0.002953651
0.0028773426
0.0027999079
0.0027165682
0.0027067399
0.0026275098
0.0024795214
0.0023925929
0.0023296817
0.0025422407
0.0023771143
0.0026183542
0.0026760464
0.0026400642
0.0025942203
0.0025483616
0.0025024318
0.0024564453
0.0024102118
0.0023640976
0.0023173698
0.0022704127
0.002223579
0.0021768067
0.0021315058
0.002085451
0.0020382383
0.0019849011
0.0019289576
0.0018668524
0.0017727193
0.001778282
0.0018125733
0.0017900236
0.0017996683
0.0018513732
0.0019526976
0.0019688371
0.002091644
0.0020817153
0.0021240862
0.0022172178
0.002334558
0.0023489991
0.002434486
0.0024047588
0.0024123518
0.0024643923
0.002576482
0.0025425461
0.0025253208
0.0025541686
0.0026631259
0.0026049585
0.002540674
0.002526416
0.0026239608
0.0025582565
0.0024873341
0.0024728267
0.0025552231
0.0025009461
0.0025852857
0.0025793425
0.0026256377
0.0026903341
0.0027797576
0.0025201689
0.0025858393
0.0026496205
0.0027038808
0.0027627136
0.0027868981
0.0028512543
0.0028995026
0.0029412573
0.0030472481
0.0031453009
0.0032388083
0.0033270555
0.0034141636
0.0035013937
0.0035878504
0.003672122
0.0037530365
0.0038324056
0.0039125123
0.0039901404
0.0040666498
0.0041390776
0.0042091008
0.0042753932
0.0043387394
0.004397511
0.0044487743
0.004465314
0.0045064824
0.0045194332
0.0045980834
0.0046799501
0.0047930794
0.0047930459
0.0047770598
0.0047040051
0.0047013161
0.0046180821
0.0045356127
0.0044754946
0.0045136498
0.0045247729
0.0044838258
0.0044348302
0.0043787722
0.0043186479
0.0042540402
0.0041869653
0.0041144814
0.004040485
0.0039631366
0.0038847405
0.0038037585
0.0037206297
0.0036347543
0.0035483169
0.0034615938
0.0033748054
0.0032854646
0.0031953234
0.0030983069
0.0029991465
0.0028738996
0.0027861663
0.0028468861
0.0028950089
0.0029880247
0.0030863577
0.0031796771
0.0032739791
0.0033664608
0.0034573393
0.0035457092
0.0036341375
0.0037222248
0.00381008
0.003895539
0.0039778773
0.0040576841
0.0041368471
0.0042126576
0.0042852532
0.0043526028
0.0044159608
0.0044736229
0.0045254282
0.0045676716
0.0045697231
0.0045980073
0.0046061459
0.0046647987
0.00481104
0.004901164
0.0049609522
0.0049041738
0.0048346093
0.0047860409
0.0046864738
0.0045985177
0.0046619738
0.0047045543
0.0046748666
0.0046304974
0.0045764892
0.0045148474
0.0044483838
0.0043759109
0.0042996323
0.0042186217
0.0041364888
0.0040515195
0.0039655237
0.0038756902
0.0037843126
0.0036927969
0.0036005981
0.0035061601
0.003413201
0.0033174474
0.0032233808
0.0031274156
0.0030324092
0.0029010928
0.0028046885
0.0028155585
0.0027618266
0.0027014779
0.002657689
0.0025885823
0.0025427654
0.0025449566
0.0025184103
0.0024877536
0.0024612202
0.002422397
0.0023725587
0.0023815956
0.0023587896
0.0024489839
0.0024858731
0.0024536325
0.0024040509
0.0024955484
0.0025253598
0.0024737513
0.0024203689
0.0024458978
0.0024467166
0.0023869698
0.002336053
0.002323217
0.0023475499
0.0022649339
0.0022161837
0.002139538
0.0020948586
0.0020154617
0.0020185164
0.0018963542
0.0018448628
0.0017870494
0.0017505343
0.0017233656
0.0017405196
0.0017091068
0.0016849241
0.0016087315
0.0015147303
0.00147689
0.0013990002
0.0013449502
0.0015631119
0.0016522771
0.0016768936
0.0016163403
0.0015378741
0.0015442054
0.0015366196
0.0015848202
0.0016337406
0.0016830008
0.0017232915
0.0018163604
0.001822898
0.0018541563
0.0019442795
0.0019993613
0.002025849
0.0021082158
0.0020857145
0.0020898127
0.0021581902
0.0021422325
0.002115454
0.0021474754
0.0021122571
0.0021475963
0.0020999685
0.0021209925
0.002072866
0.0021009071
0.0020723377
0.0021048073
0.002069849
0.0021069652
0.0020801782
0.0021253402
0.0020578922
0.0021146837
0.0021743254
0.0022176955
0.0022059173
0.0022813742
0.0023589452
0.0024375762
0.0025255957
0.0026149083
0.0026687984
0.0027061968
0.002807894
0.0027201062
0.0026334069
0.003001
0.0038381514
0.0037699963
0.003667209
0.0035222494
0.0028084701
0.0028242195
0.0029070632
0.0026580227
0.002722084
0.002783166
0.00283348
0.002869804
0.0029328
0.0029953785
0.0030312357
0.0031310264
0.0032261088
0.003315175
0.0034020127
0.0034860276
0.0035665712
0.0036459709
0.0037250399
0.0038026479
0.0038805689
0.0039552712
0.0040283105
0.0040981534
0.0041653706
0.0042282631
0.0042877029
0.0043393263
0.0043576082
0.0043802756
0.0043569699
0.00429487
0.0043579406
0.0044617064
0.0044238474
0.0044551455
0.0047649163
0.004770494
0.0047998317
0.0047001622
0.0047430794
0.0047817295
0.0048250418
0.0048340836
0.0048894133
0.0049372291
0.004976751
0.0050093232
0.0050351882
0.0050496714
0.005032182
0.005071563
0.0051040614
0.0051333013
0.0051577787
0.0051902877
0.0051768825
0.0052060876
0.0052344293
0.0052580662
0.0052845763
0.0052673652
0.0052957621
0.0053246518
0.005359314
0.0053595634
0.0053957398
0.0054422455
0.0054892528
0.0055224125
0.0055641115
0.0056528026
0.0057172191
0.0058177458
0.0054454315
0.0050843327
0.0041363043
0.0038220418
0.0033344121
0.0020467798
0.0017201714
0.0019315167
0.0025207134
0.0030724408
0.0044753653
0.0044037174
0.0060050082
0.0067507571
0.003982241
0.0034004702
0.0028333954
0.0022300858
0.0017972224
0.0017258535
0.0030989914
0.0028904335
0.0045014019
0.0051728314
0.0044171817
0.0055683385
0.0049995231
0.0050288331
0.0053691328
0.0059586204
0.0059051792
0.005861393
0.0056476476
0.0057458685
0.0056805536
0.0056287593
0.0054868171
0.0055610968
0.0055169148
0.0054764346
0.0053937449
0.0054636893
0.0054332874
0.0054026509
0.0053670136
0.0053090898
0.0053673409
0.0053485685
0.0053237995
0.0052927691
0.0052543093
0.0052027592
0.0052526079
0.0052365046
0.0052124352
0.0051849714
0.0051553172
0.0051780198
0.0051583844
0.0051406403
0.0051087077
0.0050701117
0.0050238879
0.0049681483
0.0049031994
0.0048243427
0.0048759524
0.0048436463
0.0048037783
0.0047618036
0.0047809492
0.0047403428
0.0047825631
0.0047139663
0.004810337
0.004860776
0.0049114754
0.0049479638
0.0049975398
0.0050116465
0.0050697731
0.0051215129
0.0051631888
0.0051962886
0.0052225539
0.005233908
0.0052249674
0.0052678531
0.0053041121
0.0053368602
0.0053669943
0.0053906086
0.0053719236
0.0054130654
0.0054478265
0.005476691
0.0055091786
0.0055099889
0.0055471801
0.0055843463
0.0056274835
0.005649286
0.005694645
0.0057488917
0.0058037953
0.0058653772
0.0059276788
0.0060505553
0.0061322655
0.0060693664
0.0063082601
0.0051224512
0.0049581688
0.0045388287
0.0038683865
0.0025563221
0.00174328
0.0017874572
0.0019276304
0.0024244271
0.0029240526
0.0045482106
0.0032622938
0.004188185
0.0040140476
0.0055997042
0.0061457222
0.0036223072
0.0030285416
0.0028248996
0.0024700666
0.0020714562
0.0017657265
0.0025309114
0.0029987827
0.0041111679
0.004215589
0.0037963726
0.0063166217
0.0060820566
0.0055539596
0.0058888627
0.0063310656
0.0062588552
0.0061955471
0.0059854991
0.0060696779
0.0059866156
0.0059181826
0.0058603826
0.0058071442
0.0057556801
0.0056550512
0.0057155245
0.0056789251
0.0056398869
0.0055973432
0.0055311254
0.005589668
0.0055666151
0.0055383119
0.0055072878
0.0055235998
0.0054885028
0.0054603193
0.0054273567
0.0053926267
0.0053564802
0.0053711727
0.0053419622
0.0053175922
0.0052816688
0.0052399591
0.005190425
0.0051314501
0.0050609458
0.0049854858
0.0050294654
0.0050037817
0.0049617245
0.0049188757
0.005035536
0.0049202727
0.0048903687
0.0050908703
0.0051112985
0.0050142284
0.005058089
0.0051000661
0.0051500586
0.0051696043
0.0052334942
0.0052884613
0.0053343417
0.0053702812
0.0053989826
0.0054145818
0.0054064753
0.0054522968
0.0054891102
0.0055198221
0.0055478682
0.0055717888
0.0055753144
0.0056204473
0.0056597941
0.0056904948
0.0057269926
0.0057340562
0.005775699
0.0058167352
0.0058624712
0.0058940058
0.0059439553
0.0060007675
0.0060822233
0.0061509849
0.0062347536
0.0063461588
0.0064528287
0.0066500316
0.0065313536
0.0059150434
0.0054746927
0.0048801218
0.0045643673
0.004050523
0.0041999747
0.0049140703
0.0061173794
0.0066905694
0.0068135636
0.0066406825
0.0065241705
0.0063969702
0.0063222313
0.0062551547
0.0061721828
0.0061056057
0.0060457599
0.0059877941
0.0058880774
0.0059469063
0.0059030141
0.0058590971
0.0058137105
0.0057432034
0.0057960287
0.0057693867
0.0057363435
0.0057002241
0.0057019147
0.0056653375
0.0056389541
0.0056052681
0.0055680854
0.0055287103
0.0055405854
0.0055156857
0.005493859
0.0054572572
0.0054116744
0.005357586
0.0052922983
0.005215637
0.0051356611
0.0051782722
0.0051434586
0.0050991493
0.0050498371
0.0050815664
0.0050313108
0.0050658412
0.0049932233
0.0050800276
0.0051377886
0.0051949961
0.0052338257
0.0052899727
0.0053133498
0.005382511
0.005442532
0.0054921627
0.0055324329
0.0055629244
0.0055762544
0.0055768803
0.0056259957
0.0056682143
0.0057033865
0.0057334871
0.0057557708
0.0057703347
0.0058196422
0.0058641328
0.0059019922
0.0059366989
0.0059359225
0.0059850631
0.0060319328
0.0060816579
0.0060990173
0.0061605178
0.0062238318
0.0063099245
0.0063832823
0.0064696508
0.0066049625
0.0066828607
0.0067761507
0.006311795
0.0059991938
0.0055559214
0.0051821631
0.0045364071
0.0036383525
0.0022240533
0.0018555704
0.0022875136
0.0025417179
0.0020091194
0.001920806
0.0030798082
0.0038050512
0.0036944668
0.0043317308
0.0050546234
0.0053434473
0.006904297
0.0069161308
0.0067011582
0.0067831277
0.0068151101
0.0067290955
0.0065990868
0.006518909
0.0064482489
0.006372802
0.006300007
0.0062381066
0.0062116588
0.0061553383
0.0061111067
0.0060663703
0.0060602487
0.0060225737
0.0059909583
0.0059503236
0.0059051904
0.0059001288
0.0058582624
0.0058263589
0.0057891703
0.0057474466
0.0057030101
0.0057069119
0.0056719816
0.0056438992
0.0056025124
0.0055543107
0.0054972146
0.0054280547
0.005346591
0.0052663484
0.0053057768
0.0052809858
0.0052348419
0.0051860314
0.0053093891
0.0051983631
0.0052089468
0.0050932627
0.0062954388
0.0062696975
0.0062308843
0.0061601589
0.0059626179
0.0058983002
0.005799161
0.0057190641
0.0055512833
0.0054761258
0.0053499705
0.0052595521
0.0051299508
0.0050450511
0.0049256374
0.0048404754
0.004710655
0.004618446
0.0044938112
0.0043990131
0.0042270481
0.0040650984
0.0038555698
0.0035276241
0.0032735825
0.0030292297
0.0032988778
0.0036071495
0.0038346716
0.0040095437
0.0041666866
0.004288035
0.0044100907
0.0044995619
0.0045962428
0.0046416746
0.0047119202
0.0047305656
0.0049167523
0.0050941884
0.0053230071
0.0048048792
0.0049976653
0.0058814732
0.0058594602
0.0081868887
0.0084461487
0.0094702812
0.010710339
0.0099867133
0.0088766414
0.0085561923
0.0077285287
0.007927059
0.0075309837
0.007272577
0.0076702258
0.031181921
0.030841331
0.030464837
0.030051997
0.029604224
0.029122074
0.028607906
0.028063019
0.027490523
0.026892239
0.026271756
0.025631196
0.02497428
0.024303098
0.023621261
0.022930717
0.022234864
0.021535465
0.020835548
0.020136576
0.019441141
0.018750411
0.018066588
0.017390568
0.016724131
0.016067908
0.01542332
0.014790788
0.014171348
0.013565231
0.012973237
0.012395531
0.01183276
0.011285052
0.010752912
0.010236332
0.0097355885
0.0092505911
0.0087814784
0.0083280906
0.0078904666
0.0074683601
0.0070612321
0.006856414
0.0072650061
0.00768754
0.008125619
0.0085792481
0.0090485653
0.0095335562
0.010034589
0.010551275
0.011083811
0.011632092
0.012195997
0.012774843
0.013368187
0.01397553
0.014596488
0.015230117
0.015876134
0.016533697
0.017201896
0.017879669
0.018565853
0.019259016
0.019957522
0.020659567
0.021363306
0.02206664
0.02276727
0.023462749
0.0241504
0.024827436
0.025490891
0.026137927
0.026765692
0.027371231
0.027951651
0.028504318
0.029026801
0.029517024
0.029973258
0.030394134
0.03077875
0.031130014
0.031140245
0.030794226
0.030411841
0.029993109
0.029539736
0.029052909
0.028534242
0.027985713
0.027409538
0.026808412
0.026185174
0.025542788
0.02488303
0.024209323
0.02352592
0.022835182
0.022139482
0.02144111
0.020742276
0.020045045
0.019350644
0.018661759
0.017979944
0.017306505
0.016641989
0.015987739
0.01534469
0.014713844
0.014095952
0.013491735
0.012901732
0.012326429
0.011766214
0.011221858
0.010693192
0.010180381
0.0096834512
0.009202734
0.0087379392
0.0082890051
0.0078558256
0.0074384234
0.0070358203
0.006867545
0.0072794142
0.0077052697
0.0081469521
0.0086045551
0.0090779604
0.009567105
0.010072253
0.010593022
0.011129421
0.011681156
0.012248516
0.012830526
0.013427648
0.014038637
0.014663815
0.015301602
0.015952014
0.016613353
0.017284695
0.017964437
0.018652084
0.019346252
0.02004574
0.020747216
0.021449737
0.022151101
0.022849037
0.023540638
0.024226385
0.024908846
0.025572614
0.026216689
0.026840927
0.027442509
0.028018979
0.02856641
0.029083474
0.029568213
0.03002042
0.030439971
0.030822663
0.031170043
0.03121579
0.03087708
0.03050179
0.030089808
0.029645406
0.02916623
0.028653304
0.028109703
0.027535808
0.026936986
0.026315
0.025672791
0.025011888
0.024336869
0.023657798
0.022969338
0.022270465
0.021568191
0.020865013
0.020162779
0.019461487
0.018765387
0.018075375
0.017392548
0.016717845
0.016053612
0.015400812
0.014764766
0.014140804
0.013532423
0.012936567
0.012357066
0.011790321
0.011236976
0.010698896
0.01017682
0.0096701893
0.0091799325
0.0087061138
0.0082484417
0.0078098418
0.0073883869
0.0069823826
0.0067496626
0.007168392
0.0075979775
0.0080450586
0.0085066379
0.0089823071
0.0094771786
0.0099864128
0.010509879
0.011049242
0.011607508
0.012185884
0.012779981
0.013389759
0.014014903
0.014654878
0.015308642
0.015975519
0.016652883
0.01734319
0.018034586
0.018729783
0.019435344
0.020144202
0.020851522
0.021558091
0.022266576
0.02297063
0.023663337
0.02435051
0.025035042
0.02569984
0.026343191
0.026965454
0.027567291
0.028143136
0.02868693
0.029199114
0.029677248
0.030123172
0.030534127
0.030906171
0.031242291
0.031569978
0.031275881
0.030944376
0.030574345
0.030166783
0.029726349
0.029250326
0.028738991
0.028196485
0.027623925
0.027026382
0.026405849
0.025764879
0.025104582
0.024429294
0.023747865
0.023055452
0.022351875
0.021643449
0.020932093
0.020221132
0.019511348
0.018806022
0.018107466
0.017416841
0.016734398
0.016061907
0.015400794
0.014756865
0.014125
0.013509183
0.012905858
0.012319059
0.011745155
0.011184695
0.010640145
0.010111636
0.0095993446
0.0091040457
0.0086256861
0.0081639501
0.0077218496
0.0072957126
0.0068836474
0.0066797812
0.0070998564
0.007531266
0.0079805947
0.0084456003
0.0089260872
0.0094257644
0.0099455277
0.010482026
0.011035082
0.011603668
0.012186995
0.012787819
0.013397487
0.014019339
0.01465528
0.015303934
0.015965139
0.016637646
0.017320683
0.018012019
0.018714622
0.01942902
0.020147218
0.020867346
0.021587243
0.022303374
0.023017119
0.02371587
0.024404719
0.02508902
0.025751643
0.026392866
0.027013206
0.027612433
0.028188774
0.028735492
0.029251165
0.029729554
0.030172697
0.030582714
0.030954905
0.031287377
0.031584546
0.031602827
0.031310398
0.030980412
0.030612077
0.030205555
0.029765804
0.02928993
0.028778349
0.028233893
0.027659168
0.027059642
0.026438021
0.025795868
0.025134461
0.024457179
0.023773424
0.023077824
0.02237067
0.021662868
0.020949545
0.020237649
0.019523563
0.018810733
0.018104528
0.017406962
0.016718452
0.016041919
0.015377688
0.014726226
0.01408789
0.013464504
0.012855576
0.012265576
0.011689583
0.011127093
0.010580211
0.010049159
0.0095342733
0.0090367873
0.0085568261
0.0080937853
0.0076509028
0.0072257225
0.0068157797
0.0066191696
0.0070383293
0.0074691704
0.0079182327
0.008383092
0.0088627634
0.0093608924
0.0098814614
0.010413053
0.010959214
0.011523759
0.01210818
0.012710048
0.013321946
0.013947887
0.014595775
0.01525009
0.015913963
0.016592616
0.017287434
0.0179912
0.018702402
0.019419492
0.020140775
0.020863577
0.021586097
0.022304847
0.023021483
0.023723203
0.024414674
0.025102442
0.025770206
0.026416603
0.02704161
0.027644532
0.028227015
0.028774319
0.029286499
0.029764047
0.030208387
0.03061677
0.030985976
0.031316837
0.031613334
0.031634617
0.031342229
0.031011627
0.030642328
0.030234825
0.029793844
0.029316446
0.02880271
0.028255523
0.027677019
0.027072644
0.026444565
0.02579662
0.025130213
0.024449662
0.023763161
0.023065064
0.022355425
0.021644935
0.020928771
0.020213875
0.019496992
0.018780626
0.018069224
0.01736509
0.016669845
0.015986564
0.015316603
0.014660012
0.014016547
0.01338902
0.012776695
0.012183828
0.011605497
0.011041434
0.010493985
0.009963115
0.0094484219
0.0089510658
0.0084708686
0.0080077636
0.0075648729
0.0071399015
0.00673045
0.0065138996
0.0069318592
0.0073620315
0.007810178
0.0082788832
0.0087638543
0.0092656395
0.0097863549
0.010319039
0.010868951
0.011438896
0.012024396
0.012627661
0.013241694
0.013870092
0.014520231
0.01517857
0.015850088
0.016538632
0.017238803
0.017947381
0.018662321
0.019383218
0.020107286
0.020832817
0.021557683
0.022278382
0.022997658
0.023700364
0.024393807
0.025082164
0.025755767
0.026412277
0.027047578
0.027659034
0.02824411
0.028797345
0.029317251
0.029798797
0.030244627
0.030654482
0.031025904
0.031358434
0.03165428
0.031695088
0.031403831
0.031073357
0.030703148
0.03029443
0.029851448
0.02937136
0.028854561
0.028304183
0.02772184
0.027113003
0.026480398
0.025827002
0.025154816
0.02446823
0.02377674
0.023075756
0.022363271
0.021646648
0.020923525
0.020201981
0.019478751
0.018757209
0.018041625
0.017333625
0.016633797
0.015946098
0.015272126
0.014611466
0.013964116
0.013332862
0.012716972
0.012120726
0.011538983
0.010971851
0.01042192
0.0098888595
0.0093723081
0.0088732001
0.0083916509
0.0079272755
0.0074834231
0.0070565342
0.0066444275
0.0060859893
0.0064882666
0.0069056506
0.0073363619
0.007785604
0.0082511732
0.0087320026
0.0092316633
0.0097544495
0.010289005
0.01083896
0.011408068
0.011997527
0.012605411
0.013224066
0.013857229
0.014513121
0.015176096
0.0158488
0.01653617
0.017242567
0.017951348
0.018664215
0.019386014
0.020117935
0.02085165
0.021585299
0.022315127
0.023042159
0.023754873
0.024457251
0.02515409
0.025838196
0.026497351
0.027131916
0.027744505
0.02833572
0.028890527
0.029408917
0.029890779
0.030337472
0.030749245
0.031121291
0.031451247
0.031742441
0.031999986
0.032073427
0.031825175
0.031540595
0.031215085
0.030848794
0.030441668
0.029998912
0.029517387
0.028997186
0.028442073
0.027853827
0.027238088
0.026599021
0.025939287
0.025259471
0.024563894
0.023861898
0.023149928
0.022427858
0.021702564
0.020970585
0.020240278
0.019508345
0.01877861
0.018056038
0.017342126
0.016637555
0.015945427
0.015266399
0.014601175
0.013949726
0.013314322
0.012694995
0.012095763
0.011511321
0.01094169
0.010389158
0.0098538439
0.0093351943
0.0088345274
0.0083516798
0.0078864197
0.0074417602
0.0070142664
0.0066022337
0.0062062798
0.0056545125
0.0060401218
0.0064402981
0.0068587251
0.0072910559
0.0077418682
0.0082132984
0.0087020614
0.0092101591
0.0097322909
0.010271658
0.010831472
0.011411217
0.012001953
0.012607472
0.013229783
0.013867735
0.014521021
0.015192543
0.01587636
0.016571601
0.017278113
0.017993923
0.01872198
0.019462132
0.020205379
0.020952858
0.021694633
0.022429721
0.023164462
0.023890136
0.024605754
0.025316365
0.026003237
0.026667754
0.027313119
0.027937784
0.028532397
0.029093137
0.029619383
0.030103285
0.03054819
0.030953843
0.03131694
0.031638243
0.031919042
0.032162186
0.032368992
0.032480959
0.032285094
0.032051392
0.031780123
0.031466273
0.031111655
0.030712143
0.03027287
0.029791958
0.029269897
0.028711812
0.028117342
0.027491759
0.026841333
0.026169788
0.025477235
0.024766288
0.024047382
0.023315967
0.022572808
0.021825955
0.02107611
0.020331229
0.019585527
0.018841872
0.018105998
0.017380205
0.016665483
0.01596349
0.015279591
0.014611041
0.013955721
0.013313691
0.012687692
0.012078547
0.011485852
0.010910149
0.010352447
0.0098133145
0.0092919404
0.0087884467
0.0083031969
0.007835736
0.0073893855
0.0069605907
0.0065476549
0.0061516218
0.0057720718
0.0056053074
0.0059891626
0.0063888746
0.0068066907
0.007238668
0.0076899859
0.0081583028
0.0086429053
0.0091486921
0.0096711502
0.010209876
0.010766142
0.011343847
0.011937405
0.012546129
0.013171614
0.013816029
0.014481026
0.015163353
0.015855396
0.016562023
0.017286824
0.018022882
0.018768909
0.019522436
0.020281763
0.021046163
0.021805539
0.022561992
0.023323376
0.024068062
0.024801433
0.025531291
0.026237672
0.026919558
0.02757885
0.028211598
0.028816745
0.029386471
0.029918324
0.030407158
0.030851833
0.031252852
0.031607291
0.031917524
0.032184111
0.032251061
0.032138679
0.032267357
0.028333715
0.028384033
0.028623138
0.02900971
0.029491461
0.030042612
0.030684929
0.030942663
0.030485389
0.029981756
0.029435201
0.028853267
0.028235506
0.027588502
0.026918551
0.026229338
0.025518475
0.024790614
0.024056604
0.023311431
0.022554542
0.021794581
0.021033727
0.020280357
0.019528135
0.018779508
0.018038676
0.017307718
0.016586941
0.015879735
0.015187569
0.014515118
0.013856192
0.013211486
0.012583856
0.011974118
0.011381759
0.010807404
0.010251312
0.0097137652
0.0091939527
0.00869253
0.0082095455
0.0077444447
0.007300211
0.0068734287
0.0064625062
0.0060685122
0.0056911256
0.0055174683
0.0058972853
0.0062927324
0.006706009
0.0071330632
0.0075789029
0.0080415353
0.0085201411
0.0090194902
0.0095347151
0.010066053
0.010614526
0.011180063
0.011762707
0.012360971
0.012977669
0.013616757
0.014264995
0.014924984
0.015602019
0.016299418
0.01700194
0.017711591
0.018429538
0.019158508
0.019892983
0.020631962
0.0213791
0.022128487
0.022870746
0.023602904
0.024330933
0.025058394
0.025766436
0.026454328
0.027129012
0.027794615
0.028437784
0.029055324
0.029647178
0.029434045
0.028618629
0.027892461
0.027213339
0.026548947
0.025922968
0.025383784
0.024969513
0.024726222
0.021279183
0.021506447
0.021948249
0.022545806
0.023245886
0.023997475
0.024761308
0.025568051
0.026446123
0.027462203
0.028519467
0.027866386
0.027211509