/*--------------------------------*- C++ -*----------------------------------*\
| =========                 |                                                 |
| \\      /  F ield         | OpenFOAM: The Open Source CFD Toolbox           |
|  \\    /   O peration     | Version:  v2012                                 |
|   \\  /    A nd           | Website:  www.openfoam.com                      |
|    \\/     M anipulation  |                                                 |
\*---------------------------------------------------------------------------*/
FoamFile
{
    version     2.0;
    format      ascii;
    class       volScalarField;
    location    "100";
    object      omega;
}
// * * * * * * * * * * * * * * * * * * * * * * * * * * * * * * * * * * * * * //

dimensions      [0 0 -1 0 0 0 0];


internalField   nonuniform List<scalar> 
120695
(
12.366121
14.234119
18.325768
27.248742
47.1769
93.912372
177.06091
416.83006
427.9099
491.68091
435.64569
432.66234
368.94401
351.90755
297.10639
285.25374
276.29151
245.39011
235.6931
226.22551
199.49892
191.92201
186.17343
180.40057
166.56885
161.04126
156.72839
152.74258
142.6327
135.35874
133.08613
131.24217
129.00984
126.06053
123.61579
121.27299
115.51281
112.93454
111.01437
109.3491
107.91202
106.6756
103.28101
100.69557
99.986725
99.417558
98.775452
98.362748
97.285082
93.366008
91.58361
87.347292
86.287873
85.710366
85.087229
84.405267
83.662081
82.997302
82.364699
81.794229
81.280114
80.787925
80.351784
79.977412
79.638721
79.385037
79.226546
78.054454
76.739978
76.690056
76.529085
76.318715
75.967567
75.591585
75.34147
74.449416
70.510605
67.590882
66.781896
66.088844
65.375691
64.637582
63.897668
63.146123
62.404134
61.657866
60.925795
60.196038
59.485808
58.78058
58.085819
57.395703
56.729877
56.112738
55.531137
55.007425
54.797953
54.589391
54.247743
53.755935
53.360712
52.57527
51.641946
51.326836
51.043762
50.700468
49.954417
49.371632
48.88752
48.453049
48.050876
47.672603
47.324614
46.988606
46.658708
46.337425
46.028809
45.739059
45.474586
45.221269
44.978219
44.742798
44.516068
44.308259
44.015049
43.461781
42.238991
41.823823
41.549141
41.348934
41.162234
41.086446
41.048234
40.9662
40.786951
40.631857
40.588008
40.532192
40.372771
40.244407
40.153937
40.068203
39.987646
39.910987
39.839532
39.773269
39.714986
39.661345
39.592572
39.519906
39.339482
38.58037
38.335419
38.208373
38.127046
38.128329
38.153534
38.156367
38.062276
38.091858
38.112819
38.047279
38.00304
37.979601
37.967241
37.963371
37.971159
37.991574
38.02129
38.045557
38.115136
38.188178
38.286334
38.468791
38.290869
37.385415
37.240416
37.2458
37.321742
37.419887
37.513484
37.494481
37.57621
37.652981
37.657392
37.66998
37.695879
37.728335
37.765795
37.808191
37.851612
37.888687
37.928492
37.875359
37.136171
36.992353
36.99008
37.0691
37.177231
37.27726
37.266002
37.350005
37.428444
37.430155
37.441737
37.473035
37.516038
37.565052
37.624542
37.67682
37.770648
37.866498
37.994889
38.203957
38.010292
37.156258
37.187206
37.28102
37.393248
37.495256
37.468707
37.567364
37.669804
37.687412
37.715876
37.760848
37.816238
37.877657
37.956472
38.048288
38.175892
38.345366
38.498207
38.737296
38.512633
37.635809
38.060548
45.821315
47.058519
44.483105
12.942747
14.664761
14.660732
14.427702
13.806021
13.413695
12.895347
13.525476
14.329821
15.872671
16.827119
18.486164
19.528684
17.73538
32.651962
57.898096
62.019023
92.83875
164.78357
387.04956
380.87555
464.79446
432.95485
440.07689
382.87225
368.38649
310.26323
293.56834
285.35435
250.19894
237.34487
230.14453
202.31492
192.08248
185.53837
180.85798
166.11667
159.29156
154.63266
151.19787
146.58487
141.79875
137.16276
132.11375
141.1023
143.9807
146.61352
150.04042
153.16481
167.92372
172.31064
177.07925
180.60864
206.31033
213.11762
217.16431
251.39559
257.305
260.75699
314.49867
314.68901
383.88715
355.04746
433.83871
489.92586
315.29977
119.57551
110.45524
49.807039
65.696696
31.400899
28.418088
49.306391
93.104322
112.78103
165.99533
228.82577
399.521
343.26865
177.59568
235.90657
286.89569
340.93787
334.27007
196.56609
303.54478
292.90208
180.81285
321.10277
334.71577
412.73988
447.69877
386.84262
382.19751
382.48017
327.32432
315.56987
309.61941
267.47499
255.77554
248.50143
243.45162
218.82272
211.14256
204.27618
199.15493
180.40815
175.02487
170.3703
166.34929
162.94615
152.47607
149.07812
145.10749
141.87076
138.65106
129.35396
127.43315
129.01314
129.19094
128.38227
125.74718
123.47169
121.73425
116.24426
113.30802
111.25873
109.49853
107.88018
106.7933
105.39673
103.90986
102.72395
100.84743
104.46799
105.62119
106.92835
108.48601
110.10104
111.86974
114.07591
121.17005
123.30658
126.0108
124.88555
122.70255
120.52796
114.06375
112.46331
110.46365
108.71373
107.07388
105.54294
104.06339
100.1947
99.158528
99.276134
98.991638
99.006769
99.040637
98.587036
97.800422
96.822018
94.28162
93.853755
92.076508
91.171557
95.800395
95.773694
96.645045
97.670106
98.501949
100.00385
103.93531
104.952
106.39688
107.96001
109.6182
111.3701
113.48737
119.86707
121.52992
123.53362
125.6892
128.37672
137.95994
140.45196
143.55261
146.98603
151.25491
165.26719
169.00265
173.3452
176.22321
197.98803
203.33026
208.71219
238.56918
243.8168
246.14771
295.17254
301.36125
355.32564
346.52049
397.68904
398.50721
399.35343
406.05846
258.15743
183.4824
348.14776
357.2213
394.61565
350.0738
330.78921
348.59083
294.32666
292.23529
287.67677
254.78508
250.06057
242.63302
210.80271
207.04933
201.60597
197.21132
179.2723
177.18097
172.11778
167.61523
153.54677
150.34298
146.52273
143.26367
140.34037
130.40304
127.7397
125.49387
123.34367
121.20233
114.90871
113.28348
111.25626
109.47805
107.82899
106.26746
104.84667
100.89677
99.769141
98.475348
97.385465
96.39859
91.825447
91.357605
89.430792
88.370869
86.276438
86.084712
85.736474
84.979529
84.268591
83.582019
82.942542
82.360132
81.8037
81.292027
80.834435
80.397609
79.99318
79.799938
79.470107
78.956649
78.519369
77.911768
79.676757
80.030905
80.476649
81.036473
81.546866
82.06979
82.633185
83.218164
83.848815
84.533859
85.24568
86.050059
87.477904
88.817785
89.157165
89.604092
90.748458
90.869447
90.407874
90.41984
90.203313
89.524086
89.222988
88.199446
87.205415
85.868717
85.081701
84.336239
83.641522
82.990295
82.360505
81.754486
81.179107
80.611961
80.07317
79.579946
79.225876
77.905823
77.50563
76.747102
76.746494
76.407944
75.994484
75.967815
75.710463
75.638806
76.224294
76.850705
76.93253
77.45395
77.446374
76.92078
78.780488
79.085723
79.566911
80.110249
80.692022
81.28775
81.902096
82.538306
83.176129
83.83548
84.520888
85.229085
85.957903
87.529714
89.225418
89.652759
89.925432
89.299648
87.78874
86.906987
85.679969
84.862555
84.079859
83.326106
82.598531
81.876585
81.171171
80.497092
79.828874
79.188286
78.604671
78.030834
76.231067
75.652643
76.20506
76.294788
75.649239
72.19708
72.061656
69.75634
68.152818
67.324103
66.578853
65.82716
65.073457
64.313436
63.557409
62.802717
62.054675
61.315498
60.587739
59.865042
59.14734
58.442558
57.769766
57.133239
56.473841
55.681345
55.32467
55.462904
55.137276
54.786559
54.118518
53.613588
53.476144
53.221109
50.880647
50.437275
49.676235
49.14081
49.125412
48.87879
46.977296
46.623592
46.042386
45.665521
45.708597
45.436399
44.980087
44.753958
44.84283
44.634904
44.281035
44.143409
44.201082
44.093543
43.935127
44.029031
44.174358
44.119943
44.168546
44.085458
43.979174
44.118269
44.368812
45.259892
45.488234
45.74386
46.056467
46.381524
46.771615
47.112371
47.48641
47.991895
48.355506
48.794333
49.269066
49.789527
50.341306
50.934637
51.56571
52.23491
52.936945
53.687019
54.477827
55.315575
56.202562
57.123449
58.086931
59.095605
60.148077
61.245896
62.371668
63.614784
65.000522
66.271573
67.71325
69.2562
67.524454
67.39022
65.972006
66.085502
66.325963
65.047211
63.934751
63.456532
62.621576
61.365297
60.312442
59.281914
58.282978
57.317934
56.393531
55.510473
54.652642
53.838875
53.06975
52.335831
51.645367
50.989187
50.371822
49.795446
49.257648
48.746651
48.274611
47.839357
47.431519
47.04588
46.999548
46.758127
46.285618
46.727906
46.319039
46.662658
47.024128
47.42088
47.845345
48.300896
48.791186
49.307834
49.863465
50.461142
51.097361
51.768629
52.483655
53.240019
54.0429
54.883931
55.760563
56.677557
57.638186
58.641901
59.69465
60.906383
62.184512
63.406884
64.621926
64.713978
64.100091
64
62.822728
62.896928
63.044816
61.957147
61.091168
60.569258
59.314904
58.303749
57.33037
56.38376
55.472747
54.596715
53.757009
52.953191
52.191105
51.471572
50.794924
50.161101
49.56123
49.000979
48.482084
47.992488
47.53847
47.118074
46.72222
46.35447
46.015423
45.701275
45.98696
45.897486
45.932325
45.640991
45.362016
45.063526
44.834798
44.548713
44.09406
43.746274
43.879082
44.029219
43.832709
43.674373
43.495503
43.20875
43.808088
44.03075
43.835096
43.562361
44.311978
44.620978
44.431612
44.12864
45.084192
45.483928
45.31708
44.949492
46.167771
46.591613
48.338255
48.853055
48.689638
48.218393
49.889773
50.391157
52.6187
53.213404
53.011693
52.418918
54.194481
54.592908
54.955051
54.981651
54.543583
54.296142
53.728377
53.496154
53.153483
53.634263
54.228584
54.259055
53.772239
53.454137
53.023559
52.958141
53.155132
51.492359
50.246909
49.571407
49.102183
48.289213
47.764633
47.468936
46.462002
45.943982
45.606578
44.976633
44.603493
44.40665
43.800932
43.531889
43.422438
43.286852
43.283813
43.075146
43.001496
42.91853
42.93771
42.793762
42.768162
42.762941
42.828071
42.872764
42.971086
43.23177
43.379037
43.536835
43.734118
43.968525
44.119416
44.295662
44.472636
44.633032
44.808089
45.084662
45.472951
45.695356
45.688177
45.508597
44.408913
42.656643
42.981211
43.674895
44.206609
45.862036
46.173541
46.610368
47.526368
47.863755
48.222269
48.6341
49.103257
49.578682
50.05924
50.66458
51.143152
51.717154
52.341312
53.020108
53.731891
54.457324
55.241681
56.071692
56.945108
57.870994
58.836313
59.848695
60.905243
62.006525
63.150559
64.335319
65.556177
66.937569
68.356297
69.859426
71.310754
72.509248
73.774252
72.412512
70.752159
70.641788
72.650861
74.467231
77.104872
79.051062
81.018583
83.174324
86.044326
88.424851
90.872365
93.440857
96.136438
98.974598
102.12908
106.98562
110.01869
113.48164
117.07156
121.03544
124.9025
131.48961
136.05704
140.86916
146.25181
151.55366
161.39161
167.75893
174.39199
180.74079
195.03584
203.78463
211.54264
230.88946
241.21221
250.12301
279.35218
293.00895
328.37515
336.80529
372.28699
363.85016
373.59915
293.21319
144.39226
68.226023
31.631583
21.295855
16.385104
13.698909
13.145091
12.677111
13.131786
13.887771
15.08818
18.629923
25.888137
45.992675
107.56874
231.4384
321.12951
358.26549
396.6327
393.68153
379.96821
377.96029
331.89042
328.33471
292.05889
281.41821
270.84112
248.94694
245.51736
234.04437
225.29886
209.55846
206.58994
196.92922
189.58092
177.90404
175.03726
168.10902
161.88621
156.47755
148.83854
146.72608
141.1394
136.24558
131.68667
127.73998
122.62075
121.05137
116.90709
113.27965
109.81063
106.37843
101.81997
98.6753
95.707042
92.95779
90.368123
87.889178
85.520346
83.467127
81.486291
80.487297
78.431589
76.50435
74.626736
73.041506
71.633134
70.603764
72.961244
72.357659
73.958542
75.712078
77.637028
79.706648
82.427185
84.741773
87.147846
89.653296
92.269229
95.060729
98.172679
102.75814
105.78039
109.18836
112.72124
116.41557
120.63101
127.26594
131.37885
136.04557
141.29755
146.52748
155.7934
162.04154
168.64856
174.94365
188.6189
197.07828
206.51188
225.297
235.24779
244.86366
271.46573
285.93549
321.9531
331.73715
365.79606
364.19352
371.4184
299.29143
187.26231
76.897084
92.654609
35.048957
21.75393
16.431763
14.101642
14.633338
14.271602
13.659347
13.064525
13.623767
14.597258
16.019878
17.394939
19.277254
29.008554
60.786863
149.12763
187.7899
257.03964
343.01221
372.76147
362.17766
352.55734
320.46507
316.19012
282.91856
271.26432
260.10637
241.13463
235.94939
224.16616
204.9639
196.8871
188.42725
181.56466
171.67045
168.78449
161.86382
155.66916
150.30007
143.48957
141.24051
135.6118
130.77785
126.1284
119.80567
115.93727
112.19838
108.62226
105.22666
101.8606
97.606133
94.590494
91.748691
89.103175
86.591325
84.178052
81.878918
79.862207
78.020186
77.037433
75.038894
73.293623
71.690481
69.143297
69.892857
68.404903
66.747829
68.417517
70.65832
72.448834
74.261826
76.25624
78.804952
81.03861
83.337085
85.751457
88.262684
90.923524
93.853373
98.114109
101.04677
104.3714
107.78447
111.43435
115.32281
121.50739
125.47855
130.08385
135.15662
140.39021
148.80086
154.84214
161.26298
167.6209
179.82936
187.83562
196.65768
214.1287
222.8308
233.70736
259.84167
273.75435
305.35335
316.28318
346.31483
347.65391
356.73319
312.07489
265.62194
323.71985
326.84181
334.50601
307.27279
299.16899
269.51195
256.01214
231.35761
222.46012
212.50321
195.86476
187.67938
179.24174
172.54486
163.65691
160.40081
153.87883
148.06956
143.06439
137.0196
134.66287
129.43872
124.83401
120.4582
114.66693
110.92609
107.18366
103.77241
100.48065
97.242699
93.299934
90.371056
87.655087
85.143079
82.755885
80.470471
78.278249
76.354858
74.643372
73.737858
71.866763
70.110879
68.409358
67.058548
65.774364
64.859407
66.907559
66.426557
67.868414
69.444667
71.206342
73.077189
75.433823
77.539495
79.715161
81.988869
84.363929
86.859774
89.663437
93.629101
96.39412
99.538447
102.78465
106.14791
109.9745
115.72726
119.51517
123.90006
128.56623
133.79813
142.20133
147.3188
153.0409
159.47289
171.85157
179.09286
187.94785
204.05697
212.37401
222.90563
244.3326
254.56598
264.99433
295.5656
299.9501
331.59303
331.59511
295.79001
241.01329
110.42415
42.465912
24.165865
20.823384
32.722172
70.777964
165.08932
199.30096
273.72909
304.73493
310.72171
314.4544
296.53778
290.85811
283.21678
260.34816
254.26511
241.80803
219.74251
211.15815
202.52305
186.5081
177.90695
170.08616
158.46317
152.64001
146.70965
140.99544
133.07825
128.05447
123.19148
118.79705
114.61355
109.18414
105.59746
102.19636
98.958397
95.861853
92.818659
89.110592
86.392172
83.859034
81.494009
79.241883
77.080466
75.007319
73.186553
71.558727
70.709784
68.917682
67.371048
65.94531
63.683379
64.219873
62.814455
65.010524
60.042578
58.340777
57.668737
57.712129
58.887531
59.273741
59.353101
59.606102
60.580946
61.067322
61.259683
61.399131
61.792161
62.205704
62.882559
63.292692
63.948176
64.368697
65.017232
65.430416
66.100033
66.564294
66.922149
68.34343
69.692686
71.660624
70.321309
68.571335
67.637123
67.194016
66.939712
66.990202
67.060615
67.388596
67.679564
68.410487
68.957599
70.01949
69.695902
69.275351
68.565366
73.072333
72.256037
66.351306
65.456613
49.557871
48.984989
44.870719
40.451632
36.309518
32.694977
29.31731
25.578819
21.508078
16.76174
13.972672
12.534191
10.02746
10.015331
10.007405
10.004168
10.006027
10.013432
10.026722
10.046285
10.072359
10.105246
10.14507
10.192036
10.246161
10.307571
10.376199
10.452109
10.535155
10.625337
10.722455
10.826468
10.937144
11.054408
11.178002
11.307828
11.443612
11.585238
11.732423
11.885032
12.042786
12.20554
12.373006
12.545005
12.721224
12.90144
13.085302
13.27256
13.462856
13.655905
13.851329
14.04881
14.247942
14.448389
14.649928
14.833482
14.620673
14.410341
14.202008
13.996021
13.792656
13.59222
13.394878
13.201034
13.010868
12.824647
12.642617
12.465142
12.292482
12.124859
11.962443
11.805513
11.654161
11.508586
11.368968
11.235487
11.108312
10.987626
10.873597
10.766388
10.666125
10.572935
10.486928
10.408193
10.336796
10.272765
10.216096
10.166735
10.124588
10.089528
10.061376
10.039896
10.024804
10.015764
10.012395
10.014293
10.021018
10.031901
10.03258
10.021394
10.01452
10.012433
10.01551
10.024152
10.038729
10.059571
10.086968
10.121144
10.162271
10.210472
10.265961
10.328745
10.398658
10.475697
10.559805
10.650904
10.748886
10.853623
10.965085
11.082956
11.207052
11.3372
11.473343
11.615249
11.762729
11.915545
12.073464
12.236231
12.403591
12.575273
12.750995
12.93033
13.11307
13.298897
13.487507
13.67847
13.871522
14.06631
14.262477
14.459595
14.657614
14.848303
14.632913
14.420217
14.209643
14.001513
13.7962
13.594025
13.39518
13.200026
13.00879
12.821749
12.638999
12.460955
12.287629
12.119456
11.956438
11.79902
11.647238
11.501457
11.361824
11.228584
11.101756
10.981493
10.867892
10.761333
10.661785
10.569364
10.484142
10.406264
10.335273
10.270522
10.21406
10.165269
10.123686
10.089157
10.061464
10.040468
10.025786
10.017072
10.013819
10.015589
10.02223
10.033156
10.033405
10.021923
10.014702
10.012214
10.014615
10.022561
10.036539
10.056798
10.083802
10.117584
10.158406
10.206412
10.261864
10.324665
10.393721
10.470073
10.554341
10.645825
10.744371
10.84989
10.962565
11.081891
11.207819
11.340264
11.479142
11.624067
11.774823
11.929769
12.090153
12.254902
12.424922
12.598851
12.777791
12.961688
13.149664
13.341228
13.536265
13.734152
13.934489
14.136972
14.339575
14.542628
14.746393
14.989532
14.765486
14.546306
14.328386
14.114049
13.903421
13.694289
13.489633
13.289256
13.092737
12.899111
12.708409
12.522556
12.34175
12.166219
11.996243
11.832089
11.674137
11.522924
11.377636
11.241239
11.112396
10.989332
10.873754
10.766037
10.665715
10.571899
10.485704
10.407635
10.336413
10.271394
10.214802
10.166069
10.124652
10.089954
10.062275
10.041551
10.027199
10.018879
10.015919
10.018116
10.025187
10.036435
10.055013
10.04003
10.028835
10.021964
10.019837
10.022602
10.030942
10.045408
10.066188
10.093676
10.127915
10.169129
10.217482
10.273279
10.336461
10.406139
10.483364
10.568675
10.661527
10.761885
10.869491
10.984412
11.106324
11.234916
11.370057
11.511801
11.659892
11.81406
11.972566
12.136774
12.305485
12.479745
12.658123
12.841748
13.030592
13.223573
13.420366
13.620606
13.823683
14.029177
14.23677
14.444355
14.653151
14.863788
15.085217
14.858082
14.635553
14.414067
14.195671
13.980496
13.767153
13.555881
13.348653
13.145723
12.947886
12.755407
12.567196
12.3868
12.212417
12.043549
11.880553
11.72349
11.572604
11.428002
11.290045
11.157889
11.031481
10.912468
10.800908
10.697028
10.601011
10.512285
10.432587
10.360439
10.294703
10.237505
10.188036
10.145751
10.110186
10.081151
10.058878
10.042971
10.033462
10.02955
10.030612
10.03649
10.04684
10.060903
10.067986
10.054426
10.044684
10.039265
10.038624
10.042879
10.05272
10.068697
10.091108
10.120255
10.156122
10.198846
10.248666
10.305859
10.370485
10.441643
10.52045
10.607407
10.701033
10.802482
10.910894
11.02726
11.151467
11.282628
11.420424
11.564802
11.715197
11.871489
12.033543
12.201234
12.374064
12.552016
12.733345
12.919519
13.1109
13.306562
13.506186
13.709396
13.915402
14.123708
14.334073
14.544266
14.754759
14.966254
15.184765
14.957277
14.734147
14.511886
14.292597
14.076877
13.863254
13.650406
13.444081
13.242403
13.044126
12.849111
12.658486
12.475263
12.297577
12.123075
11.956886
11.797467
11.643264
11.494118
11.351846
11.216649
11.08864
10.967941
10.854719
10.749109
10.651303
10.560678
10.479029
10.404929
10.337121
10.277672
10.225963
10.181526
10.143927
10.112601
10.088624
10.071266
10.059927
10.053975
10.053212
10.057321
10.065772
10.077908
10.089777
10.078708
10.071541
10.068743
10.070732
10.077625
10.090104
10.108717
10.133749
10.165554
10.204155
10.249763
10.302407
10.362318
10.429429
10.502976
10.584071
10.673241
10.769033
10.872619
10.98315
11.101562
11.227933
11.361607
11.502296
11.649789
11.80349
11.963037
12.128355
12.299485
12.475638
12.656839
12.841365
13.030685
13.225041
13.423365
13.625377
13.830929
14.039243
14.249947
14.462636
14.675106
14.887764
15.101276
15.353939
15.123761
14.897593
14.672409
14.447558
14.225933
14.007572
13.791835
13.582234
13.376315
13.173493
12.97575
12.782335
12.596176
12.415489
12.238122
12.068642
11.905083
11.746504
11.594467
11.449553
11.311966
11.181578
11.058678
10.943205
10.835362
10.735286
10.642187
10.558144
10.481306
10.410889
10.347855
10.292053
10.243543
10.202133
10.167641
10.140036
10.118879
10.104111
10.094898
10.090839
10.091587
10.096759
10.105788
10.125458
10.118281
10.115066
10.116261
10.122214
10.13304
10.149397
10.171804
10.200508
10.235881
10.27794
10.326856
10.382745
10.445803
10.516004
10.592418
10.675893
10.767162
10.865576
10.971938
11.085199
11.20631
11.33518
11.47115
11.614036
11.763866
11.919914
12.081785
12.249529
12.423144
12.601848
12.785672
12.972901
13.165091
13.362389
13.563619
13.768573
13.977068
14.188418
14.402143
14.617914
14.833374
15.049666
15.267489
15.709147
15.478539
15.249591
15.023951
14.798911
14.576518
14.357475
14.14037
13.923788
13.713546
13.507804
13.305362
13.106182
12.911282
12.723755
12.541829
12.363061
12.192604
12.029139
11.871127
11.71745
11.572526
11.43516
11.303914
11.178526
11.060465
10.949853
10.846896
10.751023
10.663754
10.583786
10.510209
10.443628
10.385127
10.333931
10.289217
10.250531
10.218997
10.193903
10.174706
10.160817
10.151818
10.147618
10.147958
10.152213
10.159833
10.191072
10.186628
10.185579
10.188436
10.19557
10.207373
10.223888
10.245778
10.273563
10.307439
10.347753
10.394494
10.44767
10.507391
10.574019
10.647715
10.727555
10.814303
10.908466
11.009428
11.118148
11.233572
11.356689
11.487348
11.624759
11.768772
11.919401
12.076058
12.23861
12.406918
12.580997
12.760213
12.944426
13.131995
13.324495
13.522068
13.723668
13.928974
14.137861
14.349437
14.56328
14.779011
14.994419
15.210582
15.427956
15.645579
16.124128
15.894309
15.665905
15.437238
15.211585
14.986638
14.76223
14.540573
14.321119
14.106913
13.896496
13.688964
13.484843
13.288093
13.096736
12.910267
12.729186
12.553601
12.382457
12.21794
12.059845
11.908021
11.762716
11.623004
11.488963
11.362272
11.242184
11.130522
11.026518
10.928634
10.838086
10.754445
10.676634
10.606979
10.544225
10.487464
10.436525
10.392016
10.353767
10.321357
10.294982
10.273805
10.257481
10.245765
10.238254
10.234523
10.234215
10.237084
10.2891
10.292419
10.298982
10.308883
10.322569
10.340214
10.36234
10.388936
10.420473
10.457342
10.499555
10.547584
10.601494
10.661072
10.72633
10.797852
10.876116
10.960132
11.050943
11.149057
11.253762
11.365269
11.482491
11.606835
11.738451
11.876514
12.020757
12.171096
12.327287
12.487862
12.653504
12.824845
13.002296
13.184948
13.37245
13.564757
13.761627
13.962473
14.166746
14.374323
14.584847
14.797698
15.012541
15.227004
15.442156
15.658409
15.87454
16.090092
16.386823
16.162258
15.938353
15.714382
15.493363
15.272709
15.054643
14.839708
14.625974
14.41637
14.211048
14.009778
13.81118
13.61804
13.430258
13.247361
13.068714
12.894071
12.724413
12.562046
12.405094
12.252697
12.106481
11.9665
11.833015
11.705984
11.585022
11.471784
11.364981
11.262969
11.168799
11.080814
10.997583
10.921458
10.851546
10.786559
10.726368
10.670595
10.619673
10.573416
10.53198
10.495104
10.462567
10.434475
10.410673
10.390892
10.374801
10.362189
10.352835
10.447182
10.470874
10.498379
10.529879
10.565563
10.605873
10.650836
10.700576
10.75465
10.812568
10.873466
10.93683
11.002909
11.071609
11.142828
11.216945
11.296129
11.380216
11.468362
11.561743
11.661171
11.766049
11.876504
11.991508
12.112538
12.239894
12.373149
12.512212
12.657249
12.807774
12.963578
13.123344
13.288721
13.45988
13.635974
13.816676
14.00198
14.191569
14.385075
14.58212
14.782619
14.986018
15.191784
15.399634
15.607359
15.815953
16.025736
16.23544
16.444503
16.82531
16.61191
16.399284
16.186811
15.97756
15.769101
15.563516
15.361421
15.160956
14.965164
14.773847
14.586894
14.404509
14.226818
14.054428
13.886386
13.721524
13.564277
13.413228
13.26676
13.123944
12.988724
12.859716
12.736201
12.617032
12.503119
12.393916
12.288457
12.187213
12.091293
11.999993
11.911699
11.825415
11.742784
11.66288
11.583459
11.501653
11.41807
11.332279
11.24404
11.154038
11.065774
10.981691
10.902829
10.82979
10.762919
10.702028
10.646861
10.597221
10.758453
10.847364
10.947228
11.057787
11.179242
11.312212
11.456514
11.609162
11.764835
11.91741
12.059676
12.188837
12.305338
12.409691
12.502512
12.585302
12.666073
12.744435
12.821659
12.89822
12.975803
13.055663
13.137312
13.221896
13.30881
13.399375
13.494325
13.59377
13.69808
13.807882
13.923253
14.043969
14.17009
14.302175
14.440087
14.583486
14.732344
14.886733
15.046301
15.210953
15.380439
15.554594
15.732949
15.914854
16.100065
16.286371
16.474637
16.665033
16.856154
17.047243
17.667404
17.485425
17.305829
17.128446
16.956286
16.787277
16.623543
16.465742
16.31234
16.165996
16.02655
15.894043
15.767747
15.646235
15.533931
15.429378
15.330645
15.239599
15.155761
15.078403
15.007251
14.942155
14.883092
14.829133
14.778059
14.729309
14.681282
14.632981
14.585229
14.539402
14.494641
14.448452
14.397906
14.340186
14.272373
14.193735
14.09703
13.973798
13.821947
13.639033
13.42207
13.164388
12.871389
12.563487
12.264049
11.987472
11.735361
11.504901
11.297067
11.114995
11.457889
11.782695
12.177655
12.637137
13.133171
13.656151
14.223367
14.831173
15.416593
15.919775
16.315513
16.623457
16.86051
17.037658
17.161215
17.235015
17.279622
17.295609
17.286131
17.257982
17.22096
17.184683
17.154047
17.127576
17.101059
17.069848
17.033747
16.995835
16.960778
16.932943
16.91409
16.903447
16.899875
16.903786
16.916198
16.937774
16.968376
17.008243
17.057527
17.116008
17.183921
17.261168
17.347779
17.443437
17.547581
17.659797
17.778136
17.903137
18.034727
18.17134
18.311578
18.454558
19.677921
19.572738
19.474866
19.387147
19.310742
19.248257
19.197872
19.161103
19.138589
19.129483
19.135357
19.155754
19.190648
19.24053
19.303061
19.379207
19.467946
19.569235
19.683487
19.810043
19.945131
20.08764
20.246682
20.429426
20.630056
20.831168
21.016647
21.178848
21.325583
21.478409
21.658695
21.874328
22.109167
22.326793
22.494623
22.600615
22.645923
22.638538
22.551705
22.381722
22.116503
21.730998
21.173
20.36657
19.330702
18.224488
17.185359
16.180279
15.112945
14.030731
13.114043
12.400737
11.8532
11.444679
11.650441
12.288944
13.108634
14.327057
15.958481
18.138831
20.823847
23.108915
24.680782
26.088153
27.70996
29.51585
30.925067
31.725634
32.19853
32.47576
32.609721
32.635778
32.575412
32.373959
32.02017
31.491162
30.726974
29.877648
29.217271
28.76639
28.448713
28.191582
27.842045
27.374088
26.809066
26.216991
25.725959
25.362053
25.048558
24.740645
24.296679
23.903229
23.538604
23.212802
22.914594
22.63545
22.379256
22.153199
21.955588
21.784181
21.64039
21.521761
21.425351
21.349117
21.294893
21.264376
21.257014
21.270227
21.298502
23.77585
23.809513
23.877099
23.986367
24.141648
24.33922
24.569785
24.832046
25.121882
25.459991
25.719795
26.002125
26.33593
26.730093
27.100091
27.386313
27.610008
27.888307
28.189389
30.39096
30.685929
30.90981
31.17609
31.323715
31.557249
31.76808
32.181392
32.61923
33.325266
34.002592
34.793776
35.346691
35.934268
36.383788
36.968928
37.266963
37.377541
37.52532
37.781524
38.014823
38.465564
38.849631
39.528518
40.313174
41.874739
43.791876
45.375582
46.745901
46.504813
46.784823
47.441032
47.916569
48.60598
49.120162
49.807768
50.359353
51.03772
51.607975
52.271277
52.848234
53.460657
54.01864
54.599016
55.119652
55.693389
56.187757
56.309026
54.94157
54.51952
52.53729
51.500155
50.897372
50.523391
50.149939
49.714321
49.611799
33.387881
34.098359
32.655165
30.763458
27.976342
25.258974
22.911749
20.896202
19.097666
17.647024
19.202268
15.092236
12.612549
11.500634
12.730919
13.350306
14.572372
16.346274
19.392109
23.082835
27.91472
33.297558
39.800375
44.86364
48.008032
51.820553
56.197764
62.418668
66.10351
88.246839
90.718399
93.989928
92.786954
91.267608
88.96052
87.015738
86.391651
90.102538
87.519243
83.870952
81.458129
79.686556
77.707838
74.185713
68.014577
65.345952
62.530265
52.009468
41.934316
35.466715
27.333586
21.64188
17.222313
14.588395
17.41761
14.715813
13.045819
12.343018
12.732365
14.568924
13.892874
16.763432
22.043977
31.351087
22.369135
32.565632
42.00723
55.596884
62.33458
66.081918
72.756732
79.522286
86.935168
92.101318
104.02904
111.35155
105.99494
97.737763
90.381676
79.445379
101.91305
77.344639
99.122604
131.06078
124.85241
111.65868
89.505901
63.429501
53.703883
84.672593
121.5022
145.21002
155.40126
154.6643
152.14321
150.96343
186.5272
141.98964
145.99346
152.48009
166.38842
150.36105
114.58853
114.96601
95.628727
84.596471
70.162525
83.54234
104.08681
138.13442
115.52415
156.60567
164.53902
149.14183
220.95051
162.34278
170.3214
157.56763
129.27453
103.19891
68.683659
36.102605
28.625879
19.167709
22.052425
15.017391
15.799613
18.380686
28.379542
39.979202
33.571334
27.296591
36.52256
53.185051
46.05367
100.74738
139.97562
164.81732
172.92574
166.218
159.23701
279.76
138.18719
158.10778
173.73441
217.04653
188.65686
120.80143
114.68545
91.875426
113.71207
144.87236
151.76251
70.755831
83.519755
54.751305
32.780654
21.914606
14.510929
12.45367
11.479044
15.324944
15.324113
15.304521
15.285261
15.230682
15.176123
15.202848
15.252266
15.243546
15.261513
15.26484
15.268068
15.270479
15.258392
15.274579
15.182875
14.989553
14.766898
14.94826
15.031404
15.016358
15.025745
15.023535
15.019424
15.017426
14.997954
15.006723
14.960307
14.935235
14.984897
15.038788
15.05609
15.075951
15.076852
15.081689
15.055841
14.781934
14.786722
14.785799
14.781617
14.809612
14.834211
14.832471
14.830069
14.810613
14.795637
14.741528
14.69598
14.7204
14.764773
14.754986
14.774241
14.776296
14.780096
14.783793
14.77743
14.790946
14.716056
14.545673
14.328263
14.485823
14.555401
14.540108
14.546684
14.542272
14.537962
14.536549
14.516978
14.525148
14.48378
14.460445
14.503021
14.554631
14.568077
14.589525
14.590134
14.593231
14.56738
14.542467
14.545534
14.544693
14.540325
14.550574
14.344343
14.319701
14.311022
14.303699
14.306168
14.309302
14.308051
14.328807
14.355674
14.350438
14.352837
14.328981
14.314814
14.267538
14.228755
14.249854
14.289226
14.281653
14.302441
14.302729
14.308239
14.312341
14.305423
14.323178
14.258388
14.11222
13.900752
14.036405
14.093855
14.074906
14.082177
14.076639
14.069851
14.070605
14.050446
14.05657
14.02006
13.999925
14.034852
14.081085
14.093993
14.119056
14.116362
14.121767
14.094396
14.076634
14.076095
14.073586
14.070218
14.076663
14.084754
14.107615
14.082632
14.076477
13.818403
13.837788
13.848746
13.845135
13.853221
13.875994
13.854612
13.845732
13.840312
13.844724
13.846391
13.846674
13.863203
13.890897
13.88528
13.886738
13.862262
13.851349