/*--------------------------------*- C++ -*----------------------------------*\
| =========                 |                                                 |
| \\      /  F ield         | OpenFOAM: The Open Source CFD Toolbox           |
|  \\    /   O peration     | Version:  v2012                                 |
|   \\  /    A nd           | Website:  www.openfoam.com                      |
|    \\/     M anipulation  |                                                 |
\*---------------------------------------------------------------------------*/
FoamFile
{
    version     2.0;
    format      ascii;
    class       volScalarField;
    location    "283";
    object      nut;
}
// * * * * * * * * * * * * * * * * * * * * * * * * * * * * * * * * * * * * * //

dimensions      [0 2 -1 0 0 0 0];


internalField   nonuniform List<scalar> 
74500
(
0.033524466
0.033524466
0.033524466
0.033524467
0.033524467
0.033524467
0.033524467
0.033524467
0.033524466
0.033524466
0.033524466
0.033524465
0.033524465
0.033524464
0.033524463
0.033524463
0.033524462
0.033524461
0.033524461
0.033524464
0.033524475
0.033524495
0.033524526
0.033524526
0.033524558
0.033524431
0.033524509
0.03352433
0.033524369
0.033524198
0.033524267
0.033524137
0.033524182
0.033524063
0.033524175
0.033524189
0.033524234
0.033524253
0.033524274
0.0335243
0.033524328
0.033524353
0.033524373
0.033524386
0.03352439
0.033524384
0.033524367
0.033524336
0.03352428
0.033524199
0.033524109
0.033524061
0.033524118
0.033524409
0.033524455
0.03352435
0.033524416
0.033524487
0.033524554
0.033524574
0.033524582
0.033524573
0.033524571
0.033524571
0.033524575
0.03352458
0.033524584
0.033524587
0.033524594
0.033524621
0.033524703
0.033524888
0.033525208
0.03352566
0.033526208
0.033526798
0.033527368
0.033527813
0.033527854
0.033527854
0.033527849
0.033527844
0.033527839
0.033504973
0.033504986
0.033504999
0.03350501
0.033505001
0.033504852
0.033503603
0.033501945
0.033500198
0.033498565
0.033497211
0.033496246
0.033495682
0.033495429
0.033495349
0.033495334
0.033495333
0.033495334
0.033495336
0.033495341
0.03349535
0.033495366
0.03349537
0.033495353
0.033495273
0.033495174
0.033495095
0.033495207
0.033495181
0.033495135
0.033494913
0.03349458
0.033494561
0.033494696
0.033494865
0.033494991
0.033495066
0.0334951
0.033495107
0.033495092
0.033495057
0.033495007
0.033494946
0.033494879
0.033494809
0.033494736
0.033494638
0.033494542
0.033494369
0.033494427
0.033494447
0.033494998
0.033495158
0.033495581
0.033465222
0.033433256
0.03340057
0.033368138
0.03333643
0.033305726
0.033275991
0.033247184
0.033219244
0.033192161
0.033165957
0.033140677
0.033116364
0.033093053
0.033070758
0.033049466
0.033029129
0.033009661
0.032990941
0.032972816
0.032955104
0.032937612
0.032920136
0.032902481
0.032884475
0.032865975
0.032846873
0.032827102
0.032806637
0.032785495
0.032763729
0.032741429
0.032718713
0.032695719
0.032672597
0.032649501
0.032626582
0.032603976
0.03258181
0.032560195
0.032539224
0.032518966
0.03249947
0.032480762
0.032462847
0.03244571
0.032429313
0.032413605
0.032398515
0.03238396
0.032369847
0.032356074
0.032261738
0.032266363
0.032271064
0.032275839
0.032280678
0.032285569
0.032290494
0.032295435
0.032300371
0.032305278
0.032310129
0.032314898
0.032319556
0.032324071
0.032328414
0.032332556
0.032336469
0.03234013
0.03234352
0.03234662
0.032349409
0.032351844
0.032353836
0.032355253
0.032356002
0.032356173
0.032369948
0.032369785
0.032369061
0.032367687
0.032365754
0.03236339
0.032360682
0.03235767
0.032354378
0.03235082
0.032347015
0.032342987
0.032338761
0.032334366
0.032329831
0.032325186
0.032320459
0.032315677
0.032310866
0.032306048
0.032301245
0.032296475
0.032291755
0.032287099
0.032282516
0.032278011
0.032294821
0.032299198
0.032303653
0.032308181
0.03231277
0.032317409
0.032322079
0.032326763
0.03233144
0.032336086
0.032340678
0.032345189
0.032349592
0.032353857
0.032357957
0.032361863
0.032365551
0.032368998
0.032372187
0.032375103
0.032377725
0.032380012
0.032381883
0.032383211
0.03238391
0.032384062
0.032398617
0.032398476
0.032397805
0.032396526
0.032394722
0.032392515
0.032389985
0.032387171
0.032384092
0.032380762
0.032377199
0.032373423
0.032369457
0.03236533
0.032361068
0.0323567
0.032352253
0.032347751
0.032343218
0.032338678
0.032334149
0.032329652
0.032325201
0.032320811
0.032316492
0.03231225
0.032330361
0.032334463
0.03233864
0.032342886
0.032347191
0.032351541
0.03235592
0.03236031
0.03236469
0.032369039
0.032373335
0.032377553
0.032381665
0.032385647
0.032389471
0.03239311
0.032396543
0.032399748
0.032402712
0.03240542
0.032407854
0.032409976
0.032411709
0.032412937
0.032413577
0.032413708
0.032429417
0.032429297
0.032428689
0.032427514
0.032425854
0.03242382
0.032421486
0.03241889
0.032416046
0.032412969
0.032409673
0.032406176
0.0324025
0.032398669
0.032394711
0.03239065
0.032386512
0.03238232
0.032378097
0.032373864
0.03236964
0.032365443
0.032361288
0.032357189
0.032353156
0.032349197
0.032368777
0.032372595
0.032376483
0.032380434
0.032384438
0.032388481
0.032392549
0.032396623
0.032400685
0.032404716
0.032408694
0.032412595
0.032416395
0.032420071
0.032423596
0.032426947
0.032430103
0.032433048
0.032435768
0.032438251
0.032440482
0.032442425
0.03244401
0.032445129
0.032445705
0.032445814
0.032462951
0.032462854
0.03246231
0.032461248
0.03245974
0.032457889
0.032455762
0.032453394
0.0324508
0.032447989
0.032444974
0.03244177
0.032438397
0.032434878
0.032431236
0.032427495
0.032423678
0.032419808
0.032415905
0.032411989
0.032408076
0.032404185
0.032400329
0.032396522
0.032392774
0.032389092
0.032410109
0.032413665
0.032417281
0.032420952
0.032424666
0.032428412
0.032432175
0.032435939
0.032439687
0.032443401
0.03244706
0.032450643
0.032454129
0.032457495
0.032460717
0.032463775
0.03246665
0.032469327
0.032471797
0.03247405
0.032476072
0.032477832
0.032479262
0.032480267
0.032480779
0.032480866
0.032499572
0.032499496
0.032499016
0.032498067
0.032496713
0.032495044
0.032493124
0.032490983
0.032488636
0.032486088
0.03248335
0.032480434
0.032477357
0.03247414
0.032470804
0.032467371
0.032463862
0.032460297
0.032456695
0.032453073
0.03244945
0.032445839
0.032442254
0.032438708
0.032435209
0.032431765
0.032453973
0.032457324
0.032460723
0.032464162
0.032467633
0.032471125
0.032474625
0.032478117
0.032481586
0.032485015
0.032488386
0.03249168
0.032494876
0.032497954
0.032500894
0.032503676
0.032506284
0.032508708
0.032510939
0.032512971
0.032514793
0.032516375
0.032517656
0.03251855
0.032518999
0.032519067
0.032539322
0.032539262
0.032538842
0.032538
0.032536788
0.032535288
0.032533558
0.032531626
0.032529504
0.032527195
0.032524706
0.032522047
0.032519232
0.03251628
0.032513209
0.03251004
0.032506791
0.032503481
0.032500127
0.032496744
0.03249335
0.032489957
0.032486579
0.032483225
0.032479904
0.032476623
0.03249959
0.032502827
0.032506094
0.032509388
0.032512698
0.032516016
0.032519329
0.032522623
0.032525884
0.032529097
0.032532243
0.032535307
0.03253827
0.032541114
0.03254382
0.032546371
0.032548754
0.03255096
0.032552986
0.032554827
0.032556474
0.032557899
0.032559047
0.032559841
0.032560235
0.032560289
0.032581898
0.032581847
0.032581476
0.032580725
0.032579633
0.032578273
0.032576698
0.032574936
0.032572994
0.032570875
0.032568581
0.03256612
0.032563503
0.032560747
0.03255787
0.032554888
0.03255182
0.032548681
0.032545487
0.032542255
0.032538997
0.032535727
0.032532457
0.032529197
0.032525954
0.032522733
0.032545897
0.032549134
0.032552384
0.032555643
0.032558903
0.032562155
0.032565386
0.032568585
0.032571739
0.032574831
0.032577848
0.032580774
0.032583591
0.032586283
0.032588833
0.032591226
0.03259345
0.0325955
0.032597375
0.032599074
0.032600589
0.032601895
0.03260294
0.032603655
0.032604007
0.032604058
0.032626655
0.032626602
0.032626265
0.032625579
0.03262457
0.032623303
0.032621832
0.03262018
0.032618354
0.032616353
0.032614176
0.032611829
0.032609321
0.032606668
0.032603884
0.032600986
0.032597991
0.032594913
0.032591768
0.032588571
0.032585334
0.032582069
0.032578789
0.032575502
0.032572217
0.032568937
0.032591718
0.032595066
0.032598413
0.032601755
0.032605083
0.032608389
0.032611661
0.032614886
0.032618052
0.032621144
0.032624147
0.032627047
0.032629827
0.032632471
0.032634965
0.032637293
0.032639448
0.032641424
0.032643222
0.032644846
0.03264629
0.03264753
0.032648514
0.03264918
0.032649506
0.032649564
0.032672648
0.032672582
0.03267226
0.032671605
0.032670633
0.032669403
0.032667968
0.032666352
0.032664558
0.032662584
0.032660427
0.032658091
0.032655584
0.032652921
0.032650116
0.032647186
0.032644146
0.032641011
0.032637796
0.032634516
0.032631183
0.03262781
0.032624409
0.03262099
0.03261756
0.032614125
0.03263607
0.032639604
0.03264313
0.032646643
0.032650134
0.032653592
0.032657007
0.032660366
0.032663653
0.032666856
0.032669959
0.032672946
0.032675802
0.032678511
0.032681058
0.032683428
0.032685613
0.032687609
0.03268942
0.032691049
0.032692493
0.032693728
0.032694704
0.032695358
0.032695681
0.032695758
0.032718738
0.03271865
0.03271832
0.032717656
0.032716664
0.032715407
0.032713935
0.032712274
0.032710426
0.032708385
0.032706149
0.032703722
0.032701113
0.032698335
0.032695405
0.032692339
0.032689153
0.032685863
0.032682485
0.032679033
0.032675522
0.032671965
0.032668375
0.032664762
0.032661135
0.032657501
0.032678401
0.032682127
0.032685848
0.032689558
0.032693248
0.032696905
0.032700517
0.03270407
0.032707548
0.032710937
0.03271422
0.03271738
0.032720401
0.032723266
0.032725958
0.032728462
0.032730768
0.032732872
0.032734777
0.032736488
0.032738002
0.032739295
0.032740316
0.032741001
0.032741343
0.032741443
0.032763735
0.032763625
0.032763265
0.03276255
0.032761489
0.032760148
0.032758578
0.032756803
0.032754827
0.032752644
0.032750254
0.032747659
0.032744873
0.03274191
0.032738789
0.032735527
0.032732142
0.032728651
0.032725072
0.032721421
0.032717713
0.032713964
0.032710186
0.032706393
0.032702593
0.032698796
0.032718749
0.032722589
0.032726439
0.032730291
0.032734135
0.032737957
0.032741745
0.032745481
0.032749151
0.032752736
0.032756218
0.03275958
0.032762802
0.032765866
0.032768753
0.032771444
0.032773928
0.032776197
0.032778254
0.032780102
0.032781738
0.032783136
0.032784244
0.032784998
0.032785382
0.0327855
0.032806647
0.032806524
0.032806109
0.032805312
0.032804152
0.032802693
0.032800988
0.032799062
0.032796921
0.032794562
0.032791985
0.032789198
0.032786216
0.032783057
0.032779743
0.032776293
0.032772728
0.032769067
0.032765328
0.03276153
0.032757689
0.032753822
0.032749944
0.032746066
0.032742202
0.032738358
0.03275775
0.032761552
0.032765389
0.032769249
0.032773123
0.032776996
0.032780855
0.032784682
0.032788459
0.03279217
0.032795793
0.032799308
0.032802695
0.032805932
0.032808997
0.032811869
0.032814531
0.032816973
0.032819195
0.032821196
0.03282297
0.03282449
0.032825702
0.032826542
0.03282699
0.032827118
0.032846895
0.032846758
0.032846281
0.0328454
0.032844141
0.032842566
0.03284073
0.032838662
0.032836372
0.03283386
0.032831129
0.032828191
0.032825067
0.032821777
0.032818346
0.032814796
0.032811149
0.032807426
0.032803648
0.032799834
0.032796
0.032792164
0.032788341
0.032784543
0.032780782
0.032777066
0.032796461
0.032800042
0.03280368
0.032807368
0.032811094
0.032814845
0.032818608
0.032822364
0.032826097
0.032829789
0.032833419
0.032836964
0.032840403
0.032843712
0.032846867
0.032849842
0.032852617
0.032855177
0.032857517
0.032859635
0.032861521
0.03286314
0.032864436
0.032865349
0.032865853
0.032866
0.032884499
0.032884341
0.032883818
0.032882884
0.032881564
0.032879916
0.032878
0.032875853
0.032873489
0.032870909
0.032868122
0.032865144
0.032861998
0.03285871
0.032855305
0.032851807
0.032848241
0.032844626
0.032840984
0.032837333
0.03283369
0.032830071
0.032826491
0.03282296
0.03281949
0.032816087
0.032836085
0.032839272
0.032842535
0.032845868
0.03284926
0.032852701
0.032856177
0.032859676
0.032863179
0.032866669
0.032870126
0.032873529
0.032876855
0.032880079
0.032883176
0.032886118
0.032888881
0.032891446
0.032893804
0.032895953
0.032897876
0.032899533
0.03290086
0.0329018
0.032902332
0.0329025
0.032920148
0.032919974
0.032919445
0.032918515
0.032917199
0.032915554
0.032913651
0.032911531
0.032909212
0.032906697
0.032903998
0.032901134
0.03289813
0.032895014
0.032891813
0.03288855
0.032885249
0.032881929
0.032878609
0.032875306
0.032872036
0.032868811
0.032865644
0.032862544
0.03285952
0.032856578
0.032853722
0.032850956
0.032872578
0.032875076
0.032877665
0.032880342
0.032883104
0.032885945
0.032888859
0.032891837
0.032894868
0.032897941
0.03290104
0.032904152
0.032907258
0.032910338
0.032913373
0.032916337
0.032919206
0.032921951
0.032924547
0.032926973
0.032929218
0.032931276
0.032933132
0.032934741
0.032936026
0.032936929
0.032937443
0.032937617
0.032955104
0.032954936
0.032954452
0.032953592
0.032952356
0.032950807
0.032949026
0.03294706
0.032944924
0.032942622
0.032940165
0.032937576
0.032934879
0.032932102
0.032929271
0.032926407
0.032923531
0.032920659
0.032917809
0.032914994
0.032912227
0.032909517
0.032906876
0.032904309
0.032901822
0.032899421
0.032897107
0.032894883
0.032916035
0.032917902
0.032919856
0.032921896
0.03292402
0.032926226
0.032928512
0.032930872
0.0329333
0.032935789
0.032938329
0.03294091
0.032943519
0.032946142
0.032948762
0.032951362
0.03295392
0.032956414
0.032958817
0.032961103
0.03296325
0.032965249
0.032967094
0.032968775
0.032970244
0.032971414
0.032972216
0.03297266
0.032972814
0.032990941
0.032990809
0.032990415
0.032989682
0.032988592
0.032987222
0.032985663
0.032983961
0.032982124
0.032980155
0.032978064
0.032975872
0.032973604
0.032971285
0.032968936
0.032966577
0.032964223
0.03296189
0.032959589
0.032957331
0.032955126
0.032952981
0.032950903
0.032948897
0.032946966
0.032945113
0.03294334
0.032941647
0.032940034
0.032964733
0.032966108
0.032967556
0.032969077
0.032970672
0.032972338
0.032974074
0.032975877
0.032977744
0.032979669
0.032981645
0.032983666
0.032985721
0.0329878
0.03298989
0.032991977
0.032994045
0.032996074
0.03299804
0.03299992
0.033001693
0.03300335
0.033004891
0.033006313
0.033007571
0.033008571
0.033009228
0.033009563
0.033009666
0.033029142
0.033029074
0.033028802
0.033028227
0.033027322
0.033026184
0.033024911
0.033023541
0.033022073
0.033020504
0.033018844
0.03301711
0.033015326
0.033013512
0.033011687
0.033009865
0.033008058
0.033006276
0.033004529
0.033002825
0.033001169
0.032999568
0.032998025
0.032996544
0.032995126
0.032993773
0.032992485
0.032991262
0.032990105
0.033016113
0.033017076
0.033018094
0.03301917
0.033020303
0.033021494
0.03302274
0.033024041
0.033025395
0.033026798
0.033028246
0.033029733
0.033031254
0.0330328
0.033034364
0.033035933
0.033037497
0.03303904
0.033040543
0.033041985
0.033043348
0.033044623
0.033045818
0.033046939
0.033047952
0.033048761
0.033049256
0.03304946
0.03304949
0.033070794
0.033070804
0.033070667
0.033070249
0.033069533
0.033068643
0.033067675
0.033066653
0.033065565
0.033064403
0.033063173
0.033061892
0.03306058
0.033059254
0.033057926
0.033056606
0.033055304
0.033054027
0.03305278
0.033051568
0.033050397
0.033049269
0.033048187
0.033047153
0.033046167
0.033045231
0.033044344
0.033043506
0.033042717
0.033069869
0.033070509
0.033071189
0.033071911
0.033072673
0.033073478
0.033074324
0.033075211
0.033076136
0.0330771
0.033078097
0.033079127
0.033080183
0.033081262
0.033082357
0.033083462
0.033084568
0.033085664
0.033086737
0.033087768
0.033088742
0.033089651
0.033090507
0.033091329
0.0330921
0.033092729
0.033093078
0.033093153
0.033093102
0.033116425
0.033116516
0.033116495
0.033116206
0.033115655
0.033114995
0.033114311
0.033113609
0.033112865
0.033112065
0.033111216
0.033110333
0.033109432
0.033108525
0.033107622
0.033106728
0.03310585
0.03310499
0.033104154
0.033103345
0.033102566
0.033101817
0.033101101
0.03310042
0.033099772
0.033099159
0.033098581
0.033098036
0.033097524
0.033125637
0.03312604
0.03312647
0.033126928
0.033127413
0.033127926
0.033128467
0.033129036
0.033129631
0.033130252
0.033130897
0.033131565
0.033132252
0.033132955
0.033133672
0.033134398
0.033135127
0.033135855
0.033136569
0.033137256
0.0331379
0.033138497
0.033139059
0.033139616
0.033140172
0.033140657
0.033140899
0.033140878
0.03314075
0.033166038
0.033166197
0.033166245
0.033166036
0.033165606
0.033165143
0.0331647
0.033164263
0.033163796
0.033163287
0.033162741
0.033162174
0.033161598
0.033161021
0.033160449
0.033159885
0.033159332
0.033158793
0.03315827
0.033157764
0.033157278
0.033156813
0.033156369
0.033155946
0.033155546
0.033155168
0.033154812
0.033154478
0.033154165
0.033183071
0.03318331
0.033183566
0.033183838
0.033184127
0.033184434
0.033184757
0.033185098
0.033185455
0.033185828
0.033186217
0.033186619
0.033187034
0.033187459
0.033187894
0.033188336
0.033188782
0.033189229
0.033189671
0.033190097
0.033190491
0.033190847
0.033191176
0.033191518
0.033191898
0.033192285
0.033192477
0.033192421
0.03319224
0.033219312
0.033219499
0.033219534
0.033219341
0.033218987
0.033218682
0.033218427
0.033218189
0.033217925
0.033217626
0.033217301
0.033216964
0.033216623
0.033216286
0.033215952
0.033215625
0.033215305
0.033214993
0.03321469
0.033214398
0.033214118
0.03321385
0.033213594
0.033213351
0.033213121
0.033212904
0.0332127
0.033212508
0.033212329
0.033241933
0.033242064
0.033242205
0.033242355
0.033242514
0.033242682
0.03324286
0.033243048
0.033243244
0.03324345
0.033243663
0.033243885
0.033244113
0.033244348
0.033244588
0.033244833
0.033245082
0.033245335
0.033245587
0.03324583
0.033246052
0.033246242
0.033246405
0.033246586
0.033246824
0.033247158
0.033247368
0.033247392
0.033247224
0.033275982
0.033276088
0.033275957
0.033275714
0.033275392
0.033275215
0.033275094
0.03327499
0.033274858
0.033274697
0.033274518
0.033274334
0.033274152
0.033273974
0.0332738
0.033273629
0.033273463
0.033273301
0.033273143
0.033272992
0.033272846
0.033272706
0.033272573
0.033272446
0.033272326
0.033272213
0.033272106
0.033272006
0.033271912
0.033302341
0.033302406
0.033302475
0.033302549
0.033302627
0.033302709
0.033302796
0.033302887
0.033302983
0.033303082
0.033303186
0.033303293
0.033303403
0.033303517
0.033303633
0.033303752
0.033303874
0.033304001
0.033304131
0.03330426
0.033304376
0.033304466
0.033304525
0.033304599
0.03330472
0.033305038
0.03330532
0.033305611
0.033305626
0.033336207
0.033336009
0.033335513
0.033335198
0.033334883
0.033334816
0.033334777
0.033334749
0.033334689
0.033334606
0.033334514
0.033334425
0.03333434
0.03333426
0.033334183
0.033334108
0.033334036
0.033333964
0.033333895
0.033333828
0.033333764
0.033333702
0.033333642
0.033333586
0.033333532
0.03333348
0.033333432
0.033333386
0.033333344
0.033365048
0.033365075
0.033365103
0.033365133
0.033365165
0.033365198
0.033365232
0.033365268
0.033365306
0.033365345
0.033365385
0.033365426
0.033365469
0.033365512
0.033365557
0.033365603
0.033365652
0.033365705
0.033365764
0.033365828
0.033365888
0.033365929
0.033365937
0.033365953
0.033365965
0.033366272
0.033366591
0.0333673
0.03336771
0.033399983
0.033399402
0.033398524
0.033398254
0.033397968
0.033398016
0.033398012
0.033398016
0.033397984
0.03339794
0.033397895
0.033397858
0.033397828
0.033397801
0.033397776
0.033397753
0.03339773
0.033397707
0.033397685
0.033397664
0.033397642
0.033397622
0.033397602
0.033397583
0.033397564
0.033397547
0.03339753
0.033397514
0.033397498
0.033430496
0.033430504
0.033430512
0.033430521
0.033430529
0.033430538
0.033430547
0.033430557
0.033430566
0.033430576
0.033430586
0.033430596
0.033430606
0.033430616
0.033430626
0.033430636
0.033430649
0.033430665
0.033430686
0.033430717
0.033430751
0.03343078
0.03343077
0.03343077
0.033430663
0.033430907
0.033431055
0.033431962
0.033432515
0.03346461
0.033464286
0.033463534
0.033463556
0.033463386
0.033463531
0.033463526
0.033463532
0.033463503
0.033463475
0.033463455
0.033463444
0.033463437
0.033463433
0.03346343
0.033463427
0.033463425
0.033463422
0.033463419
0.033463415
0.033463412
0.033463409
0.033463405
0.033463402
0.033463398
0.033463395
0.033463391
0.033463388
0.033463384
0.033494998
0.033494999
0.033495
0.033495001
0.033495002
0.033495003
0.033495004
0.033495004
0.033495005
0.033495005
0.033495006
0.033495006
0.033495006
0.033495006
0.033495005
0.033495005
0.033495005
0.033495006
0.033495011
0.033495022
0.033495043
0.033495073
0.033495082
0.033495096
0.033494984
0.033495034
0.033494921
0.033495286
0.033495255
0.033495084
0.03352423
0.033524051
0.033524052
0.033524004
0.033524094
0.033524098
0.033524099
0.033524074
0.033524054
0.033524042
0.033524038
0.033524036
0.033524037
0.033524037
0.033524038
0.033524039
0.033524039
0.033524039
0.03352404
0.03352404
0.03352404
0.03352404
0.033524041
0.03352404
0.03352404
0.03352404
0.03352404
0.03352404
0.033524039
0.033523383
0.033523383
0.033523384
0.033523384
0.033523384
0.033523385
0.033523385
0.033523385
0.033523385
0.033523385
0.033523385
0.033523385
0.033523385
0.033523384
0.033523384
0.033523384
0.033523383
0.033523384
0.033523387
0.033523393
0.033523407
0.033523427
0.033523446
0.033523442
0.033523407
0.033523349
0.033523404
0.033523596
0.033523929
0.033523784
0.033523255
0.033522927
0.033522841
0.033522888
0.033522936
0.033522943
0.033522926
0.033522904
0.033522889
0.033522881
0.033522878
0.033522876
0.033522876
0.033522876
0.033522876
0.033522876
0.033522875
0.033522875
0.033522875
0.033522874
0.033522874
0.033522874
0.033522873
0.033522872
0.033522872
0.033522871
0.033522871
0.03352287
0.033522673
0.033522674
0.033522675
0.033522676
0.033522677
0.033522678
0.033522679
0.03352268
0.033522681
0.033522682
0.033522683
0.033522684
0.033522684
0.033522685
0.033522686
0.033522687
0.033522688
0.03352269
0.033522695
0.033522704
0.03352272
0.033522742
0.033522761
0.033522753
0.0335227
0.033522652
0.033522751
0.033523117
0.033523671
0.033523751
0.033523171
0.033522798
0.033522703
0.033522755
0.033522809
0.033522817
0.033522796
0.033522772
0.033522754
0.033522744
0.033522739
0.033522736
0.033522734
0.033522732
0.033522731
0.033522729
0.033522727
0.033522726
0.033522724
0.033522723
0.033522721
0.033522719
0.033522718
0.033522716
0.033522715
0.033522713
0.033522711
0.03352271
0.03352281
0.033522812
0.033522814
0.033522816
0.033522818
0.033522821
0.033522823
0.033522825
0.033522828
0.03352283
0.033522833
0.033522835
0.033522838
0.033522841
0.033522843
0.033522846
0.033522849
0.033522853
0.033522859
0.03352287
0.033522889
0.033522915
0.033522938
0.033522932
0.033522878
0.033522822
0.033522909
0.033523262
0.033523806
0.033523863
0.033523337
0.033522995
0.033522914
0.03352297
0.033523022
0.033523027
0.033523002
0.033522975
0.033522955
0.033522943
0.033522935
0.03352293
0.033522926
0.033522922
0.033522918
0.033522915
0.033522911
0.033522907
0.033522904
0.0335229
0.033522897
0.033522894
0.033522891
0.033522888
0.033522885
0.033522882
0.033522879
0.033522877
0.033522904
0.033522907
0.03352291
0.033522914
0.033522917
0.033522921
0.033522925
0.03352293
0.033522934
0.033522938
0.033522943
0.033522948
0.033522953
0.033522958
0.033522963
0.033522968
0.033522973
0.03352298
0.033522988
0.033523002
0.033523022
0.033523051
0.033523077
0.033523074
0.033523023
0.033522968
0.033523048
0.033523382
0.033523895
0.033523922
0.033523415
0.033523084
0.033523005
0.033523059
0.033523108
0.03352311
0.033523083
0.033523053
0.033523031
0.033523016
0.033523007
0.033522999
0.033522992
0.033522986
0.033522979
0.033522973
0.033522967
0.033522961
0.033522955
0.03352295
0.033522944
0.033522939
0.033522934
0.033522929
0.033522925
0.03352292
0.033522916
0.033522913
0.033522918
0.033522922
0.033522927
0.033522932
0.033522937
0.033522943
0.033522949
0.033522955
0.033522961
0.033522968
0.033522975
0.033522982
0.03352299
0.033522997
0.033523005
0.033523012
0.033523021
0.03352303
0.033523041
0.033523056
0.03352308
0.03352311
0.033523138
0.033523138
0.03352309
0.033523037
0.033523116
0.033523446
0.03352395
0.033523978
0.033523475
0.033523146
0.033523067
0.033523119
0.033523166
0.033523166
0.033523137
0.033523105
0.033523081
0.033523064
0.033523052
0.033523041
0.033523032
0.033523023
0.033523014
0.033523006
0.033522997
0.033522989
0.033522981
0.033522973
0.033522966
0.033522959
0.033522952
0.033522946
0.03352294
0.033522934
0.033522928
0.033522923
0.033522929
0.033522935
0.033522941
0.033522947
0.033522954
0.033522961
0.033522968
0.033522976
0.033522984
0.033522993
0.033523002
0.033523011
0.033523021
0.03352303
0.03352304
0.03352305
0.033523061
0.033523072
0.033523085
0.033523103
0.033523128
0.033523161
0.03352319
0.033523192
0.033523145
0.033523094
0.033523173
0.033523502
0.033524004
0.033524025
0.033523523
0.033523194
0.033523115
0.033523166
0.033523212
0.03352321
0.03352318
0.033523147
0.033523121
0.033523103
0.033523089
0.033523077
0.033523066
0.033523055
0.033523044
0.033523034
0.033523024
0.033523014
0.033523004
0.033522995
0.033522986
0.033522977
0.033522969
0.033522962
0.033522954
0.033522948
0.033522941
0.033522935
0.033522941
0.033522948
0.033522954
0.033522962
0.033522969
0.033522977
0.033522986
0.033522995
0.033523004
0.033523014
0.033523024
0.033523034
0.033523045
0.033523056
0.033523067
0.033523078
0.033523089
0.033523101
0.033523116
0.033523134
0.03352316
0.033523194
0.033523224
0.033523226
0.033523179
0.033523128
0.033523208
0.033523536
0.033524038
0.033524042
0.033523541
0.033523213
0.033523134
0.033523185
0.033523231
0.03352323
0.0335232
0.033523167
0.033523142
0.033523123
0.033523109
0.033523097
0.033523086
0.033523076
0.033523067
0.033523056
0.033523046
0.033523035
0.033523025
0.033523015
0.033523006
0.033522997
0.033522988
0.03352298
0.033522972
0.033522964
0.033522957
0.033522951
0.033522977
0.033522984
0.033522991
0.033522999
0.033523006
0.033523015
0.033523023
0.033523033
0.033523042
0.033523052
0.033523062
0.033523071
0.03352308
0.033523085
0.033523083
0.033523089
0.033523099
0.033523111
0.033523124
0.033523142
0.033523167
0.033523199
0.033523228
0.033523228
0.033523181
0.033523129
0.033523208
0.033523535
0.033524036
0.03352402
0.033523518
0.033523189
0.03352311
0.033523163
0.033523212
0.033523213
0.033523186
0.033523155
0.033523131
0.033523115
0.033523103
0.033523092
0.033523083
0.033523079
0.033523094
0.033523132
0.033523137
0.033523132
0.033523123
0.033523114
0.033523105
0.033523096
0.033523088
0.03352308
0.033523072
0.033523065
0.033523058
0.033523051
0.033523208
0.033523215
0.033523221
0.033523229
0.033523236
0.033523244
0.033523252
0.033523261
0.033523269
0.033523275
0.033523276
0.033523254
0.033523145
0.033523073
0.033523053
0.033523055
0.033523062
0.033523071
0.033523082
0.033523096
0.033523118
0.033523146
0.033523172
0.033523169
0.033523119
0.033523066
0.033523147
0.033523479
0.033523986
0.033523922
0.033523405
0.033523065
0.03352298
0.03352303
0.03352308
0.033523084
0.033523061
0.033523035
0.033523016
0.033523004
0.033522995
0.033522989
0.033522983
0.033522983
0.033523006
0.033523089
0.033523268
0.033523478
0.033523521
0.033523525
0.03352352
0.033523513
0.033523505
0.033523498
0.03352349
0.033523483
0.033523477
0.03352347
0.033523853
0.033523859
0.033523865
0.033523872
0.033523879
0.033523886
0.033523892
0.033523896
0.033523887
0.033523823
0.033523511
0.033523189
0.03352299
0.033522902
0.033522877
0.033522876
0.033522879
0.033522884
0.03352289
0.033522899
0.033522916
0.033522939
0.03352296
0.033522955
0.033522908
0.033522861
0.033522951
0.033523298
0.033523828
0.033523729
0.033523211
0.033522883
0.033522803
0.033522849
0.033522893
0.033522898
0.033522878
0.033522858
0.033522844
0.033522837
0.033522833
0.033522831
0.033522829
0.033522833
0.03352286
0.03352295
0.033523154
0.033523503
0.033523966
0.033524348
0.033524425
0.033524437
0.033524435
0.033524429
0.033524423
0.033524417
0.033524411
0.033524405
0.03352519
0.033525196
0.033525202
0.033525208
0.033525213
0.033525216
0.033525204
0.033525127
0.033524738
0.033524184
0.033523694
0.033523343
0.033523139
0.033523049
0.033523021
0.033523016
0.033523016
0.033523016
0.033523017
0.033523022
0.033523032
0.03352305
0.033523067
0.033523064
0.033523023
0.03352297
0.033523011
0.033523264
0.033523692
0.033523791
0.033523539
0.033523429
0.033523446
0.033523511
0.033523548
0.03352355
0.033523535
0.033523522
0.033523516
0.033523514
0.033523515
0.033523516
0.033523518
0.033523524
0.033523552
0.033523641
0.033523839
0.033524181
0.033524663
0.033525238
0.033525812
0.033526137
0.033526197
0.033526203
0.033526199
0.033526193
0.033526188
0.033526182
0.033527173
0.033527179
0.033527184
0.033527189
0.033527191
0.033527168
0.033526955
0.033526425
0.033525829
0.033525268
0.033524804
0.033524476
0.033524285
0.0335242
0.033524172
0.033524166
0.033524163
0.03352416
0.033524157
0.033524155
0.033524158
0.033524165
0.033524176
0.033524172
0.033524143
0.033524072
0.033523999
0.033523965
0.033524099
0.033495112
0.033494721
0.033494237
0.033494128
0.033494237
0.033494406
0.03349454
0.033494619
0.033494655
0.033494662
0.033494646
0.033494611
0.03349456
0.033494498
0.033494429
0.033494355
0.033494275
0.033494172
0.033494043
0.033493906
0.033493902
0.033494125
0.033494623
0.033463829
0.033464073
0.033464577
0.033432549
0.033400063
0.033367805
0.033336306
0.033305728
0.033276091
0.033247345
0.033219449
0.033192398
0.033166224
0.033140973
0.033116695
0.033093428
0.03307119
0.033049967
0.033029713
0.033010343
0.032991737
0.032973738
0.032956165
0.032938821
0.0329215
0.032904006
0.032886164
0.032867828
0.032848892
0.032829286
0.032808987
0.032788011
0.032766413
0.032744284
0.032721741
0.032698921
0.032675974
0.032653052
0.032630303
0.032607869
0.032585871
0.032564422
0.032543611
0.032523509
0.032504163
0.032485601
0.032467827
0.032450824
0.032434557
0.032418973
0.032404002
0.03238956
0.032375556
0.032361885
0.032375288
0.032388723
0.03240248
0.032416662
0.032431361
0.032446662
0.032462632
0.032479326
0.032496778
0.032515006
0.032534005
0.032553749
0.032574191
0.032595261
0.032616873
0.03263892
0.032661273
0.032683793
0.032706334
0.032728746
0.032750881
0.032772605
0.032793802
0.03281438
0.032834281
0.032853488
0.032872027
0.032889967
0.032907421
0.032924539
0.032941497
0.0329585
0.032975756
0.032993466
0.033011815
0.033030959
0.033051022
0.033072086
0.033094197
0.033117363
0.033141561
0.033166749