/*--------------------------------*- C++ -*----------------------------------*\
| =========                 |                                                 |
| \\      /  F ield         | OpenFOAM: The Open Source CFD Toolbox           |
|  \\    /   O peration     | Version:  v2012                                 |
|   \\  /    A nd           | Website:  www.openfoam.com                      |
|    \\/     M anipulation  |                                                 |
\*---------------------------------------------------------------------------*/
FoamFile
{
    version     2.0;
    format      ascii;
    class       volScalarField;
    location    "283";
    object      omega;
}
// * * * * * * * * * * * * * * * * * * * * * * * * * * * * * * * * * * * * * //

dimensions      [0 0 -1 0 0 0 0];


internalField   nonuniform List<scalar> 
74500
(
11.138628
11.138628
11.138628
11.138628
11.138628
11.138628
11.138628
11.138628
11.138627
11.138627
11.138627
11.138627
11.138626
11.138626
11.138626
11.138625
11.138624
11.138623
11.138622
11.138623
11.138639
11.138666
11.138751
11.138708
11.138962
11.138494
11.139046
11.138074
11.138505
11.137629
11.138316
11.137779
11.138536
11.137969
11.138378
11.138187
11.138241
11.138195
11.138184
11.138187
11.138197
11.138209
11.138218
11.138224
11.138227
11.138229
11.138228
11.138228
11.138198
11.138136
11.13801
11.1379
11.137738
11.138654
11.138762
11.13813
11.138459
11.138579
11.138709
11.138702
11.13871
11.138676
11.138672
11.138667
11.138671
11.138674
11.138677
11.13868
11.13868
11.138676
11.138662
11.138628
11.138569
11.138482
11.138375
11.138256
11.138141
11.13805
11.138037
11.138033
11.138031
11.138029
11.138028
11.087434
11.087438
11.087442
11.087448
11.087459
11.087509
11.087882
11.08837
11.08888
11.089353
11.089744
11.090021
11.090183
11.090256
11.09028
11.090285
11.090284
11.090281
11.090279
11.09028
11.090293
11.090313
11.090357
11.090349
11.090304
11.090093
11.089867
11.089576
11.089756
11.089545
11.088933
11.088937
11.089089
11.089301
11.089439
11.089506
11.08952
11.089522
11.089518
11.08951
11.089495
11.089475
11.08945
11.089425
11.08941
11.089411
11.089432
11.089369
11.089465
11.089155
11.089636
11.089314
11.089713
11.08903
11.039289
10.985924
10.932551
10.878517
10.825889
10.774385
10.724229
10.675169
10.627063
10.579794
10.53332
10.487631
10.442732
10.398628
10.35532
10.312796
10.271032
10.22999
10.189618
10.149848
10.110605
10.071808
10.03337
9.9952108
9.9572569
9.9194461
9.8817301
9.8440751
9.8064633
9.7688916
9.7313701
9.6939222
9.6565816
9.6193904
9.5823937
9.5456395
9.5091738
9.4730373
9.4372661
9.401893
9.3669417
9.3324288
9.2983637
9.2647475
9.2315741
9.1988306
9.1664975
9.1345498
9.1029576
9.0716868
9.0407004
9.0099597
8.9727708
8.9747754
8.9767847
8.9787975
8.9808105
8.9828191
8.9848179
8.9868006
8.9887605
8.99069
8.9925812
8.9944256
8.9962143
8.9979383
8.9995878
9.0011526
9.0026223
9.0039864
9.0052361
9.0063647
9.0073676
9.0082379
9.008958
9.0094956
9.0098218
9.0099517
9.0406927
9.0405658
9.0402467
9.0397205
9.0390158
9.038164
9.0371816
9.0360753
9.0348494
9.0335104
9.032067
9.0305294
9.0289079
9.0272127
9.0254533
9.0236385
9.0217771
9.0198776
9.0179477
9.015995
9.0140263
9.0120481
9.0100657
9.008084
9.0061067
9.0041355
9.0358255
9.0377597
9.039701
9.0416473
9.0435949
9.0455386
9.0474727
9.0493911
9.0512867
9.0531522
9.0549795
9.0567607
9.058487
9.0601496
9.0617393
9.0632462
9.0646602
9.0659712
9.0671706
9.0682521
9.0692116
9.0700432
9.070731
9.0712447
9.0715563
9.0716795
9.1029506
9.102831
9.102528
9.102028
9.1013587
9.1005493
9.0996146
9.0985603
9.0973901
9.0961099
9.0947284
9.0932555
9.0917008
9.0900744
9.0883851
9.0866413
9.0848517
9.0830243
9.0811669
9.0792869
9.0773912
9.0754859
9.0735771
9.0716697
9.0697679
9.0678741
9.1003088
9.1021598
9.1040193
9.1058848
9.1077518
9.1096153
9.1114692
9.1133075
9.115123
9.1169089
9.1186573
9.1203603
9.1220096
9.1235967
9.1251132
9.1265492
9.1278955
9.1291421
9.1302808
9.1313057
9.1322135
9.1329991
9.1336484
9.1341337
9.1344272
9.134543
9.1664912
9.1663795
9.1660958
9.1656261
9.1649979
9.1642376
9.1633584
9.1623647
9.1612598
9.1600489
9.1587403
9.1573436
9.155868
9.1543228
9.1527163
9.1510567
9.1493523
9.1476107
9.1458395
9.1440456
9.142236
9.1404167
9.1385939
9.1367725
9.1349571
9.1331504
9.1664122
9.1681741
9.1699448
9.171721
9.1734986
9.1752722
9.1770359
9.1787838
9.1805089
9.1822045
9.1838631
9.1854772
9.187039
9.1885402
9.1899731
9.1913286
9.1925976
9.1937709
9.1948406
9.1958015
9.1966506
9.1973845
9.1979907
9.1984439
9.1987173
9.1988248
9.231569
9.231466
9.2312029
9.2307667
9.2301833
9.2294767
9.2286585
9.2277315
9.2266982
9.2255635
9.2243352
9.2230222
9.2216332
9.2201769
9.2186609
9.2170932
9.2154813
9.2138324
9.2121539
9.2104524
9.2087349
9.2070071
9.2052748
9.2035432
9.2018167
9.2000985
9.234205
9.235882
9.2375666
9.2392552
9.2409438
9.2426271
9.2442996
9.2459555
9.2475881
9.2491907
9.2507563
9.252278
9.2537482
9.2551594
9.2565044
9.2577748
9.2589621
9.2600578
9.2610543
9.2619471
9.2627338
9.2634126
9.263973
9.2643921
9.2646447
9.2647429
9.2983598
9.2982664
9.2980241
9.2976221
9.2970845
9.2964333
9.2956777
9.294819
9.2938589
9.2928017
9.2916547
9.2904261
9.2891241
9.2877567
9.2863309
9.2848538
9.2833328
9.2817744
9.2801857
9.2785731
9.276943
9.2753013
9.2736531
9.2720039
9.2703575
9.2687174
9.3036128
9.3052218
9.3068353
9.3084503
9.3100627
9.3116675
9.3132595
9.314833
9.3163817
9.3178993
9.319379
9.3208145
9.3221986
9.3235246
9.3247858
9.3259747
9.3270831
9.3281033
9.3290283
9.3298541
9.3305795
9.3312038
9.3317193
9.3321049
9.3323371
9.3324258
9.3669397
9.3668556
9.3666327
9.3662624
9.3657678
9.3651688
9.3644719
9.3636771
9.3627848
9.3617989
9.3607261
9.3595739
9.3583499
9.3570613
9.3557148
9.3543165
9.3528732
9.3513913
9.3498772
9.3483373
9.3467774
9.3452035
9.3436204
9.3420331
9.3404456
9.3388607
9.3744244
9.3759935
9.377563
9.3791304
9.3806918
9.3822425
9.3837774
9.3852908
9.3867771
9.3882298
9.3896428
9.3910098
9.3923245
9.3935809
9.3947726
9.3958927
9.3969339
9.3978893
9.3987522
9.3995191
9.40019
9.4007658
9.4012413
9.4015978
9.401812
9.4018919
9.4372661
9.4371897
9.436983
9.4366386
9.4361797
9.4356242
9.4349762
9.4342334
9.4333955
9.4324659
9.4314508
9.4303569
9.4291914
9.4279606
9.4266708
9.4253279
9.4239377
9.4225064
9.4210402
9.419545
9.4180266
9.4164905
9.4149417
9.4133852
9.4118243
9.4102618
9.4463257
9.447892
9.4494545
9.4510105
9.4525566
9.4540877
9.455599
9.457085
9.4585404
9.4599589
9.461335
9.4626625
9.4639355
9.4651482
9.4662949
9.4673693
9.4683647
9.4692745
9.4700928
9.4708162
9.4714457
9.4719844
9.4724299
9.4727647
9.4729655
9.4730384
9.5091763
9.5091064
9.5089098
9.5085818
9.5081464
9.50762
9.507004
9.5062943
9.5054896
9.504593
9.5036102
9.5025478
9.5014121
9.5002091
9.4989442
9.4976231
9.4962513
9.4948351
9.4933803
9.4918928
9.4903783
9.488842
9.4872892
9.4857243
9.4841511
9.4825722
9.5189618
9.5205611
9.5221534
9.5237357
9.5253045
9.5268549
9.528382
9.5298803
9.531344
9.5327673
9.5341443
9.5354689
9.5367355
9.5379386
9.5390728
9.5401323
9.541111
9.5420022
9.5428004
9.5435025
9.5441103
9.5446286
9.5450576
9.5453819
9.5455762
9.5456436
9.5823999
9.5823347
9.5821399
9.5818152
9.5813879
9.5808723
9.5802666
9.5795651
9.5787659
9.5778721
9.5768892
9.5758239
9.5746822
9.5734699
9.5721923
9.5708549
9.5694632
9.5680235
9.5665418
9.565024
9.563476
9.5619033
9.5603112
9.5587044
9.5570869
9.5554614
9.5920484
9.5937029
9.5953494
9.596985
9.5986055
9.6002061
9.6017814
9.6033256
9.6048327
9.6062967
9.6077111
9.6090699
9.6103673
9.6115976
9.6127555
9.6138353
9.6148308
9.6157353
9.6165431
9.6172509
9.6178607
9.618379
9.6188091
9.6191379
9.6193358
9.6193995
9.6565948
9.6565323
9.6563284
9.6559917
9.6555545
9.6550285
9.6544087
9.6536881
9.6528647
9.651942
9.6509264
9.6498245
9.6486428
9.647387
9.6460628
9.6446758
9.6432321
9.6417382
9.6402004
9.6386252
9.637019
9.6353875
9.6337365
9.632071
9.6303952
9.6287126
9.6654569
9.6671631
9.6688645
9.6705576
9.6722377
9.6738995
9.6755372
9.6771447
9.6787152
9.6802422
9.6817189
9.6831386
9.6844948
9.6857816
9.6869931
9.6881234
9.6891656
9.6901127
9.6909579
9.6916972
9.6923322
9.6928705
9.6933187
9.693667
9.6938802
9.6939413
9.7313976
9.7313381
9.7311125
9.7307494
9.7302869
9.7297326
9.7290781
9.7283155
9.7274437
9.7264675
9.7253943
9.7242316
9.7229866
9.7216656
9.7202751
9.7188212
9.7173109
9.7157512
9.7141491
9.7125118
9.7108459
9.709158
9.7074542
9.7057402
9.7040207
9.7022995
9.7392727
9.7409967
9.7427231
9.7444477
9.7461657
9.7478712
9.7495578
9.7512189
9.7528473
9.7544358
9.7559769
9.7574629
9.7588868
9.7602417
9.7615209
9.7627175
9.7638239
9.7648318
9.765733
9.7665219
9.7671988
9.7677716
9.7682505
9.7686306
9.7688719
9.7689297
9.8065123
9.8064555
9.8061964
9.8057986
9.8053027
9.8047103
9.8040099
9.8031937
9.8022625
9.8012231
9.8000844
9.7988555
9.7975448
9.7961595
9.7947069
9.7931943
9.7916295
9.7900202
9.7883742
9.7866995
9.7850031
9.783292
9.7815729
9.7798516
9.7781329
9.7764214
9.8138004
9.8154819
9.8171757
9.8188773
9.8205817
9.8222831
9.8239748
9.8256497
9.8273004
9.8289189
9.8304972
9.8320269
9.8334999
9.8349084
9.8362447
9.8375008
9.8386679
9.8397361
9.8406951
9.8415371
9.84226
9.8428712
9.8433832
9.843798
9.8440743
9.844133
9.8817934
9.8817289
9.8814377
9.8810082
9.8804828
9.8798556
9.8791134
9.8782496
9.8772678
9.876177
9.8749886
9.8737133
9.8723609
9.8709397
9.869458
9.867924
9.8663462
9.8647332
9.8630934
9.8614348
9.8597649
9.8580907
9.856419
9.8547553
9.8531045
9.8514711
9.8894979
9.8910649
9.8926542
9.8942616
9.8958822
9.8975108
9.8991407
9.9007649
9.9023761
9.9039663
9.9055271
9.9070498
9.9085256
9.9099459
9.911302
9.912585
9.9137845
9.914889
9.9158859
9.9167648
9.9175207
9.9181593
9.918694
9.9191335
9.9194366
9.9195097
9.9573158
9.9572322
9.956921
9.9564769
9.9559385
9.9552951
9.954533
9.9536479
9.952646
9.9515393
9.9503415
9.9490649
9.9477202
9.9463168
9.9448638
9.9433698
9.9418438
9.9402945
9.9387302
9.9371588
9.9355878
9.9340236
9.9324723
9.9309394
9.9294292
9.9279455
9.9668727
9.9682593
9.9696757
9.9711185
9.9725835
9.9740659
9.9755601
9.9770602
9.978559
9.9800488
9.9815214
9.9829686
9.9843814
9.9857509
9.9870678
9.9883227
9.9895043
9.9905997
9.9915944
9.992475
9.9932338
9.9938742
9.9944094
9.9948517
9.9951662
9.9952606
10.033408
10.033304
10.032991
10.032557
10.032032
10.031404
10.030659
10.029795
10.02882
10.02775
10.0266
10.025384
10.024112
10.022794
10.021439
10.020057
10.018655
10.017243
10.015826
10.014414
10.013012
10.011626
10.010261
10.008921
10.00761
10.006332
10.005088
10.003881
10.044149
10.04524
10.046367
10.04753
10.048726
10.049953
10.051207
10.052485
10.053783
10.055094
10.056414
10.057735
10.05905
10.060351
10.061631
10.062881
10.064092
10.065254
10.066357
10.067387
10.068327
10.069162
10.069882
10.070489
10.070996
10.071415
10.071721
10.071832
10.110618
10.110502
10.110206
10.109808
10.109328
10.108752
10.108068
10.107274
10.106381
10.105405
10.104364
10.10327
10.102135
10.100967
10.099775
10.098568
10.097352
10.096135
10.094923
10.093723
10.09254
10.091378
10.090241
10.089133
10.088056
10.087012
10.086003
10.085031
10.125724
10.126545
10.1274
10.128291
10.129215
10.130172
10.131159
10.132175
10.133217
10.134281
10.135364
10.13646
10.137565
10.138672
10.139775
10.140868
10.141942
10.142989
10.144003
10.144971
10.145881
10.146716
10.147458
10.148096
10.148632
10.149079
10.149452
10.149732
10.14985
10.18961
10.189493
10.189232
10.188889
10.188481
10.187992
10.187408
10.186726
10.185959
10.185124
10.184238
10.183315
10.182363
10.181391
10.180405
10.179413
10.178419
10.177431
10.176454
10.175491
10.174548
10.173627
10.172732
10.171864
10.171026
10.170218
10.169442
10.168698
10.167988
10.210885
10.211493
10.212131
10.212799
10.213496
10.214221
10.214974
10.215752
10.216554
10.217379
10.218222
10.219081
10.219951
10.220828
10.221707
10.222583
10.223449
10.2243
10.225128
10.225925
10.226678
10.227371
10.227986
10.228511
10.228947
10.229312
10.229621
10.229862
10.229976
10.271012
10.270903
10.270684
10.270409
10.27009
10.26971
10.26925
10.268705
10.268089
10.267421
10.266716
10.265985
10.265237
10.264478
10.263713
10.262946
10.262183
10.261428
10.260685
10.259956
10.259246
10.258557
10.257889
10.257246
10.256627
10.256034
10.255466
10.254926
10.254412
10.298558
10.298987
10.299439
10.299915
10.300413
10.300935
10.301478
10.302042
10.302627
10.30323
10.303849
10.304483
10.305128
10.305781
10.306439
10.307098
10.307753
10.3084
10.309034
10.309647
10.310231
10.310769
10.311242
10.311637
10.311958
10.312229
10.312472
10.312668
10.312771
10.355292
10.355195
10.355018
10.354809
10.354585
10.354321
10.353991
10.353588
10.353127
10.352625
10.3521
10.351559
10.351009
10.350453
10.349896
10.34934
10.348789
10.348246
10.347714
10.347195
10.34669
10.346202
10.345732
10.345279
10.344847
10.344433
10.344039
10.343666
10.343312
10.38866
10.388948
10.389253
10.389575
10.389913
10.390268
10.390639
10.391025
10.391427
10.391843
10.392272
10.392712
10.393161
10.393618
10.39408
10.394544
10.395007
10.395468
10.395921
10.396364
10.396787
10.397177
10.397513
10.397782
10.39799
10.398167
10.398346
10.398505
10.398598
10.4427
10.44261
10.442464
10.442312
10.442179
10.442024
10.441812
10.441537
10.441214
10.440862
10.440496
10.440121
10.439743
10.439363
10.438984
10.438606
10.438234
10.437867
10.437509
10.437161
10.436823
10.436498
10.436185
10.435885
10.435598
10.435325
10.435066
10.434821
10.434589
10.481088
10.481271
10.481465
10.481671
10.481888
10.482116
10.482355
10.482604
10.482864
10.483133
10.483412
10.483698
10.483991
10.48429
10.484593
10.484898
10.485204
10.485509
10.485812
10.486111
10.486399
10.486663
10.486883
10.487042
10.487149
10.487242
10.48737
10.487508
10.487598
10.533286
10.533192
10.533057
10.532947
10.532891
10.532827
10.532713
10.532542
10.53233
10.532097
10.531858
10.531616
10.531374
10.531133
10.530893
10.530654
10.53042
10.530189
10.529964
10.529746
10.529534
10.529331
10.529135
10.528948
10.52877
10.528601
10.52844
10.528288
10.528145
10.57576
10.57587
10.575986
10.57611
10.57624
10.576376
10.57652
10.57667
10.576826
10.576989
10.577157
10.57733
10.577507
10.577688
10.577872
10.578057
10.578244
10.578432
10.57862
10.578809
10.578994
10.579162
10.579293
10.579368
10.579396
10.57942
10.579518
10.579658
10.579761
10.627036
10.626915
10.62676
10.626666
10.626667
10.626668
10.626624
10.626525
10.626392
10.626247
10.6261
10.625956
10.625814
10.625673
10.625533
10.625395
10.625259
10.625126
10.624996
10.624869
10.624747
10.62463
10.624517
10.624409
10.624306
10.624208
10.624116
10.624029
10.623946
10.672747
10.672807
10.672871
10.672939
10.673011
10.673086
10.673165
10.673248
10.673334
10.673423
10.673516
10.673611
10.673708
10.673808
10.673909
10.674011
10.674114
10.674219
10.674328
10.67444
10.674554
10.674659
10.674734
10.674756
10.674735
10.674716
10.674819
10.675002
10.675156
10.724221
10.724006
10.723777
10.723651
10.723681
10.723711
10.723702
10.723641
10.723556
10.723466
10.723381
10.723302
10.723227
10.723153
10.723081
10.72301
10.722939
10.72287
10.722803
10.722738
10.722675
10.722614
10.722555
10.722499
10.722446
10.722395
10.722346
10.722301
10.722258
10.772639
10.772668
10.7727
10.772733
10.772768
10.772804
10.772842
10.772882
10.772924
10.772966
10.773011
10.773056
10.773103
10.77315
10.773198
10.773247
10.773297
10.773349
10.773406
10.77347
10.773542
10.773616
10.77367
10.773675
10.773647
10.773614
10.773774
10.774063
10.774374
10.825779
10.825328
10.82498
10.824779
10.824816
10.824832
10.824823
10.824768
10.824701
10.82464
10.824592
10.824552
10.824518
10.824485
10.824454
10.824424
10.824394
10.824364
10.824335
10.824307
10.824279
10.824253
10.824227
10.824202
10.824179
10.824156
10.824135
10.824114
10.824095
10.876777
10.876788
10.876801
10.876814
10.876828
10.876842
10.876857
10.876872
10.876888
10.876904
10.87692
10.876937
10.876955
10.876972
10.87699
10.877008
10.877027
10.877049
10.877076
10.877113
10.877165
10.87723
10.877292
10.877308
10.87731
10.877261
10.8775
10.877869
10.878423
10.932161
10.931494
10.931184
10.93092
10.931002
10.930977
10.930956
10.930887
10.930824
10.930777
10.930749
10.930731
10.930718
10.930708
10.930699
10.93069
10.930682
10.930673
10.930664
10.930655
10.930647
10.930639
10.93063
10.930623
10.930615
10.930608
10.9306
10.930594
10.930587
10.984946
10.98495
10.984953
10.984956
10.98496
10.984963
10.984967
10.98497
10.984974
10.984978
10.984981
10.984985
10.984988
10.984992
10.984995
10.984999
10.985003
10.985009
10.98502
10.985041
10.985082
10.985142
10.985217
10.985234
10.985286
10.985141
10.985419
10.98553
10.986026
11.039206
11.038795
11.039014
11.038714
11.038959
11.038866
11.038862
11.038782
11.038727
11.038693
11.038678
11.038672
11.03867
11.03867
11.038669
11.038669
11.038668
11.038667
11.038666
11.038665
11.038664
11.038663
11.038662
11.038661
11.03866
11.038659
11.038657
11.038656
11.038655
11.09016
11.09016
11.090161
11.090161
11.090161
11.090162
11.090162
11.090161
11.090161
11.090161
11.090161
11.090161
11.09016
11.09016
11.09016
11.090159
11.090158
11.090158
11.09016
11.090168
11.090194
11.090239
11.090327
11.09031
11.09048
11.090101
11.090492
11.089831
11.089995
11.089269
11.138052
11.13767
11.137745
11.137583
11.137767
11.137727
11.137727
11.137675
11.137644
11.137627
11.137621
11.13762
11.13762
11.13762
11.137621
11.137622
11.137622
11.137622
11.137623
11.137623
11.137622
11.137623
11.137623
11.137623
11.137623
11.137623
11.137623
11.137623
11.137623
11.136318
11.136318
11.136318
11.136319
11.136318
11.136319
11.136319
11.136319
11.136318
11.136319
11.136319
11.136318
11.136318
11.136318
11.136317
11.136317
11.136317
11.136318
11.136321
11.13633
11.136349
11.136381
11.136417
11.136423
11.136372
11.136287
11.136399
11.13681
11.137458
11.137248
11.136129
11.135478
11.13532
11.135402
11.135476
11.135476
11.135442
11.135409
11.135389
11.135379
11.135375
11.135374
11.135373
11.135373
11.135373
11.135373
11.135374
11.135374
11.135374
11.135373
11.135373
11.135374
11.135373
11.135373
11.135373
11.135372
11.135372
11.135372
11.135072
11.135073
11.135073
11.135074
11.135074
11.135075
11.135075
11.135075
11.135076
11.135076
11.135076
11.135077
11.135077
11.135077
11.135077
11.135078
11.135078
11.13508
11.135084
11.135094
11.135116
11.13515
11.135187
11.135186
11.135104
11.135012
11.135174
11.135885
11.13701
11.137168
11.135975
11.135273
11.135126
11.135228
11.135311
11.13531
11.13527
11.135233
11.135211
11.1352
11.135196
11.135194
11.135193
11.135192
11.135191
11.135191
11.13519
11.135189
11.135189
11.135188
11.135187
11.135187
11.135186
11.135185
11.135185
11.135184
11.135183
11.135183
11.135348
11.135349
11.13535
11.135351
11.135352
11.135353
11.135354
11.135355
11.135356
11.135357
11.135358
11.13536
11.135361
11.135362
11.135363
11.135364
11.135366
11.135368
11.135373
11.135384
11.135407
11.135446
11.135489
11.135493
11.135411
11.135304
11.135438
11.136107
11.137201
11.137252
11.136179
11.135529
11.135401
11.135507
11.135587
11.13558
11.135536
11.135496
11.135473
11.135461
11.135455
11.135452
11.13545
11.135449
11.135447
11.135445
11.135444
11.135442
11.135441
11.135439
11.135438
11.135436
11.135435
11.135433
11.135432
11.135431
11.135429
11.135428
11.135445
11.135446
11.135448
11.135449
11.135451
11.135453
11.135454
11.135457
11.135459
11.135461
11.135463
11.135465
11.135467
11.135469
11.135472
11.135474
11.135476
11.13548
11.135486
11.135498
11.135522
11.135563
11.135608
11.135616
11.135538
11.135434
11.135561
11.136202
11.13725
11.13725
11.136211
11.135574
11.135446
11.135549
11.135626
11.135617
11.135571
11.13553
11.135505
11.135493
11.135486
11.135482
11.135479
11.135476
11.135473
11.13547
11.135467
11.135464
11.135462
11.135459
11.135457
11.135454
11.135452
11.13545
11.135448
11.135446
11.135444
11.135442
11.13544
11.135442
11.135444
11.135447
11.135449
11.135452
11.135454
11.135457
11.135461
11.135464
11.135467
11.13547
11.135474
11.135477
11.13548
11.135484
11.135488
11.135492
11.1355
11.135513
11.135538
11.135579
11.135626
11.135635
11.135559
11.135458
11.135585
11.13622
11.137255
11.137266
11.136232
11.135597
11.13547
11.135571
11.135646
11.135637
11.13559
11.135548
11.135523
11.135509
11.135501
11.135496
11.135491
11.135487
11.135483
11.135479
11.135475
11.135471
11.135468
11.135464
11.135461
11.135457
11.135454
11.135452
11.135449
11.135446
11.135443
11.135441
11.135443
11.135446
11.135448
11.135452
11.135455
11.135458
11.135461
11.135465
11.135469
11.135473
11.135477
11.135481
11.135486
11.13549
11.135495
11.135499
11.135504
11.13551
11.135518
11.135532
11.135558
11.135601
11.135648
11.135658
11.135583
11.135482
11.135609
11.136243
11.137277
11.137287
11.136253
11.135619
11.135492
11.135592
11.135667
11.135657
11.13561
11.135567
11.135541
11.135527
11.135518
11.135512
11.135507
11.135502
11.135497
11.135492
11.135487
11.135482
11.135478
11.135474
11.13547
11.135466
11.135462
11.135459
11.135455
11.135452
11.135449
11.135446
11.135449
11.135452
11.135455
11.135459
11.135462
11.135466
11.13547
11.135474
11.135478
11.135483
11.135487
11.135492
11.135497
11.135502
11.135507
11.135513
11.135518
11.135524
11.135533
11.135548
11.135574
11.135616
11.135664
11.135674
11.135599
11.135498
11.135626
11.13626
11.137293
11.137297
11.136263
11.135629
11.135502
11.135603
11.135678
11.135668
11.135621
11.135579
11.135552
11.135538
11.135529
11.135523
11.135518
11.135512
11.135507
11.135502
11.135497
11.135492
11.135487
11.135483
11.135478
11.135474
11.13547
11.135466
11.135462
11.135459
11.135456
11.135453
11.135456
11.135459
11.135462
11.135465
11.135469
11.135473
11.135477
11.135481
11.135486
11.13549
11.135495
11.1355
11.135505
11.135511
11.135518
11.135523
11.135529
11.135534
11.135543
11.135557
11.135583
11.135624
11.135671
11.135681
11.135605
11.135503
11.13563
11.136264
11.137298
11.137297
11.136263
11.135627
11.135499
11.135601
11.135678
11.13567
11.135624
11.135583
11.135558
11.135544
11.135537
11.135532
11.135527
11.135522
11.135513
11.1355
11.135493
11.135488
11.135483
11.135479
11.135474
11.13547
11.135466
11.135463
11.135459
11.135456
11.135452
11.135449
11.135404
11.135407
11.135411
11.135414
11.135417
11.13542
11.135424
11.135428
11.135432
11.135436
11.135442
11.135452
11.135478
11.135496
11.135505
11.135509
11.135513
11.135518
11.135524
11.135537
11.135561
11.135601
11.135645
11.135652
11.135574
11.135473
11.135604
11.136245
11.137288
11.137241
11.136181
11.135526
11.135386
11.135482
11.135558
11.135553
11.13551
11.135472
11.13545
11.135438
11.135433
11.135429
11.135426
11.135422
11.135414
11.135395
11.135357
11.135312
11.135298
11.135292
11.135288
11.135284
11.135281
11.135278
11.135274
11.135272
11.135269
11.135266
11.135008
11.13501
11.135013
11.135016
11.135019
11.135022
11.135025
11.135029
11.135035
11.135053
11.135119
11.135185
11.135226
11.135246
11.135253
11.135256
11.135258
11.13526
11.135265
11.135275
11.135296
11.135332
11.135373
11.135379
11.135308
11.135222
11.135376
11.136052
11.137141
11.137009
11.135934
11.135276
11.135123
11.135198
11.13526
11.13525
11.135209
11.135175
11.135156
11.135147
11.135144
11.135142
11.135141
11.135139
11.135132
11.135114
11.135073
11.135002
11.134907
11.134825
11.134805
11.134798
11.134795
11.134792
11.134789
11.134787
11.134784
11.134782
11.134966
11.134968
11.13497
11.134972
11.134975
11.134978
11.134985
11.135004
11.13509
11.135203
11.135302
11.135371
11.135411
11.135428
11.135434
11.135435
11.135435
11.135436
11.135438
11.135445
11.135463
11.135495
11.135536
11.135551
11.135501
11.13543
11.135532
11.136046
11.136944
11.136848
11.136706
11.136361
11.136361
11.136442
11.136479
11.136461
11.136423
11.136395
11.136381
11.136376
11.136375
11.136376
11.136376
11.136376
11.136371
11.136355
11.136318
11.136252
11.136157
11.136042
11.135924
11.135851
11.135835
11.135831
11.135828
11.135826
11.135824
11.135822
11.137068
11.13707
11.137072
11.137074
11.137077
11.137085
11.137134
11.137242
11.137362
11.137472
11.137562
11.137623
11.137658
11.137673
11.137677
11.137677
11.137676
11.137674
11.137672
11.137673
11.137683
11.137701
11.137735
11.137746
11.137725
11.137624
11.13752
11.137298
11.13742
11.088542
11.087543
11.087158
11.087111
11.087286
11.087463
11.087558
11.087589
11.087596
11.087594
11.087585
11.08757
11.087549
11.087524
11.087498
11.087478
11.087461
11.087433
11.087339
11.087239
11.087107
11.08753
11.08819
11.036415
11.038181
11.038918
10.985738
10.931907
10.878189
10.825571
10.77419
10.724062
10.67502
10.626921
10.579666
10.533211
10.487544
10.44267
10.398596
10.355321
10.312835
10.271114
10.230122
10.189803
10.150093
10.110914
10.072183
10.033815
9.9957242
9.957838
9.9200926
9.8824392
9.8448439
9.8072888
9.7697715
9.7323029
9.6949067
9.6576173
9.6204764
9.5835291
9.5468237
9.5104049
9.4743156
9.4385906
9.4032616
9.368352
9.3338784
9.29985
9.266268
9.2331263
9.2004119
9.1681054
9.1361819
9.1046113
9.0733597
9.0423905
9.0116644
9.0155338
9.0462258
9.0771558
9.1083629
9.1398836
9.1717518
9.2039972
9.2366447
9.2697138
9.3032173
9.3371614
9.3715449
9.4063591
9.441588
9.4772088
9.5131916
9.5494991
9.5860884
9.6229164
9.6599358
9.6971013
9.7343716
9.7717121
9.8090975
9.846515
9.8839675
9.9214742
9.9590705
9.9968072
10.03475
10.072974
10.111565
10.150613
10.190201
10.230408
10.271301
10.312932
10.355341
10.398549
10.442565
10.487388
10.533007
10.579416
10.626621
10.674658
10.723613
10.773623
10.824841
10.877338
10.93092
10.984916
10.984433
11.038018
11.037567
10.983981
10.929824
10.930263
10.876649
10.824198
10.773062
10.72314
10.674261
10.626288
10.579142
10.532791
10.487235
10.442485
10.398553
10.355445
10.313155
10.271662
10.230929
10.190902
10.151513
10.112683
10.074323
10.036343
9.9986515
9.9611709
9.9238324
9.8865815
9.8493804
9.8122091
9.7750652
9.7379621
9.7009249
9.6639872
9.6271896
9.5905767
9.5541936
9.5180832
9.4822888
9.4468491
9.4117926
9.3771417
9.3429117
9.3091113
9.2757413
9.2427957
9.2102614
9.1781195
9.1463452
9.114909
9.0837774
9.0529139
9.0222804
9.0326728
9.0632206
9.0939865
9.1250078
9.1563206
9.1879576
9.2199478
9.2523153
9.2850787
9.3182507
9.3518373
9.3858375
9.4202431
9.4550388
9.4902027
9.5257076
9.5615149
9.597581
9.6338618
9.6703139
9.706895
9.7435659
9.780294
9.8170562
9.8538413
9.8906529
9.9275121
9.9644585
10.001551
10.038862
10.076478
10.114493
10.153002
10.192097
10.231861
10.272364
10.31366
10.355785
10.398757
10.442579
10.487243
10.53273
10.579025
10.626125
10.674052
10.722883
10.772752
10.823835
10.87624
10.876273
10.929873
10.984076
11.037748
11.037737
10.984118
10.929956
10.876392
10.82402
10.823868
10.772796
10.722942
10.67413
10.626228
10.579165
10.532922
10.487511
10.442953
10.399271
10.35648
10.314581
10.273559
10.233379
10.193985
10.155304
10.117249
10.079721
10.04262
10.005844
9.9693006
9.9329099
9.896609
9.8603549
9.8241226
9.787905
9.7517102
9.7155589
9.6794816
9.6435153
9.6077
9.5720773
9.5366942
9.5015933
9.4668119
9.4323767
9.3983086
9.3646227
9.3313274
9.2984236
9.2659061
9.2337627
9.2019757
9.1705219
9.1393736
9.108499
9.077863
9.047429
9.0672844
9.0975739
9.1280455
9.1587347
9.1896752
9.2208972
9.2524269
9.2842859
9.3164906
9.3490518
9.3819742
9.4152559
9.4488885
9.4828569
9.5171409
9.5517146
9.5865414
9.6215818
9.6567845
9.6921088
9.7275172
9.7629753
9.7984557
9.8339408
9.8694262
9.9049235
9.9404627
9.9760935
10.011886
10.047927
10.084318
10.121172
10.158597
10.196703
10.235585
10.27532
10.315965
10.357553
10.400097
10.443587
10.488002
10.533311
10.579482
10.626496
10.674363
10.723147
10.772975
10.773188
10.824201
10.876543
10.930077
10.984215
11.037814
11.037829
10.984264
10.930159
10.876659
10.824352
10.773375
10.723619
10.723391
10.674645
10.626828
10.579885
10.533816
10.488651
10.444434
10.401206
10.359001
10.317836
10.277707
10.238582
10.200401
10.16308
10.126513
10.090578
10.055151
10.020105
9.9853248
9.9507123
9.9161875
9.8816924
9.8471903
9.8126639
9.778113
9.743551
9.7090021
9.6744976
9.6400731
9.6057724
9.5716461
9.5377337
9.5040708
9.4706834
9.4375912
9.4048096
9.3723479
9.3402089
9.3083896
9.276881
9.2456686
9.2147331
9.1840502
9.153592
9.123327
9.0932212
9.126775
9.1566383
9.1866362
9.2168004
9.2471594
9.2777386
9.3085589
9.3396368
9.3709839
9.4026068
9.434506
9.4666768
9.4991084
9.5317844
9.5646844
9.5977815
9.6310406
9.664423
9.6978764
9.7313513
9.7648129
9.7982329
9.8315908
9.8648775
9.898099
9.9312794
9.9644643
9.997723
10.03115
10.064858
10.098984
10.133674
10.169074
10.205327
10.242553
10.280849
10.320278
10.360867
10.402613
10.445485
10.489435
10.534403
10.580332
10.627176
10.674924
10.675206
10.723837
10.773546
10.824486
10.87676
10.930231
10.984309
11.03785
11.037882
10.984362
10.930307
10.876862
10.824619
10.773719
10.724066
10.675514
10.627974
10.627548
10.580835
10.535093
10.490387
10.446796
10.404403
10.363277
10.323468
10.284993
10.24783
10.211909
10.177118
10.143311
10.110316
10.077954
10.046049
10.014436
9.9829797
9.9515655
9.9201096
9.8885553
9.8568704
9.8250429
9.793077
9.7609897
9.7288075
9.6965651
9.6643252
9.6321421
9.6000544
9.5680976
9.5363011
9.5046872
9.4732735
9.4420738
9.4110959
9.3803423
9.3498103
9.3194921
9.289375
9.259442
9.2296715
9.2000386
9.1705146
9.2288566
9.257885
9.2869939
9.3162076
9.3455468
9.375028
9.4046636
9.434461
9.4644235
9.4945492
9.5248316
9.5552585
9.5858134
9.6164753
9.6472187
9.678012
9.7088175
9.7395951
9.7702916
9.8008155
9.8311303
9.8612116
9.8910458
9.9206336
9.9499937
9.9791668
10.008222
10.03726
10.066421
10.095871
10.125814
10.156472
10.188074
10.220836
10.254947
10.290543
10.327703
10.366443
10.406725
10.448473
10.491582
10.535938
10.581432
10.582172
10.628486
10.675873
10.724322
10.773906
10.824759
10.876968
10.930387
10.984421
11.037923
11.037962
10.984478
10.930467
10.877076
10.824908
10.774114
10.724619
10.676306
10.629125
10.583117
10.538403
10.53701
10.493124
10.450669
10.409807
10.37069
10.33344
10.298125
10.264743
10.233197
10.203303
10.174811
10.147423
10.120844
10.094785
10.068992
10.04326
10.017422
9.9913556
9.9649798
9.9382451
9.9111236
9.8836065
9.8557003
9.8274243
9.7988193
9.7700387
9.7411231
9.7121143
9.6830515
9.6539689
9.6248954
9.5958549
9.5668676
9.5379496
9.5091128
9.4803642
9.4517065
9.4231385
9.3946542
9.3662435
9.3378922
9.309582
9.4263534
9.4537242
9.4810668
9.5083886
9.5356928