/*--------------------------------*- C++ -*----------------------------------*\
| =========                 |                                                 |
| \\      /  F ield         | OpenFOAM: The Open Source CFD Toolbox           |
|  \\    /   O peration     | Version:  v2012                                 |
|   \\  /    A nd           | Website:  www.openfoam.com                      |
|    \\/     M anipulation  |                                                 |
\*---------------------------------------------------------------------------*/
FoamFile
{
    version     2.0;
    format      ascii;
    class       surfaceScalarField;
    location    "283";
    object      phi;
}
// * * * * * * * * * * * * * * * * * * * * * * * * * * * * * * * * * * * * * //

dimensions      [0 3 -1 0 0 0 0];
oriented        oriented;


internalField   nonuniform List<scalar> 
218985
(
-4.4312545e-07
0.0029101552
0.00011285474
-4.3155248e-07
0.0029101518
0.000112851
-4.3074926e-07
0.002910163
0.00011284801
-4.3312895e-07
0.0029101677
0.00011284545
-4.3072253e-07
0.0029101678
0.0001128418
-4.1808972e-07
0.0029101686
0.00011283849
-4.1401546e-07
0.0029101854
0.00011283488
-4.1174882e-07
0.0029101855
0.00011283011
-4.0962289e-07
0.0029101837
0.00011282614
-4.0162957e-07
0.0029101873
0.0001128231
-3.8961549e-07
0.0029101933
0.00011281983
-3.7391584e-07
0.0029101888
0.00011281564
-3.7539875e-07
0.0029102056
0.00011280993
-3.6058317e-07
0.0029101969
0.00011280445
-3.5197331e-07
0.0029102139
0.0001128016
-3.833864e-07
0.0029102673
0.00011280238
-5.0773501e-07
0.0029104361
0.00011281237
-8.3223242e-07
0.0029108914
0.00011284321
-1.4010901e-06
0.002911998
0.00011292091
-2.4114989e-06
0.0029143358
0.00011307801
-2.4815712e-06
0.0029186505
0.00011336087
-1.343236e-06
0.002924404
0.00011368108
1.069961e-05
0.0029286374
0.00011389901
1.025344e-05
0.0029197397
0.00011279696
5.4486328e-05
0.0028906162
0.00011000105
1.8110578e-05
0.0028048242
0.00010417408
8.2514296e-05
0.002690571
9.6569356e-05
2.8000605e-06
0.0025265108
8.171685e-05
3.6713201e-05
0.0024020003
4.987584e-05
-3.5538927e-05
0.0023300329
-4.4280411e-06
0.0024182213
2.9832649e-05
-7.9587641e-05
0.0025738927
4.7727014e-05
-2.1666157e-05
0.0027720972
5.0061936e-05
-5.6594353e-05
0.0029254527
5.1232868e-05
-1.760436e-05
0.0030422558
5.4846051e-05
-1.6416638e-05
0.0030977549
5.8645355e-05
-4.9522625e-06
0.0031249573
6.0917677e-05
-1.9591526e-06
0.0031335229
6.1778185e-05
-1.2112832e-06
0.0031352874
6.2082246e-05
-1.3244163e-06
0.0031351525
6.2162416e-05
-1.498282e-06
0.0031348296
6.2178621e-05
-1.6513104e-06
0.0031346199
6.2181575e-05
-1.8015718e-06
0.0031346014
6.2188861e-05
-1.9598196e-06
0.0031347889
6.2205606e-05
-2.2153889e-06
0.0031352788
6.2236976e-05
-2.3021499e-06
0.0031362289
6.2308259e-05
-2.5185884e-06
0.0031375151
6.2458534e-05
-1.6979836e-06
0.0031385494
6.2673995e-05
-1.8037195e-06
0.0031363671
6.2668011e-05
-1.4106284e-06
0.0031240769
6.2079522e-05
-4.8919482e-06
0.0030842985
6.1046877e-05
-8.5131451e-06
0.0029888317
6.020226e-05
-4.1489497e-05
0.0027947787
5.4065205e-05
-1.0229019e-05
0.0023812077
5.7072016e-05
1.8488553e-05
0.002369516
7.3825159e-05
-5.6712317e-06
0.0027534366
8.9834548e-05
5.929064e-07
0.0029090929
0.0001116395
5.9250652e-07
0.002964267
0.0001176121
6.6433363e-06
0.0029715867
0.00011879005
5.528043e-06
0.002957755
0.00011769882
6.6721868e-06
0.002941773
0.0001161044
4.4340034e-06
0.0029280793
0.00011474234
3.3942131e-06
0.0029193277
0.00011392712
2.1409035e-06
0.0029141765
0.00011348403
1.5262297e-06
0.0029116277
0.00011327539
1.1990319e-06
0.0029104872
0.00011317594
1.0720447e-06
0.0029100421
0.00011312991
1.0389076e-06
0.0029098917
0.00011310656
1.0493768e-06
0.0029098486
0.00011309402
1.058811e-06
0.0029098627
0.00011308632
1.0606502e-06
0.002909883
0.00011308012
1.0542843e-06
0.0029099015
0.00011307394
1.0352662e-06
0.0029099153
0.00011306674
1.0156367e-06
0.002909928
0.00011305829
1.0192799e-06
0.002909919
0.00011304999
1.0052081e-06
0.0029099395
0.00011304455
9.7482828e-07
0.0029099634
0.00011303999
9.5078565e-07
0.0029099608
0.00011303307
9.5496368e-07
0.0029099539
0.00011302701
9.3130639e-07
0.0029099708
0.00011302164
8.9771969e-07
0.0029099906
0.00011301713
8.7361631e-07
0.0029099904
0.00011301195
0.0029099926
0.00011300798
-2.7383867e-06
0.0027869521
0.00012309881
-2.7572359e-06
0.0027868965
0.00012311273
-2.8575098e-06
0.0027869635
0.00012312738
-2.916174e-06
0.0027868876
0.00012314179
-2.9324554e-06
0.0027868129
0.00012315735
-2.9880056e-06
0.0027868409
0.00012317541
-3.0811269e-06
0.0027868625
0.00012319401
-3.1283793e-06
0.0027867753
0.00012321143
-3.1295613e-06
0.0027866899
0.00012323021
-3.2015597e-06
0.0027867481
0.00012325192
-3.2340489e-06
0.0027866736
0.0001232742
-3.2536733e-06
0.002786625
0.00012329614
-3.2557913e-06
0.0027865669
0.00012331821
-3.241568e-06
0.002786508
0.00012334045
-3.1803822e-06
0.0027864221
0.00012336533
-3.1519565e-06
0.0027864659
0.00012339738
-3.1303588e-06
0.0027865788
0.00012344175
-3.125297e-06
0.0027869711
0.00012351099
-3.1269539e-06
0.0027879969
0.00012363246
-3.0872128e-06
0.0027902903
0.00012384648
-2.7665599e-06
0.0027948026
0.00012420441
-2.112517e-06
0.0028027271
0.00012469808
-5.1980032e-07
0.0028150483
0.00012513197
8.31002e-07
0.0028315624
0.00012484178
1.9347401e-06
0.0028479944
0.00012248862
-3.2699423e-07
0.0028504191
0.00011610963
-3.581123e-06
0.0028092451
0.00010310194
-4.2474652e-06
0.0026719487
8.2154309e-05
7.8400152e-06
4.6539441e-05
0.0023108891
1.9918706e-05
2.9945596e-05
0.0023391835
1.9998404e-05
4.7523104e-05
0.0027471759
1.3913792e-05
5.796027e-05
0.002936956
8.1627884e-06
6.6474025e-05
0.0030235755
5.3921981e-06
7.2500828e-05
0.0030543467
4.6622969e-06
7.6054704e-05
0.0030610423
4.939944e-06
7.7623568e-05
0.0030606482
5.2185518e-06
7.8126051e-05
0.0030591104
5.3920569e-06
7.8226344e-05
0.0030578291
5.4077975e-06
7.8214417e-05
0.0030570487
5.3224507e-06
7.8184631e-05
0.0030566896
5.1520578e-06
7.8157541e-05
0.0030566143
4.9466856e-06
7.8137974e-05
0.0030566873
4.6495097e-06
7.812324e-05
0.0030570035
4.3230433e-06
7.8094114e-05
0.0030573848
4.2838442e-06
7.7991538e-05
0.0030573351
4.6933268e-06
7.7660846e-05
0.0030554526
5.2643105e-06
7.6877456e-05
0.0030475089
2.8045132e-06
7.5071873e-05
0.0030251429
-1.0429644e-08
7.2330282e-05
0.0029727404
-1.4869854e-05
6.9174473e-05
0.0028711376
-2.0905686e-05
6.6108115e-05
0.002712025
-2.9031026e-05
6.0085956e-05
0.0025219321
-1.7513007e-05
4.3254482e-05
0.0023634488
0.0022981651
1.4354768e-05
0.00226137
1.7071486e-05
1.9723564e-05
0.0022403922
9.7965373e-06
1.1181311e-05
0.0022311527
4.5186766e-06
4.7208593e-06
0.0022243096
3.5910741e-06
3.2520291e-06
0.0022226234
1.4450601e-06
2.4114043e-07
0.0022218909
1.3371478e-06
-6.0468088e-07
0.0022235129
5.6874471e-07
-2.1907846e-06
0.0022259144
4.8889398e-07
-2.8903242e-06
0.0022289535
4.3236004e-07
-3.4714735e-06
0.0022323847
4.6288395e-07
-3.8941022e-06
0.0022362127
4.7739555e-07
-4.3054204e-06
0.0022404272
4.8706996e-07
-4.7015951e-06
0.002245035
4.8369492e-07
-5.0914578e-06
0.0022500329
4.6879855e-07
-5.4667022e-06
0.0022554076
4.4317002e-07
-5.817826e-06
0.0022611363
4.091222e-07
-6.1378188e-06
0.0022671872
3.6688377e-07
-6.417806e-06
0.0022735191
3.1495062e-07
-6.6468225e-06
0.0022800814
2.5415645e-07
-6.8165199e-06
0.0022868161
1.8328161e-07
-6.9179135e-06
0.0022936568
1.0617101e-07
-6.9469601e-06
0.0023005353
2.4590931e-08
-6.9030824e-06
0.0023073764
-6.1706893e-08
-6.7793499e-06
0.0023141018
-1.4988255e-07
-6.575517e-06
0.002320638
-2.3644581e-07
-6.2997184e-06
0.0023269156
-3.1992854e-07
-5.957753e-06
0.0023328677
-3.9952897e-07
-5.5525672e-06
0.0023384316
-4.7347782e-07
-5.0903741e-06
0.0023435523
-5.4232025e-07
-4.5784454e-06
0.0023481838
-6.0826926e-07
-4.0231986e-06
0.0023522847
-6.7061266e-07
-3.4302657e-06
0.0023558206
-7.2956463e-07
-2.806365e-06
0.002358767
-7.8601332e-07
-2.1604055e-06
0.0023611091
-8.3925442e-07
-1.5028157e-06
0.0023628355
-8.8786787e-07
-8.3851093e-07
0.002363945
-9.2945456e-07
-1.8002345e-07
0.002364424
-9.6640841e-07
4.8733145e-07
0.0023643364
-9.8725226e-07
1.074865e-06
0.0023636847
-1.0099351e-06
1.6616397e-06
0.0023624782
-1.0281613e-06
2.2346459e-06
0.0023607394
-1.0422931e-06
2.7811017e-06
0.0023584969
-1.0498696e-06
3.2924304e-06
0.0023557819
-1.052427e-06
3.7673629e-06
0.0023526289
-1.0515961e-06
4.2046034e-06
0.0023490741
-1.0474381e-06
4.602315e-06
0.0023451555
-1.0400168e-06
4.9586145e-06
0.0023409127
-1.0293407e-06
5.2720682e-06
0.0023363868
-1.0157098e-06
5.5416016e-06
0.0023316201
-1.0009309e-06
5.7676764e-06
0.0023266559
-9.8604476e-07
5.9502184e-06
0.0023215354
-9.6649162e-07
6.0870202e-06
-9.4650426e-07
6.1807369e-06
2.4716982e-05
-0.0027892349
6.4042178e-06
2.4010606e-05
-0.0027903014
6.4611254e-06
2.3299849e-05
-0.0027913187
6.5160149e-06
2.2582487e-05
-0.0027923174
6.5700042e-06
2.1855554e-05
-0.0027932749
6.6239133e-06
2.1115983e-05
-0.0027941691
6.678227e-06
2.036063e-05
-0.002795025
6.7332292e-06
1.9586312e-05
-0.0027958673
6.7889499e-06
1.8789543e-05
-0.0027966724
6.8452816e-06
1.7966816e-05
-0.0027974176
6.9023561e-06
1.7115351e-05
-0.0027981274
6.9602237e-06
1.6232698e-05
-0.0027988282
7.0185733e-06
1.5316987e-05
-0.0027995032
7.0770535e-06
1.436681e-05
-0.0028001917
7.1354458e-06
1.3380775e-05
-0.0028009903
7.1935201e-06
1.2357783e-05
-0.0028021216
7.2511425e-06
1.1297376e-05
-0.0028040085
7.3085758e-06
1.0200622e-05
-0.0028072413
7.3660537e-06
9.0707e-06
-0.0028120741
7.4223127e-06
7.9127752e-06
-0.0028168864
7.4718715e-06
6.7312538e-06
-0.0028153318
7.5013434e-06
5.5261312e-06
-0.0027932278
7.483161e-06
4.3012618e-06
-0.0027305621
7.3674767e-06
3.0910053e-06
-0.0026166633
7.099928e-06
1.961631e-06
-0.0024730991
6.6986353e-06
-0.0023557684
6.3229253e-06
-1.9987602e-06
-0.0023609625
6.2263172e-06
-3.1448984e-06
-0.0024785494
6.5964353e-06
-4.372873e-06
-0.002622427
6.9916887e-06
-5.6170381e-06
-0.0027365712
7.2531933e-06
-6.8416318e-06
-0.0027993668
7.3636182e-06
-8.0415137e-06
-0.0028215096
7.3776061e-06
-9.215919e-06
-0.0028230563
7.3442578e-06
-1.0360146e-05
-0.0028182204
7.2905531e-06
-1.146898e-05
-0.0028133622
7.2296448e-06
-1.2539258e-05
-0.0028101051
7.166932e-06
-1.3569841e-05
-0.0028081948
7.1037224e-06
-1.4560722e-05
-0.0028070392
7.0398283e-06
-1.5513223e-05
-0.0028062141
6.9749631e-06
-1.6428424e-05
-0.0028054973
6.9093142e-06
-1.7307393e-05
-0.0028047925
6.843272e-06
-1.8152013e-05
-0.0028040598
6.7769964e-06
-1.8964624e-05
-0.0028033156
6.7106313e-06
-1.9748356e-05
-0.0028025331
6.644392e-06
-2.0506563e-05
-0.0028016877
6.5785955e-06
-2.1242e-05
-0.002800803
6.5135073e-06
-2.195763e-05
-0.0027999026
6.4491526e-06
-2.2656516e-05
-0.0027989614
6.3853508e-06
-2.3341656e-05
-0.002797954
6.3218011e-06
-2.4015756e-05
-0.0027969026
6.2580456e-06
-2.4681074e-05
-0.0027958295
6.1933853e-06
-0.0027947036
6.1267907e-06
2.4582303e-05
-0.0027998828
5.7879176e-06
2.3961283e-05
-0.0028010734
5.8648698e-06
2.3326783e-05
-0.002802208
5.9398434e-06
2.2676707e-05
-0.0028033178
6.0138542e-06
2.2008613e-05
-0.0028043808
6.0875199e-06
2.1319695e-05
-0.0028053749
6.1612638e-06
2.0606967e-05
-0.0028063256
6.2353482e-06
1.9867646e-05
-0.0028072584
6.3100623e-06
1.9099402e-05
-0.0028081503
6.3854076e-06
1.8299287e-05
-0.0028089763
6.4608508e-06
1.7464037e-05
-0.0028097605
6.5359388e-06
1.6591337e-05
-0.0028105302
6.6104458e-06
1.5679437e-05
-0.0028112694
6.6839808e-06
1.4726971e-05
-0.002812018
6.756389e-06
1.3733066e-05
-0.0028128731
6.8277546e-06
1.2697171e-05
-0.0028140569
6.8980564e-06
1.1619202e-05
-0.0028159946
6.9674247e-06
1.0500485e-05
-0.0028192794
7.0359929e-06
9.3442451e-06
-0.0028241665
7.1023343e-06
8.1557456e-06
-0.0028290287
7.1609072e-06
6.9402438e-06
-0.0028274928
7.1987486e-06
5.6984988e-06
-0.0028053146
7.1895193e-06
4.4370124e-06
-0.0027423951
7.0854374e-06
3.1928494e-06
-0.0026280159
6.8330676e-06
2.0326211e-06
-0.0024838378
6.4486273e-06
-0.0023660019
6.0859746e-06
-2.0616275e-06
-0.0023708363
5.8951321e-06
-3.2356955e-06
-0.0024889098
6.2461283e-06
-4.493158e-06
-0.0026333774
6.6189236e-06
-5.7689582e-06
-0.0027479817
6.8623456e-06
-7.0247728e-06
-0.0028110186
6.9598593e-06
-8.2536796e-06
-0.0028332281
6.9641837e-06
-9.4536522e-06
-0.0028347507
6.9219866e-06
-1.0619249e-05
-0.0028298596
6.8586977e-06
-1.174525e-05
-0.0028249404
6.7869489e-06
-1.2828058e-05
-0.0028216241
6.7123126e-06
-1.3866432e-05
-0.0028196549
6.6363427e-06
-1.4860264e-05
-0.0028184383
6.5590799e-06
-1.5809834e-05
-0.0028175488
6.4803662e-06
-1.6715877e-05
-0.0028167634
6.4000907e-06
-1.7579941e-05
-0.0028159845
6.3183496e-06
-1.8403672e-05
-0.0028151722
6.235481e-06
-1.9189173e-05
-0.0028143426
6.1517591e-06
-1.993942e-05
-0.0028134675
6.0675338e-06
-2.0656671e-05
-0.0028125244
5.9832298e-06
-2.1343616e-05
-0.0028115377
5.8990329e-06
-2.2003006e-05
-0.0028105305
5.8149659e-06
-2.2637501e-05
-0.0028094773
5.7309368e-06
-2.3249699e-05
-0.0028083524
5.6467569e-06
-2.3841823e-05
-0.0028071779
5.5621037e-06
-2.4415594e-05
-0.002805976
5.4764074e-06
-0.0028047156
5.3887592e-06
2.4174458e-05
-0.0028091454
4.9297911e-06
2.3651035e-05
-0.002810481
5.0283921e-06
2.3104183e-05
-0.0028117562
5.1250743e-06
2.2532713e-05
-0.0028130015
5.2206441e-06
2.1934523e-05
-0.0028141947
5.3156032e-06
2.1307416e-05
-0.0028153136
5.410189e-06
2.0649022e-05
-0.0028163838
5.5044771e-06
1.9956739e-05
-0.0028174305
5.5983719e-06
1.922763e-05
-0.0028184302
5.6918113e-06
1.8459202e-05
-0.0028193591
5.7849019e-06
1.76498e-05
-0.0028202404
5.8775373e-06
1.6797164e-05
-0.0028211012
5.9693334e-06
1.5899803e-05
-0.0028219259
6.0598868e-06
1.4956322e-05
-0.0028227539
6.1485802e-06
1.3965795e-05
-0.0028236829
6.2350682e-06
1.2928049e-05
-0.0028249367
6.3195786e-06
1.1843445e-05
-0.0028269418
6.4023008e-06
1.0713387e-05
-0.0028302931
6.482819e-06
9.540987e-06
-0.0028352467
6.5595339e-06
8.33233e-06
-0.0028401695
6.6274124e-06
7.0929272e-06
-0.002838663
6.6743494e-06
5.8255219e-06
-0.0028164269
6.6756888e-06
4.5388561e-06
-0.0027532812
6.5862103e-06
3.2710174e-06
-0.0026384646
6.3550168e-06
2.0872321e-06
-0.0024937236
5.9975344e-06
-0.0023754256
5.6608212e-06
-2.1086365e-06
-0.0023797293
5.3830132e-06
-3.2979549e-06
-0.0024982369
5.702656e-06
-4.5725711e-06
-0.0026432316
6.0416945e-06
-5.8671014e-06
-0.0027582444
6.2577015e-06
-7.1425079e-06
-0.0028214893
6.3377829e-06
-8.3889391e-06
-0.0028437468
6.3301667e-06
-9.6028194e-06
-0.0028452336
6.2779964e-06
-1.0778353e-05
-0.0028402761
6.2048765e-06
-1.1909612e-05
-0.0028352844
6.1225674e-06
-1.2992966e-05
-0.0028318945
6.0360872e-06
-1.4026794e-05
-0.0028298498
5.9469109e-06
-1.5010841e-05
-0.002828554
5.8551981e-06
-1.5945254e-05
-0.0028275804
5.7608928e-06
-1.6830782e-05
-0.0028267045
5.6640843e-06
-1.7668363e-05
-0.0028258286
5.5649556e-06
-1.8460003e-05
-0.0028249127
5.4639666e-06
-1.9207627e-05
-0.0028239734
5.3619735e-06
-1.9912665e-05
-0.0028229847
5.2595247e-06
-2.0577398e-05
-0.0028219221
5.1563573e-06
-2.120479e-05
-0.0028208087
5.0523134e-06
-2.1797064e-05
-0.0028196689
4.9475864e-06
-2.2356268e-05
-0.0028184778
4.8422925e-06
-2.2884456e-05
-0.0028172098
4.7364336e-06
-2.3383282e-05
-0.0028158872
4.6298573e-06
-2.3853623e-05
-0.0028145327
4.5220974e-06
-0.0028131158
4.4122965e-06
2.3448091e-05
-0.0028165736
3.8402358e-06
2.3032718e-05
-0.0028180782
3.9608269e-06
2.2584214e-05
-0.0028195182
4.0795102e-06
2.2101821e-05
-0.0028209244
4.196998e-06
2.15841e-05
-0.0028222737
4.3136875e-06
2.1029191e-05
-0.0028235436
4.4296379e-06
2.0435313e-05
-0.0028247597
4.544819e-06
1.9800423e-05
-0.0028259465
4.6592812e-06
1.9122646e-05
-0.0028270799
4.7729151e-06
1.8399794e-05
-0.002828136
4.8854734e-06
1.7629798e-05
-0.0028291394
4.9966768e-06
1.6810695e-05
-0.0028301157
5.1062391e-06
1.5940541e-05
-0.0028310481
5.2137776e-06
1.5018455e-05
-0.0028319772
5.3188261e-06
1.404433e-05
-0.0028330009
5.4209893e-06
1.3017905e-05
-0.0028343434
5.519998e-06
1.1939583e-05
-0.002836432
5.6158111e-06
1.0811072e-05
-0.0028398643
5.7083565e-06
9.6361705e-06
-0.0028448975
5.7963652e-06
8.4208515e-06
-0.002849893
5.8747869e-06
7.1711796e-06
-0.0028484294
5.9322581e-06
5.8916198e-06
-0.0028261563
5.9465297e-06
4.5935051e-06
-0.0027628232
5.8769044e-06
3.3160643e-06
-0.0026476317
5.6774565e-06
2.1248657e-06
-0.0025024045
5.3588056e-06
-0.002383704
5.05948e-06
-2.1350245e-06
-0.0023873078
4.6914776e-06
-3.3246755e-06
-0.0025061824
4.9675439e-06
-4.5996382e-06
-0.0026516197
5.2630442e-06
-5.8968039e-06
-0.002766971
5.4449539e-06
-7.176347e-06
-0.00283038
5.5032483e-06
-8.4252978e-06
-0.0028526623
5.4818639e-06
-9.6380571e-06
-0.0028540995
5.4192564e-06
-1.0807963e-05
-0.0028490637
5.3361004e-06
-1.1929097e-05
-0.0028439858
5.2425947e-06
-1.2998009e-05
-0.0028405067
5.1436093e-06
-1.4012996e-05
-0.0028383692
5.0407635e-06
-1.497324e-05
-0.0028369751
4.9344289e-06
-1.5878568e-05
-0.0028358966
4.824737e-06
-1.6729393e-05
-0.0028349092
4.7119165e-06
-1.7526571e-05
-0.0028339147
4.5961335e-06
-1.82717e-05
-0.002832872
4.4777345e-06
-1.8966915e-05
-0.0028317979
4.3570844e-06
-1.9614667e-05
-0.0028306666
4.2344436e-06
-2.0216746e-05
-0.0028294549
4.1104884e-06
-2.0774387e-05
-0.0028281879
3.9858393e-06
-2.1289245e-05
-0.0028268892
3.8604479e-06
-2.1763121e-05
-0.0028255339
3.7340407e-06
-2.2197298e-05
-0.002824097
3.6068098e-06
-2.2593281e-05
-0.002822601
3.4788133e-06
-2.2952104e-05
-0.0028210689
3.3495868e-06
-0.002819471
3.2187011e-06
2.2359147e-05
-0.0028217654
2.5532282e-06
2.205836e-05
-0.0028234623
2.6941504e-06
2.1716771e-05
-0.0028250928
2.8333484e-06
2.1333451e-05
-0.0028266853
2.9715888e-06
2.0906115e-05
-0.0028282155
3.108965e-06
2.0433753e-05
-0.0028296619
3.2450345e-06
1.9915469e-05
-0.0028310494
3.3798396e-06
1.9349844e-05
-0.002832403
3.5137081e-06
1.8735318e-05
-0.0028336986
3.6465205e-06
1.8070142e-05
-0.0028349107
3.7779535e-06
1.7352377e-05
-0.0028360619
3.9076464e-06
1.6580431e-05
-0.0028371777
4.0350154e-06
1.5753114e-05
-0.0028382411
4.1592422e-06
1.4869147e-05
-0.0028392926
4.2800157e-06
1.3927728e-05
-0.0028404309
4.3972884e-06
1.2929014e-05
-0.0028418812
4.5107907e-06
1.1874072e-05
-0.0028440722
4.6204133e-06
1.0764816e-05
-0.0028476022
4.7257056e-06
9.6047302e-06
-0.0028527284
4.824727e-06
8.3993145e-06
-0.0028578068
4.9127114e-06
7.1559794e-06
-0.0028563992
4.9803016e-06
5.8813125e-06
-0.0028341142
5.0088457e-06
4.5895496e-06
-0.0027706421
4.9629042e-06
3.3214859e-06
-0.0026551527
4.8009831e-06
2.1376079e-06
-0.0025095302
4.5316456e-06
-0.0023905026
4.2807933e-06
-2.1322149e-06
-0.0023932527
3.8298373e-06
-3.3053848e-06
-0.0025124105
4.0534558e-06
-4.5611037e-06
-0.0026581897
4.2927806e-06
-5.8419836e-06
-0.0027737943
4.4330774e-06
-7.106808e-06
-0.0028373152
4.4658817e-06
-8.3395999e-06
-0.0028595963
4.4298312e-06
-9.5323744e-06
-0.002860971
4.3569296e-06
-1.0677882e-05
-0.0028558469
4.264048e-06
-1.1770355e-05
-0.0028506698
4.1600526e-06
-1.2806264e-05
-0.0028470855
4.0492694e-06
-1.3783624e-05
-0.0028448371
3.9332527e-06
-1.4701534e-05
-0.0028433255
3.812516e-06
-1.5560083e-05
-0.0028421215
3.6874784e-06
-1.636029e-05
-0.0028409996
3.5586674e-06
-1.7103331e-05
-0.002839861
3.4262766e-06
-1.7789885e-05
-0.002838666
3.2906885e-06
-1.8421274e-05
-0.0028374323
3.15304e-06
-1.8999068e-05
-0.0028361347
3.0139068e-06
-1.952502e-05
-0.0028347503
2.8732757e-06
-2.0001057e-05
-0.0028333045
2.7311078e-06
-2.0428447e-05
-0.0028318222
2.587669e-06
-2.0807139e-05
-0.0028302794
2.4425634e-06
-2.1138039e-05
-0.0028286501
2.295759e-06
-2.1415521e-05
-0.0028269635
2.1481546e-06
-2.166522e-05
-0.0028252121
1.9995388e-06
-0.0028234189
1.8491335e-06
2.0870088e-05
-0.0028244027
1.1154532e-06
2.068833e-05
-0.0028263036
1.2732044e-06
2.0459177e-05
-0.0028281636
1.4293103e-06
2.018132e-05
-0.0028299568
1.5844729e-06
1.9851816e-05
-0.0028316894
1.7394663e-06
1.9470937e-05
-0.0028333338
1.8925377e-06
1.9039248e-05
-0.0028349164
2.043594e-06
1.8555434e-05
-0.0028364599
2.1934022e-06
1.8017735e-05
-0.0028379386
2.3416642e-06
1.7424423e-05
-0.0028393274
2.4883685e-06
1.6773906e-05
-0.0028406491
2.633592e-06
1.6064347e-05
-0.0028419281
2.7767269e-06
1.5295382e-05
-0.0028431467
2.9160231e-06
1.4466349e-05
-0.0028443441
3.0515428e-06
1.3576155e-05
-0.0028456186
3.1832186e-06
1.2624864e-05
-0.0028471962
3.3103923e-06
1.1613189e-05
-0.0028495062
3.4323611e-06
1.054284e-05
-0.0028531479
3.548432e-06
9.4172988e-06
-0.0028583786
3.6572463e-06
8.2426892e-06
-0.0028635513
3.7548779e-06
7.0263268e-06
-0.002862213
3.8330646e-06
5.7770893e-06
-0.0028399427
3.8767502e-06
4.5128137e-06
-0.0027763877
3.8577197e-06
3.2750412e-06
-0.0026606929
3.7409813e-06
2.11838e-06
-0.0025147885
3.5346863e-06
-0.0023955248
3.3406016e-06
-2.0948798e-06
-0.0023972866
2.814401e-06
-3.2290377e-06
-0.0025166309
2.9765801e-06
-4.4425608e-06
-0.0026626273
3.1478932e-06
-5.6845004e-06
-0.0027783849
3.2391339e-06
-6.9119739e-06
-0.0028419588
3.2435036e-06
-8.1058835e-06
-0.0028642107
3.191619e-06
-9.2566043e-06
-0.0028655084
3.1078832e-06
-1.0356041e-05
-0.0028602849
3.005745e-06
-1.1398634e-05
-0.0028549975
2.892274e-06
-1.2381022e-05
-0.002851295
2.7712e-06
-1.3301361e-05
-0.0028489201
2.6442138e-06
-1.4158771e-05
-0.0028472731
2.5119897e-06
-1.4953539e-05
-0.0028459242
2.3749028e-06
-1.5686652e-05
-0.0028446471
2.2335887e-06
-1.6358648e-05
-0.0028433445
2.0883949e-06
-1.6969423e-05
-0.0028419769
1.9386337e-06
-1.7521271e-05
-0.0028405624
1.7868959e-06
-1.8016242e-05
-0.0028390771
1.6333846e-06
-1.8455949e-05
-0.0028374985
1.4783266e-06
-1.8841647e-05
-0.0028358529
1.3221392e-06
-1.917466e-05
-0.002834166
1.1651539e-06
-1.9462638e-05
-0.0028324082
1.0068559e-06
-1.9680305e-05
-0.0028305858
8.4668573e-07
-1.985425e-05
-0.0028286763
6.8659102e-07
-1.9976891e-05
-0.0028267066
5.2561038e-07
-0.002824697
3.6310726e-07
1.9023488e-05
-0.0028243029
-3.8137229e-07
1.8951447e-05
-0.002826418
-2.1648552e-07
1.8822167e-05
-0.0028284929
-5.4134043e-08
1.8637433e-05
-0.0028305065
1.0546778e-07
1.8402374e-05
-0.0028324348
2.6159413e-07
1.8117623e-05
-0.0028343013
4.2002941e-07
1.7779209e-05
-0.0028360952
5.8076072e-07
1.7384997e-05
-0.0028378451
7.4082196e-07
1.6933774e-05
-0.0028395255
8.996934e-07
1.6424548e-05
-0.0028411103
1.057081e-06
1.5855627e-05
-0.0028426209
1.2129055e-06
1.5225047e-05
-0.0028440811
1.36712e-06
1.4532338e-05
-0.0028454711
1.516675e-06
1.3776439e-05
-0.0028468312
1.662944e-06
1.2956646e-05
-0.0028482582
1.8048927e-06
1.2072677e-05
-0.0028499779
1.9417916e-06
1.1125158e-05
-0.0028524206
2.0730855e-06
1.0115974e-05
-0.0028561864
2.1980382e-06
9.0483181e-06
-0.0028615322
2.3149488e-06
7.9276998e-06
-0.0028668082
2.4204498e-06
6.7618967e-06
-0.0028655537
2.5088692e-06
5.5626387e-06
-0.0028433281
2.5686023e-06
4.3506257e-06
-0.0027797518
2.5789157e-06
3.1672038e-06
-0.0026639572
2.5133294e-06
2.0601475e-06
-0.0025179017
2.3778149e-06
-0.0023985057
2.2510663e-06
-2.0152279e-06
-0.0023991615
1.6611493e-06
-3.0885638e-06
-0.0025185793
1.7510097e-06
-4.2350575e-06
-0.0026646593
1.8485891e-06
-5.4105968e-06
-0.0027804634
1.8870797e-06
-6.5752218e-06
-0.0028440254
1.8619556e-06
-7.7066491e-06
-0.0028662176
1.7953056e-06
-8.792117e-06
-0.0028674261
1.703331e-06
-9.8233832e-06
-0.0028620967
1.5957351e-06
-1.0794735e-05
-0.0028566919
1.4768357e-06
-1.1702787e-05
-0.0028528621
1.3495353e-06
-1.254614e-05
-0.0028503499
1.2153004e-06
-1.3324303e-05
-0.0028485551
1.0750649e-06
-1.4037337e-05
-0.002847048
9.2975094e-07
-1.4686259e-05
-0.0028456023
7.8010112e-07
-1.5275418e-05
-0.0028441203
6.2836015e-07
-1.5809644e-05
-0.0028425668
4.8014159e-07
-1.6284825e-05
-0.002840963
3.278463e-07
-1.6698901e-05
-0.0028392827
1.7126399e-07
-1.7051975e-05
-0.0028375037
1.1616433e-08
-1.7344823e-05
-0.002835652
-1.5030795e-07
-1.757793e-05
-0.002833754
-3.1417775e-07
-1.775137e-05
-0.0028317812
-4.8015482e-07
-1.7866651e-05
-0.0028297429
-6.4830146e-07
-1.7923662e-05
-0.0028276181
-8.1777309e-07
-1.792076e-05
-0.0028254328
-9.8816381e-07
-0.0028232061
-1.1588319e-06
1.6674515e-05
-0.0028214001
-1.9351449e-06
1.6742523e-05
-0.0028237331
-1.7676328e-06
1.673206e-05
-0.0028260079
-1.5997482e-06
1.6663286e-05
-0.0028282418
-1.4323665e-06
1.6555905e-05
-0.0028304083
-1.2655042e-06
1.6384773e-05
-0.0028324846
-1.0982612e-06
1.6156518e-05
-0.0028344931
-9.3070194e-07
1.5870492e-05
-0.0028364543
-7.6338996e-07
1.5525416e-05
-0.0028383409
-5.9670202e-07
1.5119741e-05
-0.0028401263
-4.310155e-07
1.4651371e-05
-0.0028418315
-2.6696663e-07
1.4117341e-05
-0.0028434805
-1.0575471e-07
1.3516313e-05
-0.0028450522
5.0945299e-08
1.2848209e-05
-0.0028465833
2.0348103e-07
1.21127e-05
-0.002848171
3.5134468e-07
1.1309689e-05
-0.0028500407
4.938164e-07
1.0439622e-05
-0.0028526219
6.2993578e-07
9.503829e-06
-0.0028565144
7.582933e-07
8.505748e-06
-0.0028619754
8.7674349e-07
7.4524826e-06
-0.002867355
9.8215148e-07
6.3566601e-06
-0.0028661916
1.0697745e-06
5.2318723e-06
-0.0028440399
1.1392599e-06
4.0982326e-06
-0.0027805098
1.1800302e-06
2.9951695e-06
-0.0026647267
1.170438e-06
1.9621255e-06
-0.0025186583
1.1120351e-06
-0.0023992454
1.0587852e-06
-1.9108204e-06
-0.0023987555
4.5448628e-07
-2.9047688e-06
-0.0025181347
4.7030132e-07
-3.9642952e-06
-0.0026641577
4.9052485e-07
-5.0540142e-06
-0.0027798927
4.7262707e-07
-6.134701e-06
-0.002843375
4.1583527e-07
-7.1795875e-06
-0.0028654807
3.339837e-07
-8.1745109e-06
-0.0028665938
2.3376097e-07
-9.1110658e-06
-0.0028611572
1.1840667e-07
-9.9842207e-06
-0.0028556324
-8.8447807e-09
-1.0791858e-05
-0.0028516692
-1.4514784e-07
-1.1533116e-05
-0.002849011
-2.8839271e-07
-1.2207877e-05
-0.0028470592
-4.3702795e-07
-1.2816421e-05
-0.0028453849
-5.8990874e-07
-1.33594e-05
-0.0028437632
-7.4605758e-07
-1.3837808e-05
-0.0028420975
-9.0455271e-07
-1.425291e-05
-0.0028403516
-1.064801e-06
-1.4606265e-05
-0.0028385465
-1.22638e-06
-1.4899046e-05
-0.0028366594
-1.3887674e-06
-1.5132548e-05
-0.0028346691
-1.5516893e-06
-1.530776e-05
-0.0028326029
-1.7149783e-06
-1.5425318e-05
-0.0028304887
-1.8783557e-06
-1.5486441e-05
-0.0028283058
-2.0414156e-06
-1.5491772e-05
-0.0028260324
-2.2040828e-06
-1.543839e-05
-0.0028236945
-2.366761e-06
-1.532288e-05
-0.0028213193
-2.5293753e-06
-0.0028188864
-2.6912877e-06
1.3872344e-05
-0.0028156977
-3.4187088e-06
1.4040065e-05
-0.0028182211
-3.2659387e-06
1.4147362e-05
-0.0028206897
-3.1120629e-06
1.4196507e-05
-0.0028231243
-2.9571775e-06
1.4189429e-05
-0.0028254974
-2.8013037e-06
1.4126231e-05
-0.0028277809
-2.6445362e-06
1.4006092e-05
-0.0028299957
-2.4870649e-06
1.3828242e-05
-0.0028321622
-2.3290376e-06
1.3591745e-05
-0.0028342523
-2.170611e-06
1.3295301e-05
-0.0028362379
-2.0121754e-06
1.2937309e-05
-0.0028381393
-1.8542901e-06
1.2516215e-05
-0.0028399789
-1.6975231e-06
1.2030675e-05
-0.0028417352
-1.5424654e-06
1.1479691e-05
-0.0028434441
-1.389845e-06
1.0862584e-05
-0.0028452015
-1.2405534e-06
1.0179049e-05
-0.0028472318
-1.0956993e-06
9.4290264e-06
-0.0028499626
-9.5655837e-07
8.6131495e-06
-0.0028539919
-8.2456178e-07
7.7337563e-06
-0.0028595763
-7.0149503e-07
6.7955667e-06
-0.002865066
-5.8962867e-07
5.8078904e-06
-0.0028640023
-4.9073572e-07
4.7860682e-06
-0.0028419487
-4.0453492e-07
3.7570163e-06
-0.002778531
-3.3263696e-07
2.7609801e-06
-0.0026628775
-2.8413318e-07
1.8262512e-06
-0.002516939
-2.6094132e-07
-0.002397625
-2.3373311e-07
-1.7323198e-06
-0.00239587
-9.1053488e-07
-2.6034921e-06
-0.0025150892
-9.7862006e-07
-3.5321597e-06
-0.0026609037
-1.0451822e-06
-4.4945015e-06
-0.0027764448
-1.1238166e-06
-5.4513239e-06
-0.0028397814
-1.2104949e-06
-6.375086e-06
-0.0028617767
-1.3018123e-06
-7.2488565e-06
-0.002862791
-1.4012814e-06
-8.0634295e-06
-0.00285725
-1.5117016e-06
-8.8141993e-06
-0.0028516085
-1.6326426e-06
-9.4994156e-06
-0.002847515
-1.7623177e-06
-1.0118582e-05
-0.0028447138
-1.898844e-06
-1.067189e-05
-0.0028426076
-2.0405956e-06
-1.1159913e-05
-0.0028407698
-2.1862006e-06
-1.1583537e-05
-0.002838977
-2.3345174e-06
-1.1943848e-05
-0.002837134
-2.484582e-06
-1.2242161e-05
-0.0028352054
-2.6355991e-06
-1.2480107e-05
-0.002833213
-2.7869322e-06
-1.26593e-05
-0.002831135
-2.9380366e-06
-1.2781058e-05
-0.002828952
-3.0884257e-06
-1.2846281e-05
-0.0028266927
-3.2377947e-06
-1.2855693e-05
-0.0028243855
-3.3860026e-06
-1.2809826e-05
-0.0028220103
-3.5329715e-06
-1.2708253e-05
-0.0028195475
-3.6784257e-06
-1.2549782e-05
-0.0028170261
-3.8221342e-06
-1.2332742e-05
-0.002814474
-3.9640938e-06
-0.0028118722
-4.1043989e-06
1.0714363e-05
-0.0028074516
-4.7360164e-06
1.0977275e-05
-0.0028101255
-4.6114592e-06
1.1183683e-05
-0.0028127477
-4.4848004e-06
1.1335202e-05
-0.0028153431
-4.3559631e-06
1.143228e-05
-0.0028178823
-4.2250825e-06
1.1475365e-05
-0.0028203367
-4.0919347e-06
1.1464542e-05
-0.0028227255
-3.9563636e-06
1.1399146e-05
-0.002825068
-3.8186057e-06
1.127812e-05
-0.002827335
-3.6789965e-06
1.1100105e-05
-0.0028294971
-3.5379028e-06
1.0863431e-05
-0.0028315729
-3.3957758e-06
1.0566424e-05
-0.0028335838
-3.2531852e-06
1.0207603e-05
-0.0028355074
-3.1107723e-06
9.7857463e-06
-0.0028373786
-2.9694136e-06
9.2999065e-06
-0.0028392917
-2.8301362e-06
8.7494023e-06
-0.0028414692
-2.6940655e-06
8.1339184e-06
-0.0028443369
-2.5626366e-06
7.4537504e-06
-0.0028484907
-2.4376188e-06
6.7102095e-06
-0.0028541856
-2.3208825e-06
5.9073253e-06
-0.0028597743
-2.2137319e-06
5.0546603e-06
-0.0028588087
-2.1153488e-06
4.1700566e-06
-0.0028368765
-2.0203118e-06
3.2825623e-06
-0.002773637
-1.9203511e-06
2.4280996e-06
-0.0026582358
-1.813359e-06
1.6255489e-06
-0.002512583
-1.7037239e-06
-0.00239349
-1.5937158e-06
-1.5080987e-06
-0.0023904973
-2.270554e-06
-2.2349538e-06
-0.0025094335
-2.4226138e-06
-3.0081009e-06
-0.0026548881
-2.5746277e-06
-3.8149202e-06
-0.0027701211
-2.7090629e-06
-4.6202493e-06
-0.0028332501
-2.8210281e-06
-5.395215e-06
-0.0028551154
-2.9182824e-06
-6.120803e-06
-0.0028560346
-3.0141176e-06
-6.787511e-06
-0.0028504024
-3.1165297e-06
-7.3918357e-06
-0.0028446589
-3.2275008e-06
-7.9327128e-06
-0.0028404499
-3.3461343e-06
-8.4102006e-06
-0.0028375211
-3.4705759e-06
-8.8249277e-06
-0.0028352781
-3.5988734e-06
-9.1776202e-06
-0.0028332965
-3.7293545e-06
-9.4692089e-06
-0.002831355
-3.8608348e-06
-9.7011615e-06
-0.0028293593
-3.9925297e-06
-9.8752119e-06
-0.0028272752