/*--------------------------------*- C++ -*----------------------------------*\
| =========                 |                                                 |
| \\      /  F ield         | OpenFOAM: The Open Source CFD Toolbox           |
|  \\    /   O peration     | Version:  v2012                                 |
|   \\  /    A nd           | Website:  www.openfoam.com                      |
|    \\/     M anipulation  |                                                 |
\*---------------------------------------------------------------------------*/
FoamFile
{
    version     2.0;
    format      ascii;
    class       volVectorField;
    location    "283";
    object      U;
}
// * * * * * * * * * * * * * * * * * * * * * * * * * * * * * * * * * * * * * //

dimensions      [0 1 -1 0 0 0 0];


internalField   nonuniform List<vector> 
74500
(
(5.0000427 4.8646657e-05 -0.00082872924)
(5.0000443 5.0877094e-05 -0.00082921749)
(5.0000459 5.3185648e-05 -0.00082830532)
(5.0000476 5.556907e-05 -0.00082593884)
(5.0000494 5.8025381e-05 -0.00082205297)
(5.0000511 6.0550925e-05 -0.00081656288)
(5.0000529 6.3145032e-05 -0.00080936927)
(5.0000548 6.5805669e-05 -0.00080035808)
(5.0000566 6.8524054e-05 -0.0007894062)
(5.0000585 7.129415e-05 -0.00077638302)
(5.0000603 7.4109464e-05 -0.00076115501)
(5.0000622 7.6956337e-05 -0.00074358793)
(5.000064 7.982459e-05 -0.00072355379)
(5.0000659 8.2701605e-05 -0.00070093058)
(5.0000676 8.5566808e-05 -0.00067561225)
(5.0000694 8.8403372e-05 -0.00064750913)
(5.0000711 9.1189595e-05 -0.0006165541)
(5.0000727 9.3898915e-05 -0.00058270607)
(5.0000743 9.6505373e-05 -0.0005459436)
(5.0000758 9.8985351e-05 -0.00050628564)
(5.0000771 0.000101325 -0.00046370748)
(5.0000783 0.00010356867 -0.00041835076)
(5.000079 0.00010571524 -0.00036997737)
(5.0000797 0.00010801231 -0.00031989552)
(5.0000796 0.00010940048 -0.00026669699)
(5.0000808 0.00011227039 -0.00021520881)
(5.0000809 0.000111347 -0.0001619775)
(5.0000832 0.00011533829 -0.00011383978)
(5.0000841 0.00011428982 -6.774121e-05)
(5.0000822 0.00011718226 -2.3053934e-05)
(5.0000608 0.00034279888 -2.4236117e-05)
(5.0000633 0.00057631195 -2.841849e-05)
(5.0000613 0.00082126802 -2.9518483e-05)
(5.0000618 0.0010921638 -3.1999618e-05)
(5.0000576 0.0013605653 -3.2855497e-05)
(5.0000512 0.0016363678 -3.2527161e-05)
(5.0000443 0.0018999222 -3.3356722e-05)
(5.0000361 0.0021514099 -3.4341224e-05)
(5.0000276 0.0023827943 -3.6601892e-05)
(5.0000177 0.0025899267 -3.954998e-05)
(5.0000042 0.0027678124 -4.3004458e-05)
(4.9999922 0.0029108588 -4.6811052e-05)
(4.9999787 0.0030128288 -5.1063524e-05)
(4.999962 0.0030673537 -5.5556883e-05)
(4.9999434 0.0030684215 -6.03137e-05)
(4.9999233 0.003009933 -6.5201096e-05)
(4.9999021 0.002886931 -7.0054306e-05)
(4.9998802 0.0026958655 -7.4320598e-05)
(4.9998583 0.0024365807 -7.7045339e-05)
(4.9998374 0.0021113181 -7.6089302e-05)
(4.999819 0.0017272085 -6.862494e-05)
(4.9998025 0.0012893854 -5.5585269e-05)
(4.999795 0.00083723196 -3.5017178e-05)
(4.9997775 0.00034367478 -6.2676532e-05)
(4.9998157 0.00013370029 -0.00015504464)
(4.9998047 0.00013604681 -0.00039481647)
(4.999813 0.00015421105 -0.00062593321)
(4.9998203 0.0001641896 -0.00084163309)
(4.9998291 0.00016750024 -0.001040332)
(4.9998377 0.00016665987 -0.0012213245)
(4.9998463 0.00016296961 -0.0013821679)
(4.9998549 0.00015818751 -0.0015230267)
(4.9998634 0.00015258509 -0.0016432183)
(4.999872 0.00014678696 -0.0017439221)
(4.9998805 0.00014084542 -0.0018260375)
(4.9998887 0.00013492314 -0.0018910073)
(4.9998967 0.00012905039 -0.0019402637)
(4.9999043 0.0001232633 -0.0019753452)
(4.9999115 0.00011757834 -0.0019977959)
(4.9999181 0.00011202224 -0.0020091427)
(4.9999243 0.00010663428 -0.0020108486)
(4.9999301 0.00010142983 -0.0020043215)
(4.9999353 9.6413745e-05 -0.0019908252)
(4.9999402 9.1590616e-05 -0.00197153)
(4.9999446 8.6959963e-05 -0.0019474869)
(4.9999486 8.2533732e-05 -0.0019196366)
(4.9999524 7.8318477e-05 -0.001888789)
(4.9999558 7.4313555e-05 -0.0018556454)
(4.9999589 7.0517741e-05 -0.0018207804)
(4.9999617 6.689098e-05 -0.0017845851)
(4.9999644 6.3423227e-05 -0.001747668)
(4.9999668 6.0125625e-05 -0.0017103732)
(4.999969 5.6991075e-05 -0.0016729738)
(4.9997625 0.00016890655 -0.005124922)
(4.9997454 0.00017824036 -0.0052391913)
(4.999727 0.00018805779 -0.0053531577)
(4.999707 0.00019838665 -0.0054659818)
(4.9996852 0.0002092571 -0.0055766165)
(4.9996614 0.00022068339 -0.0056836447)
(4.9996355 0.00023270362 -0.0057855617)
(4.9996072 0.00024535225 -0.0058805197)
(4.9995763 0.00025865767 -0.0059663641)
(4.9995426 0.00027258854 -0.0060406052)
(4.9995057 0.0002871312 -0.0061003508)
(4.9994657 0.00030229594 -0.0061424031)
(4.9994221 0.00031805655 -0.0061631783)
(4.999375 0.0003343809 -0.0061587709)
(4.9993242 0.00035122598 -0.0061248851)
(4.9992699 0.0003684956 -0.0060570228)
(4.999212 0.00038608842 -0.0059504696)
(4.9991508 0.00040390169 -0.0058004409)
(4.9990869 0.0004217724 -0.0056021909)
(4.9990208 0.00043948382 -0.0053511929)
(4.9989536 0.00045666726 -0.0050433352)
(4.9988863 0.00047290801 -0.0046752296)
(4.9988202 0.0004873064 -0.0042446662)
(4.9987562 0.00049887681 -0.0037513006)
(4.9986953 0.00050496903 -0.003197037)
(4.9986377 0.0005019993 -0.0025846188)
(4.9985879 0.00048427573 -0.0019209196)
(4.9985423 0.00044438353 -0.0011990581)
(4.9985459 0.00041090356 -0.00049817887)
(4.9984411 0.0010665643 -0.0002319564)
(4.9985199 0.0025587772 -0.00018251714)
(4.9986007 0.0039501053 -0.00021589727)
(4.9987204 0.0052940683 -0.00023612563)
(4.9988565 0.0064733876 -0.00024373737)
(4.9990077 0.0074702509 -0.00023859312)
(4.9991657 0.0082632432 -0.00022674335)
(4.9993249 0.0088455806 -0.00021196253)
(4.9994799 0.0092195691 -0.00019612434)
(4.9996268 0.0093957448 -0.00018027639)
(4.9997622 0.0093896915 -0.0001649914)
(4.9998844 0.0092201162 -0.000150538)
(4.9999926 0.0089059069 -0.00013705889)
(5.0000873 0.0084663553 -0.0001247446)
(5.0001684 0.0079207018 -0.00011398039)
(5.0002375 0.0072862412 -0.00010445319)
(5.0002953 0.0065781896 -9.6549819e-05)
(5.0003428 0.0058115929 -9.0570962e-05)
(5.0003814 0.0050025039 -8.5293814e-05)
(5.0004104 0.0041684624 -8.0673488e-05)
(5.0004326 0.0033325361 -7.5031187e-05)
(5.0004438 0.0025173028 -6.9310211e-05)
(5.0004542 0.0017472541 -6.6458401e-05)
(5.0004666 0.0010329885 -6.4988206e-05)
(5.0005195 0.00034309974 -6.6508573e-05)
(5.0014722 0.00058113574 -0.0001037159)
(5.0030312 0.00081593697 -0.00014377607)
(5.005265 0.0010821118 -0.00018808458)
(5.0082 0.0013446894 -0.00023390758)
(5.0118584 0.0016259815 -0.00028488512)
(5.0162033 0.0019114205 -0.00032942456)
(5.0212573 0.0022086119 -0.0003697593)
(5.0270354 0.0025142749 -0.00040201345)
(5.0335831 0.0028278306 -0.00042743894)
(5.0409426 0.0031465369 -0.00044654344)
(5.0491528 0.0034676481 -0.00045972329)
(5.0582404 0.0037873628 -0.00046644981)
(5.0682181 0.0040998856 -0.00046527386)
(5.0790829 0.0043976121 -0.00045591316)
(5.0908156 0.0046754525 -0.0004382613)
(5.1033767 0.0049273708 -0.00041175551)
(5.1167056 0.0051460493 -0.00037658264)
(5.1307209 0.005324003 -0.00033279294)
(5.1453199 0.0054540841 -0.00028053846)
(5.1603782 0.0055305556 -0.00022024616)
(5.1757591 0.0055485338 -0.00015319272)
(5.1912971 0.0055066818 -7.8817985e-05)
(5.2068485 0.0054015488 -4.4080484e-06)
(5.222217 0.005236138 7.401495e-05)
(5.2372458 0.0050155774 0.00015145022)
(5.2517662 0.0047433625 0.00022555754)
(5.2656212 0.0044225672 0.00029551364)
(5.2786655 0.0040574351 0.00036111598)
(5.2907681 0.0036534014 0.00042247264)
(5.3018136 0.0032116583 0.00048029816)
(5.3117035 0.0027348545 0.00053670926)
(5.3203487 0.0022334988 0.00059280302)
(5.327689 0.0017152882 0.00064743063)
(5.3336695 0.001188373 0.00069914223)
(5.3382802 0.00065611418 0.00074692988)
(5.3414719 0.00012573508 0.00079019508)
(5.3433006 -0.00042768655 0.00082977486)
(5.343642 -0.00087237923 0.00085405709)
(5.3428628 -0.0013465718 0.00088177249)
(5.3407462 -0.0018075429 0.00090366555)
(5.3373976 -0.0022464436 0.0009211392)
(5.3328837 -0.0026572966 0.00093422127)
(5.3272636 -0.003038701 0.00094294165)
(5.3206126 -0.0033893319 0.00094771307)
(5.3130116 -0.0037077812 0.00094880256)
(5.3045445 -0.0039929679 0.00094639237)
(5.2952994 -0.0042440791 0.00094101122)
(5.2853677 -0.004460374 0.0009331851)
(5.2748432 -0.0046413363 0.00092318225)
(5.263822 -0.0047866942 0.00091127649)
(5.2524009 -0.0048963955 0.00089791417)
(5.2406777 -0.0049707056 0.00088338921)
(5.21354 -0.003805874 0.046906216)
(5.2154961 -0.0038397791 0.045586954)
(5.2173706 -0.003872426 0.044261601)
(5.2191676 -0.0039044926 0.042926585)
(5.2208908 -0.0039364896 0.041576999)
(5.2225432 -0.003968726 0.040207016)
(5.2241274 -0.0040013746 0.038810482)
(5.2256451 -0.0040345069 0.037381)
(5.2270973 -0.0040681338 0.035912311)
(5.2284846 -0.004102215 0.034398397)
(5.229807 -0.0041366318 0.032833698)
(5.2310638 -0.0041711996 0.031213174)
(5.2322541 -0.0042057278 0.02953253)
(5.2333762 -0.0042399888 0.02778818)
(5.2344283 -0.0042737101 0.025977351)
(5.2354083 -0.0043065435 0.024097955)
(5.2363139 -0.0043380308 0.022148669)
(5.237143 -0.0043675817 0.020128745)
(5.2378933 -0.0043946915 0.018038185)
(5.2385622 -0.0044196401 0.015878752)
(5.2391462 -0.0044445602 0.013656808)
(5.2396401 -0.0044734079 0.011389681)
(5.2400375 -0.0045102424 0.0091118419)
(5.2403338 -0.0045610791 0.0068776296)
(5.2405301 -0.0046428527 0.0047465827)
(5.240639 -0.0047832311 0.0027577842)
(5.2523596 -0.0047118252 0.0028039826)
(5.2522454 -0.0045734244 0.0048268674)
(5.2520418 -0.004491991 0.0069941245)
(5.2517349 -0.0044406034 0.0092653791)
(5.2513236 -0.0044024483 0.011580052)
(5.2508125 -0.0043716991 0.013881998)
(5.250208 -0.0043444446 0.016135955)
(5.249515 -0.0043168095 0.018323998)
(5.2487371 -0.0042867125 0.020439378)
(5.2478767 -0.0042538998 0.022480029)
(5.2469359 -0.004218892 0.024445663)
(5.2459169 -0.0041822867 0.026336772)
(5.2448218 -0.0041445489 0.028154432)
(5.2436527 -0.0041060438 0.029900465)
(5.2424113 -0.0040670596 0.031577437)
(5.2410991 -0.0040278249 0.033188667)
(5.239717 -0.0039885517 0.034738199)
(5.2382656 -0.0039494195 0.036230812)
(5.2367446 -0.0039105774 0.037671846)
(5.2351537 -0.003872083 0.039066991)
(5.2334914 -0.0038339351 0.040422201)
(5.2317559 -0.0037960681 0.041743489)
(5.2299444 -0.0037583484 0.043036654)
(5.2280537 -0.0037204933 0.044307169)
(5.2260795 -0.0036820394 0.045559595)
(5.2240176 -0.0036423587 0.046797285)
(5.2340087 -0.0034418596 0.046567639)
(5.2361862 -0.0034876091 0.045417761)
(5.23827 -0.0035321585 0.044244086)
(5.2402649 -0.003576086 0.043043609)
(5.2421751 -0.0036198066 0.041812146)
(5.2440042 -0.0036635725 0.040544636)
(5.2457551 -0.0037074807 0.039235687)
(5.2474298 -0.003751583 0.037879707)
(5.2490296 -0.0037958758 0.036471093)
(5.2505553 -0.0038402847 0.035004469)
(5.2520068 -0.0038846471 0.033474773)
(5.2533837 -0.0039287681 0.031877473)
(5.2546852 -0.0039724276 0.030208775)
(5.2559098 -0.0040153691 0.028465644)
(5.2570558 -0.0040573107 0.026645696)
(5.2581212 -0.0040978819 0.024747399)
(5.259104 -0.0041365982 0.022769893)
(5.2600021 -0.0041728519 0.020712952)
(5.2608134 -0.0042061135 0.018577146)
(5.2615354 -0.0042365984 0.016364831)
(5.2621648 -0.0042663206 0.014083174)
(5.2626967 -0.004299023 0.011750607)
(5.2631249 -0.0043384534 0.0094032443)
(5.2634445 -0.0043902495 0.0070989413)
(5.2636574 -0.0044710631 0.0048987141)
(5.2637777 -0.0046060662 0.0028455064)
(5.274795 -0.0044658816 0.0028817076)
(5.2746678 -0.0043351895 0.0049609365)
(5.2744438 -0.0042555915 0.0071898899)
(5.2741092 -0.0042035726 0.0095227624)
(5.2736611 -0.0041629448 0.011897912)
(5.2731044 -0.0041282427 0.014256231)
(5.2724454 -0.00409594 0.016560592)
(5.2716889 -0.0040624597 0.018792175)
(5.2708382 -0.0040258771 0.020943376)
(5.2698958 -0.0039860195 0.023011548)
(5.2688636 -0.0039434295 0.024995863)
(5.2677437 -0.0038987234 0.026896269)
(5.2665383 -0.0038524038 0.028713423)
(5.2652492 -0.0038048431 0.030448607)
(5.263878 -0.0037563238 0.032103986)
(5.2624264 -0.0037071284 0.033682337)
(5.2608952 -0.003657488 0.035187177)
(5.2592847 -0.0036076176 0.036622845)
(5.257595 -0.0035576862 0.037994049)
(5.2558255 -0.0035077745 0.039305912)
(5.2539748 -0.0034578937 0.040563605)
(5.2520408 -0.0034080129 0.041772309)
(5.2500207 -0.0033580598 0.042936919)
(5.2479108 -0.0033078247 0.044062063)
(5.2457067 -0.0032569436 0.045151473)
(5.2434033 -0.003204884 0.046207788)
(5.2520933 -0.0029324204 0.045707819)
(5.2545332 -0.0029909544 0.044750323)
(5.2568688 -0.0030483331 0.043750273)
(5.2591052 -0.0031050324 0.042705494)
(5.2612469 -0.0031613797 0.041612727)
(5.2632975 -0.0032175276 0.040467795)
(5.2652598 -0.0032735254 0.039266375)
(5.2671359 -0.0033293884 0.038003726)
(5.268927 -0.0033850942 0.036675101)
(5.2706335 -0.0034405638 0.035275673)
(5.2722554 -0.0034956286 0.03380102)
(5.2737923 -0.0035500439 0.032247057)
(5.2752432 -0.003603571 0.030610489)
(5.2766065 -0.0036559046 0.028888805)
(5.2778804 -0.0037067469 0.027080071)
(5.2790632 -0.0037557242 0.02518322)
(5.2801525 -0.0038023286 0.023197789)
(5.2811465 -0.0038459221 0.021124094)
(5.2820431 -0.0038859495 0.018963217)
(5.2828398 -0.0039225584 0.016718091)
(5.2835335 -0.0039575395 0.014396735)
(5.2841192 -0.0039942849 0.012018316)
(5.2845906 -0.004036054 0.0096210382)
(5.2849427 -0.0040882211 0.0072646726)
(5.2851796 -0.0041657786 0.0050120322)
(5.2853147 -0.004291378 0.0029117828)
(5.2952412 -0.0040829408 0.0029347767)
(5.2950967 -0.0039630098 0.0050504511)
(5.2948454 -0.003888422 0.0073209535)
(5.2944727 -0.0038361785 0.0096949306)
(5.2939746 -0.0037933072 0.012107954)
(5.2933556 -0.0037544966 0.01449998)
(5.2926219 -0.0037167447 0.016831868)
(5.2917788 -0.0036769021 0.019084052)
(5.2908295 -0.0036333143 0.021248166)
(5.2897764 -0.0035858796 0.023320996)
(5.2886216 -0.0035351652 0.025301189)
(5.2873671 -0.003481819 0.027188221)
(5.2860151 -0.0034263557 0.028982337)
(5.2845676 -0.0033691656 0.030684452)
(5.2830264 -0.0033105464 0.032296242)
(5.2813932 -0.0032508124 0.033819986)
(5.2796691 -0.0031902398 0.035258743)
(5.2778548 -0.0031290919 0.036616374)
(5.2759503 -0.0030675292 0.037897049)
(5.2739555 -0.0030056477 0.039105275)
(5.2718693 -0.0029434715 0.04024538)
(5.2696898 -0.0028809855 0.041321643)
(5.2674145 -0.0028181753 0.042337763)
(5.2650398 -0.00275494 0.043297444)
(5.2625612 -0.0026909967 0.044203445)
(5.2599738 -0.002625918 0.045057464)
(5.266945 -0.0022873581 0.044246354)
(5.2696908 -0.002358926 0.043499857)
(5.2723239 -0.0024293834 0.042692089)
(5.274849 -0.0024991073 0.041821904)
(5.2772703 -0.0025683441 0.040887021)
(5.2795911 -0.0026371355 0.039884211)
(5.2818137 -0.0027054503 0.038810444)
(5.2839396 -0.0027733234 0.037661957)
(5.2859698 -0.0028407284 0.036434787)
(5.2879041 -0.0029075622 0.035124783)
(5.2897421 -0.0029736445 0.033727986)
(5.2914829 -0.0030387136 0.03224071)
(5.2931253 -0.0031024459 0.030660103)
(5.2946674 -0.0031645211 0.028984175)
(5.2961074 -0.003224648 0.027211436)
(5.2974429 -0.0032824165 0.025341123)
(5.2986718 -0.0033372932 0.02337317)
(5.2997919 -0.0033886338 0.021308314)
(5.3008011 -0.0034358658 0.019148136)
(5.3016969 -0.0034790029 0.016896158)
(5.3024761 -0.0035196055 0.014561055)
(5.3031332 -0.003560518 0.012162795)
(5.3036617 -0.0036044136 0.0097410049)
(5.3040578 -0.0036563177 0.0073563856)
(5.3043252 -0.003727322 0.0050746432)
(5.3044801 -0.0038411147 0.0029495134)
(5.3129399 -0.0035665335 0.002955085)
(5.3127735 -0.0034596586 0.0050832281)
(5.3124886 -0.0033923 0.0073684208)
(5.3120664 -0.0033413904 0.0097557727)
(5.3115032 -0.0032966306 0.012178526)
(5.310803 -0.003253573 0.01457479)
(5.3099727 -0.0032100492 0.016904942)
(5.3090176 -0.0031636011 0.019148686)
(5.3079412 -0.0031127061 0.021296987)
(5.306746 -0.0030574331 0.023346054)
(5.3054342 -0.0029983818 0.02529408)
(5.3040082 -0.0029362019 0.027140154)
(5.3024703 -0.0028714401 0.028884183)
(5.300823 -0.0028045251 0.030526791)
(5.2990682 -0.002735727 0.032069375)
(5.2972083 -0.0026653859 0.033513539)
(5.2952446 -0.002593873 0.034861982)
(5.2931782 -0.0025214565 0.036118286)
(5.2910099 -0.0024483294 0.037286209)
(5.2887402 -0.0023746086 0.03836958)
(5.2863687 -0.0023003177 0.039372001)
(5.2838942 -0.0022253777 0.040296734)
(5.2813147 -0.0021498747 0.041145966)
(5.2786273 -0.0020738516 0.041922623)
(5.2758279 -0.0019970877 0.04262847)
(5.2729126 -0.0019192461 0.043264115)
(5.2777906 -0.0015246358 0.042100643)
(5.2808857 -0.0016083661 0.041578445)
(5.2838622 -0.0016910733 0.040977616)
(5.2867237 -0.0017730566 0.040298156)
(5.2894733 -0.0018545339 0.039538814)
(5.2921137 -0.0019353047 0.038696602)
(5.2946464 -0.0020152428 0.037770449)
(5.2970722 -0.0020945169 0.036757601)
(5.2993909 -0.0021730928 0.035654786)
(5.3016016 -0.002250845 0.034458486)
(5.303703 -0.0023276082 0.033165132)
(5.3056935 -0.0024030841 0.031771121)
(5.3075717 -0.0024767979 0.030273797)
(5.3093349 -0.002548417 0.028672132)
(5.3109808 -0.0026177107 0.026964694)
(5.3125068 -0.0026842206 0.025150999)
(5.3139103 -0.0027473898 0.023231251)
(5.3151888 -0.0028065563 0.021206532)
(5.3163399 -0.0028611106 0.019078858)
(5.3173609 -0.002910952 0.016852219)
(5.3182482 -0.0029572264 0.01453572)
(5.3189963 -0.0030021335 0.012150069)
(5.3195981 -0.0030476578 0.0097357059)
(5.3200493 -0.0030977212 0.0073551779)
(5.320354 -0.0031612557 0.0050747338)
(5.3205328 -0.0032597383 0.0029503344)
(5.3271754 -0.0029218734 0.0029345659)
(5.3269827 -0.0028329547 0.00504692)
(5.3266556 -0.0027731433 0.0073128966)
(5.3261723 -0.0027246146 0.0096772469)
(5.3255282 -0.0026785498 0.01207373)
(5.3247274 -0.0026317609 0.014438758)
(5.3237772 -0.0025826959 0.016731643)
(5.3226835 -0.0025295608 0.018931513)
(5.3214501 -0.0024714415 0.021029095)
(5.3200801 -0.0024085064 0.023020237)
(5.318576 -0.0023413742 0.024902725)
(5.3169405 -0.0022707138 0.026675341)
(5.3151765 -0.0021971023 0.028337807)
(5.3132869 -0.0021210311 0.029890464)
(5.3112745 -0.0020426768 0.031334942)
(5.3091423 -0.0019622993 0.032671317)
(5.3068918 -0.0018805759 0.033902508)
(5.3045252 -0.0017978314 0.035032292)
(5.3020443 -0.0017141999 0.036064081)
(5.2994508 -0.0016298095 0.037001059)
(5.2967453 -0.001544731 0.037846224)
(5.2939279 -0.0014586349 0.038601947)
(5.2909974 -0.0013716176 0.039267661)
(5.2879517 -0.0012841851 0.039847)
(5.2847885 -0.0011960745 0.040340535)
(5.281505 -0.0011070156 0.040747625)
(5.2839909 -0.00067095781 0.039201974)
(5.2874719 -0.00076434413 0.038910167)
(5.2908318 -0.00085690554 0.038524631)
(5.2940722 -0.00094889849 0.038046759)
(5.2971935 -0.0010408075 0.037477246)
(5.3001969 -0.0011314924 0.036811316)
(5.3030844 -0.0012210671 0.036051483)
(5.3058553 -0.0013099974 0.035195496)
(5.3085082 -0.0013981563 0.034240453)
(5.3110408 -0.0014854189 0.033183552)
(5.3134505 -0.0015717078 0.032021523)
(5.3157346 -0.0016566742 0.030750356)
(5.3178913 -0.001739215 0.0293664)
(5.319917 -0.0018193418 0.027871143)
(5.3218085 -0.001896943 0.026262444)
(5.3235625 -0.0019714714 0.024540079)
(5.3251757 -0.0020423313 0.022704406)
(5.3266453 -0.0021088545 0.020756766)
(5.3279681 -0.0021704122 0.018699525)
(5.329141 -0.0022267782 0.016536975)
(5.3301597 -0.0022786178 0.014278481)
(5.3310181 -0.0023271986 0.01194475)
(5.3317084 -0.0023735797 0.0095768395)
(5.3322265 -0.0024202342 0.0072391404)
(5.3325781 -0.0024758313 0.0049975544)
(5.3327866 -0.0025544174 0.0029063633)
(5.3372911 -0.0021587703 0.0028642705)
(5.3370658 -0.0020909712 0.0049243722)
(5.3366877 -0.0020404152 0.0071311166)
(5.3361322 -0.0019959065 0.009431002)
(5.3353919 -0.0019495168 0.011758799)
(5.3344716 -0.0018992747 0.014049915)
(5.3333792 -0.001844579 0.016262484)
(5.3321213 -0.0017850693 0.018376537)
(5.3307027 -0.0017202702 0.020382629)
(5.329127 -0.0016504569 0.022276388)
(5.3273975 -0.00157624 0.024055279)
(5.3255175 -0.0014982722 0.0257179)
(5.3234907 -0.001417158 0.027263738)
(5.3213207 -0.0013334705 0.02869307)
(5.319012 -0.0012473968 0.030008872)
(5.3165667 -0.0011582932 0.031207779)
(5.3139869 -0.0010681338 0.032294733)
(5.3112772 -0.00097725985 0.033273508)
(5.3084415 -0.00088558998 0.034146993)
(5.3054826 -0.00079317569 0.034917755)
(5.3024032 -0.0007001729 0.035588524)
(5.2992046 -0.00060641425 0.036161301)
(5.2958826 -0.0005110376 0.036634265)
(5.292437 -0.00041570244 0.037012161)
(5.2888704 -0.00031992575 0.037292308)
(5.2851823 -0.00022346632 0.037471969)
(5.2850862 0.00021478662 0.035636692)
(5.288963 0.00011709556 0.035555026)
(5.2927196 2.1165652e-05 0.035363197)
(5.2963589 -7.2757148e-05 0.035066498)
(5.2998829 -0.00016410848 0.034668717)
(5.3032896 -0.00025771051 0.034187731)
(5.3065737 -0.00035278384 0.03360782)
(5.3097325 -0.00044743713 0.032923896)
(5.3127632 -0.00054147193 0.032133867)
(5.315662 -0.00063490747 0.031235474)
(5.3184231 -0.00072786154 0.030227146)
(5.3210392 -0.00081979704 0.029106644)
(5.3235084 -0.00090817541 0.027867727)
(5.3258314 -0.00099454454 0.026512504)
(5.3280023 -0.0010782275 0.025038546)
(5.3300169 -0.0011586866 0.023445108)
(5.3318712 -0.0012353506 0.021732829)
(5.3335612 -0.0013076597 0.019903159)
(5.3350834 -0.0013751144 0.017958758)
(5.3364334 -0.0014375066 0.015904122)
(5.3376055 -0.0014952982 0.013749022)
(5.3385922 -0.0015469652 0.011512208)
(5.3393858 -0.0015929894 0.0092367902)
(5.3399811 -0.0016351174 0.0069865111)
(5.3403874 -0.0016796465 0.0048261633)
(5.34063 -0.0017361197 0.0028081173)
(5.3427349 -0.0012922183 0.0027377649)
(5.3424732 -0.001247677 0.0047024704)
(5.3420371 -0.0012096761 0.0068044113)
(5.3413988 -0.0011702789 0.0089927575)
(5.3405485 -0.001125041 0.011202991)
(5.3394911 -0.0010726489 0.013372918)
(5.3382329 -0.0010119072 0.015460178)
(5.3367825 -0.00094690182 0.017446473)
(5.3351476 -0.00087727081 0.019320972)
(5.3333334 -0.00080314485 0.021078512)
(5.3313443 -0.00072487454 0.022716224)
(5.3291847 -0.00064289333 0.024232591)
(5.3268591 -0.00055769106 0.02562706)
(5.3243724 -0.0004697674 0.02690109)
(5.3217295 -0.00038059322 0.028053746)
(5.3189381 -0.00029470836 0.029107476)
(5.3160072 -0.00020638011 0.030053358)
(5.3129395 -0.00011462767 0.030885339)
(5.3097364 -2.0385928e-05 0.03160267)
(5.3063999 7.5654169e-05 0.032206495)
(5.3029316 0.00017309224 0.032698521)
(5.2993337 0.00027191421 0.033078751)
(5.2956104 0.00037219924 0.033346642)
(5.2917656 0.00047314182 0.033506619)
(5.2877991 0.00057448258 0.033559196)
(5.2837116 0.00067610197 0.033502474)
(5.2809785 0.0011385015 0.031115909)
(5.2852694 0.0010390157 0.03128023)
(5.2894431 0.00093958572 0.031332527)
(5.2934981 0.00084015294 0.031276336)
(5.2974316 0.00074074153 0.0311133)
(5.3012407 0.00064119555 0.030844305)
(5.3049211 0.00054144929 0.030469461)
(5.308468 0.00044162344 0.029987907)
(5.3118765 0.000341914 0.029397829)
(5.3151418 0.00024265829 0.028696557)
(5.318259 0.0001443732 0.027880482)
(5.3212234 4.7866246e-05 0.026944166)
(5.324027 -4.5899934e-05 0.025882303)
(5.3266622 -0.00013718894 0.024695496)
(5.3291249 -0.00022553067 0.023383141)
(5.3314101 -0.00031026481 0.021944594)
(5.3335131 -0.00039047509 0.020380105)
(5.33543 -0.00046505918 0.018691154)
(5.3371574 -0.00053272523 0.016881048)
(5.3386923 -0.00059223598 0.014956963)
(5.3400298 -0.00064250487 0.012932008)
(5.3411607 -0.00069095788 0.010838471)
(5.3420711 -0.00073510096 0.008705162)
(5.3427545 -0.00077162443 0.006589452)
(5.3432217 -0.0008029797 0.0045558817)
(5.343503 -0.00083534809 0.0026524092)
(5.3431535 -0.00040672402 0.0025724634)
(5.3428538 -0.00038408135 0.0044143124)
(5.3423552 -0.00035717628 0.0063792835)
(5.3416252 -0.00032119143 0.0084206303)
(5.3406525 -0.00027500004 0.010474092)
(5.3394435 -0.00021942223 0.012478977)
(5.3380099 -0.00015537305 0.014395937)
(5.3363628 -8.4300686e-05 0.01620529)
(5.3345083 -7.4160346e-06 0.017897893)
(5.3324517 7.4237098e-05 0.019469389)
(5.3301979 0.00015976534 0.020917603)
(5.3277522 0.00024840601 0.02224157)
(5.3251207 0.00033949388 0.023441321)
(5.3223096 0.00043245166 0.024517818)
(5.3193259 0.00052674522 0.025472632)
(5.316177 0.00062204587 0.02630766)
(5.3128698 0.00071815739 0.027025527)
(5.3094105 0.00081481783 0.027629296)
(5.305805 0.0009117661 0.028121576)
(5.302059 0.001008808 0.028504474)
(5.2981777 0.0011058242 0.028779458)
(5.2941663 0.0012027414 0.028947291)
(5.29003 0.0012995123 0.029007987)
(5.2857735 0.0013960848 0.028960827)
(5.2814006 0.001492438 0.028803725)
(5.2769147 0.0015885548 0.028533217)
(5.2715606 0.002020101 0.025768122)
(5.2762259 0.0019294015 0.026138504)
(5.2807838 0.0018381017 0.02639558)
(5.2852295 0.0017462283 0.026543061)
(5.289558 0.0016538117 0.026583263)
(5.2937635 0.0015608771 0.026517303)
(5.2978399 0.0014674738 0.026345341)
(5.3017808 0.0013737044 0.026066536)
(5.3055793 0.0012797222 0.025679287)
(5.3092281 0.0011857499 0.025181288)
(5.31272 0.0010920743 0.024569812)
(5.3160473 0.00099903781 0.023841873)
(5.319202 0.00090703161 0.022994571)
(5.3221761 0.00081649859 0.022025633)
(5.3249623 0.00072795034 0.02093344)
(5.3275537 0.00064199039 0.019717072)
(5.3299434 0.00055928584 0.018376516)
(5.3321255 0.0004805714 0.016912811)
(5.3340942 0.00040663863 0.015328303)
(5.3358436 0.00033841765 0.013627643)
(5.3373661 0.00027714581 0.011820291)
(5.338651 0.00022436041 0.0099265196)
(5.3396854 0.00018197476 0.0079844597)
(5.3404623 0.00015171061 0.0060520614)
(5.3409929 0.00013420412 0.0041912712)
(5.3413126 0.00012649303 0.0024452074)
(5.3381117 0.0006376215 0.0023070115)
(5.3377729 0.00063125903 0.0039491078)
(5.3372102 0.00064068093 0.0056965884)
(5.3363861 0.00066631687 0.0075098582)
(5.3352893 0.00070605765 0.0093297342)
(5.3339271 0.00075754229 0.011100198)
(5.3323127 0.00081826145 0.01278423)
(5.3304579 0.000886007 0.014362012)
(5.3283715 0.00095922697 0.0158241)
(5.3260607 0.0010368844 0.017166015)
(5.323532 0.0011181699 0.01838559)
(5.3207929 0.0012023595 0.019482015)
(5.3178509 0.0012887636 0.020455585)
(5.3147144 0.0013767561 0.021307554)
(5.3113919 0.0014657849 0.022039895)
(5.3078924 0.0015553826 0.022655118)
(5.3042246 0.0016451633 0.023156077)
(5.300397 0.0017348091 0.023545715)
(5.2964181 0.0018240597 0.023826722)
(5.292296 0.0019127183 0.024001323)
(5.2880387 0.0020006389 0.02407109)
(5.2836537 0.0020877359 0.02403682)
(5.2791485 0.0021739532 0.023898291)
(5.2745299 0.0022592479 0.023654297)
(5.2698045 0.0023435787 0.023302361)
(5.2649787 0.0024269062 0.022838751)
(5.2572479 0.0028030131 0.019767298)
(5.2622098 0.0027291072 0.020315718)
(5.2670793 0.0026537697 0.020755522)
(5.271849 0.0025770476 0.02109048)
(5.2765109 0.0024989676 0.021323111)
(5.2810568 0.0024195773 0.021454728)
(5.2854783 0.0023389244 0.021485619)
(5.2897665 0.002257084 0.021415028)
(5.2939122 0.0021741883 0.021241355)
(5.297906 0.0020904424 0.020962322)
(5.3017383 0.002006098 0.020575184)
(5.3053991 0.0019214778 0.020076933)
(5.3088787 0.0018369833 0.01946455)
(5.312167 0.0017530983 0.018735291)
(5.3152546 0.0016703796 0.01788695)
(5.318132 0.0015894484 0.01691808)
(5.3207907 0.0015109827 0.015828158)
(5.3232224 0.0014356865 0.014617797)
(5.3254195 0.0013643527 0.013288967)
(5.327374 0.0012980982 0.011845965)
(5.3290761 0.0012387969 0.010297915)
(5.3305131 0.0011892467 0.0086639688)
(5.3316711 0.0011526304 0.0069798732)
(5.3325419 0.0011320324 0.00529953)
(5.3331364 0.0011307575 0.0036790306)
(5.3334928 0.0011511247 0.0021536621)
(5.3275066 0.0016601173 0.0019868043)
(5.3271346 0.001626187 0.0033826878)
(5.3265087 0.0016189962 0.0048627089)
(5.3255926 0.0016339376 0.0063974446)
(5.3243757 0.0016668672 0.0079331752)
(5.3228664 0.00171387 0.0094182198)
(5.3210795 0.0017710889 0.010818258)
(5.3190289 0.0018350963 0.012115135)
(5.3167253 0.0019036969 0.013300179)
(5.3141779 0.0019756807 0.014369411)
(5.3113955 0.0020502618 0.015321114)
(5.3083874 0.0021267516 0.016154967)
(5.3051633 0.0022044809 0.016871775)
(5.3017339 0.0022828293 0.01747325)
(5.2981098 0.0023612299 0.017961873)
(5.2943021 0.0024392056 0.018340587)
(5.2903219 0.0025163665 0.018612527)
(5.28618 0.0025924047 0.018780787)
(5.2818872 0.0026670863 0.018848139)
(5.2774542 0.002740225 0.018816889)
(5.2728911 0.0028117021 0.018688633)
(5.268208 0.0028814699 0.018464123)
(5.2634147 0.0029494874 0.018143011)
(5.2585203 0.00301572 0.017723994)
(5.2535342 0.0030801494 0.017204538)
(5.2484654 0.0031427286 0.016580965)
(5.2387439 0.0034410105 0.013311804)
(5.2438861 0.0033914493 0.013999642)
(5.2489563 0.0033396605 0.014589133)
(5.253944 0.0032856803 0.01508387)
(5.258839 0.003229518 0.015486312)
(5.2636309 0.0031711729 0.015797753)
(5.2683088 0.0031106582 0.016018592)
(5.2728616 0.0030480045 0.016148112)
(5.2772779 0.0029833018 0.016184673)
(5.2815459 0.0029167213 0.016125957)
(5.2856537 0.0028484825 0.01596912)
(5.2895892 0.0027788668 0.01571101)
(5.2933401 0.0027082536 0.015348319)
(5.2968943 0.0026371123 0.014877912)
(5.3002397 0.0025659878 0.014297061)
(5.303365 0.0024954914 0.013603816)
(5.3062588 0.0024262683 0.012797077)
(5.308911 0.0023589841 0.01187687)
(5.3113115 0.0022943968 0.010844615)
(5.3134503 0.0022337917 0.0097039122)
(5.3153153 0.0021796524 0.0084628233)
(5.3168915 0.0021360216 0.0071382714)
(5.3181636 0.0021074704 0.0057629674)
(5.3191224 0.0020990318 0.0043859332)
(5.319779 0.0021153598 0.0030605061)
(5.3201637 0.0021620778 0.0018081807)
(5.3115197 0.0026502532 0.001620802)
(5.3111252 0.0025921977 0.0027148299)
(5.310439 0.0025654713 0.003871897)
(5.3094409 0.0025664948 0.0050809165)
(5.3081192 0.0025900278 0.0062850937)
(5.3064828 0.0026295096 0.0074388198)
(5.3045478 0.0026796092 0.0085112604)
(5.3023303 0.0027357109 0.0094870184)
(5.2998437 0.0027950695 0.010358775)
(5.2970992 0.0028563469 0.01112338)
(5.2941079 0.0029188183 0.01177976)
(5.2908815 0.0029818554 0.012328217)
(5.2874321 0.0030448369 0.012770159)
(5.2837727 0.0031071756 0.013107808)
(5.2799162 0.0031683599 0.013344087)
(5.2758761 0.0032279504 0.013482316)
(5.2716657 0.0032855858 0.01352593)
(5.2672984 0.0033410206 0.013478142)
(5.262787 0.0033940601 0.013341817)
(5.2581444 0.0034445722 0.013119268)
(5.2533829 0.0034925044 0.012812145)
(5.248515 0.0035378406 0.012421147)
(5.2435523 0.00358061 0.011945829)
(5.2385063 0.0036208496 0.011384927)
(5.2333883 0.0036585692 0.010736069)
(5.2282098 0.0036937482 0.0099958312)
(5.2169998 0.0038979551 0.0066721126)