/*--------------------------------*- C++ -*----------------------------------*\
| =========                 |                                                 |
| \\      /  F ield         | OpenFOAM: The Open Source CFD Toolbox           |
|  \\    /   O peration     | Version:  v2012                                 |
|   \\  /    A nd           | Website:  www.openfoam.com                      |
|    \\/     M anipulation  |                                                 |
\*---------------------------------------------------------------------------*/
FoamFile
{
    version     2.0;
    format      ascii;
    class       surfaceScalarField;
    location    "238";
    object      phi;
}
// * * * * * * * * * * * * * * * * * * * * * * * * * * * * * * * * * * * * * //

dimensions      [0 3 -1 0 0 0 0];
oriented        oriented;


internalField   nonuniform List<scalar> 
144700
(
0.00074649349
0.00013366285
0.00021108
0.00020064144
0.00032348195
0.0002223701
0.00013044408
4.9337666e-05
2.0859694e-05
0.00016378029
-1.3479403e-05
-1.9856801e-05
0.00021071099
-3.1292959e-05
-1.5637749e-05
0.00015211751
6.3135944e-05
-4.5424637e-06
0.00016363713
-4.098803e-06
-7.4208098e-06
0.00019253596
-2.8950006e-05
5.1168456e-08
0.00021571843
-2.0920213e-05
-2.2622526e-06
0.00022900982
-1.2700506e-05
-5.9088326e-07
0.00023553217
-7.6070532e-06
1.0846982e-06
0.00023654922
-4.1241712e-06
3.1071229e-06
0.00023087392
-1.0153617e-06
6.6906678e-06
0.00021779016
5.9099362e-08
1.3024662e-05
0.0002074128
-9.4293345e-06
1.9806685e-05
0.00024072808
-1.5545079e-05
-1.7770195e-05
0.00054237779
-0.00010250389
-0.00019914582
0.00095742048
-0.00023979564
-0.00017524705
0.0010430214
-8.974626e-05
4.1453743e-06
0.0007227636
0.00012265142
0.00019760635
0.00019591258
0.00031187983
0.00021497119
0.0001266583
4.8992916e-05
2.0261368e-05
0.00015864275
-1.2635677e-05
-1.9348769e-05
0.00020315509
-2.9452485e-05
-1.5059854e-05
0.00014620063
6.1397675e-05
-4.4432168e-06
0.00015699974
-3.748692e-06
-7.0504206e-06
0.00018480778
-2.7860696e-05
5.2654352e-08
0.00020705685
-2.0003771e-05
-2.2452929e-06
0.00022074614
-1.2653685e-05
-1.0356143e-06
0.00022885051
-8.1675428e-06
6.3175637e-08
0.00023219538
-4.6801259e-06
1.3352539e-06
0.00022841745
3.3223898e-07
3.4456908e-06
0.00020541484
1.8083805e-05
4.9188107e-06
0.00011701938
8.36918e-06
8.0026282e-05
0.00010720036
2.7221231e-06
7.0968969e-06
0.00010125296
-9.9762276e-06
1.592362e-05
0.00019327596
-7.7462936e-05
-1.4560064e-05
0.00048075026
-0.00012578903
-0.00016168526
0.00082758692
-0.00024398685
-0.00010284982
0.00063241679
6.9688349e-05
0.00012548178
0.00017216663
0.00027106964
0.00018918052
0.0001120578
4.2609958e-05
1.749887e-05
0.00014336129
-1.2581016e-05
-1.8722468e-05
0.00018602083
-2.8610962e-05
-1.4048583e-05
0.00013416642
5.5649496e-05
-3.7950873e-06
0.00014396142
-3.8202452e-06
-5.9747533e-06
0.00016807402
-2.5663e-05
1.5503975e-06
0.00018485412
-1.7779094e-05
9.9899828e-07
0.00018942051
-9.7645868e-06
5.1981964e-06
0.00018212528
-4.8683739e-06
1.2163608e-05
0.00017073343
-9.6478127e-06
2.1039661e-05
0.00018687949
-1.34583e-05
-2.6877662e-06
0.00025779476
4.9736139e-05
-0.00012065141
0.0004268758
-0.00013384741
-3.5233624e-05
0.0007284575
-0.00015923825
-0.00014234345
0.00077626194
-7.6979351e-05
2.9174909e-05
0.00088879659
-4.5208855e-05
-6.7325795e-05
0.0018810673
-0.00030694393
-0.00068532675
0.0032958078
-0.00062347735
-0.00079126319
0.0037040083
-0.00013677875
-0.00027142169
0.0038082623
-1.5507213e-05
-8.8746869e-05
0.0038281327
1.0173986e-05
-3.004434e-05
0.0038283023
1.2285318e-05
-1.2454887e-05
0.0038291121
8.5695289e-06
-9.3794027e-06
0.0038320389
5.3765919e-06
-8.3033605e-06
0.0038376263
2.9478054e-06
-8.5351791e-06
0.0038435768
1.8803166e-06
-7.8308647e-06
0.0038495644
1.2904331e-06
-7.2779604e-06
0.0038549599
1.1233062e-06
-6.5188943e-06
0.0038597432
1.0723471e-06
-5.8556009e-06
0.0038639161
1.0835985e-06
-5.2564657e-06
0.0038675511
1.1098917e-06
-4.7449469e-06
0.0038707276
1.1348307e-06
-4.3113262e-06
0.0038735159
1.1536065e-06
-3.941944e-06
1.1688824e-06
-3.6273538e-06
-0.0039155186
7.2494747e-07
-1.5805924e-06
1.7280269e-06
-0.0039164845
5.6502015e-07
-1.2627602e-06
1.6635467e-06
-0.0039175584
3.7904e-07
-8.9366219e-07
1.588608e-06
-0.0039187582
1.6477184e-07
-4.6763102e-07
1.5026548e-06
-0.0039201049
-8.2504157e-08
2.3935748e-08
1.4052694e-06
-0.0039216258
-3.6681276e-07
5.9128585e-07
1.2963862e-06
-0.0039233547
-6.9179543e-07
1.24342e-06
1.1773274e-06
-0.0039253211
-1.0651867e-06
1.9891273e-06
1.0424272e-06
-0.0039275613
-1.4899524e-06
2.8373181e-06
8.928471e-07
-0.0039301259
-1.965837e-06
3.7954148e-06
7.3503351e-07
-0.0039330631
-2.4972048e-06
4.8696047e-06
5.6473796e-07
-0.0039364162
-3.0869219e-06
6.0603998e-06
3.7960615e-07
-0.0039402342
-3.7267345e-06
7.3568764e-06
1.8791451e-07
-0.0039445659
-4.4041735e-06
8.7356644e-06
1.4325068e-10
-0.0039494443
-5.1123713e-06
1.0179642e-05
-1.8887132e-07
-0.0039548855
-5.8353361e-06
1.1654293e-05
-3.7775384e-07
-0.0039608942
-6.5454112e-06
1.3110751e-05
-5.5657025e-07
-0.0039674494
-7.2186402e-06
1.4493096e-05
-7.1932127e-07
-0.0039745041
-7.8327878e-06
1.5750928e-05
-8.6336622e-07
-0.0039819949
-8.365313e-06
1.6839367e-05
-9.833069e-07
-0.0039898464
-8.7970561e-06
1.7721968e-05
-1.0733499e-06
-0.0039979726
-9.1153602e-06
1.8373058e-05
-1.1315588e-06
-0.0040062759
-9.3138415e-06
1.8776145e-05
-1.1590257e-06
-0.004014656
-9.3865612e-06
1.8921465e-05
-1.15473e-06
-0.0040230161
-9.330131e-06
1.8808386e-05
-1.1181992e-06
-0.0040312603
-9.1486215e-06
1.8442932e-05
-1.0500923e-06
-0.0040392896
-8.8458457e-06
1.783109e-05
-9.5591447e-07
-0.0040470117
-8.4214271e-06
1.6977622e-05
-8.3410232e-07
-7.8776225e-06
1.5887432e-05
-6.8251368e-07
0.0040198336
1.3019537e-05
-2.215682e-06
0.0040089606
1.3041895e-05
-2.1689595e-06
0.0039981329
1.294643e-05
-2.1187129e-06
0.0039874565
1.2735322e-05
-2.05887e-06
0.0039770327
1.2421645e-05
-1.9978719e-06
0.0039669606
1.2014539e-05
-1.9424975e-06
0.0039573243
1.1521015e-05
-1.8846889e-06
0.003948188
1.0956812e-05
-1.8204898e-06
0.0039396052
1.0339503e-05
-1.7567457e-06
0.0039316182
9.6872021e-06
-1.7001637e-06
0.0039242539
9.0084926e-06
-1.6441707e-06
0.0039175216
8.3140547e-06
-1.5817964e-06
0.0039114176
7.6252574e-06
-1.5212556e-06
0.003905928
6.957701e-06
-1.4680512e-06
0.0039010298
6.3161054e-06
-1.417975e-06
0.0038966929
5.7019399e-06
-1.3649627e-06
0.0038928829
5.1203216e-06
-1.3103766e-06
0.0038895619
4.5809552e-06
-1.2599408e-06
0.0038866881
4.0899737e-06
-1.2161333e-06
0.0038842201
3.6410813e-06
-1.1731486e-06
0.0038821164
3.2313308e-06
-1.1275689e-06
0.0038803392
2.8615637e-06
-1.0843538e-06
0.0038788543
2.5313481e-06
-1.0465261e-06
0.0038776253
2.2399876e-06
-1.0109795e-06
0.0038766173
1.9803902e-06
-9.7232907e-07
0.0038758057
1.7466026e-06
-9.350837e-07
0.0038751683
1.5399205e-06
-9.0245166e-07
-0.0041489635
3.20729e-06
-9.9750754e-07
-0.004149808
3.632312e-06
-1.0412688e-06
-0.0041508601
4.1161595e-06
-1.0835817e-06
-0.0041521527
4.6579343e-06
-1.1253512e-06
-0.0041537209
5.2677407e-06
-1.1681955e-06
-0.0041555976
5.9549399e-06
-1.2167078e-06
-0.0041578201
6.7234675e-06
-1.2696174e-06
-0.0041604319
7.5768948e-06
-1.3240142e-06
-0.004163483
8.5176307e-06
-1.3765989e-06
-0.0041670192
9.5479052e-06
-1.4307491e-06
-0.0041710757
1.067159e-05
-1.4947178e-06
-0.004175691
1.1882085e-05
-1.564888e-06
-0.004180913
1.3169526e-05
-1.6313658e-06
-0.0041867837
1.4521727e-05
-1.6933768e-06
-0.0041933253
1.5927708e-05
-1.7607942e-06
-0.0042005448
1.7371041e-05
-1.8375069e-06
-0.0042084445
1.882465e-05
-1.9164497e-06
-0.0042170238
2.0255475e-05
-1.9890299e-06
-0.0042262566
2.1634174e-05
-2.0618148e-06
-0.0042360937
2.2932396e-05
-2.1385575e-06
-0.0042464746
2.4118057e-05
-2.2160925e-06
-0.0042573281
2.515791e-05
-2.2898448e-06
-0.0042685713
2.6021638e-05
-2.3568012e-06
-0.004280093
2.6683083e-05
-2.4260588e-06
-0.0042917787
2.7126278e-05
-2.4941609e-06
-0.0043035184
2.733357e-05
-2.5519552e-06
2.7292123e-05
-2.6049391e-06
0.0047313688
4.3498341e-05
-3.180504e-06
0.0047182656
4.3554035e-05
-3.1172568e-06
0.0047052265
4.3212373e-05
-3.0469918e-06
0.0046923817
4.2494293e-05
-2.9664133e-06
0.0046798635
4.1422574e-05
-2.8827415e-06
0.0046677874
4.0030272e-05
-2.7963022e-06
0.0046562464
3.8359821e-05
-2.7007307e-06
0.0046453259
3.645578e-05
-2.6029145e-06
0.0046350969
3.4368574e-05
-2.5053902e-06
0.0046256099
3.2151359e-05
-2.4088944e-06
0.0046168904
2.9855886e-05
-2.3117312e-06
0.0046089385
2.7533191e-05
-2.2101769e-06
0.0046017493
2.5227461e-05
-2.1105515e-06
0.0045953157
2.2976985e-05
-2.0217055e-06
0.0045896122
2.0812628e-05
-1.9396223e-06
0.0045845845
1.8762891e-05
-1.8530928e-06
0.0045801748
1.6844198e-05
-1.7628624e-06
0.0045763382
1.5064644e-05
-1.6802064e-06
0.0045730374
1.3427834e-05
-1.6093401e-06
0.0045702207
1.1935302e-05
-1.541769e-06
0.0045678328
1.0585955e-05
-1.474554e-06
0.0045658219
9.3743583e-06
-1.4084898e-06
0.0045641442
8.2914668e-06
-1.3460731e-06
0.0045627685
7.3265733e-06
-1.2929576e-06
0.0045616602
6.4694755e-06
-1.2450013e-06
0.0045607722
5.7126791e-06
-1.1923321e-06
5.051213e-06
-1.1368155e-06
-0.00497282
6.9988683e-06
-1.2357425e-06
-0.0049737289
7.9141102e-06
-1.2925862e-06
-0.0049748673
8.9585864e-06
-1.3506648e-06
-0.0049762872
1.0148528e-05
-1.4021237e-06
-0.0049780286
1.1491456e-05
-1.4585394e-06
-0.0049801293
1.2999143e-05
-1.5240783e-06
-0.0049826389
1.468819e-05
-1.5926894e-06
-0.0049856126
1.6572635e-05
-1.6636033e-06
-0.00498911
1.8661384e-05
-1.736148e-06
-0.0049931904
2.0957244e-05
-1.8122329e-06
-0.0049979036
2.345689e-05
-1.8994553e-06
-0.0050033062
2.6158023e-05
-1.9924984e-06
-0.0050094612
2.9051699e-05
-2.0841047e-06
-0.0050164258
3.21149e-05
-2.1732804e-06
-0.0050242395
3.5309117e-05
-2.2679502e-06
-0.0050329192
3.8585747e-05
-2.3729351e-06
-0.0050424763
4.189317e-05
-2.4801374e-06
-0.0050529087
4.5169122e-05
-2.5853568e-06
-0.0050641913
4.8340784e-05
-2.6896134e-06
-0.0050762704
5.1329767e-05
-2.7949353e-06
-0.0050890668
5.4057178e-05
-2.9009129e-06
-0.0051024839
5.6452533e-05
-3.0051566e-06
-0.0051164105
5.8452121e-05
-3.1029859e-06
-0.0051307187
5.9998643e-05
-3.1961194e-06
-0.0051452639
6.1042513e-05
-3.2849366e-06
-0.0051598916
6.1548439e-05
-3.3667044e-06
6.1491893e-05
-3.4412528e-06
0.0054668896
8.079417e-05
-3.3476805e-06
0.0054508717
8.0828035e-05
-3.2616912e-06
0.0054349654
8.0120148e-05
-3.1713183e-06
0.0054193416
7.8701011e-05
-3.0785105e-06
0.0054041609
7.6615901e-05
-2.983114e-06
0.0053895693
7.3929294e-05
-2.8851668e-06
0.0053756949
7.0716474e-05
-2.7849462e-06
0.0053626467
6.7062884e-05
-2.6849064e-06
0.0053505073
6.3067122e-05
-2.586924e-06
0.0053393339
5.8833925e-05
-2.4913913e-06
0.0053291522
5.4470769e-05
-2.39584e-06
0.0053199612
5.0077216e-05
-2.3005304e-06
0.0053117413
4.5737349e-05
-2.2083537e-06
0.0053044556
4.1523956e-05
-2.123269e-06
0.005298052
3.7497367e-05
-2.0421144e-06
0.0052924673
3.3703776e-05
-1.9610117e-06
0.0052876331
3.0171785e-05
-1.8807297e-06
0.0052834805
2.6914116e-05
-1.804267e-06
0.0052799429
2.3933631e-05
-1.7346395e-06
0.0052769533
2.1230474e-05
-1.6682644e-06
0.0052744476
1.8797678e-05
-1.6038008e-06
0.0052723676
1.6621174e-05
-1.5420501e-06
0.0052706597
1.4682434e-05
-1.4830468e-06
0.0052692762
1.2961282e-05
-1.4293008e-06
0.0052681726
1.1440696e-05
-1.3785079e-06
0.005267306
1.0105109e-05
-1.3243087e-06
8.9342126e-06
-1.2729194e-06
-0.005419108
1.0785094e-05
-1.2899586e-06
-0.0054198637
1.2198763e-05
-1.3378979e-06
-0.0054208487
1.3813846e-05
-1.3882355e-06
-0.0054221024
1.5653808e-05
-1.4387582e-06
-0.0054236706
1.7741646e-05
-1.4910781e-06
-0.0054256053
2.0101746e-05
-1.5458231e-06
-0.0054279638
2.2758948e-05
-1.6028295e-06
-0.0054308077
2.5737196e-05
-1.6628017e-06
-0.0054342061
2.9057158e-05
-1.72506e-06
-0.005438234
3.2732141e-05
-1.7901271e-06
-0.0054429714
3.6767596e-05
-1.8584324e-06
-0.0054484994
4.1161532e-05
-1.9297236e-06
-0.0054548979
4.5899074e-05
-2.0032095e-06
-0.0054622432
5.0947614e-05
-2.0783917e-06
-0.005470604
5.6254796e-05
-2.1566587e-06
-0.0054800348
6.1747464e-05
-2.2394634e-06
-0.0054905705
6.7332215e-05
-2.3257288e-06
-0.0055022192
7.2895998e-05
-2.4133965e-06
-0.0055149579
7.830848e-05
-2.5026317e-06
-0.0055287298
8.3429716e-05
-2.5949117e-06
-0.0055434444
8.812124e-05
-2.6901873e-06
-0.0055589821
9.2254491e-05
-2.7875474e-06
-0.0055751958
9.5716083e-05
-2.8864386e-06
-0.0055919204
9.8411007e-05
-2.9854011e-06
-0.0056089791
0.00010026327
-3.0843688e-06
-0.0056261856
0.00010121747
-3.182973e-06
0.00010123874
-3.2801855e-06
0.0056840064
0.00012292404
-3.4011616e-06
0.0056657066
0.00012280912
-3.2918605e-06
0.0056475947
0.00012155728
-3.1821336e-06
0.0056298729
0.00011920573
-3.0728886e-06
0.0056127383
0.00011581531
-2.9646411e-06
0.0055963769
0.00011147374
-2.8578294e-06
0.005580956
0.00010629681
-2.754613e-06
0.0055666121
0.00010042746
-2.6538451e-06
0.0055534451
9.4032066e-05
-2.5566587e-06
0.0055415126
8.729115e-05
-2.4626562e-06
0.0055308296
8.0386974e-05
-2.371686e-06
0.0055213721
7.3488247e-05
-2.2832762e-06
0.0055130859
6.6739382e-05
-2.1983849e-06
0.0055058949
6.0255794e-05
-2.1172507e-06
0.0054997101
5.4123333e-05
-2.0394073e-06
0.0054944359
4.8400071e-05
-1.9643369e-06
0.0054899764
4.3119495e-05
-1.8924168e-06
0.0054862372
3.8295061e-05
-1.8237167e-06
0.0054831265
3.3924315e-05
-1.7565001e-06
0.0054805616
2.9994029e-05
-1.6919419e-06
0.0054784692
2.6482469e-05
-1.6310563e-06
0.0054767831
2.3361183e-05
-1.5733761e-06
0.005475444
2.0598563e-05
-1.5177619e-06
0.0054743985
1.8162943e-05
-1.463693e-06
0.0054736004
1.6022999e-05
-1.4110473e-06
0.0054730101
1.4149253e-05
-1.3602111e-06
1.2511915e-05
-1.3120222e-06
-0.0054817991
1.4079043e-05
-1.3346494e-06
-0.0054821811
1.5915707e-05
-1.38454e-06
-0.005482743
1.8021999e-05
-1.4370584e-06
-0.0054835212
2.0433723e-05
-1.4925741e-06
-0.0054845616
2.3188623e-05
-1.549665e-06
-0.0054859182
2.6325678e-05
-1.6078532e-06
-0.0054876528
2.9885338e-05
-1.6682996e-06
-0.005489835
3.390824e-05
-1.7320144e-06
-0.0054925417
3.8432106e-05
-1.8010801e-06
-0.0054958631
4.3489077e-05
-1.8726441e-06
-0.0054999018
4.9103536e-05
-1.9452885e-06
-0.0055047664
5.5286242e-05
-2.0215869e-06
-0.0055105721
6.2030362e-05
-2.1013987e-06
-0.0055174368
6.9305607e-05
-2.1850837e-06
-0.0055254763
7.7051532e-05
-2.2726449e-06
-0.0055347952
8.5171522e-05
-2.3643896e-06
-0.0055454772
9.3528897e-05
-2.4598662e-06
-0.0055575717
0.00010194466
-2.5590001e-06
-0.0055710792
0.00011020157
-2.6620434e-06
-0.0055859421
0.00011805953
-2.7691152e-06
-0.0056020467
0.00012528217
-2.8808145e-06
-0.0056192308
0.00013165479
-2.9969471e-06
-0.005637298
0.00013699878
-3.1162665e-06
-0.0056560327
0.00014117823
-3.2378168e-06
-0.0056752135
0.00014409866
-3.3605949e-06
-0.0056946213
0.00014570131
-3.484333e-06
0.00014595352
-3.6078218e-06
0.0056898686
0.0001703586
-3.8170021e-06
0.0056693246
0.00016992237
-3.6770684e-06
0.005649036
0.00016792431
-3.5370257e-06
0.0056292354
0.00016437625
-3.3974626e-06
0.0056101776
0.00015931552
-3.2589207e-06
0.0055921262
0.00015282988
-3.1236993e-06
0.0055753284
0.00014507315
-2.9931885e-06
0.0055599873
0.00013626961
-2.8689194e-06
0.0055462369
0.00012670308
-2.751136e-06
0.0055341298
0.00011669119
-2.6394303e-06
0.0055236346
0.00010655672
-2.5326552e-06
0.0055146573
9.6579143e-05
-2.4303301e-06
0.0055070679
8.6973384e-05
-2.3323912e-06
0.0055007211
7.7891768e-05
-2.2393667e-06
0.0054954695
6.9433329e-05
-2.1513688e-06
0.0054911706
6.1653326e-05
-2.0682415e-06
0.0054876909
5.4572365e-05
-1.9890676e-06
0.0054849081
4.8185285e-05
-1.9133858e-06
0.0054827117
4.2467625e-05
-1.8392085e-06
0.0054810056
3.7381532e-05
-1.7671077e-06
0.0054797093
3.2882136e-05
-1.7004926e-06
0.0054787512
2.8921187e-05
-1.6374382e-06
0.0054780677
2.5448463e-05
-1.5763847e-06
0.0054776055
2.2411997e-05
-1.5160419e-06
0.0054773217
1.9763823e-05
-1.4580699e-06
0.0054771837
1.745766e-05
-1.4039308e-06
1.5451131e-05
-1.3519329e-06
-0.0054722967
1.6597421e-05
-1.3640567e-06
-0.0054721593
1.8738319e-05
-1.4180749e-06
-0.0054721262
2.1204358e-05
-1.4735651e-06
-0.0054722258
2.4045488e-05
-1.5338687e-06
-0.0054724966
2.7315927e-05
-1.5966911e-06
-0.00547299
3.1074638e-05
-1.6600626e-06
-0.0054737681
3.5385927e-05
-1.7257445e-06
-0.0054749021
4.0310959e-05
-1.7953351e-06
-0.0054764736
4.5908086e-05
-1.868995e-06
-0.0054785799
5.2235424e-05
-1.9438925e-06
-0.0054813341
5.9346775e-05
-2.0202097e-06
-0.0054848655
6.7284145e-05
-2.0993877e-06
-0.005489319
7.6070106e-05
-2.18322e-06
-0.0054948566
8.5702763e-05
-2.2734467e-06
-0.0055016589
9.6146767e-05
-2.3710399e-06
-0.0055099259
0.00010732086
-2.4747532e-06
-0.0055198648
0.0001190782
-2.5826359e-06
-0.0055316568
0.00013117771
-2.6945062e-06
-0.005545403
0.00014326155
-2.8122178e-06
-0.0055610745
0.00015488014
-2.9390418e-06
-0.0055785096
0.00016558599
-3.0777525e-06
-0.0055974337
0.0001749819
-3.2278907e-06
-0.0056175047
0.00018277299
-3.3864572e-06
-0.0056383706
0.00018879105
-3.5489042e-06
-0.005659722
0.00019298654
-3.7108193e-06
-0.0056813204
0.00019539069
-3.8699817e-06
0.00019605386
-4.0269175e-06
0.0056693249
0.00022272066
-4.2521212e-06
0.0056469857
0.00022181156
-4.0816552e-06
0.0056247871
0.00021908533
-3.90016e-06
0.0056029613
0.00021432289
-3.7060211e-06
0.0055819277
0.00020731203
-3.5054623e-06
0.0055622212
0.00019799758
-3.309186e-06
0.0055443705
0.00018656582
-3.1291067e-06
0.0055287772
0.00017344573
-2.972277e-06
0.0055156306
0.00015924724
-2.839119e-06
0.0055048812
0.0001446473
-2.720246e-06
0.005496263
0.00013030276
-2.6062683e-06
0.0054894157
0.00011665971
-2.4916314e-06
0.0054840012
0.00010394118
-2.3798331e-06
0.0054797518
9.2229548e-05
-2.277416e-06
0.0054764666
8.1542731e-05
-2.1873824e-06
0.0054739865
7.1872016e-05
-2.1078101e-06
0.0054721766
6.3190335e-05
-2.0336538e-06
0.0054709182
5.5454817e-05
-1.9609769e-06
0.0054700906
4.8623565e-05
-1.8879143e-06
0.0054696343
4.2581892e-05
-1.8146375e-06
0.0054694572
3.7306773e-05
-1.7437397e-06
0.0054695095
3.2698244e-05
-1.6759413e-06
0.005469705
2.8731112e-05
-1.6106943e-06
0.0054700123
2.5283618e-05
-1.5454219e-06
0.0054703983
2.2301123e-05
-1.4827413e-06
0.0054708412
1.9721358e-05
-1.4259443e-06
1.7503991e-05
-1.3697836e-06
-0.0054731702
1.8096222e-05
-1.3649378e-06
-0.0054723979
2.0372745e-05
-1.4236669e-06
-0.0054716277
2.3013162e-05
-1.4822767e-06
-0.0054708745
2.6077033e-05
-1.5465906e-06
-0.0054701642
2.9635002e-05
-1.6141951e-06
-0.005469549
3.3764259e-05
-1.681236e-06
-0.0054690398
3.8547775e-05
-1.7501693e-06
-0.0054687042
4.4066179e-05
-1.8199247e-06
-0.0054685884
5.0397195e-05
-1.8893965e-06
-0.0054687941
5.7616588e-05
-1.9560145e-06
-0.0054693796
6.5794423e-05
-2.0185878e-06
-0.0054704196
7.4991587e-05
-2.0796014e-06
-0.0054719942
8.5263692e-05
-2.1464135e-06
-0.0054742192
9.6686404e-05
-2.2318664e-06
-0.005477237
0.00010930112
-2.3421315e-06
-0.0054813924
0.0001232854
-2.4702998e-06
-0.005487238
0.00013874585
-2.5974125e-06
-0.0054954972
0.00015561549
-2.7090208e-06
-0.0055068212
0.00017338698
-2.8157136e-06
-0.0055214793
0.00019104791
-2.944093e-06
-0.0055392782
0.00020748625
-3.1214967e-06
-0.0055595936
0.00022166231
-3.3493996e-06
-0.005581531
0.00023285833
-3.6088271e-06
-0.0056041616
0.00024082619
-3.8727975e-06
-0.0056268024
0.00024584211
-4.1159127e-06
-0.0056492377
0.0002485684
-4.3215786e-06
0.00024966618
-4.4931742e-06
0.0056151736
0.00027565932
-4.7290959e-06
0.0055937176
0.00027462448
-4.6000777e-06
0.0055711356
0.0002728121
-4.3880072e-06
0.005547659
0.00026837798
-4.0751451e-06
0.0055246339
0.00025958281
-3.6993957e-06
0.0055038179
0.00024580126
-3.3230255e-06
0.0054867879
0.00022753287
-3.0165564e-06
0.0054745488
0.00020610586
-2.8188597e-06
0.00546723
0.00018343032
-2.7246079e-06
0.0054640204
0.00016148552
-2.660387e-06
0.0054634076
0.00014191871
-2.5600105e-06
0.005463964
0.00012513714
-2.4081674e-06
0.0054648316
0.00011067844
-2.2448866e-06
0.0054656987
9.7937815e-05
-2.1185511e-06
0.005466544
8.6460733e-05
-2.0423141e-06
0.0054674272
7.610689e-05
-1.9985347e-06
0.0054683958
6.6786967e-05
-1.9611652e-06
0.0054694688
5.8461102e-05
-1.9174532e-06
0.0054706384
5.1091759e-05
-1.8641473e-06
0.0054718788
4.4628804e-05
-1.8030221e-06
0.0054731569
3.900655e-05
-1.7369633e-06
0.0054744421
3.41475e-05
-1.6684234e-06
0.0054757101
2.9967091e-05
-1.6000582e-06
0.0054769383
2.6380004e-05
-1.5311458e-06
0.0054781135
2.3303878e-05
-1.4659354e-06
0.0054792276
2.0664026e-05
-1.4053854e-06
1.8397332e-05
-1.3444318e-06
-0.0054883524
1.8366275e-05
-1.3011872e-06
-0.0054868922
2.0567892e-05
-1.3640697e-06
-0.0054853028
2.314082e-05
-1.4263578e-06
-0.005483581
2.6150611e-05
-1.4923955e-06
-0.0054817247
2.9672872e-05
-1.5620862e-06
-0.0054797375
3.3791033e-05
-1.6307137e-06
-0.0054776234
3.8589042e-05
-1.69665e-06
-0.0054753821
4.4143691e-05
-1.7561113e-06
-0.005473
5.0514063e-05
-1.804418e-06
-0.0054704312
5.7730574e-05
-1.8383069e-06
-0.0054675802
6.5792155e-05
-1.8561469e-06
-0.0054642834
7.4674879e-05
-1.864807e-06
-0.0054602881
8.4352352e-05
-1.8869001e-06
-0.0054552324
9.4851073e-05
-1.9689498e-06
-0.0054487323
0.00010632474
-2.1464556e-06
-0.0054407826
0.00011957418
-2.3867675e-06
-0.0054325123
0.00013622665
-2.5781741e-06
-0.0054266338
0.00015821141
-2.604415e-06
-0.0054265251
0.00018584649
-2.5249077e-06
-0.0054342089
0.0002163093
-2.5196002e-06
-0.0054496839
0.00024576582
-2.7580166e-06
-0.0054712676
0.00027062281
-3.2377959e-06
-0.0054963029
0.00028848743
-3.8692952e-06
-0.0055214791
0.0002980321
-4.477999e-06
-0.0055437936
0.00029997168
-4.845023e-06
-0.005562693
0.00029842872
-4.9048896e-06
-0.0055808414
0.00029864092
-4.8331784e-06
-0.0056014681
0.00030190611
-4.8496664e-06
0.00030484302
-5.0481418e-06
0.0055199545
0.00033521486
-4.6583108e-06
0.005501431
0.00032464559
-4.2159813e-06
0.0054897726
0.00031456639
-4.2670686e-06
0.0054765355
0.00031688934
-5.2235629e-06
0.0054540476
0.00032864551
-6.1858815e-06
0.0054245711
0.00033343527
-5.9267051e-06
0.0053954192
0.00032221503
-4.5756451e-06
0.0053720187
0.00029715247
-3.129185e-06
0.0053583081
0.00026166551
-2.1891184e-06
0.0053574793
0.00021898389
-1.8457967e-06
0.005369657
0.00017575065
-2.081803e-06
0.005390198
0.0001402778
-2.6073657e-06
0.005411726
0.00011764723
-2.9486513e-06
0.0054295048
0.0001046029
-2.8074818e-06
0.0054427446
9.5436856e-05
-2.351934e-06
0.005452563
8.6979829e-05
-1.9471672e-06
0.0054601129
7.8549958e-05
-1.7474362e-06
0.0054661331
7.0354249e-05
-1.6996371e-06
0.0054710893
6.2542107e-05
-1.706135e-06
0.0054753041
5.5229154e-05
-1.7133695e-06
0.0054789967
4.8523726e-05
-1.702221e-06
0.0054823014
4.2509001e-05
-1.6700924e-06
0.0054852914
3.7219218e-05
-1.6201624e-06
0.0054880047
3.2636304e-05
-1.5584902e-06
0.0054904637
2.8704396e-05
-1.4905853e-06
0.005492686
2.5348594e-05
-1.4202224e-06
0.0054946907
2.2489058e-05
-1.3529341e-06
0.0054964959
2.0051433e-05
-1.2888027e-06
1.7971299e-05
-1.2244673e-06
-0.0054899446
1.7159978e-05
-1.094396e-06
-0.0054877962
1.9062721e-05
-1.1597386e-06
-0.0054853773
2.1296459e-05
-1.2262721e-06
-0.0054826548
2.3922085e-05
-1.2959548e-06
-0.0054795921
2.700893e-05
-1.3672504e-06
-0.0054761502
3.062874e-05
-1.4343291e-06
-0.0054722791
3.4839609e-05
-1.4914892e-06
-0.0054679041
3.9664829e-05
-1.5308619e-06
-0.0054628974
4.5063464e-05
-1.5464089e-06
-0.0054570462
5.0914925e-05
-1.5370043e-06
-0.0054500324
5.7045717e-05
-1.517428e-06
-0.0054414522
6.3315208e-05
-1.5411337e-06
-0.0054308195
6.9681799e-05
-1.7645512e-06
-0.0054173022
7.5951696e-05
-2.4891414e-06
-0.0053989233
8.0919579e-05
-3.8616006e-06
-0.0053718101
8.2608622e-05
-5.1189199e-06
-0.0053334144
8.4099955e-05
-4.8484744e-06
-0.0052907914
0.00010053593
-2.8811244e-06
-0.0052609908
0.00014688519
-9.3516235e-07
-0.0052543959
0.00021271554
-3.2651566e-07
-0.0052685019
0.00027673426
-9.6273725e-07
-0.0052957171
0.00032714644
-2.7788262e-06
-0.0053316852
0.00036482845
-6.6452263e-06
-0.0053729549
0.00038618847
-1.148357e-05
-0.0054018186
0.00036927215
-1.1762954e-05
-0.0054050593
0.00032564366
-5.5136114e-06
-0.0054044194
0.00031473923
-8.1273354e-07
-0.0054233481
0.00034507505
-1.5007183e-06
0.00037178548
-3.2822227e-06
0.005266098
0.00042375967
5.3256318e-06
0.0052359285
0.00036581348
9.4311095e-06
0.0052515986
0.0002823773
1.6691857e-05
0.0053166048
0.00027058022
-9.9427836e-06
0.0052738537
0.00045811782
-4.6094591e-05
0.0052219501
0.00047146436
-3.3372315e-05
0.0051829393
0.00041289016
-9.0508293e-06
0.005149275
0.00036156463
-7.5389434e-07
0.0051266253
0.00029747572
1.9082196e-06
0.0051352179
0.00020084675
3.2762081e-06
0.0051875192
9.1299868e-05
3.2840078e-06
0.0052586465
3.2609453e-05
-3.2008817e-06
0.0053089758
4.6052823e-05
-1.2282117e-05
0.0053352064
7.0002004e-05
-1.3624001e-05
0.0053517953
7.2853589e-05
-8.5229365e-06
0.0053655354
6.6118913e-05
-3.9072791e-06
0.0053775631
5.9490413e-05
-1.8363569e-06
0.0053878421
5.4276761e-05
-1.2405487e-06
0.0053964415
4.9607527e-05
-1.1611962e-06
0.005403664
4.4895221e-05
-1.2028053e-06
0.0054098353
4.0136986e-05
-1.2448302e-06
0.0054151952
3.5561162e-05
-1.2561612e-06
0.0054198954
3.1374208e-05
-1.2347907e-06
0.0054240319
2.768007e-05
-1.1878835e-06
0.005427674
2.4492565e-05
-1.1257344e-06
0.00543088
2.1773114e-05
-1.0570577e-06
0.0054337024
1.9462317e-05
-9.8825039e-07
0.0054361891
1.7498305e-05
-9.2228598e-07
1.5825098e-05
-8.5841593e-07
-0.0052817271
1.3784048e-05
-4.3183217e-07
-0.0052789141
1.5171952e-05
-4.8665126e-07
-0.0052757103
1.680121e-05
-5.4267241e-07
-0.0052720567
1.8718813e-05
-5.9930346e-07
-0.0052678851
2.0975105e-05
-6.5415117e-07
-0.005263124
2.361866e-05
-6.9972272e-07
-0.0052576976
2.666888e-05
-7.2107873e-07
-0.0052515187
3.0085123e-05
-7.0281679e-07
-0.0052444723
3.3720903e-05
-6.3037119e-07
-0.0052363933
3.7316054e-05
-4.9981907e-07
-0.0052271029
4.0664355e-05
-3.4725434e-07
-0.0052166115
4.4148259e-05
-3.6284414e-07
-0.0052056605
4.9825945e-05
-1.2865091e-06
-0.0051962247
6.204544e-05
-5.3623459e-06
-0.0051913827
8.5441058e-05
-1.742948e-05
-0.0051860338
0.0001094677
-4.4814593e-05
-0.0051391788
5.3246354e-05
-5.4048575e-05
-0.0049819189
-0.00011389086
-1.0759607e-05
-0.0049194408
9.9452392e-06
1.887652e-05
-0.0049275437
0.00019962982
9.3199156e-06
-0.0049746006
0.0003383055
6.2271165e-06
-0.0050145699
0.0003949394
6.5945221e-06
-0.0050306097
0.00042994404
-1.0141373e-06
-0.0050397824
0.00052974281
-4.9105749e-05
-0.0051749678
0.00095305218
-0.00035974891
-0.0048574624
-0.00048031004
0.00031555167
0.00011783316
-0.0048798253
-0.00041964633
0.00062445266
9.9933879e-05
-0.0049208839
-0.00036636215
0.0006944377
7.8796496e-05
-0.0050298343
-0.00032317562
0.00077198796
8.3897792e-05
-0.00036222458
0.00078456294
7.110753e-05
0.0012198493
8.7330019e-05
0.00011434507
0.0017636694
0.00012472922
0.00011601367
0.0011859027
0.00011157579
0.0001430153
0.001727225
0.0001189375
0.00011172809
0.0011681739
7.749952e-05
0.00011518949
0.0017118339
7.5302224e-05
7.5475448e-05
0.0011568868
4.5361853e-05
8.9938907e-05
0.0016455563
6.1493536e-05
7.4289669e-05
0.0010134986
4.2667741e-05
0.00010907986
0.0012020994
4.2156317e-05
8.479459e-05
0.00051999447
0.0021546849
-0.00055963774
-0.00091294226
0.0010756571
0.001369401
-0.00090223921
-0.0010228244
0.00023325601
-0.00014317587
-9.4271759e-05
0.0010798487
0.0043757195
0.00079598005
-0.00046130545
0.0044032643
-0.00031344758
0.00075867511
5.6970508e-05
0.0044387936
-0.00039528808
0.00070762115
8.2081588e-05
0.004530269
-1.8957784e-05
-0.00039332641
0.00071574819
0.0045688968
-3.1635902e-05
-0.00034962436
0.00068093796
0.0044964517
6.1753603e-05
-0.00037225049
0.00058257184
0.0044831855
7.1770835e-05
-0.00048627717
0.00043771776
0.0048766779
4.4142107e-05
-0.00064326715
9.1741854e-05
0.0049082352
0.00043118029
-0.00040949125
0.0049094846
0.00021333728
-0.00010511899
0.0049041076
0.00011613212
-2.5314045e-05
0.0049083889
6.1670791e-05
-3.9067129e-06
0.0049165061
4.0358313e-05
1.350462e-06
0.0049254669
3.3293799e-05
1.893618e-06
0.0049341933
3.0545194e-05
1.3928097e-06
0.0049422897
2.8351564e-05
8.6811929e-07
0.0049496574
2.5854271e-05
4.9886674e-07
0.0049562594
2.3204072e-05
2.7904722e-07
0.0049621089
2.0652006e-05
1.6741976e-07
0.0049672558
1.8349303e-05
1.2245027e-07
0.0049717639
1.6347719e-05
1.1924277e-07
0.0049757111
1.4637929e-05
1.3369973e-07
0.004979172
1.3185079e-05
1.5523898e-07
0.0049822098
1.195279e-05
1.8134676e-07
1.0904228e-05
2.0981281e-07
-0.0045647128
7.3562883e-06
8.5882445e-07
-0.0045616572
8.028603e-06
8.6862617e-07
-0.0045581777
8.8196941e-06
8.8587732e-07
-0.0045542084
9.7527834e-06
9.158215e-07
-0.0045496774
1.0852672e-05
9.6410382e-07
-0.0045445128
1.2137782e-05
1.0468787e-06
-0.0045386749
1.3610629e-05
1.2034545e-06
-0.0045321767
1.5215223e-05
1.4906503e-06
-0.0045251426
1.6812843e-05
2.0073639e-06
-0.0045179012
1.8253838e-05
2.8563096e-06
-0.0045108965
1.9312203e-05
4.2282806e-06
-0.0045047566
2.1190817e-05
5.9631274e-06
-0.0044994513
2.7852323e-05
7.2006356e-06
-0.0044944846
5.3366674e-05
3.3374475e-06
-0.0044869028
0.00013044976
-2.1899483e-05
-0.0044524984
0.000328068
-0.00014913509
-0.0015708896
0.00060731269
-0.00094413684
-0.0021136043
0.00031063375
-0.00027863824
-0.0008732689
-0.00072961624
0.00024189172
0.0018362884
-0.00094745545
-0.00082009092
-0.00078115905
0.0012716129
-0.00055550604
-0.00078198167
-7.6933869e-05
3.2547639e-05
-0.00083452154
-4.4097419e-05
1.9657937e-05
-0.00030348401
-0.00010184434
-0.0004207422
-0.00016768925
-5.4829421e-05
-8.3472928e-05
-4.4563188e-05
-0.00012061847
-7.7793131e-05
-6.1147562e-05
-0.00015574204
-3.2187804e-05
2.6663781e-05
-0.00016521343
-1.169331e-05
7.7064018e-06
-0.00018587387
4.6332126e-06
6.3794209e-06
-0.00019295364
-6.5749115e-06
8.7863011e-06
-0.00018883741
-1.6434553e-05
2.5537432e-06
-0.00017398837
-3.0166923e-05
-2.4612172e-06
-0.00012765783
-6.7963118e-05
-4.0304212e-06
-0.00012686161
-4.6164585e-06
-7.0909847e-05
-3.0227106e-07
-0.00016801065
0.00016228595
-5.2933918e-05
-1.2251231e-05
-0.00010368112
-1.8925127e-05
-7.401536e-05
-0.00010911588
-7.1462543e-06
-7.2533005e-05
6.0270779e-06
-5.996443e-05
6.5382257e-05
0.00019311881
-0.0011485233
-0.00019277265
0.00092941107
0.00028611014
6.5810313e-05
-0.0010628393
-0.000126101
0.00011010534