/*--------------------------------*- C++ -*----------------------------------*\
| =========                 |                                                 |
| \\      /  F ield         | OpenFOAM: The Open Source CFD Toolbox           |
|  \\    /   O peration     | Version:  v2012                                 |
|   \\  /    A nd           | Website:  www.openfoam.com                      |
|    \\/     M anipulation  |                                                 |
\*---------------------------------------------------------------------------*/
FoamFile
{
    version     2.0;
    format      ascii;
    class       volVectorField;
    location    "238";
    object      U;
}
// * * * * * * * * * * * * * * * * * * * * * * * * * * * * * * * * * * * * * //

dimensions      [0 1 -1 0 0 0 0];


internalField   nonuniform List<vector> 
49454
(
(5.3919796 -0.51260362 0.00024464158)
(5.3845924 -0.5183438 -0.00048117893)
(5.3728266 -0.5321933 0.0017572192)
(5.3591552 -0.53622674 0.0016998463)
(5.351358 -0.53547667 0.0014357802)
(5.3451657 -0.5365082 0.0008240804)
(5.3390708 -0.53925544 0.00035301046)
(5.3358229 -0.53989157 1.3545876e-05)
(5.3265384 -0.55140668 0.0014272983)
(5.3112488 -0.55530234 0.00098440207)
(5.3013804 -0.55582671 0.00068130944)
(5.2931303 -0.55632628 0.00034492697)
(5.285048 -0.55770847 -0.0004555278)
(5.2758111 -0.56224855 -9.5893982e-05)
(5.2623505 -0.56920993 0.0010547704)
(5.2489078 -0.57120349 0.00089372642)
(5.2388368 -0.57057124 0.00078837625)
(5.2304019 -0.56890086 0.0015966603)
(5.2151628 -0.5727534 0.0017343362)
(5.1942522 -0.57413077 0.00044100813)
(5.1810682 -0.57732824 -0.00049846039)
(5.1708161 -0.58526963 0.00039603747)
(5.1601914 -0.5920532 0.00024840158)
(5.1471727 -0.59709311 0.0013513508)
(5.1330222 -0.59963135 0.0010994809)
(5.1224347 -0.60278994 0.00064061158)
(5.1110651 -0.6029895 0.00023290156)
(5.1017233 -0.60194539 0.00021242629)
(5.090673 -0.606368 0.0013304065)
(5.0753753 -0.61080223 0.0016093731)
(5.0591601 -0.61216045 0.00062190907)
(5.0442622 -0.6122304 -6.5054919e-05)
(5.0288378 -0.61098563 -0.00024088082)
(5.0189806 -0.61385172 -6.3828296e-05)
(5.003769 -0.62611479 0.0012594878)
(4.9857873 -0.62759907 0.00044356587)
(4.9737559 -0.62405523 0.00078785572)
(4.9629761 -0.62278723 0.0013386794)
(4.9454353 -0.61562301 0.0026249319)
(4.9200129 -0.61109057 0.001487113)
(4.8975226 -0.61543321 0.00012007325)
(4.8745475 -0.62740814 0.0010544572)
(4.8535124 -0.62936551 0.00090287631)
(4.8335339 -0.62429066 0.00059527139)
(4.8148441 -0.62405887 0.00063998182)
(4.7914571 -0.63368431 0.0017240057)
(4.7617817 -0.63397777 0.0023315176)
(4.7332939 -0.63096831 0.0012133971)
(4.7025722 -0.62857331 0.00025176522)
(4.6844214 -0.62920433 -0.00029323057)
(4.6539263 -0.65777854 -0.0037297627)
(4.6346876 -0.68829181 -0.045129539)
(4.3121273 -1.0281146 -0.044033879)
(3.8661845 -0.29899157 0.079756117)
(4.3991572 -0.0092246714 0.06683464)
(4.6091496 -0.01345208 0.028758033)
(4.6536534 -0.01304571 0.011166925)
(4.7238915 -0.018596954 0.008154203)
(4.7909528 -0.016337685 -0.0011696257)
(4.8400476 -0.012188426 -0.0044756271)
(4.8770517 -0.0096428697 -0.0040539433)
(4.9058471 -0.0079792136 -0.0030991636)
(4.9291961 -0.0068188222 -0.0023024175)
(4.9484124 -0.0058982282 -0.0017982103)
(4.9643379 -0.0051355217 -0.001444585)
(4.9776244 -0.0044900595 -0.0012239733)
(4.9887385 -0.0039445728 -0.00107631)
(4.998113 -0.0034910535 -0.00097114505)
(5.0060551 -0.0031147064 -0.00090082116)
(5.0128374 -0.0027934444 -0.00085730475)
(5.0186813 -0.002522441 -0.00082091114)
(5.0237375 -0.002292142 -0.00079226296)
(5.0281403 -0.0020952692 -0.000770074)
(5.031995 -0.001926202 -0.00075274969)
(5.0353858 -0.001780363 -0.00073908353)
(4.9833186 0.00081771161 -0.001286157)
(4.9844841 0.00078503184 -0.001003695)
(4.985776 0.00074741632 -0.0006766708)
(4.9872163 0.00070446597 -0.0002984701)
(4.9888307 0.00065566396 0.00013832664)
(4.9906497 0.00060061348 0.00064184463)
(4.99271 0.00053889436 0.0012205961)
(4.9950536 0.00047009518 0.0018827582)
(4.9977289 0.00039403367 0.0026359388)
(5.0007902 0.00031065075 0.003486057)
(5.0042976 0.00022034055 0.0044358829)
(5.0083148 0.00012415398 0.0054830591)
(5.0129057 2.4584863e-05 0.006618457)
(5.0181266 -7.5581175e-05 0.0078268217)
(5.0240249 -0.00017700472 0.0090877191)
(5.0306366 -0.00027823654 0.01036973)
(5.0379746 -0.00037642676 0.011631041)
(5.0460235 -0.00046759989 0.012827584)
(5.0547388 -0.00054861032 0.013915971)
(5.064051 -0.00061667865 0.014857765)
(5.0738693 -0.0006698211 0.015621839)
(5.0840873 -0.00070660102 0.01618527)
(5.0945827 -0.00072611104 0.016533154)
(5.1052452 -0.00072837426 0.01665803)
(5.1159321 -0.00071371221 0.016558695)
(5.1265315 -0.0006823865 0.016237879)
(5.1369185 -0.00063531205 0.015699521)
(5.1469752 -0.00057297732 0.014947868)
(5.1565851 -0.00049613132 0.013986674)
(5.2308966 -0.0063131569 0.001233799)
(5.216779 -0.0063228652 0.001204975)
(5.2026338 -0.0062752809 0.0011746606)
(5.1886266 -0.0061731907 0.0011433937)
(5.1748859 -0.0060204394 0.0011112724)
(5.1615418 -0.0058218721 0.0010787063)
(5.1487099 -0.0055832814 0.0010459677)
(5.1364887 -0.005311212 0.0010132664)
(5.1249591 -0.0050127914 0.00098079554)
(5.1141829 -0.00469543 0.00094871648)
(5.1042021 -0.0043664672 0.00091714711)
(5.0950395 -0.0040329185 0.00088616909)
(5.0866999 -0.0037011649 0.00085586111)
(5.0791721 -0.003376716 0.00082628714)
(5.0724316 -0.0030641272 0.00079750566)
(5.066443 -0.0027669447 0.00076956311)
(5.0611629 -0.0024877299 0.00074248074)
(5.0565425 -0.0022281254 0.00071627779)
(5.0525296 -0.0019889855 0.00069096109)
(5.0490708 -0.0017705037 0.00066654042)
(5.046113 -0.001572342 0.00064300682)
(5.0436048 -0.0013937636 0.00062034186)
(5.0414968 -0.0012337423 0.00059852846)
(5.039743 -0.0010910618 0.00057754975)
(5.0383006 -0.00096440029 0.00055738345)
(5.0371305 -0.00085239016 0.00053800228)
(5.0361972 -0.00075367694 0.00051937632)
(5.0354686 -0.00066691274 0.0005014821)
(5.0364007 -0.0022915109 0.00053094885)
(5.0373107 -0.00259215 0.00055010556)
(5.0384553 -0.0029333821 0.00057005834)
(5.0398701 -0.0033193963 0.00059084412)
(5.0415942 -0.0037544154 0.00061249101)
(5.0436708 -0.0042425127 0.00063502967)
(5.0461464 -0.0047874511 0.0006584695)
(5.0490706 -0.005392408 0.00068282829)
(5.052496 -0.0060597123 0.00070811817)
(5.0564766 -0.0067904584 0.00073436775)
(5.0610671 -0.0075841502 0.00076157586)
(5.0663209 -0.008438232 0.00078972308)
(5.0722887 -0.0093477184 0.00081874972)
(5.0790159 -0.010304789 0.00084865955)
(5.0865393 -0.011298645 0.00087944056)
(5.0948853 -0.012315269 0.00091104216)
(5.1040666 -0.01333766 0.00094334653)
(5.1140795 -0.014346146 0.000976236)
(5.1249019 -0.015319147 0.0010096116)
(5.1364918 -0.016233957 0.0010433435)
(5.148787 -0.017067809 0.0010772553)
(5.1617054 -0.017798846 0.0011111279)
(5.1751472 -0.018406972 0.0011447277)
(5.1889947 -0.018874479 0.0011778392)
(5.2031159 -0.019186569 0.0012100202)
(5.2173815 -0.01933175 0.0012411618)
(5.2316225 -0.019301431 0.0012707038)
(5.233062 -0.033362049 0.0013237666)
(5.2185977 -0.033409758 0.001291549)
(5.2041151 -0.03315361 0.001257699)
(5.1897885 -0.032608556 0.0012228282)
(5.1757491 -0.031793489 0.0011870359)
(5.1621332 -0.030734303 0.0011507879)
(5.1490615 -0.029461712 0.0011143183)
(5.1366365 -0.028010644 0.0010779001)
(5.1249422 -0.026419281 0.0010417849)
(5.1140417 -0.024727525 0.0010061666)
(5.1039766 -0.022975198 0.00097118306)
(5.0947678 -0.021200222 0.00093693977)
(5.0864163 -0.019436878 0.00090355773)
(5.0789064 -0.017714814 0.00087116315)
(5.0722087 -0.016058235 0.00083980581)
(5.0662825 -0.014485918 0.00080945749)
(5.0610793 -0.01301109 0.00078011519)
(5.0565455 -0.011642111 0.00075183004)
(5.0526247 -0.010383072 0.00072463213)
(5.0492603 -0.0092346109 0.0006984995)
(5.0463964 -0.0081945569 0.00067338834)
(5.0439792 -0.0072586517 0.00064927234)
(5.0419581 -0.0064211385 0.00062612204)
(5.0402858 -0.0056753455 0.00060391901)
(5.038919 -0.0050140769 0.00058262927)
(5.0378182 -0.004429959 0.00056220782)
(5.0369479 -0.0039156963 0.00054261642)
(5.0379172 -0.005627996 0.00054937574)
(5.0387268 -0.0063677758 0.00056887455)
(5.0397596 -0.0072088857 0.00058918053)
(5.0410512 -0.0081621507 0.00061032691)
(5.0426411 -0.0092385618 0.00063236592)
(5.0445732 -0.010448893 0.00065533584)
(5.0468956 -0.011803282 0.00067927635)
(5.0496604 -0.013310585 0.00070423592)
(5.0529231 -0.014977612 0.00073026474)
(5.0567423 -0.01680821 0.00075741957)
(5.0611783 -0.018802208 0.00078575536)
(5.0662915 -0.020954325 0.00081528566)
(5.0721404 -0.023253037 0.00084603633)
(5.0787792 -0.02567946 0.00087803121)
(5.0862542 -0.02820658 0.0009113346)
(5.094601 -0.030798826 0.00094593065)
(5.1038407 -0.033412471 0.00098175828)
(5.1139762 -0.035996491 0.0010187338)
(5.1249896 -0.038494371 0.0010567474)
(5.1368401 -0.040846551 0.0010956595)
(5.1494633 -0.042993395 0.0011352501)
(5.1627723 -0.044878008 0.0011752415)
(5.1766601 -0.04644863 0.0012153322)
(5.1910009 -0.047660183 0.0012552046)
(5.2056517 -0.048474926 0.0012943755)
(5.2204779 -0.048865266 0.0013327509)
(5.2352965 -0.048810037 0.001369666)
(5.2383872 -0.065699437 0.001404613)
(5.2230506 -0.06574643 0.0013622717)
(5.2077229 -0.065191651 0.0013188123)
(5.1925997 -0.064061804 0.0012749135)
(5.1778206 -0.062394115 0.0012307029)
(5.1635388 -0.060239066 0.0011866935)
(5.149888 -0.057657603 0.001143203)
(5.1369822 -0.054720784 0.0011005788)
(5.124913 -0.051507349 0.0010591402)
(5.1137465 -0.048100216 0.0010191208)
(5.1035223 -0.044582266 0.00098064626)
(5.0942535 -0.041031905 0.00094379593)
(5.0859301 -0.037519364 0.00090859585)
(5.0785224 -0.034104232 0.00087502844)
(5.0719857 -0.030834213 0.0008430455)
(5.0662643 -0.027744918 0.00081254526)
(5.0612957 -0.024860577 0.00078344338)
(5.0570139 -0.022195323 0.00075565116)
(5.0533521 -0.019754781 0.00072908555)
(5.0502453 -0.017537715 0.00070366123)
(5.047631 -0.015537632 0.0006793002)
(5.045451 -0.013744249 0.00065593397)
(5.0436514 -0.012144729 0.0006335003)
(5.0421829 -0.010724725 0.00061194623)
(5.0410014 -0.0094692092 0.00059122348)
(5.0400673 -0.0083629955 0.00057127847)
(5.0393452 -0.0073913756 0.00055208863)
(5.0411978 -0.0091390425 0.00055582555)
(5.0418018 -0.010339343 0.00057506689)
(5.0426024 -0.011708282 0.00059500205)
(5.043634 -0.013265022 0.0006156144)
(5.044936 -0.015029442 0.00063701215)
(5.046553 -0.017021606 0.00065925159)
(5.0485354 -0.019260997 0.00068239343)
(5.0509391 -0.021765543 0.00070651283)
(5.053826 -0.024550315 0.00073169083)
(5.0572632 -0.027625899 0.0007580272)
(5.0613227 -0.030996458 0.0007856305)
(5.0660796 -0.034657535 0.0008146299)
(5.0716103 -0.038593714 0.00084516131)
(5.0779895 -0.04277629 0.00087735839)
(5.085286 -0.047161238 0.00091137214)
(5.0935584 -0.051687957 0.00094731244)
(5.1028491 -0.056279194 0.00098526674)
(5.113179 -0.060842509 0.0010252663)
(5.1245422 -0.065273514 0.0010672778)
(5.1369013 -0.069461212 0.0011111592)
(5.1501878 -0.073294899 0.0011566302)
(5.1643027 -0.076670202 0.0012032174)
(5.1791213 -0.079493937 0.0012504572)
(5.1944979 -0.08168755 0.0012982555)
(5.2102669 -0.083187301 0.0013461427)
(5.2262741 -0.083946033 0.0013939117)
(5.2423186 -0.083932554 0.0014409687)
(5.2469867 -0.10341825 0.0014910836)
(5.2300331 -0.10336572 0.0014399438)
(5.2131504 -0.1023561 0.0013885072)
(5.1965473 -0.10042435 0.0013372876)
(5.1803978 -0.09762598 0.0012865074)
(5.1648844 -0.094038097 0.0012365635)
(5.1501703 -0.089758831 0.0011874535)
(5.1363958 -0.084906436 0.0011397495)
(5.1236702 -0.079615703 0.0010938834)
(5.1120665 -0.074031315 0.0010501037)
(5.1016188 -0.068298864 0.0010085156)
(5.0923223 -0.062554214 0.0009691136)
(5.0841401 -0.056915661 0.00093182708)
(5.0770112 -0.051479967 0.0008965398)
(5.0708579 -0.04632094 0.00086313116)
(5.0655932 -0.0414901 0.00083144064)
(5.0611261 -0.037018918 0.0008013339)
(5.0573665 -0.032921974 0.00077267239)
(5.0542286 -0.029200309 0.00074532682)
(5.0516321 -0.025844664 0.0007191875)
(5.0495039 -0.022838385 0.00069416086)
(5.0477782 -0.020159941 0.00067016228)
(5.0463969 -0.017784859 0.00064711089)
(5.0453086 -0.015687448 0.00062495437)
(5.0444686 -0.013841773 0.00060363625)
(5.043838 -0.012222637 0.00058306534)
(5.0433835 -0.010805968 0.0005632122)
(5.0457893 -0.012340968 0.00057293942)
(5.0460634 -0.013954198 0.00059381016)
(5.0464882 -0.015802441 0.00061554915)
(5.0470953 -0.017915075 0.00063819855)
(5.0479224 -0.020323371 0.00066181006)
(5.0490139 -0.023060068 0.00068642182)
(5.0504214 -0.02615843 0.00071204009)
(5.0522053 -0.029651032 0.00073878158)
(5.0544354 -0.033567958 0.00076675267)
(5.0571913 -0.037934432 0.00079604002)
(5.0605627 -0.042767727 0.00082674292)
(5.0646487 -0.048073406 0.00085897912)
(5.0695565 -0.05384096 0.00089285841)
(5.0753978 -0.06003898 0.00092849943)
(5.0822839 -0.066610336 0.00096603424)
(5.0903186 -0.073468328 0.0010055606)
(5.0995892 -0.080495053 0.0010471779)
(5.1101559 -0.087541885 0.0010909663)
(5.1220393 -0.094434045 0.0011369534)
(5.1352101 -0.10098198 0.0011850171)
(5.1495883 -0.10699867 0.0012348819)
(5.1650482 -0.11231208 0.0012863152)
(5.1814278 -0.11677468 0.0013391982)
(5.1985397 -0.12026758 0.0013933211)
(5.2161777 -0.12270109 0.0014482962)
(5.234143 -0.12401371 0.0015038759)
(5.2522141 -0.12416896 0.0015596084)
(5.2577636 -0.14631365 0.0016456869)
(5.2383594 -0.1460179 0.0015837281)
(5.2190929 -0.144347 0.0015224714)
(5.2002051 -0.1413349 0.0014623248)
(5.1819249 -0.13704515 0.0014035229)
(5.1644907 -0.13157794 0.0013464188)
(5.1481243 -0.12507365 0.0012912362)
(5.1330191 -0.11771421 0.0012381206)
(5.1193247 -0.10971787 0.0011871959)
(5.107132 -0.10132609 0.0011384519)
(5.0964643 -0.092786586 0.0010918983)
(5.0872767 -0.084323599 0.0010474276)
(5.0794748 -0.076121457 0.0010049622)
(5.0729347 -0.068320464 0.00096446403)
(5.0675175 -0.061018771 0.00092589806)
(5.0630802 -0.054275642 0.00088916901)
(5.059485 -0.048117977 0.00085419887)
(5.0566044 -0.042547636 0.00082090547)
(5.0543242 -0.037548124 0.00078919199)
(5.0525443 -0.033090414 0.00075897115)
(5.0511785 -0.029137588 0.00073015655)
(5.0501535 -0.025648558 0.00070266319)
(5.0494075 -0.022580742 0.00067640266)
(5.0488891 -0.019891937 0.00065131321)
(5.0485554 -0.01754164 0.00062732877)
(5.0483708 -0.015491907 0.00060438456)
(5.048306 -0.013707664 0.00058242218)
(5.0508373 -0.014877403 0.00058983112)
(5.0506659 -0.016802149 0.00061287074)
(5.0505778 -0.019019958 0.00063700855)
(5.0505988 -0.021571862 0.00066230824)
(5.0507611 -0.024503011 0.00068885441)
(5.0511049 -0.027862511 0.00071671773)
(5.0516799 -0.031702858 0.00074599481)
(5.0525478 -0.036078756 0.00077677969)
(5.0537843 -0.041045145 0.00080917553)
(5.0554814 -0.046654355 0.00084328575)
(5.0577494 -0.052951899 0.00087921476)
(5.060719 -0.059970883 0.00091704334)
(5.064541 -0.067724692 0.00095685578)
(5.0693855 -0.076197619 0.00099870021)
(5.0754356 -0.085333568 0.0010426624)
(5.0828772 -0.09502703 0.0010887085)
(5.0918856 -0.10511489 0.0011367771)
(5.102606 -0.11537113 0.0011869238)
(5.1151215 -0.12550676 0.0012393872)
(5.1294168 -0.13519348 0.0012942615)
(5.1453835 -0.14411787 0.0013518443)
(5.1628358 -0.15200323 0.0014121358)
(5.181534 -0.15862787 0.0014750098)
(5.2012087 -0.16382988 0.0015402322)
(5.2215785 -0.16750263 0.001607458)
(5.2423777 -0.16958677 0.0016764722)
(5.2633378 -0.17005794 0.0017468945)
(5.2685787 -0.1956264 0.0018607213)
(5.2458356 -0.19495332 0.0017793084)
(5.2232602 -0.19240725 0.0017002448)
(5.2011572 -0.18799107 0.0016238713)
(5.1798368 -0.18175071 0.0015503516)
(5.1596375 -0.17379145 0.0014800991)
(5.1408953 -0.16429432 0.0014134722)
(5.1239175 -0.15352701 0.001350606)
(5.1089457 -0.14184126 0.0012914105)
(5.0961177 -0.12964752 0.0012349406)
(5.0854381 -0.11739138 0.0011809339)
(5.0767623 -0.10544886 0.0011288716)
(5.0698675 -0.094093566 0.001078746)
(5.0645062 -0.083508136 0.0010308412)
(5.0604308 -0.073799115 0.00098531236)
(5.0574075 -0.065009168 0.00094208644)
(5.0552284 -0.057133412 0.0009011343)
(5.0537165 -0.050134356 0.00086238356)
(5.052725 -0.043954792 0.00082574193)
(5.0521345 -0.038526917 0.00079109113)
(5.0518494 -0.033778688 0.00075830037)
(5.051794 -0.029638293 0.00072724038)
(5.051909 -0.026036947 0.00069778425)
(5.0521484 -0.022910517 0.00066981481)
(5.0524767 -0.020200501 0.00064323491)
(5.0528666 -0.017854184 0.0006179355)
(5.0532974 -0.015824535 0.00059385491)
(5.0556012 -0.016523944 0.00059302879)
(5.0548935 -0.018617533 0.00061813791)
(5.0541783 -0.021046038 0.00064458179)
(5.0534697 -0.023862301 0.00067244951)
(5.0527881 -0.027126609 0.00070186929)
(5.0521618 -0.030907282 0.0007329671)
(5.0516301 -0.035280904 0.00076589551)
(5.0512465 -0.040332459 0.00080083147)
(5.0510825 -0.046153668 0.00083792613)
(5.0512336 -0.05284111 0.00087734623)
(5.051825 -0.060491724 0.0009192355)
(5.0530176 -0.069195888 0.0009637086)
(5.0550149 -0.079027241 0.001010749)
(5.0580678 -0.090026274 0.0010603652)
(5.0624714 -0.10217761 0.0011125839)
(5.0685539 -0.11538729 0.0011670679)
(5.0766636 -0.12946223 0.0012230408)
(5.087144 -0.14407829 0.0012802387)
(5.1002432 -0.15874095 0.0013397641)
(5.1159692 -0.17282398 0.0014023178)
(5.1341334 -0.18578345 0.0014705416)
(5.1544064 -0.19717009 0.0015445643)
(5.1763812 -0.20666481 0.00162399)
(5.1996284 -0.21407469 0.0017080139)
(5.223737 -0.21930849 0.0017960111)
(5.2483355 -0.22234794 0.001887804)
(5.27309 -0.22323208 0.0019832932)
(5.276496 -0.25299201 0.002111065)
(5.2495051 -0.25191338 0.0019976732)
(5.2226347 -0.24838091 0.0018900025)
(5.1962237 -0.24228431 0.0017871493)
(5.1707257 -0.23358431 0.0016891354)
(5.1466444 -0.22233958 0.0015974096)
(5.124538 -0.20874178 0.0015137609)
(5.1049622 -0.19316057 0.0014399412)
(5.0883874 -0.17616934 0.0013765742)
(5.0750948 -0.15849671 0.0013172958)
(5.0650614 -0.14106425 0.0012601392)
(5.0578591 -0.12453283 0.001201768)
(5.0529557 -0.10926848 0.0011432084)
(5.0498628 -0.095451547 0.0010865724)
(5.0481508 -0.083139915 0.0010325868)
(5.0474521 -0.072298537 0.0009812313)
(5.0474705 -0.06283188 0.0009326618)
(5.0479791 -0.05461488 0.00088707167)
(5.0488088 -0.047512738 0.00084442851)
(5.0498353 -0.041392106 0.00080453377)
(5.0509693 -0.036127135 0.00076717461)
(5.052148 -0.031603582 0.00073214943)
(5.0533294 -0.027719769 0.00069924755)
(5.0544846 -0.024385592 0.00066827106)
(5.0555954 -0.021523186 0.00063905929)
(5.0566509 -0.019065081 0.00061144237)
(5.0576454 -0.016953238 0.0005853128)
(5.059275 -0.017087513 0.00056818237)
(5.0579912 -0.019166911 0.00059551175)
(5.0565891 -0.021595391 0.0006245301)
(5.0550642 -0.024435072 0.0006553835)
(5.0534158 -0.027759092 0.00068828228)
(5.0516484 -0.031654307 0.00072347472)
(5.0497747 -0.036222161 0.00076124617)
(5.0478215 -0.041582171 0.00080186301)
(5.0458346 -0.047873542 0.00084561639)
(5.043888 -0.055254815 0.00089276557)
(5.0420949 -0.063903049 0.00094345515)
(5.0406222 -0.07400946 0.00099749714)
(5.0397109 -0.085770386 0.0010541865)
(5.0396993 -0.099364621 0.0011127976)
(5.0410342 -0.11491252 0.001173126)
(5.0442658 -0.13243297 0.0012336211)
(5.050072 -0.15180502 0.0012901598)
(5.0592863 -0.17264537 0.0013420556)
(5.0726644 -0.19407402 0.0013937203)
(5.0902403 -0.21465694 0.0014484643)
(5.1115529 -0.2334049 0.0015240088)
(5.1358983 -0.24959056 0.0016191296)
(5.162505 -0.26280983 0.0017302948)
(5.1906383 -0.27289719 0.0018489075)
(5.2196603 -0.27986085 0.0019716013)
(5.2490835 -0.28384719 0.0021009009)
(5.2785188 -0.28504046 0.0022400094)
(5.3076702 -0.28365673 0.0023869071)
(5.336307 -0.279863 0.0025417771)
(5.3416806 -0.31334168 0.0027671024)
(5.3107172 -0.31750301 0.0025713752)
(5.2790915 -0.31912984 0.0023871004)
(5.2469902 -0.31797649 0.002220286)
(5.2147057 -0.31366724 0.0020578957)
(5.182657 -0.30591254 0.0019047694)
(5.1514189 -0.29444362 0.0017480582)
(5.1217461 -0.2791127 0.0016037392)
(5.0945698 -0.25995088 0.0014873493)
(5.0709998 -0.23737932 0.0014044249)
(5.0521402 -0.2123156 0.0013687416)
(5.0388115 -0.18610597 0.0013392764)
(5.0309642 -0.16111712 0.0013059545)
(5.0272425 -0.1385096 0.0012563658)
(5.0263385 -0.11859151 0.0011981898)
(5.0273232 -0.101333 0.0011374917)
(5.0295121 -0.086574491 0.0010755213)
(5.0323813 -0.0740639 0.0010128283)
(5.035563 -0.063506426 0.00095163594)
(5.0388206 -0.054614397 0.00089391129)
(5.0420076 -0.047128861 0.00084035275)
(5.0450367 -0.04082392 0.00079102241)
(5.047861 -0.035506239 0.00074569972)
(5.0504606 -0.03101329 0.00070403932)
(5.0528321 -0.027209477 0.00066562785)
(5.0549822 -0.023982332 0.00063008187)
(5.0569233 -0.021238537 0.00059707091)
(5.058671 -0.018900991 0.00056626561)
(5.060242 -0.0169051 0.00053745074)
(5.0601505 -0.01636099 0.00048566969)
(5.0582898 -0.018217573 0.00051656847)
(5.0561932 -0.020397285 0.00055002467)
(5.0538314 -0.022963655 0.00058631681)
(5.0511729 -0.025994826 0.00062594872)
(5.0481853 -0.029586943 0.00066938162)
(5.0448376 -0.033858496 0.00071719214)
(5.041103 -0.038956673 0.00076995234)
(5.0369662 -0.045063772 0.00082800625)
(5.0324335 -0.052405234 0.00089142417)
(5.0275482 -0.061256751 0.00095971801)
(5.0224126 -0.07195237 0.0010312955)
(5.0172294 -0.084891918 0.0011016034)
(5.0123675 -0.10052943 0.0011648646)
(5.0084043 -0.11932674 0.001220939)
(5.006142 -0.14170217 0.001272161)
(5.006805 -0.16800761 0.0013031475)
(5.0124544 -0.19814871 0.0012902137)
(5.0255918 -0.23071391 0.0012615527)
(5.0462979 -0.26163482 0.0012539525)
(5.0729841 -0.28892558 0.0013630768)
(5.1038519 -0.3115211 0.001528452)
(5.1373944 -0.32919294 0.001726802)
(5.1723826 -0.34214627 0.0019339883)
(5.2078925 -0.35066311 0.0021326)
(5.2433379 -0.3550716 0.002364744)
(5.2783397 -0.35586844 0.0026001629)
(5.3125767 -0.35377142 0.0028622978)
(5.3459291 -0.34911882 0.0031280297)
(5.3494772 -0.38536077 0.0037068796)
(5.3136653 -0.39045058 0.0033467609)
(5.2767479 -0.39324309 0.0029800315)
(5.2384614 -0.39314869 0.0026518079)
(5.1993464 -0.38941831 0.0024058042)
(5.1596188 -0.38092374 0.0021113153)
(5.120008 -0.36706326 0.0016759393)
(5.0814869 -0.34726683 0.0012222702)
(5.0455609 -0.3209556 0.00084426471)
(5.0143782 -0.28811395 0.00059197188)
(4.9908069 -0.24972107 0.00062632907)
(4.9780736 -0.20822336 0.00079687325)
(4.9759602 -0.17180128 0.00099846293)
(4.9798212 -0.14152753 0.0010756612)
(4.986446 -0.11682111 0.0010927613)
(4.9942517 -0.096792919 0.001088089)
(5.0023727 -0.080661619 0.00105615)
(5.0102461 -0.067678159 0.0009972705)
(5.0175681 -0.057189951 0.00092552907)
(5.0242215 -0.048673744 0.00085126998)
(5.0301831 -0.041720925 0.00077947732)
(5.0354757 -0.036011443 0.00071279994)
(5.0401484 -0.031295012 0.00065219321)
(5.0442618 -0.027376457 0.0005976256)
(5.0478784 -0.024102768 0.00054864563)
(5.0510572 -0.021354278 0.00050456277)
(5.0538525 -0.019035831 0.00046480169)
(5.0563124 -0.017071996 0.00042869143)
(5.05848 -0.015401856 0.0003958087)
(5.0547709 -0.013900041 0.00023725605)
(5.0522542 -0.015331903 0.00026929255)
(5.0493887 -0.017015611 0.00030507224)
(5.0461176 -0.019005227 0.00034511385)
(5.0423756 -0.021368341 0.00039020003)
(5.0380853 -0.024191858 0.00044088872)
(5.0331578 -0.027586716 0.0004976303)
(5.0274908 -0.031698331 0.00056035591)
(5.0209716 -0.036718401 0.00062751654)
(5.0134827 -0.042901261 0.000694888)
(5.004914 -0.050587395 0.00075457678)
(4.9951744 -0.06023253 0.00079518038)
(4.9842337 -0.072455114 0.0007971383)
(4.972249 -0.088097448 0.0007258271)
(4.9596778 -0.10824907 0.00055699584)
(4.9472439 -0.13431992 0.00028752066)
(4.9366421 -0.16849733 -0.0001876147)
(4.9327814 -0.21350706 -0.0010245335)
(4.9449145 -0.26606732 -0.0013960363)
(4.9736964 -0.31607667 -0.0011832705)
(5.0117147 -0.35661056 -0.00033294336)
(5.0548329 -0.38747296 0.0005180703)
(5.1000811 -0.40952401 0.0013840149)
(5.1456374 -0.42458595 0.0019469188)
(5.1905086 -0.4345823 0.0019519828)
(5.2325576 -0.44163065 0.0020152559)
(5.2742407 -0.43761939 0.0026818542)
(5.3139722 -0.43365403 0.0033844763)
(5.352359 -0.42743645 0.0040556906)
(5.3891188 -0.41932485 0.0046800679)
(5.3980628 -0.44540864 0.0031364794)
(5.3802704 -0.44613906 0.0025482)
(5.360791 -0.4534692 0.0029757768)
(5.341629 -0.45307611 0.0022973459)
(5.3213821 -0.45972462 0.0028010686)
(5.3013357 -0.45877611 0.002016356)
(5.2806188 -0.46469876 0.0024526968)
(5.2596991 -0.46277265 0.0015390919)
(5.2401929 -0.46693537 0.0017941699)
(5.2171378 -0.45908515 0.00040822434)
(5.1969859 -0.4696688 -0.0017645089)
(5.1897594 -0.50177682 -0.00069826879)
(5.176509 -0.51195695 0.0016782201)
(5.1724691 -0.48035471 0.0010877001)
(5.1262976 -0.47258779 0.00094680619)
(5.0747379 -0.45961674 -0.00058588782)
(5.0204485 -0.4381234 -0.0030524572)
(4.9665236 -0.40500494 -0.0058296448)
(4.9162915 -0.35777734 -0.0087511795)
(4.8797627 -0.29235985 -0.010347824)
(4.8707601 -0.21120813 -0.0068800975)
(4.8861133 -0.1623139 -0.0031017008)
(4.9094019 -0.12306999 -0.0016811104)
(4.9303065 -0.095670836 -0.0009140593)
(4.9485711 -0.076152891 -0.00038640732)
(4.9647381 -0.061669099 -7.6764136e-05)
(4.9787935 -0.05070156 8.0493995e-05)
(4.990891 -0.042262767 0.00015306845)
(5.0012883 -0.03566958 0.00017608611)
(5.0102147 -0.030448322 0.00017008043)
(5.0178802 -0.026262606 0.0001490611)
(5.0244774 -0.022868338 0.000121879)
(5.0301724 -0.02008614 9.2430056e-05)
(5.0351066 -0.017784887 6.3719274e-05)
(5.0393956 -0.015866811 3.6991396e-05)
(5.0431371 -0.014256528 1.2644134e-05)
(5.0464112 -0.012896483 -9.4758392e-06)
(5.0492867 -0.011740904 -2.9508761e-05)
(5.043328 -0.0088224613 -0.00038519672)
(5.0401733 -0.0096481372 -0.00039329822)
(5.0365847 -0.010619111 -0.00040552303)
(5.0324853 -0.01176828 -0.00042341294)
(5.0277837 -0.01313738 -0.00044959618)
(5.0223671 -0.014781427 -0.0004877786)
(5.0160993 -0.016773263 -0.00054406149)
(5.0088061 -0.019212666 -0.00062847704)
(5.0002804 -0.022234754 -0.00075364207)
(4.9902723 -0.026030465 -0.00093839614)
(4.9784802 -0.03088445 -0.0012066177)
(4.964542 -0.037204918 -0.0015810739)
(4.9479872 -0.045594204 -0.0020751854)
(4.928193 -0.056953587 -0.0026857385)
(4.904175 -0.072867468 -0.0032297654)
(4.8748695 -0.09586355 -0.002985899)
(4.8394852 -0.12826087 -0.0011247576)
(4.7876863 -0.14245605 0.0010150147)
(4.7628344 -0.11663416 -1.0749987e-05)
(4.7400999 -0.066609621 -0.0063684529)
(4.7032798 -0.087905144 -0.008142811)
(4.6444898 -0.13252365 -0.0033182973)
(4.5358548 -0.1843507 0.011022435)
(4.3453495 -0.30447903 0.026684933)
(4.1419254 -0.3234706 0.022762165)
(4.3453569 -0.54302979 0.013660993)
(4.4753119 -0.67863616 -0.024086441)
(4.6174202 -0.62340281 -0.0095754372)
(4.673672 -0.60227307 -0.00069008639)
(4.7100833 -0.60245295 0.00023887886)
(4.7446221 -0.60605928 0.0010630008)
(4.7744212 -0.6137293 0.0020041234)
(4.7932933 -0.61942183 0.0020087568)
(4.8081628 -0.61322097 0.001434498)
(4.8165812 -0.60271918 0.00095924866)
(4.8401339 -0.61105036 0.00098830394)
(4.8557247 -0.61730468 0.00118648)
(4.8673778 -0.61525728 0.0012845092)
(4.8803873 -0.60472271 0.0012590149)
(4.8792612 -0.56526379 -0.001867614)
(4.9221944 -0.57774366 0.0011195668)
(4.9597588 -0.58147257 0.0017940259)
(4.9753647 -0.60506343 0.00027135524)
(4.9936409 -0.60806595 0.0011115046)
(5.0129499 -0.60572181 0.00028361644)
(5.0284572 -0.6021576 -0.00013379822)
(5.0460549 -0.60061647 0.00011409276)
(5.0622116 -0.59979424 0.00054071301)
(5.0781211 -0.59886265 0.00090755283)
(5.0927817 -0.59609627 0.00072048898)
(5.1052466 -0.59378889 0.0003537398)
(5.116721 -0.59528399 0.0007256608)
(5.1242931 -0.59689826 0.0011259309)
(5.1312425 -0.59462941 0.0012428617)
(5.1370393 -0.58849918 0.0010489088)
(5.1509533 -0.58995354 0.0011459888)
(5.1606108 -0.58738947 0.0005306047)
(5.166875 -0.58335244 0.0006015558)
(5.172109 -0.57806957 0.00045470332)
(5.1692982 -0.56083407 -0.00039590118)
(5.1924902 -0.56019525 0.00049854973)
(5.2165749 -0.55546197 0.0014468109)
(5.2359378 -0.55189879 0.0015579564)
(5.2448253 -0.56153419 0.0010238914)
(5.2538281 -0.56207979 0.00055964169)
(5.2643937 -0.5607241 0.00019242231)
(5.2763082 -0.55520306 -3.9782499e-05)
(5.2859639 -0.55132923 -4.4299719e-05)
(5.2953956 -0.54891875 0.00038590211)
(5.3050154 -0.54756543 0.00056151409)
(5.3160837 -0.54611084 0.00074281491)
(5.3286849 -0.54332564 0.00083955216)
(5.3371128 -0.53605061 0.00041840357)
(5.3403752 -0.53620291 0.00076990746)
(5.3445246 -0.53404778 0.00092083338)
(5.3478315 -0.53052528 0.00099716173)
(5.3557901 -0.5304456 0.0013992711)
(5.361535 -0.53123493 0.0015096276)
(5.3681405 -0.52910105 0.0016060957)
(5.3743789 -0.52150136 0.00087299004)
(5.3722471 -0.5072968 -1.9984343e-05)
(5.3894383 -0.50337274 0.0004974909)
(5.1277251 -0.00036579141 0.0021514886)
(5.1216572 -0.00043519468 0.0022560245)
(5.1152077 -0.00049114376 0.0023416722)
(5.1084551 -0.00053360423 0.0024086198)
(5.1014772 -0.00056278024 0.0024573497)
(5.0943487 -0.00057904375 0.0024886016)
(5.0871444 -0.00058304503 0.0025033799)
(5.0799256 -0.00057561318 0.002503022)
(5.0727616 -0.00055764392 0.0024888348)
(5.0657049 -0.00053016193 0.0024621235)
(5.0588064 -0.00049432654 0.0024244344)
(5.0521102 -0.00045138626 0.0023773665)
(5.0456526 -0.00040263812 0.0023225237)
(5.0394634 -0.00034935499 0.0022614523)
(5.0335651 -0.00029279976 0.0021956228)
(5.0279739 -0.0002341528 0.0021264153)
(5.0227 -0.00017449611 0.0020550925)
(5.0177482 -0.00011475139 0.0019828352)
(5.0131181 -5.5648581e-05 0.0019108258)
(5.008805 1.9819436e-06 0.0018398339)
(5.0048008 5.72361e-05 0.001770203)
(5.0010948 0.00010939139 0.001702133)
(4.9976748 0.00015811893 0.0016361354)
(4.9945264 0.00020338197 0.0015727639)
(4.9916344 0.00024520156 0.0015123488)
(4.9889824 0.0002836287 0.0014550302)
(4.9865545 0.00031869764 0.0014008432)
(4.9843344 0.00035048433 0.0013497785)
(4.9823065 0.000379077 0.0013017516)
(4.9822789 0.00037620047 0.0039788129)
(4.9823198 0.00036868253 0.006802235)
(4.9824405 0.000361891 0.009768527)
(4.9826401 0.00035968018 0.012824699)
(4.9829115 0.00036176094 0.015897915)
(4.9854995 0.00032045995 0.022589085)
(4.985151 0.00032813097 0.019565876)
(4.9848543 0.00032847512 0.016446503)
(4.9846133 0.00032803402 0.013276202)
(4.9844365 0.00033175821 0.010118353)
(4.9843317 0.00033967247 0.0070490433)
(4.9843008 0.0003476551 0.0041246497)
(4.986515 0.00031595036 0.0042797067)
(4.9865357 0.00030747384 0.0073115064)
(4.9866244 0.00029826886 0.010490384)