/*--------------------------------*- C++ -*----------------------------------*\
| =========                 |                                                 |
| \\      /  F ield         | OpenFOAM: The Open Source CFD Toolbox           |
|  \\    /   O peration     | Version:  v2012                                 |
|   \\  /    A nd           | Website:  www.openfoam.com                      |
|    \\/     M anipulation  |                                                 |
\*---------------------------------------------------------------------------*/
FoamFile
{
    version     2.0;
    format      ascii;
    class       volScalarField;
    location    "200";
    object      p;
}
// * * * * * * * * * * * * * * * * * * * * * * * * * * * * * * * * * * * * * //

dimensions      [0 2 -2 0 0 0 0];


internalField   nonuniform List<scalar> 
121056
(
1.6004638
1.5147363
1.2910632
1.0630096
0.92301039
0.81209908
0.71555205
0.63556436
0.56834766
0.5103364
0.45997762
0.41618876
0.37782709
0.34399118
0.31399053
0.2872979
0.26348796
0.24215884
0.22297323
0.20567816
0.19005322
0.1759121
0.16307722
0.15140402
0.14075526
0.13102943
0.12213325
0.1139986
0.10653626
0.099666927
0.093343473
0.087519686
0.082134378
0.077141303
0.072510017
0.068216356
0.06423232
-0.072596145
-0.076541818
-0.080773524
-0.085321821
-0.090223968
-0.095520142
-0.10125791
-0.10748975
-0.11427568
-0.12167978
-0.12977538
-0.13864209
-0.14836766
-0.15904526
-0.17077474
-0.18366004
-0.19780761
-0.21332355
-0.23031141
-0.24886774
-0.26907611
-0.29100515
-0.31470209
-0.34018824
-0.36745803
-0.39647426
-0.42716523
-0.45943074
-0.49314158
-0.52814259
-0.56425579
-0.60128816
-0.63902558
-0.67725572
-0.71578943
-0.75438478
-0.79279005
-0.83078894
-0.86815789
-0.90468049
-0.94014446
-0.97433864
-1.0070529
-1.038082
-1.0672301
-1.0942913
-0.5378423
-0.49397109
-0.45194579
-0.41186916
-0.37382519
-0.33786472
-0.30401798
-0.27229277
-0.24267679
-0.21513912
-0.18963314
-0.16609835
-0.14446316
-0.12464649
-0.10656085
-0.090113536
-0.075209107
-0.061750461
-0.049640867
-0.03878452
-0.029088157
-0.020461326
-0.012817424
-0.0060736793
-0.00015206076
0.0050211611
0.0095147749
0.013393164
0.016715876
0.0195383
0.021911085
0.02388119
0.025491152
0.026780487
0.02778439
0.028536006
0.029063781
0.029396087
0.02955626
0.029571553
0.029445643
0.029188147
0.029285697
0.029545112
0.029686546
0.029695911
0.029554597
0.02924061
0.02873192
0.028001413
0.027020448
0.025756308
0.024173757
0.022233588
0.019893282
0.01710608
0.0138214
0.0099840678
0.0055344707
0.00040830628
-0.0054632924
-0.012153981
-0.01974197
-0.028310227
-0.037945872
-0.04873955
-0.060785176
-0.074179216
-0.089019343
-0.10540337
-0.12342809
-0.14318741
-0.16477004
-0.18825842
-0.21372604
-0.24123474
-0.27083284
-0.30255261
-0.33640801
-0.37239173
-0.41047435
-0.45060607
-0.49270193
-0.53665917
-0.5341249
-0.48997301
-0.44771796
-0.40746316
-0.36929254
-0.3332546
-0.29937726
-0.26766596
-0.23810377
-0.21065526
-0.18526869
-0.16187884
-0.14040892
-0.12077328
-0.10288018
-0.086633033
-0.071932472
-0.058678698
-0.046772026
-0.036114526
-0.026611124
-0.018170299
-0.010704115
-0.0041290312
0.0016334208
0.0066569895
0.01101057
0.014758389
0.017959999
0.020670343
0.022939732
0.024814597
0.026337214
0.02754639
0.028477172
0.029161795
0.029628873
0.029905006
0.030013337
0.029975292
0.029809366
0.02952533
0.029906948
0.030234363
0.03044803
0.030537588
0.03048596
0.030272546
0.029874439
0.029265629
0.028417994
0.027299929
0.025876809
0.024110402
0.021958977
0.019376595
0.016313367
0.01271458
0.0085209921
0.0036685721
-0.0019115321
-0.0082933954
-0.015556075
-0.023783897
-0.033065789
-0.04349502
-0.055168597
-0.068187028
-0.082652891
-0.098669703
-0.11634081
-0.13576744
-0.15704671
-0.18026948
-0.20551797
-0.23286326
-0.26236279
-0.29405791
-0.32796987
-0.36409737
-0.40241573
-0.44287877
-0.48540221
-0.52988235
-0.52371527
-0.47875984
-0.43584958
-0.39508872
-0.3565588
-0.32030531
-0.28634816
-0.25468119
-0.22527657
-0.19808574
-0.1730425
-0.15006719
-0.12906919
-0.10994946
-0.09260345
-0.076923285
-0.062799516
-0.050123155
-0.038787635
-0.028689067
-0.019727306
-0.011806922
-0.0048375569
0.0012661733
0.0065841151
0.011190726
0.015154698
0.018539741
0.021404737
0.023803791
0.025785956
0.027396796
0.0286773
0.029664741
0.030392949
0.030892899
0.031192023
0.031315511
0.031285561
0.031121934
0.0308411
0.030452482
0.031162622
0.031630972
0.032000162
0.032260765
0.032397433
0.032391575
0.032221858
0.031863798
0.031290992
0.030474114
0.029380389
0.027973364
0.026212965
0.024055115
0.021451445
0.018348306
0.014687486
0.010405971
0.0054352025
-0.00029971816
-0.0068795808
-0.01439066
-0.022925277
-0.032581697
-0.043463932
-0.055680338
-0.069343219
-0.084568467
-0.10147361
-0.12017527
-0.14078825
-0.16342264
-0.18818056
-0.21515328
-0.24441969
-0.27603879
-0.31004787
-0.34646316
-0.38526952
-0.42642468
-0.46985064
-0.51544078
-0.50496298
-0.45858127
-0.41451664
-0.37287698
-0.33373673
-0.2971351
-0.26307837
-0.23153805
-0.20246466
-0.17578455
-0.15140257
-0.12921261
-0.10909793
-0.090934138
-0.074593334
-0.059947262
-0.04686832
-0.035232769
-0.024921379
-0.015820299
-0.0078210139
-0.00082160093
0.005272439
0.010548729
0.01508886
0.018967806
0.02225378
0.025009155
0.02729168
0.029153074
0.030640955
0.031798229
0.032663769
0.033271575
0.033653393
0.033837601
0.033849355
0.033711809
0.03344475
0.033065902
0.032589949
0.03202574
0.033026878
0.033702454
0.03430249
0.034818962
0.035238029
0.035543208
0.035715679
0.035733773
0.035574186
0.035209982
0.034611302
0.033746484
0.032578226
0.031064227
0.029159862
0.026813888
0.023969968
0.020567425
0.01653848
0.011807956
0.0062935471
-9.3870125e-05
-0.0074516879
-0.015884873
-0.025506831
-0.036437502
-0.04880401
-0.06274053
-0.078386854
-0.09588477
-0.11537757
-0.1370076
-0.16090961
-0.18720867
-0.21602101
-0.24743873
-0.28152748
-0.31833119
-0.35785427
-0.40006482
-0.44489071
-0.49222057
-0.47712319
-0.42868332
-0.3829744
-0.34011034
-0.3001608
-0.2631493
-0.22905671
-0.19782106
-0.16935427
-0.14354002
-0.12023816
-0.099299653
-0.080566806
-0.063875639
-0.04906462
-0.035975936
-0.024455954
-0.014358908
-0.0055487512
0.0021013958
0.008710831
0.014388508
0.019233093
0.023334924
0.026777182
0.029633272
0.031970336
0.03384872
0.035322823
0.036440226
0.037245404
0.037778651
0.038073922
0.038161655
0.038069707
0.037822681
0.03744206
0.036947913
0.036357366
0.035685564
0.034945171
0.034144047
0.035370605
0.036310435
0.037205659
0.038048256
0.038826806
0.039528703
0.040138991
0.040639389
0.041010004
0.041228824
0.041270488
0.041106518
0.040704749
0.040029375
0.039038209
0.037684168
0.035915875
0.033675419
0.030897577
0.027508714
0.023425668
0.018558579
0.012806614
0.0060569733
-0.0018153478
-0.010944058
-0.021475066
-0.033566492
-0.047387483
-0.063114596
-0.080930847
-0.10102549
-0.12358507
-0.14878729
-0.1768027
-0.20777745
-0.24182739
-0.27903878
-0.31944888
-0.36304568
-0.409762
-0.45947874
-0.43902878
-0.3878516
-0.33999713
-0.29559121
-0.25469555
-0.21730854
-0.18336909
-0.15276089
-0.12533178
-0.1008974
-0.079251163
-0.060179029
-0.043460441
-0.028877787
-0.016221816
-0.0052945611
0.0040896621
0.012101891
0.018899662
0.024624711
0.029406194
0.033358987
0.036585946
0.039177554
0.041215682
0.042772448
0.043910657
0.044685623
0.045146678
0.04533707
0.045295386
0.045054665
0.044644454
0.044090364
0.043415852
0.042640629
0.041780809
0.040852521
0.039869034
0.038843119
0.037782572
0.036692824
0.039348076
0.040586463
0.041810281
0.04301212
0.044182384
0.045309598
0.046380418
0.047381463
0.048295534
0.049101996
0.049779046
0.050300578
0.05063678
0.050752683
0.050609282
0.050160795
0.049354959
0.048131725
0.046421084
0.044144291
0.041211534
0.037519302
0.032950138
0.027370436
0.020631655
0.012566252
0.0029886786
-0.0083059483
-0.021539477
-0.036949669
-0.054788284
-0.075315665
-0.0987896
-0.12546297
-0.15556707
-0.1892993
-0.22681615
-0.26820981
-0.31350188
-0.36263594
-0.41547516
-0.38846894
-0.3337416
-0.28317573
-0.23692209
-0.19503245
-0.15745908
-0.12406714
-0.09464853
-0.068947394
-0.046671812
-0.027511731
-0.011156611
0.0027004304
0.014350491
0.024063893
0.032088402
0.038648425
0.04394393
0.048152688
0.0514302
0.053912626
0.055718782
0.056951044
0.057696742
0.058032204
0.058023014
0.057725634
0.057187825
0.056450898
0.055549763
0.054514654
0.053371496
0.052142935
0.050847389
0.049500744
0.048116761
0.046706488
0.045279827
0.043846852
0.042415777
0.040990583
0.042694286
0.044315904
0.045964084
0.047636608
0.049329222
0.051035461
0.052747672
0.054458046
0.056156121
0.057830364
0.059465501
0.061043184
0.062543255
0.063940778
0.065205372
0.066300508
0.067184716
0.067806964
0.068106696
0.06801257
0.06744027
0.06629008
0.064444521
0.061765159
0.058092266
0.053239718
0.046993166
0.039107779
0.029308617
0.017289184
0.0027132769
-0.014779431
-0.035564037
-0.060022264
-0.08852123
-0.12139247
-0.15891371
-0.2012777
-0.24856687
-0.30073588
-0.26312663
-0.20915695
-0.16075707
-0.11796746
-0.08065475
-0.048544778
-0.021267266
0.0016065608
0.020540823
0.036005082
0.048451968
0.058305945
0.065952022
0.071735612
0.075959725
0.078888277
0.080747731
0.081731852
0.082003291
0.08169884
0.080932319
0.079798876
0.078377149
0.076731854
0.074916391
0.072975036
0.070943461
0.068851108
0.0667224
0.064576424
0.062428131
0.060290481
0.058174208
0.056087168
0.054035473
0.052023682
0.050055529
0.048134559
0.04626314
0.044440889
0.046213224
0.048240106
0.050339298
0.05251331
0.054763125
0.057088379
0.059488497
0.061962427
0.064508236
0.067123038
0.069801129
0.072535207
0.07531626
0.07813148
0.080963904
0.083791997
0.086587448
0.089314721
0.091929142
0.094374595
0.096580471
0.098459788
0.099905223
0.10078358
0.10093224
0.10015555
0.098217766
0.094838622
0.089687548
0.082378455
0.072470159
0.059465251
0.04282144
0.021960266
-0.0037050631
-0.034730741
-0.07161318
-0.11474361
-0.16433124
-0.11336245
-0.062507833
-0.019172061
0.016968189
0.046477862
0.070025629
0.088333808
0.10214542
0.11217377
0.11906742
0.12340226
0.12567891
0.1263234
0.12569146
0.12407638
0.12171837
0.118812
0.11551321
0.11194555
0.10820698
0.10437356
0.1005046
0.096644979
0.092828841
0.089081836
0.085422367
0.081862981
0.078412556
0.075076862
0.071858124
0.068757507
0.065774574
0.062907731
0.060154739
0.057512938
0.054978614
0.052549095
0.050220037
0.047987415
0.049749449
0.052187981
0.054746941
0.057431823
0.060250136
0.06320818
0.066313636
0.069573939
0.072995798
0.076586068
0.08035077
0.084295212
0.08842472
0.092742217
0.097247619
0.10193835
0.10680647
0.11183811
0.11701227
0.12229882
0.12765307
0.13301307
0.1382958
0.14339264
0.1481593
0.15240877
0.15590404
0.15834658
0.15936142
0.15848571
0.15516163
0.14872827
0.13841326
0.12333784
0.10256164
0.075148997
0.040192024
-0.0031433555
-0.055360506
0.010778609
0.064476142
0.10749321
0.14063768
0.16516673
0.18231903
0.19330123
0.19930408
0.20140712
0.20052006
0.19739018
0.19262858
0.18672583
0.18006548
0.17294046
0.16557502
0.15813808
0.1507555
0.14351508
0.13647763
0.12968717
0.1231708
0.11694097
0.11100288
0.10535648
0.099997622
0.094918191
0.090108265
0.085555105
0.08124571
0.07716923
0.07331282
0.069663412
0.06620834
0.06293712
0.059838561
0.056901865
0.054116118
0.05147544
0.053156001
0.05599194
0.058997222
0.062179489
0.065551658
0.069128145
0.072925539
0.076958083
0.081241844
0.085796203
0.090642199
0.095797381
0.10128208
0.10712023
0.1133318
0.11993723
0.12695349
0.13439728
0.14228158
0.1506128
0.15938489
0.16858054
0.17816423
0.18807623
0.19822008
0.20845552
0.2185853
0.22833532
0.23732921
0.24506437
0.25088867
0.25397642
0.25327435
0.24746425
0.23504201
0.21447017
0.18406272
0.14186564
0.086523999
0.17377292
0.2310043
0.2715603
0.29783442
0.31294822
0.3191688
0.31841589
0.31258875
0.30328811
0.29170196
0.27870998
0.26498139
0.25100553
0.23712585
0.22357536
0.21050867
0.19802318
0.18617495
0.17498551
0.16445753
0.15457915
0.14532998
0.13667945
0.12859534
0.12104527
0.11399803
0.10741959
0.10127816
0.09553855
0.090171984
0.085153377
0.080455342
0.076054124
0.071928209
0.068058501
0.064424097
0.061007384
0.057791135
0.0547656
0.056303801
0.059507327
0.062921709
0.066561395
0.07044656
0.074595961
0.079034955
0.083787741
0.088881136
0.09434615
0.10021571
0.10652241
0.11330279
0.12060386
0.12846859
0.1369449
0.14607996
0.15592516
0.16653541
0.17796844
0.19027351
0.20349545
0.21767284
0.2328316
0.24896706
0.26603845
0.2839538
0.30254743
0.32153893
0.34048369
0.35873308
0.37539882
0.38919928
0.39821802
0.4000612
0.39244453
0.37243876
0.33492266
0.27540519
0.45736167
0.48923691
0.49946954
0.49656447
0.48403041
0.46445334
0.4408721
0.41552935
0.38969123
0.36416197
0.33950386
0.31605211
0.29397378
0.27333327
0.25413406
0.23633885
0.21988535
0.20469388
0.19068047
0.17776097
0.16585385
0.15487422
0.144746
0.13539771
0.12676634
0.11878911
0.11141092
0.10457557
0.098238163
0.092358064
0.086895592
0.081814871
0.077084789
0.072675659
0.068557122
0.064708167
0.061105566
0.057736136
0.059079712
0.062599786
0.066372037
0.070410359
0.074742288
0.079392644
0.084395232
0.089781234
0.095588329
0.10185646
0.10863443
0.1159679
0.12391465
0.13253787
0.14190542
0.15209387
0.16318517
0.17527251
0.18845804
0.20285576
0.21858253
0.23576942
0.25455514
0.27508466
0.297499
0.32193105
0.348486
0.37722953
0.40815092
0.44108077
0.47559729
0.5110676
0.54643051
0.57917171
0.60531008
0.62228914
0.62701992
0.60554748
0.78551477
0.78568116
0.75626326
0.71918865
0.67503959
0.62581374
0.57682421
0.53044249
0.48703314
0.44685921
0.4100613
0.37651254
0.34598742
0.31825041
0.29306571
0.27019765
0.24942538
0.23054223
0.21335994
0.19770837
0.1834372
0.17040592
0.15849112
0.14758295
0.13758437
0.12840624
0.11997002
0.11220502
0.10504657
0.098441124
0.092334271
0.086683953
0.081446883
0.076587996
0.072067607
0.067862199
0.063941681
0.060289975
0.061381153
0.065147598
0.069194381
0.073544407
0.07822736
0.08326833
0.088710967
0.094594877
0.10096628
0.10786906
0.11536797
0.12352292
0.13240556
0.14209591
0.15268258
0.16426965
0.176969
0.19091339
0.20625303
0.2231589
0.24182476
0.26247194
0.28535235
0.31075212
0.33899885
0.3704649
0.40556685
0.44474971
0.48850317
0.53732263
0.59143948
0.65091306
0.71638336
0.78646987
0.85346743
0.91450135
0.97929318
1.0169045
-0.95563082
-0.94068597
-0.92405146
-0.90585145
-0.88621598
-0.86528132
-0.8431877
-0.82007766
-0.79609464
-0.77138145
-0.74607891
-0.72032544
-0.69425498
-0.66799864
-0.6416736
-0.61542024
-0.58934548
-0.56352577
-0.53806353
-0.51304295
-0.48854054
-0.46462416
-0.44135152
-0.4187722
-0.39692817
-0.37585255
-0.35556985
-0.33609717
-0.31744506
-0.29961727
-0.28261174
-0.26642121
-0.25103385
-0.23643388
-0.22260174
-0.20951494
-0.19714932
-0.18547905
-0.17447616
-0.16411201
-0.15435748
-0.14518346
-0.13656082
-0.12846085
-0.12085495
-0.1137161
-0.107017
-0.10073219
-0.094836918
-0.089308716
0.029140586
0.029387848
0.029297571
0.029141037
0.028920474
0.028630167
-0.0032534571
-0.0013462728
0.00051450927
0.00232493
0.0040886317
0.0057986045
0.0074576905
0.009063842
0.010618141
0.012115895
0.013559683
0.014945489
0.016274568
0.017544057
0.018755804
0.019904311
0.0209921
0.022017274
0.022979189
0.023879
0.02471299
0.025484916
0.026189608
0.0268285
0.02740422
0.027915783
0.028358312
0.028731972
0.029032006
0.029258616
0.029418588
0.029513963
0.029505941
0.02940608
0.029241221
0.02900662
0.028695822
0.028309538
0.027852556
0.027324159
0.026729774
0.026069826
0.025341694
0.024544672
0.02368275
0.022752761
0.02175954
0.020699427
0.01957593
0.018388343
0.017137522
0.015824281
0.014450589
0.013017692
0.011526081
0.0099783364
0.0083722352
0.0067112312
0.0049953251
0.0032258453
0.0014013157
-0.0004718552
-0.0023990687
-0.0043708375
-0.0063872368
-0.0084525895
-0.018878322
-0.016567861
-0.014297887
-0.012072159
-0.0098881384
-0.0077486606
-0.0056590553
-0.0036188828
-0.0016268199
0.00031072084
0.0021951938
0.0040250296
0.0057989346
0.0075153199
0.0091751951
0.010774737
0.012314287
0.013795368
0.015213238
0.016570417
0.017860765
0.019088436
0.020247766
0.021343059
0.022367757
0.023328391
0.024219292
0.025041856
0.025793829
0.026474801
0.027089143
0.027635096
0.028107853
0.028506969
0.028828923
0.029071736
0.029242211
0.029346325
0.029013087
0.028905549
0.028729259
0.028478065
0.028144685
0.027731183
0.027242941
0.026680963
0.026044916
0.025340901
0.024564957
0.023716136
0.022795062
0.021805372
0.02074679
0.019616721
0.018419255
0.017151888
0.015820447
0.01442098
0.012957354
0.011429558
0.0098399069
0.0081877694
0.0064733013
0.0047013512
0.0028684919
0.00097862531
-0.00096787103
-0.0029710321
-0.0050297927
-0.0071402687
-0.009303168
-0.011516394
-0.013779005
-0.016085056
-0.018439134
-0.020834304
-0.023264191
-0.025728117
-0.028220483
-0.030745524
-0.033290129
-0.035852643
-0.038429956
-0.041010977
-0.04359299
-0.046169846
-0.048730696
-0.089185894
-0.088912852
-0.0884555
-0.087805822
-0.086955165
-0.085914135
-0.084691606
-0.083308108
-0.081770147
-0.080088769
-0.078269472
-0.076323296
-0.074260659
-0.07208724
-0.069815052
-0.067460916
-0.06502912
-0.062532539
-0.059976432
-0.057378153
-0.054743011
-0.052079773
-0.049399666
-0.046707855
-0.0440091
-0.041314753
-0.038628288
-0.035957166
-0.033309178
-0.030682884
-0.028092236
-0.025533321
-0.023010516
-0.020529786
-0.01809046
-0.015701722
-0.013359776
-0.011070433
-0.008833875
-0.0066519133
-0.004526508
-0.0024566192
-0.00044795365
0.0015035251
0.0033948668
0.0052242416
0.0069920631
0.0086975723
0.01033733
0.011913814
0.013422802
0.014866104
0.016239584
0.017546226
0.018782423
0.019948543
0.021041732
0.022063501
0.023013231
0.023889775
0.024691855
0.025419
0.026075099
0.026655297
0.027160122
0.027586162
0.027930684
0.028190134
0.028372249
0.028483422
0.027730138
0.027615489
0.027427461
0.027159515
0.026803914
0.026363442
0.025841734
0.025243313
0.024566637
0.023815421
0.022986812
0.022082423
0.021102945
0.020047967
0.018919312
0.017717069
0.016441898
0.015094474
0.013676888
0.012190022
0.01063424
0.009009689
0.0073188212
0.0055608491
0.0037382626
0.0018517565
-9.8547072e-05
-0.0021113818
-0.0041842082
-0.0063203997
-0.008513646
-0.010767401
-0.013078554
-0.015445573
-0.017868337
-0.020339736
-0.022864796
-0.025434139
-0.028051315
-0.030703658
-0.033396079
-0.036125127
-0.03887966
-0.041661374
-0.044460088
-0.047270123
-0.0500876
-0.052898571
-0.055702185
-0.058491327
-0.061251111
-0.063976242
-0.066657027
-0.069277877
-0.07183338
-0.074307887
-0.076696919
-0.078983313
-0.081154871
-0.083204341
-0.085120288
-0.086892092
-0.088512317
-0.089970861
-0.0912582
-0.092357068
-0.0932538
-0.09393809
-0.094420024
-0.094707837
-0.10059667
-0.1002933
-0.099785971
-0.099065369
-0.098121251
-0.096963206
-0.095606444
-0.094071026
-0.092364837
-0.090499546
-0.088483109
-0.086327062
-0.084042649
-0.081637875
-0.079126462
-0.076527852
-0.073845128
-0.071094323
-0.068285484
-0.065429438
-0.062540994
-0.059623068
-0.056690489
-0.053756577
-0.050817866
-0.047888206
-0.044975644
-0.042080579
-0.039218054
-0.036384295
-0.033589352
-0.03083839
-0.028128377
-0.025468216
-0.02285826
-0.020302101
-0.0177999
-0.015354525
-0.012969559
-0.010643142
-0.0083820505
-0.0061793923
-0.004042338
-0.0019678469
4.1771869e-05
0.0019861681
0.0038639616
0.0056748043
0.0074168741
0.0090911162
0.010694424
0.012227512
0.013688024
0.015077253
0.016392044
0.017631158
0.018795355
0.01988451
0.020895024
0.02182948
0.02268356
0.023459841
0.024156732
0.024775783
0.025313119
0.02576809
0.026135264
0.026411907
0.026605963
0.026724286
0.025433064
0.025311083
0.025110817
0.024825139
0.024446104
0.023976374
0.023422335
0.022783562
0.022063788
0.021262019
0.020382149
0.019417881
0.018375139
0.017251876
0.016051475
0.014774596
0.013419626
0.011988396
0.010483822
0.0089042175
0.0072521257
0.0055281171
0.0037336291
0.0018698284
-6.4056041e-05
-0.0020663116
-0.0041361009
-0.0062722971
-0.0084736829
-0.010742363
-0.013073115
-0.015471434
-0.017931109
-0.020453868
-0.023036702
-0.025677287
-0.028373998
-0.031125409
-0.033929739
-0.036779358
-0.039679117
-0.042616735
-0.045589582
-0.04859914
-0.051629367
-0.054680396
-0.057742525
-0.060804784
-0.063869138
-0.066915727
-0.069937415
-0.072928188
-0.07586958
-0.078754725
-0.081568029
-0.084296348
-0.08693465
-0.089459999
-0.091861902
-0.094128502
-0.096248939
-0.098211142
-0.1000058
-0.1016217
-0.10305064
-0.10426878
-0.10526252
-0.10602127
-0.1065548
-0.10687429
-0.11356599
-0.11323026
-0.11266977
-0.11187188
-0.11082631
-0.10954586
-0.10804347
-0.10634417
-0.10445765
-0.10239573
-0.10016798
-0.097787219
-0.095263689
-0.092613183
-0.089845926
-0.086983221
-0.084035481
-0.081012537
-0.077934742
-0.074806639
-0.071646411
-0.068466136
-0.065269813
-0.062075507
-0.05888743
-0.055712724
-0.05256402
-0.049438328
-0.046352589
-0.043308169
-0.040305792
-0.037354873
-0.034456181
-0.031612408
-0.028829518
-0.026104005
-0.023441188
-0.02084034
-0.018306841
-0.015836404
-0.013435186
-0.011100871
-0.0088354391
-0.0066370164
-0.0045070946
-0.0024463373
-0.00045602968
0.0014614705
0.0033093393
0.0050829806
0.0067841074
0.0084108349
0.0099604294
0.01143419
0.012830125
0.014145902
0.015383992
0.016540859
0.017616133
0.018610829
0.019518665
0.020344689
0.021087248
0.021746527
0.022318304
0.022802826
0.023193797
0.023488664
0.023695272
0.023821066
0.021848897
0.021719241
0.021506062
0.021201694
0.020798477
0.020298386
0.019708113
0.019028362
0.018262577
0.017411122
0.016474561
0.015449542
0.014341732
0.013150045
0.01187407
0.010518443
0.0090813093
0.0075640045
0.0059686017
0.0042947656
0.0025450374
0.0007205984
-0.001180924
-0.0031530501
-0.0051997711
-0.0073192062
-0.0095089868
-0.011770014
-0.014099033
-0.016500329
-0.018972792
-0.021512728
-0.02412174
-0.026799996
-0.029543748
-0.032352714
-0.035223409
-0.038158536
-0.041153003
-0.044204102
-0.047310606
-0.050462134
-0.053661319
-0.056903321
-0.06017322
-0.063472772
-0.06678972
-0.070117862
-0.073448079
-0.07676546
-0.080066051
-0.083333261
-0.08655205
-0.089716131
-0.092802923
-0.095803201
-0.098702857
-0.10148286
-0.1041307
-0.10662858
-0.10896671
-0.11113144
-0.11311222
-0.11489729
-0.11647444
-0.11781982
-0.11891794
-0.11975598
-0.12034442
-0.12069707
-0.12829508
-0.12792522
-0.12730782
-0.12642922
-0.12527708
-0.12386585
-0.1222121
-0.12033989
-0.11826177
-0.11599197
-0.11354003
-0.11092242
-0.10814776
-0.10523556
-0.10219992
-0.099059592
-0.095831104
-0.092523704
-0.089159431
-0.085749433
-0.082306439
-0.078848169
-0.075382633
-0.071919531
-0.068472231
-0.065046039
-0.06165495
-0.058295667
-0.054982176
-0.051721267
-0.048512209
-0.045360462
-0.042271194
-0.039244331
-0.036286651
-0.033393901
-0.030570389
-0.027814551
-0.025131359
-0.022520264
-0.019979803
-0.017511254
-0.01511796
-0.012794643
-0.01054457
-0.0083665094
-0.0062627993
-0.0042349565
-0.0022811684
-0.00040510716
0.0013938063
0.0031153717
0.0047566905
0.0063182536
0.0077976701
0.0091942949
0.010507229
0.011734437
0.012876057
0.013931946
0.014897383
0.01577482
0.016564439
0.017265277
0.017874085
0.018390148
0.01880619
0.019120301
0.019340251
0.019473928
0.016649281
0.016511536
0.016284629
0.015960559
0.015531253
0.014998877
0.014371067
0.013648719
0.012834622
0.011929864
0.010935373
0.0098487466
0.0086725062
0.0074085824
0.0060580036
0.0046204615
0.0030979052
0.0014915612
-0.00019634812
-0.0019658415
-0.0038145342
-0.0057428017
-0.0077491993
-0.0098327459
-0.011993441
-0.01422984
-0.016540114
-0.018925287
-0.021383016
-0.023918517
-0.02652699
-0.029208669
-0.031966196
-0.0347966
-0.03770069
-0.040674589
-0.043720219
-0.046837904
-0.050022313
-0.053273163
-0.056585246
-0.059955399
-0.063382509
-0.06685717
-0.070371753
-0.073925215
-0.077504011
-0.081102455
-0.084705816
-0.088307091
-0.091893987
-0.095449971
-0.098961635
-0.10241327
-0.10578605
-0.10906866
-0.11224269
-0.11528951
-0.11819289
-0.1209336
-0.1235006
-0.12587812
-0.12805418
-0.13001555
-0.13174744
-0.13322639
-0.13443294
-0.1353537
-0.13600014
-0.13638702
-0.14500146
-0.14459735
-0.14392175
-0.1429591
-0.1416973
-0.14015014
-0.13833887
-0.13628712
-0.13401119
-0.13152558
-0.12884137
-0.1259763
-0.12294231
-0.11975925
-0.11644499
-0.11301898
-0.10949892
-0.10590133
-0.10224265
-0.098538824
-0.094806539
-0.091061228
-0.08731766
-0.083583859
-0.079872629
-0.076193293
-0.07255522
-0.068963922
-0.065424779
-0.061947003
-0.058531412
-0.055183468
-0.05190434
-0.048698346
-0.045565313
-0.042509859
-0.039527801
-0.036622236
-0.033793209
-0.031040507
-0.028365947
-0.025764074
-0.02324221
-0.020795489
-0.018424928
-0.016130652
-0.01391296
-0.011773577
-0.0097147412
-0.0077342161
-0.0058351281
-0.0040167492
-0.0022815635
-0.0006302583
0.00093573197
0.0024141818
0.0038036889
0.0051051882
0.0063168943
0.0074356066
0.0084608438
0.0093922182
0.010231238
0.010975763
0.011623139
0.012171806
0.012614429
0.01294846
0.013182372
0.01332428
0.0094435202
0.009297371
0.0090562806
0.0087120131
0.0082558876
0.0076904222
0.0070232223
0.0062559051
0.0053916698
0.0044324089
0.0033758896
0.002224577
0.00097727442
-0.0003615877
-0.0017921763
-0.0033122917
-0.0049219865
-0.0066188558
-0.0084018413
-0.010269766
-0.012219467
-0.014251878
-0.016364355
-0.018559094
-0.020833329
-0.023185489
-0.025615914
-0.02812369
-0.030708732
-0.033375629
-0.036116246
-0.038938119
-0.041838811
-0.044817884
-0.047877427
-0.051013003
-0.054230948
-0.057523692
-0.06089596
-0.06433945
-0.067856888
-0.07144008
-0.075091047
-0.078797092
-0.082556879
-0.086362918
-0.090205792
-0.094074898
-0.097959425
-0.10184745
-0.10572509
-0.10957593
-0.11338215
-0.11712828
-0.12079495
-0.12436488
-0.1278207
-0.13114125
-0.13430641
-0.13729731
-0.14009875
-0.14269414
-0.14507087
-0.14721281
-0.14910313
-0.15071917
-0.1520358
-0.15304106
-0.15374542
-0.15416762
-0.16391428
-0.16347459
-0.16274124
-0.16169422
-0.16032275
-0.15863862
-0.15666857
-0.15443731
-0.15196014
-0.1492556
-0.14633674
-0.14322043
-0.13992417
-0.13646654
-0.13286955
-0.12915518
-0.12534121
-0.1214476
-0.11749387
-0.11349612
-0.10947449
-0.10544414
-0.10142085
-0.097416941
-0.093444776
-0.08951257
-0.085631717
-0.081812769
-0.078052797
-0.074364585
-0.070748858
-0.067210681
-0.063748707
-0.060370084
-0.057071576
-0.053856425
-0.050722527
-0.047670446
-0.044700786
-0.041810447
-0.039005781
-0.036275167
-0.03362784
-0.031059288
-0.028569954
-0.026160089
-0.023830066
-0.021580187
-0.01941417
-0.01732951
-0.015328985
-0.013411135
-0.011580087
-0.0098369993
-0.008182454
-0.0066186212
-0.0051477465
-0.0037706495
-0.0024882717
-0.0013034772
-0.00021559285
0.00077231218
0.0016625353
0.0024531608
0.0031406123
0.0037234513
0.0041935537
0.0045483911
0.0047968852
0.0049474372
-0.00022831931
-0.00038327497
-0.00063939703
-0.0010050876
-0.0014894015
-0.0020899384
-0.002798059
-0.0036124655
-0.0045291831
-0.0055468202
-0.0066664464
-0.0078856872
-0.0092042029
-0.010620004
-0.012131923
-0.013739533
-0.01543955
-0.017229317
-0.019108776
-0.021076435
-0.023128169
-0.025265098
-0.027485262
-0.029789633
-0.032174896
-0.034641881
-0.037188986
-0.039817309
-0.042525846
-0.04531847
-0.048186836
-0.051143169
-0.054180491
-0.057302362
-0.060509247
-0.063800628
-0.06717769
-0.07063945
-0.074188324
-0.077817958
-0.081529507
-0.085319727
-0.089184856
-0.093115912
-0.097116317
-0.10116905
-0.10526815
-0.10940515
-0.1135649
-0.11773598
-0.1218993
-0.12604294
-0.13014201
-0.13418281
-0.13814253
-0.14199933
-0.14573594
-0.14932932
-0.15275469
-0.15599525
-0.15902978
-0.16184242
-0.16441795
-0.16673778
-0.16878728
-0.1705375
-0.17196331
-0.17305156
-0.17381366
-0.17427091
-0.18526633
-0.18479234
-0.18400223
-0.18287397
-0.18139454
-0.17958009
-0.17745415
-0.17504731
-0.1723757
-0.16945787
-0.16631009
-0.16294835
-0.15939589
-0.15567053
-0.15179698
-0.14780043
-0.14369809
-0.13951294
-0.13527152
-0.13098515
-0.12668216
-0.12237484
-0.11808157
-0.11381548
-0.10959157
-0.10542149
-0.10130792
-0.097266713
-0.093300223
-0.089411387
-0.08560805
-0.081889861
-0.078258026
-0.07471604
-0.071264013
-0.067898827
-0.064622529
-0.061432759
-0.058331272
-0.055310416
-0.052379562
-0.049527749
-0.046759578
-0.044072589
-0.041468804
-0.038945252
-0.036505446
-0.034146619
-0.031872408
-0.029683412
-0.027580152
-0.02556255
-0.023634331
-0.021797906
-0.020052398
-0.018400992
-0.016847453
-0.015391572
-0.014036016
-0.01278115
-0.011629144
-0.010581237
-0.0096379196
-0.008799001
-0.0080695453
-0.0074512736
-0.0069525887
-0.0065759211
-0.0063120689
-0.0061525737
-0.012899094
-0.013063185
-0.013334933
-0.013722877
-0.014236193
-0.014872704
-0.015623778
-0.01648771
-0.017458268
-0.018536989
-0.019722107
-0.021013102
-0.022406651
-0.023902849
-0.025499341
-0.027194643
-0.028985706
-0.030868833
-0.032845865
-0.034913072
-0.037068128
-0.039309362
-0.04163754
-0.044050444
-0.046544396
-0.04912335
-0.051782806
-0.054526696
-0.057352391
-0.060262599
-0.063254194
-0.066336075
-0.069499584
-0.072753569
-0.076096643
-0.079531136
-0.083055515
-0.086672795
-0.090384296
-0.094184587
-0.098077059
-0.10205925
-0.10612353
-0.11026944
-0.1144905
-0.1187734
-0.12311726
-0.12750681
-0.13192834
-0.13636725
-0.14080617
-0.14522832
-0.14960815
-0.15393362
-0.15817409
-0.16230592
-0.16631123
-0.17016396
-0.1738404
-0.17731844
-0.18057552
-0.18359509
-0.18635908
-0.18884981
-0.19104844
-0.19292573
-0.19445569
-0.1956223
-0.19643896
-0.1969296
-0.20928885
-0.20878273
-0.20794034
-0.20673839
-0.20516065
-0.2032245
-0.20095696
-0.19838704
-0.19553559
-0.19241978
-0.18905913
-0.18547071
-0.18167634
-0.177702
-0.17357098
-0.16930991
-0.16493885
-0.16048051
-0.1559671
-0.15141514
-0.14684785
-0.14228381
-0.13774026
-0.13323361
-0.12877611
-0.12438524
-0.12006357
-0.11581949
-0.11166395
-0.10759393
-0.10361794
-0.09973921
-0.095954672
-0.092266289
-0.088674849
-0.085174661
-0.081769631
-0.07845413
-0.075232251
-0.072092875
-0.069043332
-0.066076625
-0.063194645
-0.060395756
-0.057681791
-0.055048601
-0.052500925
-0.050034849
-0.047653401
-0.045360016
-0.043153313
-0.041036552
-0.039010967
-0.037080853
-0.035243842
-0.033504138
-0.031864226
-0.030327172
-0.028894837
-0.027567179
-0.026348573
-0.025238409
-0.024239912
-0.023350693
-0.02257775
-0.021922352
-0.021393955
-0.020994382
-0.020714526
-0.020545785
-0.029175563