/*--------------------------------*- C++ -*----------------------------------*\
| =========                 |                                                 |
| \\      /  F ield         | OpenFOAM: The Open Source CFD Toolbox           |
|  \\    /   O peration     | Version:  v2012                                 |
|   \\  /    A nd           | Website:  www.openfoam.com                      |
|    \\/     M anipulation  |                                                 |
\*---------------------------------------------------------------------------*/
FoamFile
{
    version     2.0;
    format      ascii;
    class       volScalarField;
    location    "0";
    object      p;
}
// * * * * * * * * * * * * * * * * * * * * * * * * * * * * * * * * * * * * * //

dimensions      [0 2 -2 0 0 0 0];


internalField   nonuniform List<scalar> 
74980
(
-0.59737124
-0.61027628
-0.56575566
-0.52809886
-0.5327688
-0.53362625
-0.54480854
-0.52536352
-0.54707133
-0.57550674
-0.59591581
-0.60519595
-0.60992557
-0.61270885
-0.61431767
-0.61524859
-0.61576867
-0.61602371
-0.61611303
-0.61606902
-0.61541174
-0.61107901
-0.59468723
-0.5642094
-0.53431504
-0.5493786
-0.53570799
-0.53427605
-0.52844429
-0.56572226
-0.59699064
-0.64862823
-0.67146217
-0.70335854
-0.70985
-0.7122313
-0.71063266
-0.70758001
-0.70373792
-0.69949609
-0.69468851
-0.68920841
-0.68299925
-0.67607048
-0.668451
-0.66018465
-0.65132038
-0.64189971
-0.63195287
-0.62151084
-0.61060295
-0.59926064
-0.58750142
-0.5753479
-0.56284744
-0.55004442
-0.53694205
-0.5235737
-0.57167388
-0.58393534
-0.59591619
-0.60756534
-0.61883621
-0.6296628
-0.64000182
-0.64980971
-0.65905231
-0.66769122
-0.67569576
-0.68305325
-0.68974304
-0.69573628
-0.70101585
-0.70557537
-0.70941443
-0.71255625
-0.71507642
-0.71710281
-0.71878581
-0.71966406
-0.71899661
-0.71466548
-0.70748989
-0.67523145
-0.65097268
-0.59816607
-0.62561286
-0.67008054
-0.69483239
-0.73062606
-0.74425102
-0.75391264
-0.75714946
-0.75734162
-0.75606783
-0.75413749
-0.75157957
-0.74834974
-0.74440534
-0.73974044
-0.73435382
-0.72824881
-0.72144146
-0.71395785
-0.70581822
-0.69702889
-0.68762021
-0.67762966
-0.66708784
-0.65603702
-0.64452138
-0.63260237
-0.6203274
-0.60774736
-1.466218
-1.5156542
-1.5615126
-1.6032847
-1.6404605
-1.6725635
-1.6992151
-1.7200973
-1.7346953
-1.7427452
-1.7444134
-1.7397051
-1.7285879
-1.7111853
-1.6877551
-1.6586792
-1.6244204
-1.5855158
-1.5425723
-1.496248
-1.4472337
-1.3962357
-1.3439419
-1.2910246
-1.2381079
-1.1857476
-1.1344532
-1.084683
-1.0368099
-0.99112474
-0.94785043
-0.90714442
-0.86910757
-0.8337935
-0.80121784
-0.77136606
-0.74414723
-0.71944682
-0.69711593
-0.67679837
-0.65772914
-0.63841321
-0.6160924
-0.5869819
-0.54713577
-0.50050013
-0.47443564
-0.48167597
-0.52720547
-0.63449338
-0.73484187
-0.715437
-0.59356004
-0.61218179
-0.69887075
-0.71579024
-0.62957227
-0.5356165
-0.49166077
-0.4832198
-0.50479719
-0.54697478
-0.58546784
-0.61409078
-0.63652698
-0.65611481
-0.6754223
-0.69597381
-0.71849081
-0.7433216
-0.77063345
-0.80055739
-0.83318728
-0.86854588
-0.90662459
-0.94737442
-0.99069706
-1.0364369
-1.0843738
-1.1342176
-1.1855948
-1.2380463
-1.2910678
-1.3440988
-1.3965081
-1.4476185
-1.4967539
-1.5431969
-1.5862479
-1.6252486
-1.6595893
-1.6887266
-1.7121988
-1.729638
-1.7407824
-1.7454917
-1.7438353
-1.7357062
-1.7209919
-1.7000551
-1.6733349
-1.6411557
-1.6038784
-1.5619983
-1.5160393
-1.4665
-1.4212527
-1.4246916
-1.4277699
-1.4304709
-1.4327824
-1.4346967
-1.4362104
-1.4373247
-1.4380455
-1.4383832
-1.4383527
-1.4379727
-1.4372664
-1.4671241
-1.4681636
-1.4696681
-1.4716379
-1.474031
-1.4767855
-1.4798364
-1.4831205
-1.4865753
-1.4901365
-1.4937389
-1.4973158
-1.5008011
-1.5041308
-1.507244
-1.5100841
-1.5125993
-1.5147439
-1.5164782
-1.517769
-1.5185899
-1.5189215
-1.5187512
-1.5180739
-1.5168914
-1.5152122
-1.513051
-1.5104278
-1.5073684
-1.5039027
-1.5000638
-1.5892893
-1.5925294
-1.595313
-1.5976005
-1.5993565
-1.6005504
-1.6011581
-1.6011622
-1.6005533
-1.599331
-1.597504
-1.595091
-1.5921207
-1.5886312
-1.5846703
-1.5802946
-1.5755686
-1.5705638
-1.5653579
-1.5600325
-1.5546721
-1.5493623
-1.5441874
-1.539229
-1.5345653
-1.5302723
-1.5264263
-1.5231066
-1.5203882
-1.5183194
-1.5168959
-1.5630809
-1.5648917
-1.5675242
-1.5709901
-1.5752357
-1.5801735
-1.5857108
-1.5917583
-1.5982272
-1.6050251
-1.6120546
-1.6192134
-1.6263967
-1.6334994
-1.6404186
-1.6470557
-1.6533189
-1.6591245
-1.664399
-1.6690802
-1.673118
-1.676475
-1.6791265
-1.6810605
-1.6822764
-1.6827848
-1.6826057
-1.6817674
-1.680305
-1.6782598
-1.6756772
-1.7582209
-1.7600811
-1.761327
-1.7619079
-1.7617775
-1.7608959
-1.7592309
-1.7567598
-1.7534711
-1.7493658
-1.744459
-1.7387813
-1.7323784
-1.7253118
-1.7176579
-1.7095071
-1.7009619
-1.6921344
-1.6831439
-1.6741146
-1.6651715
-1.6564386
-1.6480355
-1.640075
-1.6326631
-1.6259016
-1.6198921
-1.6147383
-1.6105401
-1.6073647
-1.6051845
-1.6426742
-1.6452084
-1.6489046
-1.6538005
-1.6598317
-1.6668806
-1.6748267
-1.6835585
-1.692964
-1.7029236
-1.7133123
-1.7239935
-1.7348249
-1.7456618
-1.7563599
-1.7667797
-1.7767896
-1.7862688
-1.7951108
-1.8032255
-1.8105405
-1.817002
-1.8225742
-1.827239
-1.8309948
-1.8338541
-1.8358423
-1.8369947
-1.8373556
-1.8369757
-1.8359099
-1.9077409
-1.9079319
-1.9073726
-1.9060046
-1.9037736
-1.9006323
-1.8965426
-1.8914772
-1.8854228
-1.8783819
-1.8703752
-1.8614436
-1.8516485
-1.8410725
-1.8298186
-1.8180086
-1.80578
-1.7932828
-1.7806757
-1.7681215
-1.7557832
-1.7438194
-1.7323809
-1.7216091
-1.7116313
-1.7025669
-1.6945398
-1.687687
-1.6821325
-1.6779306
-1.675048
-1.7019466
-1.705141
-1.7098038
-1.7159714
-1.7235681
-1.732474
-1.7425531
-1.7536711
-1.7656986
-1.778501
-1.7919222
-1.8057995
-1.8199597
-1.834224
-1.8484127
-1.8623502
-1.87587
-1.888819
-1.9010618
-1.9124838
-1.9229929
-1.9325204
-1.9410209
-1.9484706
-1.9548661
-1.9602207
-1.9645627
-1.9679321
-1.9703781
-1.9719569
-1.9727293
-2.0299235
-2.0280915
-2.0254066
-2.0218073
-2.0172371
-2.0116462
-2.0049943
-1.9972534
-1.9884105
-1.9784712
-1.9674621
-1.9554337
-1.9424612
-1.928645
-1.9141101
-1.8990038
-1.8834925
-1.8677567
-1.8519864
-1.8363753
-1.8211158
-1.8063933
-1.7923824
-1.779241
-1.7671166
-1.7561472
-1.7464671
-1.7382136
-1.7315213
-1.7264759
-1.7230298
-1.7379044
-1.7415754
-1.7469377
-1.7540537
-1.7628495
-1.7731804
-1.7848989
-1.797868
-1.8119477
-1.8269853
-1.8428189
-1.8592667
-1.8761347
-1.8932214
-1.9103225
-1.927237
-1.9437733
-1.9597546
-1.9750237
-1.989447
-2.002917
-2.0153525
-2.0266975
-2.036922
-2.0460177
-2.0539956
-2.0608822
-2.0667167
-2.0715474
-2.0754288
-2.0784219
-2.1173933
-2.1131359
-2.1079663
-2.101827
-2.0946672
-2.0864422
-2.0771159
-2.0666649
-2.0550817
-2.0423787
-2.028591
-2.0137772
-1.9980241
-1.9814461
-1.9641842
-1.946403
-1.9282867
-1.9100343
-1.8918539
-1.8739556
-1.8565461
-1.839823
-1.8239702
-1.8091551
-1.7955275
-1.7832262
-1.7723916
-1.7631731
-1.7557092
-1.7500689
-1.7461842
-1.7478891
-1.751888
-1.7577031
-1.7653967
-1.7748962
-1.7860636
-1.7987516
-1.8128226
-1.8281406
-1.8445593
-1.8619131
-1.8800198
-1.8986826
-1.9176944
-1.9368438
-1.9559213
-1.9747253
-1.9930684
-2.0107822
-2.0277216
-2.0437674
-2.0588277
-2.0728384
-2.0857584
-2.0975688
-2.1082697
-2.1178767
-2.1264185
-2.133936
-2.14048
-2.1461007
-2.1638773
-2.1567695
-2.1487416
-2.1397514
-2.1297595
-2.118734
-2.1066541
-2.0935119
-2.0793145
-2.0640869
-2.0478756
-2.030752
-2.0128117
-1.9941762
-1.9749916
-1.9554263
-1.9356664
-1.9159113
-1.8963674
-1.8772415
-1.858736
-1.8410422
-1.8243369
-1.8087791
-1.7945101
-1.7816611
-1.7703658
-1.7607691
-1.7530102
-1.7471636
-1.7431642
-1.7319792
-1.7359223
-1.7416967
-1.7493732
-1.7588835
-1.7700945
-1.7828674
-1.7970753
-1.8125946
-1.8292925
-1.8470199
-1.8656101
-1.8848817
-1.9046428
-1.9246956
-1.9448421
-1.9648897
-1.9846568
-2.0039781
-2.0227079
-2.0407232
-2.0579248
-2.0742374
-2.0896083
-2.1040054
-2.1174147
-2.1298371
-2.1412852
-2.1517791
-2.1613435
-2.1700122
-2.1642745
-2.1540418
-2.142953
-2.1309856
-2.1181227
-2.104355
-2.089682
-2.0741146
-2.0576777
-2.0404131
-2.0223812
-2.0036631
-1.9843608
-1.9645974
-1.9445155
-1.9242744
-1.9040466
-1.8840131
-1.8643586
-1.8452661
-1.8269124
-1.8094634
-1.7930713
-1.7778714
-1.7639845
-1.7515227
-1.7406026
-1.7313525
-1.7238954
-1.7182916
-1.7144676
-1.6908888
-1.6945279
-1.6998621
-1.7069664
-1.7157892
-1.7262198
-1.7381432
-1.7514567
-1.7660623
-1.7818552
-1.7987174
-1.8165159
-1.8351045
-1.8543266
-1.874019
-1.8940154
-1.9141508
-1.9342659
-1.9542111
-1.9738496
-1.99306
-2.0117386
-2.0297991
-2.0471728
-2.0638078
-2.0796669
-2.0947259
-2.1089716
-2.1223994
-2.1350124
-2.1468193
-2.1177017
-2.1043387
-2.090238
-2.0754056
-2.0598535
-2.0436011
-2.0266763
-2.0091171
-1.9909732
-1.9723071
-1.953195
-1.9337278
-1.9140095
-1.8941574
-1.8743
-1.854574
-1.8351217
-1.8160879
-1.7976163
-1.779846
-1.7629091
-1.746928
-1.7320129
-1.7182613
-1.7057591
-1.6945872
-1.6848325
-1.6765941
-1.6699684
-1.6649975
-1.6616066
-1.627084
-1.6301685
-1.6346914
-1.6407252
-1.6482378
-1.657149
-1.6673772
-1.6788536
-1.691516
-1.7052996
-1.7201301
-1.7359227
-1.7525821
-1.7700039
-1.7880764
-1.806682
-1.8256996
-1.8450069
-1.864483
-1.8840105
-1.9034784
-1.9227838
-1.9418328
-1.9605424
-1.97884
-1.996664
-2.0139623
-2.0306923
-2.0468192
-2.0623154
-2.0771597
-2.0256838
-2.0094914
-1.9927492
-1.9754934
-1.957767
-1.9396198
-1.9211088
-1.9022991
-1.8832636
-1.8640834
-1.8448472
-1.8256498
-1.806591
-1.7877734
-1.7693011
-1.7512767
-1.7337998
-1.7169657
-1.7008635
-1.6855751
-1.6711751
-1.6577298
-1.6452968
-1.6339254
-1.6236584
-1.6145376
-1.6066125
-1.5999459
-1.5946005
-1.5905983
-1.5878704
-1.5445819
-1.5469148
-1.5503397
-1.554921
-1.5606472
-1.5674736
-1.5753578
-1.5842699
-1.5941889
-1.6050948
-1.6169638
-1.6297661
-1.643465
-1.658017
-1.6733706
-1.6894664
-1.7062364
-1.7236053
-1.7414903
-1.759803
-1.7784508
-1.7973397
-1.8163755
-1.8354665
-1.8545248
-1.8734679
-1.8922194
-1.9107089
-1.9288732
-1.9466547
-1.9640028
-1.8930657
-1.8748116
-1.8562522
-1.8374514
-1.818479
-1.7994106
-1.7803273
-1.7613147
-1.7424624
-1.7238623
-1.7056069
-1.6877871
-1.6704894
-1.6537938
-1.6377721
-1.6224858
-1.6079857
-1.5943119
-1.5814946
-1.5695546
-1.5585055
-1.5483546
-1.5391042
-1.5307531
-1.523299
-1.5167426
-1.5110934
-1.5063733
-1.502608
-1.4997988
-1.4978833
-1.4484878
-1.4499651
-1.4521386
-1.4550636
-1.4587425
-1.463169
-1.4683457
-1.4742834
-1.4809992
-1.4885165
-1.4968604
-1.5060544
-1.5161186
-1.527068
-1.5389105
-1.5516443
-1.5652559
-1.5797191
-1.5949933
-1.6110249
-1.627748
-1.6450853
-1.6629519
-1.6812575
-1.6999088
-1.7188124
-1.7378763
-1.7570114
-1.7761326
-1.79516
-1.8140186
-1.7281723
-1.7090536
-1.6899068
-1.670815
-1.6518656
-1.6331499
-1.6147621
-1.5967974
-1.5793493
-1.5625089
-1.5463617
-1.5309848
-1.5164447
-1.5027912
-1.4900599
-1.4782703
-1.4674258
-1.457515
-1.4485139
-1.4403882
-1.4330972
-1.4265967
-1.4208393
-1.4157782
-1.4113704
-1.407579
-1.4043761
-1.4017446
-1.3996741
-1.3981466
-1.397116
-1.3444498
-1.345049
-1.3459479
-1.3471869
-1.3487938
-1.3507957
-1.3532271
-1.3561327
-1.3595646
-1.3635827
-1.3682511
-1.3736367
-1.3798078
-1.3868284
-1.3947557
-1.4036365
-1.4135047
-1.4243778
-1.4362559
-1.4491201
-1.4629319
-1.4776395
-1.4931772
-1.509467
-1.5264233
-1.5439572
-1.5619726
-1.5803734
-1.5990658
-1.6179586
-1.6369633
-1.5419075
-1.523405
-1.5051485
-1.4872303
-1.4697399
-1.4527698
-1.4364119
-1.4207546
-1.4058876
-1.3918903
-1.3788313
-1.3667648
-1.3557287
-1.3457459
-1.3368183
-1.3289283
-1.3220395
-1.3160991
-1.3110412
-1.3067899
-1.3032628
-1.3003737
-1.2980394
-1.29618
-1.2947206
-1.2935927
-1.2927383
-1.2921087
-1.291662
-1.291362
-1.2911735
-1.2379233
-1.2377287
-1.2374696
-1.2371734
-1.236886
-1.2366638
-1.2365702
-1.2366755
-1.2370598
-1.2378095
-1.2390173
-1.2407799
-1.2431936
-1.2463539
-1.2503509
-1.2552652
-1.2611646
-1.2681011
-1.276108
-1.2851998
-1.2953729
-1.3066019
-1.3188444
-1.3320432
-1.3461288
-1.3610201
-1.3766351
-1.3928869
-1.4096849
-1.4269351
-1.44455
-1.3463741
-1.3299988
-1.314097
-1.2987524
-1.2840537
-1.2700858
-1.2569296
-1.244662
-1.2333464
-1.2230388
-1.2137825
-1.2056063
-1.1985208
-1.1925168
-1.1875665
-1.1836236
-1.1806238
-1.1784881
-1.1771254
-1.1764357
-1.1763146
-1.1766564
-1.1773569
-1.1783162
-1.1794407
-1.180645
-1.1818471
-1.1829699
-1.1839436
-1.1847148
-1.1852615
-1.1336969
-1.1328367
-1.1316103
-1.1300375
-1.1281773
-1.1261097
-1.1239213
-1.1217003
-1.1195387
-1.1175341
-1.1157904
-1.1144159
-1.1135208
-1.1132144
-1.113602
-1.1147813
-1.116839
-1.1198481
-1.1238651
-1.1289292
-1.1350614
-1.142264
-1.1505223
-1.1598064
-1.1700736
-1.1812705
-1.1933337
-1.2061935
-1.2197758
-1.2340065
-1.2488049
-1.1532276
-1.140309
-1.1280246
-1.116445
-1.1056363
-1.0956614
-1.0865778
-1.078436
-1.0712769
-1.0651302
-1.0600124
-1.0559254
-1.0528548
-1.0507696
-1.0496217
-1.0493469
-1.0498668
-1.0510903
-1.052917
-1.0552401
-1.0579492
-1.0609335
-1.0640843
-1.0672973
-1.0704736
-1.0735184
-1.076339
-1.0788415
-1.0809366
-1.0825587
-1.0836909
-1.0356134
-1.0342463
-1.0322836
-1.0297415
-1.0266917
-1.0232311
-1.019459
-1.0154708
-1.0113607
-1.0072261
-1.0031685
-0.99929379
-0.99570978
-0.99252447
-0.98984307
-0.9877655
-0.98638392
-0.98577978
-0.98602193
-0.98716513
-0.98924907
-0.99229827
-0.99632234
-1.0013171
-1.0072658
-1.0141405
-1.0219037
-1.0305106
-1.0399103
-1.0500472
-1.0608615
-0.95630912
-0.94920205
-0.94288459
-0.93739548
-0.93276695
-0.92902355
-0.92618064
-0.92424305
-0.92320382
-0.92304331
-0.92372857
-0.9252133
-0.9274382
-0.93033192
-0.93381243
-0.93778907
-0.94216508
-0.94683942
-0.95170938
-0.95667279
-0.96162985
-0.96648441
-0.97114388
-0.97551683
-0.97950799
-0.98301431
-0.98593211
-0.98818353
-0.98975193
-0.94632347
-0.94458253
-0.94208767
-0.93885825
-0.9349794
-0.93056072
-0.92570703
-0.92051111
-0.91505887
-0.90943552
-0.90372897
-0.89803064
-0.89243463
-0.88703628
-0.8819302
-0.87720836
-0.87295778
-0.86925909
-0.86618424
-0.8637952
-0.86214303
-0.86126736
-0.8611961
-0.86194595
-0.86352292
-0.86592322
-0.86913425
-0.87313585
-0.87790129
-0.80517375
-0.80273884
-0.80102269
-0.80004074
-0.79980203
-0.80030829
-0.80155309
-0.80352107
-0.80618741
-0.8095175
-0.81346681
-0.81798118
-0.82299753
-0.82844474
-0.83424535
-0.84031695
-0.84657389
-0.85292925
-0.85929661
-0.86559165
-0.87173343
-0.87764462
-0.88325008
-0.88847228
-0.89322364
-0.89739978
-0.90088593
-0.90358808
-0.90547973
-0.86731247
-0.86528294
-0.86239956
-0.85870146
-0.85429405
-0.84929652
-0.84381006
-0.83791362
-0.83167309
-0.82515085
-0.8184115
-0.81152406
-0.80456187
-0.79760166
-0.79072198
-0.78400147
-0.77751718
-0.7713427
-0.7655469
-0.76019283
-0.75533632
-0.75102525
-0.74729934
-0.74418994
-0.7417201
-0.739905
-0.73875242
-0.73826332
-0.67980806
-0.68238098
-0.68553647
-0.68926498
-0.6935507
-0.69837129
-0.7036975
-0.70949307
-0.7157147
-0.72231232
-0.72922952
-0.73640457
-0.74377146
-0.75126068
-0.75880091
-0.76632054
-0.77374942
-0.78102062
-0.78807206
-0.7948476
-0.80129702
-0.80737342
-0.81302636
-0.81819008
-0.82277055
-0.82664563
-0.82969569
-0.83186178
-0.79912417
-0.7968084
-0.79359362
-0.78956821
-0.78486857
-0.77961597
-0.77389089
-0.76773987
-0.7611935
-0.75428067
-0.74703618
-0.73950326
-0.73173327
-0.72378408
-0.7157181
-0.70760039
-0.6994968
-0.69147256
-0.68359066
-0.67591094
-0.66848925
-0.66137686
-0.65461933
-0.64825641
-0.64232208
-0.63684435
-0.63184555
-0.62734246
-0.58073331
-0.58699015
-0.5936536
-0.60070102
-0.60810506
-0.61583337
-0.62384863
-0.63210877
-0.64056691
-0.64917186
-0.65786893
-0.66660045
-0.67530649
-0.68392599
-0.69239787
-0.70066276
-0.70866469
-0.71635318
-0.7236861
-0.73063188
-0.7371711
-0.74329472
-0.74899671
-0.75425767
-0.7590209
-0.76317399
-0.76656353
-0.76906054
-0.74157569
-0.73886714
-0.7352898
-0.73103671
-0.72627718
-0.72109954
-0.71552152
-0.70952563
-0.70308934
-0.69620161
-0.68886854
-0.68111268
-0.67296975
-0.66448552
-0.65571113
-0.64670145
-0.6375135
-0.62820469
-0.61883181
-0.60945014
-0.60011291
-0.59087052
-0.58177004
-0.57285489
-0.56416453
-0.55573435
-0.54759558
-0.53977534
-0.5042264
-0.51341434
-0.5228365
-0.53246223
-0.54225767
-0.55218544
-0.56220474
-0.57227194
-0.58234075
-0.59236161
-0.60228328
-0.61205303
-0.6216172
-0.63092159
-0.63991244
-0.64853736
-0.65674739
-0.66450059
-0.67176423
-0.67852023
-0.68477089
-0.69054326
-0.69588806
-0.70086667
-0.70551779
-0.70980243
-0.71355391
-0.71651504
-0.69368577
-0.69042307
-0.68653348
-0.68233048
-0.67793279
-0.67328998
-0.6682889
-0.66282288
-0.65681961
-0.65024479
-0.64309564
-0.63539194
-0.62716784
-0.6184656
-0.60933318
-0.5998208
-0.58997945
-0.57986008
-0.56951319
-0.55898855
-0.54833486
-0.53759905
-0.52682692
-0.51606195
-0.50534542
-0.49471578
-0.48420845
-0.47385598
-0.44823765
-0.45955825
-0.47096205
-0.48241487
-0.49388024
-0.50531966
-0.5166922
-0.52795549
-0.53906549
-0.54997738
-0.5606449
-0.57102137
-0.58105958
-0.59071195
-0.5999303
-0.60866674
-0.61687383
-0.62450559
-0.63152219
-0.63789539
-0.643618
-0.64871738
-0.65327168
-0.65742256
-0.66136525
-0.66528222
-0.66918427
-0.6727476
-0.65297519
-0.64922265
-0.64565321
-0.64240284
-0.63919991
-0.63571118
-0.63168098
-0.62696802
-0.62151901
-0.61533436
-0.60844321
-0.60088802
-0.59271607
-0.58397545
-0.57471344
-0.56497572
-0.55480715
-0.54425179
-0.53335332
-0.52215523
-0.51070125
-0.49903491
-0.48719757
-0.47522917
-0.46316936
-0.45105645
-0.43892777
-0.42681931
-0.40856297
-0.42128418
-0.43397026
-0.44658462
-0.45908845
-0.47144255
-0.48361114
-0.49555621
-0.50723827
-0.51861656
-0.52965116
-0.54030215
-0.55053001
-0.56029402
-0.56955437
-0.57826897
-0.58639337
-0.59387964
-0.60067459
-0.60671966
-0.61195422
-0.61632703
-0.61982344
-0.62251914
-0.62466424
-0.62675435
-0.62944769
-0.63305427
-0.61108594
-0.60864057
-0.60747889
-0.60693089
-0.60590932
-0.60388787
-0.60074323
-0.5965339
-0.59137181
-0.58536605
-0.57860481
-0.57115523
-0.56306882
-0.55438771
-0.54514848
-0.53538758
-0.52514053
-0.5144433
-0.50333178
-0.49184241
-0.48001239
-0.46787973
-0.45548267
-0.44285653
-0.43003845
-0.41706626
-0.40397679
-0.39080528
-0.36992574
-0.38342614
-0.39680553
-0.41003068
-0.42306744
-0.43588032
-0.44842905
-0.46068608
-0.47261572
-0.48417858
-0.49533853
-0.50606185
-0.51631524
-0.52606738
-0.5352867
-0.54394479
-0.55201591
-0.55947193
-0.56627607
-0.57237231
-0.57767077
-0.58203067
-0.58525642
-0.58712775
-0.58757027
-0.58687643
-0.5856859
-0.5847987
-0.55152563
-0.55818467
-0.56233187
-0.56332763
-0.56216063
-0.5594453
-0.55561933
-0.55080267
-0.54520211
-0.538935
-0.53205384
-0.52457983
-0.51652272
-0.50789154
-0.49870146
-0.48897205
-0.4787301
-0.46800512
-0.45682908
-0.44523348
-0.43324649
-0.42089281
-0.40820505
-0.3952296
-0.38200059
-0.36855272
-0.35492277
-0.34115089
-0.29874606
-0.31282221
-0.32672371
-0.34040944
-0.35384232
-0.3669879
-0.37981329
-0.39227244
-0.40433387
-0.41597645
-0.42717506
-0.43790073
-0.44812418
-0.45781702
-0.46695509
-0.4755216
-0.48350839
-0.49092394
-0.49779834
-0.50418673
-0.51016521
-0.51579939
-0.52108171
-0.52576783
-0.52908346
-0.52937468
-0.52442679
-0.51484435
-0.49480782
-0.50306155
-0.50661691
-0.50514775
-0.50050164
-0.49459987
-0.48851263
-0.48262957
-0.47673658
-0.47059361
-0.46400153
-0.45684312
-0.44907056
-0.44067943
-0.43168537
-0.42211339
-0.41198897
-0.40133923
-0.39018986
-0.37856833
-0.36650551
-0.35403659
-0.34119239
-0.32799688
-0.31448462
-0.30069009
-0.28664804
-0.27239308
-0.2801408
-0.29430112
-0.30823606
-0.32191083
-0.33529067
-0.34834201
-0.36103301
-0.37333476
-0.38521636
-0.3966451
-0.40759009
-0.418024
-0.4279189
-0.43724563
-0.44597068
-0.45405477
-0.46145823
-0.46815223
-0.47414346
-0.47951427
-0.48447069
-0.48936937
-0.49449121
-0.49957926
-0.50383951
-0.50624142
-0.50592412
-0.50125944
-0.53786612
-0.53572594
-0.53182503
-0.5289617
-0.52670893
-0.52458205
-0.52252507
-0.52000461
-0.51676062
-0.51257072
-0.50738119
-0.50125013
-0.49427183
-0.48653806
-0.47812534
-0.46909077
-0.45947815
-0.44932204
-0.43865321
-0.42750051
-0.41589247
-0.40385858
-0.39142934
-0.37863421
-0.36550315
-0.35207025
-0.33837004
-0.32443625
-0.44218493
-0.4558916
-0.46936408
-0.48256559
-0.49545888
-0.5080151
-0.52020522
-0.53199943
-0.54336878
-0.55428595
-0.56472438
-0.57465397
-0.5840425
-0.5928551
-0.60104415
-0.60853798
-0.61523057
-0.62095013
-0.62543095
-0.62829583
-0.62909327
-0.62752296
-0.62383177
-0.61879117
-0.61367711
-0.61160692
-0.61438312
-0.62184652
-0.70336484
-0.69306671
-0.69931684
-0.70706978
-0.72139961
-0.73305294
-0.74113727
-0.7448623
-0.74494645
-0.7423601
-0.73801762
-0.73244772
-0.72595058
-0.71868903
-0.71075385
-0.70220553
-0.69308491
-0.68342497
-0.67325788
-0.66261128
-0.65151182
-0.63998524
-0.62805975
-0.61576706
-0.60313412
-0.59018762
-0.57696809
-0.56351126
-0.59819817
-0.61150264
-0.62455107
-0.63731817
-0.64977725
-0.66188963
-0.67362141
-0.68494843
-0.69584427
-0.70628218
-0.71623359
-0.72567188
-0.73456914
-0.74288742
-0.75058887
-0.75763698
-0.76397903
-0.76954812
-0.77421629
-0.77770214
-0.77936225
-0.77793762
-0.77120526
-0.7573403
-0.73718863
-0.71525223
-0.69456482
-0.68928184
-0.62650392
-0.66973612
-0.69364148
-0.72883629
-0.7414803
-0.7492794
-0.75041738
-0.74850171
-0.74508228
-0.74095831
-0.73615712
-0.73065595
-0.72443105
-0.71749833
-0.70989156
-0.70164779
-0.69281259
-0.68342809
-0.67352095
-0.66312057
-0.65225605
-0.64095788
-0.6292453
-0.6171368
-0.60467866
-0.59191873
-0.57886058
-0.56553135
-0.47718847
-0.49056872
-0.50367268
-0.51647847
-0.52897995
-0.54112804
-0.55287144
-0.56419611
-0.57508061
-0.58549483
-0.59540805
-0.60478953
-0.61361189
-0.62183175
-0.62940482
-0.63629995
-0.64248413
-0.64794606
-0.65270063
-0.65674824
-0.660003
-0.66204896
-0.66285014
-0.65943545
-0.64971348
-0.62486507
-0.60619535
-0.57368931
-0.55368345
-0.54218175
-0.54335472
-0.54876179
-0.55639635
-0.57848464
-0.59034779
-0.59511455
-0.59548842
-0.5944276
-0.59168482
-0.58772258
-0.58289951
-0.57735418
-0.57112054
-0.56421216
-0.55665572
-0.54846767
-0.53968329
-0.53034646
-0.5204774
-0.51010555
-0.49926325
-0.48797948
-0.47627768
-0.46416505
-0.45169525
-0.43892129
-0.42585074
-0.4124986
-0.35613525
-0.36942264
-0.38243718
-0.39515777
-0.40756305
-0.41960862
-0.43125065
-0.44247656
-0.45325958
-0.4635734
-0.47338593
-0.48267065
-0.49141266
-0.49957267
-0.50712729
-0.51406885
-0.52038566
-0.52605887
-0.53100214
-0.5349321
-0.53723478
-0.53750133
-0.53598913
-0.52999312
-0.51664308
-0.49949824
-0.49849153
-0.51731926
-0.53998317
-0.53052346
-0.49746712
-0.46596101
-0.45666678
-0.47127189
-0.48761451
-0.49668552
-0.49954748
-0.49986061
-0.49764644
-0.49348103
-0.48824722
-0.48234621
-0.47588903
-0.46888447
-0.46132286
-0.45319442
-0.44450695
-0.43528642
-0.42555425
-0.41532749
-0.40463427
-0.39349695
-0.38194627
-0.37001369
-0.35772273
-0.34509715
-0.33218457
-0.31902087
-0.30880949
-0.3218234
-0.33459
-0.34706811
-0.35920996
-0.37098866
-0.38238555
-0.39336644
-0.40390136
-0.4139651
-0.42353756
-0.43260696
-0.44115382
-0.44915887
-0.45662414
-0.46357381
-0.47002703
-0.47597304
-0.48129555
-0.48556841
-0.48781941
-0.48716357
-0.48302203
-0.47105554
-0.45224991
-0.44026665
-0.45919775
-0.50019376
-0.54601861
-0.56222088
-0.50915608
-0.46408874
-0.44093206
-0.45054093
-0.46856119
-0.48011092
-0.48401828
-0.48443872
-0.48211855
-0.47784301
-0.47251156
-0.46654119
-0.4600537
-0.45308159
-0.44558255
-0.43752762
-0.42889451
-0.41972482
-0.41004941
-0.39986382
-0.38918761
-0.37804309
-0.3664568
-0.35445025
-0.34206149
-0.32931907
-0.31626684
-0.30295192
-0.29672718
-0.31013988
-0.32327494
-0.33608344
-0.34852885
-0.3605914
-0.37225046
-0.38346485
-0.39420924
-0.40445704
-0.41418994
-0.42339802
-0.43206326
-0.44017179
-0.4477312
-0.45476767
-0.46131315
-0.4673607
-0.4728151
-0.47731465
-0.48008326
-0.48041186
-0.4774923
-0.46748723
-0.45036953
-0.44141285
-0.46685863
-0.51479573
-0.57222283
-0.57669908
-0.51839843
-0.46936399
-0.44355846
-0.45207811
-0.46864299
-0.47790066
-0.47975859
-0.47843512
-0.4748432
-0.4698889
-0.46427675
-0.45818233
-0.4516403
-0.44463065
-0.43711336
-0.42905536
-0.42044781
-0.41129305
-0.40161212
-0.39141563
-0.38072246
-0.36956761
-0.3579605
-0.34593029
-0.33350075
-0.32069083
-0.30753999
-0.29409973
-0.2934698
-0.30687122
-0.3199759
-0.3327344
-0.34508195
-0.3570172
-0.36851794
-0.37955358
-0.39010466
-0.40014905
-0.40967401
-0.418676
-0.42714187
-0.4350689
-0.44246326
-0.44937186
-0.45585535
-0.46199457
-0.4678566
-0.47333565
-0.47773938
-0.47997531
-0.47946752
-0.47002689
-0.45362779
-0.44524605
-0.47086296
-0.52029363
-0.57822819
-0.57889146
-0.52110823
-0.47164396
-0.44624079
-0.45462326
-0.47097859
-0.48040763
-0.48036145
-0.47766666
-0.47279536
-0.46702458
-0.46103656
-0.45488953
-0.44846855
-0.44165849
-0.43438259
-0.42658191
-0.41824708
-0.40937888
-0.39998778
-0.39007251
-0.37964301
-0.36871619
-0.35731068
-0.34546182
-0.33320107
-0.3205438
-0.30753891
-0.29423302
-0.29637984
-0.30959329
-0.3225002
-0.33505498
-0.34721243
-0.35895414
-0.37024529
-0.381049
-0.39134666
-0.40112349
-0.41037117
-0.41909221
-0.42727833
-0.43493122
-0.44206531
-0.44874418
-0.45505514
-0.46113569
-0.46712233
-0.47297882
-0.47802326
-0.48083439
-0.48102161
-0.47158446
-0.45519224
-0.44674329
-0.47197817
-0.52134304
-0.57907491
-0.57890954
-0.52123098
-0.47198814
-0.44686849
-0.45542091
-0.47191835
-0.48145664
-0.48135327
-0.47864976
-0.4736406
-0.46785443
-0.46197741
-0.45603801
-0.44988331
-0.44337072
-0.43640561
-0.42892323
-0.42090446
-0.41234627
-0.4032561
-0.3936312
-0.38347922
-0.37281378
-0.36165504
-0.35004047
-0.33800607
-0.32557091
-0.31277907
-0.29967666
-0.30386025
-0.31683399
-0.32949421
-0.34179408
-0.35369048
-0.36516357
-0.37617586
-0.38669263
-0.39668999
-0.40615464
-0.41507807
-0.42346197
-0.43129914
-0.43859184
-0.4453632
-0.45167688
-0.45762934
-0.46336372
-0.46903828
-0.4746265
-0.47943685
-0.48186548
-0.48172035
-0.47199126
-0.4553352
-0.44666094
-0.47171664
-0.5208509
-0.57846228
-0.57755452
-0.52008555
-0.47111979
-0.44610304
-0.45492832
-0.47179733
-0.48179707
-0.4823457
-0.48034457
-0.47588532
-0.47061126
-0.46522145
-0.45974798
-0.45403686
-0.44794962
-0.44139537
-0.43431004
-0.42666635
-0.418463
-0.40970817
-0.400404
-0.39056146
-0.38019335
-0.36932915
-0.35800301
-0.34625354
-0.33410162
-0.32158735
-0.30875766
-0.31428655
-0.32695899
-0.33931564
-0.35131089
-0.36291093
-0.37409219
-0.3848137
-0.39503925
-0.40473604
-0.41388976
-0.4224843
-0.43050844
-0.43795391
-0.44482668
-0.45115335
-0.45699635
-0.46243988
-0.46761023
-0.47264224
-0.4774849
-0.48142389
-0.48281531
-0.48164019
-0.47132267
-0.454188
-0.4451614
-0.47014097
-0.51877794
-0.57581661
-0.57270074
-0.51673282
-0.468691
-0.44375327
-0.45306867
-0.47051568
-0.48098884
-0.48331273
-0.48277348
-0.47955565
-0.47526825
-0.47065364
-0.4657948
-0.46061619
-0.45501485
-0.44890954
-0.44224562
-0.43499503
-0.42714266
-0.41869036
-0.40966701
-0.40009553
-0.38999375
-0.37939696
-0.36834727
-0.35688967
-0.34505102
-0.33286087
-0.32036092
-0.3266601
-0.33897421
-0.35099377
-0.36268632
-0.37402174
-0.38496799
-0.39547254
-0.40547844
-0.41494668
-0.42384316
-0.43214382
-0.43980877
-0.44687387
-0.45335224
-0.4592962
-0.46472151
-0.4696918
-0.47427405
-0.47850446
-0.48222916
-0.48461711
-0.48408907
-0.48007252
-0.46961589
-0.45169274
-0.44183491
-0.4665718
-0.51353907
-0.56759923
-0.55987825
-0.50777297
-0.46231267
-0.4386701
-0.44937136
-0.46818569
-0.48004119
-0.48481822
-0.4864548
-0.48499839
-0.48179567
-0.47786265
-0.4734724
-0.4686823
-0.46343525
-0.45764888
-0.45124959
-0.44421355
-0.43660699
-0.42842811
-0.41960953
-0.41015981
-0.40016246
-0.3896851
-0.37878225
-0.36751898
-0.35594427
-0.34410417
-0.33202898
-0.33196744
-0.34368848
-0.35548588
-0.36720464
-0.37869627
-0.38986351
-0.40062593
-0.41094154
-0.42072142
-0.42989568
-0.43841708
-0.44629526
-0.45347123
-0.45998352
-0.4658818
-0.47121409
-0.47604893
-0.48043834
-0.48434379
-0.4875426
-0.48880613
-0.48642993
-0.48028445
-0.46724372
-0.44720194
-0.43470302
-0.45549704
-0.49846654
-0.54670261
-0.53259538
-0.48918602
-0.44887907
-0.43257725
-0.44595744
-0.46675593
-0.48045292
-0.48720728
-0.48997093
-0.48885313
-0.48567922
-0.48162927
-0.47707853
-0.47206822
-0.46652843
-0.4603884
-0.45362008
-0.44619448
-0.43811149
-0.42940861
-0.42014471
-0.41030552
-0.39995155
-0.3891968
-0.37802478
-0.36648507
-0.35464693
-0.34260051
-0.33042855
-0.35284685
-0.36508544
-0.37711077
-0.38886703
-0.40028096
-0.41129851
-0.42187375
-0.43202901
-0.44165685
-0.45070121
-0.45914729
-0.46696095
-0.47411709
-0.4806039
-0.48643233
-0.49158941
-0.49614551
-0.50015131
-0.50354758
-0.50596912
-0.50640036
-0.50348606
-0.49785394
-0.48637264
-0.46822901
-0.45169636
-0.46051372
-0.49112632
-0.52274524
-0.53640913
-0.51529653
-0.4976351
-0.49971156
-0.51811404
-0.53312383
-0.54133395
-0.54541625
-0.54777138
-0.54750738
-0.54564334
-0.54286623
-0.53941836
-0.5353417
-0.53063036
-0.52524126
-0.51917662
-0.5124378
-0.5050415
-0.49700651
-0.48833546
-0.47906876
-0.46925089
-0.45892725
-0.4481485
-0.43695846
-0.42541864
-0.41365172
-0.40165682
-0.46303656
-0.47505341
-0.48681117
-0.49826709
-0.5093548
-0.52001766
-0.53021243
-0.539883
-0.54899859
-0.55751427
-0.56538653
-0.57261654
-0.5791849
-0.58506988
-0.59026001
-0.5947546
-0.59858626
-0.60175531
-0.60426239
-0.60600266
-0.6065813
-0.60521052
-0.60223304
-0.59531099
-0.58155944
-0.5582472
-0.55010767
-0.54343247
-0.54102435
-0.55343856
-0.57468521
-0.60851847
-0.62843601
-0.65380759
-0.66496484
-0.67047576
-0.67222812
-0.6724332
-0.67135815
-0.66956954
-0.66716383
-0.66411272
-0.66037259
-0.65593403
-0.65078282
-0.64492261
-0.63836993
-0.63115075
-0.62328649
-0.61478292
-0.60567644
-0.59601048
-0.58581517
-0.57513867
-0.56402616
-0.55253735
-0.54072164
-0.52862977
-1.5334873
-1.5942518
-1.6515264
-1.7047334
-1.7533609
-1.797015
-1.8350989
-1.8668576
-1.8912954
-1.907519
-1.9151092
-1.9133818
-1.9014797
-1.8788453
-1.8451797
-1.800534
-1.7453976
-1.6807543
-1.6080844
-1.5293039
-1.4466319
-1.3623426
-1.2787718
-1.1980935
-1.121981
-1.0516388
-0.98779156
-0.93072572
-0.88036476
-0.83636095
-0.79819166
-0.76524378