/*--------------------------------*- C++ -*----------------------------------*\
| =========                 |                                                 |
| \\      /  F ield         | OpenFOAM: The Open Source CFD Toolbox           |
|  \\    /   O peration     | Version:  v2012                                 |
|   \\  /    A nd           | Website:  www.openfoam.com                      |
|    \\/     M anipulation  |                                                 |
\*---------------------------------------------------------------------------*/
FoamFile
{
    version     2.0;
    format      ascii;
    class       volScalarField;
    location    "158";
    object      k;
}
// * * * * * * * * * * * * * * * * * * * * * * * * * * * * * * * * * * * * * //

dimensions      [0 2 -2 0 0 0 0];


internalField   nonuniform List<scalar> 
15162
(
0.23560607
0.23023332
0.22504761
0.22003298
0.21519507
0.21052322
0.20600935
0.2016441
0.19741877
0.19332522
0.18935601
0.18550429
0.18176372
0.17812838
0.1745928
0.17115181
0.16780057
0.16453453
0.16135016
0.15824275
0.15520918
0.15224494
0.14934632
0.14650962
0.1437312
0.14100757
0.13833592
0.13571523
0.13315307
0.13064687
0.12824351
0.12590971
0.12372037
0.12158619
0.11959913
0.12057871
0.12572741
0.12893998
0.1345605
0.1381763
0.14438449
0.14890489
0.15497801
0.15878475
0.16320363
0.16518723
0.16778954
0.16828983
0.16988768
0.16974405
0.17062945
0.16890582
0.16669565
0.15960265
0.15059135
0.14049361
0.13651753
0.14479999
0.16427352
0.18137592
0.19311619
0.19886455
0.20161559
0.20265912
0.20285526
0.20320725
0.20307871
0.20297448
0.20290178
0.20284219
0.20262319
0.20233676
0.20192788
0.2014458
0.20097442
0.20044997
0.20009601
0.19993455
0.20017679
0.19983746
0.19985769
0.20003837
0.20034723
0.20068504
0.20105886
0.20143575
0.20183334
0.20219854
0.20257009
0.20290152
0.20322341
0.20348251
0.20374968
0.20397675
0.20415619
0.20430555
0.20449818
0.20470579
0.20488806
0.20507643
0.20529053
0.20550042
0.20569879
0.20588659
0.2060544
0.20625677
0.20635585
0.20657737
0.20683606
0.20727433
0.20733135
0.20806165
0.20893733
0.21004037
0.21043343
0.20989011
0.20696434
0.20082671
0.19019243
0.17416156
0.15382725
0.13313979
0.13454563
0.15480038
0.17455966
0.19026175
0.2007145
0.20686381
0.20961065
0.21024128
0.20974224
0.20880745
0.20775317
0.20710757
0.20688121
0.20754014
0.20865808
0.20962631
0.21014561
0.20956442
0.20697331
0.20096855
0.19077109
0.1754924
0.15651783
0.13753352
0.14043903
0.15837944
0.1766806
0.19128475
0.20123169
0.2070783
0.20956021
0.2100469
0.20952258
0.2084755
0.20733026
0.20662623
0.20654629
0.20725817
0.2083473
0.20943216
0.21006671
0.20970664
0.20737161
0.20179507
0.19216626
0.17822422
0.16093904
0.14443404
0.14780169
0.16342558
0.17994639
0.19328284
0.20240115
0.20769976
0.20978378
0.2100202
0.2092995
0.20818814
0.20705992
0.20630127
0.20610705
0.2068404
0.20805302
0.20919429
0.21003899
0.20999752
0.20810017
0.20310736
0.19442184
0.18192651
0.16638392
0.15195949
0.15646285
0.16955265
0.1838939
0.1957948
0.20396422
0.20854015
0.21012924
0.21002694
0.20904354
0.20790058
0.20672548
0.20593941
0.20575205
0.20649798
0.20775844
0.20903433
0.2101468
0.21039174
0.20894414
0.20472623
0.19708328
0.1859728
0.17289103
0.16102932
0.1648316
0.17554551
0.18774675
0.19820533
0.20538877
0.20925227
0.21050085
0.21005376
0.20887541
0.20753137
0.20627651
0.20557494
0.20532789
0.20604708
0.20729274
0.20866996
0.20994597
0.2104807
0.20950172
0.20584349
0.19914294
0.18937969
0.17789963
0.16804112
0.17035707
0.17969079
0.19066702
0.19999632
0.2063671
0.20966353
0.21048586
0.20983267
0.20855612
0.20709534
0.20585705
0.20517119
0.20499055
0.20574773
0.20699419
0.20842743
0.20977282
0.21049431
0.20984302
0.20681089
0.20076309
0.19174988
0.18116381
0.17227568
0.17306318
0.18207907
0.19254658
0.20123629
0.20714699
0.21000283
0.21051633
0.20966531
0.20823496
0.20676916
0.2055131
0.20474509
0.20455197
0.20539835
0.20659527
0.20803391
0.20945701
0.21042159
0.20997496
0.20731039
0.20167078
0.19327911
0.18309589
0.17415073
0.17438963
0.18334714
0.19346229
0.20187686
0.20736424
0.20999645
0.21037304
0.20935931
0.20796
0.20647289
0.2052616
0.20443496
0.20429052
0.20509991
0.20640379
0.20784978
0.20931358
0.21024554
0.20988718
0.20734227
0.20207609
0.19365216
0.18379817
0.17500358
0.17370708
0.18277352
0.19270974
0.20109309
0.20652108
0.20927311
0.20978943
0.20891147
0.20751513
0.20617041
0.20487293
0.20403605
0.20373486
0.20455732
0.20591651
0.20725049
0.20840494
0.20904649
0.20817461
0.20507437
0.19908219
0.19029103
0.18046271
0.17153701
0.16534068
0.17547737
0.18632468
0.19576125
0.20251295
0.20638636
0.20784836
0.20769451
0.20669489
0.20553295
0.20430454
0.20348959
0.20314104
0.20387699
0.2050947
0.20623427
0.20697047
0.20661209
0.20437673
0.19947625
0.19138107
0.18053299
0.16857059
0.15721532
0.1481461
0.16107998
0.17500907
0.18723668
0.19672126
0.20252666
0.20544126
0.20599865
0.20551892
0.20448794
0.20341661
0.20281895
0.20238391
0.20296255
0.2039192
0.2047903
0.20522426
0.20449109
0.20131096
0.19506202
0.18522977
0.17249763
0.15809247
0.1444504
0.15172203
0.16344264
0.17594365
0.18710285
0.19584442
0.20129735
0.2039939
0.20464676
0.20427288
0.2034134
0.20252955
0.20203649
0.20160128
0.20212454
0.20293844
0.20369534
0.20416869
0.20373556
0.20187319
0.19801681
0.19192598
0.18419623
0.17585916
0.16844847
0.18367881
0.18778331
0.19232436
0.19676796
0.20039984
0.20269155
0.20369344
0.20370586
0.20311527
0.20234815
0.20161112
0.20116007
0.20078247
0.20125373
0.20186137
0.20252231
0.20313601
0.203434
0.20320179
0.20210342
0.20019194
0.19796103
0.19575698
0.19387941
0.19930758
0.20013303
0.20105135
0.20205588
0.20285894
0.20326332
0.20317213
0.20267108
0.20207117
0.2014058
0.20079445
0.20040105
0.20017222
0.20055228
0.20108309
0.20165097
0.20226651
0.2027915
0.20310598
0.20314309
0.20286983
0.20245933
0.2021391
0.2017715
0.20265903
0.2027916
0.20284905
0.20299787
0.20293698
0.20276258
0.20236043
0.20184598
0.20121874
0.20072016
0.20024914
0.19993232
0.19982119
0.20010471
0.2005313
0.2010525
0.20155199
0.2020169
0.20243671
0.20268368
0.20288163
0.2029056
0.20291497
0.20286297
0.20442499
0.2044511
0.20628829
0.20816543
0.21008046
0.2120163
0.21395027
0.21586308
0.21774959
0.21960649
0.22143383
0.22323385
0.22501094
0.2267703
0.22851599
0.23025188
0.23198198
0.23370985
0.2354376
0.23716857
0.23890562
0.2406509
0.2424062
0.24417297
0.24595303
0.24774779
0.24955884
0.25138743
0.25323485
0.25510231
0.25699066
0.2589007
0.26083298
0.2672904
0.26527061
0.26327227
0.26129704
0.25934595
0.2574195
0.25551783
0.2536408
0.25178804
0.24995902
0.24815302
0.24636917
0.24460644
0.24286364
0.24113934
0.23943191
0.23773944
0.23605974
0.23439027
0.23272819
0.2310702
0.22941269
0.22775148
0.22608219
0.22439991
0.2226998
0.22097723
0.21922929
0.21746191
0.21567423
0.21390527
0.21213676
0.21041888
0.20872814
0.20882794
0.21054922
0.21230677
0.21409708
0.21590358
0.21771387
0.21950657
0.22127511
0.22301735
0.22473604
0.22643539
0.22812035
0.22979578
0.23146628
0.233136
0.23480878
0.23648798
0.23817659
0.23987713
0.24159191
0.24332289
0.2450718
0.24684011
0.24862911
0.25043988
0.25227331
0.25413016
0.25601109
0.25791651
0.2598466
0.26180128
0.26378015
0.2657822
0.26780582
0.26896367
0.26693086
0.2649196
0.26293146
0.26096737
0.25902763
0.2571122
0.25522087
0.25335311
0.25150819
0.2496853
0.24788353
0.24610181
0.24433878
0.24259299
0.24086276
0.23914616
0.23744093
0.23574466
0.23405441
0.23236687
0.2306784
0.22898494
0.22728205
0.22556504
0.22382912
0.22207025
0.22028511
0.21847474
0.21664712
0.21482125
0.21302094
0.2112601
0.20954957
0.21046512
0.21220123
0.21398716
0.21581796
0.21768126
0.2195519
0.22140703
0.22323427
0.22503416
0.22681097
0.22856871
0.23031241
0.23204636
0.23377484
0.23550175
0.23723065
0.2389647
0.24070672
0.24245909
0.24422399
0.24600331
0.24779868
0.24961152
0.25144318
0.25329477
0.25516724
0.25706145
0.25897823
0.26091819
0.2628817
0.26486893
0.26687969
0.26891322
0.27096803
0.27401979
0.27191362
0.26982808
0.2677646
0.26572378
0.26370567
0.26170995
0.2597361
0.25778339
0.25585097
0.25393797
0.25204341
0.25016619
0.24830506
0.24645869
0.24462559
0.24280402
0.24099189
0.2391871
0.23738708
0.23558901
0.23378942
0.2319849
0.23017152
0.22834605
0.22650268
0.22463724
0.22274709
0.22083608
0.21891279
0.21700122
0.21512993
0.21331372
0.21156318
0.21202234
0.21385493
0.21574866
0.21770277
0.21970622
0.22173136
0.22375043
0.22574867
0.2277258
0.22968572
0.23162991
0.23356273
0.23548807
0.23740848
0.23932792
0.24124985
0.24317725
0.24511186
0.24705551
0.24901024
0.25097783
0.25295937
0.25495602
0.25696901
0.25899942
0.26104824
0.26311609
0.2652039
0.26731251
0.26944258
0.27159445
0.27376823
0.27596346
0.27817881
0.2831546
0.28073807
0.27834204
0.27596815
0.27361696
0.27128835
0.26898185
0.26669686
0.26443266
0.26218845
0.25996346
0.25775689
0.25556788
0.25339535
0.25123833
0.24909561
0.24696589
0.24484763
0.24273918
0.24063882
0.23854437
0.23645327
0.23436262
0.23226944
0.23017178
0.22806406
0.22594333
0.2238089
0.22166669
0.21952736
0.21741804
0.2153709
0.21340284
0.21152137
0.20869329
0.21067757
0.2127569
0.21492877
0.21717881
0.2194693
0.22177366
0.22407846
0.22638093
0.22867885
0.23097492
0.23327322
0.23557666
0.23788797
0.24020944
0.24254404
0.24489373
0.24725905
0.24964147
0.25204228
0.25446297
0.25690364
0.25936563
0.26185017
0.26435806
0.26689001
0.26944666
0.27202896
0.27463773
0.27727289
0.27993505
0.2826244
0.28534007
0.28808003
0.29133001
0.28814019
0.2849828
0.28186119
0.27877692
0.27573035
0.2727213
0.26974926
0.26681343
0.26391281
0.26104694
0.25821494
0.25541598
0.25264886
0.24991296
0.2472072
0.24453023
0.24188057
0.23925735
0.2366592
0.23408429
0.23153021
0.22899533
0.22647703
0.2239726
0.22147866
0.21899365
0.21651759
0.2140557
0.21162511
0.20926141
0.2069957
0.20483917
0.20275802
0.19211551
0.19425028
0.19648071
0.19883845
0.20131881
0.20387402
0.20647362
0.20910069
0.21175236
0.21442461
0.21711982
0.21984185
0.22259519
0.22538466
0.22820489
0.23106079
0.23395631
0.23689511
0.23987276
0.24289285
0.24595948
0.24907172
0.25223068
0.25543827
0.25869666
0.26200818
0.26536973
0.26878415
0.27225297
0.275777
0.27935636
0.28299028
0.28667659
0.2904121
0.28253101
0.27826732
0.27407054
0.26994713
0.26590045
0.26193102
0.25803862
0.254222
0.25047977
0.24680989
0.24321083
0.23968142
0.23622006
0.23282403
0.22949168
0.22622142
0.22301093
0.21985745
0.21675925
0.2137141
0.21072304
0.20777963
0.20488035
0.20202441
0.19920953
0.19643233
0.19369059
0.19098319
0.18831644
0.1857091
0.18319822
0.18082745
0.17860814
0.17647227
0.15579578
0.15792661
0.16011064
0.16245865
0.16495849
0.16756301
0.17023614
0.17294995
0.17570656
0.17850927
0.18136076
0.18426779
0.18723426
0.1902579
0.1933426
0.19649037
0.19970348
0.20298783
0.2063372
0.20976188
0.21327162
0.21685603
0.22052343
0.22428186
0.22813472
0.23208043
0.23612205
0.24026203
0.24450343
0.24884843
0.25329818
0.25785094
0.26250425
0.26725153
0.25592877
0.25396505
0.25202527
0.25010951
0.24821775
0.24634981
0.24450542
0.24268413
0.2408854
0.23910851
0.23735262
0.23561662
0.23389924
0.23219891
0.23051384
0.22884183
0.22718044
0.22552669
0.2238774
0.22222873
0.22057697
0.21891747
0.2172452
0.21555484
0.21384204
0.21210372
0.21034544
0.20856568
0.20680389
0.20504002
0.20332339
0.20163167
0.20135119
0.20136477
0.20156069
0.20185216
0.20220368
0.20256535
0.2029418
0.20334888
0.20372222
0.20410112
0.20443755
0.2047628
0.20502524
0.20528988
0.20550988
0.20569556
0.20584783
0.20603998
0.20623954
0.20642822
0.20661562
0.20682969
0.20703747
0.20723679
0.20742279
0.20759609
0.2077797
0.20790003
0.20809648
0.2083451
0.21008326
0.20984981
0.20967567
0.20954505
0.20937815
0.20920656
0.20902242
0.2088215
0.20861082
0.20840257
0.2082114
0.20802431
0.20783169
0.20764033
0.20748582
0.20729433
0.20708025
0.20681873
0.20655344
0.20622314
0.20587569
0.20549429
0.20510692
0.20469431
0.20431562
0.20395585
0.20359608
0.20330717
0.2031055
0.20309447
0.20486411
0.204884
0.20508434
0.20537726
0.20573445
0.20610615
0.20649066
0.20690754
0.20730748
0.20769295
0.20804953
0.20838615
0.20865173
0.20891349
0.20912426
0.20931815
0.20947134
0.20966405
0.20985406
0.21003571
0.21023142
0.21043229
0.21064663
0.21084614
0.21102884
0.21119549
0.21135122
0.21148528
0.21164325
0.21185751
0.21365513
0.21346265
0.2133217
0.21318848
0.21303836
0.21286988
0.21269338
0.21249241
0.21228352
0.21208154
0.21188926
0.21170834
0.21152048
0.21132712
0.21116934
0.21097838
0.21076652
0.21050869
0.21023839
0.20990166
0.20953607
0.20914723
0.20873379
0.20831295
0.20791686
0.20753907
0.20718502
0.20688983
0.20669089
0.20665525
0.20845419
0.20851217
0.20871438
0.20900962
0.20936179
0.20974198
0.21014935
0.21057498
0.21100126
0.21139289
0.21176727
0.21210328
0.21237809
0.2126316
0.21284572
0.21303259
0.21319472
0.21338804
0.21357579
0.21375663
0.21394426
0.21414913
0.21435109
0.21455385
0.21472461
0.21489606
0.21504416
0.21517447
0.21529947
0.21546887
0.2172811
0.2171338
0.21701689
0.21689149
0.21674248
0.21657456
0.2164026
0.21620378
0.21600257
0.21580044
0.2156106
0.21542846
0.21524077
0.21505167
0.21488548
0.21469884
0.21448617
0.21423781
0.21395825
0.21362017
0.21324361
0.212843
0.21240811
0.21197911
0.21156441
0.21117968
0.21082798
0.21053336
0.21032898
0.21025988
0.21204083
0.21212385
0.21232852
0.21262108
0.2129699
0.21336151
0.21378296
0.21421591
0.21465621
0.21506808
0.21544542
0.21578611
0.2160692
0.21631386
0.21652289
0.21671094
0.21688038
0.21706636
0.21725218
0.2174365
0.21763019
0.21782874
0.21803072
0.21822508
0.21839873
0.21856323
0.21871428
0.2188347
0.21894721
0.21907656
0.22084438
0.2207288
0.22062312
0.22050194
0.22035099
0.22018958
0.22001389
0.21982138
0.21962272
0.21942308
0.21923039
0.21904221
0.21885717
0.21867402
0.21850195
0.21831309
0.21810656
0.21786519
0.21757924
0.2172382
0.21685513
0.21643746
0.21599301
0.21555416
0.21512609
0.21472878
0.21438238
0.21409265
0.21388698
0.21379749
0.21552655
0.215621
0.21582663
0.21611386
0.2164587
0.21685938
0.21729242
0.21773746
0.21818768
0.21860807
0.21899721
0.21933776
0.21962669
0.2198652
0.2200695
0.2202593
0.22043368
0.22061457
0.22079845
0.22099094
0.22118183
0.22138339
0.22157847
0.22177007
0.22194791
0.22210675
0.22225633
0.2223805
0.22248069
0.22258629
0.2243024
0.22420744
0.22410835
0.22398455
0.22383612
0.22367556
0.22349749
0.22330788
0.22311238
0.22291234
0.22271954
0.22252658
0.22234223
0.22216124
0.22198677
0.22179753
0.22159514
0.22135513
0.22106707
0.22072352
0.22033226
0.21990554
0.2194521
0.21899945
0.21856253
0.218161
0.21781656
0.21753411
0.21733112
0.21723318
0.21891683
0.2190197
0.21921992
0.21949757
0.21984188
0.22024338
0.22068296
0.22114249
0.22159854
0.22203199
0.22242414
0.22277153
0.22305767
0.22330087
0.22350262
0.22369037
0.22386366
0.22404613
0.22423171
0.22442406
0.22461855
0.2248174
0.22501392
0.22520167
0.22537921
0.2255424
0.22568977
0.22581382
0.2259124
0.22599937
0.22768017
0.22760056
0.22750213
0.22737778
0.227231
0.22706569
0.22688916
0.22670061
0.22650408
0.22630622
0.22610997
0.22591822
0.22573133
0.22554879
0.22537506
0.22518843
0.22498566
0.22474206
0.22445532
0.22410673
0.22371173
0.22327345
0.22281486
0.22235035
0.22190884
0.22150577
0.22116367
0.22088972
0.22069239
0.22058612
0.22224564
0.22235458
0.22254899
0.22281947
0.22315896
0.22356341
0.22400686
0.22447489
0.2249361
0.2253783
0.22577668
0.22612586
0.22641353
0.22665639
0.22686063
0.2270469
0.22722181
0.22740376
0.22759201
0.22778322
0.22798111
0.22817826
0.22837437
0.22856459
0.22874075
0.22890777
0.22905515
0.22917904
0.22927747
0.22935152
0.23101678
0.23094695
0.2308491
0.23072459
0.23057659
0.2304094
0.23023206
0.23004105
0.22984567
0.22964748
0.22944877
0.22925716
0.22906827
0.2288868
0.22871069
0.22852453
0.22831897
0.22807643
0.22778767
0.22743784
0.22703649
0.22659155
0.22612644
0.22565617
0.22521089
0.22480707
0.22446893
0.22420164
0.22401022
0.22390144
0.22555612
0.22566482
0.22585299
0.22611729
0.22645389
0.22685643
0.22730297
0.22777492
0.22824351
0.22869083
0.2290949
0.22944529
0.2297358
0.22997848
0.23018509
0.23037118
0.23054857
0.23072994
0.23091909
0.2311115
0.23131062
0.23151044
0.23170557
0.23189701
0.2320755
0.23224289
0.23239147
0.23251696
0.23261428
0.23268138
0.23434852
0.23428386
0.23418722
0.23406041
0.23391094
0.23374321
0.23356366
0.23337214
0.23317607
0.2329757
0.23277628
0.23258258
0.23239291
0.23221143
0.23203269
0.231846
0.23163913
0.23139521
0.23110367
0.23075222
0.23034558
0.2298962
0.22942456
0.22895147
0.22850423
0.22810344
0.22776873
0.22750754
0.22732234
0.22721438
0.22887906
0.22898643
0.2291687
0.22942681
0.22975918
0.23015796
0.23060522
0.23107913
0.23155324
0.23200463
0.23241368
0.23276624
0.23305904
0.2333044
0.23351166
0.23369919
0.23387931
0.23406112
0.2342513
0.23444626
0.23464597
0.23484699
0.23504398
0.23523574
0.23541631
0.23558457
0.23573489
0.23586311
0.2359594
0.23602228
0.23770519
0.23764397
0.23754736
0.23741837
0.23726696
0.23709778
0.23691646
0.2367244
0.23652646
0.23632483
0.2361247
0.23592867
0.23573813
0.23555524
0.23537408
0.23518583
0.23497734
0.23473098
0.23443638
0.2340823
0.23367128
0.23321807
0.23274188
0.23226755
0.23182076
0.23142431
0.23109457
0.23083962
0.23066006
0.23055368
0.23224052
0.23234601
0.23252289
0.23277469
0.23310156
0.23349542
0.23394128
0.23441568
0.23489359
0.23534856
0.23576138
0.23611736
0.23641378
0.23666125
0.23687115
0.23706033
0.23724244
0.23742661
0.23761753
0.23781467
0.23801541
0.23821754
0.23841627
0.23860878
0.23879073
0.23896101
0.23911358
0.23924316
0.2393402
0.23940028
0.24110957
0.24105025
0.24095292
0.24082274
0.24066908
0.24049795
0.24031519
0.24012213
0.2399226
0.23971993
0.23951839
0.23932056
0.23912905
0.23894368
0.23876061
0.23857019
0.23835872
0.23810998
0.23781164
0.23745372
0.23703921
0.23658222
0.23610319
0.23562874
0.23518446
0.23479317
0.23446959
0.23422086
0.2340465
0.23394215
0.23566034
0.23576358
0.23593544
0.23618113
0.23650127
0.23688981
0.2373322
0.2378064
0.23828632
0.23874525
0.23916159
0.23952147
0.2398218
0.24007204
0.2402852
0.24047704
0.2406612
0.24084774
0.24104001
0.24123835
0.24144068
0.24164388
0.2418442
0.24203788
0.2422215
0.24239335
0.24254801
0.24267881
0.24277639
0.24283532
0.24457915
0.24452053
0.24442274
0.24429126
0.24413565
0.2439631
0.24377863
0.24358424
0.24338334
0.24317942
0.24297641
0.24277741
0.24258439
0.24239689
0.24221133
0.24201796
0.24180312
0.24155122
0.24124879
0.24088682
0.24046859
0.24000779
0.23952711
0.23905348
0.23861314
0.23822768
0.23791088
0.2376683
0.23749886
0.23739677
0.23915277
0.23925372
0.23942085
0.23966034
0.23997378
0.24035604
0.24079413
0.24126698
0.24174826
0.24221088
0.24263107
0.24299523
0.24329988
0.24355364
0.24377022
0.24396523
0.24415225
0.24434072
0.24453449
0.2447342
0.24493782
0.24514249
0.24534396
0.24553904
0.24572431
0.24589755
0.24605401
0.24618616
0.24628421
0.24634269
0.24812708
0.24806869
0.24797038
0.24783761
0.24768038
0.24750647
0.24732045
0.24712474
0.2469226
0.24671732
0.24651307
0.24631265
0.2461181
0.2459286
0.24574011
0.2455434
0.24532494
0.24506918
0.24476221
0.2443958
0.24397346
0.24350921
0.24302744
0.24255554
0.24211985
0.24174078
0.24143077
0.24119428
0.2410294
0.24092963
0.24272821
0.24282682
0.24298954
0.24322312
0.24352972
0.2439056
0.24433878
0.24480963
0.24529183
0.2457576
0.24618214
0.2465509
0.24686029
0.24711821
0.24733865
0.24753711
0.2477271
0.24791766
0.24811302
0.24831417
0.24851905
0.24872489
0.24892767
0.249124
0.24931073
0.24948527
0.2496432
0.24977652
0.2498751
0.24993348
0.25176278
0.25170438
0.25160555
0.2514717
0.25131316
0.25113802
0.25095063
0.2507537
0.25055029
0.2503439
0.25013838
0.24993654
0.24974032
0.24954861
0.24935713
0.24915687
0.24893437
0.2486742
0.2483623
0.24799111
0.24756433
0.24709708
0.24661452
0.24614484
0.24571413
0.2453415
0.24503817
0.24480742
0.24464676
0.2445493
0.24639341
0.24648979
0.24664854
0.24687659
0.24717678
0.24754625
0.24797448
0.24844292
0.2489258
0.2493945
0.24982351
0.25019719
0.25051166
0.25077416
0.25099878
0.2512009
0.25139385
0.25158679
0.25178392
0.25198646
0.2521926
0.25239956
0.25260358
0.2528011
0.25298913
0.25316483
0.2533239
0.25345823
0.25355732
0.25361574
0.25549291
0.25543448
0.25533518
0.25520044
0.25504088
0.25486462
0.25467601
0.25447788
0.25427326
0.25406573
0.25385893
0.25365567
0.25345758
0.25326341
0.25306891
0.2528649
0.25263816
0.25237324
0.25205623
0.25168003
0.25124879
0.25077868
0.25029553
0.24982833
0.24940253
0.24903613
0.24873892
0.24851339
0.24835644
0.24826106
0.25015254
0.250247
0.25040233
0.25062555
0.25091995
0.25128345
0.2517069
0.25217286
0.25265624
0.25312771
0.25356112
0.25393983
0.25425933
0.25452668
0.25475555
0.2549615
0.25515761
0.25535303
0.25555213
0.25575617
0.25596366
0.25617178
0.25637699
0.25657573
0.25676489
0.25694168
0.25710169
0.25723678
0.25733625
0.2573947
0.25932124
0.25926281
0.25916319
0.2590278
0.25886739
0.25869012
0.2585004
0.25830108
0.25809527
0.25788648
0.25767828
0.2574734
0.25727323
0.25707648
0.25687871
0.25667083
0.25643979
0.25617011
0.25584815
0.25546707
0.25503161
0.25455884
0.25407532
0.25361055
0.25318933
0.25282852
0.25253668
0.25231555
0.25216169
0.25206804
0.25400758
0.25410052
0.25425311
0.2544724
0.25476194
0.2551203
0.25553941
0.25600301
0.25648657
0.25696052
0.25739784
0.25778111
0.25810538
0.2583773
0.25861047
0.25882031
0.2590198
0.25921796
0.25941929
0.2596251
0.25983407
0.26004358
0.26025001
0.26044993
0.26064018
0.26081789
0.26097866
0.2611143
0.26121403
0.26127242
0.26324773
0.26318941
0.26308963
0.26295378
0.2627927
0.26261457
0.26242379
0.26222326
0.26201615
0.26180588
0.26159604
0.26138919
0.26118659
0.26098692
0.26078565
0.26057384
0.26033863
0.26006463
0.25973832
0.25935314
0.25891425
0.25843935
0.25795586
0.25749346
0.25707632
0.25672017
0.25643264
0.25621494
0.25606344
0.25597111
0.26204687
0.26232271
0.26255986
0.26277363
0.26297676
0.26317804
0.26338203
0.26359003
0.26380085
0.26401196
0.26421981
0.26442097
0.26461228
0.2647908
0.26495216
0.26508817
0.26518795
0.26524618
0.26726609
0.26720801
0.26710826
0.26697214
0.26681055
0.26663166
0.26643982
0.26777274
0.26574913
0.26374709
0.26176826
0.2598136
0.25788356
0.25597819
0.25409729
0.25224042
0.25040694
0.24859607
0.24680686
0.2450382
0.24328876
0.24155701
0.23984112
0.23813898
0.2364483
0.23476662
0.23309076
0.2314172
0.22974176
0.22805994
0.22636716
0.22465857
0.22292933
0.22117634
0.2193949
0.21758483
0.21575282
0.21391632
0.21209766
0.21031728
0.20859378
0.20922711
0.20900866
0.20836416
0.20811448
0.20879126
0.21051633
0.2107391
0.21095194
0.2127508
0.2146069
0.21647425
0.21629237
0.21557408
0.21372252
0.2118856
0.21009499
0.20986644
0.21168845
0.21234937
0.21254937
0.21441724
0.21425252
0.21356715
0.21545124
0.21616553
0.21727642
0.21740596
0.21753957
0.21565033
0.21378836
0.21198947
0.21027661
0.21124601
0.21181304
0.21121222
0.21114046
0.21167748
0.21112856
0.2101027
0.20991698
0.21100759
0.21156967
0.2111319
0.21302432
0.21303975
0.21310641
0.21364005
0.21301246
0.21486626
0.21679481
0.21875102
0.21957476
0.21754813
0.21556189
0.21511851
0.21722675
0.21938204
0.21936035
0.21952825
0.21865144
0.2166817
0.21549604
0.21361079
0.21180624
0.2128777
0.21474207
0.2146206
0.21343705
0.21162224
0.21275497
0.21339062
0.21350649
0.21544551
0.21506897
0.21507869
0.2153568
0.21741754
0.21747418
0.21719736
0.21725055
0.21945731
0.21951552
0.21858085
0.21659263
0.21535168
0.21522074
0.21410401
0.21341832
0.21156311
0.20975619
0.20802557
0.2087059
0.20851157
0.20779218
0.20760976
0.20829684
0.20817933
0.20743387
0.20920625
0.20939587
0.20955335
0.21138909
0.21206028
0.21222714
0.2104189
0.21024294
0.21004075
0.21188817
0.2112393
0.21105564
0.2117479
0.20992195
0.21105898
0.21120881
0.21133441
0.21147439
0.20977834
0.21090859
0.21079132
0.20962946
0.2094931
0.21068123
0.21053114
0.20934638
0.20920429
0.20795813
0.20725178
0.20706517
0.20773995
0.20751574
0.20683056
0.20666096
0.20732463
0.20907862
0.20927645
0.20949394
0.20970635
0.2090317
0.21087198
0.21155745
0.2113496
0.21064689
0.20882938
0.20861248
0.21045487
0.21113991
0.21094257
0.21024671
0.20842564
0.20821838
0.20647817
0.20719948
0.2069817
0.20624246
0.20605722
0.20685765
0.20671805
0.20593198
0.20771664
0.20783304
0.20802136
0.20987839
0.21006844
0.21076259
0.20893734
0.2087365
0.21059607
0.21252656
0.21268294
0.21287285
0.2130572
0.2132752
0.21347043
0.21367208
0.21380047
0.21397997
0.21327872
0.21517074
0.21530965
0.21602852
0.21590399
0.21572552
0.21498743
0.21311569
0.21294952
0.21484253
0.21560032
0.2167978
0.21693791
0.21706138
0.21718118
0.21851133
0.21651494
0.21454108
0.21331154
0.21319119
0.21445577
0.21256595
0.21266189
0.21338625
0.21158285
0.21127586
0.21136763
0.21155571
0.21159578
0.21157727
0.21171583
0.21156767
0.21343659
0.21345068
0.21341785
0.21539976
0.21536347
0.21520513
0.21317009
0.21328783
0.21536165
0.21755295
0.21738204
0.21743618
0.21954138
0.21960616
0.21978082
0.21955149
0.21844375
0.21644454
0.21512498
0.21499632
0.21306924
0.21434606
0.21245883
0.21232292
0.2142466
0.2129236
0.21485973
0.21625434
0.21634535
0.21836367
0.21827099
0.21958273
0.21958473
0.21749459
0.21747064
0.2154335
0.21554574
0.21349439
0.2136514
0.21573937
0.21542853
0.21749793
0.21793874
0.21773272
0.21996511
0.22017318
0.2203414
0.21958263
0.21814953
0.21664423
0.21539641
0.21462886
0.21275384
0.21253893
0.21443268
0.21520059
0.21498607
0.21421888
0.21234055
0.21214357
0.21404233
0.21480028
0.21606257
0.21628222
0.21646334
0.21452439
0.214707
0.21278417
0.21093751
0.21226498
0.21051066
0.21036355
0.20900579
0.20876357
0.21017079
0.21005498
0.20855961
0.21031946
0.21053217
0.21074544
0.21260038
0.21402635
0.21417107
0.21615629
0.2160296
0.21804394
0.21955439
0.2174736
0.21750116
0.21544828
0.21348633
0.21166103
0.21197245
0.21209232
0.21160644
0.21150692
0.21208467
0.21208662
0.21139504
0.21325622
0.21337858
0.21345079
0.21214277
0.21196776
0.21388761
0.21240303
0.21219334
0.21373502
0.21184104
0.21167747
0.2101607
0.20844309
0.20991594
0.20973541
0.20823757
0.20807024
0.20955045
0.20947257
0.20794539
0.20971326
0.20984438
0.21000403
0.2118794
0.21203006
0.21360423
0.21342894
0.21153054
0.21304439
0.21314378
0.21131015
0.21210012
0.21212395
0.21120265
0.21102808
0.21205141
0.2120147
0.21093457
0.21284097
0.21293053
0.2113647
0.2133015
0.21172573
0.21041682
0.20968306
0.20957113
0.21028802
0.20846261
0.20859829
0.20824906
0.20751406
0.20577403
0.20654218
0.20632991
0.20553309
0.20524053
0.20602123
0.2057662
0.20499088
0.20678021
0.20702475
0.20731931
0.20917213
0.20936563
0.21010632
0.20991032
0.20807676
0.20777658
0.20963851
0.20888176
0.20863727
0.20935511
0.20751853
0.20873415
0.20911167
0.20935462
0.20957923
0.20785376
0.20935773
0.20903989
0.2076287
0.20737548
0.20877569
0.20822178
0.20699949
0.20656183
0.20534538
0.20464159
0.20431004
0.20488065
0.20442465
0.20387367
0.20351043
0.20397987
0.20571663
0.20618088
0.20663576
0.20710335
0.20641529
0.20826351
0.20896659
0.20849844
0.20789361
0.20607244
0.20563541
0.20747128
0.2080417
0.20756178
0.20706154
0.20525608
0.20477128
0.20306181
0.20355317
0.20304718
0.20262777
0.20227119
0.2026897
0.2022171
0.20186478
0.20358875
0.20400292
0.20437709
0.20618188
0.20658486
0.20706288
0.20526572
0.20476137
0.20657222
0.20843982
0.20895577
0.20946978
0.20995867
0.21042042
0.21090164
0.2112923
0.21156793
0.21184449
0.21202908
0.21221561
0.21233535
0.21157389
0.21178566
0.21197176
0.21386808
0.21461237
0.21445976
0.21368575
0.21347313
0.21426284
0.21414636
0.21334639
0.2114621
0.21126683
0.21316298
0.21396305
0.21378176
0.2129521
0.21106659
0.21077469
0.21267551
0.21350886
0.21323391
0.21241797
0.21053075
0.2101624
0.21205916
0.21283957
0.21235347
0.21165002
0.20977366
0.2093599
0.21124589
0.211888
0.21137804
0.21078135
0.20892238
0.20844128
0.21030633
0.21085149
0.21032009
0.20986396
0.20802589
0.20761131
0.20579406
0.20616832
0.20438934
0.20391156
0.20570033
0.20538303
0.2072179
0.20907115
0.20946809
0.20986913
0.20801861
0.20754807
0.20940761
0.2099567
0.210513
0.21106104
0.21170706
0.21233481
0.2129477
0.21354698
0.21412682
0.21457002
0.21491857
0.21514942
0.21533029
0.21548254
0.21562014
0.2157675
0.21590164
0.21396684
0.21413038
0.21434211
0.21589655
0.21790948
0.21771584
0.21572476
0.21731373
0.21743176
0.21536906
0.21542227
0.21609228
0.21594732
0.21388871
0.21402234
0.21404407
0.21614295
0.21610175
0.2152521
0.21513826
0.21612841
0.21404632
0.21403021
0.21344994
0.21329173
0.21299885
0.21267111
0.21227458
0.211821
0.21140968
0.21104347
0.21070963
0.21059247
0.21051059
0.2085551
0.20257111
0.19221117
0.17646008
0.17735447
0.19269405
0.20280395
0.20864087
0.20875086
0.2030924
0.19326613
0.17856805
0.18073898
0.17948321
0.17858033
0.19432993
0.20466337
0.20686667
0.21262675
0.21485742
0.21714493
0.21158054
0.2091926
0.19901473
0.19660196
0.18087231
0.18334814
0.18593479
0.20154953
0.2020906
0.21190981
0.21726665
0.21496361
0.21272179
0.20709313
0.20487059
0.20521824
0.2075144
0.21287189
0.21516432
0.21750548
0.21240434
0.20993928
0.20947605
0.19954178
0.19706534
0.19477429
0.1954327
0.19780621
0.18312555
0.1818144
0.18440329
0.1870544
0.1883794
0.20292481
0.20034959
0.18574298
0.1671001
0.16500763
0.16324961
0.16085043
0.15865117
0.1566942
0.13639292
0.12251215
0.12460634
0.12686993
0.12925494
0.13172345
0.13425056
0.13684145
0.13949712
0.14220705
0.14497113
0.14778929
0.15066559
0.1536072
0.15660656
0.15968001
0.1628267
0.16605489
0.16937417
0.17278222
0.17628372
0.17988529
0.18359255
0.18741067
0.19134719
0.19540961
0.19960494
0.203941
0.20842798
0.2130753
0.21789395
0.22289457
0.22808731
0.23347698
0.23907487
0.24602295
0.24029963
0.23479442
0.2294982
0.22439863
0.21948094
0.21474537
0.21017445
0.20575393
0.20147728
0.19734333
0.19334146
0.18946292
0.18569859
0.18204396
0.17849209
0.17503463
0.17166196
0.16837416
0.16516634
0.16203501
0.15897648
0.15599342
0.15307882
0.15022503
0.1474235
0.14468398
0.1419997
0.13937272
0.13680939
0.13431043
0.13191161
0.12963328
0.12756893
0.13095561
0.13313161
0.13549272
0.13795995
0.14052538
0.14314315
0.14582551
0.14857458
0.15137842
0.15423757
0.15715103
0.16012377
0.16316279
0.16626168
0.16943722
0.17268825
0.17602426
0.1794545