/*--------------------------------*- C++ -*----------------------------------*\
| =========                 |                                                 |
| \\      /  F ield         | OpenFOAM: The Open Source CFD Toolbox           |
|  \\    /   O peration     | Version:  v2012                                 |
|   \\  /    A nd           | Website:  www.openfoam.com                      |
|    \\/     M anipulation  |                                                 |
\*---------------------------------------------------------------------------*/
FoamFile
{
    version     2.0;
    format      ascii;
    class       volScalarField;
    location    "158";
    object      nut;
}
// * * * * * * * * * * * * * * * * * * * * * * * * * * * * * * * * * * * * * //

dimensions      [0 2 -1 0 0 0 0];


internalField   nonuniform List<scalar> 
15162
(
0.010730542
0.010697921
0.010664839
0.01063072
0.010595568
0.01055923
0.010521722
0.010483052
0.010443244
0.010402315
0.010360287
0.010317172
0.010272982
0.010227719
0.010181383
0.010133969
0.010085468
0.010035863
0.0099851779
0.00993335
0.0098803963
0.0098262303
0.009770797
0.0097140259
0.0096558258
0.0095960907
0.0095346873
0.0094715111
0.0094061175
0.0093383187
0.009267739
0.0091940273
0.0091194196
0.0090404046
0.0089600052
0.0091039362
0.0096362577
0.010036343
0.010692666
0.011281588
0.012165329
0.012926827
0.013808344
0.014442146
0.015089383
0.015444512
0.015815438
0.015924503
0.016109272
0.01605268
0.016007469
0.015547884
0.014838363
0.013469518
0.011743869
0.0099220422
0.0090022912
0.0097821923
0.012334672
0.01612643
0.02076985
0.024597348
0.027186226
0.028582791
0.029247978
0.029551168
0.029557328
0.029587978
0.02965097
0.029726135
0.029776581
0.029804528
0.029796903
0.029762566
0.029713993
0.029651304
0.029604471
0.029589067
0.029629766
0.029574229
0.029566608
0.029585424
0.029613268
0.02964362
0.029670145
0.029693943
0.029718356
0.02973922
0.029764699
0.029788741
0.029815908
0.029836557
0.029860868
0.029879966
0.029892005
0.029898931
0.029912439
0.029927657
0.029938318
0.029949611
0.029965052
0.029980218
0.029994523
0.030007475
0.030019572
0.03003643
0.030043063
0.03006728
0.030106453
0.03017069
0.030139474
0.03015283
0.030107631
0.029944232
0.029459897
0.028486848
0.026760212
0.024169325
0.020881817
0.017096893
0.013521162
0.010616648
0.010779931
0.013609203
0.017153215
0.020860084
0.024149236
0.026725199
0.02844761
0.029426953
0.029900369
0.030084053
0.03010544
0.030103517
0.030070551
0.03007592
0.030064636
0.029887189
0.029414881
0.028439304
0.026716323
0.024148495
0.020884102
0.017234524
0.013790628
0.011113608
0.011471346
0.014030099
0.017389822
0.020947039
0.02417587
0.026729378
0.028448924
0.02941242
0.029883166
0.030046698
0.030052934
0.030039437
0.030038926
0.030055489
0.03004238
0.029887615
0.02943615
0.02849395
0.02679451
0.024281611
0.021106557
0.017645524
0.014399943
0.011978955
0.012529958
0.014858016
0.018004949
0.021363061
0.024448926
0.026899529
0.028548687
0.029460375
0.029891205
0.030036828
0.030040948
0.030015318
0.030000847
0.030024519
0.030037541
0.02990303
0.029501147
0.028634019
0.027038604
0.02466513
0.021674474
0.018439867
0.015424884
0.0132286
0.013995043
0.016058282
0.018906858
0.022019779
0.024904943
0.02719135
0.028716413
0.029542787
0.029911364
0.030037651
0.030026143
0.029991834
0.029980459
0.030010745
0.030040627
0.029942559
0.029605377
0.028818049
0.027342073
0.025132019
0.022347141
0.01938612
0.016716917
0.014761095
0.015417543
0.017284415
0.019822627
0.022637766
0.025333752
0.027478243
0.028900658
0.029639813
0.029952862
0.030031518
0.029997367
0.02997157
0.029951961
0.029983144
0.03002101
0.029956409
0.029672449
0.028967872
0.027608582
0.025517196
0.022888849
0.020188107
0.017758352
0.015963427
0.016358798
0.018101315
0.02046978
0.023126794
0.025703549
0.027726729
0.029035797
0.029702562
0.029972443
0.030015971
0.029974761
0.029946651
0.029936977
0.029978082
0.0300242
0.029983345
0.029735395
0.029096883
0.027837439
0.025870369
0.023338518
0.020703858
0.018361242
0.016659722
0.016803585
0.01853
0.020877293
0.023491146
0.025997723
0.027923564
0.029143953
0.029751185
0.029978806
0.030010262
0.029960146
0.029916128
0.029902364
0.029958534
0.029999015
0.029962862
0.029734608
0.029146394
0.027945669
0.026055319
0.023585553
0.020994023
0.018664405
0.016938252
0.016922667
0.018648495
0.020966955
0.023552879
0.025999067
0.027891985
0.029100877
0.029702491
0.029949718
0.029988069
0.0299506
0.029899867
0.029891415
0.029934232
0.029974539
0.029906943
0.029628666
0.028957335
0.02768611
0.02575601
0.02332477
0.020772624
0.018517829
0.016837238
0.016392168
0.018036552
0.020211906
0.022692586
0.025161788
0.027221814
0.028649247
0.029440183
0.029800631
0.029923258
0.029903778
0.029864859
0.029830926
0.029856176
0.029857399
0.029674019
0.029169448
0.028170513
0.026472346
0.024175832
0.021603324
0.019196226
0.017160821
0.015633169
0.01427396
0.01578008
0.017755086
0.020104659
0.022820313
0.025476301
0.027546739
0.028828689
0.029490705
0.029768553
0.029819479
0.029808094
0.02977321
0.029762025
0.029681431
0.029333963
0.028502463
0.0269292
0.024440931
0.021374861
0.018457526
0.016047147
0.014060939
0.012553652
0.01076615
0.012362769
0.014531504
0.017123648
0.020263286
0.023660603
0.026481981
0.028249973
0.029198303
0.02959797
0.029713453
0.029749894
0.029717126
0.02968396
0.029560792
0.029148868
0.028192872
0.026370133
0.023449724
0.019900621
0.0166014
0.013817254
0.011516978
0.0098485454
0.010607023
0.012211266
0.014471865
0.017294072
0.020641466
0.024012065
0.026700926
0.028363476
0.029221602
0.029573972
0.029674827
0.029705595
0.02968373
0.02968042
0.029619572
0.029355006
0.028699629
0.027378477
0.025212758
0.022391834
0.019357413
0.016641275
0.014508164
0.013061854
0.016831159
0.018149002
0.020056699
0.022302445
0.024620242
0.026666159
0.028183829
0.029079612
0.029501679
0.029651291
0.029668709
0.0296593
0.02963893
0.029671736
0.029681078
0.029613569
0.029386012
0.028867159
0.027950498
0.026657496
0.025133022
0.023591155
0.022235083
0.021284685
0.024927981
0.025517932
0.026336786
0.027254894
0.028132681
0.028854726
0.02934725
0.029596172
0.029690298
0.029687325
0.02964351
0.029608209
0.02959438
0.029635962
0.029687699
0.0297187
0.029710648
0.029615074
0.029390551
0.029035911
0.028576733
0.028084247
0.027647809
0.027333635
0.028655647
0.028811451
0.029024546
0.029275308
0.029488082
0.029650102
0.029731356
0.029746482
0.029706218
0.029662054
0.029607885
0.029570661
0.029564141
0.029598654
0.029652054
0.029711691
0.02975448
0.029771458
0.029756254
0.029689296
0.029596595
0.029474606
0.029367534
0.029286244
0.029416706
0.029379054
0.029533491
0.029682027
0.029822454
0.02995515
0.030079417
0.030195407
0.03030388
0.030405312
0.030500126
0.030588802
0.030671994
0.030750404
0.030824587
0.030895058
0.030962311
0.031026769
0.031088709
0.03114847
0.031206336
0.031262501
0.031317118
0.031370306
0.031422173
0.031472819
0.031522308
0.031570702
0.031618058
0.031664421
0.03170984
0.031754349
0.031797968
0.032022154
0.031987519
0.031952856
0.031918251
0.03188376
0.031849413
0.031815222
0.03178118
0.031747267
0.031713448
0.031679671
0.031645867
0.031611947
0.031577799
0.031543277
0.031508208
0.031472371
0.031435504
0.031397292
0.031357366
0.031315286
0.031270555
0.031222584
0.031170734
0.03111427
0.031052428
0.030984364
0.030909253
0.030826345
0.030734869
0.03063473
0.030525067
0.030405951
0.03028024
0.030253935
0.030385761
0.030509867
0.030624127
0.030728664
0.030824071
0.030910557
0.030988911
0.031059926
0.031124496
0.031183432
0.031237531
0.031287526
0.031334088
0.031377805
0.031419206
0.031458741
0.031496795
0.031533688
0.031569696
0.031605046
0.031639926
0.031674486
0.031708847
0.031743106
0.031777336
0.031811595
0.031845925
0.031880351
0.031914884
0.03194952
0.031984233
0.032018971
0.032053654
0.032122452
0.032087327
0.032052057
0.03201672
0.031981361
0.031945995
0.031910622
0.031875224
0.031839769
0.031804211
0.03176849
0.03173253
0.031696236
0.031659486
0.031622133
0.031583996
0.031544856
0.031504448
0.031462467
0.031418537
0.031372227
0.031323036
0.031270395
0.031213666
0.031152145
0.031085071
0.031011676
0.030931043
0.030842377
0.030744958
0.030638527
0.030523007
0.03039842
0.03026779
0.030223243
0.030357069
0.030485098
0.030604681
0.030715991
0.030819151
0.030914032
0.031000728
0.0310802
0.031153428
0.031221134
0.031284086
0.031342917
0.031398232
0.031450568
0.031500403
0.031548143
0.031594144
0.031638693
0.031682043
0.0317244
0.031765932
0.031806778
0.031847053
0.031886851
0.031926245
0.031965294
0.032004049
0.032042544
0.032080803
0.032118835
0.032156629
0.032194151
0.03223133
0.032359759
0.032315983
0.032271512
0.032226422
0.032180748
0.032134501
0.032087676
0.032040257
0.031992216
0.031943513
0.031894103
0.03184393
0.03179292
0.031740973
0.031687983
0.03163381
0.031578281
0.031521169
0.031462237
0.031401179
0.031337645
0.031271189
0.031201359
0.031127618
0.031049505
0.03096619
0.030876979
0.03078118
0.030678489
0.030568282
0.03045076
0.030326435
0.030195666
0.030061112
0.029576063
0.029716696
0.029855442
0.029989295
0.030118114
0.030241353
0.030358283
0.030468714
0.030573408
0.030673168
0.030768308
0.030859436
0.030947069
0.031031558
0.031113403
0.031193025
0.031270768
0.031346826
0.031421388
0.03149465
0.031566767
0.031637816
0.031707866
0.031776985
0.031845218
0.031912594
0.031979102
0.032044756
0.032109556
0.032173492
0.03223653
0.032298634
0.032359745
0.032419765
0.032181512
0.032090787
0.031998918
0.031906072
0.03181238
0.031717942
0.031622843
0.031527159
0.031430948
0.031334251
0.031237105
0.031139525
0.031041515
0.030943039
0.030844063
0.030744516
0.030644305
0.030543295
0.03044133
0.030338226
0.030233737
0.030127557
0.030019329
0.029908668
0.02979529
0.02967849
0.029557792
0.029432805
0.029303491
0.029169586
0.029031818
0.02889134
0.028749166
0.02860773
0.026889565
0.027033894
0.027177511
0.027320652
0.027463232
0.027603692
0.027741309
0.027875945
0.028007931
0.028137404
0.028264818
0.028390721
0.028515509
0.028639549
0.028763147
0.028886639
0.029010274
0.029134153
0.029258443
0.029383275
0.029508781
0.029634968
0.029761916
0.029889688
0.030018293
0.030147718
0.030277916
0.030408849
0.030540438
0.030672531
0.030805006
0.030937717
0.03107047
0.031203049
0.02889088
0.028728317
0.028567462
0.028408452
0.028251425
0.0280965
0.027943779
0.027793336
0.027645195
0.027499342
0.027355775
0.027214437
0.027075256
0.026938113
0.026802925
0.026669561
0.026537856
0.026407625
0.026278723
0.026150956
0.026024079
0.025897784
0.025771819
0.025645825
0.02551941
0.025392084
0.025263455
0.025133174
0.025001164
0.02486805
0.024735469
0.02460402
0.024472302
0.024330332
0.020995009
0.021110489
0.02122071
0.02133154
0.021444988
0.021558855
0.021671805
0.021783148
0.021893127
0.02200183
0.022109695
0.022217227
0.022324901
0.022433177
0.022541773
0.022651109
0.02276153
0.022873337
0.022986305
0.023100708
0.023216854
0.023334725
0.0234544
0.023576019
0.023699709
0.023825585
0.023953415
0.024083283
0.024215171
0.024348989
0.024484614
0.024621928
0.024760866
0.024901511
0.019916366
0.019848161
0.019777296
0.019704021
0.019628684
0.01955166
0.01947337
0.019394179
0.019314402
0.019234254
0.019153932
0.019073612
0.018993404
0.018913306
0.018833367
0.01875362
0.018674024
0.018594491
0.01851499
0.018435442
0.018355982
0.018276201
0.018195885
0.018114988
0.01803331
0.017950502
0.017866191
0.017779922
0.017691674
0.017602236
0.017513658
0.0174286
0.01734657
0.017257054
0.013601973
0.013681067
0.013747676
0.01381916
0.013894462
0.01397003
0.01404402
0.014115176
0.014184235
0.014251761
0.01431806
0.01438362
0.01444867
0.01451297
0.014576691
0.014639873
0.014702539
0.014764947
0.01482656
0.014887898
0.014949408
0.015010261
0.015070791
0.015131286
0.015191718
0.015251739
0.015311268
0.015370153
0.015428259
0.015485407
0.01554143
0.015596152
0.015649676
0.015702209
0.031539453
0.031500443
0.031461603
0.031422948
0.031384482
0.031346202
0.031308095
0.031270133
0.031232277
0.031194469
0.031156633
0.031118657
0.03108041
0.031041713
0.031002354
0.030962059
0.030920512
0.030877314
0.030832026
0.0307841
0.030732995
0.030678013
0.030618374
0.030553221
0.030481714
0.030402977
0.030316205
0.03022048
0.030115894
0.030001205
0.029876602
0.029744855
0.029697066
0.029691253
0.029710636
0.029737655
0.029768763
0.029794447
0.029818041
0.029844182
0.029866202
0.029892564
0.029917052
0.029944327
0.029965177
0.029988725
0.030006444
0.030019258
0.030026552
0.030039816
0.030053621
0.030065177
0.03007624
0.0300915
0.030106159
0.030120233
0.0301329
0.030145031
0.030159671
0.030167664
0.030189045
0.03022332
0.030357588
0.030327463
0.030309626
0.030300893
0.030288635
0.030277109
0.030264853
0.030250801
0.030235912
0.030221733
0.030210206
0.030199016
0.030186442
0.030173483
0.030165942
0.030152465
0.03013594
0.030113258
0.030092307
0.030064703
0.030038873
0.030012411
0.029988368
0.02996139
0.02993753
0.02991194
0.029880279
0.029853108
0.029833174
0.029837972
0.029969523
0.029966231
0.029985953
0.030013587
0.030044493
0.030071675
0.030096265
0.030123679
0.030149396
0.030176173
0.030203023
0.030231157
0.030251833
0.030274179
0.030289935
0.030303549
0.030310793
0.030323763
0.030335783
0.030346026
0.030358104
0.030370997
0.030386244
0.030399895
0.030411807
0.030422498
0.030432977
0.030442019
0.030457061
0.030483925
0.030599374
0.030575935
0.030563427
0.030554537
0.030544949
0.030534049
0.030523149
0.030509414
0.030495148
0.030482227
0.030470793
0.030460771
0.030449224
0.030436348
0.03042853
0.030415591
0.030399958
0.030378596
0.030357572
0.030329876
0.030302077
0.030275129
0.030247669
0.030219902
0.03019374
0.030165858
0.030135712
0.030108035
0.03008887
0.030089798
0.030199064
0.030200886
0.030220002
0.030247305
0.03027692
0.030304993
0.030332677
0.030360928
0.030389986
0.030416995
0.030445662
0.030472775
0.030494065
0.030514383
0.030530043
0.030542138
0.030550469
0.030563157
0.030574541
0.030584445
0.030595078
0.030608299
0.0306214
0.030635275
0.030645264
0.030656533
0.030665804
0.030674356
0.030684769
0.030705212
0.030801195
0.030783919
0.030774432
0.030766483
0.030757081
0.030746402
0.030736295
0.030723127
0.030710255
0.030697566
0.030686704
0.030676711
0.030665471
0.030653578
0.030644791
0.030632965
0.030617841
0.030598694
0.030577142
0.030550224
0.030521701
0.030493735
0.030463711
0.030435151
0.030406502
0.030377875
0.030348538
0.030321695
0.030302755
0.030299537
0.030389762
0.030394847
0.030413483
0.03043973
0.030468477
0.030498031
0.030527582
0.030556571
0.030587102
0.030616332
0.030644508
0.030671299
0.030692907
0.030711107
0.030725381
0.030737174
0.030746287
0.030757569
0.030768408
0.030778622
0.030789945
0.030801994
0.030814857
0.030827251
0.030837524
0.03084764
0.030857319
0.030864624
0.03087361
0.030888306
0.030966719
0.030954121
0.030946092
0.030938655
0.030929034
0.030919435
0.030908959
0.030896952
0.03088469
0.030872593
0.030861516
0.03085084
0.030840229
0.0308295
0.030820158
0.030808483
0.030794882
0.030777559
0.030756001
0.030729666
0.030701129
0.030671438
0.030640572
0.030610861
0.030580418
0.0305501
0.030521821
0.030496189
0.030477613
0.030471609
0.030545718
0.030552455
0.030570903
0.030596042
0.030624024
0.030654782
0.030685885
0.030716358
0.030747791
0.0307775
0.030806432
0.030832197
0.030853716
0.030870236
0.030883212
0.03089479
0.030904311
0.030914583
0.03092492
0.030936113
0.030946841
0.030959105
0.030970747
0.030982509
0.030993195
0.031002349
0.03101171
0.031019546
0.031026757
0.0310378
0.031102079
0.031092658
0.03108566
0.031077933
0.03106881
0.031059491
0.031048869
0.031037496
0.031025895
0.031013949
0.031003035
0.030991872
0.03098157
0.030971407
0.030962024
0.030950753
0.030938346
0.030922008
0.030901077
0.03087539
0.030846625
0.030816396
0.030784756
0.030753323
0.030721708
0.03069086
0.030662977
0.030638613
0.030620625
0.030613374
0.030674743
0.030682705
0.030700235
0.030723855
0.030751692
0.030782519
0.030814472
0.030846753
0.030878516
0.030909307
0.030937731
0.030963451
0.030983651
0.031000039
0.031012062
0.031022903
0.031031977
0.031042227
0.031052604
0.031063592
0.031074661
0.031086346
0.031097996
0.03110901
0.031119465
0.03112907
0.031137968
0.031145667
0.031152527
0.031160731
0.031214282
0.031207183
0.03120041
0.031192736
0.031183993
0.031174176
0.031163949
0.031152915
0.031141354
0.031129892
0.031118659
0.03110784
0.031097374
0.031087229
0.031078234
0.031067762
0.031055889
0.031039843
0.031020021
0.030994642
0.030966288
0.030935209
0.030903333
0.030870478
0.030838288
0.030807253
0.030779752
0.030756702
0.030739631
0.030731189
0.030783444
0.030792249
0.030808864
0.030831386
0.030858502
0.030889717
0.030922143
0.030955364
0.030987362
0.031018596
0.031046943
0.0310719
0.031091387
0.031106939
0.031118726
0.031128941
0.031137961
0.031147913
0.031158474
0.031169139
0.031180519
0.031191801
0.031203217
0.031214394
0.031224489
0.03123446
0.031243215
0.03125076
0.03125747
0.031263734
0.031309593
0.031303969
0.031297397
0.031289826
0.031281056
0.031271142
0.031260965
0.031249766
0.03123853
0.031227184
0.031215771
0.031205128
0.031194571
0.031184792
0.031175742
0.031165744
0.031154063
0.031138943
0.03111977
0.031095226
0.03106695
0.031035723
0.031003437
0.030970028
0.030937385
0.030906274
0.030879365
0.030857328
0.030841175
0.030832409
0.030878475
0.030887213
0.030902873
0.030924455
0.030951129
0.030982045
0.03101482
0.031048336
0.031080845
0.031112012
0.031140178
0.031164296
0.031183242
0.031197997
0.031209537
0.031219332
0.03122842
0.031238083
0.031248586
0.031259262
0.031270653
0.031282142
0.031293266
0.031304439
0.031314695
0.031324559
0.031333341
0.031340984
0.031347427
0.031352627
0.031393281
0.031388459
0.031382163
0.031374401
0.031365565
0.03135573
0.031345409
0.031334306
0.031323135
0.031311649
0.031300293
0.031289523
0.031279036
0.03126946
0.031260322
0.031250639
0.031239341
0.031224798
0.031206175
0.031182416
0.031154386
0.031123326
0.031090662
0.031057116
0.031024293
0.030993638
0.030967252
0.030946138
0.030930928
0.030922314
0.030964319
0.030972832
0.0309876
0.03100825
0.031034283
0.031064637
0.031097409
0.031130936
0.031163669
0.031194608
0.031222478
0.031245884
0.031264216
0.031278575
0.031289655
0.031299262
0.03130845
0.031317972
0.031328441
0.031339301
0.03135062
0.031362113
0.031373331
0.031384384
0.031394765
0.031404597
0.031413481
0.031421371
0.031427566
0.031432106
0.031469431
0.031465154
0.031458969
0.031451037
0.031442075
0.031432193
0.031421789
0.031410776
0.031399512
0.031388015
0.031376718
0.031365794
0.031355365
0.031345802
0.031336605
0.031327086
0.031316111
0.031301987
0.031283876
0.03126077
0.031233122
0.031202334
0.031169592
0.031136145
0.031103498
0.031073493
0.031047857
0.031027683
0.031013326
0.031004973
0.031044568
0.031052774
0.031066726
0.031086423
0.031111625
0.031141238
0.03117369
0.031207002
0.031239697
0.031270319
0.031297722
0.031320573
0.03133847
0.031352377
0.031363275
0.031372735
0.03138193
0.031391558
0.031401952
0.031412939
0.031424239
0.031435722
0.031447011
0.031458005
0.031468415
0.031478366
0.031487415
0.031495365
0.031501553
0.031505641
0.03154098
0.031537029
0.031530855
0.031522888
0.031513763
0.031503775
0.031493335
0.031482351
0.031471038
0.031459565
0.031448241
0.031437246
0.031426863
0.031417181
0.03140799
0.031398545
0.0313877
0.031373982
0.031356286
0.031333684
0.031306541
0.031276063
0.031243498
0.031210337
0.031178173
0.031148957
0.031124253
0.031105023
0.031091458
0.031083433
0.031121777
0.031129624
0.031142805
0.031161567
0.031185751
0.031214536
0.03124636
0.031279321
0.031311714
0.03134203
0.031368928
0.031391284
0.031408792
0.031422357
0.031433167
0.031442619
0.031451825
0.031461553
0.031471944
0.03148292
0.031494263
0.031505724
0.031517056
0.03152804
0.031538513
0.031548522
0.031557708
0.031565695
0.031571851
0.031575713
0.031610015
0.031606228
0.031600096
0.031592083
0.031582843
0.031572818
0.031562316
0.031551325
0.031540002
0.031528534
0.031517188
0.031506215
0.031495821
0.031486075
0.03147682
0.031467345
0.031456565
0.031443128
0.031425789
0.031403662
0.031377006
0.031346869
0.031314672
0.031281965
0.031250515
0.031222213
0.031198545
0.031180265
0.031167457
0.031159797
0.031197635
0.031205109
0.031217552
0.031235351
0.031258492
0.031286282
0.03131732
0.031349734
0.031381702
0.031411645
0.031438065
0.031459979
0.031477168
0.031490509
0.031501271
0.031510782
0.031520092
0.031529855
0.031540247
0.031551219
0.031562555
0.031574031
0.031585339
0.031596334
0.031606857
0.031616895
0.031626173
0.03163421
0.031640322
0.031644057
0.031677948
0.03167426
0.031668165
0.031660113
0.031650807
0.031640762
0.031630227
0.031619239
0.031607936
0.031596474
0.03158515
0.031574184
0.031563792
0.031554011
0.031544648
0.031535093
0.031524328
0.031511058
0.031494
0.031472289
0.031446086
0.031416366
0.031384651
0.031352564
0.031321973
0.031294706
0.031272111
0.031254789
0.031242703
0.031235422
0.031273239
0.031280326
0.031292062
0.031308914
0.031330957
0.031357685
0.031387801
0.031419532
0.031450972
0.031480453
0.031506441
0.031527965
0.031544912
0.031558136
0.031568919
0.031578524
0.031587939
0.031597739
0.031608128
0.031619086
0.031630393
0.03164183
0.031653122
0.031664097
0.031674637
0.031684683
0.031694005
0.031702065
0.031708142
0.031711795
0.031745666
0.031742048
0.031735989
0.031727928
0.031718602
0.03170856
0.031698024
0.031687066
0.031675792
0.031664384
0.031653099
0.03164216
0.031631773
0.031621951
0.031612489
0.031602829
0.031592016
0.031578819
0.031561965
0.031540613
0.031514836
0.031485604
0.03145446
0.031423116
0.031393489
0.03136732
0.031345825
0.031329442
0.031318046
0.031311153
0.031349202
0.031355907
0.031366976
0.031382896
0.031403848
0.03142945
0.03145857
0.031489502
0.031520332
0.031549305
0.031574873
0.031596065
0.031612842
0.031626028
0.031636883
0.031646601
0.031656107
0.031665953
0.031676336
0.031687251
0.031698507
0.031709882
0.031721131
0.031732066
0.03174259
0.031752621
0.031761941
0.031769998
0.031776035
0.031779622
0.031813698
0.031810143
0.031804132
0.03179609
0.031786784
0.031776767
0.031766264
0.031755355
0.031744138
0.031732801
0.031721578
0.03171069
0.031700314
0.031690448
0.031680898
0.03167112
0.031660219
0.031647027
0.031630319
0.031609273
0.031583913
0.031555209
0.031524709
0.031494207
0.03146561
0.031440578
0.031420166
0.031404693
0.031393942
0.031387419
0.031425819
0.031432168
0.031442615
0.031457654
0.031477536
0.031501996
0.03153006
0.031560115
0.031590268
0.031618696
0.031643847
0.031664754
0.031681403
0.031694611
0.031705561
0.031715402
0.031724996
0.031734877
0.031745244
0.031756102
0.03176729
0.031778585
0.031789763
0.031800642
0.031811116
0.031821112
0.031830399
0.031838418
0.031844398
0.03184792
0.031882293
0.031878807
0.031872862
0.031864872
0.031855612
0.031845646
0.031835205
0.031824364
0.031813229
0.031801977
0.031790829
0.031780002
0.031769644
0.03175975
0.031750112
0.031740211
0.031729207
0.031715982
0.031699385
0.031678615
0.031653678
0.031625535
0.031595747
0.031566151
0.031538628
0.031514733
0.03149537
0.031480748
0.031470591
0.03146441
0.031503186
0.031509208
0.031519089
0.031533311
0.031552171
0.031575507
0.031602485
0.031631609
0.031661015
0.031688861
0.031713577
0.031734208
0.031750755
0.031763996
0.031775054
0.031785014
0.031794693
0.031804601
0.031814949
0.031825746
0.031836851
0.03184806
0.031859147
0.031869945
0.031880347
0.031890277
0.031899503
0.031907457
0.031913363
0.03191681
0.031951441
0.031948035
0.031942175
0.031934261
0.031925075
0.031915188
0.031904831
0.03189408
0.031883042
0.03187188
0.031860817
0.031850049
0.031839712
0.03182979
0.03182007
0.031810053
0.031798947
0.031785694
0.031769203
0.03174872
0.031724237
0.031696704
0.031667696
0.031639059
0.031612628
0.03158984
0.031571467
0.031557626
0.031548007
0.031542135
0.031820745
0.031834001
0.031845149
0.031855217
0.031864977
0.031874914
0.031885244
0.031895984
0.031907006
0.03191812
0.031929108
0.031939806
0.031950114
0.031959952
0.031969092
0.031976959
0.03198277
0.03198613
0.032020792
0.032017481
0.032011725
0.03200391
0.031994823
0.031985039
0.031974786
0.032051706
0.032017001
0.031982242
0.03194751
0.031912857
0.031878307
0.031843865
0.031809517
0.031775237
0.03174098
0.031706686
0.031672277
0.031637652
0.031602683
0.031567211
0.031531034
0.031493906
0.031455548
0.031415653
0.031373803
0.031329525
0.031282243
0.031231312
0.031176059
0.031115742
0.031049564
0.030976857
0.030896469
0.030807482
0.030709166
0.030601314
0.030483709
0.03035637
0.030221318
0.030223177
0.03019723
0.030191738
0.030162777
0.030174954
0.030316656
0.030338529
0.030360299
0.030490513
0.030612488
0.030723404
0.030703639
0.030688606
0.030579425
0.030459798
0.030330516
0.030305988
0.030440321
0.030452563
0.030470739
0.030593058
0.030579402
0.030565888
0.030679332
0.030694689
0.030676022
0.030685352
0.030698504
0.03058557
0.030464003
0.030334651
0.030200585
0.030018823
0.02954769
0.028567014
0.028556282
0.02953274
0.03000844
0.030182293
0.030165905
0.030002743
0.029528964
0.028564929
0.02870768
0.028700847
0.028710899
0.029690374
0.030158868
0.030294398
0.030424021
0.030545471
0.030095593
0.029966187
0.029831267
0.028856605
0.029001297
0.029142115
0.029129325
0.030085876
0.030534051
0.030413035
0.030571402
0.030448437
0.03031809
0.030148324
0.030284487
0.030278067
0.030435015
0.030303412
0.030142689
0.029671277
0.029676721
0.02981815
0.028846555
0.028854524
0.029814743
0.029954263
0.029955532
0.028990444
0.029001119
0.029142836
0.030088543
0.030531618
0.030409454
0.030561058
0.030555705
0.030570108
0.030555409
0.030433574
0.030301601
0.030161557
0.030176056
0.030162482
0.030139921
0.030127596
0.030147107
0.030148359
0.030117383
0.030263964
0.030276212
0.030284713
0.0304211
0.030437788
0.030447602
0.030315739
0.030304738
0.030291248
0.030428832
0.030413701
0.030402496
0.030426467
0.030292168
0.030296539
0.030295878
0.030293891
0.030296658
0.030160322
0.030005831
0.03001163
0.030156371
0.030156871
0.030022851
0.030031654
0.030157935
0.030161017
0.03013422
0.030106979
0.03009665
0.030121566
0.030108325
0.030079205
0.03007189
0.030099932
0.030246295
0.030255548
0.030267567
0.030279139
0.03025487
0.030392139
0.030417468
0.030406813
0.030376213
0.030242206
0.030227732
0.030365695
0.030396163
0.030387176
0.030352649
0.030217785
0.030204236
0.030061964
0.030100777
0.030085714
0.030042923
0.030030526
0.030082643
0.030074331
0.030026793
0.030176398
0.030178705
0.030191399
0.030332102
0.030343703
0.030379805
0.030244686
0.030232455
0.030372972
0.030504619
0.030509787
0.030518499
0.030525365
0.030537057
0.030545615
0.03055608
0.030556612
0.030566587
0.030548128
0.030662567
0.030669767
0.030686808
0.030683155
0.030673496
0.030650273
0.030538749
0.030530303
0.030645061
0.030673463
0.030679743
0.030677282
0.030674995
0.030675378
0.030536038
0.030413323
0.030282513
0.030431057
0.030430842
0.030292096
0.030154507
0.030146064
0.02969017
0.029551173
0.028609181
0.028666178
0.029578107
0.029621928
0.028751363
0.028835164
0.029661968
0.02980984
0.029767488
0.029724549
0.029868563
0.029833929
0.028894683
0.028751195
0.028811436
0.028959373
0.029106901
0.029040705
0.029973876
0.030108252
0.029183191
0.029249783
0.030139304
0.030547846
0.030424798
0.030558858
0.030560313
0.030433235
0.030303346
0.030166087
0.030177197
0.030319886
0.030434595
0.030563145
0.030455683
0.030437679
0.030563489
0.030581484
0.030227909
0.030182739
0.030050211
0.030008092
0.029911743
0.029042332
0.028896592
0.02898324
0.029133816
0.02995576
0.030095714
0.029283271
0.029189808
0.02933345
0.029427787
0.029520898
0.030276125
0.030597682
0.030681825
0.030662882
0.030630481
0.030518249
0.030504097
0.030619279
0.030654382
0.030643414
0.030605741
0.03049272
0.03048156
0.030597742
0.030636437
0.030673448
0.030680328
0.03068096
0.030563868
0.03056518
0.030438369
0.030302811
0.030201623
0.030061339
0.030073826
0.030156559
0.030145767
0.030079758
0.03009591
0.030140028
0.030286771
0.030293505
0.030299598
0.030436648
0.030355628
0.030342005
0.030474896
0.030491404
0.030617354
0.03032244
0.03018999
0.030144046
0.030005829
0.029863518
0.029721204
0.02893641
0.029021291
0.029761739
0.029796323
0.029091392
0.029160222
0.029827564
0.029977016
0.029946359
0.029907307
0.030218065
0.030227064
0.030370235
0.030433195
0.030427229
0.030381783
0.030241963
0.030248491
0.030286431
0.030145956
0.030105642
0.030103301
0.030135277
0.030125145
0.030089983
0.030075964
0.03011382
0.030262362
0.030274554
0.030283367
0.030424417
0.030426404
0.030393376
0.030392624
0.030251445
0.030022219
0.030003924
0.029857546
0.029223036
0.029271258
0.029874039
0.029862631
0.029277119
0.029232563
0.029830688
0.029988033
0.030019711
0.030241218
0.030388252
0.030416678
0.030361688
0.030318547
0.030316914
0.030355174
0.030219607
0.03022725
0.030195653
0.030159236
0.030016326
0.030055887
0.030027818
0.029992248
0.029960054
0.029981506
0.029944379
0.029936815
0.030088488
0.030110596
0.03014264
0.030283395
0.030299592
0.030336304
0.030311027
0.030173798
0.030129124
0.030270953
0.03025243
0.030230544
0.03022974
0.030091581
0.030034471
0.030123314
0.030188422
0.030238654
0.030096561
0.030031669
0.029926495
0.030046298
0.029979972
0.029797398
0.029611677
0.029891673
0.029804144
0.029888208
0.02990223
0.02987767
0.029839244
0.029809622
0.029845031
0.029830993
0.029798834
0.029944828
0.029958415
0.029987657
0.030036697
0.030052003
0.030193213
0.0301792
0.030130422
0.030163339
0.030025945
0.029993559
0.030133546
0.03010115
0.030085504
0.03011247
0.029976954
0.029947322
0.029806904
0.029801033
0.029790592
0.029783546
0.029766064
0.029793593
0.029764023
0.02973191
0.0298751
0.029909868
0.029930084
0.030065915
0.030084399
0.030077119
0.029943364
0.02993342
0.030069531
0.030195498
0.030206587
0.030216817
0.030233388
0.030263057
0.030313284
0.03036373
0.030403599
0.030444012
0.030467357
0.030486693
0.030491751
0.030447037
0.030462847
0.030473704
0.03058961
0.030628185
0.030623662
0.030579469
0.03056379
0.030610205
0.030605726
0.030559994
0.030445423
0.030429967
0.030546575
0.030587201
0.030564657
0.030528339
0.030412971
0.030382286
0.030500458
0.030525293
0.030485862
0.030477249
0.030360734
0.030324757
0.030443217
0.030435421
0.030385064
0.030408356