/*--------------------------------*- C++ -*----------------------------------*\
| =========                 |                                                 |
| \\      /  F ield         | OpenFOAM: The Open Source CFD Toolbox           |
|  \\    /   O peration     | Version:  v2012                                 |
|   \\  /    A nd           | Website:  www.openfoam.com                      |
|    \\/     M anipulation  |                                                 |
\*---------------------------------------------------------------------------*/
FoamFile
{
    version     2.0;
    format      ascii;
    class       volScalarField;
    location    "158";
    object      omega;
}
// * * * * * * * * * * * * * * * * * * * * * * * * * * * * * * * * * * * * * //

dimensions      [0 0 -1 0 0 0 0];


internalField   nonuniform List<scalar> 
15162
(
21.956585
21.521314
21.10183
20.697843
20.309914
19.937365
19.579432
19.235247
18.903971
18.584826
18.277102
17.980149
17.693375
17.416237
17.148241
16.888922
16.637856
16.394657
16.158967
15.930451
15.708801
15.493728
15.284968
15.082276
14.885438
14.694273
14.508701
14.328783
14.156008
13.990406
13.837626
13.694728
13.566693
13.449197
13.34811
13.244679
13.047327
12.847308
12.584373
12.247948
11.868523
11.51906
11.223504
10.99454
10.815792
10.695529
10.609225
10.56798
10.545957
10.574188
10.659365
10.863589
11.2341
11.849173
12.822976
14.159748
15.164753
14.802407
13.318029
11.247122
9.2979096
8.0847961
7.4160934
7.0902496
6.9357021
6.876454
6.8706721
6.8600322
6.8430066
6.823699
6.8047837
6.7887926
6.7768075
6.7684286
6.7636289
6.7602414
6.7589792
6.7570413
6.7559357
6.7571487
6.7595745
6.7613825
6.7654549
6.7699233
6.7764703
6.7837319
6.7915378
6.7990533
6.8057161
6.8113493
6.815939
6.8199059
6.8233007
6.826539
6.8297926
6.8332061
6.8365598
6.8400206
6.8436731
6.847382
6.8509987
6.8545338
6.8578782
6.8611769
6.8640017
6.8668869
6.8686686
6.8705043
6.8701571
6.8700562
6.8790634
6.9002363
6.9396804
7.0143851
7.1430472
7.3679651
7.7340323
8.309157
9.1080402
10.186738
11.376777
12.540662
12.481121
11.374683
10.176498
9.1208524
8.3114223
7.7404028
7.3683046
7.1445142
7.0147041
6.9408018
6.9008516
6.8798465
6.879861
6.9005419
6.940316
7.0139186
7.1441937
7.3688309
7.7470731
8.3221977
9.134752
10.182608
11.349579
12.375236
12.242593
11.288548
10.160001
9.1318275
8.3236587
7.7472174
7.3661911
7.1414353
7.0113918
6.938383
6.8988357
6.8784988
6.8759546
6.8958509
6.9351129
7.0073226
7.1363514
7.3596899
7.739332
8.3106129
9.1045762
10.100251
11.176366
12.057316
11.795865
10.999152
9.9942734
9.0475255
8.2785294
7.7213158
7.3482812
7.1289047
7.002043
6.9310961
6.8925894
6.8731995
6.8700409
6.8890497
6.9264332
6.9957557
7.1196889
7.3338471
7.6964096
8.2345949
8.9700835
9.8659341
10.786721
11.487194
11.179876
10.558579
9.7263068
8.8917696
8.1897084
7.6693563
7.3173916
7.109246
6.9887666
6.9213329
6.8848495
6.8665162
6.8628719
6.8808014
6.9159154
6.9811779
7.0982646
7.3006936
7.6418545
8.146032
8.8191721
9.5930901
10.34228
10.909036
10.691172
10.156289
9.4713357
8.7555164
8.1073178
7.6151985
7.2836006
7.0868787
6.9734711
6.9104522
6.8764872
6.858998
6.8552404
6.8720972
6.9049221
6.9657869
7.0754513
7.2660051
7.5882825
8.0668539
8.7004348
9.3807553
10.017801
10.526632
10.413789
9.9269465
9.3145614
8.6478188
8.0287398
7.5617837
7.2491849
7.0644637
6.9582622
6.899505
6.8676795
6.8512231
6.8474031
6.863272
6.8942449
6.9514402
7.0546505
7.2342562
7.5381583
7.994122
8.6022212
9.2615529
9.866642
10.34085
10.299182
9.8261772
9.2227751
8.5664738
7.9678899
7.5206314
7.2233277
7.0472928
6.9460726
6.8899486
6.8595493
6.8439701
6.840662
6.8560881
6.8867353
6.9430587
7.0442162
7.2194725
7.5136854
7.9565477
8.5506064
9.2063875
9.809897
10.281506
10.305091
9.8317391
9.227009
8.5712182
7.9758341
7.5289172
7.2290961
7.0485441
6.9436379
6.8851679
6.8533385
6.83732
6.8344211
6.8516843
6.8859706
6.9498837
7.0645629
7.2605278
7.5809561
8.0502481
8.6635834
9.3224701
9.9254706
10.393842
10.596956
10.133507
9.5344668
8.8616206
8.2077266
7.6876991
7.3226856
7.0961337
6.9634475
6.8899721
6.8510716
6.8319778
6.8296526
6.8514239
6.8966661
6.9842407
7.1446309
7.4207556
7.8638518
8.4826188
9.2153501
9.9129393
10.515972
10.972632
11.583379
11.120183
10.494158
9.7371086
8.8742405
8.1011117
7.5452981
7.2044382
7.0088148
6.9043648
6.8513783
6.8266557
6.8229472
6.850239
6.9098655
7.030563
7.2614942
7.6724184
8.362068
9.332283
10.368728
11.250161
11.988573
12.523473
13.76036
13.029442
12.043424
10.934392
9.7082604
8.5596575
7.7577755
7.2919948
7.0387284
6.9088503
6.8459431
6.817468
6.810346
6.8374483
6.8982994
7.025669
7.2792961
7.7546474
8.58479
9.8018056
11.157479
12.48422
13.726906
14.667181
14.303922
13.384577
12.157635
10.818901
9.4879125
8.3831755
7.6399559
7.2151511
6.9904752
6.8781225
6.8249616
6.801294
6.7916423
6.8100297
6.8514978
6.9390327
7.1139837
7.4414497
8.0067872
8.8432598
9.9148567
11.068637
12.121394
12.896214
10.913022
10.346757
9.5890339
8.8227083
8.139637
7.6010777
7.227316
7.0051094
6.8848714
6.8242609
6.7954126
6.7823607
6.7742819
6.7826746
6.8010122
6.8388351
6.9126771
7.0472468
7.2700595
7.5814856
7.9652952
8.391324
8.8039688
9.1088692
7.9953359
7.8428392
7.6338606
7.4135634
7.2107932
7.0443685
6.9230381
6.8478817
6.8059663
6.7842355
6.7736394
6.7684287
6.7638593
6.7671932
6.7732795
6.7853227
6.8078793
6.8475771
6.9105876
6.9962705
7.0991261
7.2089998
7.3112159
7.3818025
7.0722196
7.0385766
6.9888791
6.9340984
6.8819999
6.8385121
6.8062966
6.7855414
6.7736235
6.7669004
6.763372
6.7611718
6.7589039
6.7606017
6.7628133
6.766781
6.7738365
6.7855896
6.803165
6.8268268
6.8548978
6.8840819
6.9094997
6.9269031
6.949282
6.959077
6.9848934
7.0131813
7.0443718
7.0777914
7.1128464
7.1488713
7.185535
7.2226357
7.2600957
7.2978945
7.3360389
7.374547
7.4134324
7.4527092
7.4923986
7.5325228
7.5730904
7.614132
7.6556767
7.6977496
7.7403739
7.7835699
7.8273717
7.8718015
7.9168963
7.9626808
8.0091844
8.0564336
8.1044451
8.153236
8.202819
8.3470463
8.2929409
8.239397
8.1864461
8.1341082
8.0823939
8.0313075
7.980849
7.9310147
7.8817989
7.8331944
7.7851926
7.7377847
7.6909616
7.6447141
7.5990331
7.5539096
7.5093352
7.4653021
7.4218029
7.3788309
7.3363804
7.294447
7.2530276
7.212122
7.1717356
7.131895
7.0926751
7.0544174
7.017249
6.9824435
6.9495921
6.920319
6.8932127
6.9025052
6.9292067
6.9586266
6.9911242
7.0261296
7.0631119
7.1013463
7.140461
7.1802279
7.2205518
7.2614005
7.302765
7.3446452
7.3870438
7.4299653
7.4734153
7.5174013
7.561931
7.6070117
7.6526524
7.6988621
7.7456504
7.7930266
7.8410012
7.8895834
7.9387809
7.9886017
8.0390534
8.0901403
8.1418626
8.1942165
8.2471933
8.3007725
8.3549232
8.3730742
8.3188874
8.2652915
8.2123171
8.1599833
8.1082973
8.0572608
8.0068729
7.9571277
7.9080154
7.8595267
7.8116536
7.7643859
7.7177114
7.6716201
7.6261017
7.581146
7.5367431
7.4928853
7.4495641
7.40677
7.3644969
7.3227389
7.2814918
7.2407546
7.2005342
7.1608592
7.1218131
7.0835895
7.0465904
7.0114745
6.9790287
6.9497065
6.9231871
6.9636842
6.9901752
7.0194021
7.0517957
7.0869035
7.1238791
7.1620237
7.2009363
7.2404347
7.2804499
7.3209612
7.361967
7.4034704
7.4454779
7.4879968
7.5310354
7.5746042
7.6187133
7.6633726
7.7085936
7.7543881
7.8007682
7.8477462
7.8953357
7.9435491
7.9923973
8.0418923
8.092046
8.1428674
8.1943614
8.2465299
8.2993676
8.3528594
8.4069764
8.4679181
8.4142148
8.3611849
8.308853
8.2572284
8.2063098
8.1560893
8.1065546
8.0576908
8.0094813
7.9619096
7.9149591
7.8686134
7.8228558
7.7776705
7.7330423
7.6889563
7.6453983
7.6023552
7.5598143
7.5177637
7.476192
7.4350895
7.3944469
7.3542573
7.3145156
7.2752337
7.2364702
7.1984013
7.1614359
7.126299
7.0938088
7.0643818
7.0377696
7.168714
7.1964573
7.2264432
7.2593491
7.2948202
7.3320583
7.3703257
7.4091957
7.4484926
7.4881644
7.5281979
7.5686002
7.6093821
7.6505497
7.6921165
7.7340961
7.776504
7.8193516
7.8626542
7.9064299
7.9506978
7.9954749
8.0407814
8.0866392
8.133071
8.1801008
8.2277509
8.2760468
8.3250141
8.3746764
8.4250522
8.4761549
8.5279864
8.5805312
8.798673
8.7482451
8.6984831
8.6493928
8.6009585
8.553151
8.5059349
8.4592735
8.4131304
8.3674713
8.322265
8.2774829
8.2330996
8.1890907
8.1454357
8.1021152
8.0591123
8.0164117
7.9740005
7.9318685
7.890006
7.8484048
7.8070574
7.7659573
7.7251059
7.68449
7.6441206
7.6040629
7.5645147
7.525899
7.4889571
7.4545139
7.4229228
7.3938535
7.7611258
7.7930902
7.8284175
7.8668978
7.9079844
7.9507227
7.9943473
8.0384167
8.0827437
8.1272189
8.1718169
8.2165305
8.2613521
8.3062753
8.351292
8.3964093
8.4416206
8.4869141
8.5322884
8.5777462
8.6232966
8.668936
8.714682
8.7605523
8.8065652
8.8527435
8.899115
8.9457173
8.992593
9.0397785
9.0873231
9.1352699
9.1836417
9.2324321
10.083805
10.029832
9.9757831
9.921737
9.867712
9.8136906
9.7596427
9.7055374
9.6513492
9.597059
9.5426628
9.4881601
9.4335574
9.3788626
9.3240927
9.2692641
9.2143931
9.1594976
9.1046034
9.0497342
8.9949117
8.9401553
8.8854934
8.8309511
8.7765585
8.722351
8.6683967
8.6148128
8.5618293
8.5099195
8.4599733
8.4130847
8.3702454
8.3335496
9.1505323
9.2016004
9.2589131
9.3213356
9.3876859
9.4566256
9.5272922
9.5991951
9.6720928
9.7457625
9.8201185
9.8951077
9.9707133
10.046935
10.123645
10.20086
10.278585
10.356823
10.435464
10.51452
10.594006
10.673865
10.754088
10.834665
10.915605
10.996926
11.078576
11.160611
11.243075
11.326014
11.409465
11.493425
11.57781
11.662429
14.185872
14.019804
13.857837
13.700104
13.546524
13.396869
13.250846
13.10816
12.968549
12.831789
12.697697
12.566126
12.436953
12.310065
12.185377
12.062814
11.942307
11.823795
11.70723
11.592567
11.479802
11.368864
11.259708
11.152335
11.046754
10.942999
10.84118
10.741509
10.644354
10.550313
10.460306
10.375328
10.296453
10.226095
11.453911
11.543442
11.646379
11.756044
11.872247
11.994463
12.12161
12.252766
12.387453
12.525418
12.666573
12.810947
12.958581
13.109509
13.26382
13.42159
13.582925
13.747955
13.916728
14.089422
14.266225
14.447186
14.632505
14.822392
15.017046
15.216653
15.421457
15.631727
15.847765
16.069867
16.298255
16.532984
16.773782
17.019996
8.1145596
8.0622693
8.0105667
7.9594542
7.9089325
7.8590003
7.8096551
7.7608923
7.7127069
7.6650932
7.6180447
7.5715548
7.5256162
7.480222
7.4353656
7.3910404
7.3472405
7.3039606
7.2611965
7.2189451
7.1772039
7.1359731
7.0952558
7.0550612
7.0154204
6.9764129
6.938383
6.9014681
6.8669352
6.8343929
6.8054389
6.7787073
6.7801711
6.7819557
6.7841259
6.7877632
6.7924783
6.7987618
6.806007
6.8136858
6.8211626
6.8278225
6.8334791
6.8381166
6.8421166
6.8455686
6.8488582
6.8521201
6.855527
6.8588963
6.8623858
6.8660237
6.8697291
6.8733592
6.8769141
6.8803185
6.8835987
6.8865773
6.8893225
6.8914858
6.8931126
6.8935213
6.9202881
6.9194648
6.9177912
6.9154745
6.9127627
6.9097269
6.9064409
6.9030073
6.8994387
6.895785
6.8920881
6.8884465
6.8849351
6.8815498
6.8781482
6.8748718
6.8715378
6.8680288
6.8639948
6.8593109
6.8536421
6.8469772
6.8395492
6.8319362
6.8247318
6.8185432
6.8137275
6.8102514
6.8080418
6.8065776
6.8357482
6.8371627
6.8393473
6.8428097
6.8476591
6.8538302
6.8610062
6.8686012
6.8760077
6.8826803
6.8883678
6.8930921
6.89716
6.9007152
6.9040843
6.9073806
6.910784
6.9141832
6.9177072
6.9213581
6.925051
6.928725
6.9323024
6.9357522
6.9390432
6.9420826
6.9448092
6.9471503
6.9489059
6.9498108
6.9823366
6.981394
6.9796396
6.97731
6.9745856
6.9715576
6.9682647
6.9648147
6.9612227
6.9575474
6.953848
6.9501965
6.9466623
6.9432482
6.9398469
6.9365209
6.9331189
6.9295069
6.9254022
6.9206236
6.9149081
6.9082194
6.9008224
6.893237
6.8860917
6.8799326
6.8750662
6.871582
6.8693472
6.8679505
6.9026705
6.9041738
6.9064977
6.9100246
6.9148972
6.9210371
6.9281502
6.9357227
6.9431181
6.9498282
6.9555812
6.960419
6.9645713
6.968242
6.971681
6.9750385
6.9784433
6.9818718
6.9854126
6.9890635
6.992767
6.9964403
7.0000421
7.0034902
7.0067797
7.0097967
7.0125068
7.0147999
7.016493
7.0173385
7.0543075
7.0534813
7.0518569
7.049603
7.0469133
7.0438994
7.0406209
7.037167
7.0335649
7.0298875
7.0261894
7.022541
7.0189944
7.0155486
7.0121373
7.0087514
7.0052676
7.0015345
6.9973265
6.9924258
6.9866227
6.9798929
6.9724961
6.9649436
6.9578674
6.9517595
6.9468909
6.9433241
6.9409196
6.939376
6.9773772
6.978941
6.9813944
6.9849856
6.9898439
6.995911
7.0029445
7.0104697
7.0178671
7.0246194
7.0304743
7.035441
7.0397113
7.0435057
7.047037
7.0504509
7.0538723
7.0573317
7.0608846
7.0645299
7.0682227
7.0719039
7.0755064
7.0789667
7.0822394
7.0852497
7.0879222
7.0901463
7.0917268
7.0925405
7.1316686
7.1308373
7.1292725
7.1270695
7.124406
7.1213971
7.1181267
7.1146622
7.1110547
7.1073745
7.1036819
7.1000403
7.0964833
7.0930121
7.089579
7.0861356
7.0825586
7.0787027
7.0743671
7.0693315
7.0634253
7.0566454
7.0492485
7.0417542
7.0347661
7.0287424
7.0239053
7.0203084
7.0178387
7.016285
7.0558678
7.0574033
7.059871
7.0634581
7.0682646
7.0742431
7.0811849
7.0886482
7.0960441
7.1028534
7.1088144
7.1139194
7.1183222
7.1222391
7.1258617
7.1293346
7.1327809
7.136262
7.1398229
7.1434616
7.1471537
7.150833
7.154444
7.1579119
7.161182
7.1641911
7.1668519
7.1690444
7.1706073
7.1714584
7.2118136
7.2109448
7.2093805
7.2071895
7.2045285
7.2015205
7.1982489
7.1947775
7.1911666
7.1874865
7.1837979
7.1801595
7.1765966
7.1731077
7.1696467
7.1661433
7.1624753
7.1584979
7.1540247
7.1488498
7.1428319
7.1359916
7.1285963
7.121164
7.1142699
7.1083379
7.1035686
7.0999987
7.0975402
7.0960221
7.1367129
7.1382136
7.1406591
7.1442065
7.1489361
7.15482
7.1616662
7.1690687
7.1764634
7.1833378
7.1894133
7.1946611
7.1992055
7.203245
7.2069578
7.2104913
7.2139673
7.2174631
7.2210274
7.2246654
7.2283509
7.2320303
7.2356405
7.2391139
7.2423871
7.2453948
7.248057
7.2502484
7.2518162
7.2526979
7.2941027
7.2932108
7.2916393
7.2894466
7.2867834
7.2837753
7.2805009
7.2770275
7.273418
7.26974
7.2660576
7.2624207
7.258855
7.255352
7.2518617
7.2482988
7.244541
7.240438
7.235821
7.2304992
7.2243638
7.217454
7.2100592
7.2026857
7.1958872
7.1900527
7.1853625
7.1818402
7.1794094
7.1779233
7.2196482
7.2211217
7.2235377
7.227034
7.2316846
7.2374705
7.2442218
7.251567
7.2589627
7.265909
7.2721068
7.2775035
7.2821945
7.2863612
7.2901645
7.293756
7.2972604
7.3007703
7.3043375
7.3079728
7.3116524
7.3153283
7.3189366
7.3224097
7.3256843
7.3286931
7.3313567
7.333551
7.3351256
7.3360247
7.3784663
7.3775613
7.375984
7.3737894
7.3711256
7.368116
7.3648418
7.3613688
7.357762
7.3540887
7.3504118
7.3467783
7.3432095
7.3396932
7.3361745
7.332555
7.328706
7.3244755
7.3197093
7.3142365
7.3079748
7.3009915
7.2935928
7.286276
7.279571
7.2738326
7.2692211
7.2657504
7.2633492
7.2618861
7.304639
7.3060921
7.308479
7.3119247
7.3164985
7.3221903
7.3288502
7.3361393
7.3435427
7.3505639
7.3568912
7.3624411
7.3672841
7.3715783
7.3754726
7.3791195
7.3826525
7.3861748
7.3897451
7.3933769
7.3970512
7.4007221
7.4043271
7.4077996
7.4110734
7.4140835
7.4167473
7.4189425
7.4205223
7.4214317
7.4649261
7.464013
7.4624309
7.4602352
7.4575714
7.4545612
7.4512877
7.4478157
7.4442125
7.4405439
7.4368721
7.4332416
7.4296699
7.4261415
7.4225943
7.4189202
7.4149814
7.410623
7.4057033
7.400075
7.3936807
7.3866206
7.379211
7.3719488
7.3653325
7.3596859
7.3551482
7.3517264
7.3493538
7.34791
7.3917032
7.3931383
7.395497
7.3988958
7.4033992
7.4090021
7.4155766
7.4228134
7.4302303
7.437331
7.4437937
7.449501
7.454498
7.4589205
7.4629031
7.4666039
7.4701655
7.4736997
7.477273
7.4809026
7.4845721
7.4882386
7.4918403
7.4953117
7.4985849
7.5015951
7.5042587
7.5064552
7.5080392
7.5089554
7.5535267
7.5526079
7.5510219
7.5488248
7.5461612
7.5431509
7.5398781
7.5364073
7.5328069
7.5291422
7.5254748
7.5218457
7.518271
7.5147301
7.5111545
7.5074277
7.5034012
7.498916
7.4938407
7.4880529
7.4815217
7.474379
7.4669532
7.45974
7.4532056
7.4476439
7.443173
7.4397956
7.4374499
7.4360227
7.4808745
7.4822945
7.4846282
7.4879856
7.4924265
7.4979492
7.5044461
7.5116374
7.5190739
7.5262604
7.5328608
7.5387306
7.543884
7.548431
7.5525006
7.5562531
7.5598424
7.5633905
7.5669669
7.5705959
7.5742617
7.5779247
7.581524
7.5849942
7.5882668
7.5912772
7.593941
7.5961388
7.597727
7.5986482
7.6443272
7.6434038
7.6418138
7.6396153
7.6369513
7.6339407
7.6306681
7.6271983
7.6235998
7.6199379
7.6162731
7.6126439
7.6090652
7.6055099
7.6019069
7.5981288
7.5940167
7.5894089
7.5841776
7.5782254
7.5715555
7.5643223
7.5568742
7.5497018
7.5432403
7.5377536
7.5333404
7.5300013
7.5276785
7.5262649
7.5722004
7.5736083
7.5759213
7.5792443
7.5836323
7.5890863
7.5955152
7.6026716
7.6101331
7.6174149
7.6241557
7.6301903
7.6354989
7.6401666
7.6443204
7.6481236
7.6517404
7.6553035
7.6588854
7.6625152
7.6661796
7.6698406
7.6734388
7.6769086
7.6801815
7.6831921
7.6858564
7.6880555
7.6896471
7.6905726
7.7373942
7.7364667
7.7348734
7.7326735
7.7300087
7.7269978
7.7237244
7.7202541
7.7166559
7.7129948
7.7093303
7.705699
7.7021135
7.6985426
7.694911
7.691083
7.6868889
7.6821626
7.6767775
7.6706604
7.6638477
7.6565155
7.6490378
7.6418948
7.6354949
7.6300702
7.6257041
7.6223953
7.6200909
7.6186879
7.665734
7.6671329
7.6694305
7.6727276
7.6770749
7.6824739
7.6888488
7.6959818
7.7034782
7.7108628
7.7177484
7.7239478
7.7294083
7.7341918
7.7384249
7.7422777
7.7459243
7.7495036
7.7530935
7.7567271
7.7603925
7.7640544
7.7676531
7.7711243
7.7743987
7.77741
7.7800754
7.7822764
7.7838716
7.7848011
7.8328016
7.8318702
7.8302731
7.8280711
7.8254049
7.8223929
7.8191171
7.8156447
7.8120446
7.8083813
7.8047142
7.8010772
7.797482
7.7938935
7.7902314
7.7863541
7.7820829
7.7772438
7.7717093
7.7654283
7.7584681
7.7510306
7.7435124
7.7363858
7.7300319
7.724654
7.720322
7.7170343
7.7147421
7.7133462
7.7615309
7.7629248
7.7652132
7.7684943
7.7728148
7.7781762
7.784514
7.7916383
7.7991813
7.8066728
7.8137082
7.8200701
7.8256769
7.8305704
7.8348786
7.8387803
7.8424585
7.8460571
7.8496587
7.8533002
7.8569701
7.8606354
7.8642377
7.867712
7.8709894
7.8740023
7.8766693
7.8788724
7.880471
7.8814044
7.9306188
7.9296832
7.9280827
7.9258783
7.9232106
7.9201966
7.916917
7.9134401
7.9098349
7.9061666
7.9024926
7.8988456
7.8952361
7.8916258
7.8879311
7.8840053
7.8796609
7.8747151
7.8690379
7.8625963
7.8554853
7.8479383
7.8403672
7.8332408
7.8269138
7.8215639
7.8172507
7.8139731
7.8116868
7.8102938
7.8596391
7.8610321
7.8633191
7.8665967
7.8709075
7.8762512
7.8825732
7.8897063
7.8973089
7.9049127
7.9120988
7.9186186
7.9243637
7.92936
7.9337392
7.9376897
7.9414016
7.945025
7.9486441
7.9522979
7.9559773
7.9596499
7.9632592
7.9667394
7.9700218
7.9730373
7.9757059
7.9779116
7.9795142
7.9804518
8.030909
8.0299695
8.0283649
8.0261578
8.0234881
8.0204704
8.0171847
8.0136999
8.0100856
8.0064073
8.002721
7.9990587
7.9954281
7.9917901
7.9880596
7.9840846
7.9796717
7.974627
7.9688173
7.9622214
7.9549607
7.9472992
7.9396618
7.932517
7.9261941
7.9208507
7.9165375
7.9132565
7.9109669
7.9095724
7.960096
7.9614936
7.9637883
7.9670767
7.9713974
7.9767469
7.9830771
7.9902389
7.9979137
8.005634
8.0129676
8.0196367
8.0255073
8.030598
8.0350433
8.0390435
8.042794
8.046448
8.0500918
8.0537646
8.0574597
8.0611452
8.0647658
8.0682563
8.0715461
8.0745664
8.0772375
8.0794461
8.0810526
8.0819941
8.1337072
8.1327637
8.1311552
8.1289453
8.1262726
8.1232492
8.1199541
8.1164569
8.1128285
8.1091338
8.1054282
8.1017428
8.0980834
8.0944113
8.0906393
8.0866138
8.0821368
8.0770037
8.0710761
8.0643382
8.0569346
8.0491551
8.0414405
8.0342563
8.0279121
8.0225499
8.0182159
8.014916
8.0126138
8.0112115
8.0629174
8.0643258
8.066639
8.0699548
8.074308
8.0796897
8.0860543
8.0932655
8.1010216
8.1088595
8.1163294
8.1231306
8.12911
8.1342819
8.1387893
8.1428407
8.1466361
8.1503288
8.1540062
8.1577066
8.161425
8.1651311
8.1687689
8.1722743
8.1755754
8.1786024
8.1812769
8.1834883
8.1850988
8.1860442
8.2389941
8.2380468
8.2364346
8.2342217
8.2315452
8.228514
8.2252056
8.2216907
8.2180412
8.2143217
8.2105879
8.2068693
8.2031708
8.1994548
8.1956341
8.1915562
8.1870204
8.1818139
8.1757896
8.1689322
8.1614021
8.1535085
8.1457098
8.1384678
8.1320769
8.1266692
8.122291
8.1189549
8.1166282
8.115212
8.2350953
8.240331
8.2448934
8.2489981
8.2528462
8.2565883
8.2603109
8.2640509
8.2678032
8.2715385
8.2752018
8.278728
8.282045
8.2850812
8.2877598
8.2899743
8.291588
8.2925372
8.3466421
8.345691
8.3440759
8.3418601
8.3391789
8.3361368
8.3328102
8.3543991
8.3002504
8.2466729
8.1936983
8.1413457
8.0896251
8.0385402
7.98809
7.9382702
7.8890741
7.8404938
7.7925204
7.7451449
7.6983577
7.6521492
7.6065098
7.5614305
7.5169028
7.4729188
7.4294711
7.3865529
7.3441588
7.3022849
7.2609292
7.2200936
7.1797895
7.1400512
7.10097
7.0627269
7.0256814
6.9904292
6.9577378
6.9282749
6.9022065
6.9227372
6.9214514
6.9013634
6.8997121
6.9193563
6.9439164
6.9462532
6.9482829
6.9776063
7.0104361
7.045907
7.0445191
7.0245641
6.9890953
6.9562377
6.926852
6.9249166
6.9542122
6.9731199
6.9755239
7.0086893
7.0064327
6.9871076
7.0226834
7.0424407
7.0829398
7.0850079
7.0863248
7.0507211
7.0177368
6.9883604
6.9626669
7.0371185
7.1685143
7.3935703
7.3938356
7.1675529
7.0356393
6.9611245
6.9587495
7.0329431
7.1648184
7.391298
7.4204644
7.4227689
7.4224917
7.1955996
7.0630126
7.0926071
7.1257779
7.161488
7.2959106
7.2597867
7.2260388
7.4547406
7.4902425
7.5280068
7.5305674
7.2967213
7.1609051
7.1246326
7.0489419
7.0154927
6.986134
7.0610127
7.0908274
7.0883191
7.0128779
6.9834459
7.0582613
7.1918244
7.1944096
7.2253144
7.4556205
7.4538984
7.2231647
7.2583172
7.2599004
7.4920328
7.491109
7.5304033
7.2956513
7.1591634
7.1225426
7.0466042
7.0435536
7.0037048
6.9846331
6.9516356
6.9222809
6.8970435
6.9162748
6.9129446
6.894251
6.8910164
6.9093477
6.9051628
6.8875132
6.9127179
6.9161845
6.9194432
6.9487656
6.9670069
6.9702415
6.9409128
6.9376262
6.9340409
6.9634012
6.9455308
6.9420497
6.9593326
6.9299083
6.9664386
6.9715361
6.9761395
6.9801227
6.9554411
7.0289204
7.0236542
6.9514155
6.9467784
7.0173625
7.0103079
6.9416682
6.9362479
6.9010621
6.8838452
6.8800072
6.8967182
6.8923042
6.8761978
6.8722307
6.887877
6.9125364
6.9169612
6.9214001
6.92577
6.9090266
6.9383726
6.9551303
6.9507318
6.9346003
6.9052298
6.9013605
6.9306786
6.9462688
6.9418287
6.9267993
6.8974495
6.8936814
6.8684193
6.883526
6.8797337
6.8649267
6.861592
6.8763122
6.8735709
6.8582741
6.8834139
6.8867448
6.8900869
6.9193487
6.9229666
6.9375887
6.9082329
6.9043845
6.9336667
6.9670289
6.9709741
6.9752069
6.9796774
6.9841439
6.9885786
6.9927844
6.9968641
7.0004535
6.9817281
7.0173752
7.020257
7.0397847
7.036564
7.0329615
7.0142092
6.9785336
6.9750213
7.0106741
7.0288876
7.0664803
7.0716146
7.0761669
7.0799839
7.1558508
7.1190821
7.0846523
7.0096658
7.0057603
7.079595
7.0492264
7.0543834
7.1871011
7.1598799
7.3848971
7.3734151
7.1524425
7.1432143
7.3588605
7.3422793
7.1326243
7.1599374
7.1705976
7.1798516
7.2115877
7.2187431
7.4479146
7.4143037
7.4028878
7.436682
7.474274
7.4854259
7.2541895
7.2917345
7.525091
7.5139299
7.2845572
7.1508724
7.1140832
7.0396931
7.035148
7.0012025
7.0733462
7.0429697
7.0358729
7.0662076
6.9961044
7.0300267
7.1006235
7.1078137
7.1445924
7.1373577
7.2642384
7.2751757
7.2377059
7.2470665
7.202305
7.4217779
7.3882204
7.3715499
7.4051186
7.1915561
7.2268739
7.4424317
7.4592037
7.4987807
7.4818123
7.4639126
7.2526664
7.1296095
7.0609956
7.0246629
7.0070351
6.9713647
6.9675535
7.0031917
7.0202226
7.0157352
6.9993038
6.9636475
6.9597344
6.9953636
7.0112683
7.0439608
7.0495405
7.055299
7.0188887
7.024562
6.9906561
6.9609881
7.0282642
7.0027041
6.9949049
6.930691
6.9251371
6.9871169
6.9795191
6.9196886
6.9442683
6.9497462
6.9553873
6.9850128
7.0506316
7.058567
7.0929296
7.0849343
7.1215802
7.2406568
7.2035002
7.2153937
7.1802141
7.1487332
7.1215497
7.3254578
7.3081628
7.1100159
7.0984236
7.2902897
7.2731483
7.0872377
7.1139908
7.1253597
7.1370782
7.0203954
7.0125156
7.0426723
6.9793205
6.9737976
7.0349729
7.0048706
6.9979512
6.9391041
6.9144626
6.9726443
6.9671897
6.9100931
6.9068627
6.9641268
6.9647832
6.9053142
6.9298377
6.931378
6.9346327
6.9641234
6.9686204
7.0279863
7.0223928
6.9924112
7.096224
7.1038634
7.0772777
7.2579769
7.2468342
7.0697723
7.066627
7.2429058
7.2526895
7.0710597
7.0975301
7.093024
6.9892918
7.0192092
6.9608432
6.93034
6.9159996
6.9126802
6.927584
6.898257
6.9010011
6.8966569
6.8806138
6.8554035
6.8719376
6.8712924
6.8528738
6.8504727
6.8716103
6.8716136
6.8474512
6.8724029
6.8754784
6.8779413
6.9071558
6.9098497
6.9259035
6.9252133
6.8959418
6.8962037
6.9254018
6.9046275
6.9015388
6.9254684
6.8962322
6.9498194
6.9418547
6.9349309
6.9308386
6.9062297
6.9712319
6.985111
6.9102922
6.9171339
7.0065075
7.0317455
6.9249883
6.9306413
6.8704478
6.8436899
6.8382185
6.8661477
6.8576734
6.831076
6.8221137
6.8452298
6.8698551
6.8822358
6.8906939
6.895011
6.8686035
6.8976927
6.9241923
6.9198644
6.8922612
6.8631459
6.8559855
6.8850605
6.9114201
6.8990628
6.8762723
6.8471293
6.837716
6.8125764
6.8304067
6.8158155
6.8033461
6.7953622
6.8031305
6.7940112
6.7894994
6.8146633
6.8205891
6.8284836
6.8576617
6.8668435
6.8843986
6.8551324
6.8405605
6.8698184
6.9030099
6.9175562
6.9322254
6.9445963
6.9530456
6.9573998
6.9587069
6.9586476
6.9584943
6.9592212
6.960926
6.9636982
6.9489156
6.9522609
6.9558911
6.991527
7.0070223
7.0030735
6.9878829
6.9845111
6.9997194
6.9969378
6.9812315
6.9456123
6.942723
6.9782938
6.9951824
6.9944104
6.9755546
6.9400187
6.9374203
6.9728627
6.99449
6.9945178
6.9697225
6.9343104
6.9303903
6.9657276
6.9931534
6.988745
6.9602584
6.9249519
6.9177176
6.952999
6.980286
6.9679048
6.944259
6.9089642
6.899533
6.9348285
6.9532469
6.9387497
6.9257821
6.890407
6.8825822
6.8497824
6.8571951
6.8278982
6.8186107
6.8477588
6.8437697
6.8765032
6.9118988
6.9179673
6.9262952
6.8904471
6.8809523
6.9168061
6.9282915
6.9458494
6.9693851
6.9969996
7.0239285
7.0443895
7.0548321
7.055635
7.0496259
7.0413681
7.0343059
7.0302267
7.0292739
7.0308731
7.0342139
7.0387506
7.0023976
7.0075933
7.0131514
7.0769141
7.1135147
7.1056912
7.0691511
7.1798996
7.1915656
7.1566116
7.1684456
7.370159
7.3878146
7.3545347
7.3370513
7.3189799
7.3518971
7.3339872
7.1450921
7.1348047
7.3183034
7.2860322
7.3014683
7.6096008
7.6367923
7.6639786
7.6908315
7.7184244
7.7453304
7.7703884
7.7890336
7.7978402
7.7992885
7.795195
7.764839
8.3369549
9.1592248
10.236068
10.243633
9.1697991
8.3462369
7.7697958
7.7689513
8.3456734
9.1645085
10.221393
10.29433
10.31464
10.306497
9.2103581
8.373549
8.4159498
7.8305233
7.8699856
7.9120215
8.5136403
8.4630174
9.3303473
9.2681427
10.38457
10.469628
10.561732
9.3977727
9.4097481
8.5226788
7.9173619
7.8743482
7.8344886
8.4230928
8.3814084
8.380039
8.4216603
7.8331297
7.8737254
7.9176953
8.5227775
8.4697027
8.4707671
9.3408053
9.2783005
9.2214001
9.2153746
9.2718329
10.375588
10.396204
10.483723
10.579872
10.56133
9.4055474
9.3350375
10.463519
11.681489
11.745429
11.761046
11.651602
11.549318
11.451631
12.587231
13.356966
13.479352
13.607443
13.747525
13.900579
14.065489
14.238501
14.418088
14.603499
14.794633
14.991583
15.194531
15.403701
15.619324
15.841676
16.071034
16.307707
16.552038
16.804376
17.065098
17.334627
17.613415
17.901935
18.200718
18.510337
18.831412
19.164619
19.510703
19.870445
20.24465
20.634091
21.039291
21.460428
21.897275
21.815648
21.367622
20.937088
20.523711
20.126873
19.745759
19.379668
19.02768
18.688939
18.362719
18.048394
17.7453
17.452836
17.170441
16.897632
16.633937
16.378903
16.132107
15.893224
15.661895
15.437804
15.220657
15.010199
14.806154
14.608267
14.416304
14.230171
14.049869
13.87589
13.710028
13.55571
13.41433
13.28593
13.162475
12.957401
13.07811
13.204521
13.344746
13.498028
13.662714
13.835465
14.014574
14.199597
14.390593
14.587722
14.79124
15.001451
15.21854
15.44295
15.674954
15.914972
16.163445
16.420707
16.687208
16.963431
17.2499
17.547177
17.855886
18.17669
18.51032
18.857572
19.219346
19.596515
19.990088
20.401295
20.831038
21.279936
21.749684
21.217363
20.766859
20.335607
19.922852
19.527467
19.148363
18.784861
18.435864
18.100591
17.77821
17.467969
17.169162
16.881058
16.603177
16.335124
16.07631
15.826217
15.584485
15.350733
15.124693
14.905941
14.694118
14.489047
14.290377
14.097816
13.91116
13.730227
13.554957
13.385727
13.224185
13.073642
12.935807
12.811858
12.693967
12.347041
12.456177
12.572808
12.702843
12.844899
12.996984
13.156108
13.3208
13.490712
13.665777
13.84626
14.032412
14.224393
14.422456
14.626856
14.837903
15.055866
15.281092
15.513998
15.754791
16.004111
16.262325
16.529991
16.807751
17.09614
17.395581
17.70708
18.031297
18.369194
18.721799
19.08994
19.474832
19.876964
20.297681
19.392385
19.002174
18.629304
18.272583
17.930928
17.603458
17.289449
16.98789
16.698087
16.419201
16.150689
15.89184
15.642069
15.400933
15.167985
14.942803
14.724993
14.514199
14.310181
14.112581
13.921057
13.735278
13.555123
13.380284
13.210519
13.045669
12.885584
12.730227
12.579947
12.436174
12.301747
12.178666
12.06827
11.964706
11.608229
11.705453
11.809694
11.925984
12.05311
12.189015
12.331061
12.477908
12.629214
12.784921
12.94526
13.110455
13.280652
13.456078
13.636956
13.823558
14.016119
14.214953
14.420408
14.632665
14.852275
15.07956
15.315006
15.559184
15.812561
16.075514
16.348857
16.63338
16.929698
17.238673
17.561182
17.898302
18.250982
18.620241
17.684003
17.346231
17.02333
16.714205
16.417973
16.133887
15.861026
15.598762
15.346341
15.103247
14.868855
14.642656
14.424246
14.213224
14.009304
13.812081
13.621186
13.436339
13.257208
13.083521
12.915068
12.75163
12.59304
12.439055
12.289472
12.144164
12.003097
11.866612
11.736049
11.613968
11.502292
11.402126
11.308805
11.075052
11.164046
11.260023
11.36723
11.484591
11.610186
11.741534
11.877344
12.01729
12.161346
12.309705
12.462576
12.620128
12.782575
12.950137
13.123042
13.301559
13.485975
13.676554
13.873638
14.077631
14.288748
14.50749
14.73437
14.969863
15.214352
15.468578
15.733153
16.008878
16.296504
16.597021
16.911459
17.24094
16.877318
16.558002
16.253131
15.961591
15.68246
15.414958
15.158189
14.911505
14.674187
14.445719
14.22551
14.013089
13.808066
13.610093
13.418776
13.233774
13.054747
12.881428
12.713523
12.550779
12.392995
12.239962
12.091476
11.947345
11.807394
11.671476
11.53956
11.411983
11.290021
11.176103
11.072069
10.978999
10.892985
10.769405
10.852159
10.942079
11.042858
11.153411
11.271905
11.395897
11.524115
11.65623
11.792246
11.932305
12.076584
12.22526
12.378538
12.536617
12.699704
12.868059
13.041882
13.221493