/*--------------------------------*- C++ -*----------------------------------*\
| =========                 |                                                 |
| \\      /  F ield         | OpenFOAM: The Open Source CFD Toolbox           |
|  \\    /   O peration     | Version:  v2012                                 |
|   \\  /    A nd           | Website:  www.openfoam.com                      |
|    \\/     M anipulation  |                                                 |
\*---------------------------------------------------------------------------*/
FoamFile
{
    version     2.0;
    format      ascii;
    class       volScalarField;
    location    "100";
    object      k;
}
// * * * * * * * * * * * * * * * * * * * * * * * * * * * * * * * * * * * * * //

dimensions      [0 2 -2 0 0 0 0];


internalField   nonuniform List<scalar> 
19664
(
0.066416542
0.063548611
0.060758466
0.05804291
0.05539903
0.052824906
0.050319249
0.047880653
0.045508076
0.043201019
0.040959155
0.038782763
0.036672158
0.03462755
0.03264956
0.030738832
0.028896167
0.02712244
0.025418495
0.023785102
0.022222906
0.020732363
0.019313701
0.017967038
0.016692088
0.015488778
0.01435653
0.013297148
0.012306556
0.011389275
0.01054225
0.0097694742
0.0090784019
0.008432135
0.0077924671
0.0063751495
0.0086244764
0.0092202271
0.010004354
0.0097752466
0.010785696
0.010266227
0.010990003
0.011182922
0.012386728
0.013579307
0.016849213
0.01355965
0.013371902
0.013798831
0.017025958
0.014507911
0.017674357
0.015751269
0.019165441
0.0163301
0.015181974
0.010651901
0.0087601823
0.0093227777
0.019462284
0.037820368
0.055747039
0.058600314
0.064573632
0.062243128
0.065707229
0.060843784
0.059627881
0.061221972
0.063711895
0.060536157
0.059475499
0.060086891
0.060237118
0.060644528
0.060645163
0.060244269
0.061177168
0.060655079
0.060235624
0.058332033
0.058754214
0.060458536
0.065297319
0.060333249
0.05779421
0.057252499
0.058322072
0.059069558
0.058756149
0.058134962
0.058591831
0.058429101
0.058416478
0.058191635
0.057863286
0.058091306
0.058349131
0.057799613
0.058407069
0.059199591
0.058455953
0.05793865
0.058603009
0.059350711
0.058994697
0.058821094
0.059477025
0.060162635
0.059713113
0.059402439
0.060105181
0.061182842
0.060868788
0.061051361
0.062268911
0.063848805
0.066418618
0.071235979
0.068738674
0.071276586
0.068436421
0.070701253
0.066653
0.071082122
0.06705615
0.071610299
0.065639086
0.064891793
0.051596798
0.036977874
0.023050461
0.015185328
0.014952783
0.0273124
0.042344729
0.053791173
0.062189655
0.06654093
0.068840942
0.066575208
0.068068197
0.066397851
0.068572819
0.068541264
0.069768585
0.068937551
0.066958797
0.067798806
0.067521649
0.069311442
0.068061066
0.067081255
0.067012348
0.06949441
0.067431911
0.062654149
0.055261915
0.045048664
0.030671494
0.018682068
0.019296094
0.031949448
0.046127369
0.054112781
0.062844679
0.069363396
0.069633622
0.06671361
0.066954183
0.069985801
0.069525734
0.067926835
0.066950234
0.065400655
0.063296315
0.06521323
0.066825744
0.069682199
0.06998344
0.069358821
0.067221501
0.069953982
0.070437074
0.065847726
0.057709277
0.048371376
0.03444462
0.020995348
0.02103326
0.0346986
0.04781363
0.05641779
0.065013871
0.06889683
0.068642524
0.0680309
0.069268124
0.069738921
0.069090346
0.066771236
0.064881731
0.064020514
0.06436778
0.065971766
0.067155904
0.069986417
0.069753977
0.069956049
0.069150196
0.070394923
0.069686169
0.064914992
0.057233125
0.048577338
0.034456653
0.022362711
0.022039761
0.033990609
0.048261292
0.055942309
0.063513254
0.067908473
0.069723132
0.070212311
0.069761069
0.0709587
0.070295197
0.068371695
0.06577439
0.063159974
0.061941069
0.064149682
0.066835868
0.069785372
0.069310874
0.068425608
0.06841794
0.069250441
0.066973104
0.063012732
0.057140657
0.049595983
0.036111627
0.023388443
0.023139818
0.035759835
0.049655407
0.056575607
0.062372741
0.066475056
0.068941146
0.068197945
0.067780269
0.070417244
0.069300535
0.065687435
0.06309624
0.062596326
0.062801602
0.064451627
0.066163201
0.068908833
0.069529678
0.067974913
0.067112519
0.068747696
0.067048293
0.062750238
0.0564622
0.048176083
0.037267095
0.024692467
0.024622366
0.035995296
0.047967436
0.056013928
0.062429475
0.065860111
0.067324643
0.067400545
0.067777683
0.070536447
0.069128651
0.06694781
0.063864693
0.062162956
0.061245395
0.063652047
0.065934214
0.069030433
0.068879166
0.067157011
0.065986904
0.066637153
0.064901043
0.061560591
0.056083131
0.048951044
0.03730449
0.025517634
0.024297357
0.03722712
0.048262238
0.056642619
0.061318049
0.064093626
0.065218359
0.065935772
0.066040189
0.068878075
0.067995496
0.066829034
0.063729435
0.061958309
0.061948626
0.06378318
0.064761387
0.067252229
0.06747354
0.06631835
0.064837848
0.065991668
0.063862407
0.06216103
0.057644801
0.050136268
0.039079082
0.025233248
0.025422095
0.037382353
0.049396739
0.056268279
0.060630469
0.063193604
0.065772741
0.065309286
0.065329831
0.067084017
0.066311595
0.065734898
0.063337076
0.061550762
0.059785124
0.061974064
0.064185621
0.066556466
0.066730147
0.065820067
0.064531455
0.066234873
0.063640705
0.061592327
0.057927236
0.050719149
0.039539974
0.025974067
0.026136418
0.039685672
0.050946144
0.058824019
0.061577312
0.06447025
0.065577172
0.064962867
0.065132043
0.066889684
0.065156868
0.064624336
0.062126328
0.061484057
0.063171808
0.064404374
0.063849274
0.06598015
0.067512718
0.066077273
0.06356842
0.065178117
0.063963802
0.061792399
0.057290952
0.051873834
0.039859716
0.026391877
0.026534618
0.040168484
0.051219434
0.056641505
0.05973184
0.062488816
0.063805909
0.063849237
0.066072382
0.06599799
0.065714205
0.065542413
0.064836324
0.061556071
0.059811935
0.062416962
0.064884782
0.068003479
0.067184039
0.065965133
0.064003756
0.063652743
0.061420672
0.060216278
0.055976851
0.050933516
0.041283277
0.029197024
0.026958553
0.037842561
0.046141689
0.051024452
0.057749262
0.0612753
0.064424726
0.06423923
0.066453706
0.067259194
0.067216474
0.065529525
0.06274442
0.061542463
0.060616342
0.063282238
0.065000744
0.067004055
0.06706323
0.065867151
0.063268555
0.063609987
0.059765635
0.052687822
0.043995595
0.037336031
0.0293366
0.021930367
0.015317522
0.02095757
0.026295642
0.036456293
0.048266903
0.055681776
0.061611405
0.06478487
0.066346384
0.067588151
0.067213039
0.065368671
0.063255698
0.060780526
0.061114919
0.063773467
0.064985203
0.066817344
0.066609985
0.065966074
0.063408476
0.060804951
0.054442069
0.045054064
0.032858296
0.021181611
0.014758641
0.01216769
0.012672721
0.016755942
0.02441818
0.034793621
0.0467745
0.054798061
0.061336529
0.064191069
0.065077935
0.067589344
0.067211963
0.065085082
0.063614324
0.060746029
0.060113549
0.062482384
0.064227146
0.066401595
0.066163438
0.06415902
0.063257867
0.063201855
0.058714255
0.051102316
0.043990585
0.038194926
0.032021603
0.024925857
0.042165747
0.04671204
0.050188017
0.053416822
0.057671888
0.061364056
0.065045499
0.064792176
0.064315362
0.067481332
0.066724403
0.066525354
0.063035718
0.061679158
0.060165366
0.062579577
0.064762727
0.066925314
0.066928131
0.065064645
0.064364743
0.066695551
0.065264532
0.063085467
0.059898404
0.058342165
0.057476601
0.055463737
0.058721023
0.060281447
0.061654807
0.063118253
0.064611712
0.065694467
0.067504015
0.06656119
0.065754641
0.068887972
0.06704867
0.066285659
0.063068929
0.061739793
0.061287206
0.063361513
0.065195014
0.067510099
0.06811017
0.06665021
0.066194815
0.06740724
0.067078161
0.066641764
0.065673956
0.063583315
0.062256783
0.062964534
0.062526573
0.062922461
0.064440349
0.064540744
0.065769317
0.066311776
0.067541666
0.067167398
0.066357282
0.068490435
0.066526394
0.065288124
0.062523288
0.061162399
0.059239096
0.061223946
0.062945237
0.065631679
0.0665104
0.065775948
0.065163016
0.067260476
0.067272202
0.066921321
0.066265428
0.064581663
0.064270172
0.065035528
0.061621246
0.062357752
0.063929261
0.065373758
0.065948447
0.065291024
0.066682426
0.065716636
0.064682847
0.066028539
0.063744939
0.062714626
0.060626061
0.060030258
0.06118993
0.060980467
0.061598589
0.063253489
0.064494731
0.064191687
0.063658017
0.064475913
0.064940688
0.064602355
0.064361313
0.061930267
0.061995626
0.062322633
0.066203866
0.063696609
0.068024644
0.072496195
0.077108703
0.081852188
0.086709369
0.091621375
0.096634581
0.10170481
0.10684464
0.11205353
0.11732953
0.1227057
0.128129
0.13359824
0.13913612
0.14474406
0.15040282
0.15604297
0.16171467
0.16739143
0.17309697
0.17878311
0.18444167
0.19010791
0.19572784
0.20130529
0.20684509
0.21232331
0.21766003
0.22286028
0.22795692
0.24246201
0.23788304
0.23314714
0.22827109
0.22326734
0.21815384
0.21294309
0.20765301
0.20229548
0.19688732
0.19143914
0.18596603
0.18047722
0.17498586
0.16949955
0.16402934
0.15858146
0.15316528
0.14778602
0.14245166
0.13716666
0.13193786
0.12676901
0.12166548
0.11662956
0.11166352
0.10676803
0.10193991
0.097195095
0.092522375
0.087977758
0.083520321
0.079203578
0.075046258
0.072736391
0.077027981
0.081438858
0.085960233
0.090584358
0.095309462
0.10011708
0.1050022
0.10995954
0.11498683
0.12008317
0.12524513
0.13047073
0.13575562
0.14109493
0.14648332
0.15191496
0.15738357
0.16288233
0.16840382
0.17394018
0.1794829
0.1850226
0.19054854
0.1960489
0.20151093
0.20692165
0.21226703
0.21753232
0.22270237
0.22776306
0.23269779
0.237494
0.24217262
0.24325685
0.2386416
0.23387525
0.22896877
0.22393561
0.21879065
0.21354891
0.20822559
0.20283551
0.1973931
0.19190955
0.18640238
0.18088317
0.17536228
0.16984625
0.16434564
0.15886868
0.15342385
0.14801844
0.14265958
0.13735341
0.13210603
0.12692284
0.12181054
0.11677103
0.1118069
0.10691683
0.10210376
0.097370262
0.092724189
0.088178707
0.083740517
0.079401048
0.075188162
0.07255858
0.076993064
0.081560059
0.086229973
0.091008313
0.095872097
0.10081526
0.10585396
0.11092126
0.11605185
0.12125159
0.12651762
0.13184633
0.13723253
0.1426708
0.14815534
0.15368054
0.15923841
0.16482626
0.17043179
0.17605074
0.18167088
0.1872842
0.19287717
0.19844161
0.20396404
0.20942738
0.21481667
0.22011727
0.22531325
0.23039196
0.23533496
0.24013062
0.24480155
0.24720449
0.24255709
0.23774105
0.23277568
0.22767325
0.22245019
0.2171154
0.21168781
0.20618065
0.20061135
0.194993
0.18934523
0.18367847
0.17800537
0.17233056
0.16666665
0.16102079
0.15540315
0.14982046
0.14428419
0.13879986
0.13337429
0.12801166
0.12271756
0.11749355
0.11234567
0.10727543
0.10231382
0.097450962
0.09268637
0.088027177
0.083484677
0.079056449
0.074752782
0.070922578
0.075528269
0.080265628
0.08510914
0.090065091
0.095111428
0.10024372
0.10547235
0.11074175
0.11609009
0.12153555
0.1270441
0.13261214
0.13823303
0.14390558
0.14962511
0.1553846
0.16117464
0.16699216
0.17282443
0.17866667
0.18450258
0.19032332
0.19611947
0.20187955
0.20758443
0.2132295
0.21879589
0.22427162
0.22963318
0.2348697
0.23996543
0.24490807
0.24969689
0.2531386
0.24826956
0.24322899
0.23806299
0.23276838
0.22734028
0.22178859
0.2161825
0.21051393
0.20477366
0.19896345
0.19315259
0.18732972
0.18148281
0.17560834
0.16977962
0.16398272
0.15820449
0.15243718
0.14674906
0.1411258
0.1355535
0.1300195
0.12455024
0.11915378
0.11383904
0.1086104
0.10350073
0.098499166
0.093600549
0.08880131
0.084156827
0.079638913
0.075225918
0.071411695
0.076099812
0.080924655
0.085857491
0.090906939
0.096048983
0.10127862
0.10660608
0.11197718
0.11743133
0.1229892
0.12861617
0.13431113
0.14006453
0.14587474
0.15173492
0.15764613
0.16359105
0.16956727
0.17556582
0.18158702
0.18760862
0.19362643
0.19962742
0.20560927
0.21154725
0.21742729
0.2232399
0.22897655
0.23461074
0.2401321
0.24552489
0.25077809
0.25588946
0.25837394
0.25310664
0.24770555
0.24218146
0.23654351
0.23081081
0.22499679
0.21911595
0.21317832
0.20720348
0.20119831
0.19517698
0.18915101
0.18313581
0.17714111
0.17117646
0.16524683
0.15936507
0.15353374
0.14776061
0.14205159
0.13641282
0.13084983
0.12536805
0.11997409
0.11467148
0.10945396
0.10430481
0.099247159
0.094292762
0.089454884
0.084754586
0.080190177
0.075761309
0.069885734
0.074425378
0.07908441
0.083875992
0.088785401
0.093816952
0.098938585
0.1041596
0.10949457
0.11491579
0.12042088
0.1260087
0.13167745
0.13741288
0.14321746
0.14910229
0.15500772
0.16097332
0.16702076
0.17311157
0.17923654
0.18537983
0.19153841
0.19771736
0.20385189
0.20997384
0.2161035
0.22219879
0.22824436
0.23422301
0.24012951
0.24595943
0.25166438
0.25728037
0.25114957
0.24529671
0.23938266
0.23344183
0.22746427
0.22144245
0.21536659
0.20926227
0.20314138
0.19702154
0.19091157
0.18485142
0.17882956
0.17283557
0.16685514
0.16091442
0.1550257
0.14919944
0.1434451
0.13779652
0.13224378
0.12677291
0.12137025
0.11608557
0.1109076
0.10583119
0.10084877
0.0959461
0.091142564
0.086448396
0.081877687
0.077450205
0.073162137
0.069006318
0.055379283
0.059325264
0.063374978
0.067589109
0.071958104
0.076475547
0.08110669
0.085855815
0.09072954
0.095705906
0.10078257
0.10595534
0.11122517
0.11657507
0.12200608
0.12752932
0.13309512
0.13873532
0.14446598
0.15025106
0.15608968
0.16196647
0.16788181
0.17384531
0.1798036
0.18578759
0.19181714
0.19785384
0.20389636
0.20993344
0.21596786
0.2220067
0.22801251
0.23401036
0.22560027
0.22072894
0.21573571
0.21062276
0.20542073
0.2001381
0.19479351
0.18939519
0.18396077
0.1784904
0.17301091
0.16752742
0.16204765
0.15658606
0.15115431
0.14575606
0.14040201
0.13509068
0.12983855
0.12464866
0.11952836
0.11447626
0.10950017
0.10460043
0.099780633
0.095040952
0.090398805
0.08584047
0.081424451
0.077104643
0.072932228
0.068934667
0.064193323
0.061779104
0.061412178
0.062392715
0.063221499
0.062855401
0.062329546
0.062704855
0.062574167
0.062517962
0.062314118
0.061991318
0.062232372
0.062463508
0.061974942
0.062565949
0.063284671
0.062590705
0.06212903
0.062738859
0.06352981
0.063148901
0.063035299
0.063637769
0.064334608
0.063877515
0.06365933
0.064287346
0.065344802
0.065110393
0.065308118
0.06647927
0.067972118
0.070435079
0.074798776
0.072427046
0.070953086
0.069858932
0.069611063
0.069819875
0.068768564
0.068217648
0.0683531
0.068800076
0.068118719
0.067542655
0.067621032
0.06801455
0.067187007
0.066627573
0.06703529
0.067656442
0.067015533
0.066457673
0.066886377
0.066690913
0.066424606
0.066742862
0.066937976
0.067032071
0.067130115
0.066825838
0.067256241
0.067619606
0.066739691
0.065800261
0.066072985
0.068414447
0.072773084
0.070515275
0.070333837
0.071232639
0.072153328
0.071798378
0.071465586
0.071706066
0.071639382
0.07154285
0.071295746
0.07103994
0.071272569
0.071464546
0.071091466
0.071622091
0.072200124
0.071632665
0.071277087
0.071789062
0.072656776
0.072243443
0.072195267
0.072748309
0.073412948
0.072975275
0.072927911
0.073427283
0.074398709
0.074253907
0.07456448
0.075608694
0.077000517
0.079315161
0.083914826
0.081681428
0.080398584
0.07938952
0.079044847
0.079118042
0.078228503
0.077758271
0.077745339
0.078178575
0.077520917
0.07699914
0.077010183
0.07743064
0.076541454
0.076050127
0.07638066
0.076894047
0.076374182
0.075856506
0.076190549
0.075999021
0.07579754
0.076001523
0.076278413
0.076374335
0.076424673
0.076231589
0.076481272
0.076811609
0.075869872
0.074985561
0.075086783
0.077251018
0.081828965
0.079761915
0.079749975
0.080619642
0.081590791
0.08127855
0.081116546
0.081259451
0.081230712
0.081137791
0.080819267
0.080648499
0.080879596
0.081037717
0.080744084
0.081218221
0.081719383
0.081247509
0.080943649
0.081410648
0.08232564
0.081928782
0.081884035
0.082443392
0.083030754
0.082632168
0.082701797
0.083117438
0.083963402
0.08394857
0.084325108
0.085267644
0.086470113
0.088628927
0.09342125
0.091355366
0.090236367
0.089373495
0.088957514
0.088914651
0.088124596
0.087768294
0.087624506
0.08797467
0.087472801
0.086869575
0.086945333
0.087333864
0.086394894
0.085957538
0.086223831
0.086651514
0.086175584
0.08573859
0.086000237
0.085861329
0.085619095
0.085736466
0.086103685
0.086191884
0.086206678
0.086105102
0.086189285
0.086489398
0.08547683
0.084630514
0.084542443
0.086521396
0.091282391
0.089436999
0.089570843
0.090449143
0.09144606
0.091183531
0.091183446
0.091238008
0.091248664
0.091165804
0.09075297
0.090676913
0.090937699
0.091050519
0.09082918
0.09122049
0.091679886
0.091319626
0.091035491
0.091502574
0.0924008
0.092054329
0.091955363
0.092598365
0.093031709
0.092731613
0.092875998
0.093220114
0.093992141
0.094079257
0.094473876
0.095315203
0.096331079
0.098315629
0.10326477
0.10139553
0.10048746
0.099661147
0.099292533
0.099134473
0.098410176
0.098058486
0.097943705
0.098227199
0.097813047
0.097152399
0.097257957
0.097566559
0.096696359
0.096207741
0.096511108
0.096790935
0.096357838
0.096004312
0.096195011
0.096113869
0.095829093
0.095887603
0.096315172
0.096390135
0.096363411
0.096342478
0.096273069
0.096495366
0.095515147
0.094600441
0.094428115
0.096172367
0.10113792
0.099464514
0.099735425
0.10062204
0.10164057
0.10142989
0.10158026
0.10155612
0.10161232
0.10155088
0.10109901
0.10109791
0.10133621
0.10141369
0.101264
0.10156802
0.10198371
0.10174626
0.1014922
0.10197737
0.10279106
0.10250364
0.10246084
0.10311097
0.10344885
0.1031861
0.10332014
0.10371153
0.10435114
0.10454073
0.10495142
0.10569493
0.10655177
0.10830588
0.11339025
0.1117958
0.11097201
0.11031545
0.10987183
0.10963928
0.10909219
0.10865569
0.1084919
0.10873668
0.10847366
0.10784642
0.10783229
0.10808242
0.10732444
0.10685491
0.10706874
0.10725085
0.10686217
0.10658818
0.10672261
0.10664179
0.10643356
0.10639404
0.10685336
0.10690783
0.10681955
0.10687518
0.10666358
0.10685385
0.10579955
0.10494352
0.10457276
0.10620016
0.11133659
0.10977797
0.11022781
0.11107446
0.11215987
0.11199688
0.11223283
0.11217739
0.11227545
0.1122286
0.11179501
0.11184341
0.11205555
0.11209616
0.11197735
0.11222083
0.11259568
0.11245776
0.11229393
0.11274507
0.11344701
0.11322313
0.11330394
0.11390748
0.11410079
0.11387301
0.11409238
0.11454864
0.11501912
0.11526129
0.11574602
0.11633886
0.11705484
0.11856287
0.12377283
0.12236336
0.12177411
0.12123753
0.12072606
0.12052456
0.12007842
0.11959029
0.11936196
0.11953644
0.11941634
0.11882771
0.11869103
0.11888101
0.11824648
0.11779377
0.11793181
0.11801185
0.11765658
0.11745201
0.11754332
0.11753956
0.11732753
0.11726442
0.11767926
0.11770634
0.11760435
0.11766615
0.11738909
0.11747112
0.11642454
0.11556643
0.11505855
0.11652202
0.12173725
0.12035714
0.12095482
0.12179199
0.1228342
0.12284001
0.12309525
0.1230439
0.12319865
0.12314501
0.1227939
0.12282554
0.12308785
0.12309212
0.12293689
0.12315085
0.12350096
0.12346271
0.12335267
0.12376899
0.1243844
0.12421129
0.12441126
0.12494403
0.12503939
0.1249088
0.1251676
0.1256754
0.12604197
0.12623969
0.12678625
0.12722284
0.12773161
0.1290672
0.13439358
0.13315176
0.13272782
0.13237771
0.13181996
0.13160364
0.13132027
0.13078946
0.13051754
0.13060189
0.13053499
0.13004938
0.12979777
0.12994005
0.12935488
0.12898347
0.12905565
0.12905382
0.1287127
0.12846393
0.12868832
0.12868909
0.12838401
0.12837884
0.12867254
0.12873616
0.12854703
0.12856354
0.12833829
0.12824738
0.12721974
0.12640759
0.12571811
0.12703943
0.132408
0.13116521
0.13187021
0.13273366
0.13373232
0.13388186
0.13408353
0.13408678
0.13431619
0.13423866
0.13401387
0.13398149
0.13434263
0.13433583
0.13404807
0.13432411
0.13469222
0.13473635
0.13462445
0.13503012
0.13557063
0.13542438
0.13573897
0.13617212
0.13622372
0.13620844
0.13647013
0.1370143
0.13724905
0.13743731
0.13800634
0.1382709
0.13862314
0.13979648
0.14522026
0.14413489
0.14386966
0.14369334
0.14310394
0.14298104
0.14277061
0.14222466
0.14196667
0.14189354
0.14186383
0.14146402
0.14110824
0.14130786
0.14075661
0.14031312
0.14047422
0.14041221
0.13999634
0.13970747
0.14003931
0.14002865
0.13963134
0.13969063
0.1398544
0.13995639
0.13967401
0.13966744
0.13948584
0.13931971
0.13829692
0.13738431
0.13665978
0.13783755
0.14327718
0.14219597
0.14292081
0.14390367
0.14489098
0.14507661
0.14531689
0.14533879
0.14558308
0.14549805
0.14540714
0.14530503
0.14574175
0.14573312
0.14544428
0.14569973
0.14617174
0.14620329
0.14607774
0.14652665
0.1470243
0.14681606
0.14721871
0.1475889
0.14763684
0.14770788
0.14800052
0.14850538
0.14875148
0.14884372
0.14935948
0.1494847
0.14968678
0.15071043
0.15620887
0.15526588
0.15511407
0.15502931
0.15460789
0.1545532
0.15427085
0.15381091
0.15348475
0.1534502
0.15335683
0.15300868
0.15255516
0.15275303
0.15231275
0.15187433
0.15196723
0.15195481
0.15144244
0.15121539
0.15146208
0.1515001
0.151009
0.15114251
0.15118114
0.15121964
0.15101988
0.15100076
0.150697
0.15047571
0.14953007
0.14846812
0.14776703
0.14878094
0.1542868
0.15337079
0.15403748
0.15517803
0.15611611
0.15637812
0.15665409
0.15671875
0.15690985
0.15687802
0.15689425
0.15677392
0.15722997
0.15720564
0.15701126
0.15719448
0.15775287
0.15774106
0.15769307
0.15812111
0.15850794
0.15835681
0.15877218
0.15913603
0.1592891
0.15932764
0.15959218
0.1600487
0.16037682
0.16039366
0.16072031
0.16076371
0.16086817
0.16176162
0.16730847
0.16648722
0.16642814
0.16646273
0.16619277
0.16621171
0.1658429
0.16539129
0.16518211
0.16514494
0.16493341
0.16455561
0.1641724
0.16427642
0.1639476
0.16352321
0.16353174
0.16357827
0.16295988
0.16282078
0.16297274
0.16295163
0.16254718
0.16267175
0.16259229
0.16265391
0.16244149
0.16232233
0.16207086
0.1618108
0.1608561
0.15965777
0.15900211
0.15987481
0.16543776
0.16465488
0.16527076
0.16649245
0.16750902
0.16776857
0.1679729
0.16811958
0.16840364
0.16834839
0.16839844
0.16832612
0.16871305
0.1687395
0.16864081
0.16877176
0.16935896
0.16931738
0.16935609
0.16973109
0.17005133
0.16999755
0.17032859
0.17073008
0.17100621
0.17104612
0.17117742
0.17163521
0.1720519
0.17199653
0.172192
0.17210042
0.17211567
0.17289519
0.17845987
0.17774308
0.1777642
0.17789885
0.17777911
0.17787586
0.17742857
0.17693949
0.17689696
0.17685906
0.17652531
0.17607928
0.17581376
0.17581661
0.17550824
0.17518262
0.17510066
0.17510514
0.17457329
0.17445366
0.17450161
0.17450091
0.1741025
0.17409474
0.17408945
0.17413813
0.17379268
0.17359819
0.17344999
0.17319462
0.1721284
0.1708663
0.17030432
0.17102014
0.17659801
0.17594927
0.17645798
0.17774493
0.17885718
0.17910792
0.17920982
0.17943972
0.1798469
0.17980858
0.17977674
0.17985799
0.18027536
0.1802831
0.1802558
0.18036381
0.18086028
0.18086132
0.18099786
0.18126591
0.1815667
0.18161275
0.18181957
0.18229838
0.18269656
0.18272897
0.18268901
0.1831974
0.18367399
0.18354071
0.18358928
0.18341901
0.18336387
0.18404713
0.1895931
0.18896856
0.18905059
0.18924804
0.18927527
0.18945563
0.18894313
0.18843995
0.18854535
0.18849676
0.18805456
0.1875635
0.1874023
0.18728553
0.18700503
0.1867812
0.18660431
0.18664698
0.18613206
0.18602747
0.18603921
0.18603657
0.18558676
0.18545859
0.1855098
0.18553808
0.18506213
0.18482142
0.18474723
0.18450552
0.18334219
0.18205672
0.18159598
0.1821761
0.18768493
0.18717413
0.187665
0.18894834
0.19006424
0.19030186
0.19043408
0.19068658
0.19113565
0.19112747
0.19113934
0.19127992
0.19169238
0.19170703
0.19176087
0.19186186
0.1923425
0.19229812
0.19252415
0.1927036
0.19296652
0.19311064
0.19330836
0.19376491
0.19424551
0.19427491
0.19419173
0.19469389
0.1951433
0.19492425
0.19487418
0.19465331
0.19454798
0.19513911
0.20062018
0.20008293
0.20020802
0.20044607
0.2005202
0.20075408
0.20038116
0.19989041
0.1999495
0.19994913
0.199414
0.19900341
0.19877202
0.19858992
0.19834926
0.19822312
0.19793162
0.19796282
0.19752769
0.19743486
0.19732357
0.19727248
0.19691014
0.19676528
0.19669404
0.19665503
0.19625101
0.19599167
0.19580476
0.19554833
0.19449657
0.19323015
0.19271642
0.19317993
0.19859452
0.19819978
0.19873867
0.19998699
0.20097092
0.20123328
0.20147882
0.20175618
0.20211141
0.20218805
0.20232235
0.20248279
0.20279175
0.20286891
0.20304157
0.20313371
0.20352206
0.20353455
0.20382131
0.20396378
0.20415376
0.20436155
0.20463603
0.20502639
0.20553439
0.20554643
0.20551853
0.20600417
0.20629918
0.20605042
0.20596421
0.20570533
0.20556446
0.20607524
0.21143997
0.21097843
0.21113254
0.21140924
0.2115074
0.21176198
0.21154659
0.21105752
0.21105868
0.21101111
0.21055755
0.21017936
0.20987653
0.20963775
0.20950712
0.20932968
0.20906708
0.20900176
0.20865437
0.2085743
0.20833731
0.20823238
0.20796734
0.20780298
0.20760357
0.20748788
0.20717253
0.20688939
0.20658259
0.20631591
0.2054032
0.20417022
0.20361955
0.20396658
0.20925568
0.20895495
0.20951368
0.21069413
0.2115762
0.21187463
0.21216892
0.21249195
0.21279867
0.21296451
0.21315276
0.21335619
0.21360792
0.21375183
0.21397762
0.21408157
0.21439027
0.21446599
0.21476805
0.21492052
0.21502519
0.21528904
0.21561964
0.21595251
0.21639337
0.21646639
0.2164929
0.21695189
0.21716142
0.21690793
0.21676867
0.21647285
0.21631053
0.21674891
0.22193944
0.221545
0.2217121
0.22201653
0.22220095
0.22243458
0.22224014
0.22180814
0.22176324
0.22165691
0.22122657
0.2209513
0.22058745
0.22029761
0.2202175
0.22010155
0.21975212
0.21966599
0.21939326
0.21926323
0.21905698
0.21890781
0.21864442
0.21838448
0.21821265
0.21802795
0.21771036
0.21733214
0.21705469
0.21672453
0.21587368
0.21475147
0.21419812
0.21446846
0.2195492
0.2193187
0.21987245
0.22092954
0.2217476
0.22211283
0.22239745
0.22276381
0.22312349
0.22333521
0.22351715
0.22376765
0.22407719
0.22424361
0.22445701
0.22458775
0.22484116
0.2249469
0.22527608
0.22538835
0.22546888
0.22579196
0.22612593
0.22640387
0.22681156
0.22692626
0.22699214
0.22739076
0.22756598
0.22736579
0.22714579
0.22683546
0.22666858
0.22704295
0.23199974
0.23166439
0.2318281
0.23213803
0.23239802
0.23254659
0.23238947
0.23202569
0.23194621
0.23185599
0.23144238
0.2311493
0.23085934
0.23052542
0.23042229
0.23030025
0.22999674
0.22989231
0.22963816
0.22950072
0.22928089
0.22910566
0.22875103
0.22851252
0.22832761
0.22809486
0.22768054
0.22732841
0.22704791
0.22666223
0.2258589
0.22486158
0.22432274
0.22456868
0.23399225
0.23416078
0.23438386
0.23452868
0.23480288
0.23488448
0.23515944
0.23529296
0.23541714
0.23573298
0.23603591
0.2363207
0.23670441
0.23679474
0.23689475
0.23722308
0.23736203
0.23723885
0.23697577
0.23666855
0.23651415
0.23683784
0.24152613
0.24123614
0.24137932
0.24167419
0.24192027
0.2420283
0.24189045
0.2415905
0.24147103
0.24138412
0.24102093
0.24075074
0.24043645
0.24014017
0.23999379
0.23985111
0.23959842
0.24164603
0.23696976
0.23214602
0.2271872
0.22210399
0.21691409
0.2116301
0.20626991
0.2008457
0.19537436
0.18986195
0.18433137
0.17879084
0.17325254
0.16771789
0.16220042
0.15670581
0.15124486
0.1458214
0.14044685
0.13512412
0.12986274
0.12466508
0.11954019
0.11448105
0.10948181
0.10455685
0.099732229
0.09499929
0.090365487
0.085838788
0.081424797
0.077103443
0.072861093
0.074044866
0.078426375
0.07673241
0.072558145
0.072994781
0.077386163
0.074763629
0.070549202
0.072516777
0.077063165
0.075131006
0.070808742
0.071522514
0.071421446
0.072317902
0.07376952
0.07164116
0.072042426
0.071223905
0.075538209
0.07347012
0.069358151
0.071191256
0.075629701
0.076419994
0.076123091
0.07611503
0.07193778
0.071224744
0.069397857
0.067432849
0.071878422
0.072341804
0.068101065
0.069057657
0.0735563
0.073903832
0.07564713
0.075120028
0.070925242
0.073468646
0.074185166
0.073908164
0.078351975
0.078157806
0.07691463
0.078449481
0.074128176
0.071314067
0.075993108
0.076087136
0.076111946
0.075292332
0.07097166
0.071702738
0.074038512
0.074548811
0.079093083
0.07868622
0.078134306
0.078388878
0.074043104
0.073940767
0.078616911
0.078661889
0.076448323
0.076778451
0.072351944
0.073700623
0.074528563
0.074208539
0.07436875
0.071420321
0.07032025
0.068743193
0.07305884
0.071219554
0.067135615
0.07005776
0.074478432
0.074726758
0.075963719
0.076654153
0.072438005
0.071253603
0.068371241
0.066135873
0.070656554
0.070906913
0.06665098
0.067255781
0.071742748
0.072916599
0.075710748
0.073899002
0.069772435
0.073770264
0.074114877
0.074747634
0.079321975
0.079071533
0.078946352
0.079596478
0.07520904
0.07423213
0.079034377
0.079384752
0.078573104
0.079026486
0.074524615
0.072888964
0.072902686
0.073685084
0.078369813
0.078772312
0.078374771
0.079039959
0.074654036
0.072201692
0.076952404
0.077717042
0.077715542
0.076858818
0.072439316
0.071525568
0.072450266
0.073912611
0.073218049
0.07039526
0.068637197
0.066933469
0.071380914
0.070210183
0.066092989
0.067971371
0.072391095
0.0731485
0.074938369
0.075189113
0.070986755
0.070143674
0.067826305
0.065380181
0.069807173
0.070032485
0.065900942
0.067841962
0.072268661
0.072309415
0.074679034
0.075191171
0.070924256
0.072226416
0.073299141
0.073380954
0.077948313
0.077825801
0.078613871
0.07907225
0.074716931
0.072198898
0.076955769
0.077262797
0.076304321
0.076044062
0.07164122
0.07037431
0.071611644
0.0732295
0.077899557
0.077915931
0.076798431
0.077468942
0.073100264
0.070458551
0.075224363
0.076424654
0.075131854
0.074604187
0.070188669
0.069217133
0.07077207
0.071838267
0.071532605
0.068991343
0.067974393
0.066061641
0.070495788
0.069633233
0.065502792
0.067434935
0.071875022
0.072515563
0.073535099
0.074075767
0.069819199
0.068371541
0.066096411
0.063873975
0.06826737
0.069652605
0.065467678
0.066197716
0.070595476
0.07054228
0.072895836
0.072957361
0.068707288
0.069403451
0.070825603
0.070558052
0.075128687
0.07616577
0.076538105
0.075599148
0.071274754
0.069728901
0.074470232
0.075588362
0.073963975
0.073946933
0.069549133
0.068911348
0.070239573
0.07107007
0.07572614
0.075451463
0.073987457
0.07535917
0.071060066
0.069459668
0.074126195
0.075017576
0.073657343
0.073506688
0.06915668
0.069798672
0.070550597
0.070046234
0.070254478
0.069459433
0.070921729
0.071573068
0.073071845
0.073270228
0.073608152
0.074098231
0.074865383
0.073077418
0.074339096
0.073922964
0.073734147
0.073078621
0.077636408
0.074896876
0.070633544
0.066252995
0.070607018
0.061079107
0.057401726
0.045476345
0.04053892
0.043821562
0.047262658
0.050904575
0.054739574
0.058720226
0.062833872
0.06709255
0.071437088
0.075886659
0.080437324
0.085084582
0.08982604
0.094654972
0.099569142
0.10458139
0.10967668
0.11483606
0.12007223
0.12532475
0.13062445
0.13597413
0.14137034
0.14682755
0.15233281
0.15786329
0.16343468
0.16898562
0.17455075
0.1801356
0.18574163
0.19138411
0.19705356
0.20273592
0.24279753
0.23815275
0.23335679
0.22842145
0.2233595
0.21818698
0.21291823
0.20756927
0.20215539
0.19668978
0.19118338
0.18566453
0.18013362
0.17460248
0.16906842
0.16353532
0.15802234
0.15254561
0.14710752
0.14172043
0.1363878