/*--------------------------------*- C++ -*----------------------------------*\
| =========                 |                                                 |
| \\      /  F ield         | OpenFOAM: The Open Source CFD Toolbox           |
|  \\    /   O peration     | Version:  v2012                                 |
|   \\  /    A nd           | Website:  www.openfoam.com                      |
|    \\/     M anipulation  |                                                 |
\*---------------------------------------------------------------------------*/
FoamFile
{
    version     2.0;
    format      ascii;
    class       volScalarField;
    location    "100";
    object      nut;
}
// * * * * * * * * * * * * * * * * * * * * * * * * * * * * * * * * * * * * * //

dimensions      [0 2 -1 0 0 0 0];


internalField   nonuniform List<scalar> 
19664
(
0.0025402438
0.0024732098
0.0024049852
0.0023356401
0.0022652591
0.0021939574
0.0021218811
0.0020491652
0.0019759505
0.0019023916
0.001828647
0.0017548986
0.0016813265
0.0016081022
0.0015354135
0.0014634476
0.0013923965
0.0013224546
0.0012538128
0.0011866576
0.0011211674
0.0010575098
0.00099584008
0.00093631024
0.00087905244
0.0008242239
0.00077194054
0.00072248409
0.00067563809
0.00063189236
0.00059076237
0.00055296794
0.00051858534
0.00048585216
0.00045212954
0.00038034876
0.00053937576
0.00058787908
0.00064387471
0.000629052
0.00069885001
0.00066222191
0.00071083457
0.00072335351
0.00080914016
0.00089580414
0.0011332888
0.00089380135
0.00088092376
0.00091075696
0.0011438589
0.00095939463
0.001188309
0.0010457959
0.0012914068
0.0010775271
0.00097668144
0.00064579871
0.00049476681
0.00049939775
0.0011041574
0.0026848067
0.0047723277
0.0053786003
0.0062504424
0.0060030154
0.0065241291
0.005855504
0.0056938456
0.0058832197
0.0062723764
0.0058065868
0.0056598525
0.0057250307
0.0057401137
0.0057882119
0.005793402
0.0057448624
0.0058717001
0.0058126091
0.005770868
0.0055372742
0.0056022771
0.0058321934
0.0065162376
0.0058272424
0.0054963499
0.0054241607
0.0055507118
0.0056444166
0.0055905336
0.0055044675
0.0055568774
0.005541375
0.0055354274
0.0054995909
0.0054508048
0.0054799462
0.00550453
0.0054343433
0.0055001976
0.0055979157
0.0055030131
0.0054401793
0.0055157887
0.0056047323
0.005555839
0.0055297036
0.0056083138
0.0056926582
0.00563007
0.0055784747
0.0056660443
0.0058023638
0.0057532066
0.0057708341
0.0059215248
0.0061126782
0.0064382729
0.0071204262
0.0067487875
0.0071328405
0.0066796619
0.0069958763
0.006374667
0.0069794624
0.0063381232
0.0069157639
0.006030816
0.005862995
0.0042447102
0.0027514843
0.0015684267
0.00095561857
0.0009562831
0.0019062039
0.003245391
0.0044860679
0.0055572275
0.0061728975
0.0065722987
0.0063069706
0.0065848757
0.0063658192
0.0067027771
0.006750704
0.0069615966
0.0068387182
0.0065898441
0.0066905702
0.0066147424
0.0068364545
0.006628935
0.0064592332
0.0063987994
0.0066611194
0.0063037132
0.0056270161
0.0046694131
0.0035196329
0.0022020157
0.0012525847
0.0013311404
0.0023574601
0.0036608532
0.0045754674
0.0056618932
0.0065611539
0.0066852238
0.0063595595
0.006446647
0.0068941137
0.0068707793
0.0066729061
0.0065848968
0.0063857955
0.0061025655
0.0063462998
0.0065262085
0.0069007628
0.0069028691
0.00678872
0.0064511054
0.0067420032
0.0067074735
0.0060385642
0.0049891891
0.0039287063
0.0026133558
0.0014768634
0.0014902689
0.0026717763
0.0039374633
0.0049064824
0.0059687904
0.0065230667
0.0065777126
0.0065686334
0.0067855343
0.0068762483
0.0068181063
0.0065198432
0.0063040087
0.0061991561
0.0062589318
0.0064581204
0.0065813766
0.006948703
0.0068846275
0.0068902469
0.006734683
0.0068295743
0.0066532602
0.0059872549
0.0050316043
0.0040529255
0.0026700675
0.0016003063
0.0015767017
0.0026406037
0.0040497827
0.0049232077
0.005847161
0.0064517202
0.0067590168
0.0068827201
0.0068708705
0.0070538263
0.0069923627
0.0067527399
0.0064305634
0.0060902612
0.0059329072
0.0062068201
0.0065399979
0.0069330462
0.0068400701
0.0066983756
0.0066587524
0.0067087707
0.0063516668
0.005799264
0.0050584565
0.004188956
0.0028360496
0.0016877134
0.0016649189
0.0028033949
0.0042016275
0.0050071066
0.0057361222
0.0063014803
0.0066757241
0.006634738
0.0066238496
0.0069951582
0.0068656871
0.0063940942
0.0060779215
0.0060324539
0.0060744412
0.0062737092
0.006467302
0.0068295241
0.0068807912
0.006650296
0.0065083977
0.0066582394
0.0063715577
0.0057821674
0.0049952548
0.004051458
0.0029373916
0.0017907757
0.0017831563
0.0028208185
0.0040318344
0.0049518816
0.005750671
0.0062377347
0.0064913862
0.0065494463
0.0066338859
0.0070305362
0.0068681227
0.0065771992
0.0061989929
0.0059858729
0.0058668628
0.0061713564
0.0064492827
0.0068688322
0.0068154669
0.0065645361
0.0063847894
0.0064138192
0.0061326209
0.005658606
0.004960141
0.0041289069
0.002940348
0.0018527812
0.0017595695
0.002936504
0.004063694
0.005026088
0.0056373654
0.0060433397
0.006245893
0.0063799687
0.0064245663
0.0068137908
0.0067292047
0.0065736142
0.0061847386
0.0059671933
0.0059812903
0.0062065445
0.0062949606
0.0066348819
0.0066417299
0.0064738741
0.0062543379
0.0063525345
0.006025458
0.0057374174
0.0051372701
0.0042550637
0.0031089889
0.001839364
0.0018525914
0.0029514723
0.004183218
0.0049950128
0.005573239
0.0059572934
0.0063308014
0.0063159081
0.0063530283
0.0065897404
0.0065123523
0.0064419663
0.0061579042
0.0059237701
0.0057017594
0.0059821983
0.0062508578
0.0065643172
0.0065647445
0.0064295007
0.0062311632
0.0063950831
0.006014302
0.0056884357
0.005178993
0.0043201747
0.0031498397
0.0018917826
0.0019098761
0.0031663951
0.0043439159
0.0052776482
0.0056925904
0.0061191772
0.0063207435
0.0062900665
0.0063472098
0.0065817661
0.0063685519
0.0063055778
0.0060003078
0.0059259488
0.0061539831
0.0063135312
0.0062105781
0.0064811894
0.0066699869
0.006463826
0.006118111
0.0062712602
0.0060566578
0.0057155038
0.0051122123
0.0044333173
0.0031772862
0.0019240807
0.0019361096
0.0031995223
0.0043580243
0.005033357
0.0054768843
0.005882609
0.0061052643
0.0061573546
0.0064668828
0.0064821903
0.0064532917
0.0064462416
0.0063713098
0.0059361982
0.0057140917
0.0060541292
0.0063595517
0.0067694313
0.0066320225
0.0064491468
0.0061701737
0.0060802774
0.0057433287
0.005509108
0.0049382133
0.0043056667
0.0032845685
0.002143507
0.0019429536
0.0029391045
0.0037913984
0.0043747991
0.0051948159
0.005698645
0.0061545408
0.006194236
0.0065164939
0.0066492821
0.0066679042
0.0064568405
0.0061033886
0.0059490571
0.0058330992
0.0061861648
0.0063821148
0.006629061
0.0066151733
0.0064448902
0.0060706755
0.0060397586
0.0054880177
0.004584842
0.0035671171
0.0028658721
0.0021283669
0.0014985261
0.0009608452
0.0013434534
0.0017339469
0.0027131749
0.0040441161
0.0050020232
0.0057924534
0.0062535063
0.006507343
0.0066975451
0.0066685895
0.0064442528
0.0061796767
0.005850539
0.005902481
0.0062476776
0.0063869093
0.0066219058
0.0065789746
0.0064735697
0.0060942958
0.0056973269
0.0048456837
0.0036605702
0.0022758962
0.0012475662
0.00081595789
0.00067573899
0.00067741424
0.00094657216
0.001481208
0.0024308719
0.0038383476
0.0049111552
0.0057849745
0.0062063941
0.0063683091
0.0067102739
0.0066770101
0.006405142
0.0062353028
0.0058642423
0.0057894535
0.0060969832
0.0062967691
0.0065908874
0.0065442933
0.0062663293
0.0061234036
0.0060553342
0.0054312348
0.0044453489
0.0035159593
0.00276665
0.0021225116
0.0015014977
0.0031618454
0.00373093
0.0042198844
0.0047062033
0.005303626
0.0058235836
0.0063340762
0.0063406789
0.006303825
0.0067301586
0.0066428729
0.0066227469
0.0061704656
0.0059928516
0.0057950377
0.0061115568
0.0063840818
0.0066825741
0.0066691891
0.0064200266
0.0063139522
0.0065835066
0.0063542007
0.0060295633
0.005576254
0.0053099321
0.0051207975
0.0048156093
0.0054203174
0.0056349355
0.0058364804
0.006058082
0.0062808908
0.0064510458
0.006713298
0.0066089142
0.0065228197
0.0069474376
0.0066994331
0.0065958013
0.0061839083
0.006011554
0.0059743799
0.0062408903
0.0064585323
0.0067792644
0.0068551221
0.0066442087
0.006571226
0.0067167095
0.0066536214
0.0065775599
0.0064351506
0.0061537369
0.0059727078
0.0060477268
0.0060580313
0.0061233555
0.0063152853
0.0063187738
0.0064889271
0.0065650904
0.0067434767
0.0066956464
0.0065959526
0.0068999867
0.0066435865
0.0064811611
0.0061356789
0.0059567095
0.0057109787
0.0059698769
0.0061770419
0.0065452033
0.006639396
0.0065257591
0.0064289406
0.0067126954
0.0067126245
0.0066626352
0.0065699986
0.0063596042
0.006332308
0.0064368674
0.0059852583
0.0060887484
0.0062867053
0.0064695902
0.0065437757
0.0064448526
0.0066413082
0.0065102852
0.0063801424
0.006578263
0.0062839581
0.0061507923
0.005899003
0.005820485
0.0059764162
0.0059397329
0.0059990179
0.0062151239
0.0063678893
0.0063151532
0.0062279971
0.0063411476
0.0063984872
0.0063523892
0.0063339248
0.0060198896
0.0060366543
0.0060907309
0.0065337676
0.0061507629
0.0066431137
0.0071591128
0.0076981775
0.0082607136
0.0088455605
0.0094468074
0.010071003
0.010712421
0.011372646
0.012051158
0.012747243
0.013465293
0.014196823
0.014941188
0.015700917
0.016475356
0.017260502
0.018044255
0.018833433
0.019622195
0.020413173
0.021196754
0.021970527
0.022738752
0.023491005
0.024226712
0.024945361
0.025642071
0.026303201
0.026929669
0.027526585
0.029092403
0.028618675
0.028108486
0.027563702
0.026985895
0.026377715
0.025741321
0.025079916
0.024396082
0.023693301
0.022974332
0.022242698
0.021501156
0.020753073
0.020001019
0.019248039
0.018496426
0.01774885
0.017007288
0.016274001
0.015550639
0.014839056
0.014140573
0.01345663
0.012788176
0.012136145
0.011501102
0.010883091
0.010283655
0.0097017598
0.0091408552
0.0085974075
0.0080722322
0.0075732816
0.0072190526
0.0077293621
0.0082592075
0.0088069989
0.0093735007
0.0099593223
0.010563771
0.011186637
0.011827354
0.012485292
0.01315984
0.013849958
0.014554751
0.015272934
0.016003048
0.016743454
0.017492322
0.018247637
0.019007193
0.019768598
0.020529311
0.021286635
0.022037711
0.022779484
0.023508781
0.024222368
0.024917086
0.025589792
0.026237426
0.026857118
0.027446438
0.028002799
0.028524596
0.029015537
0.029121176
0.028643439
0.028130128
0.027582343
0.02700182
0.026390785
0.025751777
0.025087616
0.024401311
0.023696004
0.022974521
0.022240759
0.02149782
0.020748663
0.019995684
0.019241836
0.018489684
0.017741739
0.017000254
0.016267343
0.015544863
0.014834536
0.014137867
0.013456433
0.012791072
0.01214265
0.011511427
0.010897974
0.010302608
0.0097257564
0.0091677738
0.0086275425
0.0081025348
0.0075972137
0.0071600685
0.007685385
0.0082321813
0.0087966647
0.0093807395
0.0099829632
0.010603799
0.011246071
0.011900288
0.012570997
0.013258432
0.013961628
0.014679445
0.015410447
0.016153045
0.016905488
0.01766592
0.018432036
0.019202161
0.01997315
0.020742919
0.021508201
0.022266304
0.023013747
0.023747881
0.024465366
0.02516246
0.025835933
0.026482806
0.027100182
0.027685922
0.028237284
0.028752893
0.029236736
0.02941702
0.028943235
0.028431462
0.027883834
0.027301822
0.026687769
0.026043242
0.025371484
0.024675197
0.0239579
0.023222701
0.022473812
0.021714227
0.020947304
0.020175261
0.019401437
0.018628344
0.017858837
0.01709521
0.016340298
0.015595978
0.014864167
0.014146293
0.013443851
0.012757693
0.012089164
0.011438949
0.010811615
0.010205662
0.0096202841
0.009054848
0.0085088237
0.0079803907
0.0074711422
0.006860301
0.0073933297
0.0079479215
0.0085209444
0.0091145637
0.0097276196
0.010360808
0.01101613
0.011685918
0.01237513
0.013085804
0.013812593
0.014554286
0.015309151
0.016076067
0.016853323
0.017638756
0.018429752
0.019224461
0.020019552
0.020812783
0.021600211
0.02237895
0.02314606
0.023898388
0.024631797
0.025344386
0.026032354
0.026693152
0.027322866
0.027919693
0.02848137
0.02900647
0.029495544
0.029562688
0.029075992
0.028551695
0.027995806
0.027407622
0.026786318
0.026133125
0.025458881
0.0247631
0.024045219
0.023306136
0.022557781
0.021799711
0.021031395
0.020253327
0.019478272
0.018705465
0.017934213
0.017164358
0.016407433
0.015662309
0.014927871
0.014202981
0.013492261
0.01279752
0.012120514
0.011462363
0.01082783
0.010215389
0.0096237363
0.0090510155
0.0085024436
0.007972672
0.0074583032
0.0068249533
0.0073559518
0.0079082155
0.0084781687
0.0090680701
0.009676508
0.010304077
0.010952623
0.011614756
0.012295369
0.012996666
0.01371332
0.014444424
0.015187894
0.015942562
0.016706475
0.017478625
0.018255433
0.019035244
0.019815445
0.020594646
0.02136832
0.022134474
0.022889899
0.023632961
0.024359002
0.025065043
0.025748923
0.026408793
0.027040562
0.027642657
0.028212989
0.028750381
0.029255067
0.028498402
0.028005841
0.027483989
0.026933721
0.026355882
0.025752778
0.025126234
0.024478404
0.023811063
0.023127399
0.022429131
0.021719048
0.020999709
0.020274263
0.019545185
0.018814936
0.018085368
0.017359333
0.016638301
0.015924341
0.015219204
0.01452458
0.013841993
0.013172868
0.012518695
0.011880509
0.011258103
0.010649643
0.010058349
0.0094852891
0.008930961
0.0083963329
0.0078797159
0.0073807093
0.006480533
0.0069645783
0.0074639283
0.007980194
0.0085127019
0.0090633583
0.0096292665
0.010211866
0.010812681
0.011427827
0.012056341
0.012697415
0.013350155
0.014011941
0.01468233
0.015361988
0.01604206
0.01672705
0.017418703
0.018110874
0.018801373
0.019487046
0.020166557
0.020839714
0.021497156
0.022142634
0.022777937
0.023397093
0.023997856
0.024577905
0.025136572
0.02567344
0.02618307
0.026670213
0.023592505
0.023156229
0.022701524
0.022231824
0.021746135
0.021243713
0.020723503
0.020188425
0.019640078
0.019080817
0.018512186
0.017939477
0.017362122
0.016779654
0.016191039
0.015600099
0.015009053
0.014419914
0.013834597
0.013257924
0.012689452
0.012128237
0.011573228
0.011030857
0.010500348
0.0099816239
0.0094743571
0.0089773249
0.0084929639
0.0080221493
0.0075655675
0.0071240739
0.0066960305
0.0062804451
0.0045804043
0.0049289134
0.0052847292
0.0056547093
0.006038816
0.0064372786
0.0068472635
0.0072693352
0.0077039387
0.0081484871
0.0086022186
0.0090641971
0.0095339758
0.010009282
0.010489669
0.010975677
0.011461543
0.011949971
0.012441859
0.012932835
0.013422094
0.013907368
0.014388046
0.01486444
0.015330569
0.015789069
0.016241241
0.016682829
0.017113253
0.017531069
0.017936211
0.018329011
0.018705836
0.01906887
0.027537112
0.026972086
0.026374316
0.025744341
0.02508723
0.02440509
0.023701734
0.022979654
0.022242858
0.021492846
0.020735184
0.01997223
0.019206658
0.01844215
0.01768184
0.016927601
0.016182178
0.01544645
0.014723686
0.01401511
0.013322392
0.012645912
0.011987185
0.011346689
0.010725169
0.01012292
0.0095414479
0.0089791365
0.0084397743
0.007918804
0.0074168733
0.006942756
0.006266753
0.005943284
0.0058889748
0.0060080306
0.0061134832
0.0060503672
0.0059732398
0.0060164962
0.0060051736
0.0059934479
0.0059580933
0.0059084018
0.0059397137
0.005961123
0.0058964539
0.0059611147
0.0060518005
0.0059608507
0.0059033325
0.0059738593
0.0060697816
0.0060163694
0.0059967111
0.0060710042
0.0061583882
0.0060926476
0.0060503221
0.0061314085
0.0062685061
0.0062276414
0.006248124
0.0063964912
0.0065827005
0.0069024453
0.0074146963
0.0070969097
0.0069077809
0.0067654528
0.0067376563
0.0067764297
0.0066371777
0.0065630244
0.0065967972
0.0066635693
0.0065765504
0.0065034459
0.0065193137
0.0065758377
0.0064736714
0.0064080191
0.0064600733
0.0065439948
0.006461196
0.0064000184
0.0064589441
0.0064420806
0.0064070962
0.0064577748
0.0064943296
0.0065114063
0.0065181637
0.0064834108
0.0065510265
0.0066168324
0.0065028238
0.0063863833
0.0064313983
0.0067556946
0.0072669891
0.0069436523
0.0069080488
0.0070217507
0.0071430953
0.0070754042
0.0070179149
0.0070448163
0.007042346
0.0070241417
0.0069788687
0.0069343681
0.0069658544
0.006982019
0.0069282937
0.0069867028
0.0070633305
0.0069842656
0.0069374387
0.0069985562
0.0071074942
0.0070469025
0.0070342894
0.0071066171
0.0071929309
0.0071250614
0.0071008621
0.0071710482
0.0073032258
0.0072715838
0.0073085035
0.0074482037
0.0076321987
0.007951803
0.0085041456
0.0081872077
0.0080121026
0.0078733731
0.0078307025
0.00785411
0.007729446
0.0076606118
0.0076782867
0.0077478095
0.0076611567
0.0075906479
0.0075990984
0.0076623038
0.0075487433
0.0074888628
0.0075338686
0.0076079766
0.0075370002
0.0074795107
0.007530145
0.0075143261
0.0074861189
0.0075255689
0.0075769221
0.0075959272
0.0075961446
0.0075752427
0.0076240525
0.0076914425
0.0075651332
0.0074508836
0.0074778784
0.0077976688
0.0083470752
0.0080319547
0.0080153695
0.0081302274
0.0082626768
0.0081949585
0.0081558
0.0081701542
0.0081727132
0.0081531459
0.0080941506
0.0080576453
0.0080900285
0.0081013579
0.0080539877
0.0081067774
0.0081768478
0.0081062982
0.0080632699
0.0081214394
0.0082402048
0.0081781557
0.0081651544
0.0082423204
0.0083212618
0.0082539422
0.0082426908
0.0083068241
0.0084283253
0.0084117937
0.008460084
0.0085935551
0.0087627571
0.0090773024
0.0096674203
0.0093588172
0.009196516
0.0090704496
0.009015385
0.0090248195
0.0089084756
0.0088498959
0.0088521104
0.0089152837
0.0088463758
0.0087617528
0.0087789387
0.0088417093
0.0087179664
0.0086622545
0.008701864
0.0087683312
0.0087001335
0.0086513475
0.0086964614
0.0086879084
0.0086537559
0.0086845685
0.0087522134
0.0087721701
0.0087678884
0.0087592136
0.0087895592
0.0088581843
0.0087179611
0.0086036124
0.0086076884
0.0089181599
0.009506748
0.0092075927
0.0092096227
0.0093306475
0.0094712524
0.0094052735
0.0093849889
0.0093869626
0.0093944561
0.0093741177
0.0092980595
0.0092715872
0.0093085048
0.0093132103
0.0092715392
0.0093149827
0.0093822829
0.0093231272
0.0092799352
0.0093407183
0.0094610237
0.0094019659
0.0093815921
0.0094732061
0.0095337701
0.0094752208
0.0094729103
0.0095317754
0.0096474937
0.0096436758
0.0096978077
0.0098235614
0.0099758397
0.010279413
0.010907351
0.010614163
0.010473214
0.01034728
0.010294665
0.010288975
0.01017824
0.010116623
0.010122888
0.010180907
0.010122476
0.010026826
0.010048166
0.010103938
0.0099856265
0.0099208491
0.0099677875
0.010017572
0.0099526314
0.0099136981
0.0099531052
0.0099531601
0.00991273
0.0099378478
0.010018289
0.010038755
0.010029359
0.010032532
0.010044378
0.010107025
0.0099662995
0.0098379312
0.0098303109
0.010121648
0.010756007
0.01046911
0.010490914
0.010617916
0.010766026
0.010703219
0.010701794
0.010691621
0.010704747
0.010684831
0.010598696
0.010580421
0.010614864
0.010613659
0.010578092
0.010610614
0.010674262
0.010629071
0.010587599
0.010653028
0.010765109
0.010710644
0.010697825
0.010793629
0.010841892
0.010785208
0.01078159
0.01085032
0.010950733
0.010960809
0.011021124
0.011137616
0.011274327
0.011556519
0.0122198
0.011955717
0.011821106
0.011715163
0.011648338
0.011632041
0.011543565
0.011466936
0.011466381
0.011521874
0.011483863
0.011389861
0.011394703
0.011445482
0.011339819
0.011275537
0.01131262
0.011351172
0.011290316
0.01126164
0.01129696
0.011298416
0.011267794
0.0112815
0.011370823
0.01139121
0.011373998
0.011389419
0.011383037
0.011444369
0.011289295
0.011164109
0.011127516
0.01141273
0.012088494
0.011808765
0.011857639
0.011983906
0.012145285
0.012086678
0.012095823
0.012079493
0.01209765
0.012076761
0.01198914
0.011975533
0.012007029
0.011999094
0.011964214
0.011988707
0.012048481
0.012015232
0.01198421
0.012046729
0.012145514
0.012097081
0.01210194
0.012193652
0.012221805
0.012167618
0.012176188
0.012257138
0.012335489
0.012353382
0.012427936
0.012526034
0.012647352
0.01290312
0.013598539
0.013353708
0.013248977
0.013158108
0.01307797
0.013065688
0.012990159
0.01290323
0.012893227
0.012940608
0.012923163
0.012832777
0.012819536
0.012864239
0.012774454
0.012710869
0.012739215
0.012764921
0.012707241
0.012688387
0.012721013
0.01273503
0.012703302
0.012716003
0.012802662
0.012822373
0.012804256
0.012822595
0.012808082
0.012855707
0.012698407
0.012567973
0.012509705
0.012779151
0.013481481
0.013221403
0.013293995
0.013423741
0.013581909
0.013546711
0.013557308
0.013539457
0.013564737
0.01353925
0.013460513
0.013441868
0.01348113
0.013466324
0.013422616
0.013442691
0.013500315
0.013479963
0.013454898
0.013513781
0.013601243
0.013557971
0.013580941
0.013663655
0.013677263
0.013635589
0.013650372
0.013741338
0.013805676
0.013817642
0.013904579
0.01398117
0.014075463
0.014312353
0.015036037
0.014810817
0.014728272
0.014664225
0.014574551
0.01455959
0.014507043
0.01441167
0.014394766
0.014430111
0.014421038
0.014344931
0.014313916
0.014353321
0.014270319
0.014217572
0.014237648
0.014252755
0.01419594
0.014171075
0.014226464
0.014242998
0.014197408
0.014221282
0.014292763
0.014321431
0.014292024
0.014305648
0.014300029
0.014322794
0.014165676
0.014037141
0.013949888
0.014203332
0.014941182
0.014698043
0.014788329
0.014927332
0.015081073
0.01506704
0.015068603
0.015056935
0.015091429
0.015058873
0.014996753
0.014965877
0.015019901
0.015001272
0.014935145
0.014963452
0.01502492
0.015015344
0.014988768
0.015047138
0.015123267
0.015082662
0.015123556
0.01519179
0.015198414
0.015173103
0.015188697
0.015286657
0.015332472
0.015343228
0.015435417
0.015486516
0.015558833
0.015775619
0.016521678
0.016317042
0.016257941
0.016220558
0.016124803
0.016123867
0.016081134
0.015982576
0.015967548
0.015979662
0.015976475
0.015913302
0.015866129
0.015915245
0.015837564
0.015773436
0.01580769
0.015815393
0.015746206
0.015716791
0.015790541
0.015807623
0.015748618
0.015784692
0.015838543
0.015876637
0.015835093
0.015847112
0.015849181
0.015860807
0.015702194
0.015553365
0.015459303
0.015693168
0.01645082
0.016231845
0.016326362
0.016488477
0.016642372
0.016633825
0.016640482
0.016630088
0.016664239
0.01662722
0.016583817
0.016539995
0.016604468
0.016583066
0.016515506
0.016538633
0.016616952
0.016603392
0.016574826
0.016639492
0.016708371
0.016657993
0.016712265
0.016770581
0.016776822
0.016764054
0.016784445
0.01687666
0.016925477
0.016921774
0.017005938
0.017034932
0.017084333
0.017280359
0.01804144
0.017857666
0.017816413
0.017794466
0.017725441
0.017734905
0.017680215
0.017595056
0.01756971
0.017588217
0.017574597
0.017520148
0.017458461
0.017506871
0.017447389
0.017384866
0.017408203
0.017425551
0.017341141
0.01732337
0.017384805
0.017412135
0.017340045
0.017389373
0.017425821
0.017456979
0.017431084
0.017442727
0.017426772
0.017429453
0.017281189
0.017104652
0.01701355
0.017221436
0.017994049
0.017802784
0.017888704
0.018079341
0.018227323
0.018231424
0.018241991
0.018236972
0.018260375
0.018228616
0.018199724
0.018152177
0.018217229
0.018190972
0.018137646
0.018147463
0.018238696
0.018216661
0.018200772
0.018260818
0.018311363
0.018270925
0.018325676
0.018382129
0.018405567
0.018387696
0.018402777
0.018487246
0.018549256
0.018533853
0.018587301
0.018601882
0.018635158
0.018811089
0.019578408
0.01941448
0.019389085
0.019388056
0.019344206
0.019365343
0.019297261
0.019214105
0.019207997
0.019225935
0.019193107
0.019135234
0.019086219
0.019118411
0.019077795
0.019019312
0.019028695
0.019057007
0.018957079
0.018955049
0.019001863
0.01902189
0.018966548
0.019015155
0.019035032
0.01907289
0.019047269
0.019044609
0.019038459
0.019034271
0.018882857
0.018682021
0.018597329
0.018780507
0.019561604
0.019394808
0.019473398
0.019678612
0.019840748
0.019845246
0.019843205
0.019849247
0.019885386
0.01984744
0.019821258
0.01978116
0.019832241
0.019811718
0.019773464
0.019773588
0.019866951
0.019838971
0.019837554
0.019886759
0.019925411
0.019902083
0.01994183
0.020002633
0.020045895
0.020028598
0.020021911
0.020105463
0.020180672
0.020153592
0.020184441
0.020175504
0.020193089
0.020349464
0.021112862
0.020967912
0.020957147
0.020973972
0.020956276
0.020989919
0.020911149
0.020823317
0.020844111
0.020861558
0.020809367
0.020742449
0.020713751
0.020728223
0.020692467
0.020652288
0.020646636
0.020668919
0.020586171
0.020588405
0.020618454
0.020644133
0.020592906
0.020620334
0.020654789
0.020692516
0.020648269
0.020635391
0.020646612
0.020642166
0.020472215
0.020260104
0.020189653
0.020343462
0.021120884
0.020980072
0.021042635
0.021258467
0.021435331
0.021439765
0.021421258
0.021438786
0.021491111
0.021454358
0.021413157
0.021397287
0.021449501
0.021424223
0.021397532
0.021392949
0.021468295
0.02144638
0.021461032
0.02149071
0.021524336
0.021518315
0.021537233
0.021607955
0.021670146
0.02165194
0.021618371
0.021708082
0.021789999
0.021750595
0.021755924
0.02173232
0.021736554
0.021874466
0.022622522
0.022496036
0.022497305
0.022526395
0.022534226
0.022581013
0.022495197
0.022407779
0.022450922
0.022466212
0.022397996
0.022326887
0.022315281
0.022309551
0.022280413
0.022258588
0.02223777
0.022267143
0.022190297
0.022195964
0.022220178
0.022246924
0.02219155
0.022200421
0.02224513
0.022281038
0.022219737
0.022201488
0.022223895
0.022220269
0.022036099
0.021821282
0.021765435
0.021892524
0.022645977
0.022532494
0.022594748
0.022807962
0.02298247
0.022986351
0.02297454
0.022993647
0.023047731
0.023014584
0.022980305
0.022972602
0.023019553
0.022994258
0.022980832
0.022974076
0.02304332
0.023013744
0.023042038
0.023055928
0.023081263
0.023091247
0.023109235
0.023172817
0.023246046
0.023227697
0.02318968
0.023275202
0.023348322
0.023295837
0.023283643
0.023249681
0.023243467
0.023362448
0.024082477
0.023974543
0.023985129
0.024022933
0.02404003
0.024094051
0.024035337
0.023953624
0.023986563
0.024009372
0.023928808
0.023874289
0.023850796
0.023834826
0.023814044
0.023809359
0.023771315
0.023798623
0.023738671
0.023746969
0.023751547
0.023771296
0.023734512
0.023742093
0.023767162
0.023793016
0.023748732
0.023729324
0.023731759
0.023723706
0.023561372
0.023352642
0.023285641
0.023388912
0.024109014
0.024019369
0.02409139
0.024294952
0.02444459
0.024454577
0.024462099
0.024483628
0.024517836
0.024497523
0.024482235
0.024476617
0.024503033
0.024486955
0.024491766
0.024483192
0.024533781
0.0245137
0.024549566
0.024556747
0.02456849
0.024588212
0.024618628
0.024668434
0.024742493
0.024722124
0.02469546
0.024774074
0.024818427
0.024762816
0.02474292
0.024700868
0.02468659
0.024787784
0.025467069
0.025376329
0.025393817
0.025439461
0.025462278
0.025517741
0.025487777
0.025411081
0.025432547
0.025446706
0.025383363
0.025336676
0.025302278
0.025277849
0.02527623
0.025263854
0.025233172
0.025244601
0.025202308
0.025213009
0.025198693
0.025210609
0.025192649
0.025198417
0.025203866
0.025218218
0.025192236
0.025170824
0.025153267
0.025141331
0.025004944
0.024806458
0.024732032
0.024811428
0.025488687
0.025418867
0.025495041
0.025681935
0.025811859
0.02583019
0.025845393
0.025872416
0.025895587
0.025888817
0.025880567
0.025880523
0.025895294
0.025889183
0.025900456
0.025893721
0.025928287
0.025918343
0.025954294
0.025961887
0.025959389
0.025987191
0.026025391
0.02606354
0.026123181
0.026113322
0.026097259
0.026166362
0.026194244
0.026139987
0.026109701
0.026060492
0.026040666
0.026125095
0.026751407
0.026676521
0.026698057
0.026749036
0.026786921
0.026836943
0.02681301
0.026750749
0.026763146
0.026767434
0.026711405
0.02668328
0.026640675
0.026609485
0.026615853
0.026614409
0.026572408
0.026580722
0.026553188
0.026555911
0.026548587
0.02655434
0.026538739
0.026530684
0.026541997
0.026546282
0.02652283
0.02648817
0.026475566
0.026451144
0.026328104
0.02615352
0.026078102
0.026140659
0.026758231
0.026704065
0.026779551
0.026940701
0.027056705
0.027087351
0.027101433
0.02713272
0.027161539
0.027160939
0.027151112
0.027156485
0.027178376
0.027174948
0.027182773
0.027179884
0.0272033
0.027198086
0.027235102
0.02723581
0.027229903
0.027265262
0.027302022
0.027330111
0.02738071
0.027377727
0.027369426
0.027423963
0.027443596
0.027399612
0.02735601
0.027303891
0.027281507
0.02735066
0.027913541
0.027852909
0.027875596
0.027927726
0.027977375
0.028012822
0.027997364
0.02795032
0.027955926
0.027962527
0.027912714
0.027883076
0.027853951
0.027818134
0.027820216
0.027818274
0.027786674
0.027791987
0.027769403
0.027771472
0.027763298
0.027765742
0.027738248
0.027735512
0.027745
0.027742898
0.027707088
0.027679117
0.027665438
0.027631301
0.027519518
0.02737064
0.027297884
0.027352336
0.028316642
0.028312877
0.02832092
0.028319847
0.028344546
0.02833575
0.028361642
0.028365007
0.028366521
0.028398183
0.028428755
0.028456201
0.028499749
0.02849345
0.028491513
0.028531186
0.028542786
0.028511444
0.02846179
0.02841016
0.028388162
0.028444619
0.028939727
0.028890623
0.028911608
0.028961231
0.029007832
0.029036682
0.029026172
0.028992423
0.028991185
0.028997701
0.028958649
0.028934125
0.028902706
0.028875089
0.02887013
0.028865712
0.028844235
0.028935073
0.028443082
0.027915709
0.02735435
0.026760442
0.02613673
0.025485503
0.024810091
0.024113209
0.023398465
0.022667999
0.02192658
0.021176872
0.020422144
0.019664064
0.018906037
0.018150255
0.017399565
0.016655712
0.015921411
0.015198041
0.014487778
0.013791677
0.01311159
0.012447113
0.011797702
0.011165882
0.010555429
0.0099650085
0.0093949941
0.0088453606
0.0083152383
0.0078004526
0.007298273
0.0074739526
0.0079998418
0.0077088304
0.0072187777
0.007220569
0.007732373
0.0073105833
0.0068340675
0.0070942768
0.0076163211
0.0072542465
0.0067751217
0.0069035363
0.0069486399
0.0071166476
0.0073604419
0.0070926243
0.007190052
0.0070912524
0.007598052
0.0073129142
0.0068391597
0.0070803058
0.0076034434
0.007708023
0.0076198321
0.007617984
0.0071340404
0.0070348769
0.0068272206
0.0065726257
0.0070843571
0.0071492779
0.0066635371
0.0067825638
0.0073053075
0.0073524503
0.0075474543
0.0074766207
0.0069951437
0.0073252083
0.0074279648
0.0073828728
0.0079037428
0.0078745047
0.0076497602
0.0078689289
0.0073695356
0.0069355645
0.0074666918
0.0074812765
0.0074185526
0.0073034519
0.0068274626
0.0069473044
0.007326437
0.0074336673
0.0079620705
0.0079559203
0.0078724265
0.0078667866
0.0073684928
0.0073191285
0.0078536208
0.0078571573
0.0074780817
0.0075318891
0.0070435184
0.0072422397
0.0074120347
0.007397796
0.0074601414
0.0070735917
0.0069626973
0.0067644903
0.0072616583
0.0069997051
0.006538085
0.0069257852
0.0074397376
0.0074757625
0.0076040345
0.0077107476
0.0072216537
0.0070513847
0.0066884071
0.0064065911
0.0069242713
0.0069751756
0.0064904458
0.0065485769
0.0070633608
0.0072139127
0.0075683813
0.0073267794
0.0068575522
0.0073875076
0.0074370341
0.0075148587
0.008054322
0.008016186
0.0079497076
0.0080510384
0.0075433999
0.0073790604
0.0079316462
0.0079722203
0.0077916635
0.0078648966
0.0073620329
0.0071530228
0.0072021
0.0073421859
0.007886534