/*--------------------------------*- C++ -*----------------------------------*\
| =========                 |                                                 |
| \\      /  F ield         | OpenFOAM: The Open Source CFD Toolbox           |
|  \\    /   O peration     | Version:  v2012                                 |
|   \\  /    A nd           | Website:  www.openfoam.com                      |
|    \\/     M anipulation  |                                                 |
\*---------------------------------------------------------------------------*/
FoamFile
{
    version     2.0;
    format      ascii;
    class       volScalarField;
    location    "100";
    object      omega;
}
// * * * * * * * * * * * * * * * * * * * * * * * * * * * * * * * * * * * * * //

dimensions      [0 0 -1 0 0 0 0];


internalField   nonuniform List<scalar> 
19664
(
26.145736
25.694792
25.263551
24.850965
24.455935
24.077453
23.714453
23.365931
23.030979
22.708794
22.398612
22.099717
21.811444
21.533177
21.264343
21.004396
20.752829
20.509166
20.272958
20.043778
19.82122
19.60489
19.39438
19.189193
18.988728
18.791954
18.597974
18.404763
18.214716
18.024074
17.845161
17.667343
17.50609
17.355352
17.235032
16.761326
15.989737
15.683884
15.537734
15.539648
15.433492
15.502699
15.460704
15.459829
15.308507
15.15879
14.867537
15.170765
15.179409
15.150948
14.884666
15.121943
14.873537
15.061514
14.840746
15.155164
15.544449
16.494151
17.705679
18.668041
17.626367
14.086812
11.68131
10.895086
10.33105
10.368644
10.071418
10.390871
10.472339
10.406202
10.157537
10.425429
10.508312
10.495471
10.494064
10.477247
10.467971
10.486634
10.418987
10.435086
10.437879
10.534431
10.48756
10.366346
10.020709
10.353653
10.515016
10.555089
10.507134
10.465131
10.509936
10.561414
10.544021
10.544152
10.553201
10.581084
10.615549
10.600707
10.600202
10.635989
10.619086
10.575292
10.622536
10.650136
10.624593
10.589393
10.618504
10.637296
10.605153
10.568461
10.606105
10.648509
10.607962
10.544469
10.579976
10.579296
10.515689
10.445308
10.316217
10.004454
10.185337
9.9927351
10.245492
10.106133
10.455919
10.184469
10.579812
10.354648
10.883948
11.068028
12.155553
13.439246
14.69655
15.890575
15.636356
14.328163
13.047651
11.990717
11.19077
10.779529
10.474409
10.555814
10.337051
10.43037
10.230509
10.153202
10.021923
10.080478
10.160908
10.133487
10.207752
10.138507
10.26727
10.385328
10.472644
10.432842
10.697173
11.134524
11.834874
12.799251
13.928826
14.914814
14.495912
13.552487
12.600169
11.826722
11.099588
10.571829
10.41605
10.490288
10.385893
10.15153
10.119046
10.179498
10.167241
10.241583
10.372083
10.275788
10.239597
10.097753
10.138312
10.216775
10.420152
10.375845
10.501282
10.904534
11.566865
12.312291
13.180226
14.216174
14.113736
12.98709
12.143257
11.498623
10.892303
10.562031
10.435622
10.356934
10.208205
10.142001
10.133363
10.241233
10.292139
10.327295
10.284148
10.21532
10.20393
10.071868
10.131845
10.152909
10.267773
10.307366
10.473988
10.842196
11.374727
11.985747
12.904787
13.97402
13.978396
12.872287
11.917008
11.36298
10.862238
10.525638
10.315573
10.201245
10.153163
10.059604
10.053139
10.12503
10.228402
10.370651
10.440256
10.335354
10.219555
10.065615
10.133065
10.215254
10.274889
10.322374
10.544178
10.865643
11.296066
11.8397
12.733073
13.858066
13.898466
12.755904
11.818136
11.299062
10.873677
10.549117
10.327141
10.278921
10.232761
10.066569
10.093751
10.273142
10.38122
10.376594
10.338663
10.273289
10.230418
10.089844
10.104896
10.221337
10.311681
10.325206
10.523061
10.852373
11.303167
11.891048
12.687139
13.788699
13.808305
12.760586
11.897174
11.311645
10.856033
10.558338
10.371382
10.291029
10.21689
10.032869
10.065145
10.178772
10.30243
10.384944
10.439207
10.31411
10.223496
10.049806
10.106302
10.230275
10.335016
10.389621
10.582921
10.879109
11.306761
11.855691
12.687101
13.772611
13.808694
12.67736
11.876445
11.269723
10.877075
10.605663
10.441799
10.334811
10.279322
10.108628
10.104537
10.166254
10.304305
10.383158
10.357067
10.276762
10.287815
10.136161
10.159031
10.243998
10.366861
10.388242
10.598764
10.834323
11.220901
11.78273
12.569708
13.718463
13.722452
12.665663
11.808311
11.264892
10.878857
10.607771
10.389323
10.340443
10.283258
10.18007
10.182434
10.204167
10.285492
10.390471
10.485382
10.359748
10.26829
10.13913
10.164927
10.237197
10.356245
10.357156
10.581561
10.827639
11.185039
11.740069
12.553012
13.729943
13.684877
12.533392
11.728161
11.145877
10.817099
10.535771
10.374914
10.327851
10.261523
10.162878
10.231034
10.248757
10.353857
10.375395
10.26519
10.201007
10.28073
10.180253
10.121867
10.222626
10.390204
10.393145
10.560907
10.811365
11.206685
11.700907
12.545208
13.716616
13.705122
12.554525
11.752902
11.253226
10.906172
10.622636
10.450966
10.369589
10.217037
10.181434
10.183052
10.167539
10.176294
10.369612
10.467444
10.309817
10.202729
10.045671
10.130249
10.228505
10.373088
10.468723
10.694264
10.930314
11.335446
11.829414
12.568859
13.621147
13.875037
12.875541
12.170098
11.663267
11.11671
10.752609
10.467836
10.370808
10.19777
10.115257
10.0806
10.148853
10.28026
10.344911
10.39179
10.22964
10.184828
10.107624
10.137789
10.220058
10.421996
10.531876
10.890205
11.491742
12.333656
13.027808
13.78362
14.634625
15.941716
15.599774
15.165194
13.436765
11.935093
11.131851
10.636496
10.359767
10.195618
10.091481
10.079049
10.143716
10.236085
10.388876
10.354107
10.207548
10.17475
10.090349
10.124676
10.190062
10.404561
10.67254
11.235168
12.307936
14.43752
16.978346
18.087504
18.006494
18.707492
17.701706
16.485315
14.313227
12.186103
11.157876
10.602731
10.342732
10.219029
10.072516
10.066177
10.16138
10.202283
10.358718
10.383286
10.248082
10.200016
10.074758
10.110097
10.238693
10.330508
10.437385
10.81048
11.495682
12.511688
13.805478
15.086656
16.600663
13.335803
12.520213
11.893221
11.350301
10.874049
10.537164
10.269137
10.218492
10.202593
10.026708
10.04451
10.044979
10.215715
10.292122
10.382222
10.239548
10.144408
10.0149
10.035423
10.134638
10.19405
10.130703
10.271084
10.462692
10.741692
10.987366
11.22415
11.517491
10.833503
10.697806
10.563696
10.418851
10.28703
10.183538
10.055269
10.071426
10.080708
9.9155942
10.008111
10.049675
10.198878
10.270189
10.258338
10.15264
10.094401
9.9583223
9.9356612
10.031324
10.073435
10.035753
10.081452
10.131685
10.205504
10.332472
10.423544
10.411273
10.321269
10.275814
10.20387
10.214125
10.135623
10.100665
10.015852
10.031503
10.060303
9.9261692
10.013627
10.073523
10.190117
10.267816
10.372845
10.255479
10.190191
10.027447
10.017538
10.079432
10.135887
10.019891
10.021744
10.044272
10.086064
10.154981
10.149565
10.103599
10.295503
10.241473
10.168961
10.104776
10.078042
10.130724
10.040556
10.094279
10.138151
10.037382
10.144075
10.196187
10.27734
10.313618
10.238566
10.266534
10.268112
10.17735
10.128118
10.164708
10.221266
10.167862
10.149382
10.169773
10.161364
10.287608
10.269865
10.232373
10.132571
10.355888
10.239874
10.126422
10.016488
9.9086099
9.8025862
9.6986603
9.5953283
9.4941007
9.3948794
9.2981547
9.2043064
9.1127394
9.0251882
8.9416077
8.8616556
8.7854893
8.7136993
8.6477925
8.5865739
8.5307189
8.4796699
8.4344569
8.3949589
8.3605252
8.3320335
8.3092287
8.2919258
8.2802717
8.2750397
8.2756412
8.2813367
8.3342034
8.3121612
8.2945463
8.2815832
8.2734827
8.2703846
8.272423
8.2796532
8.2921301
8.3098307
8.3327401
8.3607678
8.393838
8.4318051
8.4745455
8.521873
8.5736267
8.6295891
8.6895697
8.7533275
8.8206451
8.8912572
8.9649132
9.0413039
9.1201087
9.200905
9.2832871
9.3668159
9.4514153
9.536659
9.6246746
9.7145936
9.8118558
9.9093448
10.075615
9.9656323
9.860372
9.7604455
9.663877
9.5698743
9.4773998
9.3863956
9.2970526
9.2097826
9.1249721
9.0429971
8.9641332
8.8886406
8.8167539
8.748692
8.6846651
8.624874
8.5695101
8.5187539
8.4727725
8.431718
8.395727
8.3649189
8.3393902
8.3192086
8.3044082
8.2949886
8.290917
8.2921172
8.2984561
8.3098047
8.3259374
8.3463082
8.3532633
8.3314578
8.3140485
8.3012805
8.2933527
8.2904183
8.2925893
8.2999352
8.3124843
8.3302273
8.3531467
8.3811162
8.4140237
8.4517388
8.4941456
8.5410579
8.5922874
8.647622
8.7068373
8.7696919
8.8359358
8.9053026
8.9775096
9.0522162
9.1291042
9.2077841
9.2878862
9.3690593
9.4510308
9.5338794
9.6183336
9.7061841
9.7995318
9.8968076
10.133783
10.018114
9.9074663
9.8025759
9.7016139
9.6035711
9.5074656
9.4125276
9.3208886
9.2317142
9.1452438
9.06181
8.9816969
8.9051621
8.8324403
8.7637424
8.699266
8.6392198
8.5837348
8.5330455
8.4872693
8.4465864
8.4111042
8.3809543
8.3561819
8.3368482
8.3230089
8.3146472
8.311705
8.3140862
8.3216285
8.3341925
8.3515289
8.3730806
8.4034511
8.3804417
8.3619002
8.3480513
8.3391231
8.3352861
8.3367273
8.343533
8.3557853
8.373495
8.3966549
8.4251497
8.4589
8.4977702
8.5416768
8.5904283
8.6438596
8.7017508
8.7638853
8.8299607
8.8997213
8.9728736
9.0491307
9.1281551
9.2096235
9.2930882
9.3780852
9.4633248
9.5487155
9.6344733
9.7215522
9.8115414
9.9063382
10.005536
10.338115
10.215731
10.098946
9.9882286
9.8814485
9.7774617
9.6752806
9.5743556
9.4765123
9.3809186
9.287588
9.1977007
9.1115521
9.0294382
8.9515411
8.8780776
8.8092722
8.7453508
8.6864419
8.6327822
8.5844684
8.5417024
8.5045689
8.4731255
8.4474126
8.4274982
8.4132834
8.4047675
8.401841
8.4044324
8.4123307
8.4253471
8.4432221
8.46558
8.5627733
8.5386444
8.5188984
8.5035231
8.4928337
8.4871792
8.486876
8.4914377
8.5011134
8.51619
8.5369554
8.5625703
8.5932203
8.6291381
8.6705918
8.7163595
8.7665677
8.8213789
8.8810304
8.9440596
9.0105357
9.0805647
9.1543812
9.2312359
9.310693
9.3922622
9.4753936
9.5587692
9.6422332
9.7260093
9.8111985
9.8979577
9.9889866
10.086197
10.463324
10.345339
10.232985
10.126891
10.024949
9.9259964
9.8289851
9.7333837
9.6409412
9.5508586
9.463135
9.3789227
9.2984757
9.2221169
9.1500188
9.0824022
9.0193666
8.9612255
8.9080691
8.8600495
8.8171955
8.7797554
8.7477316
8.7212014
8.7001062
8.6845616
8.6745231
8.6698733
8.6704665
8.6762526
8.6870123
8.7025481
8.7226006
8.7468424
9.0662605
9.0376376
9.0127222
8.9917566
8.9749799
8.9625598
8.9546562
8.9513983
8.9529107
8.959221
8.9704012
8.9864426
9.0073158
9.0329207
9.0631587
9.097903
9.1370459
9.1803686
9.22773
9.2789156
9.3337066
9.3918598
9.4531059
9.5171417
9.5835939
9.6520681
9.7222388
9.7942069
9.8671423
9.9409475
10.016266
10.094238
10.176785
10.264774
10.783949
10.686272
10.595548
10.51052
10.429756
10.351235
10.274779
10.19986
10.126496
10.055786
9.9881783
9.9239648
9.863365
9.8068407
9.7544094
9.7059236
9.6625818
9.6235329
9.5885876
9.5584326
9.5331625
9.5129773
9.4978238
9.4875271
9.4827376
9.482785
9.4874046
9.4968544
9.5110312
9.5298199
9.5529937
9.5803068
9.6117218
9.6467309
10.645312
10.59312
10.544783
10.500345
10.459986
10.423905
10.392383
10.365458
10.343206
10.325634
10.312751
10.30417
10.299983
10.300306
10.3054
10.314962
10.328813
10.346764
10.368578
10.393522
10.421552
10.452708
10.487156
10.523713
10.562279
10.602602
10.644392
10.687605
10.731538
10.776214
10.822412
10.871617
10.926195
10.987488
12.090479
12.036175
11.992096
11.952712
11.915929
11.880105
11.845125
11.810683
11.777033
11.745236
11.715881
11.689435
11.666189
11.646697
11.631071
11.619267
11.612322
11.609679
11.611286
11.617798
11.629309
11.64609
11.668145
11.695382
11.728436
11.766849
11.810498
11.85973
11.91453
11.974937
12.040885
12.112312
12.189378
12.271853
8.1925901
8.1836063
8.1797651
8.1813225
8.1882588
8.2006707
8.2185341
8.2418644
8.2705548
8.3046422
8.3438329
8.3880178
8.4370563
8.4906616
8.5485621
8.6105562
8.6763353
8.7457429
8.8183455
8.8938766
8.9719895
9.0524322
9.13477
9.2185859
9.3034086
9.388689
9.4743278
9.5599917
9.6477048
9.736905
9.8332849
9.9290061
10.243474
10.394776
10.428331
10.384886
10.341322
10.388692
10.434797
10.422155
10.420043
10.431051
10.458735
10.492062
10.477335
10.47848
10.510545
10.49568
10.457164
10.500297
10.5244
10.502233
10.466573
10.496181
10.511645
10.482248
10.446663
10.484361
10.521643
10.484923
10.424302
10.455065
10.452436
10.393084
10.325871
10.204366
10.087908
10.205434
10.271473
10.325832
10.331643
10.303342
10.361115
10.39424
10.361559
10.324808
10.357819
10.385672
10.372416
10.3431
10.378501
10.39753
10.376862
10.338707
10.372001
10.383982
10.355621
10.352387
10.36735
10.335272
10.307142
10.294561
10.298931
10.307204
10.26652
10.219332
10.263186
10.303212
10.273502
10.12693
10.0142
10.155358
10.181433
10.14457
10.101129
10.147601
10.183308
10.178557
10.172659
10.18528
10.215946
10.244616
10.231705
10.235513
10.261035
10.2512
10.221824
10.256292
10.274265
10.257696
10.222559
10.251801
10.263335
10.2367
10.206263
10.242056
10.27029
10.239407
10.187102
10.211518
10.202428
10.151266
10.088904
9.9744877
9.8675198
9.9767138
10.034642
10.083292
10.094222
10.073457
10.120842
10.1504
10.12535
10.09041
10.118696
10.143948
10.134121
10.105399
10.139629
10.155097
10.138305
10.10703
10.133233
10.141907
10.118072
10.113884
10.125078
10.099107
10.067203
10.054643
10.060982
10.063254
10.031577
9.9866324
10.028888
10.063982
10.041188
9.9069375
9.8033099
9.9305733
9.9496317
9.9160378
9.8746197
9.9181161
9.9458725
9.9458894
9.9392589
9.9517158
9.9848978
10.008941
9.9974427
10.00298
10.025355
10.018558
9.9939959
10.022763
10.038564
10.024165
9.9907275
10.018002
10.028474
10.002449
9.9781447
10.011237
10.033349
10.005922
9.9620506
9.9798656
9.9674079
9.9222782
9.8679117
9.7637957
9.6635138
9.7614222
9.8120165
9.8532597
9.8673007
9.8522359
9.8922195
9.9174379
9.8987137
9.8678486
9.8879816
9.9146343
9.9038547
9.8774864
9.9099825
9.9232294
9.9086622
9.8823268
9.9050875
9.9104319
9.8891069
9.8828538
9.8938653
9.8722771
9.8379325
9.8256056
9.8320911
9.8302321
9.8058712
9.763784
9.8046813
9.8366256
9.8217359
9.7017095
9.6018524
9.7133966
9.7257886
9.6937692
9.6551181
9.6949367
9.7158822
9.7196518
9.7130332
9.7252676
9.7604204
9.7800852
9.7693133
9.7764912
9.7965589
9.792878
9.7715969
9.7949565
9.8099275
9.796096
9.7664695
9.790966
9.8016799
9.7747652
9.7581238
9.7867496
9.8043785
9.7799319
9.7426486
9.7555392
9.7417765
9.7027136
9.6564381
9.5643233
9.4674473
9.5528521
9.5947104
9.6316276
9.6450472
9.6350195
9.6686834
9.6928077
9.6754704
9.6481779
9.6629563
9.6892479
9.6791745
9.6562904
9.6835545
9.6975309
9.6823
9.6621153
9.6816445
9.6840061
9.6648241
9.6566184
9.6672756
9.6487292
9.6139339
9.601802
9.6081325
9.6030076
9.5847714
9.5473557
9.5838126
9.6158877
9.6058116
9.5016509
9.4029248
9.5007608
9.5068384
9.4766283
9.4408626
9.4765788
9.4918914
9.498665
9.492267
9.5042099
9.5388151
9.5551875
9.5466336
9.5550165
9.5729924
9.5723035
9.55417
9.5724501
9.5859505
9.5726181
9.5485383
9.5702593
9.5777268
9.5529476
9.5415873
9.5673728
9.583015
9.5583848
9.5291463
9.5376834
9.5227508
9.4899063
9.4508322
9.3718427
9.279223
9.3508237
9.3876171
9.4164675
9.4324041
9.4256275
9.4504765
9.4755648
9.4617384
9.4374122
9.4457471
9.4686332
9.4633702
9.4432393
9.4643874
9.4767023
9.4645402
9.4484388
9.4649406
9.4647121
9.4470203
9.4386497
9.4458202
9.4308419
9.3971528
9.3851158
9.391557
9.3837251
9.3703975
9.3368055
9.37167
9.4000806
9.3976732
9.3054126
9.2101293
9.2963123
9.2959323
9.2686352
9.2348485
9.2661423
9.2786436
9.2865976
9.2807651
9.2929388
9.3246896
9.3393261
9.3324956
9.3420519
9.3593569
9.3605446
9.3452179
9.3595996
9.3701566
9.3589781
9.3406517
9.3595409
9.3624611
9.3415389
9.3358372
9.3586934
9.3701233
9.3454635
9.3242448
9.3303429
9.3133749
9.2877647
9.255284
9.1886976
9.1019209
9.1632495
9.191208
9.2139032
9.2312539
9.2245092
9.2437992
9.2682446
9.2577258
9.2373127
9.2404887
9.2597033
9.2586057
9.2412004
9.25648
9.2671686
9.257384
9.2450127
9.2590186
9.2566542
9.2400912
9.2296263
9.2359868
9.2217987
9.1917807
9.1797629
9.1847861
9.1764688
9.1652352
9.1376629
9.1684368
9.1953115
9.1975427
9.1181346
9.0299615
9.1032054
9.0984551
9.0728799
9.0439571
9.0678843
9.0796238
9.0878016
9.0822732
9.0954081
9.122528
9.137535
9.1303808
9.1407367
9.1589364
9.1611751
9.148006
9.1589794
9.1678641
9.1587245
9.1450758
9.1614959
9.1607249
9.1442606
9.1421357
9.1604987
9.1695381
9.1457903
9.1297211
9.1361244
9.1183093
9.0995841
9.074771
9.0178882
8.9380988
8.9901695
9.0117718
9.0272556
9.0445302
9.0389663
9.0521732
9.075247
9.067014
9.0506504
9.0517051
9.0658775
9.0679428
9.0529605
9.0646104
9.0721163
9.0643944
9.0546579
9.0668665
9.0652213
9.0456992
9.0352527
9.0427782
9.0272342
9.0026354
8.9890569
8.9943194
8.9869079
8.9746879
8.9540754
8.9808452
9.0052229
9.0121234
8.9443396
8.8619494
8.9239916
8.9171813
8.8919882
8.8675601
8.8857439
8.8982055
8.9053166
8.9001634
8.9142564
8.9361927
8.9524656
8.9443091
8.9549626
8.9753443
8.976813
8.9645885
8.9732441
8.9816893
8.9738075
8.9643746
8.9788116
8.9753342
8.9635338
8.9630219
8.9769665
8.9849796
8.9629992
8.9515274
8.9575226
8.9408882
8.9284703
8.9096103
8.8615528
8.7896795
8.8333959
8.8491934
8.8587177
8.8747712
8.8676646
8.8781428
8.8987325
8.8909499
8.8796335
8.8795448
8.889671
8.8936783
8.878774
8.8875165
8.8955329
8.8864486
8.8781987
8.8907977
8.8890586
8.8685569
8.8582991
8.8662601
8.8497529
8.8300043
8.8152412
8.8205362
8.8134316
8.8008234
8.7838983
8.8074906
8.8330921
8.8399701
8.783284
8.709425
8.7603082
8.7539902
8.7275298
8.7061496
8.7217831
8.7327335
8.7395082
8.7362573
8.7505936
8.7680136
8.7850709
8.7772614
8.7880682
8.8065291
8.8096598
8.7965431
8.805628
8.8132295
8.8059569
8.7994395
8.8135503
8.809022
8.8004645
8.8000478
8.8109881
8.8177189
8.799453
8.7886134
8.7959878
8.7827835
8.7751857
8.7616404
8.7214872
8.6583371
8.6946348
8.7062455
8.7122203
8.7223717
8.7146339
8.7256206
8.7417118
8.7357589
8.7246023
8.7260513
8.7332988
8.738179
8.7253186
8.7298305
8.7360084
8.7296332
8.7202295
8.7331299
8.7289826
8.7123256
8.7008342
8.7086856
8.6916599
8.6756969
8.662417
8.6638261
8.6569466
8.6474419
8.6334154
8.6527651
8.6799846
8.6852554
8.6392877
8.5743232
8.6149888
8.6108797
8.5831681
8.5649503
8.5773946
8.5875546
8.5934634
8.592915
8.6061399
8.6206939
8.636646
8.6308389
8.6419594
8.6566501
8.6620641
8.64935
8.6591643
8.664087
8.6590379
8.6562611
8.667148
8.6639193
8.6571052
8.6543976
8.6649052
8.6721793
8.6572495
8.6459975
8.6540919
8.6467802
8.6423358
8.6325093
8.5992694
8.5455602
8.5754147
8.5835996
8.5858393
8.5913461
8.5829466
8.5941163
8.6078062
8.5996531
8.5896963
8.5933671
8.5996131
8.60162
8.5925773
8.5936344
8.5977459
8.5939545
8.5836286
8.5962548
8.5898373
8.5766719
8.5665318
8.5702036
8.5548478
8.5417398
8.5280161
8.528335
8.5232689
8.5128139
8.5010244
8.5186315
8.5460652
8.5497285
8.5128059
8.4572698
8.4896371
8.487002
8.4605786
8.4426769
8.4538416
8.4650087
8.4698216
8.4687137
8.482121
8.4958504
8.5094161
8.5070084
8.5171565
8.5286427
8.5352118
8.5246575
8.5345847
8.5371461
8.5348794
8.5343951
8.5416965
8.5412718
8.5353804
8.5307343
8.5400947
8.5495047
8.5367448
8.5255786
8.5342867
8.5309277
8.5301672
8.523494
8.4963018
8.4526612
8.4769087
8.4822709
8.4818865
8.4833349
8.474347
8.4848791
8.4971804
8.4866637
8.4777493
8.4829737
8.4888377
8.4877795
8.4819914
8.4817455
8.4824801
8.4808325
8.4719059
8.4801241
8.4733934
8.4633705
8.4528089
8.4544893
8.4428673
8.4285272
8.4155128
8.4168162
8.4126438
8.4008938
8.3903317
8.4079033
8.4336339
8.4352277
8.4066387
8.3612983
8.3864948
8.3857356
8.3611359
8.344036
8.3540058
8.3659804
8.3698636
8.3684319
8.3809817
8.3956206
8.4056445
8.4046412
8.4149187
8.4241398
8.4309933
8.4245294
8.4331864
8.4337907
8.4346171
8.4354148
8.4399149
8.4421043
8.4366328
8.430795
8.4393809
8.4506371
8.4391331
8.4292798
8.4384225
8.4385881
8.4399185
8.435738
8.4137886
8.3807234
8.4000826
8.4032548
8.4011686
8.3994572
8.3900412
8.3992654
8.4095773
8.3981119
8.3902334
8.3960439
8.4007907
8.3979363
8.394859
8.3932481
8.3914215
8.3913231
8.38217
8.3879932
8.3811395
8.3725346
8.3623501
8.3629471
8.3538319
8.3393442
8.3271739
8.3287272
8.324731
8.3129995
8.3034782
8.3200835
8.3430805
8.3433197
8.3213841
8.2877826
8.3068536
8.3056912
8.2843147
8.2699656
8.278907
8.2889182
8.2930113
8.2930351
8.3046241
8.3175286
8.3264368
8.3273723
8.3371697
8.3443833
8.351233
8.3469958
8.355795
8.355344
8.3580936
8.3603105
8.3629365
8.3649831
8.361733
8.3560667
8.3639335
8.3740582
8.3648633
8.3579155
8.3673426
8.3695743
8.3723002
8.3700067
8.3526824
8.3305458
8.3456412
8.3471728
8.3439466
8.3410961
8.3321015
8.3369398
8.3448921
8.3358965
8.3279617
8.333637
8.3354699
8.3339783
8.3319221
8.3290878
8.3254288
8.3264904
8.3182468
8.3209244
8.3141078
8.3078197
8.2987687
8.2963637
8.2876132
8.275874
8.2652417
8.2636416
8.2594709
8.2507476
8.2427396
8.2548917
8.2744451
8.2761911
8.2594661
8.2373552
8.2516646
8.2493649
8.2316274
8.2214887
8.2288594
8.2363666
8.2404526
8.2434438
8.2534079
8.2640472
8.272499
8.2761898
8.2847745
8.2901971
8.2968642
8.2955849
8.3028898
8.3024405
8.3058143
8.3095773
8.3113627
8.3122437
8.3112855
8.3069396
8.3142707
8.3221179
8.3153126
8.3123393
8.3209605
8.3241678
8.3278582
8.3269688
8.3135806
8.3024856
8.3139858
8.3143287
8.3102879
8.3066961
8.2986177
8.299923
8.3057278
8.2987632
8.292276
8.2951006
8.2954591
8.2947684
8.293338
8.2887014
8.2857382
8.2854061
8.2790678
8.2791774
8.2724874
8.2677824
8.2597121
8.2550804
8.2466678
8.236973
8.2276978
8.2236658
8.219413
8.2129524
8.2062447
8.2145035
8.2305269
8.2330297
8.2206706
8.2097473
8.2204666
8.2178207
8.203982
8.1968603
8.2025967
8.2091583
8.2130695
8.2175651
8.2261199
8.236016
8.2438903
8.2489091
8.2564143
8.2615387
8.2677021
8.2685861
8.2746799
8.2748561
8.2783088
8.2831377
8.2844291
8.2849722
8.2856168
8.2835769
8.2895005
8.2956184
8.2912515
8.2904251
8.2979358
8.3022273
8.3065528
8.3066437
8.2965789
8.2963651
8.3048684
8.3044282
8.2999827
8.2951288
8.2883727
8.2885187
8.2916608
8.2861425
8.2808427
8.2821018
8.2805149
8.2800999
8.278913
8.2739221
8.2700143
8.2699361
8.2641092
8.2624074
8.256664
8.2511727
8.243768
8.2386889
8.2313925
8.2214102
8.2131255
8.2084139
8.2048757
8.198302
8.1933898
8.199363
8.2111883
8.2137159
8.2044015
8.2049221
8.2129329
8.2104607
8.2005863
8.1956616
8.1998727
8.2061139
8.2101538
8.2146853
8.2226614
8.2323387
8.2399345
8.2446863
8.2518506
8.2573256
8.2630134
8.2652165
8.2706885
8.2715342
8.2754415
8.2801942
8.2813054
8.2823878
8.2840452
8.283626
8.2887181
8.293639
8.2916815
8.2921344
8.2981392
8.3033231
8.3078073
8.3085065
8.3011872
8.3113688
8.3174215
8.3165255
8.3120995
8.3066415
8.3014336
8.3004054
8.3013606
8.2968532
8.2916679
8.2916471
8.2899496
8.2882079
8.2868759
8.2825487
8.2787395
8.2772318
8.2718916
8.2694669
8.263902
8.2584169
8.2513789
8.2467729
8.2389868
8.2295047
8.2217387
8.2174116
8.2129935
8.2069153
8.2030967
8.2072259
8.2154299
8.217587
8.2102194
8.263418
8.2704692
8.2759974
8.2814247
8.283882
8.2893334
8.2914608
8.2951844
8.2991191
8.3009884
8.3027172
8.3047171
8.3054911
8.3104975
8.3145722
8.3145187
8.3160075
8.3208291
8.3261022
8.3304194
8.3314357
8.3262792
8.3458331
8.3499805
8.3488723
8.3447486
8.3398259
8.3352604
8.3335291
8.3328841
8.3291188
8.3242503
8.322934
8.3206504
8.3188215
8.3165172
8.3128753
8.3092044
8.3066311
8.3513192
8.331367
8.3159636
8.3053405
8.2997131
8.2992055
8.3039405
8.3139523
8.3292814
8.3498795
8.3757698
8.4067542
8.442741
8.4835629
8.5291571
8.5792925
8.6338076
8.6924506
8.7550383
8.8212566
8.8908906
8.9636064
9.0391529
9.1171391
9.1973977
9.2799273
9.363958
9.4484298
9.5332874
9.6184719
9.7043854
9.7922386
9.8844834
9.9833334
9.9070559
9.8034907
9.953833
10.051306
10.109284
10.008074
10.226767
10.323164
10.22187
10.118161
10.356831
10.451287
10.360272
10.278479
10.161793
10.022431
10.100797
10.019736
10.043911
9.9417863
10.046627
10.141326
10.054828
9.9467698
9.9143443
9.9901271
9.9914924
10.083736
10.124519
10.164877
10.259652
10.146076
10.118757
10.219957
10.181645
10.068885
10.051592
10.022867
10.047324
10.139212
10.029564
9.9872802
10.01076
9.9132749
9.9254251
10.054515
9.9695246
10.058731
10.282374
10.177614
10.170341
10.259676
10.309143
10.395027
10.320944
10.105664
10.028537
9.933733
9.8902725
9.9250601
9.9645361
10.048609
10.1024
10.010276
10.011495
10.222986
10.193784
10.272131
10.176496
10.055075
10.031169
9.9688124
10.096755
10.09957
10.162361
10.060903
10.174651
10.268391
10.115497
10.010895
9.9958711
9.9899231
9.941209
10.030667
10.104909
10.22235
10.323099
10.204186
10.16561
10.269091
10.27029
10.157027
10.107774
10.003559
10.086151
10.174539
9.9858123
9.9656497
9.9466452
9.8483739
9.8639843
9.9307241
9.886486
9.9701781
10.059835
9.9644355
9.9576716
10.084253
10.048001
10.122831
10.189953
10.122421
10.035851
9.9371679
9.8633384
9.8858854
9.8937016
9.9775673
10.141593
10.047895
10.027154
10.102807
10.132555
10.203746
10.228145
10.128693
10.007622
9.9892279
10.12496
10.164006
10.227438
10.114993
10.186323
10.283448
10.195007
10.086092
10.052859
10.018531
9.9929601
10.08351
10.117775
10.204161
10.325655
10.212017
10.182224
10.280592
10.197212
10.088792
10.093221
10.010485
9.9760028
10.0688
10.005879
9.9507882
9.9664897
9.8661821
9.8878588
9.9087334
9.8629135
9.9459757
10.126046
10.032472
10.033559
10.141566
10.144392
10.215343
10.251516
10.137127
10.009749
9.9110785
9.8489217
9.9045264
9.9348578
10.019171
10.18743
10.092109
10.040371
10.164723
10.18512
10.25757
10.282961
10.150074
10.060774
10.034804
10.179278
10.16482
10.245054
10.13147
10.190392
10.287714
10.178021
10.067439
10.049508
10.069475
10.011696
10.105732
10.162456
10.250863
10.372377
10.258413
10.167701
10.269543
10.246285
10.136239
10.140024
10.054143
10.053994
10.149156
10.129514
10.038352
10.081517
9.977917
9.9300128
9.9598509
10.007513
10.091067
10.191223
10.096051
10.052492
10.195886
10.191089
10.263287
10.27198
10.144547
10.067344
9.9676029
9.9340052
10.02497
9.9915513
10.074402
10.171928
10.079118
10.04832
10.184594
10.18134
10.252169
10.305456
10.28429
10.31807
10.317202
10.371542
10.318683
10.302292
10.253967
10.255796
10.24962
10.240737
10.226047
10.351878
10.288967
10.328055
10.342373
10.378724
10.28358
10.618839
10.695435
11.116119
11.045666
11.917786
11.946985
13.038819
13.377315
13.360454
13.35106
13.344014
13.337739
13.332118
13.326478
13.320308
13.315423
13.311937
13.310599
13.312027
13.31665
13.324887
13.337021
13.353001
13.373381
13.398655
13.428717
13.4648
13.506358
13.553514
13.606454
13.665089
13.729805
13.801024
13.878655
13.963602
14.055479
14.154436
14.26069
14.374358
14.495882
14.625644
8.3576627
8.3366226
8.3200282
8.3081175
8.3010896
8.2990869
8.3022165
8.3105336
8.3240522
8.3427632
8.3666383
8.3954021
8.4290367
8.4673858
8.5104556
8.5583268
8.6105703
8.6668424
8.726958
8.7905638
8.8574088
8.9271466
8.9994472
9.0733871
9.1491603
9.2267594
9.305592
9.3850203
9.4648697
9.5453199
9.6266578
9.7106114
9.8474727
9.7462136
9.6489381
9.5520006
9.4471984
9.3599979
9.5008113
9.5808704
9.662499
9.7451896
9.8290898
9.9155087
10.115898
10.007489
9.9322187
10.016945
10.249526
10.145161
10.0435
9.8435778
9.902831
9.7997533
9.6914913
9.5956782
9.5936852
9.6746058
9.7567056
9.9434042
9.8395553
9.7483249
9.7164325
9.6254056
9.5124262
9.4237476
9.4299685
9.394496
9.4207431
9.504667
9.5892597
9.6741554
9.7597565
9.8471731
9.9344642
9.8381797
9.7699622
9.7399416
9.8196757
9.8874468
9.7894267
9.8142311
9.8965062
9.8524781
9.9457783
10.036335
9.9308805
9.9260723
10.017634
9.9617435
9.8596606
9.8434543
9.842769
9.9270269
9.9414571
9.8366212
9.7341653
9.7405864
9.7145418
9.6865177
9.6418974
9.5565211
9.5964389
9.6156312
9.5990772
9.6588084
9.7444197
9.6796975
9.7359762
9.8199988
9.7220036
9.7378099
9.8273931
9.7517334
9.6576386
9.6421642
9.6377841
9.6308519
9.5237122
9.5378885
9.5116694
9.5083925
9.4716443
9.5028206
9.5530825
9.4580736
9.4074399
9.4181639
9.4388421
9.4667119
9.5380465
9.6254669
9.6269519
9.5256019
9.4808568
9.5643419
9.5498322
9.5467875
9.6078689
9.6975321
9.7867064
9.8763633
9.9662427
10.060785
9.9588894
9.832335
9.8126034
9.8965998
9.8870702
9.7851557
9.765825
9.8479735
9.9170633
9.9992502
10.089681
9.9789849
9.9691094
10.062157
10.04811
9.9432743
9.892395
9.82034
9.9060818
9.9830252
9.8801564
9.7781035
9.717967
9.6665672
9.6856885
9.720833
9.6301449
9.5871842
9.5607063
9.6545042
9.7755685
9.8642482
9.7390639
9.779874
9.8579386
9.7588161
9.7790139
9.8695016
9.8330365
9.7371248
9.6814677
9.6148599
9.67423
9.5728662
9.5048891
9.4666647
9.4798034
9.3899864
9.4292205
9.3788102
9.3436429
9.4028337
9.4827196
9.5056842
9.5879036
9.6701259
9.7527655
9.8362926
9.9404182
9.8507575
9.7878001
9.7363123
9.8175408
9.8709071
10.069492
10.06092
9.9660799
10.082932
10.164894
10.202097
10.110906
9.9779305
9.8396593
9.7614609
9.7158765
9.7979959
9.8426472
9.8597584
9.8171277
9.721688
9.7691435
9.842849
9.9219444
9.9211968
10.120997
10.033767
10.034117
10.109067
9.9875818
9.8622513
9.8328316
9.7542468
9.6656009
9.7301479
9.7212119
9.6805187
9.7604945
9.8005361
9.8704484
9.7753072
9.7613355
9.9009544
9.8943861
9.967106
10.010926
9.9335057
9.8403373
9.7545532
9.6682712
9.7442284
9.7250118
9.7126448
9.795132
9.8056073
9.9552038
9.8613855
9.8395199
9.9272696
9.9855397
10.055017
10.056982
9.930198
9.8025607
9.789576
9.903955
9.9368903
9.9963552
9.8992557
9.9949466
10.084065
9.9803849
9.8765609
9.8440841
9.81412
9.8123289
9.8966527
9.9079544
9.9749475
10.089413
9.9916007
9.9877655
10.078322
9.9722802
9.8808354
9.8826166
9.8070494
9.7932524
9.8796479
9.8064956
9.7506359
9.7684218
9.6717581
9.6872477
9.7160634
9.6940936
9.7737554
9.9299699
9.8464422
9.8457799
9.9710574
10.000597
10.069924
10.080064
9.9462404
9.8151198
9.7204897
9.6529107
9.7092487
9.7664443
9.8475523
9.9987413
9.9050911
9.8518104
9.9937392
10.037787
10.109035
10.111115
9.9571618
9.8617196
9.8298277
9.9645388
9.940362
10.021003
9.9143444
10.00058
10.091081
9.9613044
9.8588099
9.8368113
9.861812
9.8297309
9.9165178
9.9509422
10.034658
10.147791
10.040311
9.9726587
10.0654
10.031238
9.9290859
9.931981
9.8491241
9.8698226
9.9576882
9.9244563
9.8341426
9.8778684
9.7804061
9.7311747
9.7643708
9.8404671
9.9207874
10.002615
9.9084543
9.8615589
10.024575
10.044708
10.115405
10.099569
9.9542504
9.8698175
9.7734258
9.7351569
9.8256763
9.8247914
9.9050131
9.9874188
9.8947203
9.8598259
10.012524
10.037482
10.10699
10.182151
10.153173
10.192394
10.19048
10.249694
10.193384
10.181705
10.126205
10.127293
10.119157
10.108848
10.081908
10.205225
10.138484
10.173383
10.181419
10.192696
10.104492
10.473765
10.54142
10.982185
10.921796
11.86607
11.888211
13.071433
13.051992
14.469038
14.763911