/*--------------------------------*- C++ -*----------------------------------*\
| =========                 |                                                 |
| \\      /  F ield         | OpenFOAM: The Open Source CFD Toolbox           |
|  \\    /   O peration     | Version:  v2012                                 |
|   \\  /    A nd           | Website:  www.openfoam.com                      |
|    \\/     M anipulation  |                                                 |
\*---------------------------------------------------------------------------*/
FoamFile
{
    version     2.0;
    format      ascii;
    class       volScalarField;
    location    "100";
    object      nut;
}
// * * * * * * * * * * * * * * * * * * * * * * * * * * * * * * * * * * * * * //

dimensions      [0 2 -1 0 0 0 0];


internalField   nonuniform List<scalar> 
229778
(
8.6249305e-05
8.6325938e-05
8.6410037e-05
8.6492877e-05
8.6577418e-05
8.6662031e-05
8.674735e-05
8.6833663e-05
8.6921527e-05
8.701138e-05
8.7103553e-05
8.7198254e-05
8.7295638e-05
8.7395797e-05
8.7498812e-05
8.7604666e-05
8.771338e-05
8.782497e-05
8.7939439e-05
8.805676e-05
8.8176873e-05
8.8299782e-05
8.8425505e-05
8.8554011e-05
8.8685258e-05
8.8819262e-05
8.8956041e-05
8.9095587e-05
8.9237919e-05
8.9383018e-05
8.9530884e-05
8.9681508e-05
8.9834866e-05
8.9990943e-05
9.0149753e-05
9.03113e-05
9.0475596e-05
9.0642656e-05
9.081252e-05
9.0985237e-05
0.00015449735
0.0001545116
0.00015452725
0.00015454489
0.00015456495
0.00015458828
0.00015461611
0.0001546498
0.00015469149
0.00015474336
0.00015480856
0.00015489145
0.00015499705
0.00015513216
0.00015530518
0.00015552716
0.0001558119
0.00015617587
0.00015664151
0.00015723487
0.00015799073
0.00015895161
0.00016016778
0.00016169907
0.0001636227
0.00016602629
0.000169017
0.00017271914
0.00017727739
0.00018286995
0.00018967823
0.00019793544
0.0002079102
0.00021986977
0.00023413519
0.00025105444
0.00027100517
0.00029438327
0.00032155325
0.0003529889
0.00038915506
0.00043046482
0.00047736088
0.0005302802
0.00058964465
0.00065586841
0.0007293438
0.00081042353
0.00089946487
0.00099683158
0.0011026952
0.0012174054
0.0013414481
0.0014744294
0.0016171499
0.0017701114
0.0019331837
0.0021065129
0.0022902791
0.0024848062
0.0026899418
0.002905963
0.0031337766
0.0033716024
0.0036211449
0.0038842514
0.0010513735
0.00097427921
0.00090272623
0.00083638944
0.00077495547
0.00071812318
0.00066560519
0.00061712882
0.00057243649
0.00053128602
0.00049345004
0.00045871498
0.00042688022
0.00039775717
0.00037116801
0.00034694448
0.00032492699
0.00030496373
0.00028690992
0.00027062718
0.00025598324
0.0002428516
0.00023111141
0.00022064746
0.00021135018
0.00020311561
0.00019584556
0.00018944765
0.00018383532
0.00017892786
0.00017465043
0.00017093393
0.00016771487
0.00016493526
0.00016254235
0.00016048845
0.00015873063
0.00015723046
0.00015595364
0.00015486978
0.00015395204
0.0001531768
0.00015252339
0.00015197381
0.00015151243
0.00015112573
0.00015080208
0.00015053151
0.00015030549
0.00015011677
0.0001494015
0.00014943573
0.00014947486
0.00014951986
0.00014957205
0.00014963302
0.00014970471
0.00014978947
0.00014989015
0.00015001019
0.00015015374
0.0001503258
0.00015053244
0.0001507809
0.00015107991
0.00015143993
0.0001518736
0.00015239608
0.00015302554
0.00015378378
0.0001546969
0.00015579617
0.00015711899
0.00015871
0.00016062242
0.00016291942
0.00016567562
0.00016897898
0.00017293274
0.00017765708
0.00018329093
0.00018999398
0.00019794811
0.00020735899
0.00021845683
0.00023149641
0.00024675676
0.00026454011
0.00028517016
0.00030898922
0.00033635414
0.00036763209
0.0004031978
0.00044342767
0.00048868756
0.00053934758
0.00059577705
0.00065826358
0.00072720833
0.00080312113
0.0010087072
0.00093262625
0.00086213003
0.00079690252
0.0007366369
0.00068103831
0.00062982344
0.00058272019
0.0005394685
0.00049982063
0.00046354135
0.00043040686
0.00040020433
0.00037273216
0.00034779874
0.00032522182
0.00030482828
0.00028645371
0.00026994207
0.00025514505
0.00024192187
0.00023013927
0.00021967124
0.00021039913
0.00020221147
0.00019500367
0.00018867812
0.00018314418
0.0001783179
0.00017412188
0.0001704851
0.00016734271
0.00016463579
0.00016231096
0.00016032021
0.0001586205
0.0001571734
0.00015594477
0.00015490443
0.00015402581
0.00015328564
0.00015266359
0.00015214198
0.00015170551
0.00015134099
0.00015103707
0.00015078402
0.00015057358
0.00015039869
0.00015025341
0.00014987295
0.00014989764
0.00014992524
0.00014995642
0.00014999217
0.00015003369
0.00015008244
0.00015014025
0.00015020934
0.00015029243
0.00015039286
0.00015051469
0.00015066285
0.00015084335
0.00015106347
0.00015133203
0.0001516597
0.00015205933
0.00015254644
0.00015313967
0.00015386139
0.00015473848
0.00015580305
0.00015709347
0.00015865551
0.00016054357
0.00016282207
0.00016556698
0.00016886757
0.00017282823
0.00017757047
0.00018323472
0.00018998228
0.00019799676
0.00020748561
0.0002186814
0.00023184246
0.00024725297
0.00026522243
0.00028608439
0.00031019408
0.00033792572
0.00036966913
0.00040582425
0.00044679822
0.00049300431
0.00054484615
0.00060272456
0.00066708066
0.00073829189
0.0010413376
0.00096107266
0.00088682223
0.00081825089
0.00075503471
0.00069685159
0.00064338821
0.00059437668
0.00054950314
0.00050847784
0.00047102986
0.00043690494
0.00040586386
0.00037768128
0.00035214483
0.00032905422
0.00030822239
0.00028947286
0.00027263901
0.00025756351
0.00024409817
0.00023210352
0.00022144852
0.00021201028
0.00020367384
0.00019633191
0.00018988481
0.00018424021
0.00017931286
0.00017502435
0.00017130285
0.00016808288
0.00016530498
0.00016291533
0.00016086549
0.00015911205
0.00015761626
0.00015634375
0.00015526392
0.00015434985
0.00015357791
0.00015292741
0.00015238034
0.00015192104
0.00015153608
0.00015121398
0.00015094464
0.00015071969
0.00015053194
0.0001503752
0.00015024425
0.0001500196
0.00015004628
0.00015007532
0.0001501071
0.00015014237
0.00015018239
0.00015022831
0.00015028149
0.00015034428
0.00015041884
0.0001505081
0.00015061566
0.00015074649
0.00015090628
0.00015110215
0.00015134247
0.00015163758
0.00015199984
0.00015244438
0.00015298962
0.00015365724
0.00015447362
0.00015547014
0.00015668415
0.00015815994
0.00015994989
0.00016211566
0.00016472955
0.00016787589
0.00017165267
0.00017617316
0.00018156753
0.00018798448
0.00019559274
0.00020458248
0.00021516652
0.00022758115
0.00024208663
0.00025896699
0.00027852969
0.00030110538
0.00032704406
0.000356715
0.0003905094
0.0004288163
0.00047204354
0.00052066936
0.00057501315
0.00063551172
0.00070266
0.0007769141
0.00099935977
0.00092129166
0.00084922537
0.00078281445
0.00072177541
0.00066571971
0.00061434535
0.00056733072
0.00052437417
0.00048519096
0.00044951211
0.00041708327
0.00038766417
0.00036102793
0.0003369609
0.00031526282
0.00029574489
0.00027822925
0.00026254846
0.00024854516
0.00023607166
0.0002249897
0.00021517009
0.0002064924
0.00019884318
0.00019212039
0.00018622877
0.00018107953
0.00017659146
0.00017269087
0.00016931035
0.00016638881
0.00016387079
0.00016170636
0.00015985076
0.00015826369
0.00015690951
0.00015575702
0.00015477868
0.00015395044
0.00015325109
0.00015266198
0.00015216683
0.00015175144
0.00015140337
0.00015111213
0.00015086856
0.0001506649
0.00015049455
0.00015035194
0.00015023231
0.00015013582
0.0001501637
0.00015019424
0.00015022807
0.00015026629
0.00015031008
0.00015036088
0.00015042054
0.00015049144
0.00015057653
0.00015067955
0.00015080529
0.00015095965
0.00015115003
0.00015138605
0.00015167887
0.00015204194
0.00015249074
0.00015304397
0.00015372464
0.00015456026
0.00015558356
0.00015683343
0.00015835541
0.00016020331
0.0001624405
0.00016513907
0.00016838567
0.00017227649
0.00017692529
0.00018246608
0.00018903431
0.0001967999
0.00020594759
0.00021668297
0.00022923344
0.00024384852
0.0002608002
0.00028038228
0.00030291001
0.00032871884
0.00035816157
0.00039160908
0.00042945063
0.00047207674
0.00051990974
0.00057337278
0.0006327198
0.00069849235
0.00077113088
0.00096845911
0.00089124409
0.00082011998
0.00075472989
0.00069472273
0.00063975945
0.00058954338
0.00054372069
0.0005019718
0.00046402171
0.00042959192
0.00039841844
0.00037025307
0.00034485973
0.00032201547
0.00030151036
0.00028314693
0.00026673988
0.00025211566
0.00023911285
0.00022758223
0.000217382
0.00020838249
0.0002004623
0.00019351086
0.00018742533
0.0001821123
0.00017748577
0.00017346791
0.00016998773
0.00016698133
0.00016439093
0.00016216479
0.00016025639
0.00015862357
0.00015722908
0.00015604154
0.00015503317
0.00015417918
0.00015345785
0.0001528501
0.00015233913
0.00015191037
0.00015155119
0.0001512505
0.00015099907
0.00015078881
0.00015061292
0.00015046566
0.00015034214
0.00015021051
0.00015023831
0.00015026864
0.00015030246
0.00015034052
0.00015038382
0.0001504338
0.00015049249
0.0001505622
0.00015064591
0.00015074733
0.00015087121
0.0001510235
0.00015121168
0.00015144528
0.0001517359
0.00015209776
0.00015254719
0.00015310275
0.00015378783
0.00015463074
0.0001556649
0.00015693
0.00015847296
0.0001603482
0.00016261985
0.00016536309
0.00016866199
0.00017261656
0.00017734025
0.0001829629
0.00018963084
0.0001975068
0.00020677409
0.00021763593
0.00023031693
0.00024506325
0.00026214085
0.00028183897
0.00030447008
0.00033035142
0.00035983671
0.00039330567
0.0004310756
0.00047358077
0.00052128698
0.00057446501
0.00063358957
0.00069921616
0.00077161858
0.000943974
0.0008675892
0.00079729169
0.0007327388
0.00067359231
0.00061951396
0.00057020933
0.00052532159
0.00048452683
0.00044754501
0.00041409171
0.00038389635
0.00035670397
0.00033227169
0.0003103703
0.00029078386
0.00027331331
0.00025776439
0.00024396092
0.00023173672
0.00022093768
0.00021142117
0.00020305497
0.0001957201
0.0001893066
0.00018371284
0.00017884692
0.00017462476
0.00017097065
0.00016781638
0.00016510052
0.00016276802
0.0001607697
0.0001590616
0.0001576039
0.00015636212
0.00015530717
0.00015441343
0.00015365811
0.00015302136
0.00015248579
0.00015203616
0.00015165929
0.00015134381
0.00015107995
0.00015085934
0.00015067489
0.00015052055
0.00015039122
0.00015028262
0.0001502184
0.00015025113
0.00015028725
0.00015032753
0.0001503731
0.00015042539
0.00015048622
0.00015055801
0.00015064363
0.00015074676
0.00015087277
0.00015102745
0.00015121844
0.00015145543
0.00015175041
0.00015211822
0.00015257496
0.00015314016
0.00015383796
0.00015469738
0.00015575295
0.00015704556
0.00015862332
0.00016054275
0.00016287009
0.00016568128
0.00016906495
0.00017312154
0.00017796722
0.00018373425
0.00019056941
0.0001986387
0.00020812724
0.00021923992
0.00023220237
0.00024726183
0.00026468438
0.0002847591
0.00030779836
0.00033411853
0.00036406988
0.00039803222
0.00043632599
0.00047937993
0.00052762565
0.00058141259
0.00064113532
0.00070731955
0.0007802439
0.00093209828
0.00085552344
0.00078511017
0.00072051787
0.00066141054
0.00060745031
0.00055834252
0.00051372438
0.00047329294
0.00043672276
0.00040373845
0.00037404569
0.00034737712
0.00032348914
0.00030214434
0.00028311955
0.00026620571
0.00025120666
0.00023793966
0.00022623467
0.00021593625
0.00020689685
0.00019898353
0.00019207262
0.00018605342
0.00018082414
0.00017629257
0.00017237549
0.000168998
0.00016609293
0.00016360024
0.00016146646
0.00015964415
0.00015809116
0.00015676978
0.00015564686
0.00015469524
0.00015389086
0.00015321255
0.00015264183
0.00015216253
0.00015176066
0.00015142414
0.00015114258
0.0001509071
0.00015071012
0.00015054522
0.00015040699
0.00015029086
0.0001503387
0.00015037501
0.0001504154
0.00015046084
0.00015051261
0.00015057251
0.00015064298
0.00015072693
0.00015082802
0.00015095089
0.00015110155
0.00015128738
0.0001515177
0.00015180448
0.00015216176
0.00015260536
0.00015315475
0.00015383358
0.00015467043
0.0001556993
0.00015696048
0.00015850169
0.00016037789
0.00016265381
0.00016540516
0.00016871621
0.00017268703
0.00017743065
0.00018307586
0.0001897672
0.00019766474
0.00020694663
0.00021781096
0.00023047717
0.00024517584
0.00026216584
0.00028173409
0.00030414964
0.00032973585
0.00035884083
0.00039183475
0.00042901478
0.00047078912
0.00051757669
0.00056972102
0.00062759747
0.00069176071
0.000762473
0.00089334161
0.00081923414
0.00075125111
0.00068903365
0.00063222639
0.00058048011
0.00053348409
0.0004908763
0.00045232633
0.00041754277
0.00038623292
0.00035811819
0.00033293532
0.00031043532
0.00029038283
0.00027255718
0.00025675139
0.00024277267
0.00023044164
0.00021959227
0.00021007123
0.0002017374
0.00019446144
0.00018812528
0.00018262154
0.00017785309
0.00017373211
0.00017017956
0.00016712456
0.00016450375
0.00016226072
0.00016034544
0.00015871354
0.00015732594
0.00015614776
0.00015514846
0.00015430306
0.00015358958
0.00015298857
0.00015248332
0.00015205935
0.00015170398
0.00015140634
0.00015115716
0.0001509485
0.00015077361
0.0001506268
0.00015050329
0.00015047401
0.00015051188
0.00015055359
0.00015059989
0.00015065254
0.00015071285
0.00015078297
0.00015086558
0.00015096422
0.00015108366
0.00015122956
0.00015140902
0.00015163152
0.00015190807
0.00015225258
0.00015268086
0.00015321179
0.00015386868
0.00015467956
0.0001556778
0.00015690293
0.00015840151
0.00016022813
0.0001624462
0.00016512933
0.00016836254
0.00017224207
0.00017687871
0.00018239889
0.00018893984
0.00019665975
0.00020573595
0.00021636638
0.0002287508
0.0002431249
0.00025974254
0.0002788743
0.00030080475
0.00032582918
0.00035427261
0.00038648618
0.00042277697
0.00046354148
0.00050918934
0.00056005537
0.00061652776
0.00067916523
0.00074817191
0.00086616531
0.00079369339
0.00072730929
0.0006666496
0.00061135262
0.00056106686
0.00051547564
0.00047421765
0.00043696121
0.00040341183
0.00037328577
0.00034629255
0.00032216309
0.00030065381
0.00028152986
0.00026457085
0.00024957164
0.00023634085
0.00022470047
0.0002144865
0.00020554768
0.00019774524
0.00019095293
0.00018505443
0.00017994502
0.00017553039
0.00017172563
0.00016845451
0.00016564896
0.00016324831
0.00016119886
0.00015945302
0.00015796882
0.00015670946
0.00015564211
0.00015473837
0.00015397477
0.00015333099
0.0001527891
0.00015233372
0.00015195132
0.00015163035
0.00015136093
0.00015113464
0.00015094428
0.00015078387
0.00015064816
0.00015062132
0.00015066536
0.00015071369
0.00015076784
0.00015082922
0.00015089984
0.00015098235
0.00015108001
0.00015119714
0.00015133937
0.0001515136
0.00015172858
0.00015199518
0.00015232683
0.00015273881
0.00015324943
0.00015388133
0.00015466183
0.00015562353
0.0001568051
0.00015825219
0.00016001836
0.00016216601
0.00016476771
0.00016790676
0.00017167899
0.00017619342
0.00018157354
0.00018795825
0.0001955028
0.00020437976
0.00021477911
0.00022690957
0.00024099838
0.00025729046
0.00027605019
0.00029756215
0.00032211795
0.00035003766
0.00038166729
0.00041731133
0.00045735972
0.00050222124
0.0005522301
0.00060776239
0.00066940616
0.0007373597
0.00084623345
0.00077457066
0.0007090599
0.00064932219
0.00059498184
0.00054567178
0.00050106221
0.00046078172
0.0004244901
0.00039188422
0.00036266393
0.00033654426
0.00031326452
0.00029256394
0.00027420764
0.00025796953
0.00024364598
0.00023104211
0.00021998281
0.0002103028
0.00020185197
0.00019449404
0.00018810417
0.00018256913
0.00017778675
0.00017366501
0.00017012137
0.000167082
0.00016448121
0.0001622607
0.00016036887
0.00015876042
0.00015739552
0.00015623923
0.00015526031
0.00015443229
0.00015373325
0.00015314415
0.00015264845
0.00015223169
0.00015188148
0.00015158717
0.00015133948
0.00015113079
0.00015095447
0.00015080511
0.00015067814
0.0001505984
0.00015064666
0.00015069958
0.00015075814
0.00015082424
0.00015089969
0.00015098689
0.00015108903
0.00015121086
0.00015135742
0.00015153549
0.00015175367
0.00015202266
0.00015235572
0.0001527681
0.00015327802
0.00015390809
0.00015468561
0.00015564319
0.00015681968
0.00015826096
0.000160021
0.00016216319
0.00016476088
0.00016789804
0.00017167166
0.00017619151
0.00018158289
0.00018798828
0.00019556087
0.00020447746
0.00021493881
0.00022713926
0.00024132093
0.00025773447
0.00027664995
0.0002983551
0.00032315557
0.00035137827
0.0003833579
0.00041944684
0.00046005736
0.00050551498
0.00055621219
0.00061255502
0.00067515782
0.00074422693
0.00084489045
0.00077245839
0.00070630603
0.00064604921
0.00059130601
0.00054169914
0.0004968919
0.00045650047
0.00042017301
0.00038759579
0.00035845901
0.00033246833
0.00030934722
0.00028883442
0.00027068509
0.00025467037
0.00024058137
0.00022821654
0.0002173955
0.00020794891
0.00019972549
0.00019258432
0.00018639867
0.00018105482
0.00017644975
0.00017249103
0.00016909616
0.00016619193
0.00016371287
0.0001616012
0.00015980608
0.00015828294
0.0001569928
0.00015590165
0.00015497937
0.00015420029
0.0001535434
0.00015299028
0.000152525
0.00015213383
0.00015180496
0.00015152828
0.00015129522
0.00015109849
0.00015093194
0.0001507904
0.00015066954
0.00015074868
0.00015079729
0.00015085026
0.00015090863
0.00015097389
0.00015104792
0.00015113317
0.00015123272
0.00015135049
0.00015149163
0.00015166243
0.00015187088
0.00015212736
0.00015244414
0.00015283576
0.0001533197
0.00015391775
0.00015465617
0.00015556649
0.00015668611
0.00015805961
0.00015973935
0.00016178712
0.0001642741
0.00016728302
0.00017091045
0.00017526178
0.00018046275
0.00018665322
0.00019398974
0.00020264815
0.00021282206
0.00022471952
0.00023857066
0.00025462647
0.00027314995
0.00029442891
0.00031877422
0.00034648291
0.00037792092
0.00041341753
0.00045335255
0.00049814127
0.00054810962
0.00060365416
0.00066539476
0.00073342843
0.00081550547
0.00074508454
0.00068088403
0.00062251472
0.00056962484
0.00052179098
0.00047865872
0.00043984802
0.00040501372
0.00037384171
0.00034602075
0.0003212583
0.00029928664
0.00027983796
0.00026267245
0.00024755951
0.0002342892
0.00022267028
0.00021252468
0.00020368946
0.00019601599
0.00018936899
0.00018362597
0.00017867651
0.00017442145
0.00017077205
0.00016764931
0.00016498323
0.00016271175
0.00016078023
0.00015914082
0.00015775164
0.00015657624
0.00015558293
0.00015474394
0.00015403542
0.00015343767
0.00015293381
0.00015250913
0.00015215117
0.00015184904
0.00015159371
0.00015137728
0.00015119333
0.00015103639
0.0001509018
0.00015089767
0.00015095685
0.00015102143
0.00015109267
0.0001511725
0.00015126309
0.0001513672
0.00015148896
0.00015163277
0.0001518046
0.00015201213
0.00015226478
0.00015257442
0.00015295493
0.00015342299
0.00015399939
0.00015470932
0.00015558315
0.0001566567
0.00015797317
0.0001595837
0.00016154775
0.00016393471
0.00016682528
0.00017031323
0.00017450357
0.00017951774
0.00018549633
0.0001925857
0.00020096121
0.00021082003
0.00022236288
0.00023582319
0.00025145026
0.0002695141
0.00029031028
0.00031410585
0.00034123858
0.00037207705
0.00040694349
0.00044620081
0.00049027443
0.00053953795
0.00059425304
0.00065515631
0.00072232695
0.00079266264
0.00072390081
0.00066129993
0.00060446825
0.00055300834
0.00050654016
0.00046471956
0.00042715901
0.00039350443
0.00036344065
0.00033666795
0.00031288116
0.00029179995
0.00027317256
0.00025675858
0.0002423346
0.00022969456
0.00021864826
0.00020902307
0.00020065663
0.00019340423
0.00018713258
0.00018172242
0.00017706726
0.00017307122
0.00016964878
0.00016672408
0.00016423011
0.00016210735
0.00016030374
0.00015877382
0.0001574779
0.00015638151
0.00015545478
0.00015467168
0.00015400958
0.00015345009
0.00015297733
0.00015257766
0.00015223941
0.00015195244
0.00015170842
0.0001515001
0.00015132158
0.00015116788
0.00015116114
0.00015123277
0.00015131129
0.00015139798
0.00015149482
0.00015160456
0.00015173077
0.00015187778
0.00015205119
0.00015225793
0.00015250665
0.00015280842
0.0001531756
0.00015362396
0.0001541729
0.000154846
0.0001556717
0.00015668367
0.00015792263
0.00015943726
0.00016128311
0.00016352672
0.00016624654
0.00016952822
0.00017347609
0.00017820707
0.00018385401
0.00019056559
0.00019850857
0.00020787194
0.00021885508
0.00023167924
0.00024659589
0.0002638407
0.0002837089
0.00030649639
0.00033251964
0.00036213121
0.00039564529
0.0004334351
0.0004759182
0.00052340042
0.00057627288
0.00063521908
0.00070020102
0.00075753371
0.00069177964
0.00063208334
0.00057799124
0.00052908221
0.00048499286
0.00044537479
0.00040985023
0.00037807091
0.0003497272
0.0003245155
0.00030215026
0.00028237137
0.00026492173
0.00024957145
0.00023610135
0.00022431236
0.00021402391
0.00020506888
0.00019729489
0.00019056478
0.00018475197
0.00017974395
0.00017543872
0.00017174636
0.00016858596
0.00016588622
0.00016358453
0.00016162528
0.00015995994
0.00015854623
0.00015734733
0.00015633135
0.0001554707
0.00015474142
0.00015412273
0.00015359757
0.00015315146
0.00015277184
0.00015244815
0.00015217143
0.00015193398
0.00015172934
0.00015155207
0.00015139763
0.00015144173
0.00015152154
0.00015160821
0.00015170317
0.00015180839
0.00015192634
0.00015206017
0.00015221387
0.00015239246
0.0001526023
0.00015285132
0.00015314932
0.00015350781
0.00015394123
0.00015446735
0.00015510776
0.00015588865
0.00015684132
0.00015800346
0.00015942017
0.00016114391
0.00016323736
0.00016577263
0.00016883431
0.00017251977
0.00017694068
0.00018222365
0.00018850794
0.00019595579
0.00020474654
0.000215074
0.00022715342
0.00024121753
0.00025751799
0.00027632809
0.00029792991
0.00032262516
0.00035074956
0.00038260448
0.00041855631
0.00045898826
0.00050426395
0.00055455243
0.00061096374
0.0006615354
0.00060485215
0.00055355159
0.0005072342
0.000465523
0.0004280832
0.00039454771
0.000364596
0.00033790578
0.00031419374
0.00029317628
0.00027460289
0.00025822848
0.00024383525
0.00023121392
0.00022017827
0.00021055208
0.00020217864
0.00019491167
0.00018862004
0.00018318627
0.00017850406
0.00017447827
0.00017102403
0.0001680658
0.00016553673
0.00016337802
0.00016153765
0.00015997028
0.00015863649
0.00015750204
0.0001565372
0.00015571641
0.00015501758
0.00015442156
0.00015391247
0.00015347694
0.00015310338
0.00015278208
0.00015250478
0.00015226442
0.00015205491
0.00015187136
0.00015170967
0.00015179953
0.00015189329
0.00015199442
0.00015210443
0.00015222512
0.0001523587
0.00015250837
0.00015267759
0.00015287085
0.00015309384
0.00015335407
0.00015366025
0.00015402278
0.00015445487
0.00015497272
0.000155596
0.00015634863
0.00015725925
0.00015836247
0.00015969951
0.00016131906
0.00016327889
0.00016564534
0.00016849691
0.00017192537
0.00017603059
0.00018093287
0.00018676628
0.00019368055
0.00020184485
0.0002114467
0.0002226819
0.00023577293
0.00025096628
0.00026849829
0.00028865003
0.00031172499
0.00033802894
0.00036785236
0.0004015727
0.0004394229
0.00048192192
0.0004685257
0.00043163601
0.00039846414
0.00036871206
0.00034210064
0.00031837586
0.00029728627
0.00027859236
0.00026206916
0.00024750548
0.00023470424
0.00022348259
0.00021367177
0.00020511648
0.00019767479
0.0001912174
0.0001856279
0.00018079934
0.0001766368
0.00017305464
0.00016997704
0.00016733696
0.00016507501
0.00016313908
0.00016148323
0.00016006747
0.0001588571
0.00015782202
0.00015693621
0.00015617729
0.00015552596
0.0001549656
0.00015448226
0.00015406411
0.00015370111
0.00015338472
0.00015310768
0.0001528639
0.00015264819
0.00015245621
0.00015228431
0.00015258027
0.00015270215
0.00015283136
0.00015296899
0.00015311652
0.00015327576
0.00015344899
0.00015363907
0.00015384958
0.00015408502
0.00015435094
0.00015465413
0.00015500304
0.00015540801
0.00015588176
0.0001564398
0.00015710114
0.00015788847
0.0001588294
0.00015995711
0.00016131047
0.00016293582
0.00016488783
0.00016722892
0.00017003288
0.00017338584
0.00017738027
0.00018212782
0.00018775211
0.00019439276
0.00020220039
0.0002113394
0.0002219934
0.00023434711
0.00024861546
0.00026501688
0.00028378759
0.00030515046
0.00032932615
0.00035671088
0.00038734287
0.00033498388
0.00031370654
0.00029455298
0.00027737701
0.00026203789
0.00024838998
0.00023628925
0.00022559639
0.00021617731
0.00020790508
0.00020066043
0.00019433232
0.00018881803
0.00018402348
0.00017986312
0.00017626052
0.00017314485
0.00017045402
0.00016813116
0.00016612699
0.00016439816
0.00016290646
0.00016161863
0.00016050535
0.00015954133
0.00015870477
0.00015797683
0.00015734127
0.00015678431
0.00015629398
0.00015586017
0.00015547438
0.00015512938
0.00015481896
0.00015453806
0.00015428241
0.00015404839
0.00015383295
0.00015363357
0.00015344811
0.00015427886
0.00015444868
0.00015462563
0.00015481042
0.0001550038
0.00015520667
0.00015542034
0.00015564598
0.00015588517
0.00015613994
0.00015641261
0.00015670599
0.00015702362
0.00015736959
0.00015774904
0.00015816822
0.00015863471
0.00015915762
0.0001597481
0.0001604196
0.00016118816
0.00016207298
0.00016309687
0.00016428678
0.00016567414
0.00016729566
0.00016919373
0.00017141704
0.00017402063
0.00017706612
0.00018062222
0.0001847647
0.00018957577
0.00019514279
0.00020155994
0.00020892602
0.00021733418
0.00022689256
0.00023773936
0.00024991259
0.00020801668
0.00020263482
0.00019774728
0.0001933285
0.00018935152
0.00018578665
0.00018260244
0.00017976687
0.00017724752
0.00017501307
0.00017303332
0.00017128064
0.00016972829
0.00016835269
0.00016713161
0.00016604564
0.0001650776
0.00016421218
0.00016343595
0.0001627372
0.00016210554
0.00016153198
0.0001610089
0.00016052959
0.00016008839
0.00015968045
0.00015930161
0.00015894833
0.00015861759
0.0001583068
0.00015801373
0.00015773648
0.0001574734
0.00015722299
0.00015698405
0.00015675555
0.0001565365
0.00015632607
0.0001561235
0.0001559281
0.00015760054
0.00015780405
0.00015800953
0.00015821713
0.00015842703
0.00015863943
0.00015885477
0.00015907329
0.00015929533
0.00015952137
0.00015975219
0.00015998823
0.00016023021
0.00016047897
0.00016073546
0.00016100079
0.00016127612
0.00016156289
0.00016186267
0.0001621778
0.00016251087
0.00016286453
0.00016324187
0.00016364666
0.0001640833
0.00016455686
0.00016507329
0.00016563931
0.0001662626
0.00016695203
0.00016771753
0.00016857057
0.00016952295
0.00017058799
0.00017178
0.00017311431
0.00017460488
0.00017627005
0.00017813277
0.00018019692
0.0038560209
0.0036183257
0.0033922085
0.0031774911
0.0029738066
0.0027809344
0.0025985124
0.0024262478
0.0022638097
0.002110891
0.0019671284
0.0018321818
0.001705685
0.0015872781
0.0014765853
0.0013732274
0.0012768176
0.0011869835
0.0011033456
0.0010255401
0.00095320807
0.00088600792
0.00082360987
0.00076570373
0.00071199532
0.00066221052
0.00061609362
0.00057340775
0.00053393331
0.00049746755
0.00046382256
0.0004328241
0.0004043097
0.00037812737
0.00035413386
0.00033219355
0.00031217725
0.0002939613
0.00027742684
0.00026245943
0.00024895221
0.00023680165
0.00022590725
0.00021617162
0.00020750088
0.00019980497
0.0001929978
0.00018699751
0.0001817267
0.00017711254
0.00017308701
0.0001695869
0.00016655383
0.00016393415
0.00016167888
0.00015974355
0.00015808798
0.00015667604
0.00015547543
0.00015445749
0.00015359687
0.00015287124
0.00015034827
0.00015037265
0.00015034041
0.00015039088
0.00015033034
0.00015040269
0.00015029954
0.00015025573
0.00015039094
0.000150206
0.00015011258
0.00014976548
0.00015013184
0.00015022664
0.00015041029
0.00015027529
0.00015031781
0.0001504222
0.00015034782
0.0001504098
0.00015035884
0.00015039101
0.00015036621
0.00015032828
0.00015034147
0.00015039629
0.00015035291
0.00015034778
0.00015034941
0.00015036719
0.00015037032
0.00015041525
0.00015035926
0.00015034524
0.00015038448
0.00015040965
0.0001503776
0.00015042899
0.00015036537
0.00015044199
0.0001503365
0.00015029549
0.00015042983
0.00015024824
0.00015015252
0.00014979113
0.00014981995
0.00015017481
0.00015027084
0.00015044953
0.00015031631
0.00015035555
0.00015046197
0.00015038345
0.00015044834
0.00015039656
0.00015042846
0.00015040324
0.0001503627
0.00015037747
0.0001504344
0.00015038803
0.00015038577
0.00015036637
0.00015036629
0.00015038232
0.00015036512
0.00015038958
0.00015038438
0.00015040036
0.00015038541
0.00015038378
0.00015040451
0.00015040607
0.00015045376
0.00015039615
0.00015038074
0.00015042233
0.00015044755
0.00015041586
0.00015046766
0.00015040186
0.00015048217
0.00015037502
0.00015033781
0.00015046938
0.00015029455
0.00015019897
0.00014985209
0.00014988866
0.00015022544
0.00015031959
0.00015048946
0.00015036011
0.00015039498
0.00015050262
0.0001504207
0.00015048746
0.0001504355
0.00015046687
0.00015044175
0.00015039937
0.00015041528
0.00015047328
0.00015042442
0.00015042375
0.00015040149
0.00015040488
0.00015041878
0.00015040408
0.00015040764
0.0001505017
0.00015049431
0.00015047474
0.00015050025
0.00015047284
0.00015040675
0.00015043878
0.0001503935
0.00015039844
0.00015035119
0.00015039488
0.00015042394
0.00015041957
0.00015039413
0.0001503987
0.00015037081
0.00015042459
0.00015039055
0.00015039845
0.00015040711
0.00015047958
0.00015042664
0.00015042433
0.00015043767
0.00015042489
0.00015041972
0.00015044345
0.00015044324
0.0001504931
0.00015043506
0.0001504188
0.00015046164
0.0001504866
0.00015045537
0.0001505076
0.00015044007
0.00015052337
0.00015041553
0.00015038331
0.0001505098
0.00015034616
0.00015025464
0.00014993018
0.00014997809
0.0001502872
0.00015037462
0.00015053053
0.00015040762
0.00015043683
0.00015054448
0.00015046012
0.00015052812
0.00015047603
0.00015050677
0.00015048204
0.00015043914
0.00015045554
0.00015051324
0.00015046255
0.00015046362
0.00015043849
0.00015044546
0.00015045705
0.00015044517
0.00015044649
0.00015050133
0.00015042537
0.00015041707
0.00015040893
0.00015044587
0.00015038994
0.00015041939
0.00015041417
0.00015044045
0.00015044329
0.0001504166
0.00015037178
0.00015041968
0.00015041198
0.00015045691
0.00015042528
0.00015048898
0.00015051467
0.000150489
0.00015050812
0.00015051552
0.00015049379
0.00015046673
0.0001504652
0.00015051485
0.00015046939
0.00015043869
0.0001504321
0.00015045495
0.00015038596
0.00015047831
0.00015048892
0.00015050224
0.00015041416
0.00015041303
0.00015044401
0.00015049889
0.00015048151
0.00015051615
0.00015049928
0.00015054372
0.00015045864
0.00015048627
0.00015049363
0.00015046789
0.00015044579
0.00015045209
0.000150483
0.00015052479
0.0001504786
0.0001504797
0.00015050665
0.00015052997
0.0001505226
0.00015050363
0.00015052975
0.00015050579
0.0001504449
0.0001504758
0.00015043157
0.00015044187
0.00015039379
0.00015043929
0.0001504636
0.00015046225
0.00015043541
0.00015044122
0.00015041027
0.00015046805
0.00015042855
0.00015043678
0.00015044478
0.00015052387
0.00015046753
0.00015046688
0.00015047717
0.00015046683
0.00015045807
0.00015048453
0.00015048258
0.00015053389
0.00015047698