/*--------------------------------*- C++ -*----------------------------------*\
| =========                 |                                                 |
| \\      /  F ield         | OpenFOAM: The Open Source CFD Toolbox           |
|  \\    /   O peration     | Version:  v2012                                 |
|   \\  /    A nd           | Website:  www.openfoam.com                      |
|    \\/     M anipulation  |                                                 |
\*---------------------------------------------------------------------------*/
FoamFile
{
    version     2.0;
    format      ascii;
    class       volScalarField;
    location    "100";
    object      k;
}
// * * * * * * * * * * * * * * * * * * * * * * * * * * * * * * * * * * * * * //

dimensions      [0 2 -2 0 0 0 0];


internalField   nonuniform List<scalar> 
74500
(
0.37341657
0.37341658
0.37341658
0.37341658
0.37341658
0.37341658
0.37341657
0.37341657
0.37341655
0.37341655
0.37341654
0.37341652
0.37341649
0.37341648
0.37341645
0.37341642
0.37341637
0.37341632
0.3734163
0.37341638
0.37341701
0.37341814
0.37342133
0.37341989
0.37342876
0.37341166
0.37343105
0.37339646
0.37341136
0.37338007
0.37340388
0.37338443
0.3734103
0.37338996
0.37340491
0.37339867
0.37340099
0.37339966
0.3733995
0.37339988
0.37340055
0.37340121
0.37340174
0.37340209
0.37340222
0.37340223
0.37340202
0.37340169
0.37340005
0.37339706
0.37339183
0.37338764
0.37338284
0.3734168
0.37342093
0.37339855
0.37341034
0.37341516
0.37342024
0.37342024
0.3734206
0.37341936
0.3734192
0.37341903
0.3734192
0.37341937
0.37341952
0.37341963
0.37341972
0.37341989
0.37342034
0.37342128
0.37342284
0.37342497
0.37342748
0.37343009
0.37343256
0.37343448
0.37343449
0.37343438
0.37343426
0.37343414
0.37343403
0.37148425
0.37148454
0.37148481
0.37148511
0.37148539
0.37148543
0.37148406
0.37148201
0.37147971
0.37147744
0.37147551
0.3714741
0.37147327
0.37147291
0.37147281
0.37147279
0.37147275
0.37147268
0.37147262
0.37147271
0.37147325
0.37147409
0.3714756
0.37147513
0.37147275
0.37146458
0.37145614
0.37144761
0.37145338
0.37144578
0.37142284
0.37141927
0.37142413
0.37143273
0.37143922
0.37144284
0.37144413
0.37144458
0.37144452
0.37144407
0.3714432
0.37144197
0.37144045
0.37143889
0.37143763
0.37143686
0.37143647
0.3714333
0.37143459
0.37142489
0.37144122
0.37143654
0.37145168
0.37143349
0.36943222
0.36729514
0.36515329
0.36299562
0.36089605
0.35884795
0.35685808
0.35491725
0.35301962
0.3511607
0.34933861
0.34755237
0.34580108
0.34408309
0.34239541
0.34073321
0.33908932
0.33745407
0.33581467
0.33415562
0.33245804
0.33070122
0.32886148
0.32691502
0.32483641
0.32260242
0.32018943
0.3175793
0.31475531
0.31170947
0.30843329
0.30492829
0.30119443
0.29723715
0.29307451
0.28872462
0.28419765
0.27951488
0.27468844
0.26974112
0.26468449
0.25953977
0.25431599
0.249031
0.24369201
0.2383169
0.23291197
0.22749433
0.22206851
0.2166467
0.21122656
0.20579468
0.2024413
0.20298476
0.20310338
0.20345044
0.20368403
0.2037477
0.20381168
0.2039148
0.20405149
0.2042225
0.2043625
0.204568
0.20464463
0.20468405
0.20480578
0.20466876
0.2046226
0.20457507
0.20451996
0.20442785
0.20430811
0.20393254
0.20361028
0.20345255
0.20337907
0.20399723
0.20947718
0.20891884
0.20903208
0.20923344
0.20957707
0.20998317
0.21011098
0.21020405
0.21026874
0.21031104
0.210358
0.21050592
0.21036533
0.21033284
0.21025098
0.21004621
0.20990985
0.2097417
0.20962361
0.20950744
0.20943906
0.20938951
0.20915846
0.20883757
0.20871982
0.20819926
0.21389378
0.21441479
0.2145432
0.21482771
0.21502957
0.21508484
0.21513522
0.21527898
0.21536726
0.21555903
0.21565976
0.21589254
0.21595157
0.21599686
0.21614424
0.21599393
0.21593063
0.21591236
0.21581973
0.21574737
0.21559437
0.21518152
0.2147935
0.21457436
0.21443312
0.21496577
0.2204287
0.21994829
0.22011631
0.2203472
0.22078186
0.22123344
0.22137991
0.22144716
0.22154789
0.22156089
0.22161952
0.22177558
0.22161701
0.22158938
0.2215297
0.22128881
0.22120682
0.22101021
0.22096935
0.22078107
0.22076447
0.22066477
0.22052322
0.22024516
0.22009744
0.21960838
0.22528277
0.22576681
0.22593145
0.22622852
0.22630422
0.22646431
0.2264614
0.2266851
0.22668964
0.22686446
0.22694307
0.22716507
0.22725577
0.22723054
0.22738779
0.22724105
0.22723325
0.22718084
0.22711478
0.22700434
0.22685577
0.22637904
0.22588827
0.22565576
0.22546483
0.22592326
0.23138503
0.23097429
0.23118989
0.23143813
0.23199911
0.23244816
0.2326426
0.2327204
0.23278597
0.23284088
0.23283861
0.23298444
0.23285972
0.23290546
0.23277243
0.2325728
0.23249872
0.23234288
0.23233767
0.23210867
0.23210888
0.23195624
0.23187543
0.23159485
0.23141288
0.2309672
0.23659307
0.23702681
0.23722249
0.23747983
0.2375814
0.23770679
0.23772231
0.23794302
0.23796536
0.238089
0.23818454
0.23834642
0.23854425
0.23846755
0.2385426
0.2383916
0.23839527
0.23835639
0.23826782
0.23827259
0.23800497
0.23762957
0.23701254
0.23671498
0.23647154
0.23686671
0.24229498
0.24194295
0.24221068
0.24254892
0.24318562
0.24354949
0.24382671
0.24380068
0.24389889
0.24391662
0.24394349
0.24406201
0.24402776
0.24410329
0.24387131
0.24372468
0.24366895
0.24355335
0.24350328
0.24329758
0.24325809
0.24316809
0.24303723
0.24280927
0.2425965
0.24220529
0.24774867
0.24810904
0.24835032
0.24853512
0.24871238
0.24875164
0.24881501
0.249005
0.2490825
0.24921094
0.24919883
0.24933379
0.24957715
0.24954276
0.24952854
0.24946749
0.24937456
0.24940896
0.24931494
0.24933796
0.24907271
0.24868715
0.2480421
0.24766952
0.2473821
0.24771584
0.25306074
0.25277647
0.25307806
0.25348138
0.25411368
0.25452308
0.25477667
0.2547652
0.25485251
0.25479226
0.25490513
0.25492787
0.25495605
0.25498514
0.25477282
0.25464494
0.25465466
0.25454023
0.25443551
0.25426721
0.25417612
0.25416063
0.25395975
0.25379367
0.25355137
0.25321983
0.25855977
0.25890687
0.25912617
0.25929584
0.25950324
0.25950732
0.25964169
0.25977752
0.25992032
0.26000223
0.2600171
0.26014513
0.26030427
0.26026543
0.26023611
0.26027182
0.26016953
0.26022128
0.26013737
0.26012625
0.2599062
0.25945939
0.25884765
0.2584242
0.25810832
0.25836483
0.26356646
0.26336254
0.26369542
0.26413292
0.26471492
0.26516832
0.26537802
0.26541882
0.26548687
0.26544625
0.26554156
0.26547529
0.26548161
0.2655245
0.26542026
0.26529671
0.26524875
0.26517279
0.26501637
0.26489624
0.26477719
0.26475914
0.26453998
0.2643831
0.26417669
0.26385091
0.26904127
0.26934522
0.26956948
0.26967586
0.26989942
0.26994292
0.27002884
0.27013544
0.27028162
0.27037077
0.27045807
0.27058939
0.27063247
0.27061945
0.27063374
0.27069913
0.27061175
0.27064091
0.27058359
0.27051496
0.27029356
0.26985482
0.26931357
0.26886778
0.26851925
0.26870192
0.27370667
0.27356578
0.27392495
0.27437778
0.27487736
0.27529764
0.27552397
0.27562345
0.27565969
0.27565203
0.27571723
0.27566149
0.27562415
0.275634
0.27560279
0.27548771
0.27536481
0.27526239
0.27512858
0.27503423
0.27498331
0.27491319
0.27470929
0.2746025
0.27438114
0.27412329
0.27904159
0.27926024
0.27946706
0.27959943
0.27976815
0.27988244
0.27988591
0.2799607
0.28010465
0.28020498
0.28036907
0.28045643
0.28048653
0.28047308
0.28054622
0.28058077
0.28053819
0.2805228
0.28051711
0.2803865
0.28015302
0.27975395
0.27930955
0.27884581
0.27848683
0.27861106
0.28335205
0.28326331
0.28362134
0.28407007
0.28449997
0.28486571
0.28508933
0.28522978
0.28524104
0.28526261
0.28527722
0.28524552
0.28517242
0.28517109
0.28514243
0.28506569
0.28490419
0.2847911
0.28464372
0.28459377
0.28458792
0.28446752
0.2843229
0.28417338
0.28399051
0.28379153
0.28832473
0.28854389
0.28872213
0.28887166
0.28901506
0.2890994
0.28912977
0.28917135
0.28929681
0.28942404
0.28956742
0.28964595
0.28969992
0.28970066
0.2897506
0.28978219
0.28980445
0.28978305
0.28975218
0.28961521
0.28942983
0.28908488
0.28864698
0.28822616
0.28787841
0.2879541
0.29235957
0.29231336
0.29265157
0.29305321
0.29345983
0.29377805
0.29394819
0.29407775
0.29410613
0.29412659
0.29409074
0.294056
0.29400766
0.29400543
0.29394982
0.2938666
0.29372593
0.29359953
0.29349434
0.29344271
0.29340003
0.29332606
0.29318763
0.29303558
0.29287194
0.29266237
0.29674856
0.29696168
0.29710666
0.29726361
0.29739881
0.29747165
0.297511
0.29760218
0.29767919
0.29779953
0.29793334
0.29802381
0.29808007
0.29808427
0.29813358
0.29817759
0.29821431
0.29820041
0.29817616
0.29805757
0.2979014
0.29761256
0.29726082
0.29687344
0.29655554
0.29660137
0.30062093
0.30058692
0.30088293
0.30123936
0.3015635
0.30181602
0.30196332
0.30206326
0.30208869
0.30208937
0.30205917
0.3019986
0.30195293
0.3019326
0.30187316
0.3017865
0.30165149
0.30154783
0.30146445
0.30136089
0.30131888
0.30124571
0.30111103
0.30095783
0.30082568
0.30062889
0.30427481
0.30445581
0.3045863
0.30472382
0.30485351
0.30493375
0.30498562
0.30508541
0.30518377
0.30526514
0.30540377
0.30548921
0.30554706
0.30559814
0.30564695
0.3057203
0.30574786
0.3057571
0.30573908
0.30565078
0.30552092
0.30529237
0.30497984
0.30466206
0.30439204
0.30442624
0.30798927
0.30796403
0.30821066
0.30849679
0.30877368
0.30897158
0.30908514
0.30915837
0.3091708
0.30915975
0.30912693
0.30904911
0.30899421
0.30892947
0.30886964
0.30877849
0.30865072
0.30857172
0.3084654
0.30837029
0.30830989
0.30822526
0.30809811
0.30797489
0.30784652
0.30768954
0.31085864
0.31099557
0.31112889
0.31123307
0.31135719
0.31144535
0.31152132
0.31160507
0.31170881
0.3117991
0.31191221
0.31201705
0.31208356
0.31214377
0.31220911
0.31228207
0.31232936
0.31233277
0.31232617
0.31226794
0.31217197
0.31200722
0.31177895
0.31151975
0.31130083
0.31133022
0.3144294
0.31440309
0.31459504
0.31482138
0.31501844
0.31514737
0.31522903
0.31526446
0.31526903
0.31525834
0.3152024
0.31512927
0.31506747
0.31500537
0.31493221
0.31482213
0.31471755
0.31461982
0.31451702
0.31443708
0.31435293
0.31426333
0.31414793
0.31404897
0.31392306
0.31380002
0.31651395
0.31663409
0.31674785
0.3168479
0.31695122
0.3170416
0.31712753
0.31721075
0.31732023
0.31742039
0.31752318
0.31762281
0.31770549
0.31777016
0.31782151
0.31789652
0.31795495
0.31798373
0.31798186
0.31797311
0.31790822
0.31780811
0.31763209
0.31744324
0.31728242
0.31731124
0.31996975
0.31994976
0.32007839
0.32023499
0.32037952
0.32045491
0.32050317
0.32049648
0.32048702
0.32044823
0.32038796
0.32031448
0.32026143
0.32019391
0.32010687
0.32000967
0.31991183
0.3198114
0.31970957
0.31961982
0.31953299
0.31944268
0.31934524
0.31924856
0.31914293
0.31903512
0.32137155
0.32147044
0.32156841
0.32166203
0.32175511
0.32184519
0.32193033
0.32202658
0.3221176
0.32221456
0.32230665
0.32240349
0.32249027
0.32256136
0.32262072
0.32269209
0.32275349
0.32279918
0.32281981
0.32283584
0.32280515
0.32275032
0.3226392
0.32251456
0.3224157
0.32242962
0.32469983
0.32469288
0.32476857
0.32486548
0.32494648
0.32498333
0.32499865
0.32497522
0.32494483
0.32489369
0.32483254
0.32476369
0.32469927
0.32462594
0.32454088
0.32444708
0.32436037
0.32426945
0.32418131
0.32408748
0.32400417
0.32391647
0.32382756
0.32373881
0.32364993
0.32356077
0.32561854
0.32570279
0.32578494
0.32586561
0.32595118
0.32603335
0.32611438
0.326201
0.32628719
0.32637242
0.3264554
0.32654285
0.32662389
0.32669779
0.32676604
0.32683198
0.32689286
0.32694747
0.32698442
0.32701341
0.32701074
0.32698887
0.32693407
0.32686019
0.32680359
0.32681066
0.32878143
0.32877672
0.3288173
0.32887029
0.32890499
0.32891481
0.32890752
0.32887441
0.32883291
0.3287761
0.32871691
0.32865253
0.32858415
0.3285123
0.32843495
0.32835341
0.32827525
0.32819447
0.32811229
0.32803227
0.32795599
0.32787808
0.32779882
0.32772402
0.32764932
0.32757424
0.32749062
0.32741473
0.32931036
0.32937748
0.32944671
0.32951324
0.32958049
0.32964907
0.32972173
0.32979425
0.32986668
0.32993901
0.33001501
0.33009104
0.3301658
0.33024065
0.33031382
0.33038224
0.33044747
0.33051165
0.33056963
0.33062555
0.33066883
0.33070456
0.33071915
0.33071842
0.33069847
0.33066361
0.33063719
0.33064237
0.33241469
0.33241082
0.33242742
0.33244765
0.33245661
0.33244963
0.33242951
0.33239291
0.33234908
0.33229537
0.33223987
0.33217814
0.33211623
0.33205151
0.33198362
0.33191506
0.33184538
0.331775
0.33170632
0.33164019
0.33157325
0.33150708
0.33144218
0.3313798
0.33131937
0.33126008
0.33120133
0.3311434
0.33288305
0.33293355
0.33298409
0.33303437
0.3330868
0.33314088
0.33319664
0.33325336
0.33331243
0.33337263
0.33343337
0.33349465
0.33355851
0.33362185
0.33368429
0.33374669
0.33380731
0.33386513
0.33392254
0.33397481
0.33402524
0.33406802
0.33410433
0.33412776
0.33414113
0.33414052
0.33413089
0.33412087
0.33412499
0.33579296
0.33578944
0.33579399
0.33579654
0.33579117
0.33577451
0.33574955
0.33571477
0.33567403
0.33562773
0.33557914
0.33552667
0.33547378
0.33541871
0.33536231
0.33530583
0.33524913
0.3351923
0.33513754
0.33508312
0.33502982
0.33497801
0.33492809
0.33487914
0.33483183
0.33478622
0.33474276
0.33469949
0.33465766
0.33641859
0.33645423
0.3364908
0.33652825
0.33656715
0.33660832
0.33665046
0.33669416
0.33673895
0.33678558
0.33683344
0.33688179
0.33693161
0.33698158
0.33703212
0.3370821
0.33713112
0.33717879
0.33722585
0.3372701
0.33731187
0.3373497
0.33738208
0.33740696
0.3374248
0.33743415
0.33743613
0.33743562
0.3374393
0.33907923
0.33907599
0.33907401
0.33906915
0.33905804
0.33904019
0.33901652
0.33898698
0.33895298
0.33891578
0.33887626
0.3388347
0.33879241
0.33874928
0.33870562
0.33866158
0.33861811
0.33857503
0.33853294
0.33849144
0.33845145
0.33841295
0.33837545
0.3383394
0.33830429
0.33827124
0.33823941
0.33820869
0.33817902
0.33994654
0.33997104
0.33999658
0.34002324
0.34005109
0.34008056
0.34011111
0.34014274
0.34017559
0.34020953
0.34024478
0.3402808
0.34031756
0.34035493
0.34039254
0.34043009
0.34046742
0.34050428
0.34054034
0.34057502
0.34060765
0.34063741
0.34066374
0.3406854
0.34070236
0.34071373
0.34072012
0.34072356
0.34072661
0.34239107
0.34238852
0.34238461
0.34237766
0.34236668
0.34235137
0.34233228
0.34230942
0.34228372
0.3422556
0.34222579
0.34219497
0.34216348
0.34213172
0.34209989
0.34206811
0.34203664
0.34200568
0.34197538
0.34194585
0.34191745
0.34188993
0.34186351
0.34183804
0.34181362
0.34179047
0.34176844
0.34174744
0.3417274
0.34352561
0.34354183
0.34355891
0.34357689
0.34359589
0.34361581
0.34363673
0.34365851
0.34368118
0.34370464
0.343729
0.34375405
0.34377973
0.34380584
0.34383229
0.34385886
0.3438854
0.34391181
0.34393772
0.34396286
0.34398667
0.34400848
0.34402784
0.34404412
0.34405736
0.3440674
0.34407426
0.34407817
0.34408033
0.34579932
0.34579759
0.34579387
0.34578747
0.34577871
0.34576771
0.34575428
0.34573828
0.34572014
0.34570035
0.34567952
0.3456581
0.34563635
0.34561454
0.34559274
0.34557109
0.34554976
0.34552882
0.34550843
0.34548863
0.34546955
0.34545116
0.34543349
0.34541658
0.34540049
0.34538517
0.34537069
0.34535697
0.34534401
0.34718421
0.34719445
0.34720532
0.34721681
0.34722897
0.34724177
0.34725522
0.34726931
0.347284
0.34729927
0.34731512
0.34733145
0.34734823
0.34736536
0.34738275
0.34740031
0.34741794
0.34743554
0.34745293
0.3474699
0.34748604
0.34750082
0.3475137
0.3475244
0.34753316
0.34754049
0.34754631
0.34754984
0.34755128
0.34933791
0.34933663
0.34933313
0.34932784
0.34932193
0.34931529
0.34930711
0.349297
0.34928519
0.34927225
0.34925867
0.3492448
0.34923082
0.34921686
0.34920299
0.34918927
0.34917577
0.34916257
0.34914973
0.34913727
0.34912527
0.34911373
0.3491027
0.34909217
0.34908215
0.34907265
0.34906368
0.34905521
0.34904723
0.35093377
0.35093988
0.35094637
0.35095326
0.35096054
0.35096824
0.35097633
0.35098482
0.3509937
0.35100295
0.35101255
0.35102245
0.35103262
0.35104304
0.35105363
0.35106437
0.35107519
0.35108607
0.35109692
0.3511076
0.35111782
0.35112707
0.35113479
0.35114075
0.35114548
0.35115009
0.35115507
0.35115885
0.35116025
0.35301934
0.35301739
0.35301278
0.35300775
0.35300419
0.35300111
0.35299702
0.35299128
0.35298414
0.35297619
0.35296793
0.35295961
0.35295134
0.35294314
0.35293503
0.35292704
0.35291919
0.35291152
0.35290406
0.35289684
0.35288987
0.35288318
0.35287679
0.3528707
0.35286491
0.35285943
0.35285426
0.35284938
0.35284479
0.3547822
0.35478557
0.35478915
0.35479295
0.35479698
0.35480122
0.35480569
0.35481039
0.35481529
0.3548204
0.35482569
0.35483116
0.35483679
0.35484255
0.35484841
0.35485437
0.35486041
0.35486656
0.35487279
0.35487908
0.35488519
0.35489066
0.35489485
0.35489746
0.35489923
0.35490206
0.35490764
0.35491391
0.35491719
0.35685771
0.3568517
0.35684271
0.35683599
0.35683357
0.3568327
0.35683114
0.35682805
0.35682383
0.35681914
0.35681443
0.35680986
0.35680544
0.35680112
0.35679689
0.35679273
0.35678865
0.35678466
0.35678078
0.35677702
0.35677339
0.35676991
0.35676657
0.35676339
0.35676037
0.3567575
0.35675479
0.35675223
0.35674983
0.35875409
0.35875575
0.3587575
0.35875937
0.35876134
0.35876341
0.35876558
0.35876786
0.35877024
0.35877271
0.35877527
0.35877791
0.35878062
0.35878338
0.35878621
0.35878909
0.35879204
0.35879512
0.35879839
0.35880189
0.35880552
0.35880889
0.35881131
0.35881226
0.35881261
0.35881489
0.35882324
0.358836
0.35884651
0.36088993
0.36087277
0.36085584
0.36084572
0.36084356
0.36084339
0.36084268
0.36084055
0.36083768
0.36083478
0.36083219
0.36082992
0.36082787
0.36082596
0.36082411
0.3608223
0.36082053
0.3608188
0.3608171
0.36081546
0.36081387
0.36081233
0.36081085
0.36080944
0.3608081
0.36080681
0.36080559
0.36080444
0.36080335
0.36290428
0.36290495
0.36290566
0.36290641
0.36290719
0.362908
0.36290886
0.36290974
0.36291066
0.36291161
0.36291259
0.36291359
0.36291461
0.36291565
0.36291671
0.3629178
0.36291895
0.36292024
0.36292177
0.36292369
0.36292608
0.36292869
0.36293082
0.36293152
0.36293172
0.3629334
0.36294484
0.36296485
0.36298782
0.36513384
0.36510524
0.36508529
0.36507351
0.36507312
0.36507281
0.36507209
0.36506984
0.36506738
0.36506535
0.36506392
0.36506293
0.36506219
0.36506157
0.365061
0.36506047
0.36505993
0.3650594
0.36505888
0.36505836
0.36505786
0.36505737
0.36505689
0.36505643
0.36505598
0.36505556
0.36505514
0.36505475
0.36505436
0.3672323
0.36723249
0.36723268
0.36723289
0.36723309
0.36723329
0.36723351
0.36723372
0.36723394
0.36723416
0.36723438
0.3672346
0.36723482
0.36723504
0.36723525
0.36723548
0.36723575
0.36723612
0.36723672
0.36723776
0.36723949
0.36724183
0.36724422
0.36724478
0.36724534
0.36724318
0.36725408
0.36726776
0.3672904
0.3694227
0.36940535
0.3694044
0.3693946
0.36940091
0.36939941
0.36939922
0.36939662
0.36939446
0.36939302
0.36939231
0.36939199
0.36939185
0.36939178
0.36939174
0.3693917
0.36939165
0.36939159
0.36939154
0.36939148
0.36939141
0.36939135
0.36939128
0.3693912
0.36939113
0.36939106
0.36939098
0.3693909
0.36939082
0.37146492
0.37146495
0.37146498
0.37146498
0.37146501
0.37146503
0.37146503
0.37146504
0.37146504
0.37146504
0.37146504
0.37146502
0.371465
0.371465
0.37146498
0.37146494
0.37146492
0.37146491
0.37146503
0.37146541
0.37146651
0.37146837
0.37147139
0.371471
0.37147546
0.37146332
0.37147513
0.37145704
0.37146221
0.37143599
0.37339462
0.37337981
0.37338235
0.37337637
0.37338356
0.37338225
0.37338225
0.37338026
0.373379
0.37337829
0.37337804
0.37337797
0.37337798
0.37337801
0.37337802
0.37337806
0.37337807
0.37337808
0.37337812
0.37337812
0.37337812
0.37337814
0.37337815
0.37337814
0.37337814
0.37337814
0.37337814
0.37337815
0.37337812
0.37332706
0.37332709
0.37332709
0.3733271
0.3733271
0.37332711
0.37332713
0.37332711
0.3733271
0.37332711
0.37332711
0.37332708
0.37332708
0.37332707
0.37332704
0.37332703
0.37332703
0.37332706
0.37332719
0.37332756
0.37332834
0.37332965
0.37333109
0.37333123
0.37332913
0.37332562
0.37332999
0.37334591
0.37337133
0.37336268
0.37331929
0.37329381
0.37328757
0.37329085
0.37329385
0.37329395
0.37329258
0.37329124
0.3732904
0.37328999
0.37328982
0.37328976
0.37328974
0.37328974
0.37328974
0.37328975
0.37328975
0.37328975
0.37328974
0.37328974
0.37328972
0.37328974
0.37328972
0.3732897
0.37328969
0.37328967
0.37328965
0.37328964
0.37327741
0.37327743
0.37327746
0.37327749
0.37327752
0.37327754
0.37327757
0.37327758
0.3732776
0.37327762
0.37327764
0.37327767
0.37327767
0.37327769
0.3732777
0.37327772
0.37327776
0.37327784
0.37327803
0.37327847
0.37327936
0.37328077
0.37328222
0.37328208
0.37327876
0.37327512
0.37328167
0.37330955
0.37335346
0.37335964
0.37331317
0.37328549
0.3732795
0.37328352
0.37328691
0.37328695
0.37328537
0.37328387
0.37328294
0.37328247
0.37328225
0.37328215
0.3732821
0.37328206
0.37328202
0.37328198
0.37328195
0.3732819
0.37328187
0.37328183
0.37328178
0.37328175
0.37328171
0.37328167
0.37328163
0.37328159
0.37328155
0.37328152
0.37328819
0.37328824
0.37328829
0.37328835
0.37328841
0.37328846
0.37328852
0.37328858
0.37328864
0.37328871
0.37328877
0.37328883
0.3732889
0.37328896
0.37328903
0.37328909
0.37328918
0.3732893
0.37328954
0.37329003
0.37329101
0.37329259
0.37329428
0.37329435
0.373291
0.37328682
0.37329225
0.37331861
0.37336136
0.37336369
0.37332186
0.37329626
0.37329107
0.37329524
0.37329851
0.37329834
0.37329658
0.37329495
0.37329394
0.37329341
0.37329315
0.37329299
0.37329288
0.37329278
0.37329269
0.37329259
0.3732925
0.3732924
0.37329232
0.37329223
0.37329214
0.37329205
0.37329198
0.3732919
0.37329182
0.37329175
0.37329168
0.37329161
0.37329247
0.37329254
0.37329263
0.37329273
0.37329283
0.37329292
0.37329302
0.37329314
0.37329326
0.37329337
0.37329349
0.37329361
0.37329374
0.37329386
0.373294
0.37329413
0.37329428
0.37329446
0.37329476
0.37329531
0.37329635
0.37329802
0.37329983
0.37330006
0.37329687
0.37329278
0.37329791
0.37332313
0.37336398
0.37336426
0.3733238
0.37329875
0.37329361
0.37329763
0.37330076
0.37330049
0.37329864
0.37329694
0.37329587
0.37329529
0.37329496
0.37329474
0.37329456
0.37329439
0.37329422
0.37329407
0.3732939
0.37329375
0.3732936
0.37329346
0.37329331
0.37329317
0.37329304
0.37329293
0.3732928
0.37329268
0.37329258
0.37329249
0.37329248
0.37329259
0.37329271
0.37329285
0.373293
0.37329314
0.37329329
0.37329345
0.37329363
0.3732938
0.37329397
0.37329417
0.37329436
0.37329455
0.37329476
0.37329496
0.37329518
0.37329543
0.37329579
0.37329641
0.37329751
0.37329923
0.37330111
0.37330141
0.37329832
0.37329433
0.37329948
0.37332444
0.37336476
0.37336544
0.37332515
0.37330022
0.37329508
0.37329904
0.3733021
0.37330178
0.37329988
0.37329813
0.373297
0.37329636
0.37329596
0.37329568
0.37329543
0.37329519
0.37329495
0.37329473
0.37329451
0.37329428
0.37329408
0.37329388
0.37329368
0.37329349
0.37329332
0.37329316
0.37329299
0.37329284
0.3732927
0.37329257
0.37329271
0.37329285
0.373293
0.37329318
0.37329336
0.37329354
0.37329373
0.37329394
0.37329417
0.37329439
0.37329461
0.37329486
0.37329512
0.37329536
0.37329563
0.37329589
0.37329617
0.37329648
0.37329691
0.37329758
0.37329873
0.3733005
0.37330242
0.37330276
0.37329972
0.37329577
0.37330091
0.37332582
0.3733661
0.37336665
0.37332639
0.37330148
0.37329633
0.37330027
0.3733033
0.37330295
0.37330103
0.37329924
0.37329807
0.37329739
0.37329695
0.37329661
0.37329632
0.37329603
0.37329574
0.37329548
0.3732952
0.37329493
0.37329468
0.37329445
0.37329421
0.37329398
0.37329377
0.37329357
0.37329338
0.37329319
0.37329302
0.37329287
0.37329304
0.37329321
0.37329338
0.37329358
0.37329378
0.37329399
0.37329421
0.37329445
0.3732947
0.37329495
0.37329521
0.37329549
0.37329578
0.37329606
0.37329635
0.37329665
0.37329695
0.37329729
0.37329774
0.37329844
0.37329961
0.3733014
0.37330333
0.37330368
0.37330065
0.37329671
0.37330186
0.37332677
0.37336701
0.37336717
0.37332694
0.37330203
0.37329689
0.37330084
0.37330389
0.37330355
0.37330163
0.37329984
0.37329868
0.37329799
0.37329755
0.37329721
0.37329691
0.37329663
0.37329634
0.37329606
0.37329577
0.37329549
0.37329522
0.37329497
0.37329472
0.37329447
0.37329424
0.37329402
0.37329382
0.37329362
0.37329344
0.37329326
0.37329366
0.37329384
0.37329403
0.37329422
0.37329442
0.37329464
0.37329487
0.37329512
0.37329536
0.37329562
0.37329588
0.37329615
0.37329642
0.37329667
0.37329688
0.37329713
0.37329742
0.37329774
0.37329816
0.37329883
0.37329997
0.37330173
0.37330362
0.37330393
0.37330086
0.37329688
0.37330201
0.37332692
0.37336716
0.37336695
0.37332666
0.3733017
0.37329655
0.37330054
0.37330367
0.37330341
0.37330156
0.37329985
0.37329875
0.37329812
0.37329773
0.37329744
0.37329719
0.37329697
0.37329685
0.37329684
0.37329666
0.37329642
0.37329617
0.37329593
0.3732957
0.37329546
0.37329523
0.37329502
0.37329482
0.37329463
0.37329445
0.37329427
0.37329451
0.37329468
0.37329486
0.37329504
0.37329524
0.37329544
0.37329566
0.37329587
0.37329609
0.37329631
0.37329651
0.37329659
0.37329623
0.37329604
0.3732961
0.37329628
0.37329649
0.37329674
0.37329708
0.37329766
0.3732987
0.37330035
0.37330212
0.37330231
0.37329916
0.37329519
0.37330046
0.37332564
0.37336624
0.37336398
0.3733227
0.37329696
0.37329131
0.37329508
0.3732982
0.37329806
0.37329637
0.37329481
0.37329384
0.37329333
0.37329305
0.37329286
0.37329269
0.37329256
0.37329255
0.37329283
0.37329355
0.37329438
0.3732944
0.37329425
0.37329406
0.37329387
0.37329367
0.37329348
0.3732933
0.37329312
0.37329295
0.37329279
0.3732884
0.37328856
0.37328871
0.37328888
0.37328905
0.37328922
0.3732894
0.37328957
0.37328968
0.37328955
0.3732883
0.37328692
0.37328608
0.37328575
0.37328571
0.37328579
0.3732859
0.37328603
0.37328625
0.37328669
0.37328758
0.37328905
0.37329066
0.3732908
0.37328788
0.37328449
0.37329066
0.37331716
0.37335957
0.37335406
0.37331224
0.37328656
0.37328053
0.37328354
0.37328611
0.37328584
0.37328426
0.37328288
0.37328207
0.37328171
0.37328155
0.37328148
0.37328143
0.3732814
0.37328148
0.37328187
0.37328277
0.3732843
0.37328627
0.37328776
0.37328796
0.37328788
0.37328773
0.37328757
0.37328741
0.37328726
0.37328711
0.37328697
0.37330188
0.37330202
0.37330215
0.3733023
0.37330245
0.37330258
0.37330265
0.37330245
0.37330098
0.37329862
0.37329647
0.37329489
0.37329394
0.37329352
0.37329339
0.37329337
0.37329338
0.37329339
0.37329348
0.37329377
0.37329448
0.37329576
0.37329731
0.37329778
0.37329566
0.37329267
0.37329656
0.37331659
0.37335148
0.37334936
0.37334179
0.37332902
0.37332921
0.37333263
0.37333429
0.37333371
0.37333227
0.37333119
0.37333063
0.37333045
0.37333044
0.37333048
0.37333051
0.37333057
0.37333073
0.37333118
0.37333214
0.37333374
0.37333593
0.37333847
0.37334093
0.37334211
0.37334224
0.37334216
0.37334202
0.37334188
0.37334177
0.37334163
0.37339445
0.37339457
0.37339468
0.37339481
0.37339493
0.37339495
0.37339423
0.37339193
0.3733893
0.37338676
0.37338458
0.37338299
0.37338203
0.37338158
0.3733814
0.37338133
0.37338125
0.37338115
0.37338107
0.3733811
0.37338144
0.37338214
0.37338339
0.37338371
0.37338269
0.37337851
0.37337421
0.37336637
0.37337196
0.37141195
0.37137415
0.37135587
0.37135308
0.37136016
0.37136793
0.37137259
0.3713745
0.37137513
0.37137512
0.37137467
0.37137378
0.37137251
0.37137098
0.37136936
0.37136786
0.37136643
0.37136435
0.37135977
0.37135492
0.37135045
0.37136709
0.37139474
0.36932068
0.36938245
0.36941269
0.36728116
0.36512626
0.36298102
0.36088408
0.35884148
0.3568536
0.35491398
0.35301702
0.35115884
0.34933754
0.34755215
0.34580171
0.34408459
0.34239772
0.34073618
0.33909261
0.3374572
0.33581696
0.33415592
0.33245513
0.33069318
0.32884654
0.32689054
0.32480025
0.32255093
0.32012064
0.31748768
0.31463989
0.31156784
0.3082656
0.30473107
0.30096748
0.296978
0.29279365
0.28842205
0.28387551
0.27917056
0.27432333
0.26935207
0.26427308
0.25910165
0.25385162
0.24852832
0.243152
0.23773893
0.23229999
0.22685668
0.22141384
0.21597615
0.21054373
0.20509978
0.20545821
0.21093246
0.21637863
0.22182473
0.227269
0.23272633
0.23820308
0.24365739
0.24908688
0.25444211
0.2597077
0.26488889
0.26996126
0.27492026
0.27974764
0.28442603
0.28893836
0.29326531
0.29740784
0.30136807
0.3051026
0.30860814
0.31187853
0.31491781
0.31773651
0.32033937
0.32273912
0.32496009
0.32702472
0.32895795
0.33078394
0.33252846
0.33421398
0.33586226
0.33749174
0.33911836
0.34075481
0.3424106
0.34409287
0.34580632
0.34755379
0.3493367
0.35115574
0.35301159
0.35490571
0.3568413
0.35882352
0.36085834
0.3629485
0.36508667
0.36724648
0.36721919
0.36936688
0.36935012
0.36720077
0.36503571
0.36505462
0.36291789
0.36083219
0.35880294
0.35682602
0.35489494
0.35300459
0.35115221
0.34933673
0.34755788
0.34581539
0.34410826
0.3424341
0.3407887
0.33916557
0.3375561
0.33594784
0.33432527
0.33267111
0.33096429
0.32918388
0.32730358
0.32529957
0.32314669
0.32082237
0.31830427
0.31558699
0.31265186
0.30948206
0.30607457
0.30245059
0.29859586
0.29455245
0.2903099
0.28588103
0.28127488
0.27651084
0.27160691
0.2665833
0.26143934
0.25619055
0.2508607
0.24550265
0.24008379
0.23461667
0.22917981
0.22374636
0.21830555
0.21285971
0.20738858
0.20873393
0.21429596
0.21982875
0.22530757
0.23075877
0.23621999
0.2417017
0.24713647
0.25251888
0.25780838
0.26300529
0.26813108
0.27314031
0.27801947
0.2827476
0.28730967
0.29169306
0.2958601
0.29981538
0.30358019
0.30711421
0.31042329
0.31349707
0.31634312
0.31897549
0.3214011
0.32363875
0.32571307
0.32764754
0.32946661
0.3311949
0.33285656
0.33447206
0.33606274
0.33764438
0.33923214
0.34083782
0.34246938
0.34413269
0.34583139
0.34756732
0.34934105
0.35115246
0.3530014
0.35488858
0.35681655
0.35879034
0.36081665
0.36290008
0.36289834
0.36503445
0.36720129
0.36935424
0.36935632
0.36720496
0.36503913
0.36290395
0.3608219
0.36081532
0.35878998
0.35681759
0.35489141
0.35300655
0.35116077
0.34935372
0.34758595
0.34585809
0.34417007
0.34252065
0.34090677
0.33932319
0.33776252
0.33621334
0.33466156
0.33309102
0.3314819
0.32981521
0.32806529
0.32620792
0.32421877
0.32207398
0.31974706
0.31722004
0.31448981
0.3115399
0.3083522
0.30493142
0.30127786
0.29742747
0.29335534
0.28907433
0.28460323
0.27996032
0.27515709
0.27020882
0.26513346
0.25996115
0.25469429
0.24935729
0.24394673
0.23848308
0.23303532
0.22758857
0.22212081
0.21661299
0.21103763
0.21220648
0.21785409
0.22345547
0.22898313
0.23446903
0.23995265
0.24545413
0.25086353
0.25619172
0.26147129
0.26664693
0.2717125
0.27664598
0.28142936
0.28603721
0.29046116
0.29469619
0.29870381
0.3024878
0.30605745
0.30938973
0.31250032
0.31537542
0.31803027
0.32047818
0.32273265
0.32480789
0.32672945
0.32852204
0.33020897
0.33181684
0.33337127
0.33489254
0.33640107
0.3379125
0.33944122
0.34099816
0.34259039
0.34422261
0.34589731
0.34761514
0.34937558
0.35117744
0.35301964
0.35490205
0.35682652
0.35879764
0.35880859
0.36083134
0.36291199
0.36504583