/*--------------------------------*- C++ -*----------------------------------*\
| =========                 |                                                 |
| \\      /  F ield         | OpenFOAM: The Open Source CFD Toolbox           |
|  \\    /   O peration     | Version:  v2012                                 |
|   \\  /    A nd           | Website:  www.openfoam.com                      |
|    \\/     M anipulation  |                                                 |
\*---------------------------------------------------------------------------*/
FoamFile
{
    version     2.0;
    format      ascii;
    class       volScalarField;
    location    "100";
    object      omega;
}
// * * * * * * * * * * * * * * * * * * * * * * * * * * * * * * * * * * * * * //

dimensions      [0 0 -1 0 0 0 0];


internalField   nonuniform List<scalar> 
74500
(
11.138628
11.138628
11.138628
11.138628
11.138628
11.138628
11.138628
11.138628
11.138628
11.138628
11.138627
11.138627
11.138627
11.138626
11.138626
11.138625
11.138624
11.138623
11.138622
11.138624
11.138639
11.138666
11.138751
11.138708
11.138962
11.138494
11.139046
11.138074
11.138505
11.137629
11.138316
11.137779
11.138536
11.137969
11.138377
11.138187
11.138241
11.138195
11.138183
11.138186
11.138197
11.138208
11.138217
11.138223
11.138226
11.138228
11.138228
11.138228
11.138198
11.138135
11.138009
11.1379
11.137738
11.138654
11.138762
11.13813
11.138459
11.138579
11.138709
11.138702
11.13871
11.138676
11.138672
11.138667
11.138671
11.138674
11.138677
11.13868
11.13868
11.138676
11.138662
11.138628
11.138569
11.138482
11.138375
11.138257
11.138141
11.13805
11.138037
11.138034
11.138032
11.13803
11.138028
11.087435
11.087439
11.087443
11.087449
11.08746
11.08751
11.087883
11.088371
11.088881
11.089353
11.089744
11.090022
11.090183
11.090257
11.09028
11.090285
11.090284
11.090281
11.090279
11.09028
11.090293
11.090313
11.090357
11.090349
11.090304
11.090093
11.089867
11.089575
11.089756
11.089544
11.088933
11.088937
11.089088
11.089301
11.089438
11.089505
11.089519
11.089521
11.089517
11.089509
11.089494
11.089474
11.089449
11.089424
11.08941
11.089411
11.089431
11.089369
11.089464
11.089155
11.089636
11.089314
11.089713
11.08903
11.039288
10.985923
10.932549
10.878514
10.825883
10.774375
10.724214
10.675148
10.627033
10.579753
10.533266
10.487562
10.442645
10.398522
10.355194
10.312655
10.270886
10.22986
10.189541
10.149887
10.110861
10.072436
10.0346
9.9973727
9.9608144
9.9250304
9.890184
9.8564911
9.8242314
9.7937291
9.765371
9.7395698
9.7167933
9.6975409
9.6822499
9.6713621
9.6653554
9.6646162
9.6695544
9.6804644
9.6976655
9.7213377
9.7517035
9.7888407
9.8328762
9.8837606
9.9415056
10.005926
10.076927
10.154256
10.23783
10.327828
10.428193
10.412196
10.416629
10.408958
10.406205
10.410649
10.416227
10.415792
10.416658
10.413602
10.41383
10.4087
10.409386
10.415056
10.412798
10.422308
10.426665
10.429923
10.433505
10.435734
10.438327
10.451033
10.458192
10.450542
10.441685
10.408099
10.311693
10.341367
10.348287
10.354167
10.346304
10.333593
10.330859
10.328838
10.325145
10.322169
10.318008
10.308668
10.311207
10.305477
10.305021
10.309819
10.309149
10.311998
10.310404
10.311367
10.305925
10.30159
10.303722
10.309834
10.306181
10.32017
10.221199
10.208348
10.211197
10.2066
10.205663
10.209327
10.21522
10.213329
10.215933
10.212543
10.214458
10.209215
10.21018
10.215272
10.213085
10.221804
10.226388
10.228401
10.232858
10.23386
10.237433
10.249242
10.258493
10.253692
10.248362
10.221495
10.13854
10.162085
10.165961
10.169877
10.159506
10.147521
10.144276
10.143578
10.139185
10.137352
10.133135
10.124888
10.126898
10.12139
10.12091
10.125674
10.123436
10.126506
10.122763
10.125732
10.119212
10.117118
10.116254
10.120309
10.118482
10.129317
10.045907
10.036204
10.037307
10.033265
10.035538
10.036221
10.042756
10.039292
10.043516
10.041348
10.043494
10.039789
10.039224
10.045724
10.04428
10.051568
10.054341
10.057106
10.060361
10.062035
10.06549
10.076941
10.088466
10.085226
10.082646
10.061501
9.991927
10.01024
10.011611
10.013739
10.001093
9.9913603
9.9867263
9.9861936
9.9829958
9.9804851
9.9778657
9.9712559
9.9713945
9.9649715
9.9666991
9.9692588
9.9673297
9.9686046
9.965113
9.9679763
9.9623179
9.9609326
9.9594625
9.9623765
9.9620599
9.9698476
9.9024843
9.8957461
9.8955883
9.893664
9.8942841
9.896452
9.9011745
9.8990151
9.9016723
9.9013298
9.9026018
9.9012468
9.8983013
9.9049177
9.906098
9.9120055
9.9147927
9.9165617
9.920292
9.9189507
9.9250734
9.9325099
9.9455563
9.9452066
9.9449792
9.9286482
9.8730886
9.8870126
9.8863171
9.8852776
9.8729714
9.8659841
9.8601694
9.8615703
9.8578985
9.8567941
9.8531779
9.8487581
9.8466675
9.8408078
9.8438846
9.8447971
9.8426897
9.8427654
9.8411107
9.8424042
9.8387549
9.8357572
9.8360798
9.8369635
9.837638
9.842765
9.7913019
9.7873667
9.7861113
9.7863345
9.7849615
9.7888438
9.7917065
9.7910911
9.7920359
9.7918173
9.7949016
9.7942967
9.7916886
9.7961499
9.7992137
9.8019047
9.8067197
9.8067539
9.8100212
9.8090791
9.8142156
9.8213147
9.8327723
9.8349196
9.8363531
9.8241912
9.7829742
9.7930145
9.7910457
9.78805
9.7778033
9.7705544
9.7661395
9.7664046
9.7636597
9.7638936
9.7591958
9.7574509
9.7543737
9.7503384
9.7517328
9.7521436
9.7497222
9.7494275
9.7491128
9.7489883
9.7468779
9.7429224
9.7445815
9.7439795
9.7450887
9.7481511
9.7134042
9.7103907
9.7098843
9.7103631
9.708874
9.7125952
9.7139247
9.7147884
9.7144609
9.7154422
9.7170862
9.7167924
9.7166764
9.7205396
9.7233888
9.7240604
9.7281355
9.7281972
9.730579
9.7309698
9.7344771
9.7419484
9.7510367
9.7545965
9.7570151
9.7485129
9.721444
9.7282261
9.7254506
9.7215346
9.7136871
9.7066827
9.7034932
9.702395
9.7005457
9.700095
9.6966429
9.6963014
9.6940628
9.6904762
9.6895595
9.689641
9.6887877
9.6877346
9.6880864
9.6869498
9.6851979
9.6821635
9.6835613
9.6828334
9.6830804
9.6853155
9.664276
9.6627334
9.6623036
9.6637546
9.6626459
9.6649793
9.667167
9.6684795
9.6685199
9.6693419
9.669599
9.6695529
9.6713974
9.6742592
9.6760126
9.6764791
9.679417
9.6801434
9.6816722
9.6832546
9.6864712
9.6926856
9.6993949
9.7034887
9.7065061
9.7008364
9.6871151
9.6915478
9.6884468
9.6843023
9.6786176
9.673124
9.6700548
9.6680467
9.6669173
9.6658055
9.6635105
9.6627793
9.6614893
9.6588185
9.6570029
9.656621
9.6567815
9.6560861
9.6557417
9.6542898
9.6517212
9.6499407
9.6504151
9.6491533
9.6493705
9.649971
9.6424249
9.6425196
9.6427047
9.6435617
9.6437804
9.6449525
9.6479023
9.6495734
9.6498828
9.6506986
9.6502083
9.6510361
9.6528163
9.6552892
9.656119
9.6571506
9.6589576
9.6603556
9.6610901
9.6633943
9.6663807
9.6711585
9.6758267
9.680011
9.6830418
9.6794096
9.6778848
9.6806343
9.6777309
9.6739278
9.6696042
9.665581
9.6629303
9.6606839
9.6597852
9.6583724
9.6570222
9.6559741
9.6550159
9.6528957
9.6512153
9.6502476
9.6504111
9.6496788
9.6492054
9.6473309
9.6446912
9.6434917
9.6428539
9.6421497
9.6415165
9.641165
9.6457679
9.6460627
9.6468729
9.6476922
9.6484419
9.6500471
9.6522773
9.6541618
9.6549984
9.6556979
9.6559252
9.656945
9.6582997
9.6603075
9.6615242
9.6625779
9.6635347
9.66491
9.6660235
9.6681062
9.670206
9.6737312
9.6778756
9.6812385
9.6839225
9.6817234
9.6908702
9.6924656
9.6900073
9.686943
9.6834089
9.6803629
9.6785021
9.6766027
9.6755185
9.674186
9.6732912
9.6722598
9.6710261
9.6691268
9.6678052
9.666753
9.666335
9.6654734
9.6643266
9.6626403
9.6605699
9.658866
9.6579833
9.6570575
9.6560165
9.6554574
9.6699718
9.6706446
9.6719395
9.6729316
9.6739671
9.6756726
9.6777527
9.6791063
9.6805456
9.6815766
9.6822344
9.6832813
9.6846342
9.6864191
9.6876858
9.6886494
9.6896136
9.6908557
9.6919411
9.6936313
9.6953346
9.6979185
9.7007765
9.703598
9.7057725
9.704431
9.7223329
9.7233593
9.7214608
9.719031
9.7165038
9.7143616
9.7127601
9.7112939
9.710165
9.709027
9.7079557
9.7070687
9.7057346
9.7041453
9.7027786
9.7016145
9.7008317
9.6995575
9.6981485
9.6967936
9.6947808
9.6930649
9.6919131
9.6907562
9.6893268
9.6883819
9.7103789
9.7115478
9.7130225
9.7143862
9.7156837
9.7173717
9.7192809
9.7207433
9.7221057
9.7236026
9.7245223
9.7257469
9.7271756
9.7285492
9.7299001
9.7307844
9.7319114
9.7330071
9.7341058
9.7354521
9.7368935
9.738749
9.7410523
9.7431076
9.7447406
9.7439082
9.7687733
9.7693936
9.7679855
9.7662058
9.7642725
9.7626894
9.7613759
9.7601402
9.7590536
9.7579178
9.7568062
9.7558376
9.754506
9.7531606
9.7517169
9.7504566
9.7493271
9.7478003
9.7464037
9.7448342
9.7430121
9.7413217
9.7399252
9.7383949
9.7368925
9.7354957
9.7633759
9.7649191
9.7664162
9.7680786
9.769558
9.771245
9.7729752
9.7746445
9.776129
9.7776231
9.7789384
9.7802021
9.7816365
9.7830445
9.7843526
9.7854304
9.7865082
9.7877106
9.7887996
9.7899397
9.7911546
9.7924971
9.7940706
9.7956311
9.7968263
9.7963211
9.8262054
9.8265821
9.8255682
9.8242445
9.8228753
9.8217366
9.8205908
9.8195607
9.8184463
9.8172731
9.8161772
9.8150386
9.8136714
9.8122456
9.8108222
9.8095046
9.8080783
9.806583
9.8050518
9.8033585
9.8016614
9.799973
9.7984112
9.7967389
9.7951851
9.7935922
9.8258079
9.8273843
9.8289753
9.8306194
9.8322382
9.8339102
9.8355959
9.8372683
9.8387978
9.8403132
9.8417889
9.8431975
9.8446084
9.8460433
9.8474683
9.8486489
9.8497901
9.8509074
9.8520331
9.8529772
9.85405
9.8550528
9.856275
9.8573883
9.8582279
9.8579459
9.8912514
9.8914141
9.8907275
9.8897708
9.8887224
9.8878095
9.8868083
9.885883
9.884789
9.8836778
9.8825091
9.8812828
9.8798697
9.878436
9.8770181
9.8755764
9.8740689
9.8725426
9.870979
9.8693527
9.8676951
9.8660524
9.8644409
9.8628241
9.8612471
9.859677
9.8949887
9.8965116
9.8980493
9.8996134
9.9011903
9.902783
9.9044027
9.9059718
9.9075445
9.909067
9.9105846
9.9120284
9.9134528
9.9148707
9.9162553
9.9175071
9.9186947
9.919801
9.9208676
9.9217876
9.9227268
9.923572
9.9244736
9.9252951
9.925865
9.925791
9.9613552
9.9613627
9.9608701
9.9601538
9.9593676
9.958577
9.9576899
9.956777
9.9557369
9.9546372
9.9534482
9.9521905
9.9508396
9.9494469
9.9480349
9.9466018
9.945105
9.9436023
9.9420728
9.9405479
9.93899
9.9374585
9.9359435
9.9344451
9.9329677
9.9315152
9.9691289
9.9704845
9.9718751
9.9732955
9.9747263
9.9761843
9.977662
9.9791301
9.9805952
9.9820519
9.9835
9.9849052
9.9862884
9.9876424
9.9889515
9.9901946
9.9913697
9.9924522
9.9934667
9.9943645
9.9952068
9.9959493
9.9966459
9.9972789
9.9977153
9.9977452
10.034852
10.03479
10.034399
10.033838
10.033209
10.032511
10.031713
10.030839
10.029856
10.028801
10.027657
10.026452
10.025191
10.023887
10.022557
10.021204
10.019824
10.018439
10.017051
10.015661
10.014276
10.012912
10.011574
10.010253
10.008963
10.007707
10.006506
10.005332
10.045002
10.046068
10.047171
10.048318
10.049498
10.050708
10.051941
10.0532
10.054479
10.055775
10.057072
10.05837
10.059664
10.060945
10.062205
10.063441
10.064642
10.06579
10.066886
10.067903
10.068845
10.069685
10.070438
10.071091
10.071665
10.072163
10.072517
10.072598
10.110962
10.110865
10.110542
10.110097
10.109574
10.108971
10.108268
10.107472
10.106581
10.105617
10.104582
10.103502
10.102377
10.101222
10.100047
10.098855
10.097657
10.09646
10.095264
10.094078
10.09291
10.091765
10.090644
10.08955
10.088487
10.087457
10.086464
10.085509
10.125993
10.126796
10.127637
10.128517
10.129429
10.130374
10.131349
10.132353
10.133381
10.134433
10.135502
10.136586
10.137675
10.138768
10.139858
10.140937
10.141999
10.143037
10.144039
10.145
10.145901
10.146732
10.147473
10.148121
10.148672
10.149145
10.149543
10.14984
10.149943
10.189566
10.18946
10.18919
10.188834
10.188412
10.187916
10.187327
10.186648
10.185885
10.185057
10.184179
10.183265
10.182322
10.181359
10.180385
10.179404
10.178422
10.177447
10.17648
10.175528
10.174596
10.173685
10.1728
10.171942
10.171114
10.170316
10.169549
10.168816
10.168118
10.210939
10.211538
10.212167
10.212827
10.213516
10.214232
10.214976
10.215746
10.216541
10.217356
10.21819
10.21904
10.2199
10.220768
10.221638
10.222504
10.223362
10.224205
10.225025
10.225816
10.226563
10.227252
10.227864
10.228389
10.228829
10.2292
10.229516
10.22976
10.229865
10.270878
10.270775
10.270557
10.270279
10.269957
10.269577
10.269117
10.268575
10.267964
10.2673
10.266601
10.265877
10.265135
10.264383
10.263625
10.262866
10.262111
10.261364
10.260628
10.259907
10.259204
10.258522
10.257861
10.257224
10.256613
10.256026
10.255465
10.254932
10.254425
10.298552
10.298976
10.299422
10.299892
10.300385
10.300901
10.301438
10.301997
10.302576
10.303173
10.303786
10.304413
10.305052
10.3057
10.306351
10.307004
10.307653
10.308294
10.308923
10.309532
10.310111
10.310645
10.311116
10.311509
10.31183
10.312102
10.312344
10.312539
10.312637
10.355171
10.355077
10.354903
10.354694
10.354471
10.354208
10.353879
10.353479
10.353021
10.352523
10.352002
10.351465
10.350919
10.350368
10.349816
10.349265
10.348719
10.348182
10.347654
10.34714
10.34664
10.346157
10.345691
10.345244
10.344815
10.344407
10.344017
10.343648
10.343299
10.388646
10.388931
10.389232
10.38955
10.389884
10.390235
10.390602
10.390985
10.391383
10.391795
10.39222
10.392656
10.393101
10.393554
10.394012
10.394472
10.394932
10.395388
10.395839
10.396278
10.396698
10.397085
10.397419
10.397686
10.397893
10.398069
10.398247
10.398404
10.398494
10.442615
10.442527
10.442383
10.442232
10.4421
10.441946
10.441736
10.441463
10.441142
10.440792
10.440428
10.440057
10.439681
10.439304
10.438928
10.438554
10.438184
10.437821
10.437467
10.437121
10.436787
10.436464
10.436154
10.435857
10.435574
10.435304
10.435048
10.434806
10.434577
10.481078
10.481259
10.481451
10.481655
10.481869
10.482094
10.482331
10.482578
10.482835
10.483102
10.483378
10.483662
10.483953
10.484249
10.484549
10.484851
10.485155
10.485458
10.485759
10.486056
10.486342
10.486604
10.486822
10.48698
10.487086
10.487178
10.487305
10.487442
10.48753
10.533233
10.533141
10.533007
10.532898
10.532842
10.532779
10.532666
10.532496
10.532285
10.532055
10.531817
10.531577
10.531337
10.531097
10.530859
10.530623
10.53039
10.530161
10.529938
10.529722
10.529512
10.529311
10.529117
10.528932
10.528756
10.528589
10.52843
10.52828
10.528139
10.575757
10.575865
10.575979
10.576101
10.57623
10.576365
10.576507
10.576655
10.57681
10.576971
10.577138
10.577309
10.577485
10.577665
10.577847
10.578031
10.578216
10.578402
10.578589
10.578777
10.578961
10.579128
10.579258
10.579332
10.579359
10.579383
10.57948
10.579619
10.579721
10.627006
10.626886
10.626732
10.626638
10.62664
10.626642
10.626598
10.6265
10.626368
10.626223
10.626078
10.625934
10.625793
10.625653
10.625515
10.625378
10.625243
10.625111
10.624982
10.624857
10.624736
10.62462
10.624508
10.624401
10.6243
10.624203
10.624112
10.624026
10.623944
10.672747
10.672806
10.672869
10.672936
10.673007
10.673081
10.67316
10.673241
10.673326
10.673415
10.673506
10.6736
10.673697
10.673796
10.673896
10.673997
10.6741
10.674204
10.674312
10.674423
10.674536
10.674641
10.674715
10.674737
10.674716
10.674696
10.674799
10.674982
10.675135
10.724206
10.723991
10.723763
10.723637
10.723667
10.723697
10.723689
10.723629
10.723544
10.723455
10.72337
10.723292
10.723217
10.723144
10.723072
10.723002
10.722932
10.722864
10.722797
10.722733
10.72267
10.72261
10.722552
10.722496
10.722444
10.722394
10.722346
10.722301
10.722259
10.772641
10.77267
10.7727
10.772733
10.772767
10.772803
10.772841
10.77288
10.772921
10.772963
10.773007
10.773052
10.773098
10.773145
10.773193
10.773241
10.773291
10.773343
10.773399
10.773463
10.773534
10.773607
10.773661
10.773666
10.773638
10.773604
10.773764
10.774054
10.774365
10.825772
10.825322
10.824974
10.824773
10.82481
10.824826
10.824818
10.824763
10.824696
10.824636
10.824587
10.824548
10.824514
10.824482
10.824451
10.824421
10.824391
10.824362
10.824333
10.824305
10.824278
10.824252
10.824227
10.824202
10.824179
10.824157
10.824136
10.824116
10.824097
10.876779
10.87679
10.876802
10.876815
10.876829
10.876842
10.876857
10.876872
10.876888
10.876903
10.87692
10.876937
10.876954
10.876971
10.876988
10.877006
10.877025
10.877046
10.877073
10.87711
10.877163
10.877227
10.877289
10.877305
10.877307
10.877257
10.877496
10.877865
10.87842
10.932159
10.931492
10.931182
10.930918
10.931
10.930975
10.930954
10.930886
10.930822
10.930776
10.930747
10.93073
10.930718
10.930708
10.930699
10.93069
10.930681
10.930673
10.930664
10.930656
10.930647
10.930639
10.930631
10.930624
10.930616
10.930609
10.930602
10.930595
10.930589
10.984948
10.984951
10.984954
10.984958
10.984961
10.984964
10.984968
10.984971
10.984975
10.984978
10.984982
10.984985
10.984989
10.984992
10.984995
10.984998
10.985003
10.985009
10.985019
10.985041
10.985081
10.985142
10.985216
10.985233
10.985285
10.985141
10.985418
10.985529
10.986025
11.039206
11.038794
11.039014
11.038714
11.038958
11.038866
11.038861
11.038782
11.038727
11.038693
11.038678
11.038672
11.03867
11.03867
11.038669
11.038669
11.038668
11.038667
11.038667
11.038666
11.038665
11.038664
11.038663
11.038662
11.038661
11.03866
11.038658
11.038657
11.038656
11.09016
11.090161
11.090162
11.090161
11.090162
11.090162
11.090162
11.090162
11.090162
11.090162
11.090162
11.090161
11.090161
11.090161
11.09016
11.090159
11.090158
11.090158
11.09016
11.090168
11.090194
11.090239
11.090327
11.09031
11.09048
11.090101
11.090492
11.089831
11.089995
11.089269
11.138052
11.13767
11.137745
11.137583
11.137767
11.137727
11.137727
11.137675
11.137644
11.137627
11.137621
11.13762
11.13762
11.137621
11.137621
11.137622
11.137622
11.137622
11.137623
11.137623
11.137623
11.137623
11.137623
11.137623
11.137623
11.137623
11.137623
11.137624
11.137623
11.136318
11.136319
11.136319
11.136319
11.136319
11.136319
11.136319
11.136319
11.136318
11.136319
11.136319
11.136318
11.136318
11.136318
11.136317
11.136317
11.136317
11.136318
11.136321
11.13633
11.136349
11.136381
11.136417
11.136423
11.136372
11.136287
11.136399
11.13681
11.137458
11.137248
11.136129
11.135478
11.13532
11.135402
11.135476
11.135476
11.135442
11.135409
11.135389
11.135379
11.135375
11.135374
11.135373
11.135373
11.135373
11.135374
11.135374
11.135374
11.135374
11.135374
11.135373
11.135374
11.135373
11.135373
11.135373
11.135373
11.135372
11.135372
11.135073
11.135073
11.135074
11.135074
11.135075
11.135075
11.135075
11.135075
11.135076
11.135076
11.135077
11.135077
11.135077
11.135077
11.135077
11.135078
11.135078
11.13508
11.135084
11.135094
11.135116
11.13515
11.135187
11.135186
11.135104
11.135011
11.135174
11.135885
11.13701
11.137168
11.135975
11.135273
11.135125
11.135228
11.135311
11.13531
11.13527
11.135233
11.135211
11.1352
11.135196
11.135194
11.135193
11.135192
11.135191
11.135191
11.13519
11.135189
11.135189
11.135188
11.135187
11.135187
11.135186
11.135186
11.135185
11.135184
11.135183
11.135183
11.135349
11.13535
11.135351
11.135352
11.135353
11.135353
11.135354
11.135355
11.135357
11.135358
11.135359
11.13536
11.135361
11.135362
11.135363
11.135364
11.135366
11.135368
11.135373
11.135384
11.135407
11.135446
11.135488
11.135493
11.13541
11.135304
11.135438
11.136106
11.137201
11.137252
11.136179
11.135528
11.135401
11.135506
11.135586
11.13558
11.135536
11.135496
11.135472
11.135461
11.135455
11.135452
11.13545
11.135449
11.135447
11.135446
11.135444
11.135442
11.135441
11.135439
11.135438
11.135436
11.135435
11.135434
11.135432
11.135431
11.13543
11.135429
11.135445
11.135447
11.135448
11.13545
11.135451
11.135453
11.135455
11.135457
11.135459
11.135461
11.135463
11.135465
11.135467
11.135469
11.135472
11.135474
11.135476
11.13548
11.135486
11.135498
11.135522
11.135562
11.135608
11.135615
11.135537
11.135434
11.13556
11.136202
11.13725
11.137249
11.136211
11.135573
11.135446
11.135548
11.135625
11.135617
11.13557
11.13553
11.135505
11.135492
11.135486
11.135482
11.135479
11.135476
11.135473
11.13547
11.135467
11.135465
11.135462
11.13546
11.135457
11.135455
11.135452
11.13545
11.135448
11.135446
11.135444
11.135443
11.135441
11.135443
11.135445
11.135447
11.13545
11.135452
11.135455
11.135458
11.135461
11.135464
11.135467
11.13547
11.135474
11.135477
11.13548
11.135484
11.135488
11.135492
11.135499
11.135513
11.135538
11.135579
11.135625
11.135635
11.135559
11.135457
11.135584
11.13622
11.137255
11.137266
11.136231
11.135597
11.135469
11.13557
11.135646
11.135636
11.135589
11.135548
11.135522
11.135509
11.135501
11.135496
11.135491
11.135487
11.135483
11.135479
11.135475
11.135471
11.135468
11.135465
11.135461
11.135458
11.135455
11.135452
11.135449
11.135446
11.135444
11.135442
11.135444
11.135446
11.135449
11.135452
11.135455
11.135458
11.135462
11.135465
11.135469
11.135473
11.135477
11.135481
11.135486
11.13549
11.135495
11.135499
11.135504
11.13551
11.135518
11.135532
11.135558
11.1356
11.135647
11.135657
11.135582
11.135481
11.135608
11.136242
11.137277
11.137286
11.136252
11.135618
11.135491
11.135592
11.135667
11.135657
11.135609
11.135567
11.135541
11.135526
11.135518
11.135512
11.135507
11.135502
11.135497
11.135492
11.135487
11.135483
11.135478
11.135474
11.13547
11.135466
11.135462
11.135459
11.135455
11.135452
11.135449
11.135447
11.13545
11.135453
11.135456
11.135459
11.135463
11.135466
11.13547
11.135474
11.135479
11.135483
11.135487
11.135492
11.135497
11.135502
11.135507
11.135513
11.135518
11.135524
11.135533
11.135547
11.135574
11.135616
11.135663
11.135673
11.135598
11.135498
11.135625
11.136259
11.137293
11.137296
11.136263
11.135629
11.135502
11.135602
11.135678
11.135668
11.13562
11.135578
11.135552
11.135538
11.135529
11.135523
11.135518
11.135512
11.135507
11.135502
11.135497
11.135492
11.135487
11.135483
11.135478
11.135474
11.13547
11.135466
11.135463
11.135459
11.135456
11.135453
11.135456
11.135459
11.135463
11.135466
11.135469
11.135473
11.135477
11.135482
11.135486
11.13549
11.135495
11.1355
11.135505
11.135511
11.135518
11.135523
11.135528
11.135534
11.135542
11.135556
11.135582
11.135624
11.135671
11.13568
11.135604
11.135503
11.13563
11.136264
11.137298
11.137297
11.136262
11.135626
11.135499
11.135601
11.135678
11.135669
11.135623
11.135583
11.135557
11.135544
11.135537
11.135531
11.135527
11.135521
11.135513
11.1355
11.135493
11.135488
11.135483
11.135479
11.135475
11.135471
11.135467
11.135463
11.13546
11.135456
11.135453
11.13545
11.135405
11.135408
11.135411
11.135414
11.135417
11.135421
11.135425
11.135428
11.135432
11.135436
11.135442
11.135452
11.135478
11.135496
11.135504
11.135509
11.135513
11.135517
11.135524
11.135537
11.135561
11.1356
11.135645
11.135651
11.135574
11.135473
11.135604
11.136244
11.137287
11.137241
11.136181
11.135526
11.135386
11.135482
11.135558
11.135553
11.13551
11.135472
11.135449
11.135438
11.135432
11.135429
11.135426
11.135422
11.135414
11.135395
11.135357
11.135312
11.135298
11.135292
11.135288
11.135285
11.135281
11.135278
11.135275
11.135272
11.135269
11.135266
11.135009
11.135011
11.135014
11.135016
11.135019
11.135022
11.135025
11.135029
11.135036
11.135053
11.135119
11.135185
11.135226
11.135246
11.135253
11.135256
11.135258
11.13526
11.135265
11.135275
11.135296
11.135332
11.135373
11.135379
11.135308
11.135222
11.135376
11.136051
11.137141
11.137009
11.135933
11.135276
11.135123
11.135198
11.135259
11.13525
11.135209
11.135175
11.135155
11.135147
11.135143
11.135142
11.135141
11.135139
11.135132
11.135114
11.135073
11.135003
11.134907
11.134825
11.134805
11.134799
11.134795
11.134792
11.13479
11.134787
11.134785
11.134782
11.134966
11.134968
11.134971
11.134973
11.134976
11.134979
11.134985
11.135004
11.13509
11.135204
11.135302
11.135372
11.135411
11.135429
11.135434
11.135435
11.135435
11.135436
11.135438
11.135445
11.135463
11.135495
11.135536
11.135551
11.135501
11.13543
11.135532
11.136046
11.136944
11.136848
11.136706
11.136361
11.136361
11.136442
11.136479
11.136461
11.136423
11.136395
11.136381
11.136376
11.136375
11.136376
11.136376
11.136376
11.136371
11.136355
11.136318
11.136252
11.136157
11.136042
11.135925
11.135852
11.135836
11.135832
11.135829
11.135826
11.135825
11.135823
11.137069
11.137071
11.137072
11.137074
11.137077
11.137086
11.137135
11.137243
11.137362
11.137472
11.137562
11.137624
11.137658
11.137673
11.137677
11.137677
11.137676
11.137674
11.137672
11.137673
11.137683
11.137701
11.137735
11.137746
11.137725
11.137624
11.13752
11.137297
11.13742
11.088542
11.087543
11.087158
11.08711
11.087286
11.087462
11.087557
11.087588
11.087595
11.087592
11.087584
11.087569
11.087548
11.087523
11.087497
11.087477
11.08746
11.087432
11.087338
11.087239
11.087107
11.087529
11.08819
11.036415
11.03818
11.038917
10.985737
10.931905
10.878185
10.825565
10.774181
10.724048
10.674999
10.626891
10.579626
10.533158
10.487476
10.442585
10.398492
10.355199
10.312699
10.270978
10.230006
10.189749
10.150169
10.111227
10.072898
10.035175
9.9980784
9.961673
9.9260717
9.8914426
9.8580199
9.8260827
9.7959689
9.7680679
9.7428138
9.7206759
9.7021718
9.6876548
9.6776134
9.6725153
9.6727836
9.6788027
9.6909027
9.7093681
9.7344346
9.7662905
9.8051906
9.8511443
9.904121
9.9640613
10.030641
10.103709
10.183091
10.268658
10.36063
10.375326
10.281234
10.194106
10.11336
10.039124
9.9710424
9.9092267
9.8545666
9.806916
9.7671721
9.7348687
9.7095429
9.6910699
9.679057
9.6732075
9.6731577
9.6785001
9.6888146
9.7034947
9.7220385
9.744196
9.7694563
9.7973594
9.8274585
9.8593456
9.8927144
9.9272726
9.9627824
9.9990803
10.036059
10.073659
10.111862
10.150681
10.190145
10.230293
10.271166
10.312799
10.355221
10.398447
10.442482
10.487321
10.532955
10.579376
10.626592
10.674638
10.723599
10.773613
10.824834
10.877334
10.930918
10.984915
10.984432
11.038018
11.037566
10.98398
10.929821
10.930261
10.876645
10.824192
10.773052
10.723126
10.674241
10.62626
10.579103
10.53274
10.487169
10.442402
10.398452
10.355326
10.313021
10.271523
10.230802
10.190822
10.151539
10.112906
10.074886
10.037454
10.000617
9.9644192
9.9289516
9.8943574
9.8608433
9.8286327
9.798059
9.7695347
9.7435041
9.7203053
9.7005221
9.6844364
9.6726126
9.6655447
9.6637403
9.6676195
9.6775584
9.6938568
9.716984
9.7473469
9.7849448
9.8292022
9.8808559
9.9400623
10.005278
10.076847
10.154923
10.239419
10.330669
10.334395
10.239895
10.152555
10.073365
10.001313
9.9355704
9.8761784
9.8243404
9.7798355
9.7432634
9.7138996
9.6911201
9.6751558
9.6656882
9.6623941
9.6648347
9.6724946
9.6851125
9.701928
9.7222977
9.7459484
9.7723595
9.8011253
9.8318127
9.8640397
9.8975248
9.9320015
9.9672793
10.003232
10.039789
10.076923
10.114643
10.152985
10.191993
10.231721
10.272218
10.313523
10.355665
10.398656
10.442497
10.487177
10.532679
10.578987
10.626096
10.674031
10.722868
10.772742
10.823829
10.876236
10.876268
10.92987
10.984075
11.037747
11.037736
10.984116
10.929953
10.876387
10.824012
10.823861
10.772786
10.722927
10.674109
10.626199
10.579126
10.532871
10.487445
10.44287
10.399169
10.356358
10.31444
10.273406
10.233225
10.193857
10.155246
10.117332
10.080057
10.043372
10.007255
9.971712
9.9367962
9.9026117
9.8693344
9.8371983
9.8064432
9.7774221
9.7505746
9.7263366
9.7051767
9.6873836
9.6736304
9.6644946
9.6604289
9.6618798
9.6693017
9.6831042
9.7036192
9.730963
9.7654523
9.8071374
9.8563065
9.9129279
9.9757936
10.045097
10.121177
10.204468
10.295864
10.319218
10.225264
10.138951
10.061174
9.9908331
9.9270355
9.8694676
9.8202517
9.7785249
9.7435534
9.7158721
9.6951706
9.6812189
9.6736544
9.672144
9.6761636
9.6851491
9.6988153
9.7164125
9.7374001
9.7613606
9.787761
9.816259
9.8464439
9.8779813
9.9106043
9.9441074
9.9783272
10.013168
10.048591
10.084595
10.121216
10.158515
10.19656
10.235421
10.275159
10.315819
10.357428
10.399992
10.443503
10.487935
10.533259
10.579442
10.626466
10.674342
10.723132
10.772965
10.773177
10.824194
10.876538
10.930074
10.984213
11.037813
11.037828
10.984261
10.930156
10.876653
10.824344
10.773364
10.723603
10.723375
10.674623
10.626798
10.579845
10.533763
10.488583
10.444347
10.401099
10.358872
10.317686
10.277539
10.238408
10.200242
10.162975
10.126525
10.090807
10.055744
10.021284
9.9874037
9.9541291
9.9215396
9.8897795
9.8590316
9.8295522
9.801661
9.7757705
9.7523044
9.7316707
9.7141666
9.7004777
9.6909943
9.686317
9.6870892
9.6938671
9.7065069
9.7255764
9.7515849
9.7850796
9.8258227
9.873929
9.9294526
9.99123
10.059672
10.13498
10.217707
10.308753
10.366836
10.272357
10.18557
10.107498
10.036941
9.9730179
9.9153239
9.8661007
9.824308
9.7892993
9.7615611
9.7407362
9.7265024
9.7183819
9.7161515
9.7192863
9.7272362
9.7396774
9.7558914
9.7753515
9.7976141
9.8221892
9.8487385
9.8768739
9.9062689
9.9366674
9.9678857
9.9997872
10.032305
10.065427
10.09919
10.133667
10.168954
10.205155
10.242369
10.280674
10.320121
10.360734
10.402503
10.445396
10.489365
10.534349
10.580291
10.627145
10.674901
10.675182
10.72382
10.773534
10.824477
10.876754
10.930227
10.984306
11.037848
11.037881
10.984359
10.930303
10.876855
10.82461
10.773707
10.724048
10.67549
10.627941
10.627517
10.580793
10.535038
10.490315
10.446705
10.404288
10.363138
10.323304
10.284808
10.247633
10.211721
10.176978
10.14328
10.110492
10.078484
10.047154
10.016436
9.9863204
9.956851
9.9281483
9.900361
9.8737448
9.8486133
9.825364
9.8044118
9.7861503
9.7708707
9.7592969
9.7518165
9.7489695
9.7512926
9.7592651
9.7732756
9.7937345
9.8210567
9.8558678
9.8979306
9.9473492
10.004206
10.067409
10.137286
10.214062
10.29831
10.390827
10.479722
10.383263
10.294507
10.21448
10.141956
10.076047
10.016378
9.9651612
9.9212183
9.88467
9.8552194
9.8321451
9.8156149
9.8052013
9.800524
9.8011076
9.8063349
9.8159296
9.8291779
9.8454918
9.8644281
9.8855079
9.9084092
9.9327468
9.9582061
9.9845596
10.011623
10.039283
10.067524
10.096387
10.12597
10.156421
10.187914
10.220632
10.254736
10.290346
10.32753
10.366297
10.406606
10.448378
10.491507
10.535881
10.581388
10.582128
10.628453
10.675848
10.724304
10.773893
10.824749
10.876961
10.930382
10.984417
11.037921
11.03796
10.984475
10.930462
10.87707
10.824898
10.774101
10.724601
10.676281
10.629091
10.583071
10.538342
10.536951
10.493047
10.450571
10.409683
10.370537
10.333257
10.297916
10.264515
10.232971
10.203118
10.174728
10.147545
10.121321
10.095847
10.070969
10.046611
10.022766
9.9995146
9.9769821
9.9554064
9.9350853
9.9163979
9.8997414
9.8854938
9.8739446
9.8659431
9.861846
9.8622182
9.867777
9.8791228
9.8964997
9.9203112
9.950712
9.9879637
10.032262
10.083776
10.142722
10.20785
10.279607
10.358244
10.444391
10.538934
10.668899
10.571073
10.48092
10.399425