/*--------------------------------*- C++ -*----------------------------------*\
| =========                 |                                                 |
| \\      /  F ield         | OpenFOAM: The Open Source CFD Toolbox           |
|  \\    /   O peration     | Version:  v2012                                 |
|   \\  /    A nd           | Website:  www.openfoam.com                      |
|    \\/     M anipulation  |                                                 |
\*---------------------------------------------------------------------------*/
FoamFile
{
    version     2.0;
    format      ascii;
    class       surfaceScalarField;
    location    "100";
    object      phi;
}
// * * * * * * * * * * * * * * * * * * * * * * * * * * * * * * * * * * * * * //

dimensions      [0 3 -1 0 0 0 0];
oriented        oriented;


internalField   nonuniform List<scalar> 
218985
(
-4.4983917e-07
0.0029101549
0.00011285477
-4.3802451e-07
0.0029101514
0.00011285104
-4.3696212e-07
0.0029101626
0.00011284806
-4.3906832e-07
0.0029101673
0.0001128455
-4.3637804e-07
0.0029101674
0.00011284186
-4.2345487e-07
0.0029101681
0.00011283857
-4.1908729e-07
0.0029101849
0.00011283497
-4.1652764e-07
0.002910185
0.00011283021
-4.1411195e-07
0.0029101832
0.00011282627
-4.0583463e-07
0.0029101868
0.00011282324
-3.9354435e-07
0.0029101928
0.00011281999
-3.7757783e-07
0.0029101883
0.00011281581
-3.7880419e-07
0.0029102051
0.00011281012
-3.637428e-07
0.0029101963
0.00011280465
-3.5489775e-07
0.0029102133
0.00011280182
-3.8608568e-07
0.0029102668
0.00011280262
-5.1021809e-07
0.0029104355
0.00011281262
-8.3450685e-07
0.0029108908
0.00011284347
-1.4031618e-06
0.0029119974
0.00011292119
-2.4133719e-06
0.0029143352
0.0001130783
-2.4832475e-06
0.0029186499
0.00011336117
-1.3447159e-06
0.0029244033
0.00011368139
1.0698327e-05
0.0029286368
0.00011389932
1.0252355e-05
0.0029197391
0.00011279727
5.4485438e-05
0.0028906156
0.00011000137
1.810988e-05
0.0028048236
0.00010417439
8.2513781e-05
0.0026905704
9.6569651e-05
2.7997168e-06
0.0025265103
8.171713e-05
3.6713024e-05
0.0024019997
4.9876107e-05
-3.5538666e-05
0.0023300323
-4.4275308e-06
0.0024182207
2.9832831e-05
-7.9586871e-05
0.0025738921
4.7727208e-05
-2.1665109e-05
0.0027720966
5.0062143e-05
-5.6593016e-05
0.0029254521
5.1233084e-05
-1.7602733e-05
0.0030422551
5.4846273e-05
-1.6414726e-05
0.0030977543
5.8645578e-05
-4.9500806e-06
0.0031249567
6.0917901e-05
-1.9567215e-06
0.0031335224
6.1778408e-05
-1.2086279e-06
0.0031352868
6.208247e-05
-1.3215621e-06
0.003135152
6.2162641e-05
-1.4952763e-06
0.0031348291
6.2178842e-05
-1.6481754e-06
0.0031346194
6.2181801e-05
-1.79837e-06
0.003134601
6.2189093e-05
-1.9565997e-06
0.0031347885
6.2205839e-05
-2.2122092e-06
0.0031352786
6.2237212e-05
-2.2990752e-06
0.0031362287
6.2308499e-05
-2.5156868e-06
0.003137515
6.245878e-05
-1.6953246e-06
0.0031385494
6.2674247e-05
-1.801371e-06
0.0031363671
6.2668272e-05
-1.4086566e-06
0.003124077
6.2079793e-05
-4.8904146e-06
0.0030842987
6.1047159e-05
-8.5120586e-06
0.0029888319
6.0202478e-05
-4.1488834e-05
0.0027947789
5.4065394e-05
-1.022872e-05
0.0023812081
5.7072115e-05
1.8488941e-05
0.0023695162
7.3824912e-05
-5.6707084e-06
0.002753437
8.9834123e-05
5.9359762e-07
0.0029090932
0.00011163901
5.9332444e-07
0.0029642675
0.00011761159
6.644228e-06
0.0029715872
0.00011878954
5.5289522e-06
0.0029577556
0.00011769832
6.6730631e-06
0.0029417736
0.00011610391
4.4348076e-06
0.0029280799
0.00011474185
3.3949216e-06
0.0029193284
0.00011392664
2.1415101e-06
0.0029141772
0.00011348357
1.5267463e-06
0.0029116284
0.00011327494
1.1994869e-06
0.0029104878
0.00011317551
1.072481e-06
0.0029100426
0.00011312951
1.0393787e-06
0.0029098922
0.00011310618
1.0499435e-06
0.0029098489
0.00011309367
1.059538e-06
0.0029098628
0.000113086
1.0616017e-06
0.0029098831
0.00011307983
1.0555215e-06
0.0029099015
0.00011307368
1.0368446e-06
0.0029099152
0.00011306651
1.0176049e-06
0.0029099278
0.00011305809
1.0216776e-06
0.0029099187
0.00011304981
1.0080654e-06
0.0029099391
0.0001130444
9.7816456e-07
0.002909963
0.00011303986
9.546047e-07
0.0029099603
0.00011303297
9.5926692e-07
0.0029099535
0.00011302693
9.3609402e-07
0.0029099703
0.00011302157
9.0297781e-07
0.0029099901
0.00011301707
8.7932224e-07
0.0029099899
0.0001130119
0.0029099921
0.00011300794
-2.7567418e-06
0.0027869504
0.00012309869
-2.7741625e-06
0.0027868948
0.00012311258
-2.8729343e-06
0.0027869617
0.00012312719
-2.9300478e-06
0.0027868858
0.00012314155
-2.9447603e-06
0.0027868111
0.00012315706
-2.998746e-06
0.0027868392
0.00012317507
-3.0903316e-06
0.002786861
0.0001231936
-3.1361117e-06
0.0027867739
0.00012321094
-3.1359156e-06
0.0027866888
0.00012322965
-3.2066597e-06
0.0027867472
0.00012325127
-3.2380465e-06
0.0027866731
0.00012327347
-3.2567435e-06
0.0027866249
0.00012329532
-3.2581272e-06
0.0027865671
0.0001233173
-3.2433736e-06
0.0027865086
0.00012333945
-3.1818621e-06
0.0027864232
0.00012336424
-3.1533046e-06
0.0027864674
0.00012339619
-3.1317473e-06
0.0027865806
0.00012344049
-3.1268645e-06
0.0027869732
0.00012350965
-3.1287946e-06
0.0027879992
0.00012363106
-3.0893682e-06
0.0027902928
0.00012384503
-2.7690146e-06
0.0027948051
0.00012420291
-2.1152003e-06
0.0028027296
0.00012469654
-5.2259234e-07
0.0028150506
0.0001251304
8.2825741e-07
0.0028315645
0.0001248402
1.9322186e-06
0.0028479963
0.00012248702
-3.2912106e-07
0.0028504208
0.00011610802
-3.5827377e-06
0.0028092465
0.0001031004
-4.2486201e-06
0.0026719499
8.2152962e-05
7.8389985e-06
4.6538638e-05
0.0023108899
1.9916682e-05
2.9945905e-05
0.0023391845
1.999496e-05
4.7523807e-05
0.0027471768
1.3908853e-05
5.796113e-05
0.0029369569
8.1564633e-06
6.6474893e-05
0.0030235762
5.3846695e-06
7.2501667e-05
0.0030543472
4.6537717e-06
7.6055515e-05
0.0030610425
4.9306391e-06
7.7624355e-05
0.0030606482
5.2086886e-06
7.8126818e-05
0.0030591101
5.3818524e-06
7.8227094e-05
0.0030578285
5.3974587e-06
7.8215154e-05
0.0030570478
5.3121656e-06
7.8185357e-05
0.0030566885
5.1419923e-06
7.8158259e-05
0.003056613
4.9370036e-06
7.8138682e-05
0.0030566857
4.6403295e-06
7.812394e-05
0.0030570018
4.3144893e-06
7.8094819e-05
0.003057383
4.2760081e-06
7.7992236e-05
0.0030573331
4.686287e-06
7.7661542e-05
0.0030554505
5.2581345e-06
7.6878158e-05
0.0030475067
2.7992469e-06
7.5072574e-05
0.0030251406
-1.4760705e-08
7.2330978e-05
0.0029727381
-1.4873245e-05
6.9175148e-05
0.0028711354
-2.0908167e-05
6.6108761e-05
0.0027120228
-2.9032658e-05
6.0086563e-05
0.00252193
-1.7513839e-05
4.3255057e-05
0.0023634469
0.0022981631
1.4355323e-05
0.0022613656
1.7072465e-05
1.9725046e-05
0.002240384
9.798033e-06
1.1183598e-05
0.0022311393
4.5207113e-06
4.7240301e-06
0.0022242894
3.5936657e-06
3.2561931e-06
0.0022225949
1.4481986e-06
2.4631698e-07
0.0022218525
1.3408338e-06
-5.9842786e-07
0.0022234628
5.7300981e-07
-2.183363e-06
0.0022258507
4.9377845e-07
-2.8816178e-06
0.0022288742
4.380094e-07
-3.4615363e-06
0.0022322876
4.6934163e-07
-3.882754e-06
0.0022360954
4.8470476e-07
-4.2924715e-06
0.002240287
4.9531844e-07
-4.6869193e-06
0.002244869
4.9296357e-07
-5.0750055e-06
0.002249838
4.7930401e-07
-5.4482819e-06
0.0022551804
4.5474673e-07
-5.797142e-06
0.0022608731
4.2190748e-07
-6.114657e-06
0.0022668842
3.8095032e-07
-6.3919755e-06
0.0022731719
3.3038576e-07
-6.6180947e-06
0.0022796855
2.7103258e-07
-6.7846515e-06
0.0022863665
2.0163541e-07
-6.8826231e-06
0.0022931485
1.2594224e-07
-6.9079908e-06
0.0022999629
4.5630064e-08
-6.8600157e-06
0.0023067342
-3.9733938e-08
-6.7315838e-06
0.0023133836
-1.2711946e-07
-6.5222708e-06
0.0023198376
-2.1314963e-07
-6.2407928e-06
0.0023260271
-2.9585456e-07
-5.8936416e-06
0.0023318855
-3.743495e-07
-5.4840391e-06
0.0023373505
-4.4694475e-07
-5.0181299e-06
0.0023423679
-5.1420444e-07
-4.5031704e-06
0.0023468923
-5.7821055e-07
-3.9461701e-06
0.0023508838
-6.3753386e-07
-3.353995e-06
0.0023543085
-6.9319169e-07
-2.7314837e-06
0.0023571422
-7.4649945e-07
-2.0872167e-06
0.0023593703
-7.9669857e-07
-1.4314299e-06
0.0023609824
-8.4242917e-07
-7.6966882e-07
0.0023619755
-8.8109559e-07
-1.1200817e-07
0.0023623408
-9.156299e-07
5.5032391e-07
0.0023621401
-9.3339631e-07
1.1341031e-06
0.0023613749
-9.5251917e-07
1.7177286e-06
0.0023600557
-9.6756061e-07
2.2867816e-06
0.0023582047
-9.7839185e-07
2.8294138e-06
0.0023558504
-9.8260474e-07
3.3368537e-06
0.0023530244
-9.8169268e-07
3.8077222e-06
0.0023497609
-9.7729425e-07
4.2407663e-06
0.0023460962
-9.6945e-07
4.6341563e-06
0.0023420685
-9.5829126e-07
4.9859842e-06
0.0023377175
-9.4373484e-07
5.2947354e-06
0.0023330842
-9.2617347e-07
5.5595021e-06
0.0023282106
-9.071632e-07
5.7807803e-06
0.0023231401
-8.8808613e-07
5.9586055e-06
0.0023179141
-8.6486317e-07
6.0908246e-06
-8.4162485e-07
6.1800765e-06
2.1663334e-05
-0.002785937
6.2675829e-06
2.1181726e-05
-0.0027869527
6.3334043e-06
2.0687297e-05
-0.0027879269
6.3973934e-06
2.0173387e-05
-0.0027888871
6.4647e-06
1.9635701e-05
-0.0027898113
6.5333182e-06
1.9071888e-05
-0.0027906781
6.6019963e-06
1.8478518e-05
-0.0027915128
6.6711878e-06
1.7855142e-05
-0.0027923374
6.7384629e-06
1.7197991e-05
-0.0027931261
6.8072099e-06
1.6505038e-05
-0.0027938553
6.8751431e-06
1.5773777e-05
-0.0027945504
6.9436634e-06
1.5003867e-05
-0.0027952368
7.0107321e-06
1.4194668e-05
-0.0027959011
7.0763759e-06
1.3342695e-05
-0.0027965799
7.144101e-06
1.2449215e-05
-0.0027973711
7.2079764e-06
1.1514833e-05
-0.0027984954
7.2706291e-06
1.0538316e-05
-0.0028003756
7.3336642e-06
9.5221894e-06
-0.0028035975
7.3953556e-06
8.4703046e-06
-0.0028084146
7.4550479e-06
7.3885251e-06
-0.0028132041
7.5077462e-06
6.2799523e-06
-0.0028116238
7.5411583e-06
5.1450199e-06
-0.0027895049
7.5263686e-06
3.98427e-06
-0.0027268574
7.4154554e-06
2.8358436e-06
-0.0026130217
7.1477009e-06
1.7735716e-06
-0.0024695422
6.7372966e-06
-0.0023522471
6.3429015e-06
-1.8156541e-06
-0.0023575451
6.248846e-06
-2.8947178e-06
-0.002475099
6.6358082e-06
-4.0603034e-06
-0.0026188956
7.0395044e-06
-5.2394356e-06
-0.0027329793
7.3010281e-06
-6.3926156e-06
-0.0027957578
7.4060368e-06
-7.5187416e-06
-0.0028179146
7.4168844e-06
-8.6166919e-06
-0.0028194862
7.3800322e-06
-9.6831259e-06
-0.0028146721
7.3238738e-06
-1.071206e-05
-0.0028098287
7.2601218e-06
-1.1699382e-05
-0.0028065819
7.1935845e-06
-1.2642891e-05
-0.0028046774
7.1255557e-06
-1.3543419e-05
-0.0028035281
7.0575336e-06
-1.439967e-05
-0.0028027102
6.9865948e-06
-1.5210575e-05
-0.0028020021
6.9119675e-06
-1.5979603e-05
-0.0028013073
6.8394751e-06
-1.6706911e-05
-0.0028005878
6.7647336e-06
-1.7392863e-05
-0.0027998574
6.688114e-06
-1.8040073e-05
-0.0027990899
6.61101e-06
-1.8650695e-05
-0.0027982599
6.5332062e-06
-1.9227888e-05
-0.0027973926
6.4569926e-06
-1.9772454e-05
-0.0027965132
6.3796286e-06
-2.0287788e-05
-0.0027955988
6.3028202e-06
-2.0776016e-05
-0.0027946242
6.2253222e-06
-2.1241465e-05
-0.0027936108
6.149353e-06
-2.1689963e-05
-0.0027925803
6.076113e-06
-0.002791505
6.0012017e-06
2.1657112e-05
-0.0027967856
5.6733004e-06
2.1245068e-05
-0.002797926
5.7576673e-06
2.0811472e-05
-0.0027990181
5.8409656e-06
2.035166e-05
-0.0028000903
5.9259137e-06
1.9861629e-05
-0.0028011212
6.012458e-06
1.9338855e-05
-0.0028020887
6.0982291e-06
1.878048e-05
-0.0028030186
6.1843243e-06
1.8184949e-05
-0.0028039342
6.2697774e-06
1.7550135e-05
-0.0028048116
6.3564402e-06
1.6873383e-05
-0.0028056234
6.442744e-06
1.6152493e-05
-0.0028063948
6.5278432e-06
1.53868e-05
-0.002807152
6.610449e-06
1.4576805e-05
-0.0028078821
6.6899569e-06
1.3718618e-05
-0.0028086227
6.7707001e-06
1.2812678e-05
-0.002809471
6.8488388e-06
1.1862183e-05
-0.0028106492
6.9222281e-06
1.0866019e-05
-0.0028125815
6.9958054e-06
9.8263637e-06
-0.0028158566
7.0675273e-06
8.7473871e-06
-0.0028207296
7.1364733e-06
7.6354234e-06
-0.0028255707
7.1965018e-06
6.4941463e-06
-0.002824011
7.2376741e-06
5.324925e-06
-0.0028018193
7.2307909e-06
4.12942e-06
-0.0027389166
7.1328306e-06
2.9481521e-06
-0.0026245952
6.8808597e-06
1.8547661e-06
-0.0024804943
6.4887249e-06
-0.0023626891
6.1106505e-06
-1.8894532e-06
-0.0023676287
5.9219321e-06
-2.9971101e-06
-0.0024856738
6.2871197e-06
-4.191158e-06
-0.0026300676
6.6665251e-06
-5.3997011e-06
-0.0027446166
6.9085474e-06
-6.5823207e-06
-0.0028076373
7.0005442e-06
-7.7367628e-06
-0.0028298594
7.0028589e-06
-8.8605159e-06
-0.0028314051
6.958169e-06
-9.9496384e-06
-0.0028265344
6.8939172e-06
-1.0997655e-05
-0.0028216288
6.820232e-06
-1.2000007e-05
-0.0028183217
6.7425638e-06
-1.2954905e-05
-0.0028163579
6.663572e-06
-1.3862925e-05
-0.0028151464
6.5834182e-06
-1.4720326e-05
-0.0028142631
6.4977346e-06
-1.5527134e-05
-0.0028134848
6.4095562e-06
-1.6287304e-05
-0.0028127146
6.3227356e-06
-1.6999595e-05
-0.002811914
6.2315189e-06
-1.7665293e-05
-0.0028110966
6.138848e-06
-1.8285194e-05
-0.0028102348
6.0431579e-06
-1.8862973e-05
-0.0028093055
5.9490541e-06
-1.9399488e-05
-0.0028083357
5.8536645e-06
-1.9898036e-05
-0.0028073492
5.7590894e-06
-2.0359632e-05
-0.0028063227
5.6630857e-06
-2.0788522e-05
-0.0028052293
5.5679129e-06
-2.1187172e-05
-0.0028040923
5.4728156e-06
-2.1559875e-05
-0.0028029327
5.3794046e-06
-0.0028017221
5.2848125e-06
2.1391855e-05
-0.0028062573
4.8363106e-06
2.106169e-05
-0.0028075436
4.9410639e-06
2.0700875e-05
-0.0028087767
5.0451742e-06
2.0305963e-05
-0.0028099847
5.1503452e-06
1.9875229e-05
-0.0028111469
5.2548706e-06
1.9403745e-05
-0.002812239
5.361239e-06
1.8891275e-05
-0.0028132888
5.4655958e-06
1.8334432e-05
-0.0028143186
5.5699678e-06
1.7732038e-05
-0.0028153052
5.6727994e-06
1.708014e-05
-0.0028162213
5.776659e-06
1.6378786e-05
-0.002817091
5.8783768e-06
1.5627137e-05
-0.0028179408
5.9778419e-06
1.4825621e-05
-0.0028187571
6.0737377e-06
1.3972187e-05
-0.0028195783
6.1686351e-06
1.3065461e-05
-0.0028205017
6.2620773e-06
1.2109386e-05
-0.0028217511
6.3492807e-06
1.1103324e-05
-0.0028237508
6.4351587e-06
1.0050245e-05
-0.0028270934
6.5177151e-06
8.9530544e-06
-0.0028320338
6.5965809e-06
7.8201383e-06
-0.0028369365
6.664285e-06
6.6549963e-06
-0.0028354078
6.7134974e-06
5.4611538e-06
-0.0028131593
6.7158269e-06
4.2429254e-06
-0.0027500295
6.6311421e-06
3.0390294e-06
-0.002635266
6.4022447e-06
1.9210828e-06
-0.0024905953
6.0395354e-06
-0.0023723238
5.6900046e-06
-1.9488306e-06
-0.0023767339
5.4151653e-06
-3.0728668e-06
-0.002495217
5.7456858e-06
-4.2830894e-06
-0.0026401445
6.0886936e-06
-5.5083038e-06
-0.002755106
6.3017139e-06
-6.7105168e-06
-0.0028183355
6.3784188e-06
-7.8827236e-06
-0.0028406053
6.3697117e-06
-9.0220118e-06
-0.0028421136
6.3163891e-06
-1.0123414e-05
-0.0028371759
6.2435637e-06
-1.117906e-05
-0.0028321972
6.1594047e-06
-1.2185824e-05
-0.0028288156
6.0715299e-06
-1.3139891e-05
-0.002826776
5.9789655e-06
-1.4042199e-05
-0.0028254842
5.884819e-06
-1.4889204e-05
-0.0028245155
5.7842831e-06
-1.5682314e-05
-0.0028236462
5.6822811e-06
-1.6421979e-05
-0.0028227789
5.5777768e-06
-1.7108953e-05
-0.0028218734
5.4694093e-06
-1.7743415e-05
-0.0028209451
5.3582678e-06
-1.8325646e-05
-0.0028199688
5.2457703e-06
-1.8858921e-05
-0.0028189189
5.133583e-06
-1.9345032e-05
-0.0028178225
5.0197138e-06
-1.9786728e-05
-0.0028167028
4.9055182e-06
-2.0184561e-05
-0.0028155385
4.7894642e-06
-2.0542713e-05
-0.0028143012
4.674609e-06
-2.0862807e-05
-0.0028130157
4.5591177e-06
-2.1147718e-05
-0.0028117032
4.4444981e-06
-0.0028103351
4.3289665e-06
2.0822523e-05
-0.0028139019
3.76686e-06
2.058491e-05
-0.002815358
3.8925058e-06
2.03078e-05
-0.0028167563
4.0177728e-06
1.9988935e-05
-0.0028181257
4.1433587e-06
1.9626349e-05
-0.0028194446
4.2686414e-06
1.9216991e-05
-0.0028206876
4.3941258e-06
1.8759604e-05
-0.0028218834
4.5183437e-06
1.8252095e-05
-0.0028230533
4.6419359e-06
1.7692969e-05
-0.002824174
4.7644011e-06
1.7079709e-05
-0.0028252181
4.8862498e-06
1.6411083e-05
-0.002826211
5.0061801e-06
1.5686744e-05
-0.0028271775
5.1230107e-06
1.4905508e-05
-0.0028281012
5.2361715e-06
1.4067966e-05
-0.0028290237
5.3456979e-06
1.3173337e-05
-0.0028300429
5.4532865e-06
1.2224455e-05
-0.0028313816
5.5544905e-06
1.1220704e-05
-0.0028334654
5.6535583e-06
1.0166186e-05
-0.0028368896
5.7468986e-06
9.0642503e-06
-0.0028419104
5.8364432e-06
7.9221091e-06
-0.0028468862
5.9147549e-06
6.746272e-06
-0.0028454019
5.9724623e-06
5.5393816e-06
-0.0028231165
5.9879364e-06
4.3107706e-06
-0.0027597985
5.9211287e-06
3.0980442e-06
-0.0026446563
5.724554e-06
1.9713438e-06
-0.0024994933
5.403047e-06
-0.0023808157
5.0948372e-06
-1.9881254e-06
-0.0023845273
4.7303265e-06
-3.113735e-06
-0.0025033806
5.0128591e-06
-4.3240293e-06
-0.0026487565
5.3105308e-06
-5.5518204e-06
-0.0027640606
5.4898183e-06
-6.7595043e-06
-0.0028274549
5.5460699e-06
-7.9355437e-06
-0.0028497494
5.5235159e-06
-9.0766297e-06
-0.0028512065
5.4613444e-06
-1.0174995e-05
-0.0028461898
5.3777621e-06
-1.1224119e-05
-0.002841124
5.2835552e-06
-1.2220398e-05
-0.0028376529
5.1837569e-06
-1.3160513e-05
-0.0028355199
5.0784617e-06
-1.4043683e-05
-0.0028341296
4.9698748e-06
-1.4867431e-05
-0.0028330553
4.8553921e-06
-1.563273e-05
-0.0028320745
4.7386703e-06
-1.6338467e-05
-0.0028310889
4.6170836e-06
-1.6985499e-05
-0.0028300555
4.4915389e-06
-1.7575077e-05
-0.0028289915
4.3629433e-06
-1.8108283e-05
-0.0028278721
4.2312826e-06
-1.8587273e-05
-0.0028266732
4.0988735e-06
-1.9013212e-05
-0.002825423
3.9654897e-06
-1.9387678e-05
-0.0028241447
3.8316176e-06
-1.971258e-05
-0.0028228163
3.6966055e-06
-1.9989845e-05
-0.0028214099
3.5614462e-06
-2.0221633e-05
-0.0028199504
3.4258798e-06
-2.0410281e-05
-0.0028184599
3.2904675e-06
-0.0028169097
3.1549651e-06
1.9904461e-05
-0.0028193158
2.4987768e-06
1.9766411e-05
-0.0028209656
2.6438162e-06
1.9581965e-05
-0.0028225549
2.788888e-06
1.9348907e-05
-0.002824111
2.9342e-06
1.9064319e-05
-0.0028256106
3.0789045e-06
1.8727143e-05
-0.0028270302
3.2226236e-06
1.8335656e-05
-0.0028283971
3.3656118e-06
1.7888762e-05
-0.002829734
3.5076735e-06
1.7384543e-05
-0.0028310167
3.6488257e-06
1.6821054e-05
-0.0028322168
3.7888325e-06
1.6197857e-05
-0.0028333582
3.9258931e-06
1.5513886e-05
-0.002834465
4.0600781e-06
1.476878e-05
-0.0028355197
4.1902294e-06
1.396328e-05
-0.0028365646
4.3147497e-06
1.3096238e-05
-0.0028376989
4.4363677e-06
1.2169611e-05
-0.0028391452
4.5519394e-06
1.118519e-05
-0.0028413318
4.6633302e-06
1.014573e-05
-0.0028448538
4.7693016e-06
9.0552718e-06
-0.002849968
4.8686173e-06
7.9198703e-06
-0.002855028
4.9569562e-06
6.7478821e-06
-0.0028536013
5.0239302e-06
5.5443465e-06
-0.0028313046
5.0531964e-06
4.3215521e-06
-0.0027678465
5.0087166e-06
3.1183456e-06
-0.0026524023
4.8489517e-06
1.9975626e-06
-0.0025068383
4.5784581e-06
-0.0023878302
4.3231321e-06
-1.9981756e-06
-0.0023906892
3.8754432e-06
-3.109663e-06
-0.0025098292
4.102398e-06
-4.3010649e-06
-0.0026555526
4.3417391e-06
-5.5136987e-06
-0.002771114
4.4801504e-06
-6.7085538e-06
-0.0028346217
4.511995e-06
-7.8716231e-06
-0.0028569139
4.4756492e-06
-8.9963252e-06
-0.002858307
4.4037068e-06
-1.0074534e-05
-0.0028532008
4.3110342e-06
-1.1099585e-05
-0.0028480355
4.2067214e-06
-1.2067543e-05
-0.0028444594
4.0955684e-06
-1.2975592e-05
-0.0028422153
3.9781708e-06
-1.3821995e-05
-0.002840708
3.8555241e-06
-1.4605224e-05
-0.0028395078
3.7264742e-06
-1.53264e-05
-0.0028383922
3.5937557e-06
-1.5985125e-05
-0.0028372621
3.4557741e-06
-1.6581126e-05
-0.0028360762
3.3139904e-06
-1.7114711e-05
-0.0028348525
3.1692113e-06
-1.7586401e-05
-0.0028335668
3.0217513e-06
-1.7998058e-05
-0.0028321953
2.8730112e-06
-1.8352157e-05
-0.002830766
2.7229662e-06
-1.8649611e-05
-0.0028293043
2.5716515e-06
-1.8891801e-05
-0.0028277881
2.4196986e-06
-1.9079211e-05
-0.0028261899
2.2663039e-06
-1.9206384e-05
-0.0028245395
2.1118468e-06
-1.9300787e-05
-0.0028228291
1.957869e-06
-0.0028210822
1.8036307e-06
1.8598444e-05
-0.0028221798
1.0786733e-06
1.8564551e-05
-0.0028240349
1.2397395e-06
1.8478951e-05
-0.0028258547
1.4007743e-06
1.8337935e-05
-0.0028276116
1.5626641e-06
1.8139024e-05
-0.0028293128
1.7235991e-06
1.7882871e-05
-0.002830931
1.8828176e-06
1.7568296e-05
-0.0028324928
2.0414232e-06
1.7194268e-05
-0.0028340202
2.1988487e-06
1.6758389e-05
-0.002835486
2.3550499e-06
1.6258903e-05
-0.0028368628
2.5097772e-06
1.5694598e-05
-0.002838174
2.6620727e-06
1.5065626e-05
-0.0028394437
2.8105907e-06
1.4372509e-05
-0.0028406542
2.9551127e-06
1.3615594e-05
-0.0028418456
3.0946535e-06
1.2794002e-05
-0.0028431164
3.2299562e-06
1.1909121e-05
-0.0028446895
3.3590625e-06
1.0962611e-05
-0.0028469951
3.4822219e-06
9.9571901e-06
-0.0028506286
3.59852e-06
8.8963157e-06
-0.0028558476
3.7076083e-06
7.7874759e-06
-0.0028610027
3.8045216e-06
6.638858e-06
-0.0028596465
3.8812637e-06
5.4581798e-06
-0.0028373657
3.9247271e-06
4.2610334e-06
-0.0027738233
3.9063914e-06
3.0867915e-06
-0.0026581696
3.7912268e-06
1.990155e-06
-0.0025123183
3.5857837e-06
-0.0023930708
3.3891927e-06
-1.9723806e-06
-0.0023949427
2.8658634e-06
-3.0481622e-06
-0.0025142723
3.0297567e-06
-4.1992744e-06
-0.0026602182
3.1997449e-06
-5.3754371e-06
-0.0027759367
3.2895699e-06
-6.5360284e-06
-0.0028394987
3.2935598e-06
-7.664505e-06
-0.0028617606
3.2425665e-06
-8.7522554e-06
-0.0028630758
3.1608431e-06
-9.7899164e-06
-0.0028578698
3.0598636e-06
-1.0770271e-05
-0.0028525944
2.9461865e-06
-1.1690321e-05
-0.0028489
2.8249342e-06
-1.2547306e-05
-0.0028465295
2.6969324e-06
-1.3339226e-05
-0.0028448871
2.5625843e-06
-1.406516e-05
-0.0028435419
2.4222304e-06
-1.4725632e-05
-0.0028422706
2.2768458e-06
-1.5320453e-05
-0.0028409754
2.1265994e-06
-1.5849091e-05
-0.0028396175
1.9721944e-06
-1.631118e-05
-0.002838214
1.8133447e-06
-1.6708689e-05
-0.0028367404
1.6519026e-06
-1.7043363e-05
-0.0028351747
1.4892343e-06
-1.7316919e-05
-0.0028335451
1.3258745e-06
-1.7530771e-05
-0.002831879
1.1618627e-06
-1.7693298e-05
-0.0028301476
9.9731811e-07
-1.7779561e-05
-0.0028283572
8.3187294e-07
-1.781639e-05
-0.0028264833
6.654136e-07
-1.779863e-05
-0.0028245527
5.0003749e-07
-0.0028225881
3.3460111e-07
1.6932726e-05
-0.0028223053
-4.0185259e-07
1.6991183e-05
-0.0028243752
-2.3599336e-07
1.6990795e-05
-0.0028264109
-7.1998827e-08
1.6937218e-05
-0.0028283925
8.887855e-08
1.6827373e-05
-0.0028302924
2.5463341e-07
1.6657051e-05
-0.0028321312
4.2251232e-07
1.6425447e-05
-0.0028339033
5.8981904e-07
1.6131135e-05
-0.0028356371
7.5666279e-07
1.5773105e-05
-0.0028373051
9.2274201e-07
1.5350397e-05
-0.0028388791
1.0877689e-06
1.4860968e-05
-0.0028403788
1.2506996e-06
1.4304307e-05
-0.0028418282
1.4093713e-06
1.3680686e-05
-0.0028432112
1.5642323e-06
1.2990086e-05
-0.0028445655
1.714235e-06
1.2232361e-05
-0.0028459884
1.8590189e-06
1.1408436e-05
-0.0028477035
1.9979269e-06
1.0520139e-05
-0.0028501416
2.1299099e-06
9.5702932e-06
-0.0028538997
2.2550633e-06
8.5613248e-06
-0.0028592334
2.3726414e-06
7.5008267e-06
-0.0028644922
2.4768733e-06
6.3981314e-06
-0.0028632207
2.562808e-06
5.2639321e-06
-0.0028409855
2.6209627e-06
4.1160461e-06
-0.0027774202
2.6314545e-06
2.993657e-06
-0.0026616629
2.5670486e-06
1.9433908e-06
-0.0025156551
2.4330581e-06
-0.0023962723
2.30544e-06
-1.9041933e-06
-0.0023970394
1.7187796e-06
-2.9224731e-06
-0.0025164456
1.8088182e-06
-4.0095532e-06
-0.0026624806
1.904789e-06
-5.12297e-06
-0.0027782493
1.9424395e-06
-6.2248483e-06
-0.0028418009
1.9173437e-06
-7.2951301e-06
-0.0028640026
1.8521447e-06
-8.3220379e-06
-0.002865228
1.7627356e-06
-9.2964261e-06
-0.0028599154
1.6563478e-06
-1.0211217e-05
-0.0028545212
1.5362854e-06
-1.1063646e-05
-0.0028506979
1.4086588e-06
-1.1850932e-05
-0.00284819
1.2738464e-06
-1.2571172e-05
-0.0028464001
1.1319665e-06
-1.3223039e-05
-0.0028448978
9.8410569e-07
-1.3806574e-05
-0.0028434587
8.310064e-07
-1.4322122e-05
-0.0028419859
6.7331048e-07
-1.4772199e-05
-0.0028404411
5.1243096e-07
-1.5162143e-05
-0.002838844
3.5487852e-07
-1.5489965e-05
-0.002837173
1.9573056e-07
-1.5751358e-05
-0.0028354072
3.150078e-08
-1.5946259e-05
-0.0028335732
-1.3521628e-07
-1.6075548e-05
-0.0028316981
-3.0384779e-07
-1.6140233e-05
-0.0028297536
-4.7409185e-07
-1.6139937e-05
-0.0028277468
-6.4598818e-07
-1.6073889e-05
-0.0028256565
-8.2049641e-07
-1.5943785e-05
-0.0028235105
-9.9477626e-07
-0.0028213282
-1.1684951e-06
1.4791899e-05
-0.0028196378
-1.9402396e-06
1.4979346e-05
-0.0028219275
-1.7704307e-06
1.5085897e-05
-0.0028241638
-1.5992453e-06
1.5130206e-05
-0.0028263638
-1.4273169e-06
1.5131509e-05
-0.0028285003
-1.2545719e-06
1.506452e-05
-0.0028305499
-1.0812224e-06
1.4934863e-05
-0.0028325367
-9.0688824e-07
1.4741021e-05
-0.0028344807
-7.3265326e-07
1.4481121e-05
-0.0028363539
-5.5916617e-07
1.4152094e-05
-0.0028381283
-3.8664762e-07
1.3751667e-05
-0.0028398232
-2.1754667e-07
1.3279916e-05
-0.0028414612
-5.292766e-08
1.2737253e-05
-0.0028430232
1.0720844e-07
1.2123453e-05
-0.0028445464
2.6242005e-07
1.1438675e-05
-0.0028461273
4.1195286e-07
1.0684218e-05
-0.0028479904
5.5483456e-07
9.8623428e-06
-0.0028505655
6.8949416e-07
8.9779009e-06
-0.0028544508
8.1405702e-07
8.0400661e-06
-0.0028599036
9.2600266e-07
7.0525329e-06
-0.0028652722
1.0316787e-06
6.0201034e-06
-0.0028640948
1.1246122e-06
4.9560863e-06
-0.0028419338
1.1969148e-06
3.8823733e-06
-0.002778413
1.2374755e-06
2.8368914e-06
-0.0026626635
1.2283878e-06
1.8571127e-06
-0.0025166375
1.1716031e-06
-0.0023972345
1.1188419e-06
-1.8119314e-06
-0.0023968561
5.1786119e-07
-2.7553918e-06
-0.0025162268
5.3276158e-07
-3.7601484e-06
-0.0026622102
5.5141686e-07
-4.7929975e-06
-0.0027779136
5.334376e-07
-5.8175094e-06
-0.0028413874
4.7806047e-07
-6.8088343e-06
-0.0028635024
3.9895497e-07
-7.7528876e-06
-0.002864631
3.0289931e-07
-8.6396752e-06
-0.0028592083
1.9148944e-07
-9.4629661e-06
-0.0028536935
6.5999465e-08
-1.0220354e-05
-0.0028497377
-7.0370144e-08
-1.0910428e-05
-0.0028470854
-2.1497615e-07
-1.1532343e-05
-0.0028451391
-3.6625263e-07
-1.2085403e-05
-0.0028434705
-5.2281403e-07
-1.2569325e-05
-0.0028418557
-6.8357591e-07
-1.2984622e-05
-0.0028401984
-8.474956e-07
-1.3331702e-05
-0.0028384621
-1.0139745e-06
-1.3611189e-05
-0.0028366669
-1.1819755e-06
-1.3823918e-05
-0.0028347906
-1.3506054e-06
-1.3971409e-05
-0.0028328136
-1.519549e-06
-1.4054682e-05
-0.0028307646
-1.688804e-06
-1.4075085e-05
-0.0028286719
-1.8576068e-06
-1.4034406e-05
-0.0028265153
-2.0256672e-06
-1.3933213e-05
-0.0028242717
-2.1933005e-06
-1.3769391e-05
-0.0028219673
-2.3603235e-06
-1.3540994e-05
-0.0028196298
-2.5261614e-06
-0.0028172392
-2.6900777e-06
1.2189962e-05
-0.002814164
-3.4121443e-06
1.2463889e-05
-0.0028166459
-3.2577762e-06
1.2675353e-05
-0.0028190777
-3.1009886e-06
1.2825307e-05
-0.0028214796
-2.9420283e-06
1.2914836e-05
-0.0028238236
-2.7812449e-06
1.2943956e-05
-0.0028260814
-2.6195566e-06
1.2911076e-05
-0.0028282751
-2.4565978e-06
1.2814751e-05
-0.0028304246
-2.2926978e-06
1.2653953e-05
-0.0028325013
-2.1284673e-06
1.242708e-05
-0.002834476
-1.9640047e-06
1.2132674e-05
-0.0028363675
-1.8001732e-06
1.1769965e-05
-0.0028381975
-1.6382842e-06
1.1338623e-05
-0.0028399455
-1.4789504e-06
1.0838469e-05
-0.0028416473
-1.3230363e-06
1.0269573e-05
-0.0028433991
-1.1711499e-06
9.6326502e-06
-0.0028454236
-1.0248259e-06
8.9285097e-06
-0.0028481484
-8.8516028e-07
8.1588424e-06
-0.0028521701
-7.53732e-07
7.3267083e-06
-0.0028577443
-6.3187221e-07
6.437743e-06
-0.0028632204
-5.2169758e-07
5.5017622e-06
-0.0028621421
-4.2436127e-07
4.5338848e-06
-0.0028400797
-3.3978928e-07
3.5596494e-06
-0.0027766704
-2.6900459e-07
2.6168701e-06
-0.0026610469
-2.2047825e-07
1.7314495e-06
-0.0025151458
-1.9555003e-07
-0.0023958392
-1.6655399e-07
-1.642593e-06
-0.0023941959
-8.4313173e-07
-2.4661369e-06
-0.0025134087
-9.1355055e-07
-3.3436468e-06
-0.0026591879
-9.8146621e-07
-4.2539086e-06
-0.0027747006
-1.0594594e-06
-5.1600192e-06
-0.0028380294
-1.1441956e-06
-6.035475e-06
-0.0028600333
-1.2333609e-06
-6.8634927e-06
-0.0028610618
-1.3305222e-06
-7.6342432e-06
-0.0028555345
-1.439051e-06
-8.3423378e-06
-0.0028499034
-1.5585891e-06
-8.9850721e-06
-0.0028458177
-1.6879514e-06
-9.5610075e-06
-0.0028430227
-1.8250104e-06
-1.0069317e-05
-0.0028409222
-1.9685257e-06
-1.0509732e-05
-0.0028390902
-2.1166483e-06
-1.0882358e-05
-0.0028373044
-2.2684267e-06
-1.118757e-05
-0.0028354694
-2.4228669e-06
-1.1425789e-05
-0.0028335501
-2.5792497e-06
-1.1598139e-05
-0.0028315674
-2.7362613e-06
-1.1706069e-05
-0.0028295003
-2.8930409e-06
-1.1751041e-05
-0.0028273307
-3.0489273e-06
-1.173405e-05
-0.0028250881
-3.2039913e-06
-1.1656612e-05
-0.0028228017
-3.3571831e-06
-1.1519692e-05
-0.0028204517
-3.5088174e-06
-1.1323083e-05
-0.0028180173
-3.6589129e-06
-1.1066462e-05
-0.0028155278
-3.8065702e-06
-1.0749488e-05
-0.0028130117
-3.9512006e-06
-0.0028104502
-4.093171e-06
9.2283333e-06
-0.0028061388
-4.7208413e-06
9.5850197e-06
-0.0028087736
-4.5948198e-06
9.883619e-06
-0.0028113608
-4.4655864e-06
1.0124599e-05
-0.0028139251
-4.3331161e-06
1.0307485e-05
-0.0028164369
-4.1977279e-06
1.043245e-05
-0.0028188667
-4.0599499e-06
1.0499119e-05
-0.0028212353
-3.919458e-06
1.0506197e-05
-0.0028235615
-3.7763413e-06
1.0452292e-05
-0.0028258152
-3.6312271e-06
1.0335937e-05
-0.0028279664
-3.4846643e-06
1.0155597e-05
-0.0028300326
-3.3370947e-06
9.9100362e-06
-0.0028320343
-3.1894863e-06
9.5986118e-06
-0.00283395
-3.0429387e-06
9.2208845e-06
-0.0028358142
-2.898304e-06
8.7766378e-06
-0.0028377214
-2.7566095e-06
8.266007e-06
-0.0028398931
-2.6189696e-06
7.6896774e-06
-0.0028427544
-2.4869862e-06
7.0489264e-06
-0.0028469003
-2.3623134e-06
6.3460445e-06
-0.0028525849
-2.2467049e-06
5.5858489e-06
-0.0028581604
-2.1412249e-06
4.7784062e-06
-0.002857181
-2.0448432e-06
3.9414741e-06
-0.0028352405
-1.9519555e-06
3.1032887e-06
-0.0027720083
-1.8541857e-06
2.297706e-06
-0.0026566341
-1.7482554e-06
1.5409439e-06
-0.0025110145
-1.6374643e-06
-0.002391927
-1.5246089e-06
-1.4286834e-06
-0.0023890441
-2.2006849e-06
-2.1114907e-06
-0.0025079756
-2.35607e-06
-2.8381075e-06
-0.0026533986
-2.508895e-06
-3.598627e-06
-0.0027686062
-2.6415962e-06
-4.3595147e-06
-0.0028317284
-2.7511925e-06
-5.0925303e-06
-0.0028536018
-2.8461766e-06
-5.7786671e-06
-0.0028545342
-2.9400108e-06
-6.4079102e-06
-0.0028489149
-3.0407352e-06
-6.9759436e-06
-0.0028431816
-3.150693e-06
-7.4807615e-06
-0.0028389805
-3.2690456e-06
-7.921427e-06
-0.0028360582
-3.3941667e-06
-8.2976253e-06
-0.0028338211
-3.5240633e-06
-8.6092527e-06
-0.0028318455
-3.6570833e-06
-8.8566026e-06
-0.0028299108
-3.7918432e-06
-9.0404837e-06
-0.0028279229
-3.9275216e-06