/*--------------------------------*- C++ -*----------------------------------*\
| =========                 |                                                 |
| \\      /  F ield         | OpenFOAM: The Open Source CFD Toolbox           |
|  \\    /   O peration     | Version:  v2012                                 |
|   \\  /    A nd           | Website:  www.openfoam.com                      |
|    \\/     M anipulation  |                                                 |
\*---------------------------------------------------------------------------*/
FoamFile
{
    version     2.0;
    format      ascii;
    class       volVectorField;
    location    "100";
    object      U;
}
// * * * * * * * * * * * * * * * * * * * * * * * * * * * * * * * * * * * * * //

dimensions      [0 1 -1 0 0 0 0];


internalField   nonuniform List<vector> 
74500
(
(5.0000426 4.8624571e-05 -0.00084196975)
(5.0000442 5.0849043e-05 -0.00084201301)
(5.0000458 5.3149708e-05 -0.00084061207)
(5.0000475 5.5526005e-05 -0.00083772819)
(5.0000492 5.7974527e-05 -0.00083330041)
(5.0000509 6.0491308e-05 -0.00082725214)
(5.0000527 6.3075749e-05 -0.00081949119)
(5.0000546 6.5725949e-05 -0.00080991008)
(5.0000564 6.8433213e-05 -0.00079839179)
(5.0000583 7.1191662e-05 -0.000784811)
(5.0000601 7.3994999e-05 -0.00076903861)
(5.000062 7.6829722e-05 -0.00075094387)
(5.0000638 7.9685866e-05 -0.00073040129)
(5.0000656 8.2551035e-05 -0.00070729019)
(5.0000674 8.540482e-05 -0.00068150487)
(5.0000691 8.8230585e-05 -0.00065295495)
(5.0000708 9.1006797e-05 -0.00062157175)
(5.0000725 9.3706992e-05 -0.00058731175)
(5.000074 9.6305376e-05 -0.00055015069)
(5.0000755 9.8778176e-05 -0.00051010413)
(5.0000769 0.00010111195 -0.00046714334)
(5.000078 0.00010335125 -0.00042140665)
(5.0000787 0.00010549646 -0.00037265166)
(5.0000794 0.00010779193 -0.0003221896)
(5.0000793 0.00010918267 -0.00026860421)
(5.0000805 0.00011204845 -0.00021674509)
(5.0000806 0.00011112608 -0.00016313995)
(5.0000829 0.00011510816 -0.00011466367)
(5.0000838 0.00011405561 -6.8238475e-05)
(5.0000819 0.00011693921 -2.3227617e-05)
(5.0000606 0.0003420993 -2.4402238e-05)
(5.000063 0.00057514929 -2.8579714e-05)
(5.000061 0.00081962143 -2.967288e-05)
(5.0000615 0.0010899886 -3.2152538e-05)
(5.0000573 0.0013578723 -3.3005252e-05)
(5.000051 0.0016331478 -3.2680484e-05)
(5.0000441 0.001896203 -3.3510768e-05)
(5.0000359 0.0021472196 -3.449709e-05)
(5.0000273 0.0023781754 -3.6759097e-05)
(5.0000174 0.002584928 -3.9708074e-05)
(5.000004 0.0027624919 -4.3161317e-05)
(4.999992 0.0029052844 -4.6968747e-05)
(4.9999785 0.0030070784 -5.122386e-05)
(4.9999619 0.0030615238 -5.5719725e-05)
(4.9999433 0.0030626114 -6.0477088e-05)
(4.9999232 0.0030042528 -6.5366433e-05)
(4.999902 0.0028815006 -7.022244e-05)
(4.9998801 0.002690809 -7.449273e-05)
(4.9998583 0.0024320213 -7.7223894e-05)
(4.9998374 0.0021073738 -7.6280263e-05)
(4.9998191 0.0017239996 -6.8839078e-05)
(4.9998026 0.0012869852 -5.5844051e-05)
(4.9997951 0.00083559879 -3.5316086e-05)
(4.9997777 0.00034296734 -6.284e-05)
(4.9998158 0.00013339655 -0.00015543933)
(4.9998048 0.00013569673 -0.00039565599)
(4.9998132 0.00015385068 -0.00062708462)
(4.9998205 0.00016383186 -0.00084309383)
(4.9998294 0.00016714894 -0.0010419876)
(4.9998379 0.00016631167 -0.0012230678)
(4.9998466 0.00016262444 -0.0013838924)
(4.9998551 0.00015784634 -0.0015246458)
(4.9998637 0.0001522503 -0.0016446709)
(4.9998723 0.00014646129 -0.0017451803)
(4.9998807 0.00014053174 -0.0018271077)
(4.999889 0.00013462412 -0.00189193)
(4.9998969 0.00012876839 -0.0019411095)
(4.9999045 0.00012300015 -0.0019762085)
(4.9999116 0.00011733497 -0.0019987893)
(4.9999182 0.00011180045 -0.0020103872)
(4.9999244 0.00010643481 -0.0020124716)
(4.99993 0.00010125191 -0.002006444)
(4.9999353 9.6256698e-05 -0.0019935606)
(4.9999401 9.1453243e-05 -0.0019749792)
(4.9999445 8.6841151e-05 -0.0019517351)
(4.9999485 8.243313e-05 -0.0019247514)
(4.9999522 7.8235177e-05 -0.0018948175)
(4.9999556 7.424988e-05 -0.0018626188)
(4.9999587 7.0465595e-05 -0.0018286769)
(4.9999615 6.6845775e-05 -0.0017934314)
(4.9999642 6.3387076e-05 -0.001757442)
(4.9999666 6.0097607e-05 -0.0017210391)
(4.9999688 5.696982e-05 -0.0016844805)
(4.999761 0.00016886175 -0.0051613828)
(4.9997439 0.00017817674 -0.0052730027)
(4.9997254 0.0001879707 -0.0053841573)
(4.9997053 0.00019827172 -0.0054940513)
(4.9996836 0.00020911311 -0.0056016859)
(4.9996599 0.0002205003 -0.0057057157)
(4.9996341 0.00023247023 -0.0058046488)
(4.999606 0.00024506763 -0.0058967162)
(4.9995753 0.00025831808 -0.0059798196)
(4.9995418 0.00027219116 -0.0060515287)
(4.9995053 0.0002866714 -0.0061090064)
(4.9994655 0.00030177022 -0.0061491051)
(4.9994224 0.00031746281 -0.0061682812)
(4.9993756 0.00033371822 -0.0061626562)
(4.9993252 0.00035049572 -0.0061279502)
(4.9992711 0.00036770116 -0.0060596511)
(4.9992136 0.00038523394 -0.0059530173)
(4.9991527 0.00040299331 -0.0058032099)
(4.9990889 0.00042081777 -0.0056054086)
(4.999023 0.00043849163 -0.0053549924)
(4.9989558 0.00045564664 -0.0050477435)
(4.9988884 0.00047186775 -0.0046801646)
(4.9988222 0.00048625407 -0.0042499421)
(4.998758 0.0004978174 -0.0037566484)
(4.9986969 0.00050390548 -0.0032021258)
(4.9986391 0.0005009306 -0.0025891125)
(4.9985891 0.00048322885 -0.0019244433)
(4.9985434 0.00044342171 -0.0012016518)
(4.9985467 0.00041006502 -0.00049931032)
(4.9984422 0.0010643872 -0.00023228646)
(4.9985208 0.0025537317 -0.00018319038)
(4.9986015 0.0039425953 -0.00021652465)
(4.9987209 0.0052839935 -0.00023670102)
(4.9988569 0.0064610721 -0.00024427876)
(4.9990079 0.0074560169 -0.00023911414)
(4.9991656 0.0082474571 -0.00022725199)
(4.9993246 0.0088286259 -0.00021246284)
(4.9994794 0.0092018301 -0.00019661899)
(4.9996261 0.0093775948 -0.00018076816)
(4.9997613 0.0093714795 -0.00016548092)
(4.9998833 0.0092021466 -0.00015102549)
(4.9999913 0.0088884783 -0.00013754252)
(5.0000859 0.008449709 -0.00012522458)
(5.0001668 0.0079050531 -0.0001144677)
(5.0002359 0.0072717811 -0.00010493677)
(5.0002935 0.006565063 -9.7030933e-05)
(5.000341 0.0057999303 -9.1054366e-05)
(5.0003795 0.0049924055 -8.5779332e-05)
(5.0004085 0.0041599919 -8.1163006e-05)
(5.0004306 0.0033257151 -7.5531423e-05)
(5.0004418 0.0025121154 -6.9821862e-05)
(5.0004522 0.0017436313 -6.6973356e-05)
(5.0004645 0.0010308268 -6.5503681e-05)
(5.0005173 0.00034236584 -6.7027311e-05)
(5.0014658 0.00057984757 -0.00010462767)
(5.003018 0.00081408525 -0.00014507542)
(5.0052417 0.0010795815 -0.00018981702)
(5.0081632 0.0013414438 -0.00023605206)
(5.0118045 0.0016219299 -0.00028746873)
(5.0161287 0.0019064885 -0.0003324715)
(5.0211583 0.0022026974 -0.00037331098)
(5.0269079 0.002507272 -0.00040611837)
(5.0334226 0.0028196578 -0.00043224559)
(5.0407446 0.0031371125 -0.00045208319)
(5.0489118 0.003456859 -0.00046602128)
(5.0579507 0.003775117 -0.00047358852)
(5.0678735 0.0040866844 -0.00047351221)
(5.0786768 0.0043830553 -0.00046503636)
(5.0903405 0.004659139 -0.00044841288)
(5.1028246 0.0049090545 -0.00042295563)
(5.116068 0.0051255508 -0.00038889235)
(5.1299885 0.0053011178 -0.00034629489)
(5.1444827 0.0054285926 -0.00029528964)
(5.1594254 0.0055021833 -0.00023625804)
(5.1746795 0.0055170014 -0.00017036906)
(5.1900783 0.0054714238 -9.7473194e-05)
(5.2054799 0.0053618448 -2.2896309e-05)
(5.2206826 0.0051905785 5.5168002e-05)
(5.2355333 0.0049643928 0.00013260015)
(5.2498606 0.0046879475 0.00020647544)
(5.26351 0.0043637986 0.00027572669)
(5.2763363 0.0039958148 0.0003402645)
(5.2882102 0.0035893618 0.00040024866)
(5.2990171 0.003148177 0.00045630039)
(5.3086616 0.0026720437 0.00050984621)
(5.3170574 0.002171899 0.00056270723)
(5.3241438 0.0016553093 0.00061423449)
(5.329869 0.0011301933 0.00066296146)
(5.3342189 0.00060027669 0.0007079386)
(5.3371563 7.0193197e-05 0.00074838156)
(5.3387116 -0.00048649395 0.00078556987)
(5.3388098 -0.00091521809 0.00080673931)
(5.3377674 -0.0013879788 0.0008310044)
(5.3353969 -0.0018467264 0.00084985305)
(5.3317941 -0.0022827835 0.00086412715)
(5.3270268 -0.0026903901 0.00087397334)
(5.3211551 -0.0030681742 0.00087936704)
(5.3142538 -0.0034149695 0.00088072053)
(5.3064039 -0.0037294763 0.00087782125)
(5.2976896 -0.0040105875 0.00087139458)
(5.2881989 -0.0042574242 0.00086212653)
(5.2780237 -0.0044693294 0.00085036197)
(5.2672574 -0.0046457739 0.00083675056)
(5.2559955 -0.0047866366 0.00082146645)
(5.244335 -0.0048920257 0.00080455456)
(5.2323754 -0.0049622522 0.00078651772)
(5.2072772 -0.0037227668 0.040977052)
(5.209138 -0.0037627802 0.040086855)
(5.2109313 -0.0037995518 0.039175737)
(5.212656 -0.003840272 0.038234682)
(5.2143164 -0.0038817125 0.037252921)
(5.215917 -0.0039219616 0.036224197)
(5.2174613 -0.0039629041 0.035143149)
(5.2189453 -0.004002535 0.03400567)
(5.220366 -0.0040437904 0.032808966)
(5.2217223 -0.0040847561 0.031546383)
(5.2230162 -0.0041252399 0.030215572)
(5.2242451 -0.0041652226 0.028811096)
(5.2254146 -0.0042035928 0.027336736)
(5.2265179 -0.0042434163 0.025784107)
(5.2275565 -0.0042814793 0.024149655)
(5.228524 -0.0043167946 0.022440129)
(5.22942 -0.0043515524 0.020652016)
(5.2302347 -0.0043833811 0.018785154)
(5.230966 -0.0044125011 0.016842423)
(5.2316021 -0.0044387622 0.014827373)
(5.2321328 -0.0044661884 0.012744589)
(5.232542 -0.0044968205 0.010613145)
(5.2328119 -0.0045377568 0.0084619051)
(5.2329223 -0.0045901946 0.0063442835)
(5.2328721 -0.0046662297 0.0043350135)
(5.2326813 -0.0047914064 0.0024879565)
(5.2446321 -0.0047222141 0.0025427727)
(5.2448121 -0.004597285 0.0044247127)
(5.2448503 -0.0045210324 0.0064697723)
(5.2447249 -0.0044681056 0.008623004)
(5.2444384 -0.0044253251 0.010808794)
(5.244009 -0.0043930972 0.012973106)
(5.2434561 -0.0043635937 0.01508671)
(5.242794 -0.0043350784 0.017130412)
(5.2420338 -0.0043033755 0.019098935)
(5.2411865 -0.0042684781 0.020988089)
(5.2402539 -0.0042306714 0.022794541)
(5.2392458 -0.0041920156 0.02451972)
(5.2381639 -0.0041497074 0.026165013)
(5.2370118 -0.0041059327 0.027722754)
(5.2357897 -0.0040634672 0.029198464)
(5.2345031 -0.0040190225 0.030598852)
(5.2331477 -0.0039738135 0.031920336)
(5.2317253 -0.0039278405 0.033167274)
(5.2302339 -0.0038816695 0.034342333)
(5.2286757 -0.0038369201 0.035451933)
(5.2270528 -0.0037910256 0.036499358)
(5.2253679 -0.0037460832 0.037489279)
(5.2236181 -0.0036994514 0.038425733)
(5.2217989 -0.0036538318 0.039316095)
(5.2199048 -0.0036115982 0.040168805)
(5.2179379 -0.0035661709 0.040992949)
(5.2281163 -0.0033725081 0.04089447)
(5.2301997 -0.0034232501 0.040142774)
(5.2322038 -0.0034716982 0.039354249)
(5.234128 -0.003522378 0.038519951)
(5.2359776 -0.0035740904 0.03763412)
(5.2377569 -0.0036244636 0.036688308)
(5.2394685 -0.0036753198 0.035678929)
(5.2411112 -0.0037256913 0.034601454)
(5.2426831 -0.0037766207 0.03345228)
(5.2441815 -0.0038280287 0.032225685)
(5.2456081 -0.0038779776 0.030917851)
(5.2469612 -0.0039273242 0.029526147)
(5.2482449 -0.0039739851 0.028053335)
(5.2494543 -0.0040218325 0.026494796)
(5.2505874 -0.0040688366 0.024843132)
(5.2516434 -0.0041109197 0.023106634)
(5.2526189 -0.0041521009 0.021285746)
(5.253505 -0.0041900983 0.019378587)
(5.2542994 -0.0042247747 0.017388299)
(5.2549922 -0.004255538 0.015319742)
(5.2555718 -0.0042874509 0.013179141)
(5.2560252 -0.0043210503 0.010985582)
(5.2563322 -0.0043653268 0.0087693476)
(5.2564742 -0.0044191764 0.006584678)
(5.2564501 -0.0044955015 0.0045067601)
(5.2562823 -0.0046183375 0.0025931983)
(5.2675329 -0.0044800727 0.0026385409)
(5.2676876 -0.0043603149 0.0045803343)
(5.2676956 -0.0042842847 0.00668701)
(5.2675343 -0.00422952 0.0088980336)
(5.2672029 -0.0041848497 0.011139927)
(5.266722 -0.0041494187 0.013358675)
(5.2661106 -0.004115542 0.015521737)
(5.2653828 -0.0040818909 0.017610974)
(5.2645477 -0.0040444658 0.019618252)
(5.2636171 -0.0040027494 0.021538878)
(5.2625914 -0.0039582822 0.023369695)
(5.2614803 -0.0039120384 0.025112358)
(5.2602864 -0.0038607506 0.026764816)
(5.2590114 -0.0038085437 0.028319986)
(5.2576564 -0.0037577266 0.029785098)
(5.2562275 -0.0037028886 0.031163355)
(5.2547195 -0.0036484245 0.032452484)
(5.2531349 -0.0035911191 0.033654263)
(5.2514715 -0.003536073 0.034772825)
(5.2497337 -0.0034790533 0.035813955)
(5.2479219 -0.0034235895 0.036780647)
(5.2460378 -0.0033665347 0.037677338)
(5.2440771 -0.0033103863 0.038507428)
(5.2420373 -0.0032535643 0.039280291)
(5.2399123 -0.0031989673 0.039998819)
(5.2377026 -0.0031422803 0.040672341)
(5.246588 -0.0028763723 0.040316813)
(5.2489353 -0.0029388707 0.039726997)
(5.2511919 -0.0030000059 0.039083325)
(5.2533584 -0.0030628142 0.038377533)
(5.2554418 -0.0031242382 0.037607907)
(5.2574423 -0.0031877113 0.036765104)
(5.2593662 -0.0032490616 0.035845606)
(5.2612108 -0.0033116355 0.034845724)
(5.2629768 -0.0033721738 0.033762669)
(5.2646592 -0.0034342599 0.032590798)
(5.2662587 -0.0034946101 0.031325469)
(5.2677744 -0.0035539982 0.029966021)
(5.2692094 -0.00361043 0.028513503)
(5.27056 -0.0036659115 0.026966412)
(5.2718236 -0.0037216866 0.025318905)
(5.2729988 -0.003771875 0.023576334)
(5.2740812 -0.0038207617 0.021740654)
(5.2750645 -0.0038655448 0.019811764)
(5.2759455 -0.0039066144 0.017792908)
(5.2767145 -0.0039428038 0.015688166)
(5.2773617 -0.0039792961 0.013507618)
(5.2778746 -0.0040160864 0.011268828)
(5.2782332 -0.0040610517 0.0090062888)
(5.2784169 -0.0041166406 0.0067740233)
(5.2784274 -0.004191693 0.0046436295)
(5.2782873 -0.0043076755 0.0026782934)
(5.2884497 -0.0041018515 0.0027115907)
(5.2885736 -0.0039897567 0.0046949138)
(5.2885425 -0.0039167705 0.0068429315)
(5.2883329 -0.0038606806 0.0090910819)
(5.2879434 -0.0038161338 0.011369042)
(5.2873952 -0.0037765924 0.013621747)
(5.2867064 -0.0037384257 0.015813939)
(5.2858909 -0.0036985815 0.017928062)
(5.2849567 -0.0036542385 0.01995217)
(5.2839137 -0.0036059622 0.021883458)
(5.2827656 -0.0035529252 0.023717583)
(5.2815179 -0.0034984452 0.025454022)
(5.280175 -0.0034388404 0.0270909)
(5.2787398 -0.0033791855 0.02862449)
(5.2772142 -0.0033172724 0.030058505)
(5.2756013 -0.003252893 0.031393604)
(5.2738981 -0.0031869494 0.032629165)
(5.2721072 -0.003119682 0.033766266)
(5.2702267 -0.0030534737 0.034808525)
(5.2682636 -0.0029852649 0.035762117)
(5.266215 -0.0029180956 0.036629145)
(5.2640859 -0.0028489546 0.037413685)
(5.261868 -0.0027813264 0.038118678)
(5.2595629 -0.002712494 0.038752109)
(5.2571629 -0.0026449951 0.039316063)
(5.2546675 -0.0025763005 0.039817542)
(5.2618409 -0.0022440041 0.039164221)
(5.2644959 -0.0023185959 0.038755455)
(5.2670507 -0.0023926458 0.038275434)
(5.2695067 -0.0024672753 0.037718832)
(5.2718709 -0.0025413248 0.037082756)
(5.2741414 -0.0026157635 0.036361351)
(5.2763263 -0.0026889624 0.03555149)
(5.2784207 -0.0027626007 0.034649478)
(5.2804272 -0.0028347478 0.033653098)
(5.2823387 -0.0029071099 0.032556207)
(5.2841567 -0.0029783002 0.031356272)
(5.2858787 -0.0030477516 0.030051996)
(5.2875049 -0.0031151407 0.028642591)
(5.289035 -0.0031795569 0.027128963)
(5.2904666 -0.0032430505 0.025509057)
(5.2917962 -0.0033017198 0.023785112)
(5.2930187 -0.0033587458 0.021959144)
(5.2941291 -0.0034106225 0.020032508)
(5.2951236 -0.0034582159 0.018009726)
(5.2959916 -0.0035018126 0.015893437)
(5.2967275 -0.0035421799 0.013696156)
(5.2973156 -0.0035842041 0.011436441)
(5.2977396 -0.0036294577 0.0091492839)
(5.2979784 -0.0036848668 0.0068913051)
(5.2980321 -0.003754963 0.0047324425)
(5.2979263 -0.0038626799 0.0027367433)
(5.3066253 -0.0035911005 0.0027523906)
(5.3067116 -0.0034880978 0.0047542465)
(5.3066335 -0.0034212157 0.006917002)
(5.3063631 -0.0033671684 0.0091772163)
(5.3058999 -0.0033215487 0.011466026)
(5.3052674 -0.0032770261 0.013725453)
(5.3044782 -0.0032343783 0.015920366)
(5.303551 -0.0031868539 0.018031103)
(5.3024886 -0.0031363078 0.020045235)
(5.301303 -0.003080366 0.021959664)
(5.2999973 -0.0030200002 0.023770015)
(5.2985771 -0.0029566653 0.02547466)
(5.2970469 -0.0028892124 0.027070609)
(5.2954115 -0.0028200078 0.02855705)
(5.2936733 -0.0027473417 0.029934867)
(5.2918311 -0.002672819 0.031202027)
(5.2898866 -0.002596897 0.032360212)
(5.2878426 -0.0025190618 0.033411165)
(5.2856979 -0.0024412578 0.034356072)
(5.2834598 -0.0023620998 0.035201399)
(5.2811262 -0.0022831442 0.035949153)
(5.2787021 -0.0022033251 0.036602889)
(5.2761795 -0.0021232215 0.03716562)
(5.2735607 -0.0020427507 0.037641478)
(5.2708392 -0.0019624624 0.038033448)
(5.2680139 -0.0018819697 0.03834612)
(5.2730997 -0.0014929856 0.037352921)
(5.276106 -0.0015790631 0.037139349)
(5.279005 -0.0016651606 0.03683867)
(5.2817984 -0.0017512725 0.0364476)
(5.2844909 -0.0018370315 0.035962032)
(5.2870811 -0.0019220388 0.035380541)
(5.2895755 -0.0020066283 0.034699477)
(5.2919701 -0.002090891 0.03391624)
(5.294265 -0.0021742519 0.033028263)
(5.2964532 -0.0022571273 0.032029667)
(5.2985361 -0.0023378011 0.030919728)
(5.3005096 -0.0024172283 0.029696018)
(5.3023712 -0.0024948686 0.02835722)
(5.3041222 -0.0025687252 0.02690564)
(5.3057609 -0.0026404496 0.025340894)
(5.3072808 -0.0027081045 0.023663484)
(5.3086785 -0.0027720499 0.021876771)
(5.3099476 -0.0028317785 0.0199828)
(5.3110843 -0.002886135 0.017985305)
(5.3120789 -0.0029365444 0.015888333)
(5.3129262 -0.0029823203 0.013704203)
(5.3136094 -0.0030279469 0.011453132)
(5.3141148 -0.0030742278 0.0091713797)
(5.3144197 -0.0031270273 0.0069178613)
(5.3145246 -0.0031908592 0.0047586348)
(5.3144585 -0.0032873039 0.0027573672)
(5.3213425 -0.002952209 0.0027508824)
(5.3213871 -0.0028641392 0.0047441557)
(5.3212526 -0.002803204 0.006890212)
(5.3209099 -0.0027522454 0.0091281562)
(5.3203586 -0.0027056186 0.011393856)
(5.3196202 -0.0026585038 0.013627)
(5.3187083 -0.0026100735 0.015790782)
(5.3176404 -0.0025566682 0.017865198)
(5.3164213 -0.0024987746 0.019836926)
(5.3150615 -0.0024351385 0.021701949)
(5.3135627 -0.002367675 0.023456442)
(5.3119339 -0.0022958019 0.025098009)
(5.3101766 -0.0022200867 0.026623403)
(5.3082991 -0.0021416636 0.028031989)
(5.3063026 -0.0020597957 0.029323967)
(5.3041872 -0.0019758394 0.030497644)
(5.301955 -0.0018902692 0.031552802)
(5.299611 -0.0018026154 0.032492199)
(5.2971542 -0.0017141989 0.033317359)
(5.2945917 -0.0016250851 0.034033308)
(5.2919249 -0.0015353986 0.034642827)
(5.2891574 -0.0014455844 0.035148133)
(5.2862842 -0.0013547335 0.035553108)
(5.283306 -0.0012632926 0.035856282)
(5.2802196 -0.0011720328 0.036063135)
(5.2770237 -0.0010807877 0.036175962)
(5.2797226 -0.00064989828 0.034811121)
(5.2831179 -0.00074521297 0.034799253)
(5.286402 -0.00084075186 0.034686684)
(5.2895742 -0.00093684765 0.034473543)
(5.2926364 -0.0010319858 0.034151824)
(5.2955902 -0.0011260128 0.033726336)
(5.2984386 -0.0012200093 0.033192849)
(5.301179 -0.0013134581 0.032549325)
(5.3038075 -0.0014063511 0.031792414)
(5.306318 -0.0014984037 0.030918587)
(5.3087094 -0.0015886518 0.029924692)
(5.3109766 -0.0016766617 0.028808149)
(5.3131179 -0.0017623197 0.027570793)
(5.3151321 -0.0018447786 0.026213491)
(5.317017 -0.0019242799 0.024736129)
(5.3187638 -0.0020000578 0.023139492)
(5.3203712 -0.0020713964 0.021426313)
(5.3218302 -0.0021383381 0.019600041)
(5.3231385 -0.0021998371 0.017663855)
(5.3242863 -0.0022559655 0.015621959)
(5.3252679 -0.0023069308 0.013488481)
(5.3260669 -0.0023553773 0.011283505)
(5.3266679 -0.002402372 0.0090440034)
(5.3270509 -0.0024512065 0.0068311048)
(5.3272176 -0.0025086338 0.004707739)
(5.3271969 -0.0025872361 0.0027318042)
(5.3319463 -0.0021938233 0.0026985861)
(5.3319418 -0.0021251321 0.0046471889)
(5.331741 -0.0020723269 0.0067378075)
(5.3313149 -0.0020258841 0.0089151281)
(5.3306601 -0.0019789723 0.011117305)
(5.3297964 -0.0019293986 0.013283283)
(5.3287396 -0.0018761923 0.015375761)
(5.3275061 -0.001817405 0.017374827)
(5.326102 -0.001752401 0.019264886)
(5.324537 -0.0016820567 0.021042458)
(5.3228135 -0.0016073806 0.022704285)
(5.3209416 -0.001527904 0.024247018)
(5.3189214 -0.0014450967 0.025667494)
(5.3167627 -0.0013591125 0.02696508)
(5.3144684 -0.0012702013 0.02813982)
(5.3120414 -0.0011787202 0.029191857)
(5.3094821 -0.0010845101 0.030118092)
(5.3067946 -0.00098864762 0.030921301)
(5.3039826 -0.00089229843 0.031605486)
(5.3010534 -0.00079563273 0.032172883)
(5.2980123 -0.00069857169 0.03262675)
(5.2948623 -0.00060125638 0.032969918)
(5.2916017 -0.00050358126 0.03320475)
(5.2882263 -0.00040433362 0.033328409)
(5.2847348 -0.00030577336 0.033348477)
(5.2811315 -0.00020750128 0.033263131)
(5.2812339 0.00022552463 0.031601238)
(5.2850262 0.00012783418 0.031765467)
(5.2887116 3.1701505e-05 0.031816921)
(5.2922924 -6.2108789e-05 0.031758497)
(5.2957648 -0.00016019016 0.031611717)
(5.2991225 -0.00025951544 0.031351408)
(5.3023678 -0.00035850487 0.030977793)
(5.3054972 -0.00045736158 0.030487241)
(5.3085038 -0.00055605422 0.02987737)
(5.3113789 -0.00065448705 0.029148028)
(5.3141154 -0.0007511554 0.028295677)
(5.3167111 -0.00084483337 0.027316077)
(5.3191676 -0.00093619146 0.026211514)
(5.3214804 -0.00102458 0.02498184)
(5.3236445 -0.0011098983 0.023626454)
(5.325652 -0.0011917455 0.02214671)
(5.3275005 -0.0012691261 0.020545371)
(5.3291805 -0.0013424869 0.018826111)
(5.3306871 -0.0014112735 0.016992664)
(5.3320115 -0.0014722447 0.015047109)
(5.3331483 -0.0015273173 0.013006922)
(5.3340809 -0.0015776729 0.01089163)
(5.3347924 -0.0016241515 0.0087385615)
(5.3352642 -0.0016679584 0.0066080665)
(5.3355006 -0.0017148952 0.0045612982)
(5.3355309 -0.001773116 0.0026510207)
(5.3378812 -0.0013307008 0.0025890584)
(5.3378234 -0.0012836866 0.0044499738)
(5.3375495 -0.0012432444 0.0064412708)
(5.3370287 -0.001202588 0.0085131213)
(5.3362565 -0.0011570683 0.010605065)
(5.3352511 -0.0011061868 0.012657694)
(5.3340296 -0.001049777 0.014633876)
(5.3326092 -0.00098755378 0.016513789)
(5.3309929 -0.00091557969 0.018280686)
(5.3291893 -0.00083961125 0.019934237)
(5.327206 -0.00076001337 0.021468277)
(5.3250531 -0.00067645009 0.02287873)
(5.3227339 -0.00058950628 0.024162398)
(5.3202572 -0.00049951144 0.025318083)
(5.3176276 -0.00040681116 0.026346304)
(5.3148504 -0.00031218946 0.027246063)
(5.311929 -0.00022036372 0.02803143)
(5.3088759 -0.00012852721 0.028706338)
(5.3056959 -3.2701405e-05 0.029257535)
(5.302392 6.5437317e-05 0.029684107)
(5.2989682 0.00016527573 0.029986644)
(5.2954261 0.00026641454 0.03016778)
(5.2917629 0.00036863507 0.030227792)
(5.2879828 0.00047261189 0.030162682)
(5.284091 0.00057633972 0.029980132)
(5.2800876 0.0006798685 0.029682273)
(5.2775703 0.0011399263 0.027479999)
(5.2817791 0.0010390764 0.027869964)
(5.2858801 0.0009378157 0.028144062)
(5.2898712 0.0008356163 0.028303584)
(5.2937491 0.00073279124 0.028348321)
(5.2975088 0.00062955303 0.028278455)
(5.3011488 0.00052559327 0.028094148)
(5.3046636 0.00042150889 0.027791215)
(5.3080466 0.0003175364 0.02736746)
(5.3112911 0.00021402906 0.026818586)
(5.314388 0.00011281824 0.026136864)
(5.3173296 1.4313713e-05 0.025320708)
(5.3201117 -8.1349293e-05 0.024371821)
(5.3227304 -0.00017388381 0.023290401)
(5.3251797 -0.00026241426 0.022075813)
(5.327453 -0.00034594044 0.02072943)
(5.3295473 -0.0004228908 0.019254495)
(5.3314573 -0.00049173317 0.017656816)
(5.3331793 -0.00055224683 0.015947084)
(5.3347023 -0.00061465118 0.014146037)
(5.3360129 -0.00067220199 0.012244656)
(5.3370954 -0.00072329111 0.01026546)
(5.3379315 -0.00076752988 0.008245347)
(5.338504 -0.00080500757 0.0062424165)
(5.3388172 -0.00083882314 0.0043162276)
(5.3389035 -0.00087441369 0.0025126642)
(5.3387902 -0.00046048881 0.0024416797)
(5.3386786 -0.00043283304 0.0041889818)
(5.3383275 -0.00040197805 0.006051398)
(5.3377036 -0.00036387782 0.0079852144)
(5.3368035 -0.00031710322 0.0099313906)
(5.3356442 -0.00026217776 0.011832997)
(5.3342441 -0.00020008379 0.01365284)
(5.3326183 -0.00013122043 0.015369201)
(5.3307776 -5.52323e-05 0.01696914)
(5.3287317 2.6896988e-05 0.018447274)
(5.3264869 0.00011376741 0.019800911)
(5.3240507 0.00020439876 0.021027972)
(5.3214292 0.00029797721 0.02212685)
(5.3186303 0.000393921 0.023096538)
(5.315661 0.00049163611 0.023937247)
(5.3125288 0.00059072394 0.024650066)
(5.3092393 0.00069066411 0.02523548)
(5.3058001 0.00079105495 0.025695182)
(5.3022198 0.00089144925 0.026032044)
(5.2985061 0.00099201437 0.026248371)
(5.294666 0.0010922637 0.026345737)
(5.2907054 0.001191977 0.026327641)
(5.2866256 0.0012916087 0.026193148)
(5.2824324 0.0013907199 0.025942428)
(5.2781306 0.0014889077 0.02557568)
(5.2737246 0.0015862239 0.025092067)
(5.2685838 0.0020145338 0.022519719)
(5.2731704 0.0019229082 0.023090177)
(5.2776583 0.0018299529 0.023544779)
(5.282042 0.0017357046 0.023884551)
(5.2863158 0.0016404662 0.024109762)
(5.2904732 0.0015446707 0.024220542)
(5.2945103 0.0014480316 0.024217237)
(5.2984196 0.0013507766 0.024096417)
(5.3021932 0.0012534355 0.023856416)
(5.3058216 0.0011559466 0.023494374)
(5.3092946 0.0010587905 0.023007379)
(5.3126028 0.00096271584 0.022393)
(5.3157408 0.00086823711 0.021650652)
(5.3187012 0.00077577748 0.020779619)
(5.3214765 0.00068575501 0.019779726)
(5.3240576 0.00059896541 0.018651543)
(5.3264379 0.00051597741 0.017397071)
(5.3286093 0.00043761235 0.016018911)
(5.3305655 0.00036441163 0.014521303)
(5.3322965 0.0002971829 0.01291026)
(5.3337905 0.00023679125 0.011197037)
(5.3350309 0.00018465769 0.0094025167)
(5.3359989 0.00014220258 0.0075635042)
(5.3366771 0.00011063382 0.0057350797)
(5.3370697 8.9705333e-05 0.0039744565)
(5.3372121 7.6687456e-05 0.0023204391)
(5.3342563 0.00058793438 0.002189717)
(5.334086 0.00058723677 0.0037431631)
(5.3336532 0.00059976468 0.0053938305)
(5.3329215 0.00062622713 0.0071077501)
(5.3318878 0.00066548507 0.0088302615)
(5.3305695 0.00071593083 0.010507805)
(5.3289849 0.0007753065 0.012104161)
(5.3271511 0.00084188128 0.013598796)
(5.3250793 0.00091420812 0.014980541)
(5.3227798 0.00099163986 0.016243389)
(5.3202607 0.0010732045 0.017383249)
(5.3175312 0.001158413 0.018397633)
(5.3145993 0.0012462701 0.019284887)
(5.3114753 0.001336302 0.020044979)
(5.3081672 0.001427929 0.020678364)
(5.3046849 0.0015206915 0.021186259)
(5.301035 0.0016138089 0.021569626)
(5.297228 0.0017067324 0.021831307)
(5.2932745 0.0017992155 0.021973654)
(5.2891842 0.0018912179 0.021999343)
(5.2849663 0.0019820696 0.021910387)
(5.2806296 0.0020718832 0.021709795)
(5.2761782 0.0021607965 0.021396737)
(5.2716202 0.0022483718 0.020971547)
(5.2669628 0.0023342466 0.020433538)
(5.2622135 0.0024185302 0.019781852)
(5.2546895 0.0027922102 0.016898203)
(5.259577 0.002717459 0.017623024)
(5.26438 0.0026406245 0.018237438)
(5.2690908 0.0025618088 0.018742833)
(5.2737004 0.0024811185 0.019139823)
(5.2781998 0.0023989791 0.019428326)
(5.2825831 0.0023154033 0.019608771)
(5.2868405 0.0022304788 0.019678612)
(5.2909613 0.0021442883 0.019635825)
(5.2949347 0.0020573587 0.019477176)
(5.2987487 0.0019698523 0.019200386)
(5.3023921 0.0018822546 0.018802635)
(5.3058564 0.0017953252 0.018282337)
(5.3091314 0.0017094637 0.017638392)
(5.3122078 0.0016253883 0.016869913)
(5.315075 0.0015435334 0.015976778)
(5.3177232 0.0014648208 0.014960306)
(5.3201433 0.0013897423 0.013822837)
(5.322326 0.0013191734 0.012568333)
(5.3242609 0.0012538965 0.011202701)
(5.3259352 0.0011958069 0.0097365838)
(5.3273317 0.0011472498 0.0081897177)
(5.328431 0.0011112936 0.0065974468)
(5.3292163 0.0010900991 0.0050115564)
(5.3296902 0.0010857412 0.0034841872)
(5.3298885 0.0010998787 0.0020439085)
(5.3241473 0.0016079883 0.0018848627)
(5.3239241 0.0015807152 0.003198901)
(5.3234096 0.0015764444 0.0045894119)
(5.3225726 0.0015916109 0.0060350244)
(5.3214107 0.0016237942 0.00748488)
(5.3199404 0.0016697071 0.0088889921)
(5.3181809 0.0017257496 0.010213212)
(5.3161503 0.0017887317 0.011438755)
(5.3138615 0.001856662 0.012555365)
(5.3113261 0.001928422 0.013557533)
(5.3085542 0.0020033862 0.014441491)
(5.3055563 0.0020807815 0.015205362)
(5.302343 0.0021600108 0.015847983)
(5.2989261 0.0022403363 0.01636993)
(5.2953164 0.0023211201 0.016772569)
(5.2915256 0.002402 0.017057255)
(5.2875629 0.0024822669 0.017225758)
(5.2834415 0.002561449 0.017280993)
(5.2791735 0.0026392661 0.017225241)
(5.2747709 0.0027152172 0.017062204)
(5.2702452 0.002789633 0.016793446)
(5.2656076 0.0028620918 0.016421398)
(5.2608649 0.0029326107 0.015945834)
(5.2560279 0.0030007619 0.015366857)
(5.2511061 0.0030667206 0.014683593)
(5.2461093 0.0031300097 0.013894968)
(5.2365832 0.0034271237 0.010802677)
(5.2416561 0.0033767653 0.011644812)
(5.2466638 0.0033235823 0.012387397)
(5.2515962 0.0032676786 0.013032128)
(5.2564424 0.0032091544 0.013579331)
(5.2611908 0.0031481368 0.014029453)
(5.2658328 0.0030847719 0.014382077)
(5.2703562 0.0030193678 0.014635394)
(5.2747483 0.0029516693 0.014787485)
(5.2789962 0.0028819418 0.014834826)
(5.2830866 0.0028108132 0.014774704)
(5.2870056 0.0027383015 0.014604471)
(5.2907419 0.0026653462 0.014321698)
(5.2942832 0.0025924207 0.013924977)
(5.2976176 0.0025198369 0.013412751)
(5.3007321 0.0024484467 0.012784015)
(5.303615 0.0023787953 0.012039533)
(5.3062549 0.0023116783 0.011180877)
(5.3086409 0.0022476711 0.010211416)
(5.3107604 0.0021879967 0.0091363789)
(5.3125996 0.0021349317 0.0079653124)
(5.3141394 0.0020923327 0.0067158395)
(5.3153607 0.002064456 0.0054205482)
(5.316247 0.0020561454 0.0041270321)
(5.316802 0.0020699012 0.0028875637)
(5.3170482 0.0021094526 0.0017142568)
(5.308642 0.0025977946 0.0015351443)
(5.3083762 0.0025475441 0.002552581)
(5.3077818 0.0025226812 0.0036271027)
(5.3068497 0.0025233205 0.0047583723)
(5.3055752 0.0025460963 0.0058883991)
(5.3039732 0.0025846482 0.0069729006)
(5.3020629 0.0026336973 0.0079809523)
(5.2998645 0.0026889682 0.0088965049)
(5.2973923 0.0027478061 0.0097107372)
(5.2946602 0.0028090195 0.01041892)
(5.2916798 0.0028719635 0.01101806)
(5.2884641 0.0029359358 0.011507061)
(5.2850256 0.0030003355 0.011885505)
(5.2813788 0.003064414 0.012154859)
(5.2775361 0.0031279779 0.012316578)
(5.2735117 0.0031903521 0.012372838)
(5.2693181 0.0032508243 0.012326011)
(5.2649704 0.0033093388 0.012178874)
(5.2604828 0.0033651939 0.011934449)
(5.2558689 0.0034183898 0.011596024)
(5.251142 0.0034690869 0.011165335)
(5.2463157 0.0035169845 0.01064442)
(5.2413998 0.0035620157 0.010033552)
(5.236407 0.0036041204 0.0093323838)
(5.2313489 0.003643191 0.008540505)
(5.2262368 0.0036791831 0.0076564261)
(5.2152058 0.0038832081 0.0044944458)