/*--------------------------------*- C++ -*----------------------------------*\
| =========                 |                                                 |
| \\      /  F ield         | OpenFOAM: The Open Source CFD Toolbox           |
|  \\    /   O peration     | Version:  v2012                                 |
|   \\  /    A nd           | Website:  www.openfoam.com                      |
|    \\/     M anipulation  |                                                 |
\*---------------------------------------------------------------------------*/
FoamFile
{
    version     2.0;
    format      ascii;
    class       volScalarField;
    location    "300";
    object      k;
}
// * * * * * * * * * * * * * * * * * * * * * * * * * * * * * * * * * * * * * //

dimensions      [0 2 -2 0 0 0 0];


internalField   nonuniform List<scalar> 
231880
(
0.094264294
0.093220326
0.092179535
0.09114125
0.090105017
0.089070485
0.088037415
0.087006145
0.085976235
0.084947666
0.083920337
0.082894206
0.081869276
0.080845598
0.079823224
0.078802703
0.077783757
0.07676692
0.075751888
0.074739142
0.073728358
0.072719551
0.071712735
0.070708394
0.069706364
0.068707215
0.06771077
0.06671757
0.065727822
0.064741655
0.063758836
0.062779538
0.061803786
0.060831589
0.059863052
0.058898277
0.057937379
0.056980521
0.056027871
0.055079949
0.0541367
0.053198322
0.052264939
0.051336977
0.050414392
0.04949764
0.048586636
0.047681504
0.046782315
0.04588915
0.045002129
0.044121376
0.043247008
0.04237915
0.041517921
0.040663661
0.039816533
0.038976627
0.038143803
0.037318373
0.036500715
0.035691729
0.03489231
0.034108147
0.033338167
0.03259498
0.03186206
0.031152214
0.029697958
0.030395811
0.031693471
0.032885158
0.034015824
0.034900623
0.035765378
0.036492602
0.037023362
0.037261433
0.037233454
0.037324332
0.037405219
0.037546005
0.037951186
0.038419197
0.038535601
0.038873764
0.039106325
0.038966352
0.039073707
0.038950571
0.038870214
0.038668337
0.038645875
0.038903476
0.039023462
0.038788409
0.03885241
0.038939494
0.038815206
0.038641104
0.038489037
0.038805027
0.03885151
0.038780151
0.038700508
0.038908816
0.039413507
0.03987735
0.040291262
0.040852739
0.041295487
0.042101541
0.042333748
0.042804097
0.042912436
0.04360926
0.043832007
0.044661981
0.044719859
0.045632672
0.045597988
0.04632461
0.045833209
0.045905598
0.044619116
0.04369022
0.041155252
0.038602286
0.036426746
0.034978749
0.035697056
0.039962022
0.04578507
0.053053871
0.057584242
0.060347562
0.060405251
0.060183586
0.058962986
0.058668369
0.05778608
0.057943043
0.057573255
0.058002614
0.057849988
0.058295936
0.058083764
0.058514239
0.058332708
0.058728132
0.058428917
0.05855457
0.057920522
0.057458732
0.057315484
0.057222413
0.057640223
0.057721747
0.057617825
0.057802825
0.05816957
0.058476419
0.058738545
0.058912787
0.059035153
0.059078767
0.059140081
0.059226946
0.059201555
0.059233038
0.059274297
0.059258181
0.059260998
0.059250171
0.059232543
0.059164882
0.059121528
0.059090078
0.059121155
0.059183113
0.059147093
0.059063507
0.0589751
0.058897958
0.05893444
0.058914485
0.058829161
0.05859678
0.058370785
0.058060481
0.057609721
0.057252557
0.057258843
0.057673296
0.056995778
0.056772942
0.056822831
0.056896259
0.057005588
0.056991462
0.056963128
0.056936652
0.056878304
0.056869879
0.056926739
0.057039737
0.057072316
0.057068452
0.057090247
0.057101762
0.057076088
0.057011553
0.056900405
0.05677875
0.056682476
0.0565422
0.056506089
0.056448652
0.056470617
0.056513714
0.05669572
0.05685166
0.057014357
0.057103109
0.057110593
0.057136557
0.05714029
0.057145239
0.057138873
0.057117529
0.057063341
0.057037689
0.057006593
0.056973283
0.05695247
0.057043353
0.057166814
0.057386083
0.057500413
0.057599415
0.057764328
0.057848403
0.058002352
0.058128686
0.058342535
0.058452923
0.058441419
0.058364925
0.058361066
0.058392019
0.058368936
0.05844157
0.058534437
0.058669347
0.058714142
0.058766573
0.058801169
0.058894944
0.058922058
0.058911888
0.058958622
0.058932748
0.058962656
0.058867548
0.058896349
0.058826978
0.058907315
0.058897798
0.059031613
0.059021764
0.059059439
0.058991945
0.059084438
0.059095298
0.059263314
0.059338649
0.059553048
0.059645941
0.059842433
0.059971024
0.060355439
0.060893022
0.061659425
0.061275301
0.061512615
0.061479348
0.061988074
0.061889723
0.062272648
0.062008461
0.062276427
0.061926598
0.062247424
0.062054682
0.062344191
0.062024884
0.062300489
0.062113088
0.062540367
0.062366404
0.062816811
0.062658128
0.063103502
0.062933784
0.063449719
0.063358333
0.063931702
0.063803045
0.064352903
0.064069733
0.064146547
0.063063954
0.06220415
0.059821893
0.05741439
0.053069957
0.048320854
0.041883462
0.036016454
0.035353429
0.041989578
0.047761142
0.052771889
0.056705769
0.059370684
0.061461286
0.062625784
0.063428636
0.063694075
0.063584591
0.063335462
0.063230829
0.063041144
0.06286321
0.062687313
0.06257618
0.062442676
0.062271685
0.062148735
0.062058616
0.061941985
0.061767301
0.061855034
0.06186546
0.061863905
0.061568363
0.061473178
0.061619294
0.061672466
0.06170754
0.061623067
0.061437233
0.061202263
0.060987958
0.060944345
0.060417453
0.060633545
0.061019145
0.061143843
0.061288583
0.061506823
0.061608825
0.061594987
0.061387811
0.061312799
0.061516648
0.061534703
0.061591838
0.061449502
0.061670113
0.061839499
0.061937435
0.061911881
0.062318667
0.06223204
0.062300319
0.06263396
0.062988791
0.063249501
0.06328923
0.063318629
0.063649333
0.063333869
0.062409398
0.061395031
0.059319319
0.056787055
0.052740787
0.047672377
0.042035402
0.035640335
0.036502884
0.042349808
0.04802767
0.053065837
0.057002121
0.059427235
0.06112226
0.062193623
0.062974318
0.063390787
0.06333423
0.063526099
0.063258908
0.062962001
0.062427841
0.062080953
0.06215687
0.062244503
0.062038089
0.061934889
0.061742837
0.061615145
0.06146628
0.061390641
0.061355451
0.061393259
0.061304654
0.061507173
0.061544847
0.061588166
0.061309643
0.061139674
0.061094064
0.060856255
0.060259677
0.059990903
0.059910538
0.060230391
0.060736194
0.060891685
0.061067176
0.06126284
0.061389648
0.061315185
0.061300918
0.061156291
0.061249459
0.061277669
0.061293983
0.061314588
0.061537383
0.061793757
0.061894423
0.061873009
0.062027865
0.061956153
0.061905895
0.062261676
0.062653333
0.062909006
0.06319805
0.063108029
0.063380013
0.063089503
0.062154074
0.0611882
0.059312522
0.056934021
0.053284857
0.048243025
0.042876991
0.037320719
0.03810059
0.04340451
0.048527055
0.053217615
0.056670272
0.059171436
0.061008841
0.062263852
0.062974934
0.063068043
0.062989312
0.062947306
0.062997578
0.062485259
0.062160969
0.062049276
0.061964396
0.062005016
0.061748558
0.061828637
0.061734759
0.061512173
0.06132622
0.061312298
0.061231149
0.061284351
0.061108267
0.061036839
0.061120248
0.061077276
0.061006325
0.061075329
0.060884465
0.060661194
0.060075661
0.059756962
0.05964646
0.060007598
0.060569979
0.060728835
0.060958077
0.061048339
0.061086408
0.061255373
0.061000117
0.06096037
0.061265416
0.061056372
0.061127031
0.061201515
0.061400602
0.061507387
0.061634082
0.061679016
0.06164768
0.061543484
0.061786901
0.062043031
0.062430071
0.062712954
0.062823429
0.062815271
0.062939385
0.062816925
0.062212446
0.060996831
0.059087336
0.056515499
0.053154247
0.048576777
0.043499696
0.03846247
0.03886237
0.04361503
0.048328059
0.052737639
0.056395396
0.059026374
0.060722148
0.061815557
0.062587955
0.062761657
0.062605728
0.062538472
0.062612501
0.0621927
0.061679146
0.061414941
0.061323255
0.06144217
0.061526398
0.061317503
0.061217516
0.061180117
0.060902515
0.060949131
0.061076811
0.061222673
0.06104102
0.061102434
0.061153853
0.061080038
0.060891616
0.060739663
0.060728663
0.060448414
0.059741224
0.05938418
0.059383833
0.059797338
0.060428024
0.060627996
0.0608205
0.060921632
0.060973139
0.061136338
0.061023277
0.060821125
0.060965552
0.060917031
0.060815911
0.060881668
0.061037332
0.061154479
0.061261301
0.061284379
0.061318719
0.061257704
0.061232693
0.061585341
0.061849392
0.062165613
0.062333888
0.062434239
0.062433219
0.062141498
0.061749814
0.060706546
0.058994105
0.056324166
0.052489673
0.048233392
0.043725818
0.039374457
0.039648702
0.043654319
0.04789754
0.052284768
0.055965698
0.058525884
0.060323749
0.061432311
0.061965338
0.062322008
0.061898785
0.061730562
0.061695627
0.061607666
0.061330856
0.061261122
0.061138055
0.061162449
0.060970017
0.060925011
0.060919448
0.060723316
0.06058927
0.060537956
0.060775764
0.060784401
0.060702402
0.060951304
0.061120371
0.061056286
0.060978004
0.060930593
0.060711066
0.060407026
0.059595681
0.059174302
0.059233537
0.059692258
0.060369101
0.060578146
0.060721795
0.060808451
0.06090092
0.060883037
0.060695923
0.060517828
0.060643057
0.060630595
0.060466502
0.060450323
0.060470471
0.060684478
0.060616435
0.06068626
0.060592201
0.060648099
0.060745258
0.060961341
0.061173764
0.061458535
0.061505235
0.061626983
0.061946263
0.06152049
0.061026238
0.059845478
0.058212446
0.055637645
0.052137444
0.047942895
0.043574629
0.039615779
0.039846582
0.043507526
0.047629706
0.051921769
0.055191128
0.057706876
0.05921888
0.060481369
0.061106236
0.061488851
0.061246217
0.061102827
0.061025099
0.060768814
0.060618394
0.060285651
0.060344029
0.060264942
0.060367496
0.060349991
0.060410979
0.060235003
0.06015305
0.060195634
0.060342955
0.060415693
0.060411768
0.060708451
0.060988914
0.061011689
0.060779391
0.060648201
0.06062446
0.060295191
0.059509897
0.059083345
0.059203137
0.059632396
0.060247288
0.060478619
0.060648146
0.060811906
0.060884214
0.060882513
0.060721619
0.060375378
0.060326361
0.060308424
0.060056396
0.059983596
0.059940937
0.060092626
0.060027603
0.060080788
0.059853684
0.059920158
0.060004469
0.060295597
0.060445762
0.060725114
0.06066053
0.060704305
0.060776048
0.060647178
0.059990385
0.058918732
0.057256429
0.054697215
0.051540462
0.047619514
0.043476789
0.039885238
0.039983803
0.043547085
0.04738535
0.051332992
0.054418197
0.056923157
0.058359912
0.059599085
0.060108842
0.060301414
0.060294381
0.060295771
0.060045135
0.059824364
0.059622022
0.059563003
0.059495772
0.059571671
0.059646235
0.059787169
0.059746493
0.059813339
0.05970479
0.060074761
0.060284545
0.060356867
0.060297521
0.060478214
0.060645036
0.060663677
0.060668879
0.060521605
0.060407981
0.060071365
0.059425416
0.059105229
0.059210906
0.059373094
0.059927892
0.060389902
0.060560657
0.060753993
0.060691734
0.060750373
0.060546172
0.060347577
0.060189269
0.06005566
0.059885595
0.059668009
0.05954279
0.0594163
0.059193828
0.059115642
0.059027713
0.05907237
0.059066924
0.059030688
0.059054229
0.059351651
0.059336981
0.059491005
0.059288992
0.059218956
0.058818609
0.057794646
0.056207468
0.054008596
0.050949405
0.046972351
0.043479652
0.039979027
0.040040923
0.043375479
0.046884625
0.05051767
0.053439588
0.055712935
0.05735143
0.058113337
0.058640686
0.058753886
0.058929374
0.05870064
0.058841166
0.058602108
0.058628169
0.058611932
0.05851392
0.058384738
0.058455627
0.058598013
0.058959863
0.059202611
0.059248454
0.05954132
0.059885396
0.060137529
0.060332981
0.060527928
0.0606429
0.060577736
0.060640015
0.06032906
0.06012849
0.059781866
0.059215645
0.058955784
0.059073169
0.059229477
0.059788476
0.060241848
0.060283533
0.060627954
0.060701575
0.06074346
0.060389983
0.0601841
0.060136742
0.060024199
0.059545453
0.059310662
0.058954257
0.058645663
0.058174847
0.058038992
0.057927808
0.058162323
0.058243959
0.05825955
0.058192735
0.058429839
0.05832282
0.058323776
0.058363229
0.058309773
0.057796054
0.056991516
0.055428782
0.053288173
0.050424094
0.047001203
0.043662128
0.04042963
0.040531237
0.043725443
0.047236325
0.050356092
0.052871455
0.055081123
0.056591078
0.057594922
0.058167876
0.058278247
0.058090427
0.058115231
0.058023228
0.057851566
0.057906455
0.057715738
0.057736532
0.057548667
0.057678598
0.05794126
0.05823907
0.058599332
0.059032932
0.059489408
0.059969665
0.060121215
0.060187048
0.060321488
0.060483436
0.060539775
0.060592867
0.060328614
0.060265273
0.059783637
0.059159791
0.058884701
0.059066428
0.059224392
0.059754107
0.060216002
0.060230563
0.060616793
0.06066799
0.060662887
0.060383811
0.060210442
0.06014402
0.05998187
0.059398914
0.058983475
0.058387339
0.058252113
0.057798762
0.057554719
0.057373358
0.057585183
0.057422664
0.057435696
0.057577136
0.0578955
0.057789034
0.057706884
0.057808407
0.057731865
0.057241497
0.056161428
0.054847096
0.052878074
0.05024336
0.047192667
0.043670809
0.040595732
0.040956466
0.043964912
0.047122642
0.050056842
0.05255389
0.054460328
0.055762677
0.056933189
0.057587066
0.057563113
0.057541808
0.057534851
0.057528451
0.057359517
0.057366247
0.057315567
0.05736276
0.057232721
0.057364386
0.057712398
0.058084659
0.058311795
0.058745156
0.059141578
0.059841202
0.06006329
0.060309166
0.06048198
0.060605028
0.060526675
0.060437096
0.060212272
0.060273713
0.05977187
0.059200672
0.058930467
0.059150246
0.059336912
0.059923397
0.060403039
0.060362933
0.060625406
0.060748586
0.060767169
0.060432204
0.060227821
0.060031853
0.059727826
0.059092857
0.058867618
0.058428971
0.058188581
0.057675554
0.057492656
0.057037423
0.057080051
0.057146496
0.057250866
0.057263624
0.057458336
0.057336673
0.057303521
0.057290832
0.057163639
0.056642642
0.055741675
0.054313291
0.052472033
0.049850146
0.046911082
0.044002613
0.040973915
0.041115344
0.044093289
0.047017992
0.050020491
0.0522916
0.054336708
0.055529169
0.056433149
0.057020387
0.057273238
0.057148313
0.057115194
0.057027453
0.057057361
0.056857448
0.056910293
0.056811297
0.056989652
0.057378535
0.05786662
0.058075244
0.058391605
0.058629551
0.059184098
0.059648183
0.060063643
0.06032012
0.060527832
0.060859421
0.060780886
0.060734951
0.060660989
0.060538433
0.060158869
0.05946032
0.059086753
0.059086607
0.059412253
0.060053992
0.060479969
0.060745817
0.060861696
0.060748629
0.060887335
0.060713608
0.060260356
0.059931505
0.059633359
0.05919469
0.058767451
0.058213063
0.057917584
0.057668682
0.05717726
0.057004899
0.056867604
0.056723683
0.056791691
0.056867833
0.057000984
0.056917863
0.056988582
0.057007586
0.056874087
0.056347306
0.05557295
0.054433473
0.05257891
0.05015193
0.047055907
0.044107871
0.040980047
0.040994884
0.044056731
0.047077678
0.04991441
0.052391245
0.054332826
0.055435502
0.056330358
0.056787068
0.056880797
0.056831218
0.056735408
0.056804153
0.056721225
0.056579957
0.056387338
0.056612093
0.056750218
0.057057552
0.057630644
0.057903825
0.058031338
0.058508375
0.058955159
0.059478583
0.059914173
0.06023673
0.060757573
0.060875733
0.060756494
0.060682276
0.060650424
0.060456699
0.060085918
0.059526308
0.059049782
0.059050201
0.059456388
0.060091467
0.060512121
0.060608496
0.060716321
0.060656659
0.060754069
0.060588894
0.060249818
0.059898878
0.059599781
0.058884417
0.058570804
0.057904889
0.057632244
0.057345097
0.056977186
0.056739891
0.056499877
0.05637659
0.056343821
0.056343302
0.056423877
0.056549122
0.056721072
0.056758075
0.05673359
0.056302188
0.055607093
0.05451904
0.052653919
0.049886239
0.046865178
0.043965224
0.04097104
0.040925194
0.043945946
0.046847789
0.049843213
0.052495811
0.054382551
0.055434444
0.056237492
0.056627328
0.056663858
0.056578215
0.056406474
0.056470885
0.056135578
0.056048057
0.056165054
0.056333883
0.056701021
0.056966064
0.057363591
0.057713255
0.058085086
0.058569362
0.058956403
0.059682154
0.059909593
0.06025008
0.060540697
0.060606437
0.060689801
0.060656695
0.060496756
0.060461794
0.060120669
0.059612315
0.059108667
0.058938779
0.059450472
0.060124844
0.06050471
0.060430884
0.060409375
0.060571467
0.060518126
0.060385145
0.060124691
0.059885939
0.059635932
0.059005135
0.058604588
0.058061791
0.057518291
0.057286504
0.056818661
0.056644435
0.056456995
0.056129169
0.056247059
0.056257774
0.056314663
0.056344702
0.05644948
0.056654427
0.056644826
0.056237715
0.055586089
0.054511286
0.0527739
0.049862773
0.046787701
0.043933891
0.040987435
0.041051644
0.043994755
0.04688739
0.049912354
0.052603271
0.054458647
0.055367079
0.056048173
0.056557432
0.056717366
0.056559899
0.05653136
0.056489792
0.056300024
0.05604976
0.055991781
0.056193434
0.056471963
0.056685643
0.057174011
0.057651325
0.058307867
0.058583496
0.058919615
0.059386028
0.059814035
0.059987347
0.060374494
0.060433601
0.060490964
0.06054361
0.060461556
0.060394412
0.060088201
0.059514663
0.058970757
0.058871722
0.059367291
0.059973114
0.060234946
0.060194764
0.060260158
0.060350248
0.060209551
0.060046879
0.059806042
0.059778889
0.05952519
0.058910345
0.058345621
0.058244979
0.05764941
0.057213471
0.056636291
0.056439437
0.056282784
0.056033027
0.056218321
0.056243057
0.056294021
0.056375992
0.056690639
0.056761067
0.056512596
0.056096065
0.055440952
0.054362153
0.052604585
0.04997541
0.046967214
0.043990813
0.041004769
0.040975181
0.043965582
0.046928178
0.049882908
0.052459705
0.054337286
0.055508084
0.056310287
0.056663267
0.056882241
0.05667167
0.056309597
0.05628859
0.056153624
0.056098139
0.056166499
0.056304696
0.056523947
0.056710047
0.057153272
0.057630111
0.058151027
0.058469274
0.059081199
0.059502043
0.059605616
0.059629283
0.059947968
0.060242693
0.060364742
0.060320943
0.060068689
0.060156054
0.059956286
0.059345416
0.05890958
0.058645365
0.059089498
0.059708128
0.059969229
0.059917
0.060081744
0.060180709
0.060097326
0.059921353
0.05959864
0.059532563
0.059416827
0.058854766
0.058270991
0.057847455
0.057319391
0.056846392
0.056417754
0.056231848
0.056109186
0.055953689
0.056066302
0.055933203
0.05613375
0.05617629
0.056406694
0.05645456
0.056499422
0.0561017
0.055448476
0.05424229
0.052557503
0.04994847
0.046979685
0.043843507
0.04083354
0.040460716
0.043578582
0.046766375
0.049819603
0.052449663
0.054193954
0.055378226
0.055853707
0.056268602
0.056471097
0.056383079
0.056210292
0.05609781
0.05593551
0.056017146
0.055889536
0.0561383
0.056158722
0.056416485
0.056772455
0.057350668
0.057814304
0.058431274
0.058879107
0.059205648
0.059602679
0.059746766
0.059923834
0.060035545
0.060198664
0.060027036
0.059979814
0.059983605
0.05960296
0.058927385
0.058550635
0.058454126
0.058866405
0.059489521
0.059910012
0.059938433
0.060039297
0.06005745
0.060048248
0.059826877
0.059723873
0.059557266
0.059227948
0.058752304
0.058132669
0.057778439
0.057160415
0.056578281
0.056133872
0.055992492
0.055964516
0.055917214
0.056019972
0.055870302
0.055892796
0.056077282
0.056176961
0.056494341
0.056449969
0.055940316
0.055348895
0.054094529
0.052297478
0.049942362
0.047001187
0.043467298
0.040337844
0.040349103
0.043565805
0.047073827
0.050129503
0.052473581
0.054266537
0.055457264
0.056114646
0.056480429
0.056519769
0.056225629
0.056096322
0.05601182
0.055918566
0.055838505
0.055800227
0.05585647
0.055940194
0.056227426
0.056475501
0.057168806
0.057648999
0.058173144
0.058744452
0.059242611
0.059600603
0.059708305
0.059929454
0.060178365
0.060002797
0.059931847
0.060010513
0.059959164
0.059517677
0.058841092
0.058519785
0.058467641
0.058881025
0.059382183
0.059758281
0.060043915
0.060081417
0.060073008
0.060187492
0.059888619
0.059628108
0.059522969
0.059258141
0.05866196
0.058044286
0.057575992
0.057066633
0.05645126
0.056192934
0.055773759
0.055779806
0.055664438
0.055752753
0.055738235
0.055820238
0.055977312
0.056111337
0.05624159
0.056211996
0.05596506
0.055306136
0.054056395
0.052310066
0.049950869
0.046832114
0.043406822
0.040575655
0.0406907
0.04358887
0.046637414
0.049642457
0.052258491
0.054137177
0.055129107
0.055829296
0.056241543
0.056188515
0.056164107
0.055970176
0.056021445
0.055843786
0.055650034
0.055603034
0.055681871
0.055687238
0.055981155
0.056399459
0.056982792
0.057562544
0.058241757
0.058761229
0.059189626
0.059500301
0.059599279
0.059810875
0.060165732
0.060081154
0.059908907
0.059831726
0.059722254
0.059349458
0.058776232
0.058438674
0.058568925
0.058964456
0.059369064
0.059712627
0.060002954
0.060114051
0.060121545
0.060204042
0.059739867
0.059502671
0.059360592
0.059088735
0.058692729
0.058063191
0.057493781
0.056986654
0.056358796
0.056083643
0.055650947
0.055621409
0.05552774
0.055697961
0.055761108
0.05591521
0.055890182
0.05607321
0.05615169
0.056149064
0.05584688
0.055216481
0.054078035
0.05202119
0.049610557
0.046613547
0.043606767
0.04074818
0.040864797
0.043651427
0.046566167
0.049669447
0.052092365
0.054120815
0.055091174
0.05587144
0.056219655
0.056357036
0.056024142
0.055771887
0.055927176
0.055873226
0.055720357
0.055611774
0.055568157
0.055728052
0.056071194
0.056469549
0.057016063
0.057621971
0.057980628
0.058627295
0.059001663
0.059410367
0.059507776
0.059754078
0.060058047
0.060136998
0.060080496
0.059994119
0.059759119
0.059394305
0.058961125
0.058653916
0.05850813
0.058928788
0.059343201
0.059521744
0.059684563
0.059860823
0.06007863
0.059866991
0.059774192
0.059504546
0.059535224
0.05897732
0.058563621
0.058029407
0.057540648
0.057049673
0.056363912
0.056053371
0.055751703
0.055591279
0.055388943
0.055533401
0.055754158
0.055753947
0.055783255
0.055960701
0.056201208
0.056101416
0.055797573
0.055133385
0.054149764
0.052172176
0.049748898
0.046661968
0.043763708
0.041013958
0.041214878
0.043985658
0.047081866
0.049972928
0.052356358
0.054183897
0.05500055
0.055651171
0.05604687
0.056216214
0.056056774
0.055843899
0.055686908
0.055834838
0.055604979
0.055416064
0.055683838
0.055801532
0.055930645
0.056317499
0.057117152
0.057525577
0.057992338
0.058690005
0.059124653
0.059625579
0.059576885
0.059623158
0.059859475
0.059926127
0.060010536
0.059737956
0.059591464
0.059283877
0.058621716
0.058224638
0.058150128
0.05863977
0.059180942
0.059382163
0.059610683
0.059833851
0.0598595
0.059679167
0.059536036
0.059346939
0.059448844
0.059143535
0.058733234
0.058149934
0.057625927
0.057222266
0.05646152
0.055997627
0.055913224
0.055725125
0.055479091
0.055453964
0.055723791
0.055743429
0.055814655
0.055985454
0.056189997
0.056077514
0.055685548
0.055181551
0.054224839
0.052342469
0.050034876
0.047130555
0.044199238
0.041477127
0.041639529
0.044456123
0.047331844
0.050086323
0.052456169
0.05403843
0.055102545
0.055710947
0.056104888
0.056196313
0.055834142
0.055755488
0.055607295
0.055478299
0.055314638
0.055248983
0.05549747
0.055894286
0.055952634
0.056343709
0.057054534
0.057816819
0.058255725
0.058748412
0.059046062
0.059319689
0.059319348
0.059553809
0.05966562
0.059948742
0.059906474
0.059664796
0.059492244
0.059145717
0.058383887
0.057946984
0.057924125
0.058448312
0.059070475
0.059279
0.059443579
0.059636353
0.059884202
0.059763969
0.05950739
0.059276311
0.059200744
0.058978972
0.058602754
0.058028741
0.0576756
0.057123165
0.056330487
0.056122378
0.055966539
0.055646217
0.055246561
0.055406323
0.055424237
0.055492359
0.055567008
0.055770692
0.056179238
0.056221763
0.055856249
0.055345223
0.054048129
0.052346945
0.050145127
0.047558183
0.044777691
0.041988989
0.042552955
0.045158298
0.047932076
0.050358
0.052621909
0.054190229
0.055179665
0.055776594
0.056027873
0.056188088
0.055780204
0.055701314
0.055554529
0.055443873
0.055208269
0.055204285
0.055434181
0.055773671
0.056071999
0.056533598
0.057096054
0.057760297
0.05814683
0.058522133
0.058989296
0.059221656
0.059321234
0.059474974
0.059608083
0.05971913
0.059679928
0.05944966
0.059269719
0.05894113
0.058161754
0.057710181
0.057689273
0.058195864
0.058804703
0.059033107
0.059234153
0.059492218
0.059626412
0.059487277
0.059248069
0.059067876
0.058945856
0.058695643
0.058413432
0.05794455
0.057707763
0.057082548
0.056579839
0.056047531
0.055787108
0.055606674
0.055304981
0.055444758
0.055512054
0.055547881
0.055721373
0.056003239
0.056216246
0.056101513
0.055871627
0.055455959
0.054353937
0.052709928
0.050501657
0.048018922
0.045366265
0.042897857
0.043260261
0.04562409
0.048284743
0.051058595
0.053103878
0.054709239
0.055466563
0.055986793
0.056199452
0.056382873
0.056125825
0.055994078
0.055788923
0.055724828
0.055482035
0.055528986
0.05556544
0.055803061
0.055974793
0.056459222
0.056970809
0.057394165
0.057926925
0.058448403
0.058695028
0.059047608
0.058994756
0.059181817
0.059361003
0.059441223
0.059550729
0.059345908
0.059015676
0.058661356
0.058016995
0.057689241
0.057330004
0.057762373
0.058317694
0.058861231
0.05922271
0.059315296
0.059431088
0.059368542
0.059118346
0.05888754
0.05890309
0.058698748
0.058211037
0.057749234
0.057166661
0.056843391
0.05648483
0.056063651
0.055804428
0.055473374
0.055537064
0.055678393
0.055677132
0.055892602
0.056050108
0.055940076
0.056230468
0.056282024
0.056081896
0.055674247
0.054859762
0.053077458
0.051036208
0.048461507
0.04585861
0.043596264
0.043827863
0.046066129
0.04866909
0.051343044
0.053574191
0.055153825
0.055731047
0.056120703
0.056346565
0.056381341
0.056226201
0.056001783
0.05582682
0.055570076
0.055689151
0.055548178
0.055643186
0.05583178
0.056097069
0.056414893
0.056839407
0.057185303
0.057720725
0.058122373
0.058636685
0.058801627
0.058886533
0.059059832
0.05920629
0.05937287
0.059243633
0.059195272
0.058883252
0.058240753
0.057678427
0.057198168
0.057058599
0.057483316
0.058115179
0.058741191
0.059156505
0.059159448
0.059393086
0.059360881
0.059039234
0.058799949
0.058816726
0.058619492
0.058095098
0.057735588
0.057129524
0.056858542
0.056352001
0.055974727
0.055686606
0.055484756
0.055513143
0.055634215
0.055580473
0.05587779
0.056018883
0.05625316
0.056566631
0.056717528
0.056448633
0.056195275
0.055464067
0.0536839
0.051607511
0.049126369
0.046475019
0.044240038
0.044765008
0.046900264
0.049378727
0.052035309
0.054223048
0.055619246
0.056312657
0.056676579
0.056780764
0.056748284
0.056511004
0.056025978
0.055897505
0.055597124
0.05548791
0.055383926
0.055556852
0.055627366
0.056044755
0.056351005
0.056672889
0.057245324
0.057766949
0.058135797
0.05846627
0.058761975
0.058819679
0.059218641
0.059347073
0.059386207
0.059118541
0.05908544
0.058754586
0.05819333
0.057612441
0.057121826
0.057118355
0.057534531
0.05812586
0.058623092
0.059033973
0.059122401
0.059245615
0.059208624
0.05928985
0.05893782
0.058836612
0.058571148
0.058068299
0.057482915
0.057156865
0.056709053
0.056212312
0.055836704
0.055632356
0.055538855
0.055360096
0.055536233
0.055734413
0.056125757
0.05611946
0.056510186
0.056879171
0.056932349
0.056729387
0.056516722
0.055741833
0.054455136
0.052396691
0.049943521
0.047334735
0.045259855
0.045867882
0.047862266
0.05029941
0.052816572
0.05477635
0.055921904
0.056617611
0.05681015
0.057133761
0.05712063
0.056763561
0.056314826
0.05602875
0.055765317
0.055672249
0.055540229
0.055496282
0.055695715
0.056012161
0.056235598
0.056598942
0.057125518
0.057572146
0.057922802
0.058343836
0.058746005
0.058993004
0.059216567
0.059289049
0.059317049
0.059141234
0.058960146
0.058695434
0.058205138
0.057668081
0.05718483
0.057179016
0.057589263
0.058176272
0.058717315
0.059012317
0.059115002
0.059382122
0.059288546
0.059161782
0.059024883
0.058717276
0.058418006
0.057860591
0.057399363
0.057188487
0.056774213
0.056197701
0.055992519
0.055832909
0.055766035
0.055610907
0.055595974
0.055915565
0.056343849
0.056511267
0.056776395
0.057268241
0.057425845
0.057151946
0.056965339
0.056218875
0.055112339
0.053270073
0.050919504
0.048295368
0.046233138
0.04670958
0.048630501
0.051002204
0.053461639
0.055244216
0.056545485
0.057223941
0.057471069
0.057568966
0.057432086
0.056945375
0.056845739
0.056408326
0.056005237
0.055881278
0.055712909
0.055751831
0.055977179
0.056188819
0.056464679
0.056773324
0.057295454
0.057588058
0.058061904
0.058364702
0.058618639
0.058812595
0.05918097
0.059330695
0.059430299
0.059093732
0.059091411
0.058803709
0.058409212
0.057753274
0.057362951
0.057264642
0.057738579
0.058426714
0.058793552
0.059101932
0.059039793
0.059199508
0.059195521
0.059002042
0.058637061
0.058460314
0.058387847
0.058031009
0.057387769
0.057157527
0.056878018
0.056536838
0.056119617
0.055988157
0.055886699
0.055773846
0.055799914
0.055923735
0.05637289
0.056786918
0.056966212
0.057386142
0.057568617
0.057407852
0.057007639
0.056373488
0.055205524
0.053481293
0.051302736
0.048991934
0.047025202
0.046784178
0.048865186
0.05092733
0.053061272
0.054813609
0.056116628
0.056948583
0.057259845
0.057376574
0.057282245
0.057014204
0.056728853
0.056414473
0.056095669
0.055995993
0.055823184
0.055769885
0.055893374
0.056194447
0.056350931
0.056767043
0.057143007
0.057504767
0.057919645
0.0582712
0.058463288
0.058815182
0.059087222
0.059272192
0.059360285
0.059308293
0.059161528
0.059028554
0.058524309
0.057657026
0.057267171
0.057260813
0.057741315
0.0584953
0.059008553
0.059207009
0.059320271
0.05931354
0.05939061
0.059120319
0.05882605
0.058497833
0.058302884
0.057881857
0.057440574
0.057130359
0.05685747
0.056204723
0.056014839
0.055968617
0.055993144
0.055911391
0.056017959
0.056184437
0.056459056
0.056643578
0.056907564
0.057195673
0.0572747
0.056958495
0.056438703
0.055679075
0.054464395
0.05253435
0.050613822
0.048407855
0.046496515
0.045534187
0.047546416
0.049558246
0.05167693
0.053521285
0.054863942
0.055889383
0.056400281
0.056851202
0.057009641
0.056898391
0.056722038
0.0564761
0.056338741
0.056204499
0.055882368
0.055935026
0.055995542
0.056258118
0.056353919
0.056724538
0.0569998
0.057506462
0.057923954
0.058373636
0.058531149
0.058859829
0.059223038
0.059319176
0.059219353
0.059175519
0.059180154
0.058994402
0.05855368
0.057676578
0.057287726
0.057257541
0.057761423
0.05850447
0.058979319
0.059096062
0.059229905
0.05905048
0.059195443
0.059041776
0.058782743
0.058480291
0.058302549
0.05792974
0.057492449
0.056953757
0.056775118
0.056345746
0.056228147
0.0559868
0.055973686
0.05583145
0.056056318
0.056371598
0.056706593
0.05671469
0.056678734
0.056794692
0.056594532
0.055898668
0.055146381
0.053960596
0.052680233
0.05059914
0.048565272
0.046283125
0.04430943
0.042304549
0.044543219
0.046751823
0.049124087
0.051225577
0.05287566
0.054316908
0.055371051
0.056074947
0.056489762
0.056635099
0.056801935
0.056723981
0.056467055
0.056239574
0.056017331
0.056106344
0.056097413
0.056120286
0.056346955
0.056723349
0.056933816
0.057269937
0.057885279
0.058190764
0.058457898
0.058739399
0.058945393
0.059083026
0.058992937
0.059083142
0.058957344
0.058806116
0.058462063
0.057692224
0.057293959
0.057177342
0.05770068
0.058394259
0.058814303
0.058912651
0.059088081
0.0589825