/*--------------------------------*- C++ -*----------------------------------*\
| =========                 |                                                 |
| \\      /  F ield         | OpenFOAM: The Open Source CFD Toolbox           |
|  \\    /   O peration     | Version:  v2012                                 |
|   \\  /    A nd           | Website:  www.openfoam.com                      |
|    \\/     M anipulation  |                                                 |
\*---------------------------------------------------------------------------*/
FoamFile
{
    version     2.0;
    format      ascii;
    class       volScalarField;
    location    "300";
    object      nut;
}
// * * * * * * * * * * * * * * * * * * * * * * * * * * * * * * * * * * * * * //

dimensions      [0 2 -1 0 0 0 0];


internalField   nonuniform List<scalar> 
231880
(
0.0028088999
0.0028173358
0.0028248016
0.0028312835
0.0028367727
0.0028412635
0.002844754
0.0028472608
0.0028487758
0.0028493039
0.0028488481
0.0028474131
0.0028450058
0.0028416347
0.0028373087
0.0028320551
0.0028258718
0.0028187866
0.0028107968
0.0028019291
0.0027921798
0.0027815579
0.0027700726
0.0027577519
0.0027445984
0.0027306442
0.0027158917
0.0027003728
0.0026841063
0.0026671074
0.002649377
0.0026309324
0.0026117846
0.002591944
0.0025714253
0.0025502433
0.0025284133
0.0025059529
0.0024828802
0.0024592299
0.0024350109
0.0024102431
0.0023849438
0.0023591447
0.0023328556
0.0023061101
0.0022789164
0.0022512926
0.0022232544
0.002194818
0.0021660018
0.0021368242
0.0021073035
0.0020774588
0.002047309
0.0020168849
0.0019862096
0.0019553039
0.0019241826
0.0018928776
0.0018614435
0.0018298116
0.0017981075
0.0017661767
0.0017343084
0.0017028894
0.0016710704
0.0016388921
0.0015790704
0.0016718197
0.0018135358
0.0019593258
0.0021040019
0.0022388054
0.0023696553
0.0024851515
0.0025775153
0.0026388421
0.0026708072
0.0027037317
0.0027292189
0.002754018
0.0027963276
0.0028411324
0.0028544813
0.0028852368
0.0029064469
0.0028960209
0.0029069766
0.0028983018
0.002893222
0.0028775161
0.0028770259
0.0029002614
0.0029115412
0.0028920088
0.0028980748
0.0029059868
0.0028960005
0.0028822764
0.002871344
0.0029022132
0.0029120985
0.0029125977
0.0029117728
0.0029334117
0.0029784192
0.0030185888
0.0030536155
0.0031011682
0.003138235
0.0032074381
0.003225433
0.0032648972
0.003271001
0.0033280952
0.0033405449
0.0034035187
0.0033942301
0.003454097
0.0034258896
0.0034559995
0.0033765835
0.0033363331
0.003178675
0.0030394454
0.0027683672
0.0024812832
0.0022048759
0.0019776893
0.0019244602
0.0021536119
0.0025521103
0.0031299698
0.0036457069
0.004135448
0.0044919406
0.0048297891
0.0050616258
0.0053261031
0.0054829177
0.0057058777
0.0058246984
0.0060167731
0.0060930815
0.0062373245
0.0062553033
0.0063638832
0.0063598379
0.0064468642
0.0064120246
0.0064477672
0.0063500397
0.0062824919
0.0062634038
0.0062518496
0.0063163708
0.0063358907
0.0063113438
0.0063330374
0.0063828808
0.0064257968
0.0064628338
0.0064869221
0.0065052585
0.0065115391
0.0065212878
0.0065353823
0.0065320247
0.0065382505
0.0065465002
0.0065441662
0.0065460261
0.0065471716
0.0065468694
0.0065382235
0.0065342571
0.0065297473
0.0065353277
0.0065459161
0.0065416313
0.0065305504
0.0065195812
0.0065093741
0.0065181076
0.0065182262
0.0065088923
0.006476542
0.0064472028
0.0064054075
0.0063410775
0.0062892805
0.0062958046
0.0063664953
0.0062572714
0.0062205614
0.0062282734
0.0062370719
0.006253641
0.0062481536
0.0062430069
0.006237456
0.0062275127
0.0062252562
0.0062341187
0.006252586
0.0062577357
0.006254996
0.0062594979
0.0062593276
0.0062551438
0.0062418649
0.0062246733
0.0062024169
0.0061873001
0.0061626742
0.0061562854
0.0061439925
0.0061456078
0.0061489667
0.0061761081
0.0061990518
0.0062224693
0.006232866
0.0062328184
0.0062348983
0.0062342786
0.0062328987
0.0062303464
0.0062232041
0.0062135015
0.0062067168
0.0062004749
0.0061927507
0.0061869512
0.0061993019
0.0062151952
0.006246401
0.00626209
0.0062751062
0.0062979371
0.0063076243
0.0063285351
0.0063466007
0.0063791051
0.006395214
0.0063918036
0.0063770483
0.0063744768
0.0063770547
0.0063705388
0.0063789562
0.0063905392
0.0064081493
0.0064131466
0.006418293
0.0064236861
0.0064361725
0.0064401142
0.0064358165
0.006442531
0.0064367103
0.0064403687
0.006423682
0.0064267516
0.0064146025
0.0064262035
0.0064227448
0.0064422398
0.0064385028
0.0064419896
0.0064290173
0.0064437758
0.006443203
0.0064690319
0.0064779088
0.0065103971
0.0065215178
0.0065517384
0.0065713709
0.0066321685
0.0067185366
0.0068428821
0.0067807525
0.0068195809
0.0068033178
0.0068780275
0.0068445184
0.00689966
0.0068414926
0.00687799
0.0068056989
0.0068512119
0.0068024191
0.0068376292
0.0067638189
0.0067939126
0.0067383767
0.006787365
0.0067288404
0.0067711392
0.0067049609
0.0067331222
0.0066515882
0.0066706112
0.0065803972
0.0065790888
0.006455362
0.0064107899
0.0062320672
0.0060846358
0.0057798568
0.0054934093
0.005042253
0.004593236
0.0039859475
0.0033585131
0.0026560259
0.0020595888
0.0020419947
0.0026773217
0.003332198
0.0039681937
0.0045351937
0.0050007786
0.0054165102
0.0057341171
0.0060009658
0.0061896938
0.0063112248
0.0063947441
0.0064811591
0.006538002
0.0065848032
0.0066186596
0.0066542294
0.0066764991
0.0066879255
0.0066991277
0.0067122076
0.0067157608
0.0067088084
0.00674186
0.0067626156
0.0067770546
0.0067413349
0.006735178
0.006771431
0.0067897568
0.0068070484
0.0068038235
0.0067877661
0.0067597495
0.0067344301
0.0067324882
0.0066481489
0.0066794067
0.0067322735
0.0067445408
0.0067526774
0.0067787868
0.0067840958
0.006773049
0.0067248599
0.006703829
0.0067252812
0.006712364
0.0067025948
0.0066623444
0.0066761405
0.0066815678
0.0066690629
0.0066340934
0.006662253
0.006607127
0.0065647177
0.0065540386
0.0065338365
0.0064875108
0.0063913125
0.0062781957
0.0061873346
0.0059933814
0.0057142281
0.0054152079
0.005002118
0.0045506434
0.0039777839
0.0033436451
0.0027094977
0.0021018176
0.0022093789
0.0027685151
0.0033962121
0.0040223293
0.0045832917
0.0050232325
0.0053941133
0.0056959532
0.005955465
0.006159786
0.0062854197
0.0064286394
0.0064922351
0.0065336932
0.0065277925
0.0065354284
0.0065977254
0.0066538686
0.0066571844
0.0066728487
0.006669261
0.0066716641
0.0066667859
0.0066731057
0.0066877138
0.0067096606
0.0067064243
0.0067479937
0.006767307
0.00678464
0.0067488867
0.0067310165
0.0067367636
0.0067060913
0.0066173156
0.0065773033
0.0065677178
0.0066147946
0.0066874836
0.0067063299
0.0067219844
0.006746024
0.0067562349
0.0067353942
0.0067194954
0.0066861495
0.0066887355
0.006676968
0.0066606051
0.0066459316
0.0066614791
0.0066787478
0.006668967
0.006633362
0.0066210564
0.0065697376
0.0065115124
0.0065060956
0.0064921013
0.0064456679
0.0063870904
0.0062592686
0.006162807
0.0059764482
0.00570033
0.0054127847
0.0050257062
0.004594451
0.0040634121
0.0034449723
0.0028495764
0.0023219449
0.0024382357
0.0029374465
0.0035040398
0.0040854828
0.0045920677
0.0050280482
0.0054060258
0.0057219384
0.005968683
0.0061290235
0.0062479299
0.0063560369
0.0064612632
0.0064712178
0.0064931128
0.0065329641
0.0065708304
0.0066204122
0.0066171434
0.0066598083
0.0066711268
0.0066597357
0.006648671
0.006665371
0.0066721449
0.0066960399
0.0066782714
0.0066787527
0.0067041576
0.006708039
0.0067053852
0.0067244876
0.0067054173
0.0066778629
0.0065888673
0.0065411927
0.0065299917
0.0065835665
0.0066662709
0.0066841429
0.0067078258
0.006714118
0.0067111578
0.0067291088
0.0066740748
0.0066557097
0.0066943319
0.0066462798
0.0066399089
0.0066329724
0.0066438591
0.0066371236
0.0066318296
0.0066073541
0.0065666088
0.0065083637
0.0064937654
0.0064756979
0.0064638553
0.0064221996
0.0063407878
0.0062274324
0.0061177527
0.0059575623
0.0057265752
0.0054190723
0.0050379187
0.0046024634
0.0041115506
0.0035499628
0.003000145
0.0025320487
0.0026297394
0.0030673696
0.0035749159
0.0041098102
0.004616879
0.0050511985
0.0054023046
0.0056905393
0.0059366878
0.0060993452
0.0062026842
0.0063040292
0.0064090373
0.0064307119
0.006423593
0.006440156
0.0064750295
0.006536133
0.0065843034
0.0065831171
0.0065940187
0.0066108333
0.0065877229
0.0066129184
0.0066490312
0.0066864707
0.0066695017
0.0066939738
0.0067131976
0.0067123715
0.0066910911
0.0066748927
0.0066857044
0.006648457
0.006541058
0.0064874736
0.0064930201
0.0065547706
0.0066482636
0.0066732848
0.0066904812
0.0066985428
0.0066961847
0.0067116638
0.006681184
0.006636189
0.0066461437
0.0066220709
0.0065914108
0.0065829266
0.0065858561
0.0065814509
0.0065727482
0.0065439871
0.0065145824
0.0064646716
0.0064119681
0.0064080269
0.006379657
0.0063442122
0.0062758397
0.0061809548
0.0060606062
0.0058881878
0.0056904165
0.0054136258
0.0050658905
0.0046355227
0.0041234292
0.0036141931
0.0031353018
0.0027315979
0.0028087013
0.0031861833
0.0036349957
0.0041417587
0.0046276218
0.0050367967
0.0053840546
0.0056610182
0.0058687919
0.0060475463
0.0061095672
0.0061906921
0.0062759986
0.006340201
0.00636541
0.0064121797
0.0064424884
0.0064881414
0.0064944852
0.0065192196
0.0065433842
0.0065357632
0.0065347894
0.0065447295
0.0065996572
0.0066182878
0.0066198942
0.0066719763
0.0067118602
0.0067117437
0.0067098263
0.0067108621
0.0066880773
0.0066478122
0.0065221593
0.0064580946
0.0064726723
0.006542281
0.0066439479
0.0066698586
0.0066803141
0.0066830141
0.0066868146
0.0066719733
0.0066300808
0.0065890976
0.0065950286
0.0065744033
0.0065310713
0.0065090754
0.0064922837
0.0065013844
0.0064657614
0.0064454158
0.0063960413
0.0063625559
0.0063313187
0.00630749
0.0062740895
0.0062383749
0.0061538076
0.0060692367
0.0059957659
0.0058148284
0.0056169042
0.0053411349
0.0050225797
0.0046236895
0.0041662643
0.0036845717
0.0032296123
0.0028534321
0.002908726
0.0032651896
0.0036995118
0.0041834
0.0046094475
0.004989549
0.0052832798
0.005558161
0.0057619341
0.0059326221
0.0060112655
0.0060903403
0.0061685316
0.0062066797
0.0062467528
0.0062516548
0.0063071477
0.0063360889
0.006387492
0.0064160077
0.0064534913
0.006450402
0.0064572934
0.006483291
0.0065269541
0.0065574406
0.0065717252
0.0066335933
0.0066912957
0.0067084434
0.006681836
0.0066715281
0.0066791114
0.0066335611
0.006512152
0.0064464872
0.0064709727
0.0065361951
0.0066278642
0.0066579614
0.0066735475
0.0066879578
0.0066888074
0.006675596
0.0066353624
0.0065659363
0.0065415464
0.006519109
0.0064577906
0.0064256955
0.0063970263
0.0063936708
0.0063564497
0.0063334958
0.0062640788
0.0062335119
0.0061999751
0.0061893348
0.0061492761
0.0061144849
0.0060186407
0.0059301867
0.0058345371
0.0057023449
0.0055033345
0.0052591135
0.0049612069
0.0045887054
0.0041810218
0.0037317449
0.0032949113
0.0029408418
0.0029704493
0.0033249116
0.0037372242
0.0041872166
0.0045828474
0.0049418107
0.0052062569
0.0054590742
0.0056334123
0.0057660322
0.0058653655
0.0059568733
0.0060051493
0.0060454166
0.006077237
0.0061199672
0.0061548441
0.006208177
0.0062548119
0.0063067145
0.0063293679
0.0063666076
0.0063734817
0.006454136
0.0065120088
0.0065448352
0.0065519897
0.0065971241
0.0066391759
0.0066560488
0.0066675718
0.0066555185
0.0066469985
0.0066001462
0.006503851
0.0064559812
0.0064769137
0.0064987788
0.0065782043
0.0066457145
0.0066641073
0.0066846605
0.0066623935
0.0066564001
0.0066066411
0.0065586797
0.0065177437
0.0064726088
0.0064192465
0.0063609948
0.0063149089
0.0062681878
0.0062031136
0.0061605665
0.0061138591
0.0060778983
0.0060317606
0.0059782903
0.0059248515
0.0058977208
0.0058186572
0.0057523657
0.0056336071
0.0055232068
0.0053721626
0.0051521773
0.0048812249
0.0045591967
0.004170579
0.0037197562
0.0033364498
0.0029852087
0.0030005525
0.0033393408
0.0037240485
0.0041430957
0.0045148965
0.0048388738
0.0051089669
0.0052933048
0.0054526334
0.005561662
0.0056714696
0.0057247214
0.00581642
0.0058496881
0.0059068973
0.0059547203
0.0059852525
0.0060058658
0.0060513045
0.0061048881
0.0061897166
0.0062550091
0.0062896903
0.0063618669
0.0064435866
0.0065091886
0.0065570416
0.0066046047
0.0066377547
0.0066432227
0.0066650627
0.0066266109
0.0066044332
0.0065568608
0.0064740353
0.0064350255
0.0064578196
0.0064787299
0.0065588847
0.006624155
0.006621005
0.0066647599
0.006663498
0.0066562371
0.0065834207
0.0065341002
0.0065093914
0.0064668965
0.0063616221
0.0062960572
0.0062104848
0.0061336673
0.0060322886
0.0059790814
0.0059279134
0.0059211154
0.0058904427
0.0058445545
0.0057814001
0.0057495324
0.0056658404
0.0055876678
0.0055070323
0.005409088
0.0052567498
0.0050722876
0.0048140494
0.0045062088
0.0041414707
0.0037419079
0.0033714464
0.0030399496
0.0030524951
0.0033814017
0.0037671466
0.0041388094
0.0044687875
0.0047806286
0.0050302209
0.0052326184
0.005388267
0.0054899582
0.0055501769
0.0056293585
0.0056860952
0.0057248594
0.0057847511
0.0058062329
0.0058515444
0.0058645907
0.0059187003
0.0059900386
0.0060659541
0.0061522082
0.0062488276
0.0063520831
0.006457431
0.0065056269
0.0065363785
0.0065738113
0.0066149599
0.0066377546
0.0066585945
0.0066264377
0.0066277063
0.0065597
0.0064675223
0.0064264477
0.0064592261
0.0064810577
0.0065569388
0.0066224438
0.0066128743
0.0066649937
0.0066596976
0.006645641
0.006584976
0.0065395047
0.0065100512
0.0064578245
0.0063374251
0.0062399279
0.0061155766
0.006061531
0.0059619489
0.0058927313
0.0058320557
0.0058216577
0.0057571017
0.0057123866
0.0056790606
0.0056597118
0.0055799687
0.0054969186
0.0054291374
0.0053348981
0.0051915819
0.0049844398
0.0047570743
0.0044704309
0.0041301229
0.0037656476
0.0033792707
0.0030603937
0.0030928601
0.003406452
0.0037605335
0.0041137255
0.0044395036
0.0047179231
0.0049418395
0.0051559259
0.0053148866
0.0053959863
0.0054712818
0.0055422704
0.0056061095
0.0056432583
0.0056954124
0.0057359947
0.0057846654
0.0058063471
0.0058606186
0.0059444651
0.0060327967
0.0061021339
0.0062010383
0.0062955537
0.0064352264
0.0064979154
0.0065595743
0.0066041152
0.0066392787
0.0066378888
0.0066359841
0.0066104976
0.0066311778
0.0065609116
0.0064775583
0.0064366636
0.0064754874
0.0065015275
0.0065867603
0.0066545871
0.0066360661
0.0066680267
0.0066740824
0.0066641353
0.006596248
0.0065465912
0.0064948472
0.0064180369
0.006288097
0.0062197728
0.0061185088
0.0060463264
0.0059352685
0.0058740799
0.0057741143
0.0057402822
0.0057077197
0.0056745369
0.0056246465
0.0055910691
0.0055129014
0.0054386346
0.0053608875
0.0052645918
0.005121926
0.0049381024
0.0047027804
0.0044318779
0.0040950242
0.0037424571
0.003411224
0.0030958931
0.0031101315
0.0034207575
0.0037531478
0.0041115564
0.0044146477
0.0047047915
0.0049151793
0.005097468
0.0052464188
0.0053554784
0.0054166716
0.0054823228
0.0055340972
0.0055944767
0.0056202942
0.0056725945
0.0057017619
0.0057651065
0.0058552939
0.0059608895
0.006028073
0.0061112307
0.0061818221
0.0063019725
0.0064049672
0.0064995463
0.0065642654
0.0066135301
0.0066801157
0.0066813299
0.0066861786
0.0066859541
0.0066777896
0.0066254267
0.0065198335
0.0064636405
0.006467765
0.0065151418
0.0066097691
0.0066692686
0.0067008177
0.0067087992
0.0066776681
0.0066868728
0.0066447245
0.0065543303
0.0064803006
0.0064051672
0.0063061199
0.0062059948
0.0060860484
0.0060070207
0.0059335037
0.0058271206
0.0057650786
0.005706976
0.0056458082
0.0056085729
0.0055675294
0.0055276264
0.005455963
0.0053956426
0.0053234884
0.0052288201
0.005087307
0.0049189945
0.0047144295
0.0044431388
0.0041250763
0.0037582875
0.0034238544
0.0031002094
0.0031033165
0.0034210855
0.0037618518
0.0041042547
0.0044258209
0.0047049361
0.0049052578
0.0050855854
0.0052183393
0.0053078316
0.0053758649
0.0054326699
0.0055022455
0.0055479929
0.0055807638
0.0056017838
0.0056724906
0.0057307849
0.0058102279
0.0059277839
0.0060055953
0.0060612649
0.0061697037
0.0062714709
0.0063831236
0.0064804455
0.0065515425
0.0066534139
0.0066869051
0.0066819582
0.0066812961
0.006689119
0.0066695389
0.0066184215
0.0065337297
0.0064606943
0.0064651065
0.0065264949
0.0066215916
0.006680344
0.0066837708
0.0066887681
0.0066679638
0.0066712727
0.0066286034
0.0065572626
0.0064801676
0.0064052469
0.0062626004
0.006180535
0.0060447819
0.0059679947
0.0058895436
0.0058005555
0.0057299552
0.0056585306
0.0055999495
0.0055508009
0.0055009997
0.0054559901
0.0054099878
0.0053627034
0.0052936018
0.0052120787
0.0050825302
0.0049232743
0.0047244952
0.0044527954
0.0041033929
0.0037443056
0.0034146193
0.0031028626
0.0031004442
0.0034145252
0.0037442999
0.0041007806
0.0044387917
0.0047120273
0.0049062987
0.0050764109
0.005201122
0.0052833269
0.0053464923
0.0053932136
0.0054614072
0.0054757383
0.0055143463
0.0055737329
0.0056370413
0.0057254496
0.0058000272
0.0058933051
0.0059827366
0.0060748704
0.0061828288
0.0062759304
0.0064208418
0.0064832178
0.0065599894
0.0066235264
0.0066488118
0.0066746655
0.0066801688
0.0066680221
0.0066753626
0.0066279173
0.0065517205
0.0064743347
0.0064488037
0.0065279285
0.0066310716
0.0066839949
0.0066592028
0.0066429595
0.0066587151
0.0066374127
0.0066020483
0.0065430689
0.0064834462
0.006416705
0.0062851413
0.0061896812
0.0060736045
0.0059563415
0.0058840367
0.0057810718
0.0057190742
0.0056543604
0.005570026
0.0055399268
0.005491302
0.0054434491
0.0053865868
0.0053324238
0.0052827719
0.0052035418
0.0050773041
0.0049227581
0.0047258755
0.0044669811
0.0041038692
0.0037399701
0.003414645
0.0031070552
0.003113671
0.0034210951
0.0037499603
0.004109337
0.0044511953
0.0047215433
0.0049011683
0.005058208
0.0051951275
0.0052908795
0.0053458416
0.0054094856
0.0054653074
0.0054977861
0.0055168035
0.0055545462
0.0056223503
0.0056983311
0.0057652668
0.0058702601
0.0059776854
0.0061129644
0.0061895822
0.0062759069
0.0063794326
0.0064761577
0.0065236939
0.0066023069
0.0066259849
0.0066469311
0.0066669804
0.0066676716
0.0066678757
0.0066265801
0.0065376747
0.0064547565
0.0064424896
0.0065187309
0.006610164
0.0066419168
0.0066249398
0.006623952
0.006627343
0.0065931344
0.0065516784
0.0064964843
0.0064716497
0.0064041494
0.0062768088
0.0061568064
0.00610551
0.00597922
0.0058786183
0.0057608231
0.0056959928
0.0056358939
0.0055613611
0.0055395792
0.0054928367
0.0054442083
0.0053930624
0.0053619293
0.0052970481
0.0051917808
0.0050645427
0.0049100106
0.0047129822
0.004452128
0.0041159151
0.003758001
0.003421408
0.0031101473
0.0031080741
0.0034196417
0.0037548282
0.0041076507
0.0044386202
0.004711466
0.0049183708
0.0050884982
0.0052095087
0.005311966
0.0053613632
0.0053871367
0.005445829
0.0054840434
0.0055267696
0.0055803204
0.0056409376
0.0057097354
0.0057735589
0.0058732569
0.0059795759
0.0060936546
0.0061760154
0.0063050981
0.0064012754
0.0064436967
0.0064691138
0.0065379915
0.0066005499
0.0066305191
0.0066364776
0.0066051906
0.0066303334
0.0066073403
0.0065153117
0.006450498
0.0064118492
0.0064772426
0.0065689811
0.0066032737
0.0065846605
0.0065994255
0.0066034543
0.0065778049
0.0065354394
0.0064656654
0.006436827
0.0063918883
0.0062732271
0.006150338
0.0060527061
0.0059387968
0.0058335915
0.0057370139
0.0056744045
0.0056184834
0.0055563325
0.0055257425
0.0054604886
0.0054302806
0.0053743358
0.0053336625
0.0052666905
0.0051936997
0.0050680301
0.004913385
0.0047030682
0.0044491006
0.0041145242
0.0037601831
0.0034092997
0.0030962147
0.0030644093
0.0033866295
0.0037417446
0.0041035395
0.004439767
0.0046995826
0.0049075204
0.005043575
0.0051710243
0.0052713607
0.0053340214
0.0053812472
0.0054289204
0.0054638894
0.005522426
0.0055513655
0.0056253435
0.0056681041
0.0057399444
0.005825831
0.0059447585
0.0060496491
0.0061776001
0.0062812168
0.0063619332
0.0064510199
0.0064940978
0.0065398963
0.0065722572
0.0066109012
0.0065949381
0.006599126
0.0066094681
0.0065558041
0.0064554908
0.0064001162
0.0063871434
0.0064477575
0.0065395511
0.0065985628
0.0065947219
0.0065999113
0.0065901802
0.0065751408
0.0065252121
0.0064921937
0.006445175
0.0063675825
0.0062641134
0.0061347873
0.0060488397
0.005921383
0.0058014974
0.0057043366
0.00564856
0.0056052631
0.0055574122
0.0055254864
0.0054584751
0.0054070209
0.0053682578
0.0053129334
0.0052759869
0.0051926214
0.0050546323
0.0049062187
0.004691148
0.0044264473
0.0041166828
0.0037651264
0.0033785267
0.003055093
0.0030587866
0.0033902494
0.0037743827
0.0041366355
0.0044456539
0.004710103
0.004919207
0.0050749256
0.0051980566
0.0052813034
0.0053213072
0.0053731387
0.0054235634
0.0054667315
0.0055056234
0.005545576
0.0055945173
0.0056446094
0.0057200426
0.0057903673
0.0059254935
0.0060332669
0.006144753
0.0062661375
0.0063746212
0.0064567732
0.0064919757
0.0065460832
0.0066012792
0.0065855992
0.0065857602
0.0066107046
0.0066108089
0.0065479786
0.0064479201
0.0064021537
0.006395399
0.0064575013
0.0065282942
0.0065792455
0.0066178521
0.0066128567
0.0065983756
0.0066029352
0.0065412926
0.0064816174
0.0064465699
0.0063794715
0.0062556594
0.0061288672
0.0060256631
0.0059142126
0.0057899149
0.0057183122
0.005625171
0.0055872825
0.0055316249
0.0054982195
0.0054477467
0.0054037412
0.0053622668
0.0053113161
0.0052532798
0.0051713893
0.0050614705
0.0049059373
0.004691567
0.0044326652
0.0041232682
0.0037562236
0.0033802101
0.0030825244
0.0030983363
0.0034019255
0.0037432531
0.004098476
0.0044311651
0.004702469
0.0048900509
0.0050494883
0.0051771293
0.0052502284
0.005320121
0.005364501
0.005430896
0.0054635848
0.0054884344
0.0055270638
0.0055782639
0.0056170154
0.0056927648
0.0057865835
0.0059055203
0.0060262112
0.0061615812
0.0062746003
0.0063719787
0.0064465845
0.0064808705
0.0065305646
0.0066029966
0.0066031482
0.0065860725
0.0065845662
0.0065782541
0.0065269398
0.0064431532
0.0063928114
0.0064178953
0.0064775086
0.0065318592
0.0065776461
0.0066155298
0.0066232154
0.006612435
0.0066120089
0.0065215052
0.006468738
0.006426086
0.0063558575
0.0062660206
0.0061366794
0.0060177641
0.0059077279
0.0057829655
0.0057093395
0.005614864
0.00557297
0.0055207962
0.0054979232
0.0054570616
0.0054220575
0.0053587913
0.0053129304
0.0052490175
0.0051698004
0.0050536472
0.0049012344
0.0046989904
0.004411285
0.0040996273
0.0037463236
0.0034094517
0.0031098746
0.0031257767
0.0034184416
0.0037461051
0.0041083322
0.0044205435
0.0047051729
0.0048904904
0.0050584608
0.0051800971
0.0052746542
0.0053104613
0.0053481752
0.0054265531
0.0054735513
0.005503313
0.0055340819
0.0055689984
0.0056279178
0.0057097728
0.0058005527
0.0059139706
0.0060384164
0.0061260623
0.0062572639
0.0063458473
0.0064364431
0.0064741345
0.0065286309
0.0065913613
0.0066175984
0.0066198392
0.006615462
0.0065892392
0.0065394054
0.0064785005
0.0064332487
0.0064117358
0.0064757572
0.0065340144
0.0065534488
0.0065680062
0.0065868506
0.0066107419
0.0065643943
0.0065349253
0.0064728029
0.0064583654
0.006345363
0.0062497523
0.0061356843
0.006028402
0.0059221889
0.0057887677
0.0057095906
0.0056332903
0.0055744804
0.0055085682
0.0054825336
0.0054620689
0.0054090743
0.005352479
0.0053060727
0.0052601903
0.0051699284
0.0050530494
0.0048967296
0.0047097904
0.0044302645
0.0041181457
0.0037577941
0.0034317472
0.0031423712
0.0031613884
0.0034530226
0.0037975685
0.0041406146
0.0044492813
0.0047148832
0.0048852403
0.0050400697
0.005166748
0.005264719
0.0053199065
0.0053621262
0.0054034452
0.0054745722
0.0054942897
0.005514764
0.0055892155
0.0056421729
0.0056954142
0.0057843897
0.0059345447
0.0060290974
0.0061321243
0.0062713768
0.0063709917
0.006475551
0.0064876876
0.0065119423
0.0065656796
0.006589443
0.0066149409
0.0065811284
0.0065676331
0.0065268519
0.00642616
0.0063658793
0.0063567789
0.0064316469
0.0065114163
0.0065352678
0.006562253
0.006588606
0.0065806143
0.0065386732
0.0065007622
0.0064518809
0.0064481353
0.0063749888
0.0062802445
0.0061587375
0.0060457783
0.0059513378
0.0058060878
0.0057060262
0.0056585303
0.0055967049
0.0055247335
0.00547797
0.0054634632
0.0054125049
0.0053610697
0.0053141796
0.0052643472
0.0051724411
0.0050458831
0.0049056221
0.0047204046
0.0044488767
0.0041468751
0.003802046
0.0034720058
0.0031842815
0.003197508
0.0034940228
0.0038196259
0.0041515298
0.0044605073
0.0047031902
0.0048995143
0.0050508236
0.0051780799
0.0052675904
0.0052994884
0.0053564998
0.0053984605
0.0054362727
0.0054632489
0.0054978721
0.0055693841
0.0056586781
0.0057022658
0.005792078
0.0059290814
0.0060753405
0.0061763752
0.0062876306
0.0063630016
0.0064322546
0.0064503586
0.0065077841
0.0065386777
0.0065983609
0.006603825
0.0065749489
0.0065565028
0.0065086126
0.0063925825
0.006326855
0.0063281654
0.0064082629
0.0065005985
0.0065250912
0.0065414443
0.0065616483
0.0065901887
0.0065572358
0.0065007673
0.0064452968
0.0064141003
0.0063533996
0.0062673197
0.006144953
0.006055639
0.0059402267
0.0057912989
0.0057263012
0.0056693753
0.0055901521
0.0054991659
0.0054760793
0.0054315958
0.0053871409
0.0053367637
0.0052944123
0.0052677796
0.0051927592
0.0050682155
0.0049263005
0.0047053799
0.0044502215
0.0041566488
0.0038396713
0.0035215917
0.0032265594
0.0032744622
0.003554069
0.0038728735
0.0041763004
0.0044773599
0.0047204197
0.0049103337
0.0050613047
0.0051734738
0.0052704831
0.0052971687
0.0053538582
0.0053958855
0.0054353788
0.0054527955
0.0054948525
0.0055634213
0.0056453586
0.0057210772
0.0058204097
0.0059375424
0.0060709555
0.0061654
0.0062575062
0.0063591712
0.0064218992
0.0064564989
0.006499117
0.0065364448
0.0065674457
0.0065723087
0.0065460697
0.0065270668
0.0064833508
0.0063646784
0.0062963155
0.00629658
0.0063736719
0.0064644543
0.0064922386
0.0065130701
0.0065443893
0.0065540356
0.0065175937
0.0064641288
0.0064186746
0.0063783378
0.0063140191
0.0062422238
0.0061365448
0.0060651142
0.0059365901
0.0058286159
0.0057190377
0.0056480047
0.005586516
0.0055080736
0.005482671
0.0054442667
0.0053961413
0.0053571945
0.0053232376
0.0052745624
0.0051822746
0.0050721201
0.0049394247
0.0047370483
0.0044860346
0.0041894576
0.0038798566
0.0035709638
0.0033026638
0.0033326978
0.0035922898
0.003902895
0.0042414476
0.0045235981
0.0047720221
0.0049400603
0.0050839253
0.0051926064
0.0052927455
0.0053371001
0.005388525
0.0054241757
0.0054691984
0.0054866997
0.005536098
0.0055809423
0.005650083
0.0057088456
0.0058121854
0.0059215664
0.0060194204
0.0061339447
0.006247256
0.0063140024
0.0063962884
0.006410238
0.0064571428
0.0065021665
0.0065277669
0.0065570857
0.0065344566
0.0064917017
0.0064426491
0.0063454278
0.0062990708
0.0062444624
0.0063073198
0.006388714
0.0064673546
0.0065161203
0.0065203854
0.0065291271
0.0065041512
0.006449186
0.0063940902
0.0063780725
0.0063195376
0.0062133835
0.0061089157
0.0059882029
0.0059046362
0.0058166938
0.0057213851
0.0056505613
0.005568831
0.0055363532
0.0055098778
0.0054617993
0.0054344756
0.0053932246
0.005313972
0.0052735324
0.0051992198
0.0050918526
0.0049593847
0.0047851762
0.0045192197
0.004237569
0.0039173022
0.0036112483
0.0033601264
0.0033776868
0.003626846
0.0039333777
0.0042633479
0.0045639862
0.0048104421
0.0049608101
0.0050914139
0.0052013142
0.0052853985
0.0053416728
0.0053832299
0.0054226672
0.00544534
0.0055083525
0.0055354714
0.0055889448
0.0056533147
0.0057258866
0.0058081859
0.0059059513
0.0059931721
0.0061081301
0.0062026989
0.0063128066
0.006365775
0.0063985619
0.0064432622
0.0064823042
0.0065246049
0.0065139684
0.0065158107
0.00647551
0.0063815234
0.0062982575
0.0062277078
0.0062072667
0.0062699337
0.0063637072
0.0064539174
0.0065115571
0.0065027814
0.0065303124
0.0065104714
0.0064415417
0.0063859954
0.006369613
0.0063108136
0.0061994711
0.0061109622
0.0059849158
0.0059082701
0.0057994886
0.0057089146
0.0056325167
0.0055661055
0.0055277342
0.0054971095
0.0054408759
0.005421315
0.0053769544
0.0053357486
0.0052964853
0.0052320952
0.0051171937
0.0050002743
0.0048340926
0.0045678216
0.0042819742
0.0039696315
0.0036585139
0.0034096026
0.0034491209
0.0036889142
0.0039839606
0.0043122348
0.0046084318
0.004836833
0.0049985634
0.005126709
0.0052240202
0.0053019192
0.005350789
0.0053649976
0.0054125124
0.0054338274
0.005471808
0.0055057878
0.0055714689
0.0056217169
0.0057164277
0.0057982556
0.0058816355
0.0060033704
0.0061165534
0.0062072212
0.0062891714
0.0063627712
0.0063912797
0.0064729994
0.0065095178
0.0065308524
0.0064984854
0.0065033655
0.0064603287
0.0063805334
0.0062927709
0.0062202763
0.0062229783
0.0062842903
0.0063708041
0.0064410291
0.0064974653
0.0065009039
0.0065102688
0.006489896
0.0064861773
0.0064127237
0.0063765941
0.0063076655
0.0061982881
0.006074069
0.0059901508
0.0058853313
0.0057765207
0.0056857327
0.0056181342
0.005563071
0.0054947055
0.005466622
0.0054367368
0.0054232455
0.0053569969
0.0053296779
0.0052938232
0.0052175111
0.0051101211
0.0049979468
0.004829142
0.004613055
0.0043304368
0.0040218752
0.0037158606
0.0034821962
0.003520708
0.0037460231
0.0040346168
0.0043464764
0.0046172257
0.0048175789
0.0049767461
0.0050858878
0.0052058722
0.005287774
0.0053279468
0.0053523658
0.0053889471
0.0054218904
0.0054688799
0.0055063203
0.0055494013
0.0056207946
0.0057054582
0.0057778086
0.0058688827
0.0059858701
0.0060894067
0.0061782604
0.0062741126
0.0063644402
0.0064245621
0.0064770738
0.0065056634
0.0065247387
0.0065066949
0.0064895293
0.006457617
0.0063867924
0.0063062834
0.0062343625
0.0062362282
0.0062971107
0.0063828208
0.0064600661
0.0065012656
0.0065068874
0.0065362386
0.0065053155
0.0064704379
0.0064319939
0.0063599478
0.0062849717
0.0061680817
0.0060630341
0.0059954978
0.0058932327
0.0057690538
0.0056976926
0.005630673
0.0055728268
0.0055002323
0.0054399322
0.0054145959
0.0053944704
0.0053383929
0.0052884378
0.0052587534
0.0051898994
0.0050744147
0.0049665
0.004804969
0.0046118142
0.0043559175
0.004062976
0.0037609565
0.003531905
0.0035461414
0.0037594409
0.0040336833
0.0043296467
0.0045737147
0.0047796475
0.0049310825
0.0050434085
0.0051419365
0.0052162505
0.0052528331
0.0053280635
0.0053619073
0.0053930408
0.0054497351
0.0054939134
0.0055573271
0.0056398721
0.0057169169
0.0058008434
0.0058892857
0.0060086814
0.0060919142
0.0061993322
0.0062785385
0.006345382
0.0063988303
0.0064742747
0.0065142265
0.0065458414
0.0065037423
0.0065123552
0.0064762733
0.0064233611
0.0063237412
0.0062655502
0.0062547023
0.0063265552
0.0064296618
0.006478818
0.0065176416
0.006497427
0.0065122628
0.0064970939
0.0064478062
0.006371327
0.0063222813
0.0062850069
0.0061945922
0.0060608885
0.0059865419
0.0059017911
0.0058063471
0.005700454
0.0056304455
0.0055585931
0.0054792389
0.0054101336
0.0053449944
0.0053091522
0.0052627248
0.0051869458
0.005135293
0.0050605596
0.0049547766
0.0048303825
0.004688911
0.0045035758
0.0042740745
0.0040120115