/*--------------------------------*- C++ -*----------------------------------*\
| =========                 |                                                 |
| \\      /  F ield         | OpenFOAM: The Open Source CFD Toolbox           |
|  \\    /   O peration     | Version:  v2012                                 |
|   \\  /    A nd           | Website:  www.openfoam.com                      |
|    \\/     M anipulation  |                                                 |
\*---------------------------------------------------------------------------*/
FoamFile
{
    version     2.0;
    format      ascii;
    class       volScalarField;
    location    "300";
    object      k;
}
// * * * * * * * * * * * * * * * * * * * * * * * * * * * * * * * * * * * * * //

dimensions      [0 2 -2 0 0 0 0];


internalField   nonuniform List<scalar> 
121349
(
0.16115545
0.15955871
0.1579793
0.15641725
0.15487051
0.15333914
0.15182111
0.15031654
0.14882348
0.1473412
0.14586894
0.14440594
0.14295157
0.14150628
0.14006842
0.13863847
0.1372147
0.13579753
0.13438528
0.13297844
0.13157551
0.13017711
0.12878172
0.12738906
0.12599867
0.12461026
0.12322373
0.12184007
0.12045806
0.11907872
0.11770075
0.11632511
0.11495053
0.11357702
0.11220446
0.11083388
0.10946424
0.1080958
0.10672862
0.10536274
0.10399831
0.10263643
0.10127592
0.099917929
0.098561114
0.097210735
0.095863745
0.094540862
0.093230209
0.091969996
0.090733881
0.089621985
0.089362451
0.089954276
0.091121429
0.092405373
0.093598546
0.095223075
0.096453545
0.097427439
0.098634204
0.09976362
0.10107768
0.10221334
0.1029733
0.1039823
0.10477351
0.10529963
0.10602461
0.10647275
0.10711095
0.10750168
0.10789987
0.10773849
0.10780289
0.10800054
0.10780092
0.10794938
0.10813974
0.10824413
0.10818599
0.1084305
0.10857951
0.10893771
0.10927321
0.10952706
0.10983293
0.11078265
0.11140846
0.11188988
0.11252622
0.11302957
0.11354329
0.11391409
0.11320896
0.11257067
0.11063703
0.10881927
0.105722
0.10310042
0.10105434
0.10083165
0.10377683
0.1089497
0.11643731
0.12287004
0.1280075
0.13071447
0.13217823
0.13196421
0.13133149
0.13001403
0.12888843
0.12749176
0.12652802
0.12529564
0.12447173
0.12338484
0.12253282
0.1213138
0.12054302
0.12016187
0.12048817
0.12029132
0.12031994
0.12048006
0.12073404
0.12092018
0.12104529
0.12103893
0.12104667
0.12101409
0.12095114
0.1208952
0.12081955
0.12078867
0.12072447
0.12062738
0.12055577
0.12041765
0.12029193
0.12021106
0.12012237
0.1199608
0.11977755
0.11959871
0.11924968
0.11893098
0.11848474
0.11819143
0.1181271
0.1184124
0.11797459
0.11807007
0.11851516
0.11907814
0.11960127
0.120071
0.12044618
0.12073544
0.1209545
0.12111157
0.12123469
0.12127682
0.12130597
0.12134756
0.1213972
0.12143488
0.12147583
0.12152332
0.12154752
0.12160367
0.12172518
0.1217545
0.12187385
0.12193793
0.12202257
0.12215099
0.12223098
0.12227144
0.12231805
0.12239634
0.12244327
0.12247667
0.12256662
0.12266548
0.12271515
0.1227579
0.12286895
0.12294995
0.12308559
0.1231572
0.1232806
0.12339424
0.12352534
0.12367219
0.12380903
0.12394766
0.12402454
0.12406601
0.12415098
0.12421222
0.12431181
0.12434047
0.12439239
0.12447732
0.12458093
0.12466548
0.12473999
0.12481888
0.12483954
0.12492286
0.12503625
0.12502448
0.12504602
0.12491637
0.12476913
0.12454822
0.12427177
0.12397154
0.12385157
0.12392562
0.1243898
0.12402635
0.12420649
0.12442683
0.1250117
0.12530755
0.1257761
0.12597713
0.12638675
0.12659419
0.12705068
0.12735431
0.12801305
0.12852196
0.12922385
0.12972288
0.13052102
0.13098819
0.13158381
0.13166523
0.13165402
0.1307358
0.12920815
0.12612772
0.12166795
0.11519207
0.10722401
0.099448101
0.092716129
0.093086811
0.099789712
0.10759453
0.11527635
0.12136093
0.12600554
0.1288597
0.13068296
0.13137492
0.13159974
0.13129485
0.13089377
0.13023515
0.12961838
0.1289515
0.12847622
0.12775237
0.12725391
0.12677806
0.12652442
0.12612735
0.12588361
0.12548715
0.12519392
0.12471952
0.12428825
0.12389749
0.12383324
0.12387083
0.12405745
0.12447663
0.1249662
0.12537558
0.125722
0.12610489
0.12641122
0.12679078
0.1270538
0.12750308
0.12806517
0.12875273
0.12927751
0.1299241
0.13058719
0.13118636
0.13164674
0.1319168
0.13173402
0.13097931
0.1291024
0.1261918
0.12166401
0.11562022
0.10823646
0.10044966
0.093768747
0.094889035
0.10140575
0.10896011
0.11613411
0.12196788
0.12641942
0.12932926
0.13127227
0.13194945
0.13224062
0.13190144
0.1315257
0.13084803
0.13025013
0.12968775
0.12903148
0.12832795
0.12776124
0.12731315
0.12705702
0.12657297
0.12628999
0.12585686
0.12556502
0.12512621
0.12468682
0.12427688
0.12397537
0.12423971
0.12449267
0.12501424
0.12542442
0.12584894
0.12619115
0.12660461
0.12700052
0.12738666
0.12775218
0.12816197
0.12882664
0.1294976
0.13014896
0.13078345
0.13136917
0.1320568
0.13243557
0.13276494
0.13245633
0.13161128
0.12977279
0.12696625
0.12254254
0.1167285
0.10981892
0.10254531
0.096190269
0.097204528
0.10353428
0.11061059
0.11726244
0.1230419
0.12737908
0.13026178
0.13197529
0.13293596
0.13321798
0.13293168
0.13248093
0.1317798
0.13118631
0.13049358
0.12985747
0.12919606
0.12851864
0.12811004
0.12775696
0.12736765
0.12703751
0.12654731
0.1262099
0.12576108
0.1252941
0.12473804
0.12455945
0.12475592
0.12500352
0.12549217
0.12592112
0.12637176
0.12683748
0.12724094
0.12750499
0.12797166
0.12833052
0.12881633
0.1293745
0.1301208
0.13085258
0.1314634
0.13205141
0.13260513
0.13309286
0.13350985
0.1332171
0.13230736
0.13053549
0.12758816
0.12342853
0.11784241
0.11109458
0.10437802
0.098457384
0.099557909
0.10518476
0.11171394
0.11827003
0.12370286
0.12790996
0.13062871
0.13247663
0.13327994
0.13355131
0.13312088
0.13266919
0.13223271
0.131556
0.13092148
0.13022218
0.12943524
0.12883687
0.12833741
0.12801539
0.12760098
0.12734876
0.12679936
0.12636417
0.12589542
0.12554109
0.12509077
0.12487368
0.12508852
0.12530531
0.12571146
0.12613482
0.12659522
0.12697409
0.12738856
0.12763417
0.1280263
0.12836856
0.12895509
0.12951887
0.13017992
0.13076527
0.13160386
0.13225137
0.1327621
0.13321428
0.13351823
0.13329101
0.1325475
0.13073598
0.1281351
0.12392885
0.11866618
0.11235861
0.10590975
0.10061892
0.1016474
0.1066648
0.11272043
0.11889964
0.12409489
0.12819995
0.13073423
0.13249718
0.13318878
0.13343371
0.13307726
0.13262994
0.13220012
0.13158019
0.13068632
0.13000014
0.1293923
0.12882484
0.12832824
0.12795193
0.1276355
0.12734283
0.12699832
0.12658709
0.12620398
0.12568438
0.12531067
0.12502292
0.12509963
0.12537493
0.12579652
0.12627953
0.12669517
0.12692611
0.12737699
0.12759626
0.12802105
0.12829656
0.12887823
0.12933733
0.13002186
0.13056169
0.13141462
0.13208309
0.13265134
0.1330201
0.13327894
0.1331546
0.13243457
0.13073212
0.12815007
0.12415028
0.11904188
0.11314501
0.10729776
0.10245222
0.10342564
0.10790622
0.11350996
0.11910045
0.1240198
0.12801401
0.13060245
0.13229781
0.13293521
0.13301669
0.13275515
0.13239829
0.13189014
0.13127895
0.13046849
0.12992149
0.12927513
0.12880518
0.12825229
0.12792562
0.12750044
0.12726311
0.12684014
0.12658533
0.12611063
0.12567165
0.12521797
0.12489666
0.12477569
0.12503368
0.12557211
0.12607357
0.12643419
0.12678967
0.12722292
0.12748436
0.12785389
0.12825846
0.12879182
0.12928631
0.1298663
0.13041485
0.13107768
0.13167756
0.13208431
0.13251096
0.13289445
0.13284032
0.13211633
0.13048787
0.12787568
0.1240943
0.11916669
0.11374828
0.10860841
0.10436612
0.10512726
0.10908083
0.11372652
0.11907417
0.12398379
0.12771507
0.13028389
0.13194138
0.13258125
0.13276029
0.13230157
0.13194785
0.13156299
0.13092356
0.13024162
0.1296321
0.12914419
0.12861256
0.12815929
0.12764445
0.1273314
0.12713162
0.12663304
0.1262578
0.1259652
0.12554874
0.12500564
0.12482651
0.1247355
0.12499868
0.12548636
0.12587339
0.12628348
0.12662071
0.12699125
0.12721942
0.12763903
0.1280915
0.12855695
0.12906478
0.12966059
0.13008584
0.13086523
0.13142451
0.13200062
0.13221811
0.13241216
0.13219033
0.13146383
0.12987779
0.1275069
0.12375726
0.1190415
0.11402538
0.10945019
0.10584094
0.1065404
0.10996041
0.11417893
0.11896063
0.12350716
0.12707403
0.12933936
0.13102118
0.1317345
0.13195504
0.13186252
0.13173898
0.1311204
0.1306635
0.12986242
0.12940973
0.12879998
0.12840975
0.12811131
0.12764535
0.12726619
0.1269358
0.12653431
0.12608617
0.12567779
0.12533197
0.12486996
0.12462505
0.12457856
0.12483854
0.12525747
0.12564475
0.1260723
0.1264527
0.12684616
0.12712859
0.12761806
0.12812421
0.12846488
0.12881554
0.12934114
0.12979863
0.13042759
0.13091548
0.13144813
0.13167368
0.13163419
0.13127948
0.13053821
0.1288406
0.12661701
0.12309249
0.11895365
0.11453169
0.11039835
0.10711162
0.10763204
0.11070651
0.11449812
0.11880201
0.12286719
0.12621939
0.1283674
0.13007368
0.13076503
0.13120721
0.13131285
0.13107044
0.13063612
0.1301222
0.12952904
0.12915113
0.12861384
0.12824526
0.12788734
0.12749241
0.12701403
0.12674867
0.12641236
0.12602844
0.12552402
0.12516195
0.12475308
0.12444839
0.12439252
0.12466525
0.12509864
0.12553044
0.12590712
0.12616529
0.12663349
0.12697231
0.12737643
0.12767843
0.1281928
0.12852096
0.12892272
0.12935443
0.12997474
0.13034849
0.13067236
0.1309985
0.13093647
0.13039309
0.1295445
0.12793622
0.12569991
0.12247161
0.11858268
0.11465148
0.11101537
0.1080661
0.10848508
0.11125749
0.11466516
0.11852042
0.1221954
0.12513431
0.12735445
0.1289484
0.1298606
0.1305687
0.13054082
0.13038606
0.13006287
0.12976018
0.12922705
0.12873659
0.12831588
0.12803012
0.12747951
0.12720236
0.12687091
0.12646425
0.12606536
0.1258159
0.12534915
0.12499053
0.12460525
0.12432044
0.12434351
0.12456155
0.12492018
0.12531356
0.12578626
0.12603672
0.12650633
0.12676021
0.12713103
0.12741281
0.12792154
0.12827741
0.12866396
0.12913178
0.1295182
0.12997373
0.13033819
0.13033819
0.13018814
0.12944322
0.12859461
0.12692536
0.12478953
0.12196944
0.11858386
0.11472871
0.11131087
0.1086514
0.10902453
0.11152529
0.11473977
0.11837671
0.121631
0.12433641
0.12652568
0.128153
0.1290657
0.12977158
0.12992011
0.13011173
0.12974679
0.12943269
0.12907011
0.12859089
0.12820434
0.12781246
0.12726239
0.12696521
0.12661062
0.12637066
0.12593513
0.12565174
0.12515531
0.12478508
0.12440799
0.12417639
0.12415365
0.12434931
0.12470528
0.1251338
0.12558056
0.12589039
0.1263754
0.12662743
0.12690123
0.12725487
0.12768971
0.12809937
0.12845562
0.12899778
0.12945657
0.12975126
0.12995811
0.12981132
0.12957158
0.12893042
0.12791344
0.12634668
0.12415898
0.12133655
0.11802369
0.11456012
0.11149519
0.10910774
0.10913546
0.11151056
0.11457401
0.11791357
0.12113232
0.12387019
0.12607317
0.12767471
0.1285304
0.12926919
0.12953472
0.12973784
0.12949977
0.12910046
0.12870194
0.12832917
0.12791732
0.12743126
0.12706795
0.12665993
0.12649162
0.12617992
0.12577532
0.12546274
0.12501602
0.12463654
0.12425882
0.12401258
0.12396209
0.12412563
0.12457721
0.12506181
0.12541529
0.1257471
0.12615219
0.12641724
0.12662412
0.12698968
0.12737754
0.12783366
0.12837194
0.12867823
0.1289524
0.12923968
0.12950293
0.12942686
0.12911084
0.12839477
0.12742687
0.12589905
0.12369159
0.12105378
0.11800866
0.1145135
0.11160782
0.10921973
0.10908593
0.11151847
0.11435155
0.11786069
0.12095867
0.12357164
0.12573557
0.12737733
0.12826042
0.12888895
0.12926706
0.12923534
0.12900073
0.12883666
0.12840448
0.12815924
0.12760907
0.12724021
0.12677734
0.12645463
0.12628189
0.12596499
0.12552725
0.12521401
0.12490175
0.12452575
0.12405837
0.123943
0.12378879
0.12400249
0.12444638
0.1248148
0.12518878
0.12546312
0.12581857
0.1261878
0.12652657
0.12678107
0.12717033
0.12762863
0.12814692
0.12838105
0.12878905
0.12897843
0.12916163
0.12914246
0.12880064
0.12821375
0.12726193
0.12571897
0.12365414
0.12093497
0.1177175
0.11434429
0.11139844
0.10901102
0.10912465
0.11138689
0.11434745
0.11769794
0.12078474
0.12337534
0.12553765
0.12705357
0.12809968
0.12878065
0.12915387
0.12914531
0.12882634
0.12860129
0.12816717
0.12795371
0.12736513
0.1269261
0.12658267
0.12633736
0.12597501
0.12562337
0.12530869
0.12493122
0.12451875
0.12424532
0.1238254
0.12361394
0.12346721
0.12367904
0.12413503
0.12440156
0.12474467
0.1250717
0.1253986
0.12579365
0.12610831
0.12653892
0.12691063
0.1272974
0.12769487
0.12808094
0.12857016
0.12870663
0.12907645
0.1289131
0.12873427
0.12815108
0.12716094
0.1255139
0.1233873
0.12063487
0.11767335
0.11446136
0.11143896
0.10921114
0.10923077
0.11144257
0.11452281
0.11764408
0.12052019
0.12329745
0.1254543
0.12706974
0.12788666
0.12855717
0.12875346
0.12889226
0.12855286
0.1284273
0.12793544
0.12747814
0.12721915
0.12687046
0.12647172
0.12608901
0.12566028
0.12534135
0.12494998
0.12472643
0.12447083
0.12408762
0.12353372
0.12338644
0.12329713
0.12353312
0.12401523
0.12436057
0.12468544
0.12500439
0.12525379
0.1254823
0.12586208
0.12622993
0.12675127
0.12711621
0.12742935
0.12775744
0.12831371
0.12856134
0.12879384
0.1286976
0.12847764
0.12793864
0.1269105
0.12521222
0.12330577
0.12068871
0.11771023
0.1146072
0.11156067
0.10941574
0.10964185
0.11172389
0.11458636
0.11783678
0.12075433
0.12316913
0.12511608
0.12680238
0.12765165
0.12819787
0.12849996
0.12865062
0.12825845
0.12807349
0.1275167
0.12724251
0.12695821
0.12652811
0.12612152
0.12585884
0.1254292
0.12515847
0.12481216
0.12449921
0.1241457
0.12383266
0.12336044
0.12313576
0.1231394
0.12336595
0.12380941
0.12419356
0.12455797
0.12482865
0.12508135
0.12532476
0.12567576
0.12603176
0.12647396
0.12677664
0.12709075
0.12755511
0.12800982
0.12816044
0.12851376
0.12847221
0.1281416
0.12768125
0.12683262
0.12513602
0.12321628
0.12077801
0.1181104
0.11501557
0.11204128
0.10995407
0.11025934
0.11233168
0.1150806
0.1181943
0.12085621
0.12330561
0.12528949
0.12687787
0.12762456
0.1281585
0.12846446
0.12849776
0.12804343
0.1278856
0.1273443
0.12707975
0.12674351
0.12641131
0.12593965
0.12566362
0.12528973
0.12505495
0.12475879
0.12442072
0.12409931
0.12362318
0.12325899
0.1229637
0.12293975
0.12321932
0.12361528
0.12404863
0.12443529
0.12467105
0.12509767
0.12537082
0.12561534
0.12589358
0.12621528
0.12666549
0.12702167
0.1273076
0.12786106
0.12798555
0.12839117
0.12849205
0.12836935
0.12783107
0.12704396
0.12568911
0.1236227
0.12131842
0.11853802
0.1154876
0.11260679
0.1104252
0.110783
0.11299673
0.11568324
0.11876834
0.1214486
0.12390684
0.12597689
0.12724559
0.12794418
0.12831254
0.12844816
0.12824372
0.1279717
0.12783111
0.12728225
0.12689209
0.12656814
0.12621116
0.12579146
0.12556217
0.1252075
0.12498709
0.1245658
0.12425772
0.12382676
0.12344272
0.12303726
0.12274257
0.12267776
0.12288119
0.12335916
0.12378453
0.12413563
0.12458205
0.12498401
0.12518196
0.12545513
0.12572744
0.12611876
0.12645499
0.12697579
0.12733289
0.12790815
0.128269
0.12852848
0.12865091
0.12853942
0.12819029
0.12749505
0.12613491
0.12446378
0.12194523
0.11931591
0.11619212
0.11351896
0.11159644
0.11228748
0.11422188
0.11678659
0.11983738
0.12245938
0.12487273
0.12640494
0.12768743
0.12825014
0.128606
0.12886828
0.12867546
0.12825586
0.12776307
0.12725776
0.12695017
0.12646049
0.12615429
0.12569889
0.12540586
0.12510205
0.12491931
0.12445004
0.1239555
0.12362822
0.12330705
0.12281168
0.1226756
0.12255397
0.12277141
0.12323273
0.12368242
0.12403055
0.12435394
0.12490648
0.12516995
0.12545705
0.12582203
0.12605482
0.12654692
0.12698299
0.12724532
0.12775675
0.12822974
0.12876146
0.12908116
0.12895144
0.12862218
0.12797261
0.12681442
0.12533245
0.12314108
0.1204608
0.11742063
0.11488064
0.11293149
0.11351725
0.1154852
0.11803407
0.12096645
0.12339456
0.12560493
0.12707931
0.12807644
0.12881714
0.12902488
0.12906474
0.12894631
0.12833823
0.12795588
0.12736906
0.12700253
0.12642967
0.12605468
0.12581639
0.12544868
0.12513119
0.1247948
0.12424092
0.12394756
0.12348963
0.12307944
0.12261184
0.12241072
0.12238589
0.12255564
0.12303036
0.12343812
0.12385925
0.12419439
0.12471033
0.12508888
0.12548181
0.12578147
0.12617042
0.12647999
0.12704335
0.12742467
0.12816537
0.12866246
0.12915141
0.12922543
0.12940021
0.12901341
0.12844438
0.12730597
0.12598092
0.12394575
0.12144536
0.11851474
0.1159991
0.11409545
0.11437289
0.11617804
0.11864887
0.12159643
0.12396267
0.12613016
0.12749636
0.12861789
0.12921387
0.12956992
0.12940136
0.12929383
0.12872012
0.12816643
0.12746826
0.12707137
0.12646952
0.12612722
0.12565949
0.12538006
0.12500465
0.12467057
0.124176
0.1237304
0.12347149
0.12305433
0.12253821
0.12240164
0.12230734
0.12253315
0.12300217
0.12341066
0.12377546
0.12417336
0.12460437
0.12494266
0.12522093
0.1256959
0.12623074
0.12668509
0.1272045
0.12766743
0.12834152
0.12888656
0.12935816
0.12948197
0.12972586
0.12946992
0.12883966
0.12773868
0.12626315
0.12419224
0.12160737
0.11862884
0.11619732
0.11448502
0.11384187
0.11569239
0.11822016
0.12125903
0.1237331
0.12601535
0.12777705
0.12881012
0.12933352
0.12969921
0.1295511
0.12938056
0.12894843
0.12844091
0.12773836
0.12727316
0.12657566
0.12613685
0.12561157
0.12520517
0.12491082
0.1245484
0.12408517
0.12372094
0.12322517
0.12286518
0.12243192
0.12222407
0.12218837
0.12236657
0.12280056
0.12316125
0.12356517
0.12391003
0.12434328
0.12485621
0.12527642
0.12558509
0.12607523
0.12660485
0.127304
0.12799012
0.12873777
0.12907605
0.12942053
0.12973533
0.12970365
0.12921773
0.1284824
0.127577
0.12584253
0.12333078
0.12055626
0.11748527
0.11492997
0.11317761
0.11138854
0.11335852
0.11621749
0.11949974
0.12250202
0.12522845
0.12698773
0.1282555
0.12911306
0.12974283
0.12977591
0.12959834
0.1292903
0.12884667
0.12798655
0.12739984
0.12672673
0.12617392
0.12565958
0.12522597
0.12474421
0.12436788
0.12389578
0.12360552
0.12321156
0.12281226
0.12232564
0.12216984
0.1220301
0.12230293
0.12279392
0.12315292
0.1235321
0.1239272
0.12431276
0.12461082
0.12505994
0.12558969
0.12634189
0.12695207
0.12752962
0.12811328
0.12872947
0.12921679
0.12966074
0.12984508
0.12957825
0.12909168
0.12793721
0.12638988
0.12446602
0.121521
0.11831457
0.11471037
0.11161749
0.10952503
0.10681101
0.10924646
0.11283864
0.11678724
0.12038593
0.12361755
0.12585593
0.12755217
0.12880451
0.12938343
0.12956797
0.12965854
0.12922751
0.1287721
0.12797269
0.12741844
0.12677968
0.1263119
0.1256382
0.12504403
0.12456963
0.1242402
0.12379948
0.12342472
0.12298532
0.12269246
0.12220436
0.12192845
0.12192902
0.12220589
0.12267189
0.12304775
0.12349886
0.12383683
0.12417957
0.12454301
0.12506986
0.12554453
0.12626365
0.12673785
0.12729294
0.12793972
0.12866944
0.12924766
0.12958737
0.1295252
0.12931714
0.12850118
0.12723217
0.12549101
0.12285372
0.11937631
0.11549147
0.11119847
0.10707336
0.10433071
0.1024732
0.105511
0.10984512
0.11454237
0.11860301
0.12229633
0.12512482
0.12713372
0.12835598
0.12916998
0.1293803
0.12947112
0.12905817
0.1284319
0.12775641
0.12716707
0.126569
0.12606382
0.12534029
0.12494721
0.12446612
0.12413602
0.12377204
0.12334554
0.12292038
0.12240628
0.12200535
0.12173332
0.12176807
0.12197316
0.12236583
0.12281686
0.12331683
0.12365718
0.12414916
0.12457729
0.12499727
0.12532394
0.12589979
0.12635688
0.12692166
0.12767743
0.12838949
0.12900806
0.12932716
0.12918342
0.1289297
0.12823228
0.12714413
0.12523779
0.12251887
0.11891376
0.11459669
0.10988675
0.10526623
0.1021711
0.10486279
0.10764577
0.11188255
0.11627116
0.12013372
0.12349075
0.12595577
0.12751518
0.12845455
0.12905176
0.12915344
0.12920334
0.12887964
0.12819361
0.12749225
0.12677374
0.1262274
0.12563381
0.12510846
0.12483924
0.12431387
0.12399836
0.12353517
0.12318766
0.12270659
0.1222782
0.12184992
0.12157681
0.12150273
0.12170356
0.12221093
0.1227375
0.12304527
0.12347988
0.12384484
0.12417133
0.12466108
0.12502725
0.12556126
0.12609928
0.12664188
0.12742838
0.12822385
0.12881282
0.12909739
0.12919451
0.12922813
0.12901028
0.12843275
0.1269713
0.12495883
0.12229071
0.11927384
0.11562011
0.11223588
0.10983277
0.11666287
0.11821967
0.12059324
0.12304923
0.12526977
0.1269197
0.12820204
0.12907751
0.1292617
0.12926217
0.12896548
0.12874448
0.12852129
0.12788134
0.12710282
0.12637094
0.12584843
0.1253436
0.12483783
0.1245887
0.12412693
0.12380172
0.12330859
0.12293042
0.12263095
0.12220944
0.12168892
0.12153455
0.12146867
0.12171016
0.12219132
0.12260665
0.12304833
0.12336636
0.12376475
0.12413454
0.12452915
0.12478088
0.1252072
0.12572285
0.12632264
0.1268741
0.12767817
0.12827111
0.12869085
0.12906316
0.12941219
0.12976336
0.1298263
0.12943005
0.12893032
0.12782752
0.12649019
0.12517041
0.1238177
0.12310995
0.12769119
0.12792597
0.12861636
0.12918967
0.12988662
0.13034758
0.13023927
0.13020812
0.12991558
0.12931943
0.12878716
0.12824667
0.12782232
0.12717298
0.12645049
0.12601604
0.1254322
0.12508845
0.12472433
0.12445703
0.12398396
0.12365492
0.12330529
0.12287106
0.12239385
0.12203875
0.12160636
0.12138649
0.12137891
0.12159639
0.12195934
0.12238815
0.12284012
0.12324165
0.12372768
0.12402549
0.12431414
0.12460231
0.12499895
0.12525904
0.12579583
0.12613599
0.12673729
0.12731795
0.12796982
0.12842524
0.12914321
0.12968117
0.13019118
0.13054093
0.13107682
0.13096395
0.13072939
0.13072319
0.13054557
0.13053007
0.13165511
0.13152688
0.13139382
0.13126204
0.13130886
0.13113454
0.13050621
0.12981805
0.12932438
0.12874804
0.12808464
0.12753487
0.12676512
0.12634837
0.12580027
0.12552001
0.1249783
0.12470409
0.12431447
0.12406754
0.1238415
0.12356451
0.12311456
0.12276218
0.12224245
0.12188616
0.12156148
0.12130287
0.12128791
0.12151464
0.12187711
0.12230169
0.12270361
0.12312674
0.12356137
0.12378287
0.12404057
0.12422317
0.12449172
0.12481433
0.12520659
0.125418
0.1259205
0.12634039
0.12687532
0.12731615
0.12808298
0.12865346
0.12924131
0.12987774
0.13054786
0.13081126
0.1311459
0.1313438
0.13155486
0.13169765
0.13083701
0.13070853
0.1304734
0.13030011
0.13000418
0.12965146
0.12907315
0.12854254
0.12796543
0.12730713
0.12667981
0.12628283
0.12583072
0.12544908
0.12507845
0.12490999
0.124489
0.12424644
0.12401444
0.12378839
0.1235615
0.12333801
0.12296645
0.12263338
0.12214855
0.12182755
0.1214963
0.12124091
0.12124261
0.12144099
0.12177872
0.12216174
0.12258046
0.12293544
0.12323888
0.12337798
0.12376565
0.12384948
0.1241291
0.12431987
0.12462295
0.12474487
0.12511016
0.12545433
0.12577315
0.1261317
0.12672528
0.12724429
0.12773598
0.12805865
0.12844349
0.12886222
0.1291902
0.12942179
0.12952573
0.12977464
0.12845813
0.12816068
0.12817
0.128029
0.12768749
0.12737668
0.12718922
0.12691184
0.12644549
0.12596292
0.1255833
0.12529304
0.12501537
0.12469086
0.1244521
0.12434933
0.12407295
0.1239647
0.12368168
0.12358464
0.12318779
0.12303146
0.12264337
0.12241746
0.1220404
0.12160851
0.12133028
0.1210873
0.12097469
0.12121197
0.12160309
0.12199174
0.12235314
0.1225812
0.12289373
0.12301899
0.12342702
0.12354823
0.12369879
0.12388807
0.12417048
0.12428304
0.12445979
0.12465073
0.12490066
0.12510507
0.12542192
0.12572403
0.12603868
0.12632386
0.12640337
0.12667142
0.12685839
0.1269863
0.12699202
0.12723226
0.12614384
0.12594633
0.12587835
0.12586797
0.12577329
0.12558285
0.12555323
0.12541918
0.12515215
0.1249718
0.12459317
0.12446482
0.12423345
0.12417514
0.12394386
0.12384567
0.12350476
0.12331082
0.12328556
0.12316778
0.12274993
0.12260899
0.12233633
0.12202146
0.12171279
0.12131153
0.1209983
0.12071568
0.12044599
0.12070694
0.12107768
0.12145824
0.1218262
0.12208391
0.12228121
0.12238286
0.12265185
0.12289441
0.12295631
0.12308807
0.12338862
0.1236077
0.12370846
0.12384971
0.12395755
0.12412765
0.12439512
0.12454178
0.1247311
0.12476423
0.12484484
0.12485273
0.12496685
0.12494398
0.12482075
0.12497541
0.12402492
0.12387574
0.12406566
0.12414081
0.12396526
0.12397107
0.12389749
0.12392799
0.12379929
0.12379116
0.12354316
0.12341643
0.12335828
0.12316646
0.12307066
0.12299741
0.12274364
0.12266476
0.12250694
0.12226671
0.12200623
0.12191509
0.12167735
0.12140424
0.12097159
0.1206866
0.12033332
0.1200386
0.11961439
0.11988471
0.12027919
0.12064
0.12092561
0.12121898
0.12148912
0.12157028
0.12184681
0.12202149
0.12218795
0.12229841
0.12236659
0.1226038
0.12275849
0.12289386
0.12304054
0.12307048
0.12313336
0.12311973
0.12327406
0.12321475
0.12335271
0.12322806
0.12326044
0.12309404
0.12301208
0.12320828
0.12225546
0.12213397
0.12233121
0.12247883
0.12243999
0.12259079
0.12250878
0.12256816
0.12244566
0.12242739
0.12240858
0.12241189
0.12221319
0.12213315
0.12205615
0.12178733
0.12163623
0.12153999
0.12142398
0.12128415
0.12107807
0.12099077
0.12069343
0.12030012
0.12000155
0.11975659
0.11939802
0.11908479
0.1185983
0.11886106
0.11918262
0.11949211
0.11978129
0.12012064
0.12050812
0.12065861
0.12094964
0.12102143
0.12105873
0.12108493
0.12129573
0.12147154
0.1216651
0.12164139
0.12172951
0.12183652
0.12188417
0.12184087
0.12196802
0.12195854
0.12197998
0.12178671
0.12176741
0.12152149
0.12130026
0.12123535
0.1204032
0.12053329
0.12076191
0.12101623
0.12109871
0.12129414
0.12127582
0.12122034
0.12116384
0.12117452
0.12125011
0.12120906
0.12110898
0.12109682
0.12088034
0.12083751
0.12059759
0.12058795
0.12048332
0.12035579
0.12017808
0.11993437
0.11961484
0.11936416
0.11902052
0.11870329
0.11831292
0.11804153
0.11786999
0.11808597
0.11843691
0.11885788
0.11910505
0.11949806
0.11965907
0.11989576
0.12008957
0.12014534
0.12018213
0.12034319
0.12050552
0.12051674
0.12063974
0.1207414
0.12074519
0.12086475
0.12085328
0.12094108
0.12098266
0.12097917
0.12101877
0.12088408
0.12069761
0.12043915
0.1201635
0.1200871
0.12138891
0.12145545
0.12304516
0.12471844
0.1264504
0.12820574
0.12998887
0.13180076
0.13363548
0.13548534
0.13734775
0.13922805
0.14112712
0.14303959
0.1449725
0.14692795
0.1488857
0.15085287
0.15283519
0.1548424
0.15686371
0.1588971
0.16095678
0.1630341
0.16510973
0.16719464
0.16929286
0.17140975
0.17355344
0.17571002
0.17787728
0.18005296
0.1822408
0.18442318
0.18660332
0.18879297
0.19099791
0.19320775
0.19541587
0.19762266
0.19983423
0.20203375
0.20422198
0.20640702
0.20859479
0.21076914
0.21293544
0.21508634
0.21721921
0.21933151
0.22141915
0.22348325
0.22552171
0.22752463
0.22948898
0.23142468
0.23332381
0.23517969
0.23699878
0.23878517
0.22562409
0.22357486
0.22150062
0.21940598
0.21729075
0.21515956
0.21301205
0.21085274
0.20868104
0.20650149
0.20431344
0.20212128
0.19992425
0.19772659
0.19552729
0.19332982
0.19113296
0.18894045
0.18675146
0.18457004
0.18239591
0.18023294
0.17807965
0.17593854
0.17380768
0.17168976
0.16958334
0.16749146
0.16541314
0.16335064
0.16130188
0.15926866
0.15724968
0.15524753
0.15326063
0.1512907
0.14933613
0.14739905
0.14547769
0.14357354
0.14168497
0.13981344
0.13795703
0.13611607
0.13429327
0.13248882
0.13072092
0.12898327
0.12729964
0.12569691
0.12534315
0.12696394
0.12865893
0.1303992
0.13217314
0.13397737
0.13580209
0.13764489
0.13950178
0.14137569
0.14326693
0.14517629
0.14710075
0.14904215
0.15100039
0.15297622
0.15496656
0.1569739
0.15899755
0.16103751
0.16308865
0.16515424
0.16723353
0.16932915
0.17143858
0.1735609
0.17569478
0.17784005
0.17999477
0.18216026
0.18433627
0.18652271
0.18871608
0.19091481
0.19311683
0.19532125
0.19752506
0.19972843
0.20192975
0.20412733
0.20631951
0.20850469
0.21068106
0.21284644
0.21499897
0.21713662
0.21925764
0.22135957
0.22344082
0.22551335
0.22580474
0.22374705
0.22166812
0.21956864
0.21745022
0.2153149
0.21316464
0.21100113
0.20882666
0.20664331
0.20445292
0.20225526
0.20005315
0.19784795
0.19564185
0.19343629
0.19123338
0.18903417
0.18684
0.18465227
0.18247563
0.18030759
0.17814946
0.17600143
0.1738645
0.1717394
0.16962735
0.16752916
0.16544821
0.16337846
0.16132114
0.15927115
0.15723455
0.1552167
0.15321946
0.15123559
0.14926975
0.1473202
0.14538834
0.14347238
0.14157764
0.1397021
0.13784588
0.13600181
0.13417451
0.13236679
0.13058875
0.1288478
0.12715247
0.12553584
0.12575899
0.12738687
0.1290957
0.13085179
0.13264419
0.13446197
0.13630444
0.13815122
0.1400043
0.14187368
0.1437671
0.14569304
0.14763628
0.14959381
0.1515736
0.15355929
0.15555164
0.15756036
0.15959185
0.16164853
0.16372466
0.16580695
0.1678953
0.17000091
0.17211864
0.17425254
0.17639887
0.17855664
0.18072422
0.18290198
0.18508729
0.18728244
0.18947987
0.19168166
0.19388564
0.19609413
0.19830306
0.20051087
0.20271516
0.20491301
0.2071044
0.20928835
0.21146314
0.2136282
0.21577832
0.21791282
0.22003008
0.22212808
0.22420505
0.22626658
0.22694338
0.22489616
0.22282456
0.22073028
0.21861583
0.2164835
0.21433347
0.21217053
0.20999683
0.20781185
0.20561986
0.20342001
0.20121661
0.19900876
0.19680109
0.19459224
0.1923873
0.19018166
0.18797734
0.18577026
0.18356914
0.18137857
0.17920066
0.17703118
0.17487619
0.17273462
0.17061659
0.16850433
0.16640448
0.16431653
0.16225316
0.16019791
0.15815755
0.15613797
0.15413631
0.15214811
0.15017746
0.14822377
0.146286
0.14436254
0.14246103
0.14058038
0.13871643
0.13686442
0.13502842
0.13321237
0.13142485
0.12967421
0.12797225
0.12634832
0.12663918
0.12827428
0.12998439
0.13175501
0.13355088
0.13536657
0.13721061
0.13907025
0.14093737
0.1428191
0.14472322
0.14666475
0.14860816
0.15055854
0.15253327
0.15452487
0.15652227
0.15853461
0.16057025
0.16263516
0.16471722
0.16680383
0.16890077
0.17102743
0.17316848
0.17532694
0.17749594
0.17968315
0.18186428
0.18404594
0.18624261
0.18846051
0.19068722
0.19290652
0.19512163
0.19734141
0.19955956
0.20177796
0.20399414
0.20620636
0.20841047
0.21060563
0.21278871
0.2149613
0.21711811
0.21925809
0.22138019
0.22348395
0.22556429
0.22762727
0.22846136
0.22639824
0.22430992
0.22220011
0.22007045
0.21792011
0.21575
0.21356614
0.21137086
0.20916213
0.20694322
0.20471037
0.20246915
0.20023171
0.19799872
0.195764
0.19353376
0.19130977
0.18910133
0.18689097
0.18468531
0.18248895
0.18030189
0.17812134
0.17594989
0.17378942
0.17165331
0.16952704
0.16741439
0.16531483
0.16324009
0.16117231
0.15911685
0.15707996
0.15505989
0.15305566
0.15107101
0.14910656
0.14716078
0.14523029
0.14332022
0.14142803
0.13955243
0.13768896
0.13584206
0.13401691
0.13222045
0.13046019
0.12874785
0.12711334
0.12730478
0.12894734
0.13066996
0.13245258
0.13425986
0.13609248
0.13796149
0.13983345
0.14171182
0.14360526
0.14551509
0.1474428
0.14938511
0.15135286
0.15335185
0.15536943
0.1574055
0.15945821
0.16152906
0.16361449
0.16571715
0.16782645
0.1699401
0.17207376
0.17423294
0.17641633
0.17860072
0.18078863
0.18298282
0.18518553
0.18739584
0.18961288
0.19183085
0.19405947
0.1963091
0.19855373
0.20079163
0.20303707
0.20529512
0.20754796
0.20979659
0.2120303
0.2142438
0.21645265
0.21864543
0.220818
0.22296804
0.22509703
0.22720184
0.22929664
0.23029477
0.22819932