/*--------------------------------*- C++ -*----------------------------------*\
| =========                 |                                                 |
| \\      /  F ield         | OpenFOAM: The Open Source CFD Toolbox           |
|  \\    /   O peration     | Version:  v2012                                 |
|   \\  /    A nd           | Website:  www.openfoam.com                      |
|    \\/     M anipulation  |                                                 |
\*---------------------------------------------------------------------------*/
FoamFile
{
    version     2.0;
    format      ascii;
    class       volScalarField;
    location    "300";
    object      nut;
}
// * * * * * * * * * * * * * * * * * * * * * * * * * * * * * * * * * * * * * //

dimensions      [0 2 -1 0 0 0 0];


internalField   nonuniform List<scalar> 
121349
(
0.0077304498
0.0077253897
0.0077195421
0.0077129445
0.0077055287
0.0076973271
0.0076882673
0.0076783805
0.007667591
0.0076558823
0.0076432353
0.0076296271
0.0076150418
0.0075995188
0.0075829853
0.0075654805
0.0075469225
0.0075273456
0.0075066659
0.0074849216
0.0074620348
0.0074380489
0.0074128824
0.0073865249
0.0073589537
0.0073301562
0.0073001297
0.007268938
0.0072365128
0.0072029193
0.0071680832
0.0071320662
0.0070947936
0.0070562683
0.0070164859
0.006975515
0.0069332935
0.0068898402
0.0068451648
0.0067992767
0.0067521983
0.006704023
0.0066547151
0.0066043747
0.0065529664
0.0065005007
0.0064468683
0.0063920064
0.0063358551
0.0062794316
0.0062220379
0.0061690883
0.0061583628
0.0062201986
0.0063370627
0.0064772758
0.0066277356
0.0068301884
0.0070217453
0.0072139006
0.0074410348
0.0076763083
0.0079319333
0.0081726494
0.0083760874
0.008588899
0.0087710252
0.0089167054
0.0090677137
0.0091824713
0.0093057645
0.0093978267
0.009484018
0.0095083621
0.0095502782
0.0096011433
0.0096066994
0.0096444724
0.0096831509
0.0097091487
0.0097147088
0.0097497557
0.0097715259
0.0098125085
0.0098469804
0.0098675536
0.0098865145
0.0099647559
0.0099952883
0.0099933272
0.0099859283
0.0099381001
0.0098589173
0.00972785
0.0094510478
0.0091314899
0.008649989
0.0081320229
0.007488119
0.0068849922
0.0063844285
0.0061341172
0.0062656273
0.0067305136
0.0075407011
0.0084813485
0.0095188503
0.010584329
0.011770806
0.013000158
0.014163808
0.015094492
0.01582945
0.016313572
0.016671531
0.016831632
0.016943631
0.016920798
0.016879953
0.016726448
0.016626821
0.016581499
0.016651362
0.016622073
0.016627423
0.016657361
0.016706752
0.016746768
0.0167777
0.016784722
0.016796058
0.016799547
0.016798222
0.0167967
0.01679304
0.016797729
0.016796348
0.016787223
0.016782819
0.016764582
0.016749611
0.016741594
0.016731879
0.016708652
0.016682396
0.01665656
0.016597582
0.016541948
0.016462893
0.016411008
0.016403218
0.016457558
0.016371821
0.016384339
0.016462981
0.016561553
0.016652537
0.016732763
0.016794946
0.01684118
0.016872954
0.01689556
0.016910614
0.016910156
0.0169061
0.016906114
0.016906645
0.016905259
0.016903277
0.016903133
0.016898369
0.016899505
0.016914211
0.016910316
0.01692341
0.016927075
0.016933222
0.016949726
0.016956404
0.016955038
0.016955108
0.01696275
0.016964735
0.016963488
0.016973307
0.016985558
0.016988064
0.0169885
0.017002186
0.017011842
0.017031721
0.017039503
0.017056285
0.017072107
0.017091396
0.017113632
0.017132304
0.017152547
0.01716096
0.017161081
0.017169724
0.017174991
0.017186937
0.017185989
0.017188734
0.017199818
0.017214014
0.01722555
0.017234091
0.017245673
0.017245599
0.017257846
0.017276165
0.017272151
0.01727721
0.017254774
0.017229345
0.017192813
0.017145758
0.017096748
0.017080656
0.017100284
0.017188674
0.01711878
0.017144177
0.017166671
0.017250755
0.017269527
0.0173137
0.017295198
0.0173081
0.017266652
0.017258605
0.017198446
0.017180867
0.017100396
0.017016644
0.016847111
0.016672962
0.016377312
0.016031017
0.015534591
0.014955322
0.014198226
0.013323299
0.012267155
0.011086782
0.0098126973
0.0085111329
0.007407605
0.0065614701
0.006598486
0.0074395557
0.0085511799
0.0098129662
0.011055391
0.012243915
0.013278836
0.014186987
0.014917812
0.015525125
0.015988453
0.016363143
0.016626529
0.016830491
0.016969289
0.017094499
0.017133427
0.017181759
0.017207889
0.017255835
0.017259022
0.01727975
0.017258633
0.017249352
0.017194296
0.017139771
0.0170837
0.01708318
0.017085188
0.017109424
0.017171173
0.017238195
0.017279172
0.017300307
0.017318208
0.017309769
0.017301918
0.017256636
0.017224503
0.017187151
0.017140442
0.017022783
0.016879298
0.016681113
0.016405558
0.016037785
0.015566508
0.014960996
0.014219112
0.013301937
0.012257995
0.011081091
0.0098424556
0.0086122906
0.0075034913
0.0066656513
0.0067768902
0.0076018497
0.0086869661
0.0098964229
0.011115657
0.01228589
0.013331031
0.014256776
0.014990413
0.015611203
0.016073741
0.01645555
0.016719604
0.016929423
0.017088998
0.017184173
0.017229491
0.017266606
0.017298041
0.01734458
0.017332818
0.017346402
0.017319337
0.017308712
0.017261579
0.01720411
0.017143513
0.017095786
0.017138971
0.017176272
0.017257903
0.017310461
0.017356533
0.017377309
0.017400166
0.017407994
0.017400088
0.017372964
0.017334969
0.017314637
0.017260704
0.017164164
0.017016977
0.016802515
0.016536711
0.016152334
0.015685891
0.01506111
0.014306398
0.01339132
0.012355397
0.011187344
0.0099711681
0.0087864445
0.0077275827
0.0069165767
0.0070513107
0.0078572756
0.0088963767
0.0100562
0.011265319
0.012422447
0.013464047
0.014364312
0.015132071
0.015753636
0.01622716
0.016602544
0.016867947
0.017082188
0.017221044
0.017321287
0.017378173
0.017395814
0.017434712
0.017463408
0.017471891
0.017477481
0.017439595
0.017419232
0.017367156
0.01730396
0.017217286
0.017194411
0.017226289
0.017263287
0.017338027
0.017394087
0.01744489
0.017489239
0.017511155
0.017493409
0.017499936
0.017471832
0.017446628
0.017407236
0.01736662
0.017280576
0.017128326
0.016912886
0.016625994
0.016258039
0.015804038
0.015183134
0.01442411
0.013521707
0.012479683
0.011345484
0.010159072
0.0089983692
0.0079925688
0.0072221423
0.007399937
0.0081412358
0.0091239215
0.010260513
0.011424862
0.012554678
0.013565928
0.014469275
0.015209697
0.015822948
0.016271017
0.016641204
0.016944743
0.01714436
0.01729323
0.017383128
0.017416018
0.017447224
0.017471351
0.017506226
0.017509404
0.017528808
0.017478232
0.017440155
0.017385952
0.017344191
0.017277207
0.01724621
0.0172862
0.017316266
0.017374704
0.017429857
0.017482534
0.017510015
0.017535537
0.017514315
0.017507423
0.017475797
0.017467487
0.01742949
0.017375207
0.017266737
0.017153914
0.016951199
0.016662075
0.016295055
0.015834455
0.015232734
0.014506533
0.013615436
0.01262546
0.011506861
0.010368957
0.0092637869
0.008298921
0.0075927001
0.0077993257
0.0084719021
0.0093922005
0.010472048
0.011589568
0.012685881
0.013657065
0.014532633
0.015243699
0.015839929
0.016286962
0.016649453
0.016948725
0.017153923
0.017256584
0.017345384
0.017409328
0.017444413
0.017469665
0.017494018
0.017516032
0.017526887
0.017515852
0.017481357
0.017444428
0.017369143
0.017316381
0.017271025
0.017288749
0.017330546
0.017393129
0.017461487
0.017504737
0.017502424
0.017533879
0.017508277
0.017508036
0.017463967
0.017456549
0.017401389
0.017352538
0.017237904
0.017130584
0.016935267
0.016661111
0.016290604
0.015836102
0.015263338
0.014558198
0.013700299
0.012737709
0.011666051
0.010572394
0.0095334841
0.0086475405
0.0080029377
0.0082269898
0.0088297555
0.009676343
0.010669738
0.011727827
0.012781591
0.01372946
0.014574012
0.015258505
0.015816655
0.016263655
0.016630468
0.016910953
0.017113286
0.017226949
0.017338427
0.017393761
0.017445933
0.017459765
0.017492943
0.017493346
0.017515044
0.017490472
0.017487488
0.017431098
0.017372093
0.017303644
0.017251863
0.017232143
0.017271404
0.017356594
0.017426127
0.017460157
0.017482814
0.017509775
0.017492488
0.017481798
0.017462341
0.017446081
0.017397477
0.017331547
0.017221047
0.017084071
0.016882146
0.016588893
0.016236814
0.015813498
0.015266306
0.014581658
0.013757446
0.012823087
0.011808316
0.010770831
0.0098140509
0.0090230921
0.0084491689
0.0086517196
0.0091965716
0.009931811
0.010859999
0.011871404
0.012859635
0.013771597
0.014584992
0.015247939
0.015804482
0.016212228
0.016573027
0.016869349
0.017063423
0.01719476
0.017293112
0.017376551
0.01741802
0.017449831
0.017447153
0.017469626
0.017497851
0.017457467
0.017430971
0.017410536
0.017355924
0.017271005
0.017247456
0.017232712
0.017273241
0.017348999
0.017397066
0.017440599
0.017459475
0.017475294
0.017452548
0.017451684
0.017442167
0.017413829
0.017367464
0.017304434
0.017170893
0.017055786
0.016847436
0.01658435
0.0162038
0.015761898
0.015208289
0.014546543
0.013758124
0.012888595
0.011923161
0.010954392
0.010073963
0.0093548095
0.0088407078
0.0090163363
0.0095143564
0.010196758
0.011042154
0.011972509
0.01289297
0.013726026
0.01450691
0.015153252
0.015698018
0.016149378
0.016541704
0.016797204
0.017023218
0.017134947
0.017262663
0.017324056
0.017393549
0.017453967
0.017459718
0.017469077
0.017471401
0.01744888
0.017407939
0.017365524
0.017324623
0.017254501
0.017217955
0.017213091
0.01725189
0.017314216
0.017362687
0.017409974
0.017437996
0.017460075
0.017448801
0.017463788
0.017463568
0.017411984
0.017334027
0.017255069
0.017127525
0.016983602
0.016760708
0.016490762
0.016115682
0.01564776
0.015093127
0.014457778
0.013695984
0.012894262
0.012003656
0.011131233
0.010328043
0.0096555921
0.0091678038
0.0093022279
0.0097729778
0.010413055
0.01119862
0.012049713
0.012901011
0.013669355
0.014410459
0.015022417
0.015578662
0.016049978
0.016422017
0.016711562
0.016932428
0.017083833
0.017226658
0.017303874
0.017377587
0.017425188
0.017446162
0.017434342
0.017448159
0.017437958
0.017408621
0.017346464
0.017302105
0.017242182
0.017193941
0.017188035
0.017230307
0.017297027
0.017355291
0.01739312
0.017397944
0.017433702
0.017432863
0.017432154
0.017394871
0.017374977
0.017293798
0.017191554
0.017057664
0.016907575
0.016659664
0.016349296
0.015989129
0.015527988
0.014968783
0.014354339
0.013647796
0.012891883
0.012071869
0.011249593
0.010504439
0.0098788888
0.009417524
0.0095214596
0.009968062
0.010571846
0.011306807
0.012099146
0.012873182
0.013607491
0.014290723
0.014894291
0.015463814
0.015905952
0.01629713
0.016610782
0.016873069
0.017039145
0.017164741
0.017264006
0.017352227
0.017365306
0.01740723
0.01742281
0.01740905
0.017387472
0.017383246
0.017327164
0.017283134
0.017227125
0.017182068
0.017193601
0.017224695
0.017275546
0.01732646
0.017384136
0.017388485
0.01742465
0.017409088
0.017401801
0.017361653
0.017340213
0.017264749
0.017158911
0.017029662
0.016834979
0.016597387
0.016287932
0.015869128
0.015399355
0.014834179
0.014257296
0.013582448
0.012874179
0.012124731
0.011368765
0.010635102
0.01002978
0.00959259
0.009677182
0.010100013
0.010685294
0.011394789
0.01213093
0.012856951
0.013557293
0.01420981
0.014782506
0.015336947
0.015804086
0.016254666
0.016565488
0.016828501
0.017026742
0.017154848
0.017261039
0.017329413
0.017342882
0.017380017
0.017390995
0.017407513
0.017377782
0.017365686
0.017303085
0.017255846
0.017201913
0.017168157
0.017170831
0.017197684
0.017248249
0.017306253
0.017358831
0.017377518
0.017418449
0.017402806
0.017376503
0.017351318
0.017317753
0.017251801
0.01714169
0.017023887
0.016842407
0.016575725
0.016237078
0.015794995
0.015313442
0.01477066
0.014188757
0.013555131
0.012866606
0.012135196
0.011397821
0.010708763
0.010138852
0.0097267261
0.0097654966
0.010176882
0.010746498
0.011420549
0.012143155
0.01285706
0.013539068
0.01417165
0.014726009
0.015279859
0.015762249
0.016212214
0.016544268
0.016791029
0.016982293
0.017130535
0.017228376
0.01727931
0.017326464
0.01733997
0.017386251
0.017389371
0.017363597
0.017344698
0.017291635
0.017243298
0.017188484
0.017150773
0.0171499
0.017170044
0.017239087
0.017307801
0.017343378
0.017365646
0.017392303
0.01738053
0.017342791
0.017321923
0.017279228
0.017224353
0.01714991
0.016991013
0.016779147
0.016513777
0.016187835
0.015759462
0.015271204
0.014723134
0.014155434
0.013535689
0.012856951
0.012159771
0.011460449
0.010770837
0.010218302
0.009805063
0.0098176093
0.010235381
0.010779168
0.011468526
0.012171087
0.012862759
0.013534149
0.014167662
0.014721976
0.015255186
0.015752052
0.016159533
0.01648801
0.016772632
0.01695518
0.017123744
0.017194775
0.017265387
0.017291834
0.01732003
0.017363984
0.017363947
0.017332261
0.017313505
0.017284755
0.017235928
0.017164552
0.017152962
0.017128695
0.017159916
0.017228434
0.017277471
0.017317457
0.017328196
0.017345223
0.017354789
0.01734412
0.017302532
0.017264928
0.017211687
0.017134664
0.016965149
0.016780051
0.016500764
0.01616483
0.015750596
0.015261188
0.014735045
0.014171254
0.013551689
0.012892869
0.012188689
0.011473077
0.010800118
0.010244981
0.0098318579
0.0098625982
0.010262166
0.010818561
0.011489163
0.012189481
0.012877214
0.013547499
0.014162486
0.014738211
0.015278462
0.015773342
0.016181215
0.016492652
0.016762764
0.016940335
0.01711199
0.017173373
0.017229162
0.017274939
0.017318155
0.017322903
0.017316107
0.017308179
0.017276531
0.017227898
0.017198268
0.01713482
0.017103423
0.01708085
0.017112619
0.017184123
0.017211396
0.017246386
0.017269513
0.017281601
0.017296677
0.017283708
0.017275964
0.017235367
0.017171495
0.017076287
0.016937891
0.016771851
0.016487471
0.01618968
0.015753599
0.015291017
0.014765323
0.014196513
0.013562473
0.012896335
0.012188468
0.011502194
0.010846228
0.010282674
0.0098864765
0.00990043
0.010295021
0.01086571
0.011512217
0.012189202
0.012900397
0.01357089
0.014201033
0.014744132
0.015282645
0.015747001
0.016176002
0.016477563
0.016762056
0.016925832
0.017048401
0.017168313
0.01723778
0.0172724
0.017288901
0.017279229
0.017277316
0.017253065
0.017248735
0.017231729
0.017180501
0.017089958
0.017071329
0.017060454
0.017096673
0.01717377
0.017216615
0.017247902
0.017270698
0.017267894
0.017252856
0.017253247
0.017235119
0.017224601
0.017159276
0.017050375
0.016905003
0.01675511
0.016493725
0.016173538
0.01575359
0.015288097
0.014769563
0.014194801
0.013553299
0.012914367
0.012221197
0.01153078
0.010885198
0.010317173
0.0099291228
0.0099596253
0.01034149
0.010889969
0.011553435
0.012237885
0.012906996
0.013551691
0.014191845
0.014739939
0.015257864
0.015734814
0.016162607
0.016451888
0.01672301
0.016871303
0.017025638
0.017140263
0.017191982
0.017223484
0.017261266
0.017250676
0.017256259
0.017240578
0.017218277
0.017181279
0.017144367
0.017069618
0.017035908
0.017043348
0.01707632
0.017146529
0.017197368
0.017237281
0.017251034
0.017248514
0.017237642
0.017232376
0.017212895
0.017188697
0.017113234
0.017006457
0.016887512
0.016719919
0.016443392
0.016148344
0.015738637
0.015258099
0.014752979
0.01420359
0.013560884
0.012918695
0.012245355
0.011588945
0.01094163
0.010379349
0.0099961985
0.010027843
0.010409974
0.010947713
0.011597711
0.012254123
0.012929925
0.013581656
0.014210895
0.014746443
0.015263024
0.01574055
0.016149008
0.016426557
0.01670077
0.016852207
0.017008497
0.01711143
0.017181533
0.017200718
0.017235931
0.017236645
0.017249836
0.017244511
0.017217768
0.017187491
0.017117066
0.01706336
0.01701478
0.017016802
0.017062152
0.017122896
0.017184464
0.017227352
0.017233264
0.01726512
0.017258292
0.017230551
0.017195689
0.017148168
0.017098992
0.016999547
0.016846359
0.016695173
0.016413408
0.016126793
0.015740793
0.015289744
0.01476925
0.014225169
0.013625819
0.012961523
0.0123016
0.011629624
0.010985877
0.010432966
0.010038707
0.010063245
0.010460589
0.010991563
0.011638621
0.012298254
0.012976668
0.013642447
0.014231855
0.014765141
0.015261002
0.015715802
0.016085396
0.016398909
0.016680573
0.01683469
0.016970923
0.017079685
0.017148646
0.017180046
0.017225475
0.01723155
0.017249628
0.017218889
0.017198303
0.017146612
0.017095097
0.017033972
0.016985798
0.016982111
0.017011102
0.017087287
0.017145205
0.017180079
0.017227212
0.017254038
0.017228928
0.017205372
0.017167936
0.017129306
0.017052823
0.016976427
0.016829335
0.016674013
0.016425664
0.016103223
0.015712938
0.015257145
0.01476144
0.014226172
0.013623622
0.013008682
0.012323314
0.011670341
0.011020088
0.010491398
0.010126398
0.010163032
0.01052737
0.011041403
0.011679925
0.012328989
0.012998806
0.013595104
0.014187181
0.014704251
0.01520373
0.015690459
0.016078029
0.016382438
0.0166171
0.016793178
0.016955703
0.017043742
0.017130595
0.017160657
0.017197991
0.017218732
0.017246356
0.017206944
0.01715182
0.017122178
0.017083383
0.017004986
0.016989103
0.016971377
0.017003341
0.017074774
0.017140054
0.017173546
0.01719397
0.017247166
0.017233461
0.017207569
0.017179738
0.017101507
0.017042687
0.016935822
0.016754717
0.016568541
0.016317206
0.016016601
0.015636162
0.015160986
0.014659442
0.014127837
0.013552641
0.012965298
0.012326674
0.011676571
0.011045362
0.010538929
0.010176589
0.01016117
0.010520019
0.01101962
0.011628968
0.012240625
0.012872347
0.013452803
0.014003978
0.014548729
0.015038009
0.015510938
0.01594147
0.016249258
0.016536308
0.016728672
0.01690437
0.016998682
0.017088523
0.017171288
0.017203591
0.017226288
0.017228158
0.017177118
0.017163967
0.017110402
0.017053669
0.016980185
0.016951136
0.016954859
0.01697666
0.017051211
0.017107055
0.017154186
0.01717417
0.017216032
0.017218517
0.017206672
0.017154391
0.017091582
0.016979062
0.016867584
0.016674074
0.016485808
0.016190526
0.0158338
0.015371555
0.014914232
0.014390182
0.013866825
0.013301512
0.012746773
0.012146752
0.011540569
0.010945684
0.010461147
0.010117038
0.010008813
0.010331556
0.010795277
0.011372124
0.011945173
0.012543567
0.013092913
0.013651125
0.01418052
0.014710563
0.01519166
0.015677925
0.016055733
0.016375597
0.016602559
0.016817681
0.016940065
0.017060721
0.017118647
0.017182061
0.017202932
0.017212493
0.017175135
0.017134235
0.017118652
0.017061992
0.016980796
0.016965136
0.016953328
0.016986768
0.017059451
0.017114497
0.017149671
0.017180345
0.017203292
0.017191781
0.017146451
0.017112392
0.017054271
0.016936421
0.016774687
0.01654136
0.016272646
0.015909189
0.01547224
0.014952626
0.014455487
0.013923775
0.013385039
0.012832212
0.012281128
0.011711005
0.01113801
0.010582873
0.010144186
0.0098456123
0.0095663746
0.0098589213
0.010280648
0.010812058
0.011348309
0.011920128
0.012491655
0.013037133
0.013572261
0.014135024
0.014675298
0.015229809
0.015722794
0.016140635
0.016446134
0.016714258
0.01687015
0.017009312
0.017082811
0.017138471
0.017185649
0.017196972
0.017169469
0.017147018
0.017087502
0.01704259
0.016977287
0.016946974
0.016949556
0.016973184
0.017038413
0.017083214
0.017124969
0.017141735
0.017160081
0.017174201
0.017146315
0.017062354
0.016969474
0.016827331
0.016643913
0.016375851
0.016028826
0.015529506
0.014969624
0.014387942
0.013789696
0.013188935
0.012614391
0.012075704
0.011511323
0.010933773
0.010395067
0.0098925996
0.0094977267
0.009235137
0.0087554296
0.0090137191
0.0094042882
0.0098940695
0.010430239
0.011016323
0.011586432
0.012177159
0.012789385
0.013437238
0.014074439
0.014724118
0.015347152
0.015886311
0.016265191
0.016587747
0.016804249
0.016962113
0.017064617
0.017133349
0.017155261
0.017170121
0.017146384
0.017140229
0.017099693
0.017049112
0.016974844
0.016954709
0.016934359
0.016978005
0.017056156
0.017098531
0.017133328
0.017159575
0.017167297
0.017135716
0.017103203
0.017044268
0.016972556
0.016805968
0.016545719
0.01618749
0.015723103
0.015137048
0.014477863
0.013780969
0.013075436
0.012405332
0.011729603
0.011086629
0.010487355
0.0098835306
0.0093447934
0.008853181
0.0084706995
0.0082239391
0.0076000719
0.0078553306
0.0082557368
0.0087591391
0.0093264125
0.0099644546
0.010615948
0.011306887
0.012030823
0.012751491
0.013487796
0.014261239
0.014972063
0.015611186
0.016086851
0.016480077
0.016750664
0.016957149
0.017052846
0.017104752
0.017136343
0.017162543
0.017146149
0.017123731
0.017076158
0.017047103
0.01697001
0.016925588
0.016934747
0.016978642
0.01705265
0.017098956
0.017149646
0.017165045
0.017162293
0.017142423
0.017118685
0.017042879
0.016950726
0.016734893
0.016434737
0.01603484
0.015517711
0.014858202
0.014095089
0.013287435
0.012509575
0.011724597
0.010957708
0.010223834
0.0095058573
0.0088268645
0.008228452
0.0077018904
0.0072713701
0.0070026899
0.0065151587
0.0068045854
0.0072515569
0.0078157163
0.0084440327
0.0091666061
0.0099354538
0.010731457
0.011532363
0.012352641
0.01316269
0.014002026
0.014782211
0.015457757
0.015999614
0.016419423
0.016717565
0.0169298
0.017021158
0.017111968
0.017142608
0.01716812
0.017166508
0.01713194
0.017086072
0.017010219
0.016949302
0.016905718
0.01692421
0.016953748
0.017012757
0.017075707
0.017138584
0.017157675
0.017187365
0.017183728
0.017144328
0.017044382
0.016931296
0.016715025
0.016416239
0.016025325
0.015487633
0.014804237
0.013999903
0.013137039
0.012300349
0.011464704
0.010644967
0.0098240194
0.0090325577
0.0082901917
0.0076205779
0.0070400576
0.006562571
0.0062625172
0.0063823719
0.0066734645
0.0071413771
0.0077199666
0.0083794609
0.009126534
0.0099211048
0.010736724
0.011566611
0.012411577
0.013245932
0.014103508
0.014902021
0.015561215
0.016082937
0.016462158
0.016748557
0.016927653
0.017039657
0.017143042
0.017156127
0.017178679
0.017150794
0.017128636
0.017067901
0.017007625
0.016939816
0.016894841
0.016890977
0.016920812
0.017004925
0.017086013
0.017114478
0.017156539
0.017169464
0.017154798
0.01714307
0.017067254
0.016970958
0.01680187
0.016540681
0.01620295
0.015731575
0.015093314
0.014315153
0.013484228
0.012660936
0.011840002
0.011028644
0.010209142
0.0094364601
0.0087235382
0.0081032802
0.0075532983
0.0071228704
0.0068421027
0.0076187642
0.0078585906
0.0082399907
0.0087275756
0.0093077983
0.0099565588
0.010677848
0.011450716
0.012227247
0.01302771
0.01381312
0.014596487
0.015330581
0.015901192
0.01631954
0.01662037
0.01685111
0.016999488
0.017083467
0.017167133
0.01717625
0.0171839
0.017140928
0.017106846
0.017078308
0.01701601
0.016929257
0.016907356
0.016903298
0.016943203
0.01702414
0.017086332
0.017145584
0.017169756
0.017199021
0.017207036
0.017194708
0.017126587
0.017049161
0.016932953
0.016755392
0.016476841
0.016130155
0.015630491
0.014999395
0.014287992
0.013537317
0.01278542
0.012037451
0.011306322
0.01064496
0.010031554
0.009504669
0.0090824469
0.0087571583
0.0085635725
0.0095682421
0.0097342767
0.010020355
0.01039732
0.010884044
0.01145343
0.012065341
0.012752655
0.013457774
0.014139239
0.014799399
0.015398817
0.01593167
0.016330018
0.016613581
0.016853508
0.016990468
0.017107134
0.017173659
0.01722254
0.017207232
0.017201073
0.017176671
0.017125046
0.01705692
0.017004991
0.016933775
0.016897805
0.016904653
0.016939886
0.016998333
0.01706785
0.017132827
0.017180792
0.017238295
0.017245739
0.017235961
0.01720574
0.017168131
0.017066254
0.0169635
0.016764497
0.016536156
0.016219987
0.015827215
0.015325975
0.014794381
0.014194587
0.01357261
0.012948305
0.012386708
0.011844774
0.01138762
0.011046254
0.010791553
0.010639535
0.011801284
0.011941753
0.012171194
0.012494324
0.012921608
0.013407586
0.013901373
0.014407992
0.014928128
0.015407545
0.015826767
0.016201157
0.016472004
0.016728963
0.016897139
0.017053451
0.017113865
0.01718501
0.017204405
0.017227505
0.017238653
0.017228988
0.017174949
0.017132865
0.017051204
0.016995453
0.016944651
0.016899494
0.016904369
0.016943465
0.017004772
0.017075019
0.017133608
0.017193142
0.017250009
0.017255423
0.017258622
0.017235158
0.017211037
0.017174268
0.017121423
0.016998794
0.016884364
0.016704037
0.016488045
0.016203608
0.015916851
0.01555638
0.015166178
0.014766516
0.014376588
0.013975876
0.013638526
0.013359716
0.01316135
0.013037853
0.014166238
0.014263363
0.0144162
0.014638147
0.014902639
0.015202265
0.015496539
0.015797702
0.016077055
0.016315199
0.016520394
0.016721015
0.016873661
0.01699604
0.017083037
0.017174929
0.017194088
0.017224862
0.017239983
0.017243215
0.017238514
0.017227226
0.017179428
0.017134352
0.017056315
0.017005941
0.016951507
0.016905743
0.016915065
0.016948391
0.01700558
0.017070191
0.017136862
0.017188421
0.017226317
0.017226358
0.017270765
0.017247693
0.017253617
0.017230452
0.01721294
0.017142655
0.017094151
0.017015581
0.01690223
0.016768692
0.016642541
0.016475471
0.016282215
0.016050874
0.015829036
0.015625773
0.015440393
0.015284476
0.015161371
0.015105264
0.015802288
0.015825845
0.015925752
0.016040708
0.01615886
0.016301696
0.016472677
0.016630576
0.016748197
0.016846375
0.01694224
0.017030762
0.017103821
0.017146614
0.01718784
0.017238149
0.01724274
0.017267726
0.017250634
0.017263617
0.017212546
0.017203897
0.017146139
0.017118491
0.017058892
0.016983412
0.016938311
0.016893886
0.016879916
0.016923061
0.016994575
0.01706201
0.017120239
0.017150249
0.017196317
0.017201057
0.017258061
0.017255539
0.017254427
0.017255318
0.017265434
0.017234956
0.017206191
0.017167635
0.017125814
0.017064005
0.017006578
0.016933301
0.016850882
0.016756615
0.016629507
0.016539427
0.016451271
0.016376433
0.016307587
0.016297619
0.016626706
0.016627014
0.016663653
0.016726605
0.016791376
0.016849816
0.01694079
0.017014782
0.017060678
0.017115321
0.017125355
0.017171317
0.017190884
0.017233723
0.017234261
0.017254001
0.017221908
0.017211539
0.017232771
0.017231874
0.017168447
0.017156427
0.01711722
0.017067492
0.017019181
0.016949228
0.016894424
0.0168408
0.016797906
0.016846476
0.016914619
0.016981847
0.017043329
0.017082418
0.017108004
0.017114948
0.017151038
0.017180003
0.017171738
0.017174628
0.01720673
0.01722084
0.017206119
0.0171958
0.017170535
0.017154079
0.017149698
0.017117846
0.017088271
0.017028324
0.016978588
0.016918325
0.016884229
0.016836687
0.016784308
0.016790156
0.016872662
0.016859868
0.016914066
0.01695563
0.016960619
0.017003034
0.017032656
0.017081067
0.017100721
0.017139537
0.017129832
0.017139858
0.017161949
0.017153661
0.017160906
0.017168671
0.017139561
0.01714193
0.017126651
0.0170956
0.017058787
0.017052773
0.017017361
0.016973637
0.01689782
0.016849725
0.0167857
0.016729784
0.016657929
0.016708177
0.016781778
0.016846286
0.016892695
0.016941089
0.016984715
0.016988428
0.017029358
0.017050297
0.017071094
0.017078157
0.01707478
0.017104214
0.01711563
0.01711928
0.017122724
0.017103698
0.01708855
0.017057537
0.017057683
0.017017705
0.017015579
0.016964217
0.016945333
0.016895696
0.01686857
0.016895649
0.016832559
0.016816507
0.016861606
0.016900922
0.016909945
0.016956751
0.016960577
0.016991613
0.016989513
0.017005992
0.017020702
0.017041224
0.017022167
0.017024445
0.017025858
0.016985867
0.01696952
0.016962728
0.016951043
0.016933824
0.016905527
0.016899534
0.016851447
0.016782634
0.016732887
0.016691714
0.016626154
0.016566405
0.016482425
0.016530785
0.016589126
0.016644181
0.016691592
0.016749751
0.016817017
0.016835553
0.016882869
0.016886846
0.016884446
0.016877675
0.016908093
0.016930945
0.016956494
0.01693725
0.016939018
0.016943028
0.01693935
0.016915402
0.016923653
0.016906967
0.016897834
0.01684781
0.016833171
0.0167793
0.016733191
0.016715422
0.016605194
0.016633724
0.016679156
0.016731461
0.016755059
0.016801912
0.016808244
0.016808774
0.016811813
0.016825802
0.016852017
0.016857747
0.016850043
0.016860409
0.016830212
0.016832285
0.016795315
0.016804203
0.016791499
0.016775413
0.016749751
0.0167115
0.016657741
0.01661731
0.016558793
0.016502634
0.016431513
0.016381741
0.016353324
0.016392244
0.016454067
0.016530208
0.016570319
0.016639445
0.016660453
0.016696856
0.016726853
0.016729068
0.016728019
0.016749876
0.016773405
0.016765244
0.016778844
0.016787507
0.016776356
0.016788369
0.016776922
0.016782601
0.0167801
0.016768343
0.016768335
0.016734638
0.016693486
0.016641507
0.016588225
0.016572726
0.016763946
0.016770304
0.017001512
0.017241901
0.017487237
0.017732522
0.017979278
0.018228604
0.018479773
0.018731698
0.018983948
0.019237281
0.019491741
0.019746355
0.020002148
0.020259424
0.020514787
0.020769453
0.021024274
0.021280758
0.021537084
0.021792951
0.022050499
0.022308332
0.022563401
0.022817445
0.023071042
0.023324991
0.023580442
0.02383526
0.024089105
0.024341638
0.024593432
0.024841886
0.025087569
0.025332192
0.025576579
0.025819245
0.026059279
0.026296777
0.026532625
0.026764502
0.026992598
0.027218084
0.027441797
0.027661574
0.027878191
0.028090708
0.028298836
0.028502296
0.02870061
0.028893991
0.029082227
0.029264081
0.029439242
0.029609068
0.029772592
0.029929021
0.030079258
0.030223882
0.029034744
0.028846544
0.028653272
0.02845547
0.028253058
0.028046585
0.027835952
0.027621705
0.027403715
0.027182539
0.026958048
0.026730789
0.026500619
0.026268081
0.026033003
0.025795831
0.02555637
0.025315114
0.025071926
0.024827358
0.024581363
0.02433449
0.02408653
0.02383785
0.023588184
0.023337933
0.023086904
0.022835561
0.022583786
0.02233195
0.022079779
0.021827581
0.021575198
0.021323064
0.02107099
0.020819287
0.020567766
0.020316805
0.020066203
0.019816258
0.019566801
0.019318169
0.01907015
0.018822887
0.018576453
0.01833094
0.01808743
0.017845716
0.017606934
0.017377441
0.017308901
0.017542046
0.017782403
0.018025235
0.018269649
0.018515719
0.018762781
0.019010791
0.019259277
0.019508666
0.019758913
0.020010046
0.020261505
0.020513507
0.020765967
0.021018944
0.021271908
0.021525178
0.021778603
0.022032141
0.022284985
0.022537597
0.022789831
0.023042043
0.023293826
0.023545021
0.023795418
0.024044983
0.024293427
0.024540939
0.024787478
0.025033029
0.025277098
0.025519473
0.025759891
0.025998248
0.026234159
0.026467678
0.026698621
0.026926795
0.027152016
0.027374109
0.027592878
0.027808077
0.028019511
0.028226961
0.028430252
0.028629118
0.028823404
0.029014744
0.029041032
0.028851868
0.028658122
0.028459824
0.028257134
0.028050262
0.027839412
0.027624757
0.02740655
0.027185025
0.026960381
0.026732542
0.02650185
0.026268444
0.026032593
0.025794463
0.025554318
0.025312284
0.025068527
0.024823227
0.024577042
0.024329619
0.02408114
0.023831639
0.023581264
0.023330137
0.023078447
0.022826339
0.022574343
0.022321597
0.022068302
0.021813703
0.021558665
0.021304106
0.021050388
0.020796475
0.020543126
0.020290137
0.020037791
0.019785886
0.019535336
0.019285933
0.019037804
0.018789856
0.018542686
0.018296371
0.01805181
0.017809263
0.017569302
0.017336947
0.017359126
0.017593158
0.017835247
0.018080097
0.018326704
0.018574316
0.018823644
0.019071585