/*--------------------------------*- C++ -*----------------------------------*\
| =========                 |                                                 |
| \\      /  F ield         | OpenFOAM: The Open Source CFD Toolbox           |
|  \\    /   O peration     | Version:  v2012                                 |
|   \\  /    A nd           | Website:  www.openfoam.com                      |
|    \\/     M anipulation  |                                                 |
\*---------------------------------------------------------------------------*/
FoamFile
{
    version     2.0;
    format      ascii;
    class       volScalarField;
    location    "100";
    object      k;
}
// * * * * * * * * * * * * * * * * * * * * * * * * * * * * * * * * * * * * * //

dimensions      [0 2 -2 0 0 0 0];


internalField   nonuniform List<scalar> 
48571
(
0.37087286
0.37091242
0.37314813
0.37311253
0.3731272
0.37309208
0.37311948
0.37309114
0.37310979
0.37310066
0.37310347
0.37310052
0.37309952
0.37309891
0.37309891
0.37309952
0.37310052
0.37310347
0.37310066
0.37310979
0.37309114
0.37311948
0.37309209
0.37312721
0.37311253
0.37314813
0.37312598
0.37317864
0.3731533
0.3731795
0.37316462
0.37316703
0.37316112
0.3731597
0.37315865
0.37315873
0.3731589
0.37315908
0.37315921
0.37315929
0.37315934
0.37315937
0.3731594
0.37315943
0.37315946
0.37315948
0.37315949
0.37315951
0.37315952
0.37315953
0.37315954
0.37315954
0.37315954
0.37315954
0.37315954
0.37315953
0.37315952
0.37315951
0.37315947
0.37315941
0.3731593
0.37315913
0.37315898
0.37315891
0.37315997
0.3731614
0.37316732
0.37316491
0.3731798
0.3731536
0.37317894
0.3731263
0.37314844
0.37311285
0.37312765
0.37309288
0.37312078
0.37309323
0.37311282
0.37310484
0.37310888
0.37310721
0.37310741
0.37310785
0.37310862
0.37310962
0.37311057
0.37311295
0.37310913
0.37311682
0.37309665
0.37312337
0.37309479
0.373129
0.37311393
0.37314955
0.37312762
0.3731805
0.37315555
0.37318209
0.37316761
0.37317035
0.37316472
0.37316351
0.3731626
0.37316276
0.37316297
0.37316331
0.37316401
0.37316546
0.37316779
0.37317081
0.37317411
0.3731772
0.37317895
0.37317894
0.37317879
0.37317863
0.37317847
0.37317831
0.37317817
0.37317802
0.37317787
0.37317757
0.37317553
0.37317215
0.37316858
0.37316528
0.3731627
0.37316105
0.37316016
0.37315969
0.3731594
0.37315922
0.37316018
0.37316152
0.37316735
0.37316486
0.37317967
0.37315341
0.37317869
0.37312601
0.37090459
0.37094877
0.37093617
0.37095915
0.37094879
0.37094841
0.37094161
0.37093832
0.37093631
0.37093589
0.37093604
0.37093661
0.37093771
0.37093962
0.37094243
0.37094589
0.37094956
0.37095288
0.37095485
0.37095548
0.37095583
0.37095619
0.37095657
0.37095692
0.37095733
0.37095774
0.37095812
0.37095828
0.37095705
0.37095446
0.37095153
0.37094879
0.37094666
0.3709454
0.37094488
0.37094483
0.3709451
0.37094584
0.37094805
0.37095142
0.37095816
0.37095836
0.37096844
0.37094517
0.37095746
0.37091309
0.37092075
0.37088309
0.36860549
0.36619626
0.36381406
0.36146849
0.35928712
0.35734636
0.3557968
0.35488334
0.35492569
0.35588016
0.35804263
0.36192006
0.36844366
0.37740303
0.39297736
0.42620088
0.47806573
0.57704712
0.69855762
0.8301345
0.7937625
0.80862532
0.80152847
0.75369943
0.73420499
0.69776184
0.67917484
0.66353326
0.64905035
0.62481691
0.605871
0.5947711
0.58615512
0.57601287
0.5652883
0.55556675
0.54254032
0.53220714
0.52356029
0.51566328
0.50780313
0.49942527
0.49096651
0.48321539
0.47607726
0.46935993
0.4615899
0.4547935
0.44893884
0.44346316
0.43643698
0.4307368
0.4240466
0.41653666
0.409028
0.40149313
0.39398285
0.38630156
0.37858866
0.37071482
0.36277725
0.3547378
0.34660169
0.33846371
0.330199
0.32203371
0.31370486
0.30542745
0.29713553
0.28884442
0.28070276
0.27248478
0.26433921
0.25629622
0.24825837
0.24036565
0.23252514
0.22476789
0.21719226
0.20967306
0.20225728
0.19505368
0.18791038
0.18089484
0.17407757
0.16737207
0.16078211
0.15438697
0.14814495
0.1420207
0.13605124
0.13029319
0.12463162
0.11911354
0.11378239
0.10857928
0.1034737
0.098473357
0.093591652
0.088794923
0.084123919
0.07959352
0.075756083
0.072566741
0.075334128
0.094777966
0.095561451
0.092693578
0.089312389
0.085839872
0.081558702
0.077094816
0.07189961
0.06854261
0.06475676
0.061981294
0.063484496
0.060915355
0.0579328
0.0552491
0.054984097
0.054143819
0.052752999
0.05106928
0.049231481
0.047267936
0.045215069
0.04310515
0.04105418
0.039394349
0.037956831
0.039586867
0.051021045
0.051771814
0.050421938
0.33263888
0.33463366
0.33666119
0.3387207
0.34081147
0.34293286
0.34508455
0.34726681
0.34948087
0.35172954
0.35401781
0.35635223
0.35873901
0.36117672
0.36365482
0.36613333
0.36857371
0.36856319
0.3685906
0.36858772
0.36860369
0.36859728
0.36859397
0.36858666
0.36858184
0.36857889
0.3685778
0.36857772
0.36857832
0.36857962
0.36858179
0.36858487
0.3685886
0.36859246
0.36859581
0.36859789
0.36859884
0.36859952
0.36860014
0.3686008
0.36860151
0.36860225
0.36860302
0.36860377
0.36860424
0.36860358
0.36860168
0.36859928
0.36859704
0.36859544
0.36859473
0.36859489
0.3685957
0.36859714
0.3685995
0.36860363
0.36860951
0.36861774
0.36862184
0.36862893
0.36861355
0.36861694
0.36858992
0.36860061
0.36620069
0.36380055
0.36146531
0.35927868
0.35732842
0.35575638
0.35479693
0.35478521
0.35573963
0.35808502
0.36287256
0.37262738
0.38620774
0.38546308
0.39490173
0.43360653
0.479847
0.4673281
0.43740854
0.42646447
0.44581007
0.47367197
0.50192829
0.55661993
0.57874021
0.63035692
0.52753554
0.61166878
0.71041476
0.88646266
0.79877435
0.8485305
0.90156593
0.8174362
0.82844502
0.81450682
0.76055922
0.73874524
0.696059
0.67659515
0.65888237
0.64629618
0.63421428
0.62207399
0.6072492
0.60029544
0.62536082
0.63596612
0.64945796
0.66610539
0.70149414
0.70626679
0.71735937
0.78761057
0.78666169
0.85596986
0.80507819
0.83133674
0.68215285
0.64695029
0.7402358
0.75183069
0.75677959
0.86021182
0.7785108
0.78069666
0.72093622
0.71774457
0.70852572
0.67250934
0.66168775
0.64767802
0.63611605
0.61139369
0.59900615
0.58707768
0.58044853
0.57593077
0.56700095
0.55886929
0.54633176
0.53634147
0.527736
0.51935813
0.51139698
0.50368397
0.49665102
0.49133836
0.49090008
0.48308359
0.47608194
0.46802234
0.46171051
0.45562201
0.45457682
0.45044274
0.45275438
0.46203543
0.46836846
0.47572273
0.48506065
0.49467713
0.50235748
0.51123758
0.51860972
0.52708747
0.5365284
0.5464915
0.55486836
0.56765024
0.57627433
0.58885365
0.57945549
0.57253014
0.55524268
0.55669016
0.54651823
0.53774989
0.52932902
0.52155831
0.51550081
0.50196879
0.50409963
0.49488034
0.48685813
0.47978153
0.47328348
0.4651851
0.44975539
0.44179889
0.42855776
0.42322526
0.41911398
0.41244487
0.40527922
0.39788897
0.39031151
0.38257795
0.37471543
0.36671611
0.35864868
0.35046451
0.34227152
0.33397831
0.32573495
0.31742139
0.30911055
0.30081817
0.29253656
0.28435207
0.27618379
0.26803858
0.25996355
0.25191671
0.24401079
0.23616147
0.22842247
0.22084111
0.21336373
0.20598224
0.19881073
0.19173282
0.18478877
0.17803179
0.17141279
0.16490849
0.15864991
0.15253548
0.14653202
0.14067282
0.13503123
0.12950192
0.12410605
0.11888242
0.1138111
0.10882191
0.1039296
0.099115582
0.094295507
0.089433617
0.084535453
0.080380559
0.075719211
0.074070405
0.088116214
0.086362033
0.091464879
0.096835035
0.10196571
0.10691608
0.11176348
0.11664668
0.12165447
0.1267282
0.13190907
0.13725911
0.14270967
0.14828755
0.15407336
0.1600291
0.1661892
0.1724907
0.17899495
0.1855916
0.19233359
0.19924402
0.20622746
0.213303
0.22064508
0.22809303
0.23556873
0.2431961
0.25095361
0.25876952
0.26668509
0.27471036
0.28290141
0.2911361
0.2994014
0.30768049
0.31609949
0.3245385
0.33292
0.34130984
0.34969132
0.35807657
0.36642159
0.37475126
0.3830965
0.39139592
0.39968845
0.40796958
0.4163601
0.42476285
0.43329915
0.43517432
0.44130761
0.44816215
0.46655808
0.46819548
0.46552395
0.46245188
0.45927646
0.44465545
0.43931373
0.43298418
0.42641471
0.41966131
0.41262641
0.40546108
0.39813621
0.39057683
0.38288727
0.37502117
0.36706968
0.35899453
0.35085181
0.34269035
0.33445258
0.32627123
0.3180137
0.30986228
0.30171378
0.29368329
0.28575278
0.27783176
0.27006619
0.26246164
0.25485715
0.24738219
0.24003582
0.23277508
0.22562341
0.21870272
0.21182959
0.20510514
0.19858039
0.19216135
0.18585234
0.17977937
0.17382729
0.16801758
0.16235715
0.15687849
0.15160713
0.14649781
0.14151425
0.13666784
0.13189659
0.12719078
0.12247808
0.11766896
0.11256326
0.1071461
0.10289404
0.10541318
0.1085137
0.10874446
0.10580432
0.10156698
0.095729814
0.090611841
0.091987757
0.11392406
0.11516092
0.12557376
0.12628067
0.13284337
0.13310663
0.13468099
0.13508434
0.14147616
0.14169367
0.14184224
0.14196771
0.14424794
0.14433855
0.14486675
0.14524925
0.15019804
0.14849969
0.14770517
0.14926467
0.15457329
0.15541415
0.15880068
0.159357
0.16376782
0.16433735
0.16768243
0.16791594
0.1686174
0.16930298
0.17717948
0.17812284
0.18307564
0.18483224
0.19826173
0.20085542
0.21401607
0.21547214
0.22057525
0.22999592
0.24196773
0.24476412
0.2557039
0.25748823
0.26218723
0.26287257
0.26460423
0.26465678
0.26463277
0.26425732
0.26321655
0.26031054
0.25926225
0.26285992
0.2703974
0.27091954
0.27053777
0.27020792
0.26011561
0.2604328
0.26033449
0.25970088
0.25234408
0.24492652
0.25041468
0.253005
0.25406574
0.25464573
0.25482131
0.25472996
0.2533094
0.25224295
0.24830087
0.24549295
0.23597216
0.2311783
0.22153045
0.21486124
0.20858433
0.20571448
0.19484472
0.19064098
0.17933805
0.17653755
0.17228472
0.1707769
0.16414453
0.1630969
0.16244528
0.16201231
0.15905545
0.15811041
0.15430487
0.1532522
0.14982968
0.14781056
0.14454418
0.14148776
0.14385106
0.14514689
0.14111541
0.14047652
0.14001913
0.13981553
0.1377023
0.13744776
0.13734175
0.1370578
0.1314639
0.13081774
0.12934126
0.12890681
0.12286922
0.12168038
0.11192057
0.10971763
0.088943254
0.086138064
0.070625446
0.073896569
0.078037682
0.073280559
0.069371911
0.068038793
0.073924311
0.079307451
0.12826766
0.12713695
0.1371114
0.14217474
0.14624561
0.14509274
0.10474148
0.095207391
0.096963713
0.10123199
0.10591238
0.11067608
0.11533052
0.11997718
0.12450974
0.12908422
0.13362792
0.13834171
0.14311446
0.14809225
0.15313392
0.15843772
0.16384432
0.1694292
0.1751112
0.18109578
0.18713424
0.19341301
0.19979279
0.20639189
0.21304916
0.2199569
0.22691602
0.23407158
0.24132125
0.2487382
0.25618663
0.26382366
0.27149274
0.27925861
0.28705183
0.29490569
0.3028216
0.31080309
0.31877537
0.32681352
0.33476343
0.34277831
0.35070553
0.35863461
0.36647126
0.37424785
0.38192602
0.38949289
0.39695044
0.40428017
0.41151006
0.41879422
0.42648481
0.43416559
0.44150181
0.44980186
0.44887865
0.45273023
0.46016506
0.45517247
0.44630594
0.45028088
0.45313195
0.45064391
0.4449123
0.43682754
0.42735645
0.41583451
0.40337268
0.39246859
0.38267258
0.37433363
0.37072845
0.3631999
0.35825584
0.35538939
0.35403342
0.35361065
0.35412834
0.3553795
0.35709838
0.35911379
0.3613276
0.36367248
0.36608684
0.36850458
0.37086176
0.37083936
0.37085491
0.37085254
0.3708566
0.37085501
0.3708534
0.3708515
0.37084972
0.37084823
0.37084702
0.37084664
0.3708416
0.37084396
0.37082908
0.37085263
0.37084796
0.37088304
0.37087657
0.36858426
0.36614195
0.36369451
0.36122473
0.3588189
0.35647209
0.35419609
0.35198333
0.34982962
0.34773152
0.34568802
0.3436987
0.3417628
0.33987847
0.33804228
0.33624902
0.33449172
0.33276184
0.33104972
0.32934471
0.32763596
0.32591278
0.32416461
0.32238118
0.32055251
0.31866846
0.31671884
0.31469269
0.31257883
0.310365
0.30803902
0.30558744
0.3029979
0.30025739
0.2973557
0.29428161
0.29102923
0.28759192
0.28396867
0.28015721
0.27616151
0.27198305
0.26762613
0.26307873
0.26268337
0.26728365
0.27168373
0.27590298
0.27993861
0.28378731
0.28744695
0.29091774
0.29420231
0.29730673
0.30023398
0.30299604
0.30560421
0.30807084
0.31040902
0.31263179
0.31475206
0.31678194
0.31873313
0.32061667
0.32244322
0.32422311
0.32596668
0.32768444
0.32938726
0.33108604
0.33279194
0.33451575
0.33626734
0.33805538
0.33988692
0.34176719
0.34369959
0.34568593
0.34772689
0.34982284
0.35197473
0.35418521
0.35645824
0.35879792
0.36120012
0.36365389
0.36611471
0.3685475
0.36849853
0.36606416
0.36360026
0.36115494
0.35876038
0.35642948
0.35416333
0.35195847
0.3498114
0.34772026
0.34568458
0.34370438
0.34177926
0.33990765
0.33808625
0.3363099
0.33457151
0.33286228
0.33117227
0.32949057
0.32780593
0.32610743
0.3243843
0.32262618
0.32082295
0.31896456
0.31704064
0.31504044
0.31295255
0.31076497
0.30846476
0.30603861
0.30347346
0.30075669
0.29787525
0.29481576
0.29157913
0.28815754
0.28454694
0.28074596
0.27675603
0.27257565
0.26820928
0.26364568
0.26478237
0.26935322
0.27371752
0.27787633
0.28183198
0.28559317
0.28915678
0.29252564
0.29571208
0.2987177
0.3015439
0.30420637
0.30671696
0.30909025
0.31133882
0.31347708
0.31551769
0.31747325
0.31935477
0.3211732
0.32293845
0.32466062
0.32634961
0.32801568
0.32966955
0.33132234
0.33298546
0.33467004
0.33638629
0.33814316
0.33994785
0.34180547
0.34371908
0.34568994
0.34771799
0.34980271
0.35194401
0.35414328
0.35640378
0.35872945
0.36112032
0.36356508
0.36603436
0.36848109
0.36846001
0.3660141
0.36354588
0.36110292
0.35871463
0.35639231
0.3541358
0.35194126
0.34980577
0.34772855
0.34571036
0.34375242
0.3418554
0.34001852
0.33823902
0.3365118
0.33482952
0.3331828
0.33156092
0.32995234
0.32834511
0.32672784
0.32508975
0.32342066
0.32171074
0.31994978
0.3181278
0.31623421
0.31425815
0.31218687
0.3100078
0.30770602
0.30526864
0.30267986
0.29992762
0.29700024
0.29390083
0.29060707
0.28711188
0.28341205
0.27951085
0.27540957
0.27112842
0.26663597
0.26820913
0.2727064
0.27698917
0.28108634
0.28497498
0.28865726
0.29212898
0.29538291
0.29843882
0.30131828
0.30401849
0.30655356
0.30893354
0.31117419
0.31329
0.31529578
0.31720477
0.3190298
0.3207828
0.32247368
0.32411362
0.32571308
0.32728219
0.32883174
0.33037286
0.33191796
0.33347993
0.33507136
0.33670395
0.33838782
0.34013074
0.34193779
0.34381135
0.34575146
0.34775659
0.34982453
0.35195357
0.35414369
0.35639722
0.35871771
0.36110526
0.3635487
0.36601891
0.36846872
0.36847091
0.36602354
0.36355508
0.36111343
0.35872808
0.35641051
0.35416105
0.35197688
0.34985663
0.34780155
0.34581473
0.34389982
0.34205971
0.34029546
0.3386053
0.33698415
0.33542353
0.33391205
0.33243635
0.33098217
0.32953487
0.32808062
0.3266069
0.3251019
0.32355489
0.32195523
0.32029225
0.3185547
0.31673081
0.31480752
0.31277182
0.31060833
0.30830238
0.30583886
0.30321142
0.30039904
0.29740126
0.29419578
0.29077388
0.28713306
0.28328654
0.27921825
0.27493217
0.27042197
0.27245112
0.27704809
0.28139801
0.28551583
0.28940399
0.29307384
0.29649911
0.29969506
0.30268424
0.30547361
0.30806882
0.31048973
0.31274259
0.31484292
0.31680635
0.31864859
0.32038251
0.32202146
0.32357798
0.32506385
0.32649075
0.32787054
0.32921512
0.33053785
0.33185359
0.33317883
0.33453097
0.33592719
0.33738371
0.33891411
0.34052809
0.34223083
0.34402309
0.34590215
0.34786303
0.34989995
0.35200781
0.35418366
0.3564275
0.35874119
0.36112376
0.36356343
0.36603051
0.36847684
0.36847953
0.36603527
0.3635704
0.36113349
0.35875463
0.3564462
0.3542101
0.35204586
0.34995541
0.34794413
0.34602006
0.34419225
0.3424689
0.34085544
0.33935265
0.33795508
0.3366508
0.3354223
0.33424839
0.33310689
0.33197563
0.33083428
0.32966535
0.32845319
0.32718467
0.32584647
0.32442616
0.32291144
0.32128981
0.31954784
0.31767397
0.3156516
0.31346491
0.31109711
0.3085356
0.30576841
0.30279713
0.29960031
0.2961771
0.29251027
0.28861323
0.28446671
0.28007665
0.27543738
0.27849075
0.28327995
0.28780535
0.2920579
0.29605339
0.2998017
0.30329901
0.3065523
0.3095693
0.31236248
0.31492687
0.31727706
0.31942512
0.32138836
0.32318349
0.32482801
0.32633202
0.32770867
0.3289709
0.33013152
0.3312041
0.33220267
0.33314219
0.33404048
0.33491886
0.33580281
0.33672147
0.3377055
0.33878499
0.3399852
0.34132291
0.34280468
0.34442739
0.34618117
0.34805263
0.35002762
0.35209369
0.35424187
0.35646751
0.3587691
0.3611434
0.36357718
0.36603978
0.36848223
0.36848512
0.36604446
0.36358439
0.36115434
0.35878581
0.35649329
0.35428194
0.35215612
0.35012445
0.34820131
0.34640607
0.34476104
0.34328819
0.34200459
0.34091631
0.34001257
0.3392655
0.33863414
0.33807261
0.33753732
0.33699063
0.33640333
0.33575245
0.33501875
0.33418582
0.33323817
0.33216171
0.33094332
0.32957135
0.32803349
0.32632201
0.32441832
0.32230628
0.31996967
0.31739492
0.31457167
0.31150676
0.30818103
0.30459739
0.30074551
0.29662829
0.29224774
0.28760568
0.28269718
0.2870757
0.29222086
0.29709025
0.30167771
0.30598518
0.31002575
0.3138049
0.31729034
0.32049341
0.32343069
0.32609314
0.32849079
0.33063341
0.33253529
0.33421091
0.33567406
0.33693551
0.3380039
0.3388873
0.3395978
0.34015216
0.340569
0.34086716
0.34107027
0.34120464
0.34130051
0.34140052
0.34155902
0.34183927
0.34230722
0.34301693
0.34399778
0.34524332
0.3467257
0.34840888
0.35025703
0.35223968
0.35433409
0.35652566
0.3588059
0.36116689
0.3635923
0.36604948
0.36848823
0.36849132
0.36605456
0.36360082
0.36118132
0.35883037
0.35656688
0.35440279
0.35235269
0.35044032
0.34870165
0.34718541
0.34594956
0.34505237
0.34452582
0.3443522
0.34445612
0.34475752
0.34517067
0.34562134
0.34604912
0.34641201
0.34668467
0.34683109
0.34680599
0.34657616
0.34611648
0.34541046
0.34445094
0.34324033
0.34178093
0.34006352
0.33807986
0.33582171
0.33328078
0.33045685
0.32733762
0.32393422
0.32023066
0.31622762
0.3119584
0.30741141
0.30258317
0.29748649
0.29212837
0.30705804
0.31223637
0.31711529
0.32173513
0.32610416
0.33017297
0.33394991
0.33744114
0.34062801
0.343511
0.34608623
0.34835444
0.35031657
0.35196497
0.35330494
0.35431039
0.3549552
0.35522324
0.35511237
0.35465186
0.35393259
0.35304159
0.35204639
0.35097107
0.34985763
0.34879556
0.34787125
0.34715451
0.34668174
0.34660072
0.3469879
0.34784935
0.34911559
0.35069371
0.35250532
0.35449311
0.35661921
0.35885995
0.36119759
0.36360954
0.36605917
0.36849386
0.36849533
0.36606253
0.36361774
0.36121536
0.35889514
0.35668478
0.35461038
0.35270919
0.35104103
0.3496968
0.34880284
0.34847391
0.34873782
0.34944214
0.35057147
0.35209582
0.35394428
0.35600647
0.35810627
0.36000386
0.36170979
0.36324414
0.36451979
0.36539882
0.36563673
0.36526149
0.36433609
0.36293116
0.36111443
0.35893105
0.35639604
0.35353194
0.35035268
0.34686781
0.34309536
0.33904446
0.33474346
0.33018472
0.32537717
0.32036387
0.3151419
0.30968465
0.30642544
0.3121785
0.31777156
0.32325996
0.32865088
0.33388287
0.3389579
0.34388938
0.34863583
0.35324735
0.35762277
0.36168119
0.36541623
0.36878627
0.371741
0.37425255
0.37621775
0.3775101
0.3779868
0.37747652
0.37605837
0.37394298
0.37139426
0.3684949
0.36471647
0.36102948
0.35774307
0.35499188
0.35284038
0.35131938
0.35044826
0.35011912
0.35050043
0.35150765
0.3529757
0.35475939
0.35676536
0.35893625
0.36123412
0.36362421
0.36606253
0.3684923
0.36849175
0.36606366
0.36363206
0.3612562
0.35898507
0.35686252
0.35494264
0.35331132
0.35211406
0.35155427
0.3517985
0.35270011
0.35447732
0.35733047
0.36091613
0.36560132
0.37126813
0.37767886
0.38491075
0.38850528
0.39151053
0.39310587
0.39317221
0.39169865
0.38902109
0.38536447
0.38094692
0.37594205
0.37047843
0.36464678
0.35849982
0.35202922
0.34523522
0.33793677
0.33212435
0.32640093
0.32075477
0.31508515
0.30935951
0.30367954
0.29805989
0.29241777
0.25786029
0.26245688
0.26784665
0.27289118
0.27696968
0.28095925
0.28598575
0.26899557
0.24667167
0.25285178
0.24567521
0.25164257
0.24527247
0.25069701
0.2442472
0.24794166
0.24081953
0.24298374
0.23564209
0.23762117
0.23128158
0.23301574
0.082157652
0.082541436
0.081375876
0.056108151
0.050406853
0.05140047
0.053914192
0.056593349
0.059294763
0.061761554
0.064014515
0.065914249
0.067562365
0.068384642
0.068288631
0.062670684
0.06690185
0.082370987
0.085290427
0.091815328
0.074063035
0.070830875
0.074536759
0.06993915
0.064672323
0.066849563
0.066078795
0.070757767
0.072879803
0.090955252
0.13636965
0.21327222
0.19638257
0.19586167
0.19962846
0.20632263
0.21208432
0.21067184
0.21096184
0.21993501
0.22860331
0.23679477
0.24469781
0.2522593
0.26006057
0.2679756
0.27630687
0.28484835
0.29386268
0.30314556
0.31288084
0.32282528
0.3330238
0.34325946
0.3536555
0.36395487
0.37417498
0.38418718
0.39394424
0.40327502
0.41208605
0.42033297
0.42796053
0.43495869
0.44094767
0.42588425
0.42516233
0.41840472
0.4066427
0.39761065
0.38719115
0.37762633
0.36966109
0.36338595
0.35857321
0.3553118
0.3535733
0.35280086
0.35284223
0.35370824
0.35515503
0.35697508
0.35904292
0.36128379
0.36364245
0.36606348
0.36848372
0.36841339
0.36841759
0.36842324
0.36842685
0.36842632
0.36842391
0.36842083
0.36841771
0.36841481
0.36841196
0.36840829
0.36840175
0.36839441
0.36838948
0.36840936
0.36845274
0.3685204
0.36857938
0.36856875
0.36859596
0.36859277
0.3686084
0.36860157
0.36859782
0.36859001
0.36858466
0.36858115
0.36857948
0.36857872
0.36857841
0.36857825
0.36857812
0.36857799
0.36857788
0.36857775
0.36857761
0.36857748
0.36857734
0.36857721
0.36857707
0.36857694
0.36857681
0.36857668
0.36857654
0.3685764
0.36857627
0.36857612
0.36857598
0.36857583
0.36857567
0.36857552
0.36857535
0.36857523
0.36857526
0.36857574
0.36857715
0.36858039
0.3685855
0.36859308
0.36859663
0.36860326
0.36858748
0.36859053
0.36856323
0.36857382
0.36857877
0.3708748
0.37091244
0.37090456
0.37094867
0.37093596
0.37095881
0.3709483
0.37094775
0.37094077
0.3709373
0.3709351
0.37093447
0.37093437
0.37093448
0.37093463
0.37093475
0.37093485
0.37093493
0.37093501
0.37093508
0.37093515
0.37093521
0.37093527
0.37093532
0.37093539
0.37093542
0.37093545
0.37093549
0.37093552
0.37093556
0.37093558
0.37093559
0.37093562
0.37093564
0.37093562
0.37093559
0.37093553
0.3709355
0.37093569
0.3709364
0.37093868
0.37094223
0.37094927
0.37094988
0.37096044
0.37093763
0.37095039
0.37090632
0.37091421
0.37087492
0.37312208
0.37311736
0.37313795
0.3731374
0.37314778
0.37314219
0.37313922
0.37313401
0.37313103
0.3731293
0.37312867
0.37312848
0.37312848
0.37312851
0.37312855
0.37312856
0.37312858
0.37312859
0.37312859
0.37312859
0.37312859
0.37312858
0.37312858
0.37312857
0.37312856
0.37312855
0.37312852
0.3731285
0.37312848
0.37312845
0.37312844
0.37312839
0.37312835
0.37312829
0.37312825
0.37312819
0.37312817
0.37312834
0.37312895
0.37313066
0.37313362
0.37313882
0.37314178
0.37314737
0.37313697
0.37313751
0.37311691
0.37312163
0.37309294
0.37309057
0.37309922
0.3731081
0.3731133
0.37311078
0.37310517
0.37309945
0.37309538
0.37309304
0.37309194
0.37309151
0.3730914
0.3730914
0.37309142
0.37309146
0.37309152
0.37309157
0.37309159
0.37309163
0.37309165
0.37309168
0.37309172
0.37309175
0.37309175
0.37309176
0.37309177
0.37309179
0.37309181
0.37309182
0.37309181
0.37309182
0.37309181
0.37309182
0.37309182
0.37309186
0.37309201
0.37309248
0.37309362
0.37309599
0.37310008
0.37310584
0.37311147
0.37311401
0.37310883
0.37309997
0.37309134
0.37309372
0.37308312
0.37307187
0.37307904
0.37309051
0.37309589
0.37309312
0.37308637
0.37307974
0.37307502
0.37307227
0.37307088
0.37307027
0.37307003
0.37306994
0.37306991
0.37306988
0.37306986
0.37306983
0.37306982
0.37306979
0.37306976
0.37306972
0.3730697
0.37306967
0.37306966
0.37306961
0.37306956
0.37306954
0.37306951
0.37306947
0.37306942
0.37306937
0.37306931
0.37306928
0.37306925
0.37306928
0.37306945
0.37307
0.37307132
0.373074
0.37307867
0.37308525
0.37309197
0.3730947
0.37308928
0.37307777
0.37307056
0.37308179
0.37307314
0.37306626
0.3730756
0.37308905
0.37309489
0.37309157
0.37308398
0.37307675
0.37307173
0.3730689
0.37306753
0.37306697
0.37306679
0.37306677
0.3730668
0.37306685
0.3730669
0.37306696
0.37306702
0.37306707
0.37306711
0.37306715
0.3730672
0.37306726
0.37306731
0.37306735
0.3730674
0.37306745
0.3730675
0.37306755
0.3730676
0.37306765
0.3730677
0.37306776
0.37306783
0.37306796
0.37306824
0.37306891
0.37307038
0.37307332
0.37307842
0.37308573
0.37309339
0.37309677
0.373091
0.37307763
0.37306835
0.37307524
0.37308281
0.37307504
0.37308601
0.3731003
0.37310592
0.3731018
0.37309336
0.3730855
0.37308012
0.37307708
0.37307556
0.37307487
0.37307455
0.37307439
0.37307427
0.37307418
0.3730741
0.37307402
0.37307393
0.37307385
0.37307377
0.3730737
0.37307363
0.37307356
0.37307349
0.37307342
0.37307335
0.37307329
0.37307323
0.37307317
0.3730731
0.37307303
0.37307297
0.37307291
0.37307286
0.37307287
0.37307303
0.37307357
0.37307493
0.37307783
0.37308308
0.37309082
0.37309916
0.37310318
0.37309746
0.37308305
0.37307199
0.37307974
0.37308123
0.37307716
0.37308927
0.3731038
0.3731091
0.37310444
0.37309554
0.37308745
0.37308205
0.37307912
0.37307778
0.37307727
0.37307713
0.37307714
0.3730772
0.37307727
0.37307735
0.37307743
0.37307751
0.37307758
0.37307767
0.37307775
0.37307783
0.37307792
0.37307801
0.37307811
0.37307821
0.37307831
0.37307842
0.37307854
0.37307866
0.37307878
0.37307891
0.37307904
0.3730792
0.3730794
0.37307975
0.37308047
0.37308202
0.37308516
0.37309074
0.37309899
0.37310803
0.37311283
0.37310768
0.37309331
0.37308132
0.37308545
0.37308813
0.37308423
0.37309635
0.37311043
0.37311507
0.37310978
0.37310035
0.37309185
0.37308614
0.37308294
0.37308135
0.3730806
0.3730802
0.37307996
0.37307976
0.37307957
0.3730794
0.37307923
0.37307907
0.37307892
0.37307878
0.37307864
0.37307852
0.37307839
0.37307827
0.37307816
0.37307806
0.37307796
0.37307785
0.37307776
0.37307768
0.37307758
0.37307748
0.3730774
0.37307733
0.3730773
0.37307742
0.3730779
0.37307921
0.37308215
0.37308762
0.37309591
0.37310514
0.37311025
0.37310542
0.37309113
0.37307884
0.37308268
0.37308155
0.37307823
0.37309046
0.37310447
0.37310899
0.37310363
0.37309423
0.37308587
0.37308038
0.37307747
0.37307618
0.37307573
0.37307563
0.37307568
0.37307576
0.37307586
0.37307597
0.37307608
0.37307618
0.37307628
0.37307641
0.37307653
0.37307665
0.37307678
0.37307693
0.37307709
0.37307724
0.37307741
0.37307758
0.37307777
0.37307798
0.37307819
0.37307841
0.37307864
0.37307889
0.37307918
0.37307962
0.37308042
0.37308204
0.37308528
0.37309107
0.3730997
0.37310933
0.37311492
0.37311065
0.37309689
0.37308487
0.37308827
0.37308849
0.37308506
0.37309695
0.37311049
0.37311456
0.37310881
0.37309908
0.37309038
0.37308456
0.37308128
0.37307962
0.37307878
0.3730783
0.37307795
0.37307766
0.37307738
0.37307712
0.37307686
0.37307662
0.37307639
0.37307619
0.37307599
0.37307581
0.37307562
0.37307545
0.3730753
0.37307516
0.37307502
0.37307488
0.37307476
0.37307464
0.37307452
0.3730744
0.37307429
0.37307419
0.37307413
0.37307421
0.37307464
0.37307591
0.3730788
0.37308426
0.37309263
0.37310208
0.37310756
0.3731032
0.37308936
0.37307723
0.37308056
0.37307997
0.37307662
0.37308872
0.37310249
0.37310679
0.37310128
0.37309183
0.37308347
0.37307802
0.37307515
0.3730739
0.37307348
0.37307342
0.37307349
0.3730736
0.37307371
0.37307385
0.37307398
0.37307411
0.37307424
0.37307439
0.37307456
0.37307472
0.37307489
0.37307508
0.37307529
0.37307549
0.37307572
0.37307595
0.37307622
0.37307649
0.37307678
0.37307708
0.3730774
0.37307774
0.37307812
0.37307865
0.37307953
0.37308123
0.37308454
0.3730904
0.37309913
0.3731089
0.37311472
0.37311075
0.37309731
0.3730855
0.37308896
0.37308974
0.37308628
0.37309807
0.37311148
0.37311544
0.3731096
0.37309981
0.37309106
0.37308517
0.37308183
0.3730801
0.37307919
0.37307863
0.37307821
0.37307784
0.37307749
0.37307716
0.37307684
0.37307653
0.37307624
0.37307598
0.37307574
0.37307551
0.37307528
0.37307507
0.37307489
0.37307472
0.37307455
0.37307439
0.37307424
0.3730741
0.37307395
0.37307381
0.37307368
0.37307356
0.37307349
0.37307354
0.37307396
0.37307519
0.37307806
0.3730835
0.37309186
0.3731013
0.37310681
0.3731025
0.37308873
0.37307664
0.37307999
0.37308057
0.37307724
0.37308938
0.37310323
0.3731076
0.37310214
0.37309271
0.37308436
0.37307892
0.37307605
0.37307481
0.3730744
0.37307435
0.37307444
0.37307456
0.37307469
0.37307484
0.373075
0.37307514
0.3730753
0.37307547
0.37307565
0.37307584
0.37307603
0.37307625
0.37307649
0.37307673
0.37307699
0.37307726
0.37307757
0.37307789
0.37307823
0.37307857
0.37307894
0.37307933
0.37307977
0.37308034
0.37308127
0.37308302
0.37308638
0.37309228
0.37310104
0.37311083
0.37311662
0.37311261
0.37309912
0.37308728
0.37309072
0.37309166
0.37308825
0.37310022
0.37311389
0.3731181
0.37311244
0.37310274
0.37309402
0.37308813
0.37308477
0.37308301
0.37308209
0.37308155
0.37308112
0.37308073
0.37308036
0.37308001
0.37307968
0.37307935
0.37307904
0.37307876
0.37307849
0.37307824
0.373078
0.37307778
0.37307758
0.37307739
0.3730772
0.37307703
0.37307687
0.37307672
0.37307656
0.37307641
0.37307627
0.37307613
0.37307604
0.37307606
0.37307646
0.3730777
0.37308058
0.37308603
0.37309436
0.37310373
0.37310906
0.37310452
0.3730905
0.37307825
0.37308156
0.37308269
0.37307886
0.37309118
0.37310548
0.37311035
0.37310528
0.37309608
0.37308784
0.37308242
0.37307953
0.37307827
0.37307787
0.37307795
0.37307818
0.37307835
0.37307851
0.37307867
0.37307882
0.37307898
0.37307913
0.37307931
0.3730795
0.37307969
0.37307989
0.37308011
0.37308035
0.3730806
0.37308086
0.37308114
0.37308145
0.37308177
0.37308209
0.37308243
0.37308278
0.3730831
0.37308338
0.3730838
0.3730847
0.37308643
0.37308976
0.37309559
0.37310418
0.37311366
0.37311901
0.37311443
0.37310042
0.37308835
0.37309225
0.37308979
0.3730857
0.37309766
0.373112
0.37311712
0.37311232
0.37310325
0.37309495
0.37308927
0.37308602
0.37308433
0.37308348
0.37308313
0.37308328
0.37308335
0.37308312
0.37308283
0.37308252
0.37308222
0.37308194
0.37308167
0.37308141
0.37308117
0.37308094
0.37308072
0.37308053
0.37308034
0.37308016
0.37307998
0.37307983
0.37307967
0.37307951
0.37307933
0.37307909
0.37307856
0.37307794
0.37307783
0.37307824
0.37307952
0.37308239
0.37308772
0.37309576
0.3731046
0.37310922
0.37310389
0.37308932
0.37307719
0.37308125
0.37307975
0.37307202
0.37308311
0.37309755
0.37310332
0.37309935
0.37309107
0.3730834
0.37307822
0.37307539
0.37307411
0.37307368
0.37307379
0.3730745
0.3730759
0.37307682
0.37307712
0.37307731
0.37307747
0.37307763
0.37307779
0.37307797
0.37307815
0.37307834
0.37307854
0.37307876
0.37307899
0.37307923
0.37307949
0.37307975
0.37308001
0.37308026
0.37308039
0.3730799
0.37307893
0.37307863
0.37307891
0.37307971
0.37308133
0.37308446
0.37308987
0.37309773
0.37310613
0.37311019
0.37310452
0.3730902
0.3730792
0.37308691
0.37307874
0.37307195
0.37308133
0.37309482
0.37310073
0.37309749
0.37308995