/*--------------------------------*- C++ -*----------------------------------*\
| =========                 |                                                 |
| \\      /  F ield         | OpenFOAM: The Open Source CFD Toolbox           |
|  \\    /   O peration     | Version:  v2012                                 |
|   \\  /    A nd           | Website:  www.openfoam.com                      |
|    \\/     M anipulation  |                                                 |
\*---------------------------------------------------------------------------*/
FoamFile
{
    version     2.0;
    format      ascii;
    class       volScalarField;
    location    "100";
    object      p;
}
// * * * * * * * * * * * * * * * * * * * * * * * * * * * * * * * * * * * * * //

dimensions      [0 2 -2 0 0 0 0];


internalField   nonuniform List<scalar> 
48571
(
-0.18180725
-0.18146789
-0.18114744
-0.18231555
-0.18266652
-0.18340906
-0.1846274
-0.18638269
-0.1886559
-0.19141697
-0.19455301
-0.19798287
-0.20160627
-0.20533895
-0.2090961
-0.21279531
-0.21635484
-0.21969585
-0.22272828
-0.22537743
-0.22755051
-0.2292148
-0.23037715
-0.2310845
-0.23144547
-0.23073276
-0.22933797
-0.22708522
-0.22392164
-0.21986792
-0.21497668
-0.20939217
-0.20316895
-0.19637652
-0.18904006
-0.18118953
-0.17285538
-0.16407516
-0.15488928
-0.1453394
-0.13546667
-0.12531069
-0.1149091
-0.10429732
-0.093508518
-0.082573738
-0.071522111
-0.060381192
-0.049177409
-0.037936526
-0.026684105
-0.015446036
-0.0042490793
0.0068786791
0.01790738
0.028804977
0.039536959
0.050066102
0.060352353
0.07035293
0.080022593
0.089314544
0.098182286
0.106581
0.11447283
0.12181793
0.12858427
0.13468106
0.14005838
0.14451803
0.14803791
0.15051269
0.15206866
0.15283893
0.15590401
0.16201549
0.17207147
0.18665854
0.20596644
0.23001391
0.25822801
0.2902194
0.32539086
0.36324262
0.40312673
0.44426668
0.48576344
0.52656973
0.56528827
0.60053776
0.63048001
0.65410332
0.67086883
0.68112486
0.68610835
0.68284616
0.67657002
0.66652961
0.65278076
0.63561722
0.61559117
0.59354371
0.56991916
0.54516551
0.51952387
0.49322539
0.46647246
0.4394616
0.41236922
0.38534917
0.35853048
0.33201802
0.30589484
0.28022489
0.25505554
0.23042036
0.20634162
0.18283248
0.15989901
0.13754222
0.11576
0.094549076
0.073906754
0.053832693
0.034330329
0.015408217
-0.0029187267
-0.020628469
-0.037691598
-0.054071404
-0.069725077
-0.084605228
-0.098663376
-0.11185475
-0.12413657
-0.13547189
-0.14583003
-0.15509841
-0.16320059
-0.16989986
-0.17513398
-0.1788446
-0.17913125
-0.17537961
-0.17012179
-0.16338934
-0.15530366
-0.14600304
-0.13561232
-0.12421787
-0.11187024
-0.098611801
-0.08448752
-0.069542356
-0.05382525
-0.037383264
-0.020259223
-0.0024896067
0.015896528
0.034877334
0.054438282
0.074571505
0.095274658
0.11654906
0.13839824
0.16082689
0.18383826
0.20743242
0.23160459
0.25634273
0.28162598
0.30742238
0.33368553
0.36035262
0.38734228
0.41455135
0.44185268
0.46909466
0.49610251
0.52268111
0.54861779
0.57367298
0.59755707
0.61987325
0.64008663
0.65753229
0.6715602
0.68185315
0.6883558
0.69145316
0.70782088
0.73682818
0.78125103
0.84392365
0.92879004
1.0390056
1.1813927
1.3615591
1.5998211
1.9266626
2.3566262
2.9066749
3.6043196
4.5374106
5.622564
7.1482422
8.8448622
10.775877
12.186324
10.095077
7.5048435
5.6225905
3.7060284
2.4852135
1.7152493
0.73392154
0.12900577
-0.70685889
-1.1011652
-1.1443368
-1.2861791
-1.6389808
-2.1931563
-2.3235843
-2.6190368
-2.7619817
-2.8480064
-3.0571651
-3.2264016
-3.4084803
-3.5753797
-3.5343843
-3.6959712
-3.7279548
-3.9803544
-3.9118737
-4.1315132
-3.9718129
-4.0316962
-4.1304542
-4.3055644
-4.3792556
-4.4625475
-4.3799871
-4.4962488
-4.4530818
-4.5625438
-4.5227291
-4.5880784
-4.5735447
-4.5991429
-4.6123657
-4.5861275
-4.6556631
-4.5683658
-4.6886686
-4.5858358
-4.6150472
-4.6112993
-4.5482626
-4.6586866
-4.5441829
-4.5428227
-4.5709796
-4.4820385
-4.5295327
-4.4755558
-4.4164619
-4.4865241
-4.4031435
-4.3412112
-4.4138432
-4.3154324
-4.2621386
-4.3173868
-4.2360495
-4.1684558
-4.2009829
-4.1550448
-4.0753094
-4.0682443
-4.0853835
-3.9816403
-3.9396309
-3.9771906
-3.8987159
-3.8208137
-3.8106693
-3.8268379
-3.7340503
-3.6770164
-3.6617404
-3.6365093
-3.5617544
-3.5185513
-3.4895847
-3.3899696
-3.3211336
-3.3042006
-3.2167911
-3.2112516
-3.2324218
-3.1703564
-3.0489111
-3.0182534
-3.0025714
-2.9732337
-2.9563259
-2.9622151
-2.8810861
-2.827085
-2.7983574
-2.7751177
-2.7559879
-2.7038704
-2.621768
-2.5844439
-2.5554898
-2.530399
-2.4598705
-2.3873721
-2.3457988
-2.3024947
-2.2399569
-2.1382104
-0.35307499
-0.32821089
-0.30647507
-0.28747215
-0.27085014
-0.25630278
-0.24356711
-0.23241973
-0.22267202
-0.21416649
-0.20677587
-0.2004026
-0.1949859
-0.19049903
-0.18694164
-0.18429126
-0.1824894
-0.18010773
-0.17626952
-0.17090194
-0.1640594
-0.15586861
-0.14646391
-0.13594129
-0.12439399
-0.11188048
-0.09844303
-0.084133805
-0.069001016
-0.053096281
-0.036468266
-0.019160905
-0.001210993
0.017352804
0.036509551
0.056246268
0.07655724
0.097442823
0.11890741
0.14095759
0.16360165
0.18684652
0.21069577
0.23514844
0.26019623
0.28582216
0.31199831
0.3386823
0.36581509
0.39331951
0.42109644
0.44902192
0.47694657
0.5046958
0.53207137
0.55885195
0.58478531
0.60956558
0.63278797
0.65390024
0.67221228
0.68705127
0.6979547
0.70490318
0.73393327
0.7779109
0.83987229
0.92308224
1.0313236
1.1708461
1.3482468
1.5831972
1.9095482
2.3555963
2.972421
3.9279005
5.3141891
5.2744199
6.1226011
7.416954
10.316743
9.2359887
8.8438797
8.55549
8.5825144
9.5091795
9.9996718
10.632577
11.622478
12.374303
10.763442
11.953685
13.071629
12.855999
12.660914
10.984549
10.719462
8.1758182
5.8939696
3.6589903
2.233625
1.4533227
0.40530996
0.1803706
-0.7734456
-1.385584
-1.5035426
-1.6569466
-1.6511203
-2.0584785
-1.7585823
-1.3636672
-0.63656251
-0.50577643
0.3271636
1.5533761
2.2645288
3.8449545
6.323649
8.8494299
10.691019
12.762802
12.289038
12.056127
12.91828
12.017475
11.15609
9.3016528
7.0035163
4.3398602
2.3454985
1.7611721
0.21648774
-0.646424
-0.5253336
-1.3901456
-1.9756552
-2.0888492
-2.1288884
-2.1618766
-2.0721024
-2.387825
-2.6524993
-2.8360321
-2.9516794
-3.00103
-3.2595798
-3.4755155
-3.6421958
-3.7181811
-3.6055973
-3.7851751
-3.8523042
-3.7599098
-3.9632915
-4.0330497
-4.1777641
-4.0808441
-4.0980891
-4.1056617
-4.1987801
-4.2421938
-4.1716446
-4.0882302
-3.9156282
-3.7558116
-3.8423833
-3.7139067
-3.6264541
-3.4787834
-3.2535279
-2.9739792
-3.083009
-2.8271093
-2.6084999
-2.6287019
-2.9471002
-3.1299451
-3.0364643
-3.2130562
-3.2660061
-3.5140688
-3.7064875
-3.7746705
-3.9925267
-3.8144287
-3.8631738
-3.9147981
-4.1004679
-4.1591092
-4.24701
-4.2369209
-4.289187
-4.4127065
-4.3837402
-4.4837774
-4.4228104
-4.4422323
-4.4877651
-4.5418208
-4.5495877
-4.5703406
-4.5904675
-4.5928847
-4.6183707
-4.5985028
-4.6436744
-4.5948982
-4.6589002
-4.6131492
-4.6071213
-4.6144373
-4.5710773
-4.6257189
-4.5696462
-4.5416171
-4.5612993
-4.5056687
-4.5192515
-4.4704398
-4.4325152
-4.4728434
-4.4113317
-4.352436
-4.3972307
-4.323442
-4.272184
-4.3036048
-4.2401118
-4.1794065
-4.192317
-4.1511078
-4.0848809
-4.0644403
-4.0776888
-3.9933672
-3.9404928
-3.9610662
-3.907366
-3.8264913
-3.8056282
-3.8082236
-3.7434006
-3.6891047
-3.6442089
-3.6142302
-3.5841436
-3.5624269
-3.5743609
-3.5933122
-3.6356977
-3.7064279
-3.7474452
-3.7930589
-3.808046
-3.838323
-3.9141429
-3.9472582
-3.9485234
-4.0095765
-4.0685776
-4.0690677
-4.0909735
-4.1462283
-4.1941755
-4.1914469
-4.2387667
-4.2990489
-4.2879782
-4.3238736
-4.3903541
-4.368248
-4.4158808
-4.4715404
-4.4454451
-4.4544076
-4.526925
-4.5340457
-4.543331
-4.560725
-4.5827405
-4.5992117
-4.6117895
-4.6040281
-4.621814
-4.6258371
-4.6442234
-4.6276771
-4.6316525
-4.6308169
-4.6144257
-4.6098373
-4.5964662
-4.5778489
-4.5655815
-4.5542598
-4.4907297
-4.4060472
-4.4472737
-4.5051534
-4.5237259
-4.4995284
-4.5254674
-4.5497797
-4.5352024
-4.6595826
-4.5425804
-4.5433635
-4.501876
-4.5229504
-4.4115013
-4.4496834
-4.5794187
-4.5654275
-4.6092445
-4.5924373
-4.6351317
-4.6169203
-4.6472989
-4.6432544
-4.6259303
-4.6680599
-4.6072183
-4.6593796
-4.5977888
-4.6216856
-4.6133917
-4.5622814
-4.5991765
-4.5386388
-4.5327228
-4.5610184
-4.4427746
-4.4311055
-4.4955958
-4.4210396
-4.3656737
-4.4055518
-4.3239084
-4.2867402
-4.3146011
-4.2371088
-4.1881484
-4.2103474
-4.1471035
-4.0837205
-4.0778015
-4.066141
-4.0193301
-3.95761
-3.9463529
-3.9080361
-3.8517449
-3.8152738
-3.7849668
-3.7437004
-3.7082538
-3.6467204
-3.5975669
-3.5785168
-3.4996276
-3.3995782
-3.3376271
-3.2888514
-3.2093379
-3.1935039
-3.1880809
-3.1900894
-3.1874531
-3.186063
-3.1773609
-3.1802415
-3.1876829
-3.193875
-3.1991363
-3.2016891
-3.205425
-3.2115549
-3.2241186
-3.2337824
-3.2387698
-3.2414967
-3.2492274
-3.2559354
-3.2551848
-3.2918791
-3.3359959
-3.3602826
-3.3731109
-3.3789463
-3.3916908
-3.4006363
-3.4113365
-3.4203475
-3.4297055
-3.4371475
-3.450797
-3.4574226
-3.4594753
-3.4738705
-3.4976707
-3.5107393
-3.5071819
-3.5000661
-3.5006664
-3.5440826
-3.6168389
-3.6214726
-3.638683
-3.6524278
-3.6717343
-3.6862395
-3.6987032
-3.7055552
-3.7218255
-3.7361943
-3.7525836
-3.7561
-3.7522201
-3.8095736
-3.8556788
-3.8763362
-3.9001883
-3.9107514
-3.9234832
-3.9151411
-3.8893352
-3.8705198
-3.8836385
-3.8167436
-3.7266138
-3.7504875
-3.7420139
-3.7186364
-3.7029793
-3.6994944
-3.6959188
-3.6809898
-3.6607052
-3.644946
-3.642014
-3.6432058
-3.6611563
-3.5418365
-3.5066035
-3.5312978
-3.542087
-3.5176326
-3.4812267
-3.464566
-3.4705772
-3.476936
-3.4600783
-3.4405103
-3.4324467
-3.4237666
-3.4109232
-3.3967615
-3.3863118
-3.3776034
-3.3660696
-3.3516026
-3.3565173
-3.2862789
-3.2205736
-3.2411311
-3.2450933
-3.243547
-3.2385304
-3.226098
-3.21605
-3.2082638
-3.2065971
-3.2029181
-3.1949306
-3.1819755
-3.1714636
-3.1653857
-3.1666326
-3.1690949
-3.1654638
-3.1581171
-3.1521076
-3.1551689
-3.1627953
-3.1631453
-3.2318996
-3.216273
-3.1145779
-3.1455483
-3.1256428
-3.1312668
-3.0917054
-3.0052573
-3.0822852
-3.1639717
-3.225346
-3.3013033
-3.3823264
-3.472682
-3.5208652
-3.5649782
-3.5975982
-3.6266891
-3.6748325
-3.7252267
-3.7477089
-3.7746714
-3.827148
-3.8717953
-3.8878791
-3.9268551
-3.9808565
-3.995341
-4.0233199
-4.0694505
-4.1042011
-4.1120767
-4.1627462
-4.2002954
-4.2041796
-4.242527
-4.2878148
-4.2771996
-4.3240475
-4.3562562
-4.3484219
-4.3821836
-4.4093159
-4.4019603
-4.4488006
-4.4369221
-4.4516462
-4.4924727
-4.4586877
-4.4843289
-4.4810706
-4.4678604
-4.5036328
-4.4519941
-4.4818902
-4.4403951
-4.4423748
-4.4145155
-4.394492
-4.3727717
-4.3338758
-4.3178726
-4.2614124
-4.2436862
-4.1771306
-4.1263916
-4.0517949
-3.8132314
-3.7057929
-3.835952
-3.8113683
-3.5407543
-3.3966729
-3.1316381
-2.8283152
-2.42528
-1.9763844
-1.4951458
-0.90613942
-0.26081213
0.47403649
1.1731133
1.8320818
2.1398351
1.9035418
2.6063981
2.3593063
2.1007923
1.812139
1.5566649
1.3507873
1.1889728
1.0550023
0.94570518
0.85773178
0.7884849
0.73586543
0.69796259
0.67271326
0.65857818
0.6344025
0.60376561
0.56795268
0.52857927
0.48718185
0.44509632
0.40342331
0.36307518
0.32483124
0.2893378
0.25713219
0.22873495
0.20461115
0.18514183
0.17046478
0.16031832
0.15416473
0.15118873
0.14604383
0.13693713
0.12334318
0.10488873
0.081227019
0.052506689
0.018521505
-0.020886645
-0.066053604
-0.11728285
-0.17480755
-0.23872139
-0.30893321
-0.38515816
-0.46691371
-0.55348513
-0.6439406
-0.73713533
-0.83180328
-0.926259
-1.0190462
-1.1089637
-1.1944997
-1.274346
-1.3473006
-1.4123681
-1.4686728
-1.5156414
-1.5527089
-1.5797936
-1.5964991
-1.603356
-1.6014903
-1.5887659
-1.5668011
-1.5364475
-1.4981435
-1.4525679
-1.4004903
-1.342696
-1.2800003
-1.2132334
-1.1432368
-1.0708606
-1.0717757
-1.1446442
-1.2151369
-1.2823952
-1.3455824
-1.4038572
-1.4564033
-1.5024282
-1.5411636
-1.5719337
-1.5942632
-1.6073801
-1.6098897
-1.6028203
-1.5860877
-1.5591022
-1.5220124
-1.4749301
-1.4183839
-1.3529621
-1.2795343
-1.1991056
-1.1128788
-1.0221859
-0.92855119
-0.83320285
-0.73764457
-0.64359486
-0.55234874
-0.46507868
-0.38273703
-0.30604723
-0.23548784
-0.17134195
-0.11368113
-0.062398292
-0.017258244
0.022049359
0.055843118
0.084375335
0.10780249
0.12617944
0.13972112
0.14888494
0.15508974
0.14602543
0.13265831
0.11450623
0.091359184
0.063123557
0.029611874
-0.0094789541
-0.054509249
-0.10582969
-0.16371401
-0.22830478
-0.29956284
-0.37721538
-0.46078936
-0.54954379
-0.6424862
-0.73838327
-0.83588428
-0.93318894
-1.0286994
-1.1211323
-1.2089199
-1.2906841
-1.3652005
-1.4314485
-1.4885683
-1.5359774
-1.5732062
-1.6001785
-1.6168341
-1.6235947
-1.62006
-1.6062267
-1.5831477
-1.5514971
-1.5118198
-1.4648093
-1.4112373
-1.3519087
-1.2876484
-1.2193041
-1.1477253
-1.0737776
-1.0771602
-1.1529372
-1.2263568
-1.2965369
-1.3626103
-1.4237248
-1.4790285
-1.5277058
-1.568978
-1.6021221
-1.6265213
-1.6415455
-1.6463457
-1.640446
-1.6241931
-1.5973034
-1.5598342
-1.5118462
-1.453746
-1.3860941
-1.3097319
-1.2256947
-1.1352436
-1.0398308
-0.94108959
-0.84042215
-0.73958227
-0.64049937
-0.54463918
-0.45333927
-0.36766044
-0.28837635
-0.21595437
-0.15063653
-0.092405295
-0.041055767
0.0037572009
0.042456061
0.075472846
0.10317735
0.12581433
0.14352182
0.15653874
0.1653734
0.18032017
0.17190094
0.15946475
0.14248651
0.12067429
0.0938184
0.061593021
0.023536862
-0.020883696
-0.072197236
-0.13087044
-0.19723048
-0.2713406
-0.35304904
-0.4418933
-0.53704944
-0.63734915
-0.74129373
-0.84720945
-0.95298749
-1.0566377
-1.1565461
-1.2509972
-1.3384311
-1.417536
-1.4872631
-1.546793
-1.5955952
-1.6333244
-1.6599361
-1.6754048
-1.6799927
-1.6735213
-1.6566958
-1.6302878
-1.5949183
-1.5512774
-1.5001206
-1.4422519
-1.3785142
-1.3097593
-1.2368625
-1.1607166
-1.0822254
-1.0890359
-1.1712182
-1.2510657
-1.3276445
-1.4000384
-1.4673458
-1.5286862
-1.583207
-1.6300725
-1.6684764
-1.6976879
-1.7170575
-1.7257781
-1.72303
-1.7087909
-1.6827417
-1.6448297
-1.5950508
-1.5336765
-1.4611967
-1.378391
-1.2863174
-1.1863501
-1.0801874
-0.96966457
-0.85669164
-0.74360199
-0.63277897
-0.52621263
-0.42564566
-0.3324079
-0.2473896
-0.17102964
-0.10337836
-0.044219282
0.0069026553
0.050637037
0.087682211
0.11870796
0.1443001
0.16489558
0.18080264
0.19238111
0.20017692
0.22479428
0.21785591
0.20745374
0.19301981
0.17411358
0.15030238
0.12100687
0.085479039
0.042859103
-0.0077647567
-0.067277265
-0.13639359
-0.21553304
-0.30478876
-0.4037844
-0.51154649
-0.62651106
-0.74657463
-0.86928705
-0.99184997
-1.1114561
-1.2258117
-1.3329141
-1.4309014
-1.518337
-1.5941702
-1.6576817
-1.7084556
-1.7463341
-1.7714195
-1.7839021
-1.7841863
-1.7725773
-1.749833
-1.7169647
-1.6746492
-1.623654
-1.564836
-1.4990642
-1.4272211
-1.3502168
-1.2689751
-1.184435
-1.0975593
-1.1076704
-1.20026
-1.2904973
-1.3773894
-1.4599752
-1.5373118
-1.6084703
-1.6725347
-1.7285904
-1.7757476
-1.8132299
-1.8401986
-1.8554988
-1.8584063
-1.8483405
-1.824758
-1.7872815
-1.7356565
-1.669893
-1.5902487
-1.4973492
-1.3921999
-1.2762799
-1.1516223
-1.0204527
-0.88553603
-0.75031595
-0.61820998
-0.49232929
-0.37530662
-0.26903816
-0.17459275
-0.092232855
-0.021655554
0.037894353
0.087508434
0.12837963
0.16170254
0.18858465
0.20997542
0.22662564
0.23911386
0.24797663
0.25381651
0.28679798
0.28233044
0.27542081
0.26543192
0.25171973
0.23354221
0.20995119
0.1797576
0.14155079
0.093756006
0.03473279
-0.037061926
-0.1229385
-0.2235468
-0.33881341
-0.46756925
-0.60744248
-0.75501455
-0.90622103
-1.0567329
-1.2022756
-1.3395379
-1.4660131
-1.5795163
-1.6785799
-1.7623126
-1.8302544
-1.8823472
-1.9188337
-1.9401787
-1.946989
-1.9400046
-1.9200354
-1.8879604
-1.8448774
-1.7918671
-1.7297788
-1.6595092
-1.5820092
-1.4982242
-1.4090938
-1.3155723
-1.2186352
-1.1193003
-1.1324413
-1.2395709
-1.3442121
-1.4453371
-1.5419706
-1.6331607
-1.7179566
-1.7953953
-1.8645431
-1.9244926
-1.9741604
-2.0123955
-2.0381128
-2.0502215
-2.0477337
-2.0296161
-1.9949818
-1.9430641
-1.8733245
-1.7855211
-1.6798567
-1.5569952
-1.4182677
-1.265918
-1.1027716
-0.93273378
-0.76115039
-0.59371645
-0.43590814
-0.292327
-0.16603432
-0.058282841
0.031169893
0.10365059
0.16114981
0.20591568
0.24018963
0.26602831
0.28520892
0.29919518
0.30915175
0.31599444
0.32047809
0.32326264
0.36267019
0.36192069
0.36039945
0.35744698
0.35221091
0.34360514
0.33024396
0.31036366
0.28175803
0.24176943
0.18735785
0.11529649
0.022509682
-0.093328938
-0.23308255
-0.39545918
-0.57627691
-0.76913962
-0.96653067
-1.1608168
-1.3453387
-1.5155578
-1.6682886
-1.8013346
-1.9137276
-2.0052148
-2.0759661
-2.126607
-2.1581561
-2.1717799
-2.168684
-2.150198
-2.1175173
-2.0719235
-2.0146029
-1.9467023
-1.8694134
-1.7838022
-1.6907751
-1.5912627
-1.4862007
-1.3765219
-1.2631828
-1.147198
-1.1637174
-1.2896243
-1.4126406
-1.5317934
-1.6461762
-1.7549099
-1.8571291
-1.9519436
-2.0383539
-2.1152264
-2.1813499
-2.2354844
-2.2764634
-2.302729
-2.3129345
-2.3053676
-2.2784413
-2.2305164
-2.1600772
-2.0658794
-1.9472297
-1.8038232
-1.6361734
-1.4459983
-1.2363873
-1.0122933
-0.78181388
-0.55543585
-0.34409713
-0.15728013
-0.0010550547
0.12368442
0.21896824
0.28871347
0.33765151
0.37037948
0.39098143
0.40284138
0.40864186
0.41045003
0.40985456
0.40808481
0.40605702
0.40438992
0.44765639
0.45213462
0.45832596
0.46571505
0.47338169
0.48001234
0.48387096
0.48262805
0.47311664
0.45111663
0.4112185
0.34692483
0.25097176
0.11654709
-0.060201877
-0.27778863
-0.5278489
-0.79718142
-1.0699967
-1.3317702
-1.572477
-1.7860904
-1.9692947
-2.121611
-2.2447221
-2.3400062
-2.4082879
-2.4514593
-2.4717347
-2.4712993
-2.4522292
-2.4166343
-2.3659736
-2.3021484
-2.2261067
-2.1392076
-2.0427956
-1.9379652
-1.8257072
-1.7069666
-1.582515
-1.4531057
-1.3195478
-1.182722
-1.4981428
-1.6385062
-1.7737407
-1.9032816
-2.0264191
-2.1422303
-2.2497697
-2.3478288
-2.4348078
-2.5090815
-2.5706725
-2.6170823
-2.646899
-2.6573958
-2.646108
-2.6101584
-2.5465545
-2.4526225
-2.3269114
-2.1647434
-1.9634047
-1.7241586
-1.4470032
-1.1389908
-0.81192158
-0.48476515
-0.18244117
0.072667085
0.26958219
0.41151847
0.50524254
0.55901468
0.58464013
0.59114575
0.5855735
0.57301464
0.55704962
0.5401549
0.52409736
0.51017108
0.49920663
0.49153586
0.5348882
0.54608338
0.56236454
0.58368504
0.60943772
0.63850904
0.66929905
0.69941313
0.72508156
0.74041372
0.73692408
0.70111981
0.62063315
0.48111133
0.26042565
-0.049767659
-0.42825455
-0.83598105
-1.2327836
-1.595348
-1.9116536
-2.1769706
-2.394695
-2.5642836
-2.6909864
-2.7811066
-2.8368439
-2.8623737
-2.8617113
-2.8385081
-2.7957497
-2.736748
-2.6629594
-2.5775316
-2.4787386
-2.3691545
-2.2500911
-2.122845
-1.9884267
-1.8477755
-1.7014287
-1.5497604
-1.6059219
-1.7690967
-1.9269968
-2.0793306
-2.2260205
-2.366045
-2.4990234
-2.62426
-2.7376983
-2.8319904
-2.9183436
-2.9912595
-3.0487373
-3.0869499
-3.1021619
-3.0900918
-3.045629
-2.9620947
-2.8339554
-2.660258
-2.4345452
-2.1516926
-1.8006486
-1.3738511
-0.89058607
-0.37276582
0.1171445
0.5137109
0.7736743
0.90304127
0.94966335
0.94778597
0.91975245
0.87413163
0.82242953
0.77061874
0.72223954
0.67919914
0.64263167
0.61325354
0.59127243
0.57633387
0.61422959
0.63294613
0.66073691
0.69842083
0.74645869
0.80476814
0.87306956
0.95051299
1.0347245
1.119618
1.2002362
1.2654584
1.2780863
1.1705484
0.85455956
0.31473325
-0.33593483
-1.0036777
-1.5952085
-2.1160371
-2.5086305
-2.7909705
-3.0129478
-3.1793685
-3.2934484
-3.3577135
-3.3814694
-3.3725428
-3.3365346
-3.2780971
-3.2015146
-3.1104358
-3.0076351
-2.8946395
-2.7806729
-2.6405847
-2.4938446
-2.3401524
-2.1810996
-2.018152
-1.8492892
-1.6748643
-1.9275371
-2.1066489
-2.2811496
-2.4545769
-2.6260237
-2.7811502
-2.9172318
-3.0586707
-3.0974216
-3.0181478
-2.9197631
-2.8568067
-2.7578694
-2.6782229
-2.5758455
-2.4952811
-2.395286
-2.3164249
-2.2170032
-2.1362311
-2.0374717
-1.9538463
-2.0734097
-2.1690942
-2.2536213
-2.3352
-2.3752012
-2.4253016
-2.4813722
-2.5219497
-2.5619894
-2.6030126
-2.6607779
-2.710159
-2.7492585
-2.7833245
-2.8228861
-2.8555262
-2.890106
-2.8699323
-2.8745375
-2.9229076
-2.9659202
-3.0084687
-3.0393737
-3.1092423
-3.1134314
-3.0733366
-3.1290486
-3.0883247
-3.0950143
-3.0853351
-3.0076478
-2.9192932
-2.9389558
-3.011713
-3.091476
-3.1469903
-3.2332205
-3.3154279
-3.3890915
-3.4585189
-3.5308725
-3.5969833
-3.6658386
-3.7285432
-3.7906367
-3.8471361
-3.9031622
-3.9518179
-4.0010759
-4.038386
-4.0770804
-4.1024506
-4.1273658
-4.1367973
-4.1457477
-4.1351052
-4.1225179
-4.0873797
-4.0469521
-3.9813742
-3.9092799
-3.8051143
-3.7008932
-3.6016597
-3.4361365
-3.0311864
-2.7475872
-2.6072631
-1.9524991
-1.2236736
-0.34719161
0.56870707
1.3535303
1.694649
1.7525164
1.6545565
1.4954894
1.3365083
1.1978899
1.0763254
0.97046925
0.88115242
0.80731729
0.74804651
0.70237058
0.66911741
0.64684727
0.64434457
0.61162327
0.57379144
0.53253467
0.4893961
0.44570405
0.40259437
0.36101471
0.32174578
0.28543077
0.2525968
0.22368579
0.1990867
0.17914636
0.16411025
0.15387787
0.14785951
0.14515671
0.14365505
0.14120381
0.13777119
0.13338274
0.12815045
0.12217809
0.11555511
0.10834203
0.10058595
0.092328003
0.083609695
0.074474721
0.064968178
0.055135085
0.045019124
0.03466166
0.024101338
0.013374375
0.0025143256
-0.0084478856
-0.019483408
-0.030565101
-0.041667072
-0.05276424
-0.063831896
-0.074845118
-0.085778007
-0.096603501
-0.10729292
-0.11781548
-0.12813812
-0.13822533
-0.14803923
-0.15754004
-0.16668641
-0.17543652
-0.18374899
-0.19158503
-0.19890891
-0.20568744
-0.21188251
-0.21744429
-0.2222987
-0.22635526
-0.22953454
-0.23180967
-0.23323165
-0.23386276
-0.23202995
-0.23134678
-0.22993371
-0.22766542
-0.22449916
-0.220445
-0.21558358
-0.21001023
-0.20380146
-0.19701026
-0.18967357
-0.18182283
-0.17349158
-0.16471726
-0.15554026
-0.14600193
-0.13614327
-0.12600384
-0.11562132
-0.10503114
-0.094266464
-0.083358235
-0.07233547
-0.061225615
-0.050055
-0.038849157
-0.027633367
-0.016433354
-0.0052756674
0.0058118358
0.01679955
0.027655731
0.03834608
0.048833542
0.059078512
0.069038706
0.078669448
0.087924743
0.096758756
0.10512746
0.11299002
0.12030549
0.12702765
0.13308806
0.13839911
0.14284092
0.14632163
0.14880956
0.15035793
0.15325461
0.15510446
0.15347429
0.15091154
0.14732963
0.1427941
0.13737594
0.13121616
0.12439096
0.11696786
0.10899205
0.10050512
0.091548743
0.08216821
0.072410533
0.062322762
0.05195048
0.041336785
0.030521986
0.019543642
0.0084364903
-0.0027672641
-0.014037663
-0.025346593
-0.036667329
-0.047974014
-0.059241168
-0.070443041
-0.081553233
-0.092544369
-0.10338733
-0.11405123
-0.12450292
-0.1347069
-0.14462561
-0.15421955
-0.16344785
-0.17226902
-0.18064274
-0.18853155
-0.19590209
-0.20272296
-0.20895857
-0.21455664
-0.21944233
-0.22351504
-0.22669353
-0.22896206
-0.23037496
-0.22966031
-0.22823817
-0.22595271
-0.22274129
-0.21862569
-0.213697
-0.20805348
-0.20177021
-0.19489344
-0.18745948
-0.17950046
-0.17105091
-0.16214896
-0.1528353
-0.14315162
-0.133139
-0.12283688
-0.11228275
-0.10151213
-0.090558089
-0.079451394
-0.068221022
-0.056894158
-0.045496923
-0.034055024
-0.022593895
-0.01113927
0.00028214609
0.011642177
0.022910664
0.034055015
0.045040124
0.055827866
0.066377103
0.076643805
0.086581233
0.09614097
0.10527427
0.11393385
0.12207528
0.12965467
0.13662536
0.14292994
0.14848081
0.15314861
0.15684632
0.15952388
0.16123988
0.17129261
0.16948728
0.16667637
0.16281993
0.15795652
0.15218956
0.14564679
0.13842365
0.13057944
0.12215958
0.11321123
0.10378226
0.093923105
0.083685314
0.073119676
0.062274823
0.05119646
0.039927078
0.028505718
0.01696826
0.0053477937
-0.006325214
-0.018022459
-0.029717255
-0.041383987
-0.05299733
-0.064531917
-0.075962008
-0.087260667
-0.098399224
-0.10934697
-0.12007103
-0.13053608
-0.14070464
-0.15053707
-0.15999202
-0.16902749
-0.17760223
-0.18567742
-0.19321785
-0.2001912
-0.20656172
-0.21228653
-0.21729055
-0.22147124
-0.22473407
-0.22704862
-0.22848729
-0.22680634
-0.2253346
-0.22296997
-0.21962911
-0.2153598
-0.21025287
-0.20440919
-0.19790822
-0.19079162
-0.18309482
-0.17485026
-0.16609365
-0.15686447
-0.14720456
-0.13715635
-0.12676146
-0.11605973
-0.10508872
-0.093883534
-0.082476828
-0.070898932
-0.059178117
-0.047340895
-0.035412628
-0.023418207
-0.01138253
0.00066891364
0.012709445
0.024710587
0.036641458
0.048468324
0.060154204
0.071658529
0.082937015
0.093941629
0.10462088
0.11492058
0.1247852
0.13415985
0.14299183
0.15123008
0.1588266
0.16571566
0.17179547
0.17692933
0.18100019
0.18396122
0.18584341
0.20512272
0.20314895
0.20000259
0.19565194
0.19015893
0.18365947
0.17630346
0.168204
0.15943293
0.15004503
0.14009685
0.12964735
0.11875719
0.1074871
0.095895762
0.084038409
0.071966124
0.059725635
0.047359359
0.03490564
0.022399074
0.0098710284
-0.0026498162
-0.01513685
-0.027564896
-0.039909572
-0.052146593
-0.064251182
-0.076197411
-0.087957613
-0.099501974
-0.1107982
-0.1218114
-0.13250401
-0.14283599
-0.15276542
-0.16224933
-0.17124522
-0.1797129
-0.18761614
-0.19492222
-0.20159564
-0.20759488
-0.21283457
-0.21722041
-0.22065856
-0.22309405
-0.22460981
-0.22194546
-0.22037798
-0.21785629
-0.2143047
-0.20977805
-0.20437405
-0.19818666
-0.19130312
-0.18376574
-0.17561046
-0.16687041
-0.15758251
-0.14778773
-0.13752934
-0.12685088
-0.11579469
-0.10440092
-0.092707036
-0.080747705
-0.068554735
-0.056157234
-0.043582071
-0.030854404
-0.017998218
-0.005036973
0.0080056438
0.021104891
0.03423434
0.047365174
0.06046552
0.073499783
0.08642805
0.099205689
0.11178305
0.12410531
0.13611266
0.14774095
0.15892312
0.16959148
0.17967949
0.18912333
0.19785952
0.2058078
0.21284017
0.21878915
0.2234964
0.22688543
0.2290038
0.25709077
0.25478285
0.25108552
0.24593934
0.23943421
0.2317541
0.22308866
0.21358398
0.20333137
0.19240427
0.18087544
0.16882013
0.15631424
0.14343218
0.13024442
0.11681609
0.10320628
0.089467976
0.075648268
0.061788786
0.047926163
0.034092754
0.020317403
0.0066262117
-0.0069567073
-0.020408578
-0.033706994
-0.046828976
-0.059750382
-0.072445362
-0.084885667
-0.097040093
-0.10887436
-0.12035116
-0.13143025
-0.14206888
-0.15222287
-0.16184816
-0.1709029
-0.17934938
-0.18715388
-0.1942798
-0.20068365
-0.20627804
-0.21096579
-0.21464597
-0.21726258
-0.21888775
-0.21552066
-0.21383334
-0.21111431
-0.20729358
-0.2024284
-0.19662332
-0.18997964
-0.18258463
-0.17448343
-0.16571352
-0.15630927
-0.14630925
-0.13575621
-0.12469505
-0.11317058
-0.10122592
-0.088901388
-0.076234037
-0.063257622
-0.050002551
-0.036496043
-0.02276275
-0.0088255334
0.0052939365
0.019574513
0.033994543
0.048530798
0.063157717
0.077846586
0.09256466
0.10727429
0.12193208
0.13648833
0.15088644
0.1650626
0.17894583
0.19245853
0.20551801
0.21803916
0.22993676
0.24112761
0.25152679
0.26102785
0.26946514
0.27662447
0.28229404
0.28636869
0.2889178
0.3239583
0.32112417
0.31660101
0.31032534
0.30242199
0.29313056
0.28268769
0.27127695
0.25902782
0.24603816
0.23240317
0.21821923
0.20358196
0.18858327
0.17330849
0.15783498
0.14223152
0.12655849
0.11086826
0.095205944
0.07961011
0.064113715
0.048745136
0.033529158
0.01848786
0.0036415112
-0.010990276
-0.025387397
-0.03952852
-0.053390422
-0.066947104
-0.080169115
-0.093023419
-0.10547329
-0.1174784
-0.12899533
-0.13997865
-0.15038265
-0.16016368
-0.1692823
-0.17770338
-0.18538853
-0.19228974
-0.19832132
-0.20337654
-0.20734697
-0.21017476
-0.21192833
-0.20819351
-0.20637063
-0.20342928
-0.19930272
-0.19404864
-0.18777945
-0.18060831
-0.17261802
-0.16386055
-0.15437522
-0.144198
-0.13336914
-0.1219332
-0.10993663
-0.09742543
-0.08444326
-0.071030353
-0.057222997
-0.043053388
-0.028549832
-0.013736911
0.0013638342
0.016732829
0.032351792
0.048202852
0.064267438
0.080524958
0.096951678
0.11351979
0.13019634
0.14694197
0.16371008
0.18044587
0.19708523
0.21355408
0.22976837
0.24563455
0.26105037
0.27590801
0.29009876
0.30351318
0.31604224
0.32753337
0.33778324
0.34652396
0.35348225
0.35850844
0.36165997
0.40139266
0.39789313
0.39230604
0.38459508
0.37493558
0.36363582
0.35100328
0.3372692
0.32259
0.3070971
0.29091906
0.27418112
0.25699917
0.23948706
0.22174697
0.20386984
0.18593541
0.1680114
0.15015425
0.13241179
0.11482396
0.097423481
0.080237361
0.063287984
0.046593924
0.030171655
0.014037304
-0.0017928649
-0.017301351
-0.032468224
-0.047270611
-0.061681613
-0.075670233
-0.089200718
-0.10223292
-0.11472296
-0.12662436
-0.13788995
-0.1484744
-0.15833659
-0.1674398
-0.17574364
-0.1831917
-0.1897046
-0.19516225
-0.19944824
-0.20250559
-0.20439929
-0.20063012
-0.19866618
-0.19549314
-0.19104791
-0.18538649
-0.17862919
-0.17090288
-0.16228405
-0.15283339
-0.14259245
-0.13159875
-0.11989414
-0.10752467
-0.09453834
-0.080982136
-0.066899408
-0.05233052
-0.037311197
-0.021870067
-0.0060322629
0.010180978
0.026751108
0.04366282
0.060902123
0.078455013
0.09630765
0.11444475
0.13284504
0.15148215
0.17032403
0.18932996
0.20845138
0.22762737
0.24678739
0.26584791
0.28471149
0.30326747
0.32139367
0.33896092
0.35583227
0.37186748
0.38691142
0.40077793
0.41320384
0.42385011
0.43236256
0.43852674
0.44236799
0.48367496
0.47945576
0.47269501
0.4633447
0.45166553
0.43805953
0.42290362
0.40649308
0.38906007
0.37076683
0.35176881
0.33221574
0.31225025
0.29200492
0.27159869
0.25113542
0.23070358
0.2103773
0.19021835
0.17027657
0.15059165
0.1311947
0.11210995
0.093356339
0.07494861
0.056898846
0.039217697
0.021916064
0.0050063668
-0.011496511
-0.027571784
-0.043192377
-0.058334117
-0.072960732
-0.087031097
-0.10050454
-0.1133332
-0.1254689
-0.13686446
-0.14747729
-0.15726916
-0.16619627
-0.1741971
-0.18119393
-0.18705459
-0.19165506
-0.19494075
-0.19697259
-0.19351563
-0.19141948
-0.18802703
-0.18327923
-0.17722879
-0.17000312
-0.1617385
-0.15251686
-0.1423983
-0.13142951
-0.11964951
-0.1071024
-0.093835976
-0.079894491
-0.065329278
-0.050179994
-0.034488624
-0.018288712
-0.0016080545
0.015530238
0.033109647
0.051117264
0.069542807
0.088377542
0.10761322
0.12724041
0.14724675
0.16761555
0.18832433
0.20934319
0.23063305
0.25214375
0.27381248
0.29556236
0.31730064
0.3389176
0.36028646
0.38126473
0.40169762
0.42142183
0.44026559
0.45804972
0.47452313
0.48933012
0.50206029
0.51226072
0.51961758
0.52422878
0.56271952
0.55773811
0.54981129
0.5387883
0.52502808
0.50903951
0.49127453
0.47214766
0.45192795
0.43081254
0.40898928
0.38663478
0.36391502
0.34098161
0.31796848
0.29499048
0.27214385
0.24950761
0.22714544
0.20510737
0.18343168
0.16214688
0.1412735
0.12082594