/*--------------------------------*- C++ -*----------------------------------*\
| =========                 |                                                 |
| \\      /  F ield         | OpenFOAM: The Open Source CFD Toolbox           |
|  \\    /   O peration     | Version:  v2012                                 |
|   \\  /    A nd           | Website:  www.openfoam.com                      |
|    \\/     M anipulation  |                                                 |
\*---------------------------------------------------------------------------*/
FoamFile
{
    version     2.0;
    format      ascii;
    class       surfaceScalarField;
    location    "100";
    object      phi;
}
// * * * * * * * * * * * * * * * * * * * * * * * * * * * * * * * * * * * * * //

dimensions      [0 3 -1 0 0 0 0];
oriented        oriented;


internalField   nonuniform List<scalar> 
141264
(
-6.2279513e-05
-0.0042777713
7.4366841e-06
9.7433262e-05
0.0042702706
-3.5089736e-05
-0.0040518343
3.6026628e-06
0.0039854449
5.0716584e-07
6.7244649e-05
-7.5588759e-06
5.5081691e-05
-5.6542859e-05
0.0039254421
-1.6282775e-06
-3.1039419e-05
0.0041191629
-0.00012079458
-5.308604e-05
0.0043953294
-2.3270294e-05
-8.7442613e-05
0.0047350697
-8.189359e-05
-0.00010667682
0.0049672785
-1.6694e-05
-0.00011141635
0.0051384166
-1.8165434e-05
-0.00010848298
0.005199528
5.0290356e-07
-0.00010621994
0.0052224802
2.588014e-06
-0.00010504537
0.0052194567
2.3987001e-06
-0.00010467562
0.005212559
2.7804171e-07
-0.00010455319
0.005207913
-1.8493012e-06
-0.000104549
0.0052078972
-2.0551838e-06
-0.00010466502
0.0052125531
2.8639227e-09
-0.00010502915
0.0052194591
1.8628567e-05
-0.00010619835
0.0052224938
1.7113089e-05
-0.00010845555
0.0051995391
8.2232207e-05
-0.0001113822
0.0051384643
2.353918e-05
-0.0001066357
0.0049673208
0.00012099734
-8.7396242e-05
0.0047351166
1.7654164e-06
-5.3039502e-05
0.0043953773
5.6612519e-05
-3.0998235e-05
0.0041192105
-6.7214543e-05
0.0039254929
-7.5037586e-06
0.0040518934
5.5011395e-05
-0.00014602954
0.0041963101
8.7667493e-05
-2.4604342e-05
0.0043970546
0.00010055666
-8.5863187e-05
0.0044678685
0.0001052583
2.8547285e-07
0.0045131195
0.00010757188
-4.287938e-06
0.0044673111
0.00010606389
1.6966657e-05
0.0044167227
0.00010345245
1.3183913e-05
0.0043627662
0.0001002633
9.9056916e-06
0.0043254539
9.8086273e-05
4.8472881e-06
0.0043025657
9.6691511e-05
2.0194473e-06
0.0042909515
9.5960261e-05
4.292418e-07
0.0042856335
9.5607014e-05
-2.6637545e-07
0.0042834863
9.5456416e-05
-5.1592195e-07
0.0042827052
9.5395317e-05
-6.0141253e-07
0.0042824517
9.5370248e-05
-6.2540246e-07
0.0042823951
9.5359921e-05
-6.5383598e-07
0.0042824006
9.5354427e-05
-6.7557816e-07
0.0042824085
9.5350751e-05
-6.7334875e-07
0.0042823971
9.5347026e-05
-6.7415749e-07
0.0042824063
9.534074e-05
-6.8233617e-07
0.0042824122
9.5331811e-05
-6.9535539e-07
0.0042824223
9.5324026e-05
-7.0910062e-07
0.0042824412
9.5318772e-05
-7.1118014e-07
0.0042824335
9.5313559e-05
-7.0538468e-07
0.0042824367
9.5307531e-05
-7.0897861e-07
0.0042824452
9.5300059e-05
-7.0572445e-07
0.0042824522
9.5292398e-05
-7.0561718e-07
0.0042824589
9.5285088e-05
-6.9921195e-07
0.0042824678
9.5278183e-05
-6.9287077e-07
0.0042824772
9.5270613e-05
-6.8595572e-07
0.0042824837
9.5261788e-05
-6.6868588e-07
0.0042824852
9.5251426e-05
-6.4269266e-07
0.0042824923
9.5241958e-05
-6.8895405e-07
0.0042825846
9.5237917e-05
-9.0219833e-07
0.0042828483
9.5248657e-05
-1.553882e-06
0.0042836305
9.5296147e-05
-3.0925449e-06
0.0042857838
9.5433993e-05
-5.8613678e-06
0.0042911103
9.5775034e-05
-1.0853091e-05
0.0043027333
9.649397e-05
-1.405722e-05
0.0043256299
9.7876095e-05
-1.7758659e-05
0.0043629507
0.00010004011
3.5835284e-06
0.0044169159
0.00010321644
-8.9547192e-07
0.0044675118
0.00010581506
8.535198e-05
0.0045133281
0.00010731252
2.4196457e-05
0.004468079
0.00010499164
0.00014572488
0.0043972679
0.00010028916
7.2999569e-06
0.0041965168
8.7405494e-05
6.7110373e-05
0.0040520963
5.4755407e-05
-5.6860949e-05
0.003925674
-2.2581044e-06
0.0041193613
-3.0887137e-05
-0.00012175113
0.0043955344
-5.2918124e-05
-2.457642e-05
0.0047352824
-8.7261456e-05
-8.3563948e-05
0.0049674839
-0.0001064884
-1.8736961e-05
0.0051386103
-0.00011122383
-2.053782e-05
0.0051996599
-0.00010828465
-2.1776138e-06
0.0052225752
-0.00010601538
-3.5020748e-07
0.0052194832
-0.00010483307
-7.3588839e-07
0.0052124997
-0.00010445534
-2.9910305e-06
0.0052077642
-0.00010432217
-5.1929941e-06
0.0052077032
-0.00010430583
-5.4040522e-06
0.005212255
-0.00010440803
-3.263547e-06
0.0052190381
-0.00010475782
1.5539433e-05
0.0052219413
-0.00010591167
1.4285077e-05
0.0051988678
-0.00010815593
7.9784965e-05
0.0051376369
-0.00011107417
2.1539975e-05
0.0049664043
-0.00010633013
0.0001194884
0.0047341453
-8.7102275e-05
7.6150619e-07
-5.2758785e-05
0.004394406
5.6115103e-05
-3.0727844e-05
0.004118256
-6.6938748e-05
0.0039245506
-6.968365e-06
0.0040509778
5.5517982e-05
-0.00014524809
0.0041953976
8.8175434e-05
-2.3587273e-05
0.0043961412
0.00010107026
-8.4620127e-05
0.0044669795
0.00010577746
1.7322289e-06
0.0045122703
0.00010808714
-2.6586217e-06
0.0044665175
0.00010656136
1.8753744e-05
0.0044159848
0.00010392883
1.5106663e-05
0.0043620792
0.00010071659
1.1940031e-05
0.0043248148
9.8519214e-05
6.9691596e-06
0.0043019731
9.7107082e-05
4.2066495e-06
0.0042904019
9.6360638e-05
2.6623587e-06
0.0042851218
9.5992762e-05
1.993411e-06
0.0042830098
9.5827523e-05
1.7515806e-06
0.0042822648
9.575191e-05
1.6810781e-06
0.004282035
9.5713903e-05
1.6554662e-06
0.0042819871
9.5692713e-05
1.6367509e-06
0.0042820105
9.5680122e-05
1.6009507e-06
0.0042820466
9.5668569e-05
1.5642414e-06
0.0042820657
9.5654692e-05
1.5518493e-06
0.0042820662
9.5641322e-05
1.5190826e-06
0.0042820893
9.5629473e-05
1.4818588e-06
0.0042821072
9.5617166e-05
1.4419099e-06
0.004282123
9.5605375e-05
1.4036195e-06
0.0042821313
9.5595064e-05
1.3597084e-06
0.0042821482
9.5585371e-05
1.3240631e-06
0.0042821543
9.5578495e-05
1.2875529e-06
0.0042821679
9.5571825e-05
1.2559969e-06
0.0042821699
9.5562882e-05
1.2243451e-06
0.0042821739
9.5554685e-05
1.1770561e-06
0.0042821891
9.5548245e-05
1.1394803e-06
0.0042822021
9.5542425e-05
1.1162695e-06
0.0042822046
9.5533522e-05
1.0712551e-06
0.0042822092
9.5523909e-05
9.6438491e-07
0.0042822985
9.5523426e-05
6.7943546e-07
0.0042825628
9.553988e-05
-4.4073173e-08
0.0042833489
9.5593465e-05
-1.6585383e-06
0.0042855058
9.5736049e-05
-4.5094799e-06
0.0042908333
9.6080804e-05
-9.5895633e-06
0.0043024554
9.6803717e-05
-1.288859e-05
0.0043253522
9.8191892e-05
-1.6694805e-05
0.0043626773
0.00010036446
4.5302663e-06
0.0044166483
0.00010355024
-7.9689462e-08
0.0044672486
0.00010615807
8.6028206e-05
0.0045130646
0.0001076607
2.4728079e-05
0.0044678187
0.00010533706
0.00014611453
0.0043970033
0.00010062205
0.0041962536
8.7731093e-05
-2.9602243e-05
0.0041354786
9.3979955e-05
-2.5122354e-05
0.0042838668
0.00010865659
-4.0516751e-05
0.0043681039
0.00011510921
-2.4105722e-05
0.0043792635
0.0001173901
-1.7059314e-05
0.004343132
0.00011707026
-7.0196122e-06
0.0042910863
0.00011552222
-2.792632e-06
0.0042449375
0.00011351283
-1.2732421e-06
0.0042118889
0.00011194389
-1.533297e-06
0.0041918608
0.00011085461
-2.1161941e-06
0.0041811933
0.00011022292
-2.6350885e-06
0.0041761295
0.00010989514
-2.9887879e-06
0.0041739527
0.00010974989
-3.2155929e-06
0.0041730932
0.00010969642
-3.3709883e-06
0.0041727679
0.00010968599
-3.4396563e-06
0.0041725825
0.00010969533
-3.5558628e-06
0.0041726064
0.00010971438
-3.7392112e-06
0.0041726494
0.00010973604
-3.8578251e-06
0.0041725512
0.0001097565
-3.9709662e-06
0.0041725094
0.00010977763
-4.0196849e-06
0.0041724163
0.00010980232
-4.1999991e-06
0.0041725193
0.00010982897
-4.3131127e-06
0.0041724131
0.00010985433
-4.3477916e-06
0.0041723018
0.00010988105
-4.5206267e-06
0.004172392
0.00010991213
-4.631525e-06
0.004172289
0.00010994487
-4.7450964e-06
0.0041722431
0.00010997775
-4.8568765e-06
0.0041721885
0.00011001258
-4.9068621e-06
0.0041720652
0.00011005102
-5.0088185e-06
0.0041720747
0.00011009294
-5.1681105e-06
0.0041720698
0.00011013609
-5.2410826e-06
0.0041719046
0.0001101789
-5.2296738e-06
0.0041717497
0.00011022592
-5.2862435e-06
0.0041718066
0.00011028496
-5.3824573e-06
0.0041719961
0.00011036495
-5.5651765e-06
0.0041727041
0.00011048848
-5.8643743e-06
0.0041747163
0.00011070471
-6.1711835e-06
0.0041796042
0.00011110443
-6.0905097e-06
0.0041900833
0.00011180916
-4.1573766e-06
0.0042099084
0.00011297324
5.648044e-07
0.0042427377
0.00011461932
1.1189171e-05
0.0042886528
0.0001167077
1.891458e-05
0.0043404584
0.00011833368
3.6093188e-05
0.0043763667
0.00011872501
2.1542868e-05
0.0043650327
0.00011649712
2.6900126e-05
0.004280715
0.00011006892
-5.4203295e-06
0.0041323237
9.5394388e-05
-4.2622967e-07
0.0039823079
6.3675836e-05
0.0039040949
2.0029485e-05
0.003869269
8.1066337e-06
2.6719224e-05
0.0038477368
3.104513e-06
1.8427678e-05
0.0038325842
1.551121e-06
1.3601477e-05
0.0038152455
2.5521411e-06
1.4786542e-05
0.0038006313
1.4631422e-06
1.3151039e-05
0.0037836886
1.8316437e-06
1.5111141e-05
0.0037676417
2.194591e-07
1.5827377e-05
0.003749472
-1.6745925e-06
1.9844304e-05
0.0037262034
-3.9773374e-06
2.724591e-05
0.0036757506
-2.4133714e-07
5.0694131e-05
0.0035310925
2.7201338e-05
0.00011745682
0.0030741606
0.00015092713
0.00030600476
0.0016959338
0.0005969324
0.00078129436
0.00076021001
0.00061206285
0.00032366097
0.00057553938
8.0547461e-05
0.00010412317
0.00025377322
8.1366045e-05
0.00024040012
8.1680868e-05
9.4563099e-05
7.7529251e-05
5.7613553e-05
3.7304065e-06
2.0336909e-05
7.5345976e-05
2.7921877e-05
-4.56543e-05
9.0807411e-05
-1.197574e-05
-3.4856954e-06
0.00014029882
1.8613666e-05
-6.8105074e-05
0.00012698819
-4.0597062e-06
1.7370331e-05
0.00012418462
2.5967336e-06
2.0683927e-07
0.00017896329
2.1339039e-06
-5.6912575e-05
0.00016903713
1.2913799e-05
-2.9876345e-06
0.00021361794
9.9303137e-06
-5.451113e-05
0.00018035429
-6.8385995e-06
4.0102259e-05
0.00014057014
1.5852273e-06
3.8198921e-05
0.00011101684
2.3514914e-05
6.0383806e-06
0.00016324402
4.391863e-06
-5.6619042e-05
0.00028162439
-7.9945849e-05
-3.843452e-05
0.00031477673
-8.4153537e-05
5.10012e-05
0.00016028205
0.00011527872
3.9215955e-05
0.00014955732
8.6210795e-06
2.1036531e-06
0.00015091264
-2.5056694e-05
2.3701374e-05
0.00015454496
-4.882379e-06
1.2500622e-06
0.00023899998
-7.8528561e-06
-7.6602165e-05
0.00023540663
-6.5048247e-06
1.0098174e-05
0.00021668053
-6.5942968e-06
2.5320397e-05
0.00019116031
-7.2697776e-06
3.279e-05
0.00018460248
-2.2145278e-06
8.7723484e-06
0.0002151282
4.9209178e-05
-7.9734895e-05
0.00023037135
-3.9920228e-05
2.4677075e-05
0.00019375488
1.7542362e-05
1.9074115e-05
0.00014966548
9.7045723e-06
3.4384826e-05
0.00011165795
2.5176992e-05
1.2830537e-05
0.00015217767
7.3522582e-07
-4.1254944e-05
0.00045431802
-6.9802303e-05
-0.00023233805
0.00044431547
-0.00011721287
0.00012721542
0.00071736019
-0.0001570128
-0.00011603192
0.00054775362
5.7161977e-05
0.00011244459
0.00025864391
0.00019989396
8.9215751e-05
0.00022919123
1.6829088e-05
1.2623592e-05
0.00024483778
-2.4439009e-05
8.7924612e-06
0.00026102261
-1.4244474e-05
-1.9403538e-06
0.00026764946
-5.578785e-06
-1.0480656e-06
0.00026960959
-2.4345135e-06
4.7437976e-07
0.00026885516
-1.3316963e-06
2.0861234e-06
0.00026720162
-1.0870547e-06
2.7405948e-06
0.00026482433
-8.9906186e-07
3.2763578e-06
0.00026230191
-8.3607832e-07
3.3584969e-06
0.00025985325
-7.1915931e-07
3.1678188e-06
0.00025715753
-5.7512394e-07
3.2708392e-06
0.00025508333
-5.7002591e-07
2.6442328e-06
0.00025254986
-3.9742177e-07
2.9308847e-06
0.00025086175
-5.0974307e-07
2.1978616e-06
0.00024897876
-3.6703827e-07
2.2500231e-06
0.00024733933
-3.8330913e-07
2.022743e-06
0.00024623825
-3.6890271e-07
1.4699834e-06
0.00024470118
-2.5643386e-07
1.7935031e-06
0.00024409594
-4.094372e-07
1.0146739e-06
0.00024327958
-3.0357801e-07
1.1199391e-06
0.00024259116
-2.9289938e-07
9.8131337e-07
0.00024247485
-3.5801512e-07
4.7433503e-07
0.00024211761
-2.514385e-07
6.0867014e-07
0.00024207959
-2.7772388e-07
3.1574805e-07
0.00024246626
-3.2326108e-07
-6.3411337e-08
0.00024257365
-2.6366508e-07
1.5627287e-07
0.00024318907
-3.2739496e-07
-2.8802577e-07
0.00024398879
-2.8966803e-07
-5.1005166e-07
0.00024458728
-2.409439e-07
-3.5754673e-07
0.0002456738
-3.1949287e-07
-7.6702493e-07
0.00024695438
-2.8459866e-07
-9.9597583e-07
0.00024801801
-2.4116781e-07
-8.2246259e-07
0.000249527
-3.0605085e-07
-1.202944e-06
0.00025122685
-2.9297584e-07
-1.4068734e-06
0.00025279388
-2.410541e-07
-1.3259732e-06
0.00025459347
-2.7442748e-07
-1.5251622e-06
0.00025670482
-2.9550387e-07
-1.8158505e-06
0.000258739
-2.4351317e-07
-1.7906623e-06
0.00026080928
-2.4850561e-07
-1.8217801e-06
0.00026320542
-2.8375408e-07
-2.1123803e-06
0.00026563334
-1.8909992e-07
-2.2388177e-06
0.00026785584
-1.4604932e-07
-2.076454e-06
0.0002702842
-1.8360984e-07
-2.2447461e-06
0.0002724507
-1.231533e-08
-2.1541855e-06
0.0002740153
2.5952771e-07
-1.8241288e-06
0.00027450188
6.8299623e-07
-1.1695828e-06
0.00027340535
1.4582988e-06
-3.6176547e-07
0.00026927159
3.1501101e-06
9.836498e-07
0.00025970276
6.8053204e-06
2.7635066e-06
0.00024303132
1.3680921e-05
2.9905223e-06
0.00023050593
2.0684235e-05
-8.1588404e-06
0.00026594499
-2.0166943e-05
-1.5272125e-05
0.000598063
-0.00022069444
-0.00011142357
0.0010559087
-0.00020271823
-0.00025512746
0.0011832857
-3.7782056e-05
-8.9594955e-05
0.0011865651
1.2106619e-05
-1.5386045e-05
0.0011009715
5.8937104e-05
2.6656547e-05
0.00070398763
0.00022030047
0.00017668339
0.00017638299
0.00021226905
0.00031533559
0.00010678287
2.114065e-05
4.8459465e-05
0.00012008697
-8.5714921e-06
-4.7326091e-06
0.00013000382
-1.8294518e-05
8.3776699e-06
0.0001517545
-8.7500409e-06
-1.3000639e-05
0.00031931022
-5.0056274e-05
-0.00011749944
0.00029171603
-4.6051136e-05
7.364532e-05
0.00016910227
4.7557149e-05
7.5056608e-05
0.00011509467
5.9949391e-05
-5.9417831e-06
0.00014398484
-2.9364085e-06
-2.5953767e-05
0.00018087999
-2.6129013e-05
-1.0766133e-05
0.00020979307
-2.1705081e-05
-7.208005e-06
0.00022778739
-1.4696275e-05
-3.2980463e-06
0.00023913394
-1.0151055e-05
-1.1954957e-06
0.00024600842
-6.9949597e-06
1.2047981e-07
0.0002490362
-4.508617e-06
1.4808387e-06
0.00024746054
-2.0394887e-06
3.6151502e-06
0.00024022801
2.1805512e-07
7.0144808e-06
0.0002253327
1.3556009e-06
1.3539705e-05
0.00021413149
-8.6446482e-06
1.9845862e-05
0.00024688347
-1.4434507e-05
-1.831748e-05
0.00055794084
-0.00010475398
-0.00020630339
0.0009814883
-0.00023486987
-0.0001886776
0.001110132
-9.4170731e-05
-3.4472989e-05
-2.7197872e-05
4.3566739e-05
-0.0039539531
6.9762106e-06
-1.3933389e-05
2.721071e-06
-0.0039502398
6.2137739e-06
-1.2397967e-05
2.4709182e-06
-0.0039469813
5.521007e-06
-1.1008241e-05
2.2286931e-06
-0.0039441137
4.8956374e-06
-9.7603818e-06
1.9971404e-06
-0.0039415748
4.3371974e-06
-8.6510123e-06
1.7749834e-06
-0.0039392818
3.8478584e-06
-7.6866768e-06
1.5457916e-06
-0.003937131
3.4416043e-06
-6.8849245e-06
1.2925392e-06
-0.0039349933
3.1411766e-06
-6.2807436e-06
1.0018015e-06
-0.003932755
3.0038766e-06
-5.9145207e-06
6.7241813e-07
-0.0039304179
2.990966e-06
-5.7939985e-06
4.6592275e-07
-0.0039283162
3.1562151e-06
-5.8687299e-06
6.1079211e-07
-0.003927075
2.8498715e-06
-6.0435804e-06
1.952469e-06
-0.0039280377
3.2219414e-06
-6.3621767e-06
4.1030085e-06
-0.0039317594
1.686992e-06
-6.2032704e-06
8.2379231e-06
-0.0039383009
1.8281558e-06
-6.0795628e-06
1.0792935e-05
-0.0039525772
-6.0205448e-07
-3.1740779e-06
1.8052451e-05
2.6115122e-06
-6.4633737e-06
3.671956e-05
-8.2801361e-06
0.0040954287
5.094155e-05
-1.8906812e-05
0.0042343832
6.0110226e-05
-2.4499849e-05
0.0043090945
6.4602512e-05
-2.3749321e-05
0.0043125957
6.5917311e-05
-1.8902663e-05
0.0042728247
6.5460593e-05
-1.3520556e-05
0.0042213166
6.4387671e-05
-9.1417965e-06
0.0041772712
6.3287488e-05
-6.5792963e-06
0.0041468673
6.245909e-05
-5.4533381e-06
0.004128816
6.1918873e-05
-5.170922e-06
0.0041192985
6.1612318e-05
-5.2648378e-06
0.0041147615
6.1461905e-05
-5.4890169e-06
0.0041127728
6.1404049e-05
-5.7380933e-06
0.004111947
6.1395251e-05
-5.9793012e-06
0.0041115979
6.1411181e-05
-6.2706828e-06
0.0041114349
6.1439049e-05
-6.4854114e-06
0.0041113492
6.1471988e-05
-6.6284383e-06
0.0041112843
6.150817e-05
-6.8313838e-06
0.0041112068
6.1547399e-05
-7.0329968e-06
0.0041111218
6.1589172e-05
-7.2988397e-06
0.004111049
6.1633092e-05
-7.4370885e-06
0.0041109787
6.1678819e-05
-7.6395471e-06
0.0041108882
6.1727391e-05
-7.9042771e-06
0.0041107878
6.1778713e-05
-8.0391291e-06
0.0041106939
6.1832946e-05
-8.2400523e-06
0.0041105984
6.1891525e-05
-8.4426993e-06
0.0041104918
6.1953931e-05
-8.6426315e-06
0.0041103682
6.2020247e-05
-8.899585e-06
0.0041102314
6.2090732e-05
-9.078887e-06
0.0041100896
6.2164448e-05
-9.1767453e-06
0.0041099253
6.2242369e-05
-9.3186667e-06
0.0041097208
6.2325704e-05
-9.4351878e-06
0.0041094514
6.2414888e-05
-9.5129169e-06
0.0041093717
6.2512632e-05
-9.5366211e-06
0.004109395
6.2624769e-05
-9.4608689e-06
0.004109865
6.276331e-05
-9.1675972e-06
0.0041114702
6.295273e-05
-8.3962729e-06
0.0041155965
6.3236382e-05
-6.6638045e-06
0.0041246729
6.3677948e-05
-3.3609686e-06
0.0041422494
6.435621e-05
1.9090746e-06
0.0041721412
6.5326502e-05
8.3487721e-06
0.0042156406
6.6572482e-05
1.442438e-05
0.0042665878
6.7795041e-05
1.6567807e-05
0.0043058332
6.8390044e-05
1.2497012e-05
0.0043019214
6.7182129e-05
3.4606014e-06
0.0042270047
6.2746677e-05
-5.8443631e-06
0.0040880451
5.3583494e-05
0.0039452509
3.9319311e-05
0.0039245139
1.7001028e-06
2.2141386e-05
0.0039089002
5.4538971e-07
1.6619377e-05
0.0038933822
2.0242542e-06
1.604594e-05
0.0038777723
2.9650236e-06
1.4108047e-05
0.0038615932
3.3818354e-06
1.462888e-05
0.0038435556
1.9559653e-06
1.6301104e-05
0.0038221434
-1.3513163e-06
2.1088882e-05
0.003793664
-5.3494963e-06
2.9851619e-05
0.0037422387
-2.5113075e-06
5.3695191e-05
0.0036272784
2.4334191e-05
0.00011782748
0.00335508
0.00010139555
0.00032172999
0.0014211333
0.00011138392
0.0013590493
0.0010604458
5.2877645e-05
1.7446433e-05
0.00095810788
0.00039270133
0.00055368668
0.00011125382
0.00060451744
2.97167e-05
0.00019392623
0.00019876924
-4.7257952e-05
0.00034044596
-5.4518983e-08
6.0325639e-05
1.6846871e-05
0.00011680824
8.8702379e-06
6.8935301e-05
0.00012090918
2.7246911e-05
7.7371561e-05
-0.00022195234
0.0001262041
0.000138085
6.1173754e-05
-0.00029775441
0.00012574257
1.3199386e-06
3.8551102e-05
8.4415167e-05
1.3798788e-05
-1.0939863e-05
6.6031128e-05
7.4024274e-06
-7.5735844e-06
6.53733e-05
8.6319831e-06
-9.0949166e-06
5.6530913e-05
1.3925721e-05
-1.0297164e-05
1.1119992e-05
5.0407894e-05
-2.8924146e-05
-4.099479e-06
3.337886e-06
1.9388575e-05
3.335913e-05
4.9126695e-05
3.1231759e-05
1.7582982e-06
4.8998458e-05
-1.1325806e-05
-6.4408926e-06
5.4515521e-06
4.4030951e-05
9.0190129e-06
-9.5030576e-06
3.3573479e-05
-2.0004999e-07
1.9878823e-05
1.718916e-06
9.173556e-05
1.8752964e-05
-4.657875e-05
0.0001449296
4.8927719e-05
-8.3508087e-05
0.00015898943
3.0915394e-05
-4.9034938e-05
0.00013280449
1.5723455e-05
1.3058221e-05
0.00020092945
7.7954235e-06
-7.378648e-05
0.00019432835
-1.6215528e-06
2.1136456e-05
0.0002204042
-9.709924e-05
8.0953701e-05
0.00023976881
6.5534774e-05
-9.1737984e-05
0.00017604126
3.3897764e-05
3.1415011e-05
0.00013867189
3.4134112e-05
2.6750178e-05
0.00017349023
-3.0426484e-05
0.0001348879
-4.1343518e-05
0.00012805456
-6.2168345e-05
-1.5151853e-05
-0.00012447705
1.5002477e-05
0.00039044846
-0.00015291932
-0.00023846101
2.3253745e-06
4.9490234e-05
-0.00027690091
9.5629518e-06
6.3011065e-05
-0.00028919511
1.1142286e-05
3.5049678e-05
-0.00011406962
3.4500251e-05
-0.0001164278
-9.3197934e-05
-0.00024563155
-5.0602779e-06
5.9179333e-05
7.7442876e-05
-0.00029813828
-6.5776174e-06
5.7462791e-05
-0.00017129309
2.7938656e-05
-0.00014698843
-0.00020973878
2.5218734e-05
2.8950414e-05
-7.496929e-05
2.7622613e-05
-9.5495552e-05
-6.6896553e-05
-0.00015542839
1.1964398e-05
2.2463019e-05
4.6031684e-05
-5.8956995e-05
3.1869393e-05
-0.00010958782
-2.0808028e-05
1.5819833e-05
-3.0443671e-05
-2.352513e-05
7.9169966e-06
-3.0461934e-05
1.7369101e-06
2.9279617e-05
2.3020101e-05
1.2148191e-05
5.5646473e-05
-1.0547023e-05
8.7305103e-05
-1.7882037e-05
-1.3776593e-05
0.00015420235
7.3647419e-05
-0.00010867527
0.00013928435
-2.8351592e-05
5.5233983e-05
0.00024221988
7.5246818e-05
-0.00015055974
0.00020183001
9.2129339e-06
5.6395673e-05
0.00029720252
0.00011559655
-0.00018303041
0.00029091024
-9.5442371e-05
9.5157029e-05
0.00021484498
1.2123292e-06
6.9792651e-05
0.00031390528
0.00012322081
-0.00018778085
0.00033651494
-9.5883843e-05
8.441647e-05
0.00027072888
1.9751728e-05
5.5597285e-05
0.00020348885
7.6336862e-06
6.1931712e-05
0.00038648548
1.7676649e-05
-0.0001856708
1.6392447e-05
0.00036001699
-2.3009489e-05
3.3085539e-05
5.7537518e-05
0.00032155197
2.775142e-05
0.00016690159
5.9146446e-06
0.00017612415
-6.0148108e-07
0.00017560289
-4.6153494e-05
2.1618065e-05
0.00015982246
-9.1197882e-06
2.0017836e-05
0.00025291308
-6.5993308e-06
-9.4344139e-05
0.00027501861
-3.839076e-05
9.780398e-06
0.00025474675
-1.5240213e-05
2.8917781e-05
0.00021258084
9.0043615e-06
2.5891774e-05
0.00017823284
8.187436e-06
2.394603e-05
3.8087017e-05
0.00010842252
-4.7488885e-08
3.1770796e-05
9.4377681e-05
-7.0814858e-06
5.2817419e-05
1.6400345e-06
0.00022610456
1.6939697e-05
-8.1804317e-05
0.00024178294
-2.5177034e-06
4.3816767e-06
0.00019188429
3.1066818e-05
2.8536406e-05
0.00014956535
4.0907162e-05
2.6588775e-05
0.00017024891
-1.9948336e-05
0.0001981816
-9.7734989e-05
0.00022676457
-8.794482e-05
-5.7851029e-05
0.00017733536
-3.8032629e-05
-6.9550966e-05
-0.00013659573
2.6590001e-05
0.00050008603
-0.00021274494
-0.00018427558
-8.9030466e-06
1.855027e-05
-0.00029524409
-1.3526094e-05
3.6549783e-05
-0.00031147468
1.0111164e-05
4.7026591e-05
-0.0003356047
2.9897119e-05
2.5299717e-05
-0.00029811571
-8.7209759e-05
4.7203063e-05
-0.00020857351
0.00011790478
-0.00019050728
-0.00026108426
-8.8337488e-06
6.129701e-05
-0.00029438918
-3.9783772e-06
4.5470729e-05
-0.00031128679
-6.451243e-06
3.235322e-05
-0.00034099357
-2.8955713e-06
1.7362139e-05
-0.00030936816
-0.00011646372
4.6447545e-05
-0.00022790629
0.00010349962
-0.00019156082
-0.00026307367
-3.3553438e-05
5.9601026e-05
-3.1288689e-05
4.3613498e-05
0.0003081023
-3.0151414e-05
5.0777408e-05
0.00023839164
-2.6840116e-05
6.2997336e-05
8.4380557e-05
0.00012620512
-1.5047361e-05
4.2853328e-05
0.00011095602
-3.9539559e-05
0.00035924285
2.3425951e-05
-0.00014550767
0.00035906139
-1.2128337e-05
9.4142234e-06
0.00032933586
-1.1742976e-05
3.5017264e-05
0.0002912156
-8.368794e-06
4.2510682e-05
0.00023390035
-7.499675e-06
5.5981178e-05
7.1181242e-05
0.0001246341
-2.2553025e-06
4.0340302e-05
0.00012464882
-2.2772558e-05
0.00036023985
4.0165214e-05
-0.00015112214
0.00036491962
1.423789e-05
1.0979463e-05
0.0003297001
7.9124406e-06
3.7418247e-05
0.00027541222
2.3635224e-06
3.8398262e-05
0.00022557427
1.6100868e-06
3.9324814e-05
0.00052478825
1.2358665e-05
-0.00028498264
0.00057675889
0.00040929802
-0.00012123875
0.00021721808
6.1856398e-05
0.00039785431
4.0508546e-05
7.6539643e-05
0.00023353676
2.8213597e-05
0.00025004293
3.2292478e-07
0.00029319566
-7.8250506e-05
1.0658765e-05
0.0003021359
-2.2110766e-05
-1.0739452e-06
0.00030407714
-7.7482617e-06
2.2823535e-07
0.00030273239
-3.9034367e-06
2.8136686e-06
0.0002998189
-2.5507037e-06
4.132503e-06
0.0002962277
-2.238376e-06
4.7425167e-06
0.00029248427
-2.0449096e-06
4.8892789e-06
0.00028860494
-1.8121489e-06
4.8553975e-06
0.00028504655
-1.6434855e-06
4.4827214e-06
0.00028133861
-1.3030579e-06
4.4358716e-06
0.00027820855
-1.2603714e-06
3.8204028e-06
0.00027498938
-9.8859883e-07
3.8103501e-06
0.00027230748
-1.0428824e-06
3.2150354e-06
0.00026991883
-9.2339315e-07
2.9450125e-06
0.00026761803
-8.2521202e-07
2.7427029e-06
0.0002659856
-8.6966903e-07
2.1331915e-06
0.00026413781
-6.4479729e-07
2.2361528e-06
0.00026291248
-8.0891409e-07
1.6248048e-06
0.0002619166
-7.3784981e-07
1.4301531e-06
0.0002610016
-6.3990771e-07
1.2620074e-06
0.00026062349
-7.3943915e-07
7.5954139e-07
0.00026023031
-6.0015921e-07
7.4189711e-07
0.00026011361
-5.5398678e-07
3.9296166e-07
0.00026044138
-6.6061254e-07
9.58696e-09
0.00026070882
-6.0608692e-07
7.497995e-08
0.00026137342
-6.196354e-07
-3.7236431e-07
0.00026235248
-5.9627928e-07
-6.7244141e-07
0.00026323924
-5.2819712e-07
-5.9951562e-07
0.00026454337
-5.8401126e-07
-1.0396049e-06
0.00026615758
-5.7937563e-07
-1.3194391e-06
0.00026762873
-5.0875192e-07
-1.2035666e-06
0.00026950703
-5.516635e-07
-1.6326834e-06
0.00027166883
-5.6739719e-07
-1.8873776e-06
0.00027378803
-5.0996295e-07
-1.8502958e-06
0.00027610552
-4.9831286e-07
-2.0935988e-06
0.00027876049
-5.415119e-07
-2.4089666e-06
0.00028150279
-5.095755e-07
-2.476237e-06
0.00028422984
-4.721276e-07
-2.5034269e-06
0.0002873086
-5.3626514e-07
-2.8262467e-06
0.00029056807
-4.0148122e-07
-3.047088e-06
0.00029362239
-2.9635184e-07
-2.904024e-06
0.0002968055
-2.8638774e-07
-3.0803221e-06
0.00029992806
-2.9042793e-08
-3.1058329e-06
0.00030261481
4.8536687e-07
-2.9125987e-06
0.00030439382
1.3295045e-06
-2.4255103e-06
0.00030501753
2.6767486e-06
-1.8421614e-06
0.00030339555
5.4702752e-06
-6.9818814e-07
0.00029796794
1.1367916e-05
8.6501562e-07
0.00028684131
2.3519121e-05
1.2884304e-06
0.00024542077
7.3919347e-05
-1.1814574e-05
0.0002266922
-1.4383696e-06
3.8085026e-05
-3.2087264e-05
-0.00041155663
1.0619224e-05
0.00054656323
-0.0001075408
-0.00035138992
2.9126203e-05
-1.5373562e-05
-0.00034934585
2.1815007e-05
-3.3995861e-07
-0.0003478785
1.0513841e-05
-6.1327536e-07
-0.00034557445
5.2695269e-06
-2.1033011e-06
-0.00034252715
2.8707741e-06
-3.2413249e-06
-0.00033893859
1.5042556e-06
-3.7633101e-06
-0.00033488088
5.2926399e-07
-4.1016067e-06
-0.00033065987
-1.2375603e-07
-4.1262937e-06
-0.00032659016
-3.5258821e-07
-4.0035111e-06
-0.00032251535
-5.01628e-07
-3.869539e-06
-0.00031835339
-6.4132705e-07
-3.9221061e-06
-0.000314596
-7.3746069e-07
-3.5561986e-06
-0.00031106397
-7.0676023e-07
-3.2973989e-06
-0.00030760143
-7.7424319e-07
-3.1978736e-06
-0.00030434048
-7.3704192e-07
-3.0654136e-06
-0.00030140194
-7.2601757e-07
-2.7108439e-06
-0.00029867259
-8.1006195e-07
-2.4292468e-06
-0.0002960833
-8.0517549e-07
-2.3515139e-06
-0.0002937368
-7.7625629e-07
-2.1218997e-06
-0.00029177563
-8.3986353e-07
-1.6300608e-06
-0.00028991394
-8.4641634e-07
-1.5946521e-06
-0.00028833749
-8.349129e-07
-1.3255439e-06
-0.00028708214
-8.9437601e-07
-8.8917377e-07
-0.00028603716
-8.982643e-07
-7.4299279e-07
-0.00028528181
-9.1613573e-07
-4.5884968e-07
-0.00028487374
-1.0271933e-06
1.3029591e-08
-0.00028471653
-9.7492543e-07
1.5710653e-07
-0.00028480391
-8.9422083e-07
4.2761546e-07
-0.00028522481
-1.0864788e-06
9.0721758e-07
-0.00028607597
-1.1044046e-06
1.2161249e-06
-0.00028712558
-1.0592133e-06
1.4689155e-06
-0.0002885055
-1.2899448e-06
1.9320134e-06
-0.00029038308
-1.1992453e-06
2.2679182e-06
-0.00029239127
-1.295239e-06
2.6586285e-06
-0.00029493554
-1.4010551e-06
3.0756593e-06
-0.00029787619
-1.3780844e-06
3.4935225e-06
-0.00030102514
-1.6557525e-06
3.8813068e-06
-0.00030474948
-1.6307912e-06
4.3122499e-06
-0.00030866714
-1.8683239e-06
4.7973773e-06
-0.00031317471
-2.0448355e-06
5.292041e-06
-0.00031783459
-2.3225928e-06
5.6794141e-06
-0.00032295474
-2.7180183e-06
6.1946774e-06
-0.00032823959
-3.0116076e-06
6.4843078e-06
-0.00033380179
-3.4064205e-06
6.9237197e-06
-0.00033949321
-3.4255624e-06
6.8786012e-06
-0.00034505089
-3.2972226e-06
6.304205e-06
-0.00035019124
-2.8351424e-06
4.0720527e-06
-0.00035212502
-6.6526752e-06
8.3819075e-07
-0.00037235105
1.7812633e-05
-1.9697372e-05
-6.6897305e-05
1.4150058e-05
-0.00020362039
-5.557472e-06
0.00014304723
-7.6668027e-07
-0.00017069732
8.704027e-07
6.715074e-06
-6.3071963e-05
0.00010659414
0.00019507853
-6.7265581e-07
0.00016333296
-0.0004598654
0.00023413313
0.00017695935
0.00012054392
-0.00051477756
0.00021660164
3.4211928e-05
-4.0540566e-05
0.00016521169
1.8076293e-05
1.7659227e-05
0.00014321668
-6.1200611e-06
1.6554538e-05
0.00017332992
-8.8922742e-06
0.0001259657
-1.946616e-06
0.00011207221
-5.6942038e-06
1.403022e-05
0.00030127764
-0.00016523592
0.00011907772
0.00039769672
9.2576144e-07
-7.9532212e-05
0.00038473751
2.4480188e-05
-1.8173647e-05
0.00037850747
-1.1555491e-07
3.5104543e-06
0.00037113597
-3.7745055e-06
7.848779e-06
0.00036403555
-4.6349129e-06
8.3097656e-06
0.00035674181
-4.6025347e-06
8.4898541e-06
0.00035035814
-4.3228843e-06
7.6949545e-06
0.00034393186
-3.679745e-06
7.3880025e-06
0.00033821777
-3.3497296e-06
6.7412292e-06
0.00033276558
-2.7757944e-06
6.1831448e-06
0.00032776348
-2.6099292e-06
5.7437033e-06
0.00032359246
-2.2835083e-06
4.8237435e-06
0.00031929205
-2.1530912e-06
4.7977459e-06
0.0003160005
-2.0151617e-06
3.9286329e-06
0.00031277142
-1.8193327e-06
3.6473525e-06
0.00031022725
-1.8707114e-06
3.1196392e-06
0.00030817327
-1.6085879e-06
2.463324e-06
0.0003060232
-1.6040909e-06
2.4642208e-06
0.00030496073
-1.5343032e-06
1.5375621e-06
0.00030388941
-1.4092106e-06
1.3761249e-06
0.00030307431
-1.4343232e-06
1.1629427e-06
0.00030316314
-1.3040921e-06
3.2103644e-07
0.0003033119
-1.209431e-06
8.5747403e-08
0.00030345419
-1.238804e-06
6.932353e-08
0.00030438336
-1.2304405e-06
-6.14871e-07
0.00030553094
-1.1009411e-06
-9.4489502e-07
0.0003068132
-1.1239625e-06
-1.0526766e-06
0.00030878035
-1.1172622e-06
-1.6848044e-06
0.00031085856
-1.0022295e-06
-1.9223986e-06
0.00031297494
-1.0296508e-06
-1.9265846e-06
0.00031583811
-1.0250905e-06
-2.6143349e-06
0.00031883792
-9.3500831e-07
-2.869984e-06
0.00032183848
-9.5767105e-07
-2.8529495e-06
0.00032535708
-9.6010187e-07
-3.2845146e-06
0.00032921178
-8.6481353e-07
-3.726932e-06
0.00033309657
-8.8531925e-07
-3.7737071e-06
0.00033726968
-9.0121469e-07
-3.9786637e-06
0.00034159303
-4.2212529e-06
-8.3955247e-07
0.00034642396
-4.6679196e-06
-8.0433891e-07
0.00035126692
-4.6898115e-06
-6.5477163e-07
0.0003562409
-4.8723098e-06
-4.5425766e-07
0.00036131186
-4.9877456e-06
-2.0697433e-07
0.00036655387
-5.1048055e-06
3.9206338e-07
0.00037187278
-4.9178066e-06
1.1031426e-06
0.00037739885
-4.4058961e-06
1.7506007e-06
0.00038387328
-3.1011404e-06
1.8962394e-06
0.00039327653
-6.2565971e-07
1.7362573e-06
0.00040785557