/*--------------------------------*- C++ -*----------------------------------*\
| =========                 |                                                 |
| \\      /  F ield         | OpenFOAM: The Open Source CFD Toolbox           |
|  \\    /   O peration     | Version:  v2012                                 |
|   \\  /    A nd           | Website:  www.openfoam.com                      |
|    \\/     M anipulation  |                                                 |
\*---------------------------------------------------------------------------*/
FoamFile
{
    version     2.0;
    format      ascii;
    class       volScalarField;
    location    "283";
    object      k;
}
// * * * * * * * * * * * * * * * * * * * * * * * * * * * * * * * * * * * * * //

dimensions      [0 2 -2 0 0 0 0];


internalField   nonuniform List<scalar> 
75385
(
0.24206604
0.24073263
0.23936609
0.23796359
0.2365242
0.23504563
0.23352774
0.23196866
0.230369
0.22872732
0.22704502
0.2253211
0.22355758
0.22175385
0.21991271
0.21803386
0.21612056
0.21417267
0.21219367
0.21018333
0.20814501
0.20607884
0.20398946
0.2018774
0.19974721
0.19759918
0.19543801
0.19326377
0.19108042
0.18888732
0.18668786
0.18447938
0.18226326
0.18003348
0.17779902
0.17555036
0.17332472
0.17110237
0.16894353
0.16687244
0.16520445
0.1650405
0.16544407
0.16651839
0.16771179
0.16923796
0.17053848
0.17200603
0.1731711
0.17448409
0.17553851
0.17673135
0.17759359
0.17845542
0.17863276
0.17837145
0.17706667
0.17488955
0.17102229
0.16559263
0.15787262
0.14843044
0.13806411
0.12839394
0.12187898
0.1200943
0.11962152
0.12080361
0.12206624
0.12411182
0.12595362
0.1282332
0.13025299
0.13279478
0.13482974
0.13718525
0.13902489
0.14116405
0.14274882
0.14458317
0.14586116
0.14738234
0.1482306
0.14922397
0.14960283
0.15018681
0.15027013
0.15067515
0.15071402
0.15118172
0.15131642
0.15193205
0.15228118
0.15304784
0.15347991
0.15423822
0.15444294
0.15485036
0.15444415
0.15390458
0.15226309
0.15037013
0.14725289
0.14415592
0.14112239
0.13857277
0.13837355
0.14183777
0.14822915
0.15529177
0.16190016
0.16645712
0.16933665
0.1701994
0.17023139
0.16926747
0.16817037
0.16662294
0.16522195
0.16360461
0.16232171
0.16140906
0.16095433
0.16103438
0.16092555
0.16128014
0.16206127
0.16304528
0.16398881
0.16476735
0.16539672
0.16580281
0.16609241
0.1662029
0.16620354
0.1661065
0.16588772
0.1656433
0.16527503
0.16484679
0.1642887
0.16366499
0.16282014
0.16183523
0.16068204
0.15944704
0.15848056
0.1579479
0.15804676
0.15785182
0.15801127
0.15845725
0.15916085
0.1598059
0.16043054
0.16090298
0.16132983
0.16165275
0.16193154
0.16212515
0.16230489
0.1624335
0.16258296
0.16270546
0.16285701
0.16297965
0.16313054
0.16325276
0.16339445
0.16349746
0.16363264
0.1637374
0.16388093
0.16397512
0.16407416
0.16413623
0.16421949
0.16427513
0.16435181
0.16442011
0.16451987
0.16463696
0.16478306
0.16491417
0.16505009
0.16517242
0.1653165
0.1654671
0.16561671
0.1657445
0.16586544
0.16595737
0.16605084
0.16612737
0.1662045
0.16626841
0.16631863
0.16633838
0.16633984
0.16628734
0.16618001
0.16598804
0.16562357
0.16523144
0.16484316
0.16463544
0.16468408
0.16637175
0.16633487
0.16656685
0.16692983
0.16733885
0.16769148
0.16788169
0.16799087
0.16803755
0.16804051
0.16801551
0.16797041
0.16789967
0.16782802
0.16774563
0.1676568
0.16756025
0.16744361
0.16731012
0.16716567
0.16700881
0.16687128
0.16674474
0.16661311
0.16647609
0.16633181
0.16620774
0.16611238
0.16604131
0.16597145
0.16591206
0.16583271
0.16576682
0.16567157
0.16557201
0.16542721
0.16531863
0.16518419
0.16507691
0.16493544
0.16480655
0.16465605
0.16452757
0.16437604
0.16424746
0.16409892
0.16396514
0.16378688
0.16358726
0.16330919
0.1629807
0.16256057
0.16208964
0.16148377
0.16082536
0.16014241
0.1596783
0.15954539
0.1596951
0.16172571
0.16384141
0.16601478
0.16819087
0.17038327
0.17256599
0.1747486
0.17691929
0.17908871
0.18125274
0.18341731
0.18557735
0.18773114
0.18987364
0.19200492
0.19412054
0.19622051
0.19830307
0.2003649
0.20240473
0.20441885
0.20640628
0.20836296
0.21028884
0.21217919
0.2140362
0.2158599
0.21764432
0.21939075
0.22109896
0.22276949
0.2243982
0.22598718
0.22753724
0.22904933
0.23052176
0.23195616
0.23335218
0.23471392
0.23604142
0.23733786
0.23860558
0.23984674
0.24106345
0.24225798
0.24343271
0.24458994
0.24573196
0.2468611
0.24797957
0.24797865
0.24685897
0.24572819
0.24458445
0.24342553
0.24224867
0.24105215
0.23983278
0.23858909
0.23731848
0.23601972
0.2346886
0.23332328
0.23192299
0.23048347
0.22900431
0.22748725
0.22593433
0.22434388
0.2227116
0.22103767
0.21932635
0.2175786
0.21579058
0.21396368
0.21210421
0.2102131
0.20828398
0.20632326
0.20433088
0.20231485
0.20027159
0.19820864
0.19612188
0.19401806
0.19189898
0.18976291
0.18761609
0.18545924
0.18329796
0.18113829
0.1789827
0.17682136
0.1746554
0.17247624
0.17029488
0.16811149
0.16592768
0.16375112
0.16161856
0.16172007
0.16219397
0.16286787
0.1635408
0.16413666
0.16461353
0.16502336
0.16536546
0.16563669
0.16585006
0.16602032
0.16616677
0.16630804
0.16645042
0.16659583
0.16673768
0.16688149
0.16702496
0.16716008
0.16727856
0.16740603
0.1675251
0.16766566
0.16777836
0.16786231
0.16793941
0.16800733
0.16807868
0.16813337
0.16821784
0.16829724
0.16844049
0.16857206
0.1687268
0.16884272
0.16898539
0.16910374
0.16927911
0.16940638
0.16955764
0.16965835
0.16977116
0.16984363
0.16994427
0.169998
0.17008803
0.1701159
0.17015787
0.17013852
0.17010953
0.16998501
0.16979342
0.1694407
0.16901591
0.16866845
0.16843387
0.16846749
0.17064675
0.17062691
0.17086349
0.17120105
0.1716339
0.17198707
0.17218973
0.17231113
0.17234117
0.17235861
0.17231836
0.1722896
0.17219815
0.17214468
0.17204347
0.1719688
0.17185839
0.17175506
0.17160442
0.17147617
0.17130007
0.17118355
0.17104261
0.17092367
0.17077003
0.17063216
0.17048825
0.170406
0.17032755
0.17028418
0.17021074
0.17014615
0.17006586
0.16998557
0.16986757
0.16972138
0.16960136
0.16947195
0.16935146
0.16921374
0.16906395
0.16891828
0.16877157
0.16862334
0.16847541
0.16833296
0.16818204
0.16801161
0.16779203
0.16751891
0.16717021
0.16676067
0.16628591
0.16568873
0.16501412
0.16433887
0.16386732
0.16604235
0.16651913
0.16719647
0.16787031
0.1684681
0.16893894
0.16934811
0.16970443
0.16997941
0.17020673
0.17037711
0.17053257
0.17067637
0.17082955
0.17098156
0.17113241
0.17128043
0.17143606
0.17157676
0.17169808
0.17182995
0.17194946
0.17210269
0.17222727
0.1723027
0.17238691
0.1724476
0.1725245
0.17255807
0.17261957
0.17271411
0.17284949
0.17300284
0.17314602
0.17327688
0.17340852
0.17353092
0.17369937
0.17383691
0.17397814
0.17409286
0.17419191
0.1742776
0.174372
0.17443316
0.17451758
0.17455551
0.17458496
0.174578
0.17453826
0.17443183
0.17421999
0.17386425
0.17343339
0.17309925
0.17285689
0.17287807
0.17511274
0.17510476
0.17535073
0.17568078
0.17610966
0.17646457
0.17667453
0.1767721
0.17681395
0.17681823
0.17679246
0.17675367
0.17666807
0.17660682
0.17651076
0.1764218
0.17632665
0.17620815
0.17606896
0.17593036
0.17576119
0.1756408
0.17551013
0.1753749
0.1752356
0.17507373
0.1749404
0.17484003
0.17478596
0.17475946
0.17467163
0.1746179
0.17452605
0.17445944
0.17432453
0.17416607
0.17404585
0.17391395
0.17379036
0.17364941
0.17348557
0.17333787
0.17318072
0.17302705
0.1728658
0.17272268
0.17256021
0.17239258
0.17215351
0.17188009
0.17151278
0.17110782
0.17064041
0.17004491
0.1693719
0.16869662
0.16822428
0.17039287
0.17086163
0.1715437
0.17220575
0.1728072
0.17326078
0.17366881
0.17403864
0.17431851
0.17456271
0.17473315
0.1748965
0.17504578
0.17520864
0.17537156
0.17552751
0.17568186
0.17584662
0.17599637
0.17611218
0.17625325
0.1763638
0.17653712
0.17667547
0.1767372
0.17683179
0.17688395
0.17697852
0.17700206
0.17704756
0.17715814
0.17728454
0.1774589
0.17758988
0.17773265
0.17786063
0.17797876
0.17814799
0.17829071
0.17842371
0.17854988
0.17863734
0.17873392
0.1788293
0.17889091
0.1789767
0.17901943
0.1790371
0.17903934
0.17899211
0.17890775
0.17869782
0.17834574
0.17792883
0.17759903
0.17735359
0.17736476
0.1795994
0.17959361
0.17984023
0.18017198
0.18057466
0.18092463
0.18113443
0.18121169
0.18125862
0.1812539
0.18124064
0.18119894
0.18111894
0.18104561
0.18095075
0.18085147
0.18076691
0.18063713
0.18050629
0.18036444
0.18020032
0.18007355
0.1799476
0.17980452
0.17967761
0.17949525
0.17937248
0.17925537
0.17922445
0.17919138
0.17909984
0.17903819
0.17895147
0.17888463
0.17874282
0.17855965
0.17845618
0.17830964
0.1781985
0.17804423
0.17788532
0.17771792
0.17756999
0.17739093
0.17723255
0.17706379
0.17691176
0.17672686
0.17647699
0.17619953
0.17582002
0.17541466
0.17497151
0.17436784
0.17371463
0.17302986
0.17258014
0.17476317
0.17520537
0.17588524
0.17653525
0.17713187
0.17757379
0.17796344
0.17835061
0.17862698
0.17887899
0.17909026
0.17922496
0.17942183
0.17957943
0.17977257
0.17991456
0.18009311
0.18024815
0.18039722
0.1805096
0.18065318
0.1807582
0.18094257
0.18107989
0.18116201
0.18124017
0.18131326
0.18140103
0.18144873
0.18146985
0.18158473
0.18170858
0.18188982
0.18202185
0.1821546
0.18227185
0.18242052
0.18259105
0.18271678
0.18285689
0.18297624
0.18307269
0.18315934
0.18324866
0.18334811
0.18343172
0.18345727
0.1834769
0.18347046
0.18343396
0.18335525
0.18313834
0.18279075
0.1824053
0.18207224
0.18182518
0.18183668
0.18405385
0.18404751
0.18429509
0.18463112
0.18499882
0.18534399
0.18556578
0.18564741
0.18567216
0.1856778
0.18566269
0.18564094
0.18555776
0.18544806
0.18537194
0.18527369
0.18517428
0.18505377
0.18491509
0.18479358
0.18461834
0.18445793
0.18435161
0.18423014
0.18409193
0.18391197
0.18378887
0.18367431
0.18365445
0.18359872
0.18350689
0.18343049
0.18335199
0.18326325
0.18313205
0.18294837
0.18284087
0.18269951
0.18258581
0.18244082
0.18227984
0.1820988
0.181954
0.18175572
0.18159382
0.18138722
0.1812538
0.18102893
0.18078089
0.18048983
0.18011088
0.1797285
0.17928506
0.17869607
0.17804935
0.17737366
0.17693945
0.17909584
0.17953573
0.18020317
0.18085268
0.18143048
0.18188003
0.18225696
0.18261798
0.1829395
0.18318535
0.18340891
0.1835417
0.18375027
0.18392116
0.18411851
0.18427223
0.1844484
0.18462657
0.18476012
0.18488493
0.18501826
0.18513198
0.18530709
0.18543146
0.18552743
0.18560202
0.18568484
0.1857775
0.18584192
0.18586963
0.1859787
0.18611001
0.18628285
0.18643538
0.18653983
0.18662944
0.18679877
0.18697561
0.18709476
0.18723155
0.18735996
0.18745612
0.1875869
0.18765314
0.18775266
0.18782953
0.18785064
0.18786008
0.18786014
0.18785654
0.18776098
0.18753682
0.18719421
0.18685102
0.18650895
0.18626235
0.18627317
0.18847565
0.18847
0.18871495
0.1890541
0.18939311
0.18973198
0.18994534
0.19004816
0.1900518
0.19004205
0.19004354
0.19001069
0.18994928
0.18984932
0.1897814
0.18963733
0.18954069
0.18940173
0.18927774
0.18915011
0.1889714
0.18879937
0.18872129
0.18862144
0.1884631
0.18829024
0.18817141
0.18805994
0.18802195
0.18794855
0.18785589
0.18777241
0.18769676
0.18759822
0.18747251
0.18730945
0.18718701
0.18705152
0.1869245
0.18679567
0.18661712
0.18643859
0.18627275
0.18607889
0.18589774
0.1856894
0.18555262
0.18533213
0.1850789
0.18474521
0.18439859
0.18402683
0.18356875
0.18300521
0.1823511
0.1816969
0.18125731
0.18340411
0.18385168
0.18448847
0.1851484
0.18569427
0.18616288
0.18653594
0.18687836
0.18720582
0.18747242
0.18768454
0.18782573
0.18803412
0.18822902
0.18841436
0.18859654
0.18878044
0.18895213
0.18907548
0.18919667
0.18934318
0.18947842
0.18963498
0.18975692
0.18985972
0.18995074
0.19001937
0.19010684
0.19019081
0.19024005
0.19036092
0.19045403
0.19062992
0.19078461
0.19089504
0.19097262
0.19113779
0.19131161
0.19145916
0.19156596
0.19171676
0.19181892
0.19196136
0.19203423
0.19214325
0.19218495
0.19223814
0.19222963
0.19224222
0.19222773
0.19212456
0.19191949
0.19159065
0.19124546
0.19091195
0.19067148
0.19068145
0.19286927
0.19286607
0.19310211
0.19342592
0.19376718
0.19409204
0.19429343
0.19439552
0.19441082
0.19440415
0.19441385
0.19435765
0.19431679
0.19420743
0.19412878
0.19398669
0.19388527
0.19373123
0.19362306
0.19346949
0.19329648
0.19313761
0.19306102
0.19294375
0.19278973
0.19261836
0.19253173
0.19241023
0.19235128
0.19225545
0.1921846
0.19211013
0.19201103
0.19190547
0.1917865
0.1916389
0.19149143
0.19133843
0.19123078
0.19109946
0.19092223
0.19073187
0.19054423
0.19035933
0.19016022
0.18995388
0.18980631
0.18959195
0.18932053
0.18900038
0.18866995
0.18829976
0.18782615
0.18729544
0.18663392
0.18601014
0.18556905
0.18772039
0.18815865
0.18876902
0.18941647
0.18994493
0.19040862
0.19078734
0.19111048
0.19142076
0.19168742
0.19191216
0.19206899
0.19227179
0.1924663
0.19265758
0.19284245
0.19304441
0.19322559
0.19338439
0.19348241
0.19362707
0.19378813
0.1939238
0.19404093
0.19415047
0.19424873
0.19434561
0.19439439
0.19449927
0.19456657
0.19468538
0.19477202
0.1949369
0.19508856
0.19521243
0.19529285
0.19544267
0.19561434
0.19577193
0.19588504
0.19603612
0.19614145
0.19628071
0.19636472
0.19647107
0.19651681
0.19656876
0.19656415
0.19655936
0.19654173
0.19644738
0.19625009
0.19592517
0.1955873
0.19528001
0.19504918
0.19505645
0.19722267
0.19722037
0.19744733
0.19774189
0.19808168
0.19839734
0.19858878
0.19867443
0.1987023
0.19871101
0.19870681
0.19866153
0.1986092
0.19850838
0.19841736
0.19828303
0.19817161
0.19802634
0.19790569
0.1977453
0.19758527
0.19743745
0.19734914
0.19721896
0.19706992
0.19691366
0.19682498
0.19671105
0.19663661
0.19653016
0.1964826
0.19637928
0.19627584
0.19616395
0.1960459
0.19591472
0.1957575
0.19561194
0.19551273
0.19534365
0.19515512
0.19494544
0.19477074
0.19456652
0.19438122
0.19417336
0.19400641
0.19376935
0.19351843
0.19321113
0.19289267
0.19249459
0.19204749
0.19151683
0.19089061
0.19029448
0.18987509
0.19200771
0.19241896
0.19300401
0.19360103
0.19414383
0.19457075
0.19498815
0.19529566
0.19560769
0.19583755
0.19608438
0.19626038
0.19648373
0.19666378
0.19688059
0.19704589
0.19725495
0.19745733
0.1976192
0.19772362
0.19787619
0.19801995
0.19814892
0.1982691
0.19838861
0.19850564
0.19860034
0.19865052
0.19875656
0.19883739
0.19894586
0.19903682
0.19918519
0.1993314
0.19946946
0.19956457
0.19972022
0.19987265
0.20002273
0.20014886
0.20028683
0.20040512
0.20053357
0.20063252
0.2007266
0.20078974
0.20082344
0.20084136
0.20083387
0.20079282
0.20071576
0.20052593
0.2002316
0.19989503
0.19960276
0.19937823
0.1993848
0.20152152
0.20151906
0.20174047
0.20202889
0.20235592
0.20263595
0.20282666
0.2029027
0.2029376
0.20294159
0.20291871
0.202889
0.20282271
0.20273838
0.20262942
0.20250884
0.20238183
0.20225325
0.20211958
0.2019797
0.20182691
0.20167318
0.20157103
0.20142583
0.2012819
0.2011423
0.20104822
0.20094642
0.20085883
0.20075489
0.20069836
0.20059962
0.2004805
0.20035093
0.20023478
0.20010611
0.1999678
0.1998168
0.19970486
0.19953839
0.19933498
0.19912661
0.19896367
0.19873941
0.19855951
0.1983288
0.19814781
0.19789795
0.19767241
0.19736053
0.19705379
0.19664007
0.19621934
0.19567441
0.19510623
0.19453506
0.19413705
0.19624977
0.19663195
0.19719828
0.19774214
0.19827521
0.19868878
0.19909792
0.19940288
0.19971312
0.19993918
0.20019027
0.20037361
0.20060829
0.20079217
0.20101998
0.2011854
0.20138788
0.20158868
0.20176545
0.2018875
0.20203316
0.20216358
0.2022992
0.20240827
0.20254655
0.20266305
0.20277207
0.20283738
0.20293683
0.20303497
0.20312575
0.20322714
0.20335655
0.20349852
0.20365214
0.20375875
0.20390324
0.20406641
0.20418984
0.2043362
0.20444992
0.20459088
0.20469819
0.2048228
0.20489218
0.2049553
0.20498674
0.20500857
0.20501178
0.20499474
0.20491223
0.20472074
0.20445232
0.20414515
0.203857
0.20364147
0.20364857
0.20574621
0.20574297
0.20595385
0.20623262
0.20653713
0.20678926
0.20697396
0.20705658
0.20707261
0.20705845
0.20704266
0.20699887
0.20694586
0.20687723
0.20674981
0.20664254
0.2065011
0.20638895
0.20624327
0.20612305
0.20596334
0.20582382
0.20571043
0.20554797
0.20540859
0.20528172
0.20518897
0.20509388
0.20500049
0.2048995
0.20482459
0.20470922
0.20459241
0.20444905
0.20434542
0.20420415
0.20408577
0.20393809
0.20380464
0.20361593
0.20342656
0.20322355
0.20305121
0.20282287
0.20263189
0.20239626
0.20220896
0.20195949
0.20172984
0.20142434
0.20111909
0.20071746
0.20030866
0.19978847
0.19926066
0.19870573
0.19833823
0.20039308
0.20075542
0.20129516
0.20181136
0.2023176
0.20272038
0.20311431
0.20341919
0.2037196
0.20395262
0.2042006
0.20439081
0.20462755
0.20482552
0.20505439
0.20523398
0.20544544
0.20561926
0.20581749
0.20596224
0.20612121
0.20623121
0.20637279
0.20647461
0.20661591
0.20673965
0.20685187
0.20693411
0.20704209
0.20712082
0.20723026
0.20730503
0.20743705
0.20758119
0.20774346
0.20786165
0.20800043
0.20814904
0.20827228
0.20841128
0.20852787
0.20866356
0.20877661
0.20890124
0.20897707
0.20901828
0.20908204
0.2090947
0.20911446
0.20908809
0.20901778
0.20884405
0.20860428
0.20829046
0.20802578
0.20782204
0.20782919
0.20987796
0.20987658
0.21007419
0.21032987
0.21063731
0.21087056
0.21103602
0.21109954
0.21112091
0.21110087
0.21108779
0.21101696
0.21097419
0.21089539
0.21076806
0.21065537
0.21051997
0.21040462
0.21026657
0.21014552
0.21000072
0.20987132
0.20974798
0.20958681
0.20944094
0.20930978
0.20923989
0.20912708
0.20904832
0.20893992
0.20885141
0.20874321
0.2086125
0.20847333
0.20837382
0.20822903
0.20812131
0.20795882
0.20780517
0.20760374
0.2074301
0.20721668
0.20703053
0.20680181
0.20659631
0.20635889
0.20616668
0.2059204
0.20568376
0.20538933
0.20508493
0.20469917
0.20430309
0.20381184
0.2033067
0.2027845
0.20243448
0.20444173
0.20478618
0.20529134
0.20578463
0.20626064
0.20664854
0.20702639
0.20732958
0.20761769
0.20785755
0.20810278
0.2082958
0.20853353
0.20874644
0.20897466
0.20916686
0.20938
0.20955852
0.20976087
0.20992266
0.21008481
0.21019512
0.21034108
0.21044328
0.2105768
0.21072041
0.21081762
0.21091479
0.21101915
0.21110378
0.21121609
0.21128539
0.2114097
0.2115644
0.21171939
0.21185162
0.21196411
0.21210431
0.21222409
0.21236086
0.21247532
0.21260988
0.212722
0.21285152
0.21293441
0.21298512
0.21305701
0.2130754
0.21309101
0.21308254
0.21301896
0.21286983
0.21263567
0.2123417
0.21209291
0.21190247
0.21190468
0.21389312
0.2138978
0.21408277
0.21432438
0.21460206
0.21483045
0.21496823
0.21502735
0.2150358
0.21501991
0.21499369
0.21492276
0.21486303
0.21477638
0.21465224
0.21453821
0.21440786
0.21429103
0.21415879
0.21403641
0.21390215
0.21379375
0.21365715
0.21350392
0.21335362
0.21323136
0.21316104
0.21305032
0.21295764
0.21285132
0.21275874
0.21266108
0.21251633
0.21238401
0.21227708
0.21213028
0.21201591
0.21185518
0.21168413
0.21148188
0.21129744
0.21108567
0.21088692
0.21066028
0.21043973
0.21020296
0.21000686
0.20976489
0.20951895
0.2092408
0.20893625
0.20856903
0.20818753
0.20773011
0.2072465
0.20676249
0.20642844
0.20837581
0.20870907
0.2091692
0.2096457
0.21008097
0.21045778
0.21081154
0.21112051
0.21138471
0.21163969
0.21187591
0.21207546
0.21231075
0.21254096
0.21276279
0.21297077
0.21317807
0.213371
0.21357013
0.2137543
0.21391037
0.21402969
0.21417733
0.21428968
0.21442448
0.21456396
0.21466775
0.21474856
0.21485936
0.2149614
0.21506991
0.21514166
0.21526654
0.21540361
0.21555693
0.21569338
0.2158103
0.21594692
0.21606793
0.21619997
0.21631478
0.21644528
0.21655497
0.21667051
0.21675595
0.21682471
0.21689345
0.21692828
0.21694898
0.21693226
0.21687986
0.21674825
0.21653042
0.21627278
0.21603887
0.21585912
0.21585681
0.21777959
0.21778606
0.21796016
0.21818749
0.21842486
0.21863166
0.21875765
0.21880857
0.21881997
0.21880046
0.21875696
0.21869218
0.21861487
0.21852985
0.21841491
0.21830741
0.21817761
0.21806368
0.2179331
0.21781222
0.21767565
0.21755694
0.21742206
0.21727451
0.21713791
0.2170163
0.21694326
0.21683801
0.21672782
0.21661831
0.21653665
0.21642972
0.2162899
0.21616055
0.21604273
0.21589483
0.21576904
0.21561165
0.21541902
0.21521777
0.21502238
0.21481429
0.21460284
0.2143806
0.21414701
0.21391538
0.21371112
0.21347395
0.21321534
0.21296074
0.2126526
0.21230672
0.21194125
0.2115231
0.2110598
0.21061965
0.21029877
0.21217837
0.21248881
0.21291416
0.21335877
0.21376463
0.2141125
0.21445559
0.21475848
0.21500582
0.21526436
0.2155074
0.21571855
0.21594458
0.21617583
0.21640347
0.21661299
0.21682679
0.21701897
0.21722706
0.21742421
0.21758679
0.21772131
0.21786951
0.21799327
0.2181131
0.21825174
0.21836305
0.21845202
0.21855647
0.21867705
0.21877679
0.21885179
0.21896679
0.21911015
0.21924885
0.21938067
0.21949689
0.21963219
0.21975318
0.21988209
0.21999524
0.22012464
0.22023155
0.22034631
0.22043263
0.22052229
0.22057915
0.22063446
0.22064765
0.22064967
0.22059754
0.22047584
0.22027954
0.22006648
0.21984348
0.21967765
0.21967415
0.22152535
0.2215322
0.22169062
0.22190325
0.22210341
0.22228851
0.22239991
0.22244791
0.22244166
0.22242553
0.22236787
0.22230985
0.2222187
0.22212918
0.22201724
0.22190817
0.22178159
0.22166672
0.22154214
0.22141803
0.22128651
0.22116748
0.22103666
0.22090265
0.22076277
0.22065063
0.22057156
0.22047262
0.2203521
0.22024938
0.22015172
0.22003621
0.21990465
0.21979021
0.21965868
0.21951058
0.21936715
0.21919974
0.21899816
0.21878628
0.21859615
0.21837845
0.21816944
0.21793775
0.21771176
0.21748706
0.2172682
0.21701878
0.21676664
0.21652133
0.21622414
0.21588662
0.21555522
0.21516357
0.21473629
0.21432877
0.2140376
0.2158625
0.21614336
0.216526
0.21694145
0.21731134
0.21763092
0.21795728
0.21824522
0.21849397
0.21873688
0.21899009
0.21921632
0.21944548
0.21966896
0.21990032
0.22011181
0.2203288
0.22052159
0.22073167
0.2209347
0.22110629
0.22126092
0.22140575
0.22154854
0.22165954
0.22178376
0.22189951
0.22200776
0.2221096
0.22222493
0.22232343
0.22240836
0.22252115
0.22265209
0.22278291
0.22291273
0.22304144
0.22317411
0.223298
0.22342207
0.22353485
0.22366238
0.22376987
0.22388264
0.22396879
0.22405441
0.22411788
0.22417352
0.22419697
0.22420322
0.22416061
0.22406166
0.22389177
0.22369819
0.22349788
0.22334882
0.22334476
0.22511884
0.22512681
0.22526683
0.22545285
0.22563423
0.22579212
0.22588154
0.22591839
0.22590779
0.22588067
0.22582355
0.22575781
0.22567235
0.22558808
0.22547498
0.22536824
0.22524047
0.22512898
0.22500615
0.22488162
0.2247504
0.22461727
0.22449048
0.22436145
0.22423375
0.22412568
0.22403595
0.22393679
0.22382061
0.22371996
0.2236079
0.22349255
0.22337537
0.2232624
0.22311799
0.22296664
0.22280588
0.22263098
0.22242609
0.22221825
0.22202226
0.22180543
0.2215918
0.22135921
0.22113421
0.22090623
0.22067461
0.22042252
0.22017969
0.21993456
0.21965415
0.21933833
0.21903031
0.21867618
0.21827782
0.21791486
0.21765007
0.2193888
0.21964193
0.21998641
0.22036801
0.22070912
0.22100882
0.22131264
0.22158509
0.22182414
0.22207073
0.22231777
0.22255574
0.22277694
0.22300895
0.22323928
0.2234604
0.22367395
0.22387588
0.22407941
0.22428531
0.22446336
0.22462456
0.22479122
0.2249309
0.2250496
0.22515905
0.22527387
0.22538437
0.22548503
0.22560296
0.22570459
0.22580206
0.22590103
0.22602548
0.22615653
0.22627853
0.22641375
0.22654104
0.22666679
0.22678854
0.2268978
0.22702659
0.22713198
0.22724649
0.22732976
0.22741571
0.22748414
0.22754247
0.22757313
0.22758805
0.22755965
0.22748025
0.22733162
0.22716228
0.22699391
0.22686338
0.22685797
0.22855076
0.2285588
0.22868083
0.22883384
0.22899407
0.22912924
0.22919757
0.22921784
0.22920353
0.22916769
0.22911032
0.22903698
0.22895196
0.22886514
0.2287528
0.22864497
0.22851881
0.22840821
0.22828653
0.22816218
0.22803754
0.22790243
0.22778437
0.22765228
0.22753195
0.22743352
0.22733232
0.22722896
0.22711371
0.22700844
0.22690035
0.22679056
0.22668336
0.22656598
0.2264188
0.22624487
0.22608244
0.22590023
0.22569755
0.22549468
0.22528463
0.22507077
0.22484546
0.22461482
0.22438317
0.22416127
0.22392052
0.22367632
0.2234335
0.22319749
0.22293295
0.22264228
0.22235033
0.22202199
0.2216621
0.2213349
0.22109949
0.22277151
0.22299674
0.22330331
0.22363927
0.22395195
0.22423614
0.22451379
0.22477094
0.2250067
0.22523933
0.22548129
0.22572098
0.2259499
0.22617718
0.22640918
0.22663518
0.22685145
0.22707307
0.22727735
0.22747258
0.2276633
0.22782819
0.22800371
0.22815257
0.22827499
0.22838314
0.22848334
0.22859256
0.22870472
0.22881604
0.22891808
0.22901811
0.22912447
0.22924444
0.22937426
0.22949051
0.22962165
0.22974865
0.22986571
0.22998561
0.23010136
0.23022445
0.2303356
0.23044487
0.23053743
0.23062368
0.23070088
0.23075829
0.23079712
0.23080763
0.23079399
0.23073556
0.23061918
0.23047053
0.23032748
0.23021304
0.23020714
0.2318172
0.23182526
0.23193201
0.23206472
0.23219956
0.23230082
0.23235071
0.2323612
0.23234606
0.23230632
0.23224596
0.23216791
0.23207886
0.23198367
0.23187491
0.23176324
0.23164005
0.23152246
0.23140438
0.23129046
0.23116499
0.23103802
0.23092351
0.23079493
0.23067255
0.23056151
0.23046407
0.23036291
0.23025234
0.2301367
0.23002726
0.22993092
0.22982001
0.22969406
0.22954561
0.22937071
0.22920379
0.22900764
0.22881327
0.22860695
0.22837784
0.22816041
0.22793448
0.22770446
0.2274743
0.2272438
0.22700453
0.22676775
0.22653722
0.22630556
0.22605605
0.2257921
0.225516
0.22521784
0.22490062
0.2246135
0.22440325
0.2259869
0.22618618
0.22645523
0.22675417
0.22703934
0.22730961
0.22755871
0.22780151
0.22802729
0.22825899
0.22848818
0.22872734
0.22895772
0.22919408
0.22941989
0.22964528
0.22986267
0.23009599
0.23030831
0.23050721
0.23070367
0.23087303
0.23104717
0.23119297
0.23132145
0.23143428
0.23153446
0.23164031
0.23175713
0.23186595
0.23196717
0.23206467
0.2321768
0.23230482
0.2324292
0.23254534
0.2326668
0.2327891
0.23290168
0.23301795
0.23313617
0.2332586
0.23337081
0.23347849
0.23357525
0.23367126
0.23374591
0.23381345
0.23385101
0.23387523
0.23386616
0.23382319
0.23373477
0.23361804
0.23349388
0.23339605
0.23339018
0.23491822
0.23492583
0.23501588
0.23512837
0.23523398
0.23530824
0.23534249
0.23534725
0.2353192
0.2352787
0.23520892
0.23513292
0.235036
0.23493702
0.23483215
0.23471789
0.2345978
0.23447736
0.23436465
0.23424952
0.23413279
0.23401416
0.23389503
0.23377253
0.23364578
0.23353361
0.23343153
0.23333241
0.2332242
0.23310947
0.23300541
0.2328985
0.23278395
0.23265296
0.23250883
0.23233646
0.23216256
0.23196593
0.2317636
0.23155037
0.23131378
0.23109309
0.23087078
0.23064353
0.23040574
0.23017156
0.22993713
0.22971039
0.22948251
0.22925863
0.22902693
0.228787
0.22852899
0.22825516
0.2279765
0.22772403
0.22753978
0.22905341
0.22922819
0.22946341
0.22972327
0.2299838
0.23022492
0.23045972
0.23067996
0.23090249
0.23112263
0.23135052
0.23157949
0.23181797
0.23205317
0.23228562
0.23250447
0.23272879
0.23296667
0.23317891
0.23338667
0.23358174
0.23376016
0.23393168
0.23407487
0.23420849
0.23432597
0.23443971
0.23454103
0.23465268
0.23476096
0.23485988
0.23496643
0.23507767
0.2351996
0.23532037
0.23544433
0.23556175
0.23567225
0.23579276
0.23590314
0.23602511
0.23614341
0.23625894
0.23636172
0.23646043
0.23655415
0.23663373
0.23670339
0.23674918
0.23677866
0.23678015
0.23675856
0.23669591
0.23659662
0.23649726
0.23641564
0.23640979
0.23785887
0.23786683
0.23794092
0.23802955
0.2381171
0.23816766
0.23818111
0.23817321
0.23814008
0.23809091
0.23801951
0.23793805
0.23784485
0.23774822
0.23764536
0.23753041
0.23741233
0.23729081
0.23718204
0.23706043
0.23695081
0.2368343
0.23670898
0.23658977
0.2364696
0.23635938
0.23625061
0.23615121
0.23604373
0.23593515
0.23583221
0.23571948
0.23559767
0.23546406
0.23531847
0.23514715
0.23496419
0.23476861
0.23455978
0.23434451
0.23410796
0.23388292
0.23366263
0.23342902
0.23319254
0.23295441
0.23272664
0.23250192
0.23228521
0.23206871
0.231855
0.23162945
0.23139929
0.23115384
0.23091405
0.23069523
0.23053275
0.23196921
0.23212416
0.23232565
0.23254786
0.23277711
0.2329989
0.2332133
0.23342288
0.23363147
0.2338468
0.23406638
0.2342947
0.23453042
0.23477036
0.2350028
0.23522655
0.23545208
0.23568594
0.2359069
0.2361134
0.23630986
0.23649828
0.23666886
0.23681881
0.23694984
0.23707678
0.23718721
0.23729312
0.23739857
0.23750512
0.23760462
0.23771338
0.23782338
0.23794213
0.23806045
0.23818514
0.23830163
0.23841276
0.23853343
0.23864204
0.23876104
0.23888132
0.23899333
0.23909929
0.23919162
0.23928422
0.2393677
0.23944073
0.23949317
0.23952971
0.23954366
0.23953753
0.23949903
0.2394255
0.23934672
0.23927956
0.23927314
0.24064857
0.24065541
0.24071583
0.24078601
0.24084627
0.24087444
0.24087504
0.24085437
0.24081559
0.24075899
0.24068547
0.24059881
0.24050709
0.24041519
0.24030723
0.24019694
0.24007819
0.23996019
0.23985129
0.23973194
0.23961916
0.23950283
0.23938117
0.23926277
0.23914647
0.23903552
0.23892797
0.2388278
0.23872018
0.23861568
0.23851051
0.23839855
0.23827001
0.23813804
0.23798511
0.23781405
0.23762495
0.23742756
0.23721828
0.23699596
0.23676323
0.23653731
0.23630951
0.23607697
0.2358375
0.23560345
0.23537715
0.23516093
0.2349485
0.23474616
0.23454139
0.23433677
0.23412431
0.2339089
0.23370088
0.23351242
0.23336972
0.23473276
0.23486496
0.23504281
0.23523622
0.23543971
0.23564224
0.23583807
0.23603765
0.23623364
0.23644331
0.23665671
0.23688062
0.2371141
0.23735104
0.23758357
0.23781654
0.23804276
0.2382749
0.2384974
0.23871076
0.2389092
0.23909674
0.23926814
0.23942267
0.23955805
0.23968685
0.23980219
0.23990488
0.24000926
0.24011878
0.2402219
0.24032939
0.24044016
0.2405551
0.240672
0.24078981
0.2409045
0.24101875
0.2411366
0.24124589
0.24136426
0.24147978
0.24158815
0.24169713
0.24179256
0.24188509
0.24197461
0.24204889
0.24210899
0.24215038
0.24217697
0.2421826
0.24216034
0.24211302
0.24205264
0.24199964
0.24199534
0.24304801
0.24295015
0.24284232
0.24273383
0.24261926
0.24250203
0.24239254
0.24227632
0.24216095
0.2420476
0.24193115
0.24181484
0.24170169
0.24159064
0.2414838
0.24137917
0.24127143
0.2411669
0.24106301
0.24094508
0.24081458
0.24067766
0.24052196
0.24035001
0.24016212
0.23996292
0.23974686
0.23952387
0.23929257
0.23906488
0.23882873
0.23859629
0.23836
0.2381289
0.23790696
0.23769716
0.23748898
0.23729604
0.23710183
0.23691366
0.23672145
0.23653033
0.23635006
0.23618466
0.23606244
0.23735733
0.23747175
0.23762569
0.23779527
0.23797337
0.23815537
0.23833627
0.23852545
0.23871636
0.23892112
0.23912976
0.23934983
0.23957779
0.23981335
0.24004577
0.24028405
0.24051524
0.24074858
0.24096917
0.24118589
0.24138614
0.24157457
0.24174791
0.24190472
0.24204224
0.24217416
0.24229484
0.24240168
0.24250697
0.24261143
0.2427167
0.2428222
0.24293367
0.24304495
0.24316137
0.24327677
0.24338906
0.24350633
0.24362051
0.24373039
0.24384603
0.2439595