/*--------------------------------*- C++ -*----------------------------------*\
| =========                 |                                                 |
| \\      /  F ield         | OpenFOAM: The Open Source CFD Toolbox           |
|  \\    /   O peration     | Version:  v2012                                 |
|   \\  /    A nd           | Website:  www.openfoam.com                      |
|    \\/     M anipulation  |                                                 |
\*---------------------------------------------------------------------------*/
FoamFile
{
    version     2.0;
    format      ascii;
    class       volScalarField;
    location    "283";
    object      nut;
}
// * * * * * * * * * * * * * * * * * * * * * * * * * * * * * * * * * * * * * //

dimensions      [0 2 -1 0 0 0 0];


internalField   nonuniform List<scalar> 
75385
(
0.031250477
0.031180497
0.031105037
0.031023678
0.030936245
0.030842377
0.030741999
0.030634798
0.03052079
0.030399715
0.030271689
0.030136506
0.029994363
0.029845104
0.02968903
0.029526024
0.029356454
0.029180223
0.028997735
0.028808879
0.028614045
0.028413174
0.028206839
0.027995045
0.02777836
0.027556765
0.027330865
0.027100622
0.026866572
0.026628627
0.026387338
0.02614249
0.02589446
0.025642715
0.025388055
0.025129604
0.024869673
0.0246071
0.024345694
0.024092537
0.023889308
0.023856617
0.023902641
0.024049225
0.024195274
0.024380154
0.024502383
0.024623787
0.024657594
0.024666832
0.024572337
0.024419467
0.024119501
0.023703589
0.023065505
0.02223425
0.021146796
0.019849237
0.018304716
0.016591858
0.014734676
0.012876725
0.011173982
0.0098121318
0.0090026906
0.0087950862
0.0087276159
0.0088355955
0.0089870156
0.009224668
0.0094767081
0.0097868921
0.010110473
0.01049775
0.010874415
0.011286904
0.011665013
0.012060128
0.012400925
0.012747796
0.013031494
0.013319784
0.013530395
0.013738022
0.013871548
0.014010229
0.014085813
0.0141811
0.014228038
0.014308153
0.014343746
0.014416205
0.014444607
0.014492764
0.014475713
0.014449933
0.014317337
0.014139745
0.013812715
0.013390723
0.012790414
0.012088624
0.011238222
0.010376125
0.0095784329
0.0089620754
0.0087312358
0.0090203262
0.009804213
0.010951009
0.012411019
0.014183814
0.016231948
0.018207596
0.019922897
0.021246913
0.022218644
0.022821952
0.023181981
0.023299597
0.023330065
0.023315617
0.02331602
0.023357746
0.023342698
0.023400635
0.023533704
0.023703099
0.023871896
0.024017441
0.024141314
0.024229736
0.024299091
0.02433886
0.024359293
0.024362698
0.024344404
0.024320556
0.024274568
0.02421757
0.024137765
0.024046474
0.02391662
0.02376281
0.023578502
0.023380288
0.023223385
0.023139014
0.023155878
0.023125355
0.023147126
0.023217849
0.023328678
0.023429901
0.023525428
0.02359457
0.023655302
0.023698267
0.023733035
0.023752893
0.023769652
0.023777217
0.023788036
0.023794033
0.023804737
0.023810505
0.023821312
0.023827763
0.023837831
0.023841825
0.023851978
0.023857615
0.023870781
0.023876224
0.023882804
0.02388384
0.023888694
0.023889412
0.023893577
0.023896497
0.023904944
0.023916422
0.023932866
0.023946623
0.023960802
0.023972467
0.02398769
0.024004262
0.024020372
0.024033088
0.02404482
0.024052002
0.024059755
0.024065168
0.024070978
0.02407529
0.024077691
0.024075932
0.024072125
0.024060671
0.02404132
0.024008802
0.023949362
0.023885564
0.02382582
0.02379356
0.023804593
0.024010111
0.024001847
0.024036792
0.024092926
0.024158605
0.024216172
0.024248272
0.024268029
0.02427857
0.02428322
0.024284184
0.024282742
0.024277394
0.024272611
0.024266305
0.024259436
0.024251565
0.024240684
0.02422714
0.024212058
0.024194587
0.024180604
0.024168327
0.024155009
0.024140409
0.024124465
0.024111971
0.024104365
0.024101028
0.024098099
0.02409675
0.024092695
0.024091043
0.024085276
0.024079029
0.024065913
0.024059767
0.02404998
0.024045397
0.024035623
0.024028198
0.024017714
0.024011098
0.024000632
0.023993711
0.023983237
0.023974865
0.023958545
0.023937765
0.02390339
0.023859676
0.023800372
0.023731899
0.023639771
0.023537538
0.023430207
0.023358024
0.023340135
0.023364616
0.023621561
0.023886529
0.024151922
0.024414491
0.024674537
0.024931325
0.025185754
0.025436549
0.025684955
0.02593016
0.026172861
0.026412232
0.026648006
0.026879484
0.027106721
0.027329144
0.027546819
0.027759564
0.027966975
0.02816895
0.028365038
0.028555185
0.028738902
0.028916268
0.029086709
0.029250614
0.029408072
0.029558338
0.029701675
0.029838128
0.02996785
0.030090354
0.030206
0.030314969
0.030417454
0.030513299
0.030602784
0.030685925
0.030763325
0.030835042
0.030901547
0.030963191
0.031020299
0.031073187
0.031122183
0.031167628
0.031209848
0.031249165
0.031285898
0.031320352
0.031319676
0.031285069
0.031248124
0.031208586
0.031166146
0.031120422
0.031071163
0.031017925
0.03096048
0.030898449
0.030831629
0.030759423
0.030681536
0.030597811
0.030507626
0.030410859
0.03030768
0.030198296
0.030082419
0.029959396
0.029829173
0.029692255
0.029548694
0.029397887
0.029239937
0.029075637
0.028905035
0.028727158
0.028542804
0.028351886
0.028155447
0.027952903
0.027745247
0.027531814
0.027313493
0.027090472
0.026862428
0.026630206
0.02639386
0.026154185
0.025912103
0.0256681
0.025420821
0.025170642
0.024916407
0.024659712
0.024400328
0.024137115
0.023870477
0.02360412
0.023616789
0.023689791
0.023794855
0.023898474
0.023988291
0.024057227
0.024114434
0.024160079
0.024193077
0.024215948
0.024230805
0.024241113
0.024250245
0.024259241
0.024268508
0.024277092
0.024286253
0.024295819
0.024304324
0.024310517
0.024318948
0.024326585
0.024338774
0.024346977
0.02435076
0.024354136
0.024356231
0.024359451
0.024359865
0.024365255
0.024370216
0.024385577
0.024399299
0.024416535
0.024427203
0.024441916
0.024452688
0.02447292
0.024485093
0.024501296
0.024509514
0.024519849
0.024524012
0.024533097
0.024534925
0.0245432
0.024541801
0.024543414
0.024536068
0.024528252
0.02450607
0.024473838
0.024416584
0.024348958
0.024295507
0.024260472
0.024268012
0.024531951
0.024526304
0.024561462
0.0246131
0.024681503
0.024738464
0.024772352
0.024793937
0.024802057
0.02480912
0.024807974
0.024809265
0.024800986
0.024799232
0.02479026
0.024785783
0.024776025
0.024767452
0.024751598
0.02473937
0.024719294
0.024708885
0.02469466
0.024683592
0.024666799
0.024652205
0.024637024
0.024631631
0.024627356
0.024628756
0.024625276
0.024623807
0.024620031
0.024616964
0.024608109
0.024595259
0.024587696
0.024579163
0.024572878
0.024564189
0.024553868
0.024544631
0.024535508
0.024525986
0.024516302
0.024507123
0.024496263
0.024481523
0.024457843
0.024424804
0.024378446
0.024321728
0.02425367
0.024164356
0.024061357
0.023956934
0.023884995
0.024151427
0.024223632
0.024327599
0.024429684
0.02451842
0.024585363
0.024641571
0.024688784
0.024721833
0.024746546
0.024761123
0.024772529
0.024781774
0.024792084
0.024801994
0.024811532
0.024820911
0.024831899
0.024840814
0.024847013
0.024855717
0.024862994
0.0248767
0.024886404
0.024888573
0.024892861
0.024893621
0.024897576
0.024894632
0.024896149
0.0249034
0.024917001
0.024933847
0.024948782
0.024961587
0.024974179
0.024985406
0.025004057
0.025017589
0.025031769
0.025042013
0.02504985
0.025055966
0.025063711
0.025066597
0.025073598
0.025073656
0.025072975
0.025067484
0.025057767
0.025038545
0.025003339
0.024946257
0.024878581
0.024827664
0.024791683
0.024797297
0.02505868
0.025055136
0.025091628
0.025141835
0.025208818
0.025265535
0.025300362
0.025318241
0.025328343
0.02533351
0.025334872
0.025334784
0.025327759
0.025324942
0.025317088
0.025310575
0.025303454
0.025292761
0.025279067
0.025265545
0.025246982
0.025236182
0.025223897
0.025210577
0.025196424
0.025178462
0.025165389
0.025157335
0.02515704
0.025161069
0.025155539
0.025155921
0.025150581
0.025149869
0.025138787
0.025124495
0.025117329
0.025108807
0.025102485
0.025093749
0.025081761
0.025072629
0.025062372
0.02505238
0.025041045
0.025032017
0.025019725
0.025005696
0.024979379
0.024946825
0.024898271
0.024843121
0.024777184
0.024689398
0.024588179
0.024485219
0.024414213
0.024671601
0.024741657
0.024845062
0.02494387
0.025032034
0.025095383
0.025150658
0.0251992
0.025232536
0.025259385
0.025273752
0.025285956
0.025295841
0.025307182
0.025318432
0.025328238
0.025338212
0.025350058
0.025359946
0.025364838
0.025374603
0.025380064
0.025396418
0.025407778
0.025407676
0.025413286
0.025412622
0.025419039
0.025414596
0.025413493
0.025423032
0.025434817
0.025454507
0.025467196
0.02548153
0.025493218
0.025503584
0.025521938
0.025535948
0.025548502
0.025560263
0.025566074
0.025573681
0.025581247
0.025584061
0.025590933
0.02559155
0.025588821
0.025584585
0.025573577
0.025557684
0.025522906
0.025466847
0.025402002
0.025351871
0.025315416
0.025319007
0.02557441
0.025571983
0.02560868
0.025659074
0.025721475
0.025777014
0.025811725
0.025826635
0.025837639
0.025841602
0.025845084
0.025844724
0.025838911
0.025834364
0.025827045
0.025819134
0.025813853
0.025801689
0.025789609
0.025775903
0.025758537
0.025746927
0.025735718
0.025721522
0.025709579
0.025688913
0.02567785
0.025667454
0.025670829
0.025673764
0.025667986
0.025667228
0.025662986
0.025662343
0.025650699
0.025633123
0.025628894
0.025618517
0.025614506
0.02560418
0.02559349
0.025581717
0.025573381
0.025559844
0.025549421
0.025536637
0.0255264
0.025509895
0.025482428
0.025449714
0.025400038
0.025345554
0.025284164
0.025196246
0.02509942
0.024996247
0.02492948
0.025184574
0.025249903
0.025351655
0.025447408
0.025533649
0.025594528
0.025646248
0.025696686
0.025729035
0.025756565
0.025776981
0.025784404
0.025801317
0.025811426
0.025826874
0.02583411
0.025847349
0.02585722
0.025866504
0.025870555
0.025880263
0.025884598
0.025902066
0.02591277
0.025915677
0.0259185
0.02592092
0.025925986
0.025925263
0.025920395
0.02593031
0.025941383
0.025961633
0.025974228
0.025986695
0.025996414
0.026011237
0.026029393
0.026040495
0.026053849
0.026064283
0.026071281
0.026077172
0.026083492
0.026091897
0.026098104
0.026095934
0.026093351
0.0260876
0.026078113
0.026062893
0.026027157
0.025972192
0.025912619
0.025862074
0.025825263
0.025828188
0.026077034
0.026075143
0.026112036
0.026162941
0.026219639
0.026274033
0.02631041
0.02632617
0.026333957
0.026339662
0.026343001
0.026345786
0.026339792
0.026330016
0.026325806
0.026318234
0.026310909
0.026300419
0.026287434
0.026277083
0.026258408
0.026241985
0.026234039
0.026223422
0.026210012
0.026190213
0.026179384
0.026169677
0.026174684
0.02617424
0.026168691
0.026165874
0.026163093
0.026159293
0.02614973
0.026132681
0.026128079
0.026118936
0.026114817
0.0261064
0.026095816
0.026082481
0.026074954
0.026059013
0.026048389
0.026030252
0.0260231
0.026000832
0.025974152
0.025939759
0.025891
0.025840698
0.025779888
0.025695417
0.025600718
0.025500297
0.025436443
0.025683026
0.025747442
0.025845931
0.025940471
0.026022671
0.026084067
0.026133249
0.026178899
0.026217667
0.026243793
0.026265656
0.026272637
0.026290839
0.026302655
0.026318201
0.026326911
0.026339263
0.026352224
0.026358712
0.026364341
0.026372064
0.026377468
0.026392934
0.02640128
0.026406066
0.02640815
0.026411852
0.026417373
0.026419079
0.026415267
0.026424017
0.026435929
0.02645443
0.026469836
0.026477797
0.026483138
0.026500738
0.026519441
0.026529348
0.026541883
0.026553447
0.02656015
0.026572473
0.026575123
0.026583231
0.026588137
0.026585234
0.026580962
0.02657604
0.026571307
0.026553395
0.026516775
0.026462986
0.026410125
0.026358437
0.02632173
0.026324093
0.026566355
0.026564906
0.02660129
0.02665237
0.026704472
0.026757495
0.026792383
0.026811391
0.026816269
0.026819833
0.026825791
0.026826977
0.0268245
0.026816453
0.026813599
0.026799483
0.026792809
0.026779812
0.026769341
0.026758252
0.026739478
0.026721663
0.026718085
0.026710872
0.026694789
0.026676485
0.026666612
0.02665762
0.026659894
0.02665691
0.02665153
0.026647833
0.026645675
0.026640645
0.026632258
0.026618865
0.026612293
0.026604427
0.026598659
0.026593043
0.026580287
0.026567798
0.026557446
0.026542666
0.026529478
0.026511542
0.026504028
0.02648283
0.026455785
0.026415499
0.026372353
0.026324226
0.026261901
0.026182404
0.026087762
0.02599195
0.025927914
0.026168037
0.026232911
0.026325465
0.026420364
0.026496704
0.026560216
0.026608263
0.026650477
0.026689535
0.026718367
0.026738133
0.026746227
0.026763963
0.026779014
0.02679231
0.0268049
0.026817961
0.026829465
0.02683411
0.026838819
0.026848148
0.026856448
0.026868638
0.026876283
0.026881825
0.026886172
0.026887568
0.026892043
0.026896528
0.026895896
0.026906157
0.026912097
0.026930655
0.026946001
0.026954711
0.026958181
0.026974803
0.026992646
0.027006574
0.02701439
0.027028978
0.027036372
0.027050074
0.027053593
0.02706284
0.027062323
0.027064063
0.027057034
0.027053805
0.027047227
0.027028159
0.026994573
0.02694326
0.026890422
0.026840339
0.026804703
0.026806667
0.027041845
0.027040974
0.027075863
0.027124347
0.027176422
0.027226946
0.027259904
0.027278808
0.027285583
0.027289782
0.027296984
0.027294925
0.027295599
0.027286465
0.027282159
0.027268693
0.027261474
0.027246599
0.027238647
0.027223997
0.027206444
0.027190924
0.027187619
0.027178011
0.027162926
0.027145245
0.027140318
0.027130115
0.027129352
0.02712321
0.027121306
0.027119107
0.027113692
0.02710789
0.027100838
0.027090189
0.027080272
0.027070193
0.027067648
0.027061956
0.027049853
0.027036057
0.027022886
0.027009829
0.026994366
0.026977137
0.02696817
0.026948222
0.02691892
0.026881236
0.026841076
0.026793734
0.026729891
0.026656275
0.026561772
0.026471753
0.026408252
0.026643775
0.026706465
0.02679393
0.0268857
0.026958563
0.027020511
0.027068864
0.027107695
0.027143662
0.027172021
0.027193354
0.027203594
0.027220118
0.027234695
0.027248531
0.027261071
0.027276359
0.0272888
0.02729837
0.027299367
0.027308021
0.02731973
0.02732843
0.027335047
0.027341298
0.027346451
0.02735186
0.027350456
0.027357816
0.027359748
0.02736942
0.027374281
0.027390823
0.027405392
0.02741587
0.027419697
0.027433742
0.027450923
0.027466016
0.027474611
0.027488885
0.027496595
0.027509481
0.027514498
0.027523048
0.027523035
0.027524376
0.027517899
0.027511962
0.027504768
0.027487004
0.02745472
0.027404405
0.027353003
0.027307089
0.027273055
0.027274422
0.027501482
0.027500922
0.027534294
0.027578225
0.027629717
0.027678469
0.027709829
0.027726334
0.027735081
0.027741628
0.027746851
0.027746568
0.027745677
0.027738069
0.027732104
0.027720095
0.02771158
0.027698312
0.027688699
0.027673362
0.027658029
0.027644407
0.02763948
0.027628202
0.027614156
0.027599046
0.02759395
0.027585123
0.027582207
0.027574751
0.027576361
0.02757013
0.027564353
0.027557911
0.027551308
0.027543428
0.027532516
0.027523916
0.02752285
0.027511981
0.027498697
0.027482519
0.02747167
0.027456111
0.02744307
0.027425971
0.027414347
0.027391369
0.027365548
0.027330248
0.02729235
0.027241421
0.027182318
0.027109539
0.027021515
0.02693668
0.026877152
0.02710467
0.027162655
0.027245358
0.027328538
0.027402679
0.027458466
0.027511916
0.027547986
0.027583754
0.027606319
0.027630546
0.027643372
0.027662552
0.027674664
0.027691863
0.027701173
0.027717025
0.027732095
0.027741715
0.027743418
0.02775285
0.027761601
0.027768996
0.027775737
0.027783142
0.027790762
0.027795628
0.027794358
0.027801631
0.0278054
0.027813326
0.027818676
0.027832491
0.027845976
0.027858282
0.027864133
0.027878748
0.027892849
0.027906552
0.027916866
0.027928941
0.027938355
0.027949375
0.027956401
0.027962919
0.027965302
0.027963849
0.02796056
0.027954146
0.027943459
0.027928186
0.027897123
0.027851643
0.027800806
0.027757341
0.027724419
0.027725513
0.027943511
0.027943083
0.027975454
0.028018231
0.028067502
0.028110767
0.028141873
0.028157019
0.028166844
0.028172797
0.028175437
0.028177504
0.028174749
0.028169734
0.028161359
0.0281516
0.028141029
0.02813043
0.028119125
0.028107022
0.028092983
0.028078793
0.028071993
0.02805879
0.028045761
0.028033348
0.028027624
0.028020763
0.028016095
0.028009247
0.028009645
0.028004307
0.027996525
0.027987826
0.027981825
0.027974627
0.027966851
0.027957847
0.027955179
0.027945082
0.027930097
0.027914578
0.027905747
0.027887687
0.027875729
0.027855682
0.027842248
0.027817775
0.02779597
0.027760466
0.027724709
0.027672122
0.027617547
0.027543541
0.027465065
0.027384871
0.027329159
0.027548723
0.027601827
0.027680855
0.027755358
0.027827209
0.027880448
0.027932058
0.02796736
0.028002398
0.028024144
0.028048611
0.028062266
0.028082696
0.028095089
0.028113455
0.028122499
0.028136959
0.028151337
0.028162727
0.02816671
0.02817476
0.028181222
0.028189266
0.028194096
0.028203893
0.028211154
0.028217854
0.028218654
0.028224749
0.028230843
0.028236038
0.028242727
0.028253556
0.028266174
0.028280454
0.028287824
0.028300558
0.02831596
0.028325603
0.028338615
0.028346986
0.028359442
0.028367196
0.028377702
0.028380503
0.028382726
0.028380872
0.028378022
0.028373055
0.028365739
0.028349656
0.028318531
0.028277078
0.028230815
0.028188213
0.028156777
0.028157796
0.028365631
0.028365224
0.028395902
0.028437028
0.02848276
0.028521763
0.028551829
0.02856792
0.028575149
0.028578612
0.028582369
0.028582508
0.02858179
0.02857915
0.028568367
0.028560703
0.028548307
0.028540238
0.028527446
0.028518339
0.028503568
0.028491656
0.028483392
0.028467995
0.028455862
0.028445498
0.028440135
0.028434392
0.028429076
0.028422864
0.028420761
0.028413288
0.028406111
0.028395757
0.028391837
0.028383153
0.028378578
0.028370415
0.028364949
0.028352051
0.02833953
0.028325188
0.028315295
0.028297059
0.028283781
0.028263403
0.028249293
0.028225238
0.028203105
0.028168972
0.028133818
0.028083592
0.028031324
0.027961746
0.02788996
0.02781304
0.02776233
0.027968758
0.028018468
0.028092769
0.028162506
0.028229692
0.028280818
0.02832966
0.02836457
0.028397766
0.028420249
0.028443924
0.028458334
0.028478694
0.028492827
0.028510946
0.028521723
0.028537072
0.028547186
0.028561231
0.028568142
0.028577725
0.028580963
0.028589518
0.02859306
0.028602955
0.028610985
0.028617883
0.028620944
0.028628047
0.028631201
0.028638898
0.028641642
0.028652628
0.028665319
0.028680549
0.028689414
0.028701118
0.028714198
0.028723649
0.028735385
0.028743999
0.028755468
0.028763861
0.028774135
0.02877773
0.028776731
0.028779349
0.028775112
0.028772385
0.02876366
0.028749303
0.028720872
0.028683739
0.028636866
0.028597859
0.028568278
0.028569177
0.028765757
0.02876572
0.02879435
0.028831979
0.028877768
0.028913877
0.028941061
0.028954478
0.028962523
0.028965269
0.02896947
0.028965944
0.028966754
0.028962809
0.028952261
0.028944011
0.028932684
0.028924331
0.028912828
0.028903769
0.028891331
0.028881052
0.028871541
0.028856604
0.028843777
0.028833027
0.028831015
0.028822946
0.028819846
0.028812795
0.028808933
0.028802728
0.028793845
0.028784419
0.028781315
0.028772482
0.028769698
0.028759813
0.028751805
0.028737528
0.028727602
0.028712181
0.028700619
0.028682714
0.02866765
0.02864737
0.028632783
0.028609514
0.028586644
0.0285545
0.028519837
0.028472433
0.028422526
0.028357849
0.028290055
0.028218675
0.028170969
0.028366098
0.028412779
0.028481351
0.028547113
0.028609279
0.028657772
0.0287038
0.028738112
0.028769174
0.028792371
0.028815336
0.028829931
0.028850089
0.028866057
0.028883711
0.028895974
0.028911163
0.028921609
0.028935805
0.028944788
0.028954437
0.028957452
0.028966279
0.028969641
0.028978117
0.028988671
0.028993221
0.02899821
0.029004591
0.029008449
0.029016351
0.029018235
0.029027923
0.029041873
0.029055817
0.029066491
0.029074314
0.029086007
0.029094812
0.029106035
0.029114189
0.029125292
0.029133383
0.029144131
0.029148582
0.029148844
0.02915244
0.029148954
0.029145539
0.029139269
0.029125837
0.029101005
0.029064883
0.029021144
0.028984592
0.028957051
0.028957157
0.029141195
0.029142082
0.029168779
0.029204223
0.029245537
0.029280739
0.029303938
0.029316749
0.029323053
0.029326468
0.029328895
0.029325508
0.029324032
0.029319125
0.029309229
0.029300952
0.02929053
0.029282122
0.029271624
0.029262533
0.029251762
0.029244572
0.029233382
0.029219798
0.029206583
0.029197273
0.029195287
0.029187704
0.02918279
0.029176231
0.029171981
0.029167461
0.029156903
0.029148741
0.029144837
0.029136064
0.029132612
0.029123348
0.02911324
0.029099266
0.029088155
0.029073348
0.029060316
0.029043058
0.029026159
0.0290063
0.028991372
0.028969012
0.028945089
0.028915606
0.028881274
0.028836988
0.028789641
0.028730425
0.028666361
0.028601144
0.028556157
0.028738583
0.028783246
0.028844768
0.028907513
0.028963316
0.029009773
0.029051942
0.029086722
0.029114089
0.029139146
0.029160563
0.029175871
0.029195373
0.029213476
0.029229898
0.029244066
0.029258069
0.029270194
0.029283535
0.029295293
0.029303728
0.029307733
0.029316457
0.02932099
0.029329353
0.029339031
0.029344305
0.029346836
0.029353921
0.029360057
0.029367246
0.029369384
0.029378972
0.029390245
0.029403732
0.029414807
0.029423112
0.029434122
0.029442948
0.029453331
0.029461382
0.029471736
0.029479336
0.029487953
0.029492627
0.029495303
0.02949832
0.02949705
0.029494261
0.029486791
0.029474909
0.029452614
0.029418986
0.029380584
0.029346315
0.029320422
0.02931983
0.029490907
0.0294921
0.029517134
0.029550391
0.029585875
0.029617879
0.029639349
0.02965103
0.02965778
0.029660773
0.029660887
0.029658478
0.029654675
0.02965012
0.029641663
0.029634438
0.029624266
0.029616408
0.029606307
0.029597575
0.029586657
0.029578177
0.029567407
0.029554823
0.029543704
0.029534659
0.029532384
0.02952573
0.029518549
0.029511741
0.029509163
0.029503558
0.029493971
0.029486506
0.029481341
0.029472747
0.029467983
0.029459534
0.029446792
0.029433346
0.029421053
0.029407107
0.029392614
0.029376287
0.029357865
0.029339018
0.029323152
0.029301729
0.029276307
0.029250416
0.029215928
0.029175067
0.029130423
0.029077286
0.029016697
0.028958276
0.028915562
0.02908453
0.029125587
0.029181666
0.029239356
0.029290532
0.029332514
0.029372793
0.029406378
0.029431135
0.029456408
0.029478522
0.029495242
0.029513178
0.02953113
0.02954806
0.029562132
0.029576702
0.029588382
0.029602587
0.029615763
0.02962476
0.029630585
0.02963906
0.029644913
0.029650934
0.029660222
0.029666328
0.02966984
0.029675858
0.029684383
0.029690202
0.029692703
0.029700758
0.029712715
0.029723987
0.029734253
0.029742323
0.029752983
0.029761662
0.029771453
0.029779138
0.029789172
0.02979625
0.029804603
0.029809281
0.029814719
0.029815992
0.029817452
0.029813562
0.029808632
0.029796787
0.029775954
0.029745488
0.029713445
0.029680885
0.029657061
0.02965625
0.029813867
0.029815154
0.029837895
0.029868936
0.029899126
0.029927972
0.029947351
0.029958625
0.029963006
0.029966517
0.029964786
0.029963396
0.02995782
0.02995276
0.029944864
0.029937555
0.029927986
0.02992013
0.029911007
0.029901969
0.029891905
0.029883514
0.029873463
0.029862918
0.02985153
0.029843941
0.029840925
0.029835285
0.029826862
0.029821164
0.029816542
0.029809963
0.029801778
0.029796619
0.02978983
0.029781528
0.029774628
0.029765135
0.029751541
0.029737002
0.029725764
0.029710822
0.029696968
0.029679628
0.029662539
0.02964491
0.029627231
0.029604361
0.029580107
0.029555748
0.029523114
0.0294838
0.029444291
0.029395324
0.029340307
0.029286968
0.029248775
0.029406427
0.029443023
0.029492679
0.029545809
0.029591548
0.02962925
0.029666841
0.029698044
0.029722762
0.029745622
0.029768887
0.029787472
0.029805594
0.029822208
0.029839355
0.029853409
0.029868089
0.029879537
0.029893644
0.029907247
0.029917145
0.029925423
0.029933125
0.029941313
0.029945888
0.029952949
0.029959456
0.029965439
0.029970936
0.029978566
0.029984079
0.029987845
0.029995454
0.030005539
0.030015571
0.030025407
0.030035052
0.030045198
0.030054137
0.030063123
0.030070631
0.030080256
0.030087286
0.030095226
0.030099774
0.03010454
0.03010663
0.030108039
0.0301055
0.030101096
0.030090559
0.030072911
0.030046215
0.030017009
0.029987739
0.029966338
0.029965411
0.030109122
0.030110593
0.030130708
0.030157957
0.030185425
0.030210423
0.030226744
0.030236497
0.030240333
0.030242403
0.030240834
0.030238479
0.030233788
0.030229544
0.030221625
0.030214756
0.03020517
0.030197898
0.030189145
0.030180184
0.030170306
0.030160133
0.030150779
0.030141062
0.030131493
0.030124592
0.030120224
0.030114687
0.030107023
0.030101763
0.030095351
0.030089002
0.03008301
0.030078279
0.030070015
0.030061573
0.030052619
0.030042437
0.030028763
0.030015144
0.03000341
0.029988914
0.029974705
0.029957533
0.029940832
0.029922993
0.029903778
0.029880794
0.029858055
0.029833951
0.029803925
0.029767957
0.029732005
0.029688637
0.029638096
0.029591371
0.029557145
0.029699446
0.029731926
0.029775917
0.029823937
0.029865334
0.029899992
0.029934156
0.029962959
0.029986123
0.030009264
0.030031439
0.030051411
0.030068213
0.030085747
0.030102473
0.030117563
0.030131459
0.030143846
0.030156707
0.030170335
0.030180781
0.030189636
0.030200001
0.030207485
0.030212879
0.030217721
0.030223902
0.030230013
0.030235202
0.030243021
0.030248832
0.030254192
0.030259804
0.030268863
0.030278781
0.030287422
0.030297808
0.030307088
0.030316151
0.030324694
0.030331611
0.030341264
0.030347895
0.030355942
0.030360004
0.030364712
0.030367388
0.030369079
0.030367463
0.030364188
0.030355579
0.030340635
0.030316959
0.030291189
0.030266399
0.03024762
0.030246482
0.03037603
0.030377532
0.030395117
0.030417775
0.030442248
0.030464054
0.030477484
0.030485004
0.03048838
0.030489326
0.0304878
0.030484506
0.030479972
0.030475476
0.030467783
0.030460877
0.030451644
0.0304446
0.030436124
0.030427312
0.03041845
0.030408147
0.030400097
0.030390108
0.03038167
0.030376183
0.030370377
0.030364396
0.030357016
0.030351277
0.030345574
0.030340166
0.030335727
0.030330623
0.030322263
0.030311073
0.030302207
0.030291364
0.030278349
0.030265743
0.030252412
0.030238623
0.030223105
0.030206469
0.030189106
0.030172312
0.030152074
0.030130397
0.03010788
0.030085232
0.030057634
0.030025411
0.029991957
0.029952478
0.029907629
0.029866184
0.029836258
0.0299662
0.029994619
0.030033088
0.030074496
0.030111681
0.030143941
0.030174257
0.030200733
0.030223246
0.03024428
0.030265548
0.030285533
0.030303172
0.030319828
0.03033652
0.030351993
0.030365962
0.030380695
0.030393327
0.030405168
0.030416992
0.030426038
0.030437283
0.030445734
0.030451404
0.030455875
0.030459908
0.030465682
0.03047227
0.030479053
0.030484795
0.03049039
0.030496888
0.030505213
0.030514831
0.030522584
0.030532288
0.030541407
0.030549186
0.030557366
0.030565048
0.030573807
0.030581104
0.030588331
0.030593549
0.030598202
0.030601971
0.030603467
0.030602895
0.030598997
0.030592364
0.030580276
0.030561038
0.030538182
0.030516918
0.030500398
0.030499174
0.030614661
0.030616178
0.030631627
0.030651457
0.03067241
0.030689589
0.03070052
0.030706738
0.030710032
0.030710507
0.03070865
0.03070481
0.030699827
0.030694303
0.030687198
0.030679883
0.03067117
0.030663295
0.030655413
0.030648103
0.030639247
0.030630159
0.030622691
0.030613304
0.030604716
0.030597649
0.030592452
0.030586885
0.030580272
0.030573293
0.030567569
0.030564131
0.030559385
0.030553354
0.030545092
0.030534085
0.030524916
0.030512531
0.030500966
0.030488222
0.030472644
0.030458661
0.030443332
0.030427033
0.030410102
0.030392354
0.03037253
0.030352065
0.03033141
0.03030955
0.030284217
0.030255879
0.030224849
0.030189782
0.030151082
0.030115405
0.030089128
0.030204069
0.030228761
0.030261857
0.030297936
0.030331108
0.030361226
0.030387448
0.030411769
0.030432745
0.030453463
0.030472813
0.030492518
0.030510148
0.0305278
0.030543415
0.030558539
0.030572377
0.030588356
0.030601744
0.030613754
0.030626016
0.030635362
0.030646118
0.030653897
0.030660155
0.030665064
0.030668937
0.030674107
0.030681167
0.030687483
0.030693003
0.030698156
0.030705314
0.030714591
0.03072336
0.030730994
0.030739294
0.030747673
0.030754757
0.030762348
0.030770255
0.030778813
0.030786149
0.030793059
0.030798748
0.03080461
0.03080796
0.030810737
0.03080995
0.030807846
0.030801817
0.03079182
0.030776383
0.030757885
0.030739245
0.030725021
0.030723789
0.030825584
0.03082705
0.030840206
0.030857255
0.030874236
0.030887768
0.0308966
0.030902061
0.030903675
0.030904093
0.030901054
0.03089756
0.030891623
0.030885685
0.030879192
0.030871634
0.03086344
0.03085529
0.030848217
0.030840842
0.03083325
0.030825377
0.030817398
0.030808933
0.030799885
0.030792777
0.030787064
0.030781877
0.030775705
0.030768995
0.030764133
0.030759445
0.030754401
0.030747917
0.030740484
0.03073011
0.030720309
0.030708187
0.030695878
0.030682527
0.030666274
0.030652132
0.030637546
0.030621855
0.030604126
0.030586089
0.030567116
0.030548185
0.030528069
0.030507438
0.030484706
0.03045982
0.03043147
0.030399954
0.030366743
0.030336005
0.030313429
0.03041613
0.03043735
0.030465662
0.030496226
0.030525839
0.030551818
0.030575916
0.030597025
0.03061739
0.030636384
0.03065538
0.030673532
0.030692039
0.030709315
0.030725581
0.030739583
0.030754071
0.030770337
0.030783401
0.030796271
0.03080803
0.030818283
0.030828402
0.03083559
0.030842314
0.030847656
0.030853166
0.030857597
0.030863832
0.030869952
0.030875063
0.030881314
0.030888248
0.030896603
0.030904785
0.030913351
0.030921015
0.03092774
0.030935778
0.030942499
0.030950801
0.030958709
0.030966386
0.03097256
0.03097842
0.030983894
0.030987824
0.030990815
0.030991073
0.030989631
0.03098499
0.030977834
0.030965859
0.030949753
0.030934478
0.030922467
0.030921228
0.031009992
0.031011509
0.031022502
0.031036331
0.031050856
0.031061224
0.031067307
0.031071111
0.031072089
0.031071409
0.031068221
0.031064078
0.031058712
0.031053166
0.031047022
0.031039469
0.031031636
0.031023442
0.031016973
0.031008839
0.031002271
0.030994772
0.03098608
0.030978154
0.030970083
0.030963335
0.030956841
0.030951717
0.030945762
0.030939994
0.030935417
0.030930118
0.030924297
0.03091768
0.030910295
0.030900339
0.030889634
0.03087796
0.030865106
0.030851795
0.030835859
0.030821413
0.030807339
0.030791036
0.030773698
0.030755338
0.030737436
0.030718949
0.030700492
0.030681017
0.030660861
0.030638092
0.030613675
0.030586189
0.030558418
0.030532401
0.0305129
0.030602662
0.030621088
0.030644703
0.030670034
0.030695263
0.030718472
0.030739673
0.030759199
0.030777546
0.03079574
0.030813462
0.030831348
0.03084929
0.030866979
0.030883013
0.030897424
0.030911801
0.03092723
0.030941139
0.030953533
0.030965171
0.03097645
0.030986172
0.030994014
0.031000192
0.031006596
0.031011515
0.031016416
0.031021712
0.031027489
0.031032577
0.031039018