/*--------------------------------*- C++ -*----------------------------------*\
| =========                 |                                                 |
| \\      /  F ield         | OpenFOAM: The Open Source CFD Toolbox           |
|  \\    /   O peration     | Version:  v2012                                 |
|   \\  /    A nd           | Website:  www.openfoam.com                      |
|    \\/     M anipulation  |                                                 |
\*---------------------------------------------------------------------------*/
FoamFile
{
    version     2.0;
    format      ascii;
    class       volScalarField;
    location    "283";
    object      omega;
}
// * * * * * * * * * * * * * * * * * * * * * * * * * * * * * * * * * * * * * //

dimensions      [0 0 -1 0 0 0 0];


internalField   nonuniform List<scalar> 
75385
(
7.7459951
7.7206154
7.6954123
7.6703859
7.6455369
7.6208661
7.5963747
7.5720643
7.547937
7.5239955
7.5002428
7.4766828
7.4533196
7.4301584
7.4072043
7.384464
7.3619437
7.3396514
7.3175946
7.295783
7.2742254
7.2529329
7.2319148
7.2111834
7.1907487
7.1706234
7.1508169
7.1313408
7.1121995
7.0933929
7.074903
7.0566873
7.038697
7.020843
7.0032551
6.9857989
6.9693207
6.9533742
6.9393597
6.9263125
6.9154141
6.918018
6.9215812
6.9240648
6.9315931
6.941628
6.9600771
6.9853605
7.0230331
7.0736318
7.1437447
7.2373139
7.3630705
7.5286241
7.7445848
8.0223732
8.373215
8.8108955
9.3430725
9.9803548
10.71436
11.527034
12.355856
13.085224
13.538061
13.654704
13.706094
13.672379
13.582511
13.45434
13.290862
13.102546
12.882977
12.649833
12.398803
12.154374
11.918108
11.705021
11.511143
11.341818
11.192973
11.064919
10.955379
10.862115
10.78487
10.719797
10.66819
10.625067
10.592748
10.566124
10.549296
10.538977
10.542425
10.560294
10.60258
10.673974
10.787128
10.951425
11.181303
11.493374
11.90447
12.438979
13.102863
13.89304
14.733348
15.462129
15.848106
15.724239
15.118924
14.18059
13.044873
11.735709
10.432306
9.3477141
8.5445099
7.9666853
7.5688856
7.3009943
7.1271715
7.0217782
6.9576193
6.9227873
6.9031647
6.8942604
6.8940424
6.8921267
6.8863476
6.8786481
6.8695344
6.8603206
6.8511896
6.8429476
6.8353343
6.8287051
6.8230035
6.8180665
6.8142034
6.8108353
6.8085673
6.8069087
6.806293
6.8061947
6.8078241
6.8104413
6.8147689
6.8197211
6.8241801
6.826043
6.825341
6.8259196
6.8263882
6.8248034
6.8225407
6.8205966
6.8194524
6.8194922
6.8200282
6.8212898
6.8230439
6.8254907
6.8282399
6.8314764
6.8346526
6.8380782
6.8413698
6.8448635
6.8480925
6.8513675
6.8544174
6.85759
6.8603382
6.8631085
6.8653358
6.8677158
6.8699706
6.8722715
6.8743604
6.8764828
6.8784933
6.8805111
6.8822529
6.8838459
6.8852205
6.88674
6.8883374
6.8900883
6.8917223
6.8932385
6.8948437
6.8965127
6.8981775
6.8999399
6.9016014
6.903229
6.9047671
6.9061852
6.9075823
6.9089074
6.9100607
6.9111683
6.9122664
6.9136329
6.9155732
6.9176278
6.9186773
6.9193277
6.9181641
6.9292369
6.9300862
6.9296623
6.9285827
6.9266768
6.9247726
6.9234495
6.9223122
6.9212291
6.9200258
6.9187219
6.9172751
6.9158852
6.9142962
6.9126976
6.9109933
6.9092549
6.9075449
6.9058964
6.9042321
6.9027346
6.9010386
6.8993086
6.897663
6.8961588
6.8947356
6.8931627
6.8913816
6.8893871
6.8873252
6.8852461
6.8831118
6.8808487
6.8785416
6.8761911
6.8739222
6.8711653
6.8683713
6.8652187
6.8621246
6.8588809
6.8556087
6.852147
6.8488216
6.8454381
6.8422338
6.8390432
6.8362615
6.8338571
6.8320517
6.8308013
6.8301694
6.8300324
6.8310207
6.8327183
6.8348697
6.8361222
6.8356666
6.8349123
6.8465293
6.8591553
6.873771
6.888977
6.9052264
6.9216535
6.9383908
6.9553182
6.9725141
6.9900355
7.0079198
7.0261893
7.0448473
7.0638873
7.0832956
7.1030595
7.1231641
7.1435946
7.1643392
7.1853842
7.2067185
7.2283292
7.2502061
7.2723369
7.294713
7.3173231
7.3401581
7.3632123
7.3864776
7.4099475
7.4336162
7.4574795
7.4815327
7.5057719
7.5301939
7.5547965
7.5795772
7.6045346
7.6296669
7.6549731
7.6804524
7.7061044
7.7319287
7.757925
7.7840935
7.8104342
7.8369473
7.8636328
7.890491
7.9175217
7.9176632
7.8906322
7.8637739
7.8370884
7.8105753
7.7842346
7.7580663
7.7320705
7.7062466
7.6805952
7.6551167
7.6298115
7.6046806
7.5797248
7.5549463
7.5303466
7.5059277
7.4816913
7.4576411
7.4337815
7.4101172
7.386652
7.3633914
7.3403432
7.317515
7.2949118
7.2725426
7.2504209
7.228556
7.2069591
7.185638
7.1646079
7.1438773
7.1234638
7.1033778
7.0836338
7.06425
7.0452362
7.0266055
7.0083606
6.9904897
6.9729626
6.955769
6.9388537
6.9221955
6.9057934
6.8897226
6.874379
6.8599852
6.8470487
6.847674
6.8465765
6.8446676
6.8431482
6.8423656
6.8425811
6.8433439
6.8445744
6.84645
6.8487949
6.8516221
6.85475
6.8579943
6.8613199
6.864692
6.8681078
6.8714385
6.874638
6.8777919
6.8809133
6.8837692
6.8865028
6.8888295
6.8911371
6.8935141
6.8957242
6.89792
6.8999369
6.9020649
6.904005
6.9058577
6.9073818
6.9088895
6.9103497
6.9120776
6.9137536
6.9155482
6.916997
6.9187557
6.920354
6.9221426
6.9238257
6.9256054
6.9271431
6.928817
6.9301488
6.9316794
6.9329343
6.9342212
6.9352489
6.936445
6.937752
6.9395745
6.9414022
6.942372
6.9427283
6.9419568
6.956102
6.9568947
6.9565682
6.9556883
6.9539482
6.9522129
6.9508835
6.9497283
6.9486643
6.9473891
6.9460876
6.9445666
6.9431978
6.9415326
6.9399623
6.9382032
6.9364797
6.9347084
6.9330644
6.9313071
6.9298124
6.9280163
6.9262993
6.9245865
6.9230719
6.9215783
6.9200018
6.9181775
6.9161932
6.9140389
6.912034
6.9098231
6.9076216
6.9052205
6.9029103
6.9005729
6.8978142
6.8949437
6.891804
6.8886353
6.8854306
6.8820868
6.8786661
6.8752927
6.8719746
6.868736
6.8656202
6.8627924
6.860459
6.8585569
6.8572957
6.8564482
6.8561134
6.856741
6.8580553
6.8597624
6.8606805
6.8750535
6.8742429
6.8727074
6.8715713
6.871083
6.8715252
6.8724558
6.8737459
6.8756798
6.8779995
6.8808313
6.8839387
6.8871731
6.890488
6.8938633
6.8972931
6.9006506
6.9038643
6.9070509
6.9102099
6.9130955
6.9158792
6.9182282
6.9205369
6.9229641
6.9251545
6.9273809
6.9293693
6.9315373
6.9335853
6.9353626
6.9370103
6.9384735
6.9400589
6.9417413
6.9435121
6.9452912
6.9468476
6.9485878
6.9502935
6.9520314
6.9538106
6.955533
6.9571499
6.9587891
6.9602129
6.9617094
6.9630733
6.9643209
6.9654355
6.9665321
6.967869
6.9695525
6.9711928
6.9720313
6.9723742
6.9716499
6.9881072
6.9887769
6.9884157
6.9875876
6.9860342
6.9843985
6.983083
6.9820055
6.9808731
6.9796183
6.9782261
6.976719
6.9752745
6.973632
6.9720006
6.9702803
6.9684814
6.9667424
6.9650101
6.9632519
6.9616715
6.95988
6.9580894
6.9564016
6.9547808
6.9533132
6.951627
6.9498628
6.9477949
6.9456294
6.9436647
6.9414233
6.939245
6.9367932
6.9344845
6.932122
6.9293136
6.9264124
6.9232336
6.9200266
6.916802
6.9134301
6.9099892
6.9066111
6.9032981
6.9000704
6.8969665
6.8941325
6.8918253
6.8898584
6.8885418
6.8875332
6.8869977
6.8873657
6.8883467
6.8897332
6.8904241
6.9064372
6.905828
6.9045389
6.9037301
6.903442
6.9040898
6.9051398
6.9065147
6.9084814
6.9108059
6.9136214
6.9167445
6.9199431
6.9232776
6.9266358
6.9301113
6.9334751
6.9367343
6.9399347
6.9431619
6.9460496
6.9489108
6.9512607
6.953598
6.956055
6.9582416
6.9604762
6.9624396
6.9645831
6.9666754
6.9684112
6.9701522
6.9716104
6.9732796
6.97496
6.9767823
6.9785786
6.9801905
6.9819497
6.9837246
6.9854477
6.9872808
6.988979
6.9906405
6.9922794
6.9937545
6.9952555
6.9966922
6.997938
6.9991031
7.0001549
7.0014684
7.0030555
7.0045199
7.0053617
7.0057544
7.0052021
7.0226216
7.0230614
7.0226279
7.0217648
7.0203849
7.0188356
7.0175252
7.0164651
7.0152933
7.0140351
7.012577
7.0110609
7.0095421
7.0079374
7.0062505
7.0045521
7.0027096
7.0009809
6.9991868
6.9974052
6.9957512
6.9939825
6.9921345
6.9904308
6.9887418
6.9872652
6.9854947
6.9837614
6.9816385
6.9795524
6.9775572
6.9753615
6.9731351
6.9707053
6.9683411
6.9659731
6.9630852
6.960186
6.956937
6.9537175
6.9504127
6.9470679
6.9435477
6.9402194
6.9368521
6.9337162
6.930541
6.9277769
6.9254385
6.9234383
6.9220374
6.9209243
6.9202016
6.9203897
6.9210615
6.9222336
6.9227332
6.9392943
6.9388532
6.9378207
6.9372585
6.9371938
6.9379589
6.9391608
6.9406073
6.9426227
6.9449863
6.9476816
6.9509058
6.9539797
6.9573618
6.9606786
6.9642251
6.9675659
6.9709022
6.974163
6.9774149
6.9803458
6.9832338
6.9856425
6.9880563
6.9904407
6.9926951
6.9948618
6.9968808
6.9989159
7.0010448
7.0027983
7.0045833
7.006101
7.0077867
7.0095333
7.0114227
7.0131428
7.0148024
7.0166401
7.0184214
7.0201909
7.022006
7.0237423
7.025465
7.0270135
7.0285457
7.0301092
7.0315575
7.0328607
7.0340196
7.0351074
7.0364327
7.0379407
7.0392461
7.0401251
7.0405938
7.0402414
7.0580823
7.0583507
7.0578598
7.0569714
7.0557348
7.0542651
7.0529414
7.0518199
7.0506745
7.0493617
7.0478943
7.0463238
7.0447693
7.0432185
7.0414534
7.0397461
7.0379277
7.0361529
7.0343531
7.0324999
7.0308277
7.029115
7.0271911
7.0254044
7.0237253
7.0221642
7.0203663
7.018593
7.0164918
7.0144813
7.0124597
7.0102949
7.0080393
7.0056653
7.0032097
7.0007502
6.9978689
6.9949061
6.9916556
6.9883563
6.9850218
6.9816517
6.978114
6.9747737
6.9714031
6.9683234
6.9651115
6.9624284
6.9600303
6.9580382
6.9565055
6.9552495
6.9544545
6.9543948
6.9548579
6.955749
6.9561396
6.9733156
6.9729541
6.9722064
6.9718349
6.9720159
6.9728403
6.974141
6.97577
6.9777184
6.9801399
6.9828415
6.9860405
6.9891369
6.9924941
6.9958622
6.9993869
7.0027926
7.0061096
7.009452
7.0126891
7.0156912
7.0185651
7.0210872
7.0235782
7.0259395
7.0282097
7.0303607
7.0323988
7.0343829
7.0364469
7.0382446
7.0400405
7.0416507
7.0433145
7.0451416
7.0471044
7.0488138
7.0505111
7.0523693
7.0541924
7.0559564
7.0577958
7.0594446
7.0612332
7.0628229
7.064411
7.0659767
7.0674675
7.0687784
7.0699018
7.0710724
7.072384
7.0738129
7.0749768
7.0758728
7.0763716
7.0761478
7.0945241
7.0946987
7.0942029
7.0933317
7.092187
7.0907978
7.0895274
7.0883364
7.0871828
7.0858776
7.0843594
7.0828216
7.0811862
7.0795836
7.077804
7.0761565
7.0743118
7.0725565
7.070691
7.0688515
7.0671313
7.0654049
7.0634287
7.0615978
7.0599211
7.0582853
7.0564424
7.0546412
7.0526145
7.0506503
7.0485969
7.0464421
7.0441734
7.0418049
7.039302
7.0367182
7.033855
7.030842
7.0275911
7.0242308
7.0208844
7.0174647
7.0139557
7.0105577
7.0072142
7.0040967
7.0009215
6.9981996
6.9957819
6.9938189
6.9921174
6.9907783
6.9899261
6.9896259
6.9899098
6.9905068
6.9908171
7.0087071
7.0084362
7.0079852
7.0077915
7.0082026
7.0090875
7.0104516
7.0121959
7.0142031
7.0166123
7.0193587
7.0225133
7.0256457
7.0289751
7.0324045
7.0358981
7.0393284
7.0427096
7.0460874
7.0493662
7.052374
7.0552304
7.057856
7.0603856
7.0627542
7.0649976
7.0671831
7.0692598
7.071203
7.0732002
7.0749948
7.0768929
7.0785475
7.0802568
7.082066
7.0840324
7.08579
7.0875458
7.0893538
7.0912563
7.0930082
7.094847
7.0965187
7.0982892
7.0998922
7.1015688
7.1030774
7.1046083
7.1059219
7.1071142
7.108311
7.1095583
7.1108934
7.112029
7.1128741
7.1133592
7.1132099
7.1322528
7.1323639
7.1318912
7.131081
7.1299738
7.1286745
7.1274436
7.126247
7.125038
7.1236974
7.1221734
7.1206515
7.1189788
7.1173543
7.1155945
7.1138978
7.1120612
7.1102904
7.1083947
7.1065792
7.1048048
7.1030177
7.1010639
7.0992594
7.0975319
7.0958418
7.093938
7.0921273
7.0901538
7.0882263
7.0861113
7.08394
7.0816999
7.0793214
7.0767741
7.0741071
7.0712521
7.0682329
7.0649206
7.0615537
7.0581612
7.0547219
7.0512169
7.0477799
7.044441
7.0412912
7.0381605
7.0354159
7.0329912
7.0309408
7.0291498
7.0277535
7.0268207
7.0263171
7.0264106
7.0267406
7.0269341
7.0455628
7.0454346
7.0452158
7.0452498
7.0458106
7.0468177
7.0482212
7.0500455
7.0521346
7.0545884
7.0573185
7.0604271
7.0635914
7.0669525
7.0703841
7.073913
7.0773526
7.0807655
7.0841003
7.0874321
7.0904834
7.09334
7.0960461
7.0986135
7.1009966
7.1032519
7.1053892
7.1075374
7.109459
7.1114168
7.1132448
7.1151467
7.1168689
7.1186194
7.1204169
7.1223564
7.124171
7.1259658
7.1277879
7.1296747
7.1314685
7.1332997
7.1350205
7.136773
7.1384198
7.1400849
7.1416247
7.143138
7.1445051
7.145733
7.1469185
7.1481367
7.1494043
7.1504874
7.1512572
7.1517171
7.1516253
7.1713469
7.1714094
7.1709602
7.1702184
7.1691533
7.1679306
7.1667269
7.16555
7.1642949
7.1629182
7.1614184
7.1598597
7.1582035
7.1565321
7.1547893
7.1530428
7.1512202
7.1494008
7.1475257
7.145691
7.1438666
7.1420398
7.1401178
7.1383205
7.1365539
7.1347995
7.1329032
7.1310557
7.1291109
7.127178
7.1250371
7.1228999
7.1206403
7.1182445
7.1156658
7.1129388
7.1100476
7.1069806
7.1036514
7.1003121
7.096886
7.093434
7.0898763
7.0864559
7.0830712
7.0799084
7.0768204
7.0741024
7.071608
7.0694979
7.0676463
7.0662463
7.0651623
7.0645548
7.0643933
7.0645114
7.0645541
7.0839346
7.0839524
7.0839228
7.0842074
7.0848484
7.0860022
7.0874073
7.0892898
7.0914093
7.0939393
7.0966524
7.0997267
7.1028779
7.1062754
7.109691
7.1132688
7.1167431
7.1201737
7.1235394
7.1268657
7.1299411
7.1328722
7.1356169
7.1382119
7.140611
7.1428643
7.1450211
7.1471529
7.1490972
7.151035
7.1528973
7.1547914
7.1565707
7.1583556
7.1601492
7.1620594
7.1638874
7.1657309
7.1675903
7.1694601
7.1713006
7.1731179
7.1748858
7.1766221
7.1783137
7.1799595
7.1815378
7.1830234
7.1844036
7.1856825
7.1868528
7.1880506
7.1892203
7.1902602
7.1909899
7.1914302
7.1913838
7.2117464
7.2117691
7.2113386
7.2106225
7.2096165
7.2084818
7.2072907
7.2061143
7.2048398
7.2034589
7.2019721
7.2003895
7.1987406
7.1970286
7.1952997
7.1935107
7.1916997
7.1898383
7.1879752
7.186094
7.1842466
7.182402
7.1805029
7.1787066
7.1769099
7.1751079
7.1732166
7.17134
7.1694084
7.1674505
7.1653304
7.1631703
7.1609066
7.158503
7.1558872
7.1531288
7.1501723
7.1470741
7.1437518
7.140376
7.1369239
7.1334273
7.1298455
7.1264216
7.1230247
7.1198689
7.1168036
7.1140825
7.1115493
7.1094098
7.1075153
7.1060711
7.1048796
7.1041847
7.1037965
7.1037422
7.1036598
7.1237337
7.1238745
7.123995
7.1244676
7.1252281
7.1264558
7.1279357
7.1298428
7.1320008
7.134533
7.1372615
7.140322
7.143484
7.1468779
7.1503123
7.1538949
7.1574145
7.160892
7.1642725
7.1675927
7.1707146
7.1736984
7.1764622
7.1791014
7.1815105
7.1837915
7.1859495
7.1880601
7.1900314
7.1919557
7.1938476
7.1957337
7.1975557
7.1993658
7.2011622
7.2030551
7.2049193
7.206763
7.208667
7.2105215
7.2124042
7.214207
7.2160179
7.2177375
7.2194697
7.221128
7.2227074
7.2242021
7.22558
7.2268431
7.2280323
7.2292148
7.2303199
7.2312878
7.2319945
7.2324141
7.2324044
7.2533628
7.2533528
7.2529425
7.2522563
7.2513032
7.2502272
7.2490616
7.2478703
7.2465976
7.2452241
7.2437192
7.2421519
7.2404791
7.2387469
7.2370186
7.235205
7.2333923
7.2315076
7.2296438
7.2277369
7.2258792
7.2240036
7.2221185
7.220318
7.2184982
7.2166681
7.2147677
7.2128808
7.2109443
7.2089675
7.2068649
7.2047001
7.2024083
7.1999859
7.1973302
7.1945549
7.1915434
7.1884071
7.1850876
7.1817003
7.178191
7.1746583
7.1710788
7.167631
7.1642432
7.1610719
7.1580185
7.1552802
7.152753
7.1505747
7.1486594
7.1471435
7.1458864
7.1450641
7.1445303
7.1443368
7.1441492
7.1648903
7.1651103
7.1653726
7.1659591
7.1668369
7.168123
7.1696701
7.1715943
7.1737896
7.1763135
7.1790588
7.1821072
7.1852856
7.1886696
7.1921287
7.1957077
7.1992474
7.2027854
7.2061843
7.2095076
7.2126526
7.2156847
7.2184772
7.2211441
7.2235861
7.2258838
7.2280632
7.2301638
7.2321417
7.2340947
7.2359719
7.2378893
7.2397216
7.2415447
7.2433571
7.2452385
7.2471197
7.2489938
7.2508992
7.2527749
7.2546577
7.2564829
7.2582958
7.2600354
7.2617635
7.2634476
7.2650024
7.2665123
7.2678874
7.2691753
7.2703598
7.2715079
7.2725622
7.2735073
7.2741734
7.2745735
7.2745951
7.2961043
7.2960655
7.295674
7.2950205
7.2940992
7.2930573
7.2919241
7.2907389
7.2894518
7.2880687
7.2865605
7.2850021
7.2833219
7.2815929
7.2798478
7.2780299
7.2761989
7.2743125
7.2724318
7.2705228
7.2686413
7.2667475
7.2648697
7.2630448
7.2612173
7.2593758
7.2574582
7.2555761
7.2536238
7.2516367
7.2495363
7.2473416
7.2450379
7.2425757
7.239899
7.2370896
7.2340458
7.230882
7.2275521
7.2241335
7.2205853
7.2170305
7.2134516
7.2099805
7.2066008
7.2034149
7.2003718
7.1976195
7.1951
7.1928882
7.1909573
7.189381
7.1880696
7.1871402
7.1865079
7.1861807
7.1859254
7.207256
7.2075377
7.2079215
7.2085969
7.2095714
7.2109074
7.2125083
7.2144467
7.2166719
7.2191886
7.2219451
7.2249842
7.2281763
7.2315537
7.2350349
7.2386159
7.2421855
7.2457421
7.2491804
7.25252
7.2557037
7.2587575
7.2615844
7.2642696
7.2667523
7.2690608
7.2712727
7.2733727
7.2753708
7.2773205
7.2792092
7.2811247
7.282977
7.2848054
7.2866439
7.2885171
7.2904252
7.2923143
7.2942245
7.296111
7.2979992
7.2998367
7.301658
7.3034095
7.3051379
7.3068118
7.3083768
7.3098816
7.3112736
7.3125561
7.3137455
7.314862
7.3158965
7.3167928
7.3174364
7.3178197
7.317869
7.3398884
7.3398256
7.339449
7.3388147
7.3379424
7.3369204
7.3358137
7.3346244
7.3333361
7.33194
7.3304397
7.3288673
7.3271993
7.3254702
7.3237081
7.3218854
7.3200402
7.3181524
7.3162591
7.3143501
7.3124537
7.3105445
7.3086703
7.3068238
7.3049839
7.303126
7.301214
7.2993178
7.297371
7.2953672
7.2932567
7.2910385
7.2887142
7.2862156
7.2835226
7.2806774
7.2776141
7.2744099
7.2710604
7.267602
7.2640371
7.2604526
7.2568693
7.2533781
7.2500025
7.2468038
7.243771
7.2410096
7.2384974
7.2362586
7.2343157
7.232691
7.2313349
7.230318
7.2296061
7.2291686
7.2288595
7.2507335
7.2510608
7.2515472
7.252291
7.2533466
7.25472
7.2563666
7.2583124
7.260564
7.2630712
7.2658375
7.2688647
7.2720684
7.2754424
7.278944
7.2825293
7.2861292
7.2897022
7.2931812
7.2965407
7.2997663
7.3028402
7.3057031
7.3084053
7.3109176
7.3132598
7.3154825
7.3176053
7.3196137
7.3215594
7.323462
7.3253717
7.327232
7.3290853
7.3309379
7.3328164
7.3347205
7.3366182
7.3385293
7.3404253
7.342316
7.3441646
7.3459923
7.3477637
7.3494962
7.3511604
7.352739
7.3542365
7.3556338
7.3569302
7.3581182
7.3592197
7.3602273
7.3610782
7.3617037
7.3620742
7.362144
7.3846352
7.384556
7.3841914
7.3835737
7.3827414
7.381746
7.3806497
7.3794593
7.378164
7.3767619
7.3752667
7.3736819
7.3720204
7.3702856
7.3685105
7.3666795
7.3648276
7.3629349
7.3610362
7.3591238
7.3572236
7.3553194
7.3534369
7.3515753
7.3497184
7.3478517
7.3459446
7.3440355
7.3420893
7.3400721
7.3379463
7.3357159
7.3333599
7.3308294
7.3281174
7.325236
7.3221516
7.318909
7.3155344
7.3120389
7.3084531
7.3048425
7.3012504
7.2977432
7.294366
7.2911569
7.2881361
7.2853705
7.2828634
7.2806054
7.2786528
7.2769916
7.2755982
7.2745133
7.2737361
7.2732109
7.2728578
7.295231
7.2956061
7.2961618
7.2969722
7.2980794
7.2994935
7.3011645
7.3031258
7.3053869
7.3078958
7.3106581
7.313673
7.3168866
7.3202695
7.3237793
7.3273807
7.3309996
7.3346007
7.3381105
7.3415031
7.3447611
7.3478573
7.3507565
7.3534796
7.3560281
7.3583986
7.3606362
7.3627638
7.3647902
7.3667372
7.3686527
7.3705579
7.372431
7.3742889
7.3761588
7.3780455
7.3799511
7.3818545
7.3837671
7.3856688
7.3875625
7.389418
7.3912506
7.3930293
7.394765
7.3964235
7.3980147
7.3995075
7.4009153
7.4022073
7.4034003
7.404493
7.4054775
7.406293
7.4069044
7.4072631
7.4073474
7.4302791
7.4301879
7.4298344
7.4292321
7.4284249
7.4274498
7.4263635
7.4251708
7.4238766
7.4224687
7.420973
7.4193811
7.4177195
7.4159836
7.4142008
7.4123678
7.4105083
7.4086148
7.4067096
7.4047978
7.4028908
7.4009865
7.3990972
7.3972225
7.3953585
7.3934817
7.391579
7.3896601
7.3877064
7.3856734
7.3835432
7.3812975
7.3789105
7.3763475
7.373613
7.3706958
7.3675866
7.364312
7.3609015
7.357375
7.3537606
7.3501314
7.3465226
7.3430083
7.3396196
7.3364047
7.3333955
7.3306356
7.3281224
7.3258621
7.3238934
7.3222114
7.3207814
7.3196529
7.3188151
7.3182302
7.3178311
7.3406572
7.3410722
7.3416864
7.3425456
7.3436963
7.3451376
7.3468316
7.3488081
7.3510655
7.3535823
7.3563411
7.3593462
7.3625603
7.3659525
7.3694731
7.373088
7.3767291
7.380355
7.3838999
7.3873299
7.3906213
7.393744
7.3966801
7.3994262
7.4020028
7.4044047
7.4066603
7.4087939
7.4108328
7.4127939
7.4147161
7.4166171
7.4184958
7.4203664
7.4222446
7.4241367
7.4260381
7.4279461
7.4298589
7.431765
7.4336601
7.4355213
7.4373565
7.4391412
7.4408796
7.4425457
7.4441371
7.4456366
7.4470437
7.4483409
7.449533
7.4506143
7.4515796
7.4523809
7.4529753
7.4533239
7.453419
7.4767652
7.4766648
7.4763204
7.4757338
7.4749394
7.4739809
7.4729032
7.4717116
7.4704133
7.4690055
7.4675041
7.4659115
7.4642435
7.4625034
7.4607168
7.4588801
7.4570171
7.455121
7.4532139
7.4513005
7.4493908
7.4474894
7.4455948
7.443714
7.4418399
7.4399573
7.4380571
7.4361322
7.4341662
7.4321215
7.4299813
7.4277157
7.4253
7.4227119
7.4199495
7.4169985
7.4138591
7.4105501
7.4071012
7.4035378
7.3999006
7.3962476
7.3926267
7.3891002
7.3857068
7.3824911
7.3794891
7.3767291
7.3742139
7.3719555
7.369974
7.3682697
7.3668193
7.3656524
7.3647719
7.3641351
7.363704
7.3869662
7.3874099
7.3880651
7.3889645
7.3901441
7.3916015
7.3933148
7.3953008
7.3975598
7.4000725
7.4028342
7.4058333
7.4090515
7.412445
7.4159779
7.4196041
7.4232697
7.4269182
7.4304999
7.433968
7.4372948
7.4404528
7.4434175
7.4461975
7.4487968
7.4512256
7.4535006
7.4556492
7.457699
7.4596699
7.461597
7.4634965
7.4653832
7.4672605
7.4691424
7.4710396
7.4729416
7.4748535
7.476767
7.4786752
7.480572
7.4824367
7.4842746
7.4860629
7.4878039
7.4894738
7.4910671
7.4925706
7.493979
7.4952786
7.496469
7.4975439
7.4984971
7.4992858
7.4998652
7.5002059
7.5003093
7.5240495
7.5239424
7.5236044
7.5230302
7.5222457
7.5212983
7.5202259
7.5190361
7.5177341
7.5163253
7.5148195
7.5132258
7.5115541
7.5098135
7.5080226
7.5061849
7.5043177
7.5024213
7.5005125
7.498598
7.4966851
7.4947817
7.492883
7.4909994
7.4891191
7.4872315
7.4853309
7.4834011
7.4814243
7.4793703
7.4772138
7.4749281
7.4724882
7.4698755
7.4670813
7.4640996
7.4609234
7.4575787
7.4540905
7.4504921
7.446832
7.4431554
7.4395222
7.4359841
7.4325875
7.42937
7.426372
7.4236102
7.4210971
7.4188388
7.4168496
7.4151285
7.4136654
7.4124747
7.411557
7.4108866
7.4104296
7.4340926
7.4345582
7.4352433
7.4361769
7.4373781
7.4388464
7.4405738
7.4425656
7.4448223
7.4473365
7.4500978
7.4530961
7.4563118
7.4597118
7.4632549
7.4668963
7.4705834
7.4742553
7.4778701
7.4813787
7.4847408
7.4879349
7.490935
7.4937453
7.4963701
7.4988206
7.5011172
7.5032806
7.5053389
7.5073212
7.5092542
7.5111573
7.5130444
7.5149266
7.5168124
7.5187119
7.520617
7.5225299
7.5244462
7.526356
7.5282513
7.5301204
7.5319582
7.5337512
7.5354914
7.5371643
7.5387588
7.5402662
7.5416759
7.5429803
7.54417
7.545241
7.5461828
7.5469631
7.5475342
7.54787
7.5479794
7.5720977
7.5719855
7.5716515
7.571083
7.5703069
7.5693687
7.5682986
7.567108
7.5658034
7.5643922
7.5628841
7.561288
7.5596146
7.5578738
7.5560796
7.5542411
7.552371
7.5504756
7.5485652
7.5466484
7.5447348
7.5428279
7.5409281
7.5390403
7.5371571
7.535269
7.5333637
7.5314276
7.5294407
7.5273769
7.5252062
7.5229006
7.5204397
7.5178019
7.5149753
7.5119565
7.5087444
7.5053637
7.5018367
7.4982055
7.49452
7.490822
7.4871724
7.4836234
7.4802217
7.4770057
7.4740079
7.4712463
7.4687337
7.4664772
7.4644837
7.4627511
7.4612782
7.4600684
7.4591228
7.4584255
7.4579512
7.4820019
7.4824828
7.48319
7.4841459
7.4853625
7.4868389
7.4885759
7.4905708
7.4928269
7.4953375
7.4980993
7.5010969
7.5043136
7.5077168
7.5112718
7.5149298
7.518639
7.522339
7.5259863
7.529531
7.5329311
7.5361615
7.5391987
7.5420418
7.5446927
7.5471644
7.5494779
7.5516562
7.5537259
7.5557176
7.5576565
7.5595637
7.5614534
7.5633375
7.5652273
7.5671271
7.5690354
7.5709499
7.5728667
7.5747777
7.5766733
7.5785444
7.5803835
7.5821789
7.5839203
7.5855939
7.587192
7.5887003
7.5901132
7.5914176
7.5926093
7.593679
7.5946147
7.5953869
7.5959536
7.5962859
7.5963998
7.6208848
7.620769
7.6204378
7.6198733
7.6191029
7.6181693
7.6171001
7.615908
7.6146026
7.6131891
7.6116795
7.6100805
7.6084056
7.6066637
7.604867
7.6030276
7.6011553
7.5992597
7.5973482
7.5954319
7.5935164
7.5916074
7.5897074
7.5878163
7.5859301
7.5840386
7.58213
7.5801879
7.5781919
7.576116
7.5739306
7.5716092
7.5691265
7.5664624
7.5636033
7.5605475
7.557299
7.5538793
7.5503167
7.5466523
7.5429374
7.5392174
7.5355505
7.5319906
7.5285842
7.5253675
7.5223692
7.5196085
7.5170986
7.5148438
7.5128471
7.5111081
7.5096269
7.5084048
7.5074397
7.5067246
7.5062371
7.530656
7.531148
7.5318701
7.5328425
7.5340698
7.5355556
7.5372956
7.5392936
7.5415472
7.544057
7.5468163
7.5498151
7.5530324
7.5564425
7.5600074
7.5636831
7.5674143
7.5711445
7.5748262
7.5784068
7.5818461
7.585113
7.5881869
7.5910618
7.5937392
7.5962328
7.5985625
7.600755
7.6028368
7.6048372
7.6067823
7.6086926
7.610586
7.6124743
7.6143668
7.6162669
7.6181764
7.6200927
7.6220084
7.6239201
7.625816
7.627689
7.6295289
7.6313265
7.6330693
7.6347457
7.6363454
7.6378563
7.6392703
7.6405769
7.6417694
7.6428379
7.6437703
7.6445398
7.6451026
7.6454328
7.6455499
7.6703944
7.6702758
7.6699463
7.6693844
7.6686163
7.6676845
7.6666159
7.665423
7.6641156
7.6627008
7.6611887
7.6595882
7.6579107
7.6561669
7.6543689
7.6525282
7.6506547
7.6487583
7.6468466
7.6449307
7.6430144
7.6411046
7.6392038
7.6373102
7.6354202
7.6335249
7.6316123
7.6296642
7.6276594
7.6255717
7.6233725
7.6210337
7.6185293
7.6158385
7.6129482
7.6098565
7.606571
7.6031125
7.599513
7.5958145
7.5920687
7.5883257
7.5846416
7.5810707
7.5776574
7.5744384
7.5714396
7.5686808
7.5661721
7.5639186
7.5619206
7.5601788
7.5586904
7.5574582
7.5564794
7.5557514
7.555255
7.5800335
7.580533
7.5812662
7.5822499
7.5834865
7.5849767
7.5867203
7.5887179
7.5909713
7.5934789
7.5962377
7.5992364
7.6024575
7.6058742
7.6094516
7.6131443
7.6168995
7.6206611
7.6243766
7.627995
7.6314727
7.6347767
7.6378862
7.6407919
7.6434961
7.6460114
7.6483593
7.6505653
7.6526586
7.6546677
7.656619
7.6585341
7.6604313
7.6623227
7.6642175
7.6661191
7.6680292
7.6699455
7.6718617
7.6737733
7.6756702
7.677544
7.6793856
7.6811839
7.6829287
7.6846072
7.6862086
7.6877218
7.6891374
7.6904457
7.6916391
7.6927082
7.6936396
7.6944066
7.6949679
7.695297
7.6954167
7.7206167
7.720496
7.7201671
7.719606
7.7188397
7.7179082
7.7168384
7.7156444
7.7143351
7.7129187
7.7114044
7.7098022
7.7081228
7.7063773
7.7045786
7.7027364
7.700862
7.6989647
7.6970532
7.6951365
7.6932202
7.6913096
7.689407
7.6875112
7.6856181
7.683719
7.6818014
7.679847
7.6778338
7.675735
7.6735219
7.6711652
7.6686387
7.6659214
7.6630003
7.6598732
7.6565503
7.6530534
7.6494163
7.6456833
7.6419061
7.6381385
7.6344369
7.6308528
7.6274318
7.6242085
7.6212091
7.6184504
7.6159435
7.6136903
7.6116928
7.6099481
7.608456
7.6072162
7.6062287
7.6054917
7.6049888
7.6301197
7.6306253
7.6313653
7.6323561
7.6335985
7.6350923
7.6368379
7.6388355
7.6410886
7.6435952
7.6463539
7.6493544
7.6525802
7.6560059
7.6595969
7.6633079
7.6670881
7.6708811
7.6746316
7.6782875
7.6818037
7.6851455
7.6882899
7.6912265
7.6939568
7.6964944
7.69886
7.70108
7.7031842
7.7052017
7.7071593
7.7090795
7.7109805
7.7128752
7.7147723
7.716676
7.7185871
7.7205037
7.7224207
7.7243324
7.72623
7.7281049
7.7299477
7.731747
7.7334928
7.7351731
7.7367761
7.7382915
7.7397087
7.7410189
7.7422137
7.7432842
7.7442162
7.7449822
7.7455432
7.745872
7.7459935
7.759039
7.7572927
7.7554926
7.7536495
7.751774
7.749876
7.7479642
7.7460467
7.7441297
7.742218
7.7403134
7.738415
7.7365186
7.7346155
7.7326927
7.7307316
7.7287099
7.7266002
7.7243733
7.7219987
7.7194502
7.7167069
7.7137551
7.7105934
7.707233
7.7036976
7.7000227
7.6962544
7.6924456
7.6886525
7.6849316
7.6813333
7.6779026
7.6746738
7.671672
7.6689128
7.6664063
7.6641535
7.6621558
7.6604093
7.6589139
7.657669
7.6566756
7.6559326
7.6554247
7.6809035
7.6814133
7.6821588
7.6831544
7.6844015
7.6858985
7.6876457
7.6896439
7.6918966
7.6944035
7.6971632
7.7001668
7.703399
7.706835
7.7104409
7.7141724
7.7179787
7.7218035
7.7255897
7.7292836
7.7328381
7.7362171
7.7393958
7.7423628
7.745119
7.7476783
7.7500619
7.7522959
7.7544111
7.7564369
7.7584016
7.760327
7.7622325
7.7641305
7.7660304
7.767936
7.7698483
7.7717658
7.7736837
7.7755958
7.7774943
7.7793702
7.7812138
7.7830146
7.7847615
7.810661
7.8089134
7.8071121
7.8052679
7.8033914
7.8014925
7.7995799
7.7976615
7.7957434
7.7938301
7.7919235
7.7900222
7.7881224
7.7862145
7.7842863
7.7823181
7.7802881
7.7781672
7.7759261
7.7735336
7.7709635
7.7681945
7.7652125
7.7620167
7.7586195
7.7550458
7.7513329
7.7475288
7.7436878
7.7398679
7.7361254
7.7325114
7.7290696
7.7258336
7.7228278
7.7200671
7.7175592
7.7153062
7.7133073
7.7115593
7.7100608
7.7088118
7.7078143
7.7070666
7.7065549
7.732379
7.7328922
7.7336419
7.7346412
7.7358919
7.7373918
7.7391407
7.7411407
7.7433945
7.7459035
7.7486659
7.7516744
7.7549147
7.7583628
7.7619855
7.7657394
7.7695733
7.7734306
7.7772528
7.7809847
7.7845775
7.7879929
7.7912054
7.7942022
7.7969841
7.7995646
7.801966
7.8042143
7.8063409
7.8083753
7.8103472
7.8122783
7.8141886
7.8160905
7.8179933
7.8199011
7.8218154
7.8237343
7.8256534
7.8275665
7.829466
7.831343
7.8331878
7.8594417
7.8575963
7.8557186
7.8538185
7.8519047
7.8499847
7.848065
7.8461495
7.8442404
7.8423359
7.8404318
7.8385189
7.8365846
7.8346089
7.8325699
7.8304376
7.8281821
7.825772
7.8231808
7.8203864
7.817375
7.8141461
7.8107126
7.8071008
7.8033498
7.7995094
7.7956356
7.7917874
7.7880217
7.7843898
7.7809349
7.7776898
7.774678
7.7719133
7.7694027
7.7671477
7.7651465
7.7633964
7.761895
7.7606427
7.7596413
7.7588897
7.7583749
7.7845436
7.7850597
7.7858129
7.7868163
7.7880704
7.7895734
7.791325
7.7933277
7.7955844
7.7980972
7.8008647
7.8038804
7.8071309
7.8105932
7.8142346
7.8180125
7.8218754
7.8257659
7.8296246
7.8333947
7.8370254
7.8404769
7.843722
7.8467478
7.8495546
7.8521563
7.854575
7.8568379
7.8589757
7.8610196
7.8629992
7.8649369
7.8668526
7.8687592
7.8706654
7.8725759
7.8744927
7.8764134
7.8783344
7.9049432
7.9030211
7.9010993
7.8991809
7.8972689
7.8953606
7.8934514
7.8915328
7.8895915
7.8876079
7.8855589
7.8834153
7.8811452
7.8787179
7.8761061
7.873287
7.870247
7.8669858
7.8635164
7.8598671
7.856078
7.8522009
7.8482935
7.8444156
7.8406251
7.8369735
7.8335033
7.8302468
7.8272265
7.8244557
7.8219402
7.8196813
7.8176766
7.8159232
7.8144183
7.8131623
7.8121571
7.8114024
7.8108849
7.8373986
7.8379174
7.8386739
7.8396811
7.840939
7.842446
7.8442016
7.8462086
7.8484702
7.850989
7.8537639
7.8567895
7.8600526
7.8635315
7.8671938
7.8709974
7.8748905
7.8788151
7.8827106
7.8865186
7.8901863
7.8936734
7.8969503
7.9000041
7.9028354
7.905457
7.907893
7.9101701
7.9123198
7.9143741
7.9163618
7.9183069
7.9202288
7.94526
7.9433109
7.9413183
7.9392588
7.9371028
7.9348187
7.9323745
7.9297428
7.9268997
7.9238323
7.9205398
7.9170356
7.9133498
7.909523
7.9056091
7.9016672
7.8977585
7.8939413
7.8902675
7.8867794
7.8835089
7.8804775
7.8776977
7.8751751
7.8729102
7.8709004
7.8691422