/*--------------------------------*- C++ -*----------------------------------*\
| =========                 |                                                 |
| \\      /  F ield         | OpenFOAM: The Open Source CFD Toolbox           |
|  \\    /   O peration     | Version:  v2012                                 |
|   \\  /    A nd           | Website:  www.openfoam.com                      |
|    \\/     M anipulation  |                                                 |
\*---------------------------------------------------------------------------*/
FoamFile
{
    version     2.0;
    format      ascii;
    class       volScalarField;
    location    "283";
    object      p;
}
// * * * * * * * * * * * * * * * * * * * * * * * * * * * * * * * * * * * * * //

dimensions      [0 2 -2 0 0 0 0];


internalField   nonuniform List<scalar> 
75385
(
0.028823343
0.02825152
0.02759363
0.026866171
0.026083372
0.025257996
0.024401067
0.023521678
0.022629093
0.021729855
0.020828234
0.019929536
0.019037706
0.018155994
0.017287017
0.016432896
0.015595236
0.014775202
0.013973633
0.013191047
0.012427684
0.011683577
0.01095853
0.010252249
0.009564272
0.0088939104
0.0082403913
0.0076028767
0.0069803933
0.0063715009
0.0057748724
0.0051880309
0.0046095507
0.0040345086
0.0034660163
0.0028968644
0.0023433961
0.0017954766
0.0012871479
0.00074545208
0.00034094952
0.00034267634
0.00031979135
0.00031331557
0.00031173246
0.00031962079
0.00034433378
0.00035814837
0.00037055993
0.00037330315
0.00037061645
0.0003642648
0.00035508697
0.00034334462
0.00032845481
0.00031225633
0.00029124007
0.0002775892
0.00026560115
0.00026068933
0.00025247508
0.00029020046
0.00027452568
0.00045046473
9.9819536e-05
0.0007006544
0.00036542556
0.00046871106
0.00042991681
0.00043691874
0.00041575312
0.00040255872
0.0003832656
0.00036682451
0.00034760518
0.00032910119
0.00030891076
0.00029121208
0.00027219039
0.00025257729
0.00022921728
0.00021348742
0.00020109619
0.00019381778
0.00018747387
0.00018627623
0.00018650038
0.00019104416
0.00019591018
0.0002024958
0.00020870326
0.00021646767
0.00022247848
0.0002264375
0.00022589813
0.00021596524
0.00019593866
0.00016040124
0.00010779509
3.3417047e-05
-5.102126e-05
-0.00012850436
-0.00016232241
-7.9135208e-05
0.00015796656
0.00063404339
0.0011140088
0.0015745435
0.0016901748
0.001445422
0.0010528071
0.00057569003
0.00012718794
-0.00021519461
-0.00042469782
-0.00052865565
-0.0005552508
-0.0005457001
-0.0005280738
-0.0005166865
-0.0005224657
-0.00051526071
-0.00050229738
-0.00047008658
-0.00042765267
-0.00038445031
-0.00036084914
-0.00034784806
-0.00033939919
-0.00034365209
-0.00034567303
-0.00035304921
-0.00036088058
-0.00037018254
-0.00037857154
-0.00038789982
-0.00039651676
-0.00040358831
-0.00040980753
-0.00041486012
-0.00041895611
-0.0004238489
-0.00042735239
-0.00043338008
-0.00043810984
-0.00043716982
-0.00043557224
-0.00042284293
-0.00042430401
-0.00038461467
-0.00035491787
-0.00033735558
-0.00032548367
-0.00030844732
-0.00029062248
-0.00027156568
-0.00025631711
-0.00024463938
-0.00023740698
-0.00023259843
-0.00023004419
-0.00022891753
-0.00022918334
-0.00023028327
-0.00023192537
-0.00023338502
-0.00023437831
-0.00023469691
-0.00023375552
-0.00023052817
-0.00022482033
-0.00021663313
-0.00020545407
-0.00019155944
-0.00017455311
-0.00015533283
-0.00013351096
-0.00011009427
-8.4788579e-05
-5.8714341e-05
-3.1288049e-05
-3.7215736e-06
2.4414966e-05
5.2248509e-05
8.0166954e-05
0.00010724834
0.00013395617
0.00015933602
0.00018408476
0.0002074513
0.00023000018
0.00025095209
0.00027074963
0.00028867126
0.00030534742
0.00031987109
0.00033286537
0.00034358954
0.00035322597
0.00036191884
0.00037151725
0.00037894652
0.00038381694
0.00038553763
0.00037287142
0.00036813857
0.00035392628
0.0007357589
0.00072466981
0.00071197456
0.00070256202
0.00068920274
0.00068138539
0.00067028018
0.00065763777
0.00064203995
0.00062309386
0.00060266126
0.00057942342
0.00055512994
0.00052802106
0.0004998742
0.00046917143
0.00043735986
0.00040312458
0.00036803167
0.00033069883
0.00029253275
0.00025222401
0.00021142979
0.00016926869
0.00012699613
8.3861459e-05
4.0930757e-05
-2.5197126e-06
-4.475064e-05
-8.6927596e-05
-0.00012751472
-0.00016732894
-0.00020480577
-0.00024072057
-0.00027335279
-0.00030420031
-0.00033235
-0.00035819676
-0.00038126256
-0.00040185701
-0.00042000147
-0.00043597436
-0.0004502115
-0.00046314931
-0.00047532553
-0.00048744153
-0.00049982643
-0.00051263888
-0.00052630442
-0.00054028471
-0.00055490399
-0.00056859774
-0.00058325009
-0.00059510922
-0.00061490339
-0.00063135358
-0.00065756259
-0.00068035781
-0.00067669345
-0.0012345305
-0.0017223581
-0.0023072195
-0.0028905907
-0.0035071401
-0.0041278439
-0.0047646132
-0.0054128477
-0.0060810805
-0.006771174
-0.0074884166
-0.0082351116
-0.009014772
-0.0098300463
-0.010684219
-0.011580548
-0.012522557
-0.013513945
-0.014558762
-0.015661475
-0.016826768
-0.018059771
-0.019365826
-0.020751074
-0.022221892
-0.023785304
-0.025448786
-0.027220797
-0.029110289
-0.031126944
-0.033281452
-0.035585627
-0.038051941
-0.040694032
-0.043526921
-0.046567129
-0.049832425
-0.053341941
-0.057116664
-0.06117951
-0.065555127
-0.070270301
-0.075353729
-0.080836598
-0.086752317
-0.093136765
-0.10002822
-0.10746693
-0.11549731
-0.12416501
-0.12394954
-0.11529343
-0.10727422
-0.099846427
-0.09296553
-0.08659105
-0.080684828
-0.075210989
-0.070136077
-0.065428877
-0.061060687
-0.057004816
-0.053236713
-0.04973339
-0.046473877
-0.043439138
-0.040611472
-0.037974216
-0.035512323
-0.033212264
-0.031061714
-0.029048762
-0.027162552
-0.025393353
-0.023732687
-0.022172027
-0.020703601
-0.019320601
-0.018016735
-0.01678588
-0.015622551
-0.014521756
-0.013478704
-0.012489047
-0.011548719
-0.010654035
-0.0098014229
-0.0089875365
-0.0082092143
-0.0074635839
-0.0067472493
-0.0060577949
-0.0053904725
-0.0047434571
-0.0041099327
-0.003492527
-0.0028834146
-0.0023024029
-0.001720033
-0.0012239784
-0.0011908481
-0.0011577848
-0.001128683
-0.0011009221
-0.0010747929
-0.0010475972
-0.0010204831
-0.00099353589
-0.00096781726
-0.00094290611
-0.00091889715
-0.00089493575
-0.00087104951
-0.0008466292
-0.00082046075
-0.00079128472
-0.00075903326
-0.0007234718
-0.00068427847
-0.00064077359
-0.00059299132
-0.00054078261
-0.00048443518
-0.00042509953
-0.00036164711
-0.00029545146
-0.00022571828
-0.00015369796
-7.8833213e-05
-3.5771076e-06
7.3221491e-05
0.00015012476
0.00022658092
0.00030230006
0.00037678845
0.00044955778
0.00052021408
0.00058820776
0.00065442439
0.00071785336
0.00077853432
0.00083616643
0.00089070132
0.00094122294
0.00098865672
0.0010320623
0.0010723851
0.0011086827
0.0011417282
0.0011707685
0.0011964188
0.0012185051
0.0012371636
0.0012539271
0.0012667015
0.0012768505
0.001286321
0.0017947129
0.0017832842
0.0017681107
0.0017483245
0.0017247666
0.0016984234
0.00166696
0.0016315084
0.00159042
0.0015448377
0.0014937433
0.0014380467
0.0013770382
0.0013112332
0.0012403306
0.0011655541
0.0010861074
0.0010031879
0.00091592617
0.00082567295
0.00073194961
0.00063538196
0.00053594529
0.00043494538
0.00033196883
0.0002284218
0.00012353945
1.8959468e-05
-8.5338852e-05
-0.00018865176
-0.00028949515
-0.00038833646
-0.00048322633
-0.00057471086
-0.00066127333
-0.00074181988
-0.00081869311
-0.0008906432
-0.00095782833
-0.0010193506
-0.0010764833
-0.0011284275
-0.0011761492
-0.0012202065
-0.0012621174
-0.0013015753
-0.0013402428
-0.0013781883
-0.0014162003
-0.0014530441
-0.0014901697
-0.0015260291
-0.0015609589
-0.001593828
-0.0016267292
-0.0016588207
-0.0016912641
-0.0022787717
-0.0022472453
-0.0022102517
-0.0021693192
-0.0021259272
-0.002079419
-0.0020307128
-0.0019802171
-0.0019292034
-0.0018761158
-0.0018216727
-0.0017652317
-0.0017062248
-0.0016436941
-0.0015774795
-0.0015073638
-0.0014332456
-0.001353587
-0.0012684518
-0.0011763422
-0.001077791
-0.00097209581
-0.00085912838
-0.00074140512
-0.00061766654
-0.00049114803
-0.00036020687
-0.00022711387
-9.1193795e-05
4.562856e-05
0.00018229087
0.00031885478
0.00045381006
0.00058761154
0.0007190718
0.0008481882
0.0009735866
0.0010946326
0.0012114562
0.0013244091
0.0014321039
0.0015352015
0.0016324144
0.001724079
0.0018093778
0.0018884695
0.0019613054
0.0020280458
0.0020880969
0.0021421581
0.0021895655
0.0022311443
0.0022660487
0.0022951874
0.0023178109
0.0023335191
0.0023439001
0.0028977202
0.0028873722
0.0028698937
0.002843657
0.0028083859
0.002764893
0.0027135356
0.0026542823
0.0025871071
0.0025123542
0.0024295875
0.0023392418
0.0022413625
0.0021356262
0.0020230321
0.0019033072
0.0017771012
0.0016449884
0.0015066364
0.0013630923
0.001214376
0.0010599318
0.00090153625
0.00073998447
0.0005754383
0.00040927676
0.00024078293
7.2252167e-05
-9.703055e-05
-0.00026503145
-0.00043117492
-0.00059522822
-0.00075507867
-0.00091205025
-0.0010610034
-0.0012018709
-0.001334564
-0.0014597158
-0.0015778488
-0.0016875087
-0.0017908189
-0.0018869119
-0.0019770863
-0.0020629743
-0.0021454003
-0.0022246535
-0.0022997672
-0.0023716471
-0.0024401784
-0.002505326
-0.0025685415
-0.002629317
-0.002685931
-0.0027380391
-0.002785643
-0.0028269023
-0.0028598428
-0.0034626003
-0.0034232568
-0.0033761309
-0.0033203961
-0.0032584269
-0.0031902441
-0.0031163282
-0.0030385261
-0.0029579919
-0.002873146
-0.0027851217
-0.0026939378
-0.0025991784
-0.0024987113
-0.0023930501
-0.0022808742
-0.0021613648
-0.0020331172
-0.0018980101
-0.0017530883
-0.0016002428
-0.0014385202
-0.0012676732
-0.0010899969
-0.00090284223
-0.00071246807
-0.00051730264
-0.00031817034
-0.00011724345
8.6404228e-05
0.00028835245
0.00048934387
0.00068835222
0.00088449998
0.0010775644
0.0012661753
0.0014505959
0.0016288672
0.0018009562
0.0019666069
0.0021249186
0.0022760263
0.0024192727
0.0025539028
0.002680675
0.0027981655
0.0029064842
0.0030055996
0.0030952763
0.0031756714
0.0032465039
0.0033073669
0.0033589371
0.0033998902
0.0034306194
0.0034513834
0.00346334
0.0040305869
0.0040166317
0.0039923434
0.0039567863
0.0039093322
0.0038491973
0.003778225
0.0036955608
0.0036019424
0.0034972107
0.0033820158
0.0032558279
0.0031192707
0.0029723822
0.002815737
0.0026491416
0.0024733694
0.002288977
0.0020963809
0.0018960634
0.0016887738
0.0014747757
0.0012556343
0.001031452
0.00080366731
0.00057252336
0.0003390527
0.0001040762
-0.00013213688
-0.00036555877
-0.00059700835
-0.0008239319
-0.0010465797
-0.0012639119
-0.0014724293
-0.0016740704
-0.0018654259
-0.0020472609
-0.0022195131
-0.0023810549
-0.0025342421
-0.0026781943
-0.0028131532
-0.0029408305
-0.0030617524
-0.0031756198
-0.0032844756
-0.003387433
-0.0034866001
-0.0035808641
-0.0036713805
-0.0037576878
-0.003836494
-0.003908686
-0.0039735886
-0.0040296204
-0.0040762458
-0.0047063761
-0.004654425
-0.004591883
-0.0045185403
-0.0044366681
-0.0043464431
-0.0042472206
-0.0041423953
-0.0040330867
-0.0039165408
-0.003796549
-0.0036687412
-0.0035345677
-0.0033924225
-0.003242433
-0.0030839289
-0.0029148046
-0.0027357191
-0.002546945
-0.0023461924
-0.002134902
-0.0019137754
-0.0016806134
-0.0014404513
-0.0011919499
-0.00093677385
-0.00067678413
-0.00041216187
-0.00014530713
0.00012349469
0.00039210669
0.00065813029
0.00092201367
0.0011814644
0.0014372735
0.0016870689
0.0019306054
0.0021664631
0.0023949789
0.002614343
0.0028245982
0.0030248765
0.0032148583
0.0033938434
0.0035611579
0.0037167867
0.0038608707
0.0039923035
0.0041120955
0.0042189703
0.0043132556
0.0043946226
0.0044636348
0.0045177915
0.004558531
0.0045867022
0.0046032939
0.005180751
0.0051616181
0.005129469
0.0050831512
0.0050220235
0.0049442206
0.0048518662
0.0047458868
0.0046261383
0.0044915269
0.0043435381
0.0041814675
0.0040066599
0.0038184177
0.0036172043
0.0034042092
0.0031790504
0.0029429577
0.0026965525
0.0024399403
0.0021752894
0.001902072
0.0016212006
0.001333799
0.0010422437
0.00074580152
0.00044676765
0.0001445244
-0.00015780586
-0.00045847987
-0.00075683942
-0.0010501623
-0.0013385384
-0.0016192257
-0.0018911096
-0.0021559046
-0.0024084375
-0.0026494326
-0.0028794563
-0.0030962218
-0.0033019333
-0.0034973698
-0.0036802034
-0.0038537622
-0.004018066
-0.004173391
-0.0043208479
-0.0044595616
-0.0045933655
-0.0047181833
-0.0048371873
-0.0049493259
-0.0050511615
-0.0051431133
-0.0052244983
-0.0052935589
-0.0053500163
-0.0060144374
-0.0059534397
-0.0058780173
-0.0057884193
-0.0056864027
-0.0055724539
-0.0054473567
-0.0053127014
-0.0051716094
-0.0050198955
-0.0048618298
-0.0046936414
-0.0045162672
-0.0043286552
-0.0041308391
-0.0039223992
-0.0036996331
-0.0034661571
-0.0032205178
-0.0029603501
-0.002688707
-0.0024041151
-0.0021071482
-0.0018025698
-0.0014883883
-0.0011660215
-0.00083782018
-0.00050540997
-0.00017026223
0.00016601036
0.00050255396
0.00083535861
0.0011648
0.0014887515
0.0018082268
0.0021207453
0.00242439
0.0027181246
0.0030031085
0.0032771014
0.0035393127
0.003789534
0.0040259628
0.0042494554
0.0044586028
0.0046533442
0.0048334186
0.0049984212
0.0051478319
0.0052813102
0.0053995738
0.0055027697
0.0055889268
0.0056572389
0.0057090761
0.0057452049
0.0057667306
0.0063627104
0.0063388457
0.0062988715
0.0062416229
0.0061656401
0.0060707802
0.0059571544
0.005826472
0.0056786958
0.0055139831
0.0053319953
0.0051337492
0.0049187742
0.0046884742
0.0044423524
0.0041815865
0.0039062168
0.003617376
0.0033152009
0.0030018162
0.0026781584
0.0023434921
0.0019988447
0.0016470876
0.001290147
0.00092655032
0.00055885048
0.00018796894
-0.00018356305
-0.00055340084
-0.00092102691
-0.0012847968
-0.0016423465
-0.0019903944
-0.0023287834
-0.002659139
-0.0029767252
-0.003279887
-0.0035706789
-0.003847276
-0.0041098893
-0.0043600559
-0.0045955099
-0.0048188075
-0.0050305698
-0.0052313815
-0.0054208058
-0.005599282
-0.0057695247
-0.0059282306
-0.0060784829
-0.0062172462
-0.0063433434
-0.006455817
-0.006553606
-0.0066355273
-0.0067008601
-0.0074143665
-0.0073445272
-0.0072560843
-0.0071497182
-0.0070264999
-0.0068875654
-0.0067343689
-0.0065678605
-0.0063910993
-0.0062009176
-0.0060014699
-0.0057894281
-0.0055640696
-0.0053270135
-0.0050770505
-0.0048133648
-0.0045352728
-0.0042426559
-0.0039338424
-0.0036101897
-0.0032734968
-0.0029221759
-0.0025578352
-0.0021844489
-0.001800567
-0.0014075942
-0.0010071481
-0.00060302886
-0.00019743772
0.00021001334
0.00061629719
0.0010192773
0.0014180406
0.0018090062
0.0021940106
0.0025708951
0.002937489
0.0032919234
0.0036345972
0.0039650568
0.0042811151
0.0045822106
0.0048677184
0.0051369533
0.0053891009
0.00562438
0.0058413717
0.0060405591
0.0062210489
0.0063830434
0.0065264211
0.0066507031
0.0067546901
0.0068379166
0.0069007383
0.0069445602
0.006970795
0.0075923814
0.0075637612
0.0075160874
0.007447904
0.0073573617
0.0072437808
0.0071084891
0.0069521677
0.006775994
0.0065792772
0.0063625749
0.006126253
0.0058704564
0.0055958079
0.0053029336
0.0049921773
0.0046646342
0.0043208001
0.0039616466
0.0035887603
0.00320275
0.0028035972
0.0023934173
0.0019745669
0.0015484902
0.001113934
0.0006748838
0.00023185989
-0.00021232407
-0.00065540156
-0.0010973576
-0.0015341976
-0.001964364
-0.0023849991
-0.0027952838
-0.0031948992
-0.0035809805
-0.0039531685
-0.0043106484
-0.0046515989
-0.0049757071
-0.0052836343
-0.0055767539
-0.0058547333
-0.0061181965
-0.0063694039
-0.0066051823
-0.006826836
-0.0070375055
-0.0072339892
-0.0074174206
-0.0075857915
-0.0077379087
-0.0078722862
-0.007987593
-0.0080826082
-0.0081570054
-0.0089324872
-0.0088532599
-0.0087513903
-0.008626667
-0.0084807063
-0.0083146817
-0.0081302643
-0.0079287871
-0.0077120581
-0.0074797787
-0.0072351484
-0.0069743026
-0.0066966075
-0.006404656
-0.006097084
-0.0057727907
-0.0054332185
-0.0050756733
-0.004701194
-0.0043098208
-0.0039005754
-0.0034779112
-0.0030421738
-0.002593498
-0.0021343102
-0.0016657907
-0.0011906311
-0.00071069537
-0.00022855561
0.00025335293
0.00073419866
0.0012103554
0.0016816702
0.0021436919
0.0025976878
0.0030418387
0.0034742947
0.0038926352
0.0042966667
0.0046852978
0.0050577262
0.0054122851
0.0057488406
0.0060659693
0.0063635237
0.0066404272
0.0068965168
0.0071311864
0.007344274
0.0075353627
0.0077047297
0.0078512704
0.0079744279
0.0080727881
0.0081464176
0.0081979106
0.0082289376
0.008881401
0.0088478861
0.0087923828
0.008712884
0.0086066611
0.0084739428
0.0083159959
0.008133279
0.0079268102
0.007696999
0.0074439459
0.0071676314
0.0068690539
0.0065480815
0.0062060867
0.0058430644
0.0054606961
0.0050589826
0.0046399463
0.0042038494
0.0037523269
0.0032859763
0.0028067282
0.0023168576
0.0018175237
0.0013085193
0.00079389518
0.00027411063
-0.00024705811
-0.00076903547
-0.0012884752
-0.0018032393
-0.0023116332
-0.0028107071
-0.0032988806
-0.0037733015
-0.0042339987
-0.0046806997
-0.0051083351
-0.0055179923
-0.0059102552
-0.0062837718
-0.0066399086
-0.0069785907
-0.0073000978
-0.0076053402
-0.0078924664
-0.0081620912
-0.0084169446
-0.0086546504
-0.0088751976
-0.009076349
-0.0092575519
-0.0094154737
-0.0095499868
-0.0096590429
-0.0097433159
-0.010592767
-0.010503241
-0.010386604
-0.010241611
-0.010071011
-0.009873998
-0.0096550288
-0.0094145302
-0.0091550905
-0.0088762284
-0.0085799956
-0.0082646226
-0.0079305798
-0.0075779829
-0.0072071182
-0.006817722
-0.0064084561
-0.0059799152
-0.0055333347
-0.0050674829
-0.0045819775
-0.0040816153
-0.0035663039
-0.0030373911
-0.0024971113
-0.0019480233
-0.0013919386
-0.00083132528
-0.00026790253
0.00029384084
0.00085389508
0.0014082117
0.0019560765
0.002493675
0.0030208212
0.0035360838
0.0040375303
0.0045227087
0.0049917665
0.0054422293
0.0058740413
0.0062850123
0.0066751631
0.007042704
0.0073876249
0.0077085355
0.0080055671
0.0082774691
0.008524596
0.0087465963
0.0089428763
0.0091126804
0.0092553557
0.0093695085
0.0094551478
0.0095146873
0.0095506621
0.010237464
0.010199046
0.010135378
0.010043547
0.0099214212
0.0097684444
0.0095861507
0.0093759959
0.0091384168
0.0088734794
0.008582003
0.0082637188
0.0079197759
0.0075502565
0.007156456
0.0067384413
0.0062980648
0.0058353898
0.0053526136
0.004849865
0.0043298631
0.0037921572
0.0032397137
0.0026743053
0.0020968626
0.0015090493
0.00091363616
0.00031213207
-0.00029170918
-0.00089783403
-0.0015013421
-0.0021000116
-0.0026918559
-0.0032746608
-0.0038463568
-0.004403635
-0.004945393
-0.0054718952
-0.0059778505
-0.0064631379
-0.0069294523
-0.007376056
-0.0078006523
-0.0082056914
-0.0085909147
-0.0089556926
-0.009300354
-0.0096243042
-0.0099285096
-0.010211128
-0.010472836
-0.01071059
-0.010924008
-0.011108436
-0.011264356
-0.011388964
-0.011484089
-0.012420965
-0.012319887
-0.012186864
-0.012019313
-0.011820406
-0.011589529
-0.011331951
-0.011047782
-0.010740737
-0.010409528
-0.01005677
-0.009681054
-0.0092838513
-0.0088641109
-0.0084233712
-0.0079615168
-0.0074757713
-0.006969624
-0.0064440934
-0.0058963962
-0.00532716
-0.0047412027
-0.0041399624
-0.0035240421
-0.0028964858
-0.0022603424
-0.0016168331
-0.0009694134
-0.00031891603
0.00032861059
0.00097289158
0.001610892
0.0022399253
0.0028581466
0.0034634084
0.0040541001
0.0046292451
0.0051852669
0.0057225574
0.0062387652
0.0067330843
0.0072038554
0.0076503864
0.0080713114
0.0084659854
0.0088337463
0.0091737508
0.009485461
0.0097683971
0.010022172
0.010246827
0.010441871
0.010605124
0.010735668
0.010833649
0.010901627
0.01094254
0.011666323
0.011622897
0.011550543
0.011446239
0.011306688
0.011132932
0.010925177
0.010685676
0.010414926
0.010113363
0.0097810403
0.0094187736
0.0090265919
0.0086060444
0.0081571844
0.0076812948
0.0071792321
0.0066522984
0.0061016581
0.0055287365
0.004935323
0.0043219039
0.0036915484
0.0030452399
0.0023849309
0.0017127624
0.0010309578
0.00034222331
-0.00035096528
-0.0010466305
-0.0017402926
-0.0024302033
-0.0031129445
-0.0037871593
-0.0044492821
-0.0050967706
-0.0057282854
-0.0063417829
-0.0069331322
-0.007501879
-0.008049968
-0.0085760325
-0.0090773599
-0.0095558321
-0.01001168
-0.010443357
-0.010851631
-0.011235004
-0.011594485
-0.011927649
-0.012235362
-0.012514102
-0.01276323
-0.012977716
-0.01315739
-0.01329947
-0.013406792
-0.014445925
-0.014331974
-0.01418036
-0.013987649
-0.013756867
-0.013488282
-0.013187266
-0.012854455
-0.012493783
-0.012104202
-0.011688612
-0.011245757
-0.010777765
-0.010283647
-0.0097652903
-0.0092220962
-0.0086539844
-0.0080620246
-0.0074472798
-0.006809589
-0.0061499642
-0.0054714645
-0.0047755749
-0.0040654759
-0.0033421514
-0.0026110641
-0.0018725427
-0.0011306332
-0.00038800675
0.00035225462
0.0010873191
0.0018143487
0.0025314824
0.0032348715
0.0039236172
0.0045950454
0.0052481849
0.0058800028
0.0064898504
0.0070758274
0.0076365162
0.008170641
0.0086769233
0.0091543766
0.0096017777
0.010018921
0.010404186
0.010757629
0.011078438
0.011366541
0.011621228
0.011842018
0.012026933
0.012175383
0.012286294
0.012363062
0.012409111
0.01317114
0.013122316
0.013040977
0.01292327
0.012765971
0.012569516
0.012335276
0.012064815
0.011759129
0.011418414
0.011043246
0.010634194
0.010191465
0.0097163275
0.0092095384
0.0086719236
0.0081047714
0.0075092657
0.0068868399
0.0062389266
0.0055674394
0.0048731021
0.0041590964
0.0034266381
0.0026783114
0.0019149211
0.0011409104
0.00035779701
-0.00043133463
-0.0012229145
-0.0020150788
-0.0028039801
-0.003585651
-0.0043600849
-0.0051204367
-0.0058666518
-0.006594818
-0.00730322
-0.0079894108
-0.0086519382
-0.0092901819
-0.0099030662
-0.010490117
-0.011050621
-0.01158508
-0.012091639
-0.012570918
-0.013020797
-0.013442062
-0.013832056
-0.01419127
-0.014516073
-0.014805093
-0.015053278
-0.015259688
-0.015421568
-0.015542458
-0.016701368
-0.016573028
-0.016400292
-0.016179208
-0.01591271
-0.01560184
-0.015251953
-0.014864566
-0.014443679
-0.0139886
-0.013502553
-0.012984654
-0.012437253
-0.011860025
-0.011255041
-0.010621776
-0.0099615053
-0.009274408
-0.0085618602
-0.0078247326
-0.0070648984
-0.0062846415
-0.0054857433
-0.0046727876
-0.0038448155
-0.0030104072
-0.0021691807
-0.0013246183
-0.00048204001
0.00035774829
0.0011908224
0.0020135684
0.0028250156
0.003619939
0.0043974889
0.0051554286
0.0058922861
0.0066048644
0.0072921062
0.0079521829
0.0085835727
0.0091848307
0.0097546462
0.010291739
0.010795349
0.011264419
0.011697952
0.012095485
0.012456528
0.012780476
0.013067133
0.013315215
0.013523446
0.01368992
0.013814585
0.013900667
0.013952366
0.014752522
0.014697872
0.014606894
0.014475116
0.014299242
0.014078904
0.013816501
0.013513266
0.01317039
0.012788496
0.012367934
0.011909201
0.011412971
0.010880004
0.010311532
0.0097085166
0.0090720778
0.0084036957
0.0077047607
0.006976964
0.0062220243
0.0054413359
0.0046379679
0.0038134972
0.0029700999
0.0021092578
0.0012356885
0.00035091073
-0.00054138401
-0.0014378084
-0.0023366652
-0.0032324994
-0.004122424
-0.0050054656
-0.0058738653
-0.0067278109
-0.0075628586
-0.0083767894
-0.0091674591
-0.0099325349
-0.010671037
-0.011381391
-0.012063349
-0.012715378
-0.013337746
-0.013928674
-0.014487232
-0.015011714
-0.015502549
-0.015956424
-0.016373493
-0.016750159
-0.01708407
-0.017370202
-0.017606767
-0.017791168
-0.017927388
-0.019226221
-0.019081619
-0.018884831
-0.018631736
-0.01832475
-0.017966357
-0.017561337
-0.01711262
-0.016623711
-0.016094723
-0.015529737
-0.014927859
-0.014290738
-0.013620562
-0.012918883
-0.012185471
-0.01142224
-0.010629593
-0.0098092722
-0.0089621921
-0.0080912522
-0.0071987092
-0.0062867991
-0.0053604578
-0.0044198354
-0.0034721012
-0.0025192276
-0.0015640966
-0.0006111955
0.00033577043
0.0012742686
0.0022005508
0.0031126195
0.0040060459
0.0048793403
0.0057297762
0.0065558169
0.0073542817
0.008124018
0.0088629968
0.0095696243
0.010242286
0.010879627
0.011480399
0.012043602
0.012567837
0.013052519
0.013496778
0.013900213
0.01426246
0.014582741
0.014859924
0.015092603
0.015278269
0.015417442
0.015513421
0.015571104
0.016407254
0.016346467
0.016245326
0.016098523
0.015902848
0.015657463
0.01536503
0.015027186
0.014645148
0.014219417
0.013750762
0.013239359
0.012686296
0.012092045
0.011458067
0.010785342
0.010075267
0.009329203
0.0085488003
0.0077357849
0.0068921009
0.0060190744
0.0051197937
0.0041962813
0.0032510415
0.0022856019
0.0013044267
0.00031024263
-0.00069382724
-0.0017051897
-0.0027192126
-0.0037312366
-0.0047392346
-0.0057404423
-0.0067275605
-0.0077001993
-0.0086531349
-0.0095840418
-0.010490555
-0.011368927
-0.012218618
-0.013037624
-0.013825477
-0.014579722
-0.015300455
-0.015986564
-0.016634488
-0.017242588
-0.017811876
-0.018338171
-0.018820389
-0.019255682
-0.019640035
-0.01996936
-0.020240139
-0.020450262
-0.020603695
-0.022066303
-0.021903298
-0.021679145
-0.021389307
-0.021036583
-0.020624238
-0.020156715
-0.019638878
-0.019072987
-0.018460865
-0.017807098
-0.017110269
-0.016372668
-0.015597683
-0.014787863
-0.013942307
-0.013064231
-0.01215425
-0.011214124
-0.010245503
-0.0092514177
-0.0082353481
-0.0071988763
-0.0061482291
-0.0050833875
-0.004012369
-0.0029388107
-0.0018634081
-0.00079108367
0.0002724942
0.0013244133
0.0023624427
0.0033834465
0.0043824701
0.005357872
0.0063075638
0.0072291949
0.0081196752
0.0089774592
0.0098006274
0.01058741
0.011336076
0.012045233
0.012713496
0.013339699
0.013922509
0.014461359
0.014955205
0.015403771
0.015806266
0.016162222
0.016470417
0.016728714
0.016934824
0.017089387
0.017195869
0.017259838
0.018127225
0.018059991
0.01794805
0.017785534
0.017568547
0.017296909
0.016972659
0.016598094
0.016174468
0.015702444
0.015182613
0.014615498
0.014001929
0.0133428
0.012639217
0.011892504
0.011104019
0.010275247
0.0094079196
0.008503933
0.0075651119
0.0065933997
0.005591574
0.0045621516
0.0035072376
0.0024289106
0.0013319346
0.00021955583
-0.00090607453
-0.0020413047
-0.0031806524
-0.0043190379
-0.005456156
-0.0065868617
-0.0077042962
-0.0088076576
-0.0098901704
-0.010950485
-0.011984599
-0.012990011
-0.013963771
-0.014904425
-0.015810881
-0.016679948
-0.01751197
-0.018303913
-0.019052516
-0.01975538
-0.02041316
-0.021020777
-0.02157625
-0.022078202
-0.022520518
-0.022898221
-0.023208307
-0.02344748
-0.023620619
-0.025274653
-0.025090617
-0.024835513
-0.024503578
-0.024099486
-0.023625131
-0.023086538
-0.022490592
-0.021838653
-0.021132267
-0.020376935
-0.019572996
-0.018723615
-0.017831345
-0.016899803
-0.015928761
-0.014921958
-0.013880869
-0.01280667
-0.011703343
-0.010573181
-0.0094210058
-0.0082473152
-0.0070598186
-0.0058605451
-0.0046544736
-0.0034478992
-0.0022418044
-0.0010413391
0.0001486514
0.0013242182
0.0024823694
0.0036200748
0.004732765
0.0058182859
0.006874075
0.0078975754
0.0088861105
0.0098378441
0.010750677
0.01162284
0.012452341
0.013237821
0.013977778
0.014670913
0.015316129
0.015912382
0.016458894
0.016955097
0.017400419
0.017794131
0.018134895
0.018420307
0.018648337
0.018819083
0.018936656
0.019007288
0.0198974
0.019823266
0.019699893
0.019520758
0.019281456
0.018981741
0.018623988
0.018210582
0.017743015
0.017221908
0.016647971
0.016021707
0.015343979
0.014615782
0.013838351
0.013012932
0.012141137
0.011224212
0.010264394
0.0092634084
0.0082233824
0.0071463217
0.0060346272
0.0048913622
0.0037187166
0.0025192268
0.0012973925
5.6728412e-05
-0.0012002212
-0.0024687792
-0.0037442007
-0.0050223761
-0.0063002396
-0.0075720687
-0.0088332685
-0.010079488
-0.011305087
-0.01250859
-0.013684977
-0.014831818
-0.015944072
-0.017020928
-0.018060202
-0.019057896
-0.020014117
-0.020924844
-0.02178723
-0.022598105
-0.023356204
-0.024055883
-0.024695065
-0.025272638
-0.025781116
-0.026213826
-0.026568684
-0.026841115
-0.027036643
-0.028915592
-0.028707489
-0.028416556
-0.028037418
-0.027574122
-0.027029076
-0.026410094
-0.025724531
-0.024973648
-0.024160645
-0.023290912
-0.022366502
-0.021390407
-0.020366203
-0.019298609
-0.01818684
-0.017036093
-0.015848723
-0.014625243
-0.013371706
-0.012091595
-0.010788399
-0.0094656464
-0.0081280956
-0.0067798316
-0.0054268523
-0.0040738077
-0.0027261556
-0.0013868203
-6.0244605e-05
0.0012479968
0.0025357234
0.0037991838
0.0050341126
0.0062372842
0.0074066028
0.0085391998
0.0096322918
0.010684189
0.01169238
0.012655397
0.013570803
0.01443733
0.015253367
0.016017628
0.016728866
0.01738599
0.017988172
0.018534843
0.019025314
0.019458956
0.019834192
0.020148554
0.020399571
0.020587298
0.0207166
0.020794339
0.021694107
0.021612645
0.021477213
0.021280556
0.021017539
0.020688166
0.020294995
0.019840558
0.019326501
0.018753568
0.018122341
0.017433492
0.016687821
0.015886442
0.015030645
0.014121783
0.013161402
0.012151002
0.011092824
0.0099884787
0.0088404815
0.0076505839
0.0064215961
0.005156462
0.0038571783
0.0025277465
0.0011717726
-0.00020720878
-0.0016060383
-0.0030193195
-0.0044423727
-0.0058729354
-0.0073045258
-0.0087320209
-0.010149633
-0.01155346
-0.012938532
-0.014299078
-0.015633368
-0.016937194
-0.018204296
-0.019433201
-0.02062139
-0.021763805
-0.022860271
-0.023905388
-0.024895591
-0.025828161
-0.026699691
-0.027505082
-0.028240259
-0.028903449
-0.029487328
-0.029983639
-0.030388354
-0.030699048
-0.030920739
-0.033063113
-0.032826916
-0.032495517
-0.032062675
-0.031531123
-0.030905759
-0.030195389
-0.029406941
-0.028544001
-0.027610143
-0.026610642
-0.025549942
-0.02443158
-0.023258751
-0.022036646
-0.020767593
-0.019455821
-0.018104399
-0.016716798
-0.01529723
-0.013850911
-0.012380678
-0.010891598
-0.0093900095
-0.0078796118
-0.0063667268
-0.0048551848
-0.0033527413
-0.0018628343
-0.000389228
0.0010632913
0.0024903006
0.003888003
0.0052533844
0.0065826758
0.0078731121
0.009122279
0.010326872
0.011485354
0.012595057
0.013654281
0.014660921
0.015613392
0.01651009
0.017349639
0.018130695
0.018852161
0.019513216
0.020113148
0.020651393
0.021127103
0.021538616
0.02188333
0.022158644
0.02236451
0.022506209
0.022591482
0.023482128
0.023392967
0.023244818
0.023029454
0.022741453
0.022380677
0.021950011
0.021452153
0.02088893
0.020261249
0.019569649
0.01881466
0.017997244
0.01711845
0.016179698
0.015182386
0.014128152
0.013018653
0.011855847
0.010641688
0.009378649
0.0080684769
0.0067144727
0.0053191659
0.0038853579
0.0024164606
0.00091592955
-0.00061215459
-0.0021633685
-0.0037334191
-0.005318568
-0.0069141248
-0.0085121918
-0.010109057
-0.011698631
-0.013276845
-0.014836634
-0.016372948
-0.017882987
-0.019358968
-0.020798844
-0.022198305
-0.023553004
-0.024859274
-0.026113111
-0.027309935
-0.028445581
-0.029516103
-0.030516198
-0.031441003
-0.032286043
-0.033046952
-0.033716538
-0.034285912
-0.034748753
-0.035102834
-0.035354327
-0.037806895
-0.037538978
-0.037160454