/*--------------------------------*- C++ -*----------------------------------*\
| =========                 |                                                 |
| \\      /  F ield         | OpenFOAM: The Open Source CFD Toolbox           |
|  \\    /   O peration     | Version:  v2012                                 |
|   \\  /    A nd           | Website:  www.openfoam.com                      |
|    \\/     M anipulation  |                                                 |
\*---------------------------------------------------------------------------*/
FoamFile
{
    version     2.0;
    format      ascii;
    class       volVectorField;
    location    "283";
    object      U;
}
// * * * * * * * * * * * * * * * * * * * * * * * * * * * * * * * * * * * * * //

dimensions      [0 1 -1 0 0 0 0];


internalField   nonuniform List<vector> 
75385
(
(5.0339893 -0.00018616449 0.00025547055)
(5.034155 -0.00017372603 0.00024851337)
(5.0343355 -0.00016285324 0.00024183039)
(5.0345274 -0.00015335913 0.00023541713)
(5.0347278 -0.0001450874 0.00022926104)
(5.0349339 -0.0001378982 0.00022335116)
(5.0351437 -0.00013167106 0.0002176815)
(5.035355 -0.00012627521 0.00021224487)
(5.0355664 -0.00012161363 0.00020702694)
(5.0357763 -0.00011762629 0.00020203122)
(5.0359837 -0.00011422488 0.00019725674)
(5.0361875 -0.0001113387 0.0001926948)
(5.0363868 -0.00010890321 0.00018834175)
(5.0365811 -0.00010686268 0.00018419053)
(5.0367699 -0.00010516966 0.00018023552)
(5.0369526 -0.00010378061 0.00017647026)
(5.0371291 -0.00010265632 0.0001728926)
(5.0372991 -0.00010176354 0.00016949579)
(5.0374624 -0.00010107327 0.00016627669)
(5.037619 -0.00010055998 0.00016322911)
(5.0377688 -0.0001001992 0.00016035058)
(5.037912 -9.9970269e-05 0.0001576355)
(5.0380486 -9.98572e-05 0.00015507904)
(5.0381786 -9.9843876e-05 0.00015267529)
(5.0383023 -9.9914749e-05 0.00015042279)
(5.0384198 -0.00010005302 0.00014831615)
(5.0385314 -0.00010024457 0.00014635661)
(5.0386372 -0.00010048532 0.00014454064)
(5.0387376 -0.00010075979 0.00014287376)
(5.0388328 -0.00010105124 0.0001413583)
(5.0389234 -0.00010135375 0.00014000003)
(5.0390096 -0.00010164377 0.00013876885)
(5.0390924 -0.00010195641 0.00013767102)
(5.0391718 -0.00010227664 0.00013647222)
(5.0392493 -0.00010282979 0.00013558816)
(5.0393227 -0.00010318149 0.00013401401)
(5.0393953 -0.00010398209 0.00013399591)
(5.0394602 -0.00010414907 0.00013247686)
(5.0395262 -0.00010528551 0.0001345249)
(5.0395784 -0.00010602444 0.00013460133)
(5.0396518 -0.00010907618 0.00013473704)
(5.0400925 -0.00032762556 0.00013789736)
(5.040835 -0.00056035252 0.00014092633)
(5.0419323 -0.00080950938 0.00014031961)
(5.0434206 -0.0010749451 0.00014053202)
(5.0452829 -0.0013502646 0.00013977367)
(5.0474996 -0.001633779 0.00013933806)
(5.0499926 -0.0019190355 0.00013890166)
(5.0527068 -0.0022040845 0.00013800425)
(5.0555702 -0.0024863151 0.00013632732)
(5.0585176 -0.0027634425 0.00013351505)
(5.061481 -0.0030327615 0.00012903267)
(5.0643895 -0.0032903421 0.00012243862)
(5.0671711 -0.0035312309 0.00011314078)
(5.069754 -0.0037482517 0.00010036777)
(5.0720693 -0.0039329186 8.3091343e-05)
(5.0740451 -0.0040712462 5.948344e-05)
(5.075612 -0.0041512694 3.079509e-05)
(5.0766949 -0.0041458782 -9.9714833e-06)
(5.0772266 -0.0040216486 -6.0799436e-05)
(5.0771566 -0.003760304 -0.00011758489)
(5.0764955 -0.0033280077 -0.00018769948)
(5.0753194 -0.0026383845 -0.00024324021)
(5.0739996 -0.0018888946 -0.00030829173)
(5.0729239 -0.00074450431 -0.00020119042)
(5.0727352 -0.00022690258 -0.00071354294)
(5.0722283 -0.00038632644 -0.0018501957)
(5.0713724 -0.00038273649 -0.002794388)
(5.0701399 -0.00037859239 -0.0038270262)
(5.0686835 -0.00034753898 -0.0047292856)
(5.067042 -0.00031206699 -0.0055502441)
(5.0652385 -0.00027404556 -0.0062598639)
(5.0632633 -0.00023907947 -0.0068791078)
(5.0611124 -0.00020851582 -0.0074172059)
(5.0587908 -0.00018363839 -0.0078912698)
(5.0563058 -0.00016502018 -0.0083190379)
(5.0536733 -0.00015241961 -0.0087165059)
(5.0509014 -0.00014581526 -0.0091013054)
(5.0480018 -0.00014448043 -0.0094865879)
(5.0449756 -0.00014859928 -0.0098887096)
(5.0418288 -0.00015804656 -0.010319993)
(5.0385622 -0.00017377211 -0.010795888)
(5.0351916 -0.00019573111 -0.01133051)
(5.0317245 -0.0002251491 -0.01194321)
(5.0281845 -0.00026310374 -0.012653209)
(5.0245924 -0.0003115983 -0.013486639)
(5.0209811 -0.00037237519 -0.014473739)
(5.0173757 -0.00044825146 -0.015652339)
(5.0138089 -0.00054123362 -0.017066607)
(5.0102958 -0.00065333534 -0.018766222)
(5.0068521 -0.00078627006 -0.020807887)
(5.0034589 -0.00094032316 -0.023250913)
(5.0000828 -0.0011146377 -0.026154731)
(4.9966424 -0.0013058689 -0.029571983)
(4.9930197 -0.0015095886 -0.033546336)
(4.989033 -0.0017181977 -0.038101299)
(4.9844487 -0.001922516 -0.043242442)
(4.9789381 -0.0021095709 -0.048935956)
(4.9721017 -0.0022643772 -0.055116441)
(4.9634079 -0.0023657343 -0.061660011)
(4.9522022 -0.0023880009 -0.068381922)
(4.93768 -0.0022925913 -0.074995829)
(4.9189731 -0.0020305137 -0.08108076)
(4.8954289 -0.0015330817 -0.086044451)
(4.8674912 -0.00074409931 -0.089036985)
(4.8381697 0.00033788857 -0.089164467)
(4.8149045 0.0015402944 -0.085550517)
(4.8068375 0.0025624966 -0.078518581)
(4.8163349 0.0031956761 -0.068936687)
(4.8394298 0.0033477583 -0.058557122)
(4.8677558 0.00314772 -0.048658604)
(4.8944096 0.0027751409 -0.039970053)
(4.9160949 0.0023642996 -0.03265734)
(4.9324222 0.0019872703 -0.026610281)
(4.9442672 0.0016664051 -0.021604305)
(4.9526742 0.0014017626 -0.01743953)
(4.9585442 0.0011862868 -0.013940056)
(4.9625479 0.0010145947 -0.010988103)
(4.9652185 0.00087659295 -0.00847198)
(4.966925 0.00077508456 -0.0063505098)
(4.967988 0.00069275657 -0.0045395874)
(4.9686233 0.00063836699 -0.0030122047)
(4.9689838 0.00059215389 -0.0017041103)
(4.9691762 0.0005587266 -0.00054297225)
(4.9690711 0.0017318845 -0.00055383201)
(4.9689238 0.0029772623 -0.00055472234)
(4.9687215 0.0042974283 -0.00053502629)
(4.9684675 0.005650818 -0.00050328905)
(4.9681655 0.0069469353 -0.00044995674)
(4.9678184 0.0081260877 -0.00038300612)
(4.9674341 0.009115639 -0.00030452706)
(4.9670133 0.0098890767 -0.00021961616)
(4.9665599 0.010428142 -0.00013219042)
(4.9660761 0.01073355 -4.5847847e-05)
(4.9655665 0.010812571 3.6560892e-05)
(4.9650363 0.010680361 0.00011283377)
(4.9644921 0.010356656 0.00018124875)
(4.9639421 0.0098640762 0.00024090022)
(4.9633948 0.0092271289 0.00029153891)
(4.9628595 0.0084696387 0.00033321124)
(4.9623449 0.007615946 0.00036619426)
(4.9618602 0.0066880953 0.00039125057)
(4.9614156 0.0057131064 0.00040921706)
(4.9610177 0.0047127784 0.00042019212)
(4.9606802 0.0037283643 0.00042711083)
(4.9604019 0.0027809513 0.00042672792)
(4.9601917 0.0019044666 0.00042681884)
(4.9600383 0.0011012916 0.00042033698)
(4.9599417 0.00035797318 0.00041191697)
(4.9600502 0.00036862681 0.0012850258)
(4.9602335 0.00038100605 0.0022200997)
(4.9604945 0.00038963078 0.0032512939)
(4.9608507 0.00040315806 0.0043792115)
(4.9612964 0.00041353994 0.005577109)
(4.9618371 0.00042513215 0.0068386266)
(4.9624611 0.00043396486 0.0081302755)
(4.9631666 0.00043991261 0.0094434097)
(4.9639486 0.00044111766 0.010760886)
(4.9648058 0.00043652226 0.012069751)
(4.9657379 0.00042498169 0.013354169)
(4.9667447 0.00040553803 0.014593898)
(4.9678264 0.0003774069 0.015766635)
(4.968983 0.00034035536 0.016846933)
(4.9702147 0.00029457129 0.017810274)
(4.9715218 0.00024090737 0.018632109)
(4.9729048 0.00018065929 0.019292152)
(4.9743634 0.00011567253 0.019773218)
(4.9758968 4.8160177e-05 0.020065187)
(4.9775035 -1.9385778e-05 0.0201632)
(4.9791818 -8.4498168e-05 0.020071112)
(4.9809282 -0.00014473386 0.019798325)
(4.9827393 -0.00019817226 0.019361827)
(4.9846102 -0.00024334339 0.018782065)
(4.9865359 -0.00027938099 0.01808436)
(4.9885115 -0.00030589252 0.017294327)
(4.9905315 -0.00032308728 0.016439173)
(4.9925902 -0.00033155259 0.015543662)
(4.9946819 -0.00033231217 0.014631399)
(4.996801 -0.00032654832 0.01372181)
(4.9989421 -0.00031557126 0.012831636)
(5.0010994 -0.00030055663 0.011973427)
(5.003267 -0.0002828429 0.01115657)
(5.0054388 -0.00026347481 0.010386819)
(5.0076095 -0.00024351074 0.0096672106)
(5.0097732 -0.00022363006 0.0089982029)
(5.0119242 -0.00020451356 0.0083785524)
(5.0140555 -0.00018649343 0.0078055896)
(5.0161599 -0.00016997019 0.0072756744)
(5.0182304 -0.00015498992 0.0067846589)
(5.02026 -0.00014174882 0.006328022)
(5.0222411 -0.00013015572 0.005901199)
(5.0241656 -0.00012032603 0.0054995357)
(5.0260247 -0.00011207972 0.0051186314)
(5.0278094 -0.00010546329 0.004754198)
(5.0295096 -0.00010025651 0.0044023929)
(5.0311154 -9.6470103e-05 0.0040595501)
(5.0326168 -9.3847679e-05 0.0037225061)
(5.0340036 -9.238399e-05 0.0033883388)
(5.0352654 -9.180062e-05 0.0030544928)
(5.0363923 -9.2106146e-05 0.0027187712)
(5.0373738 -9.3067688e-05 0.0023793123)
(5.0381953 -9.4812373e-05 0.0020368804)
(5.0388482 -9.6758432e-05 0.0016911536)
(5.039317 -9.979964e-05 0.001351319)
(5.0396101 -0.00010155289 0.0010199856)
(5.0397416 -0.00010504148 0.00070683615)
(5.0397472 -0.00010629359 0.00041463791)
(5.0396584 -0.00010361977 0.00041431018)
(5.0396437 -0.00010122971 0.0007094827)
(5.0395027 -9.8502657e-05 0.0010250605)
(5.0392035 -9.6116547e-05 0.0013564953)
(5.0387289 -9.3519906e-05 0.0016979089)
(5.0380778 -9.1523127e-05 0.0020423509)
(5.0372572 -8.9920611e-05 0.0023850338)
(5.0362788 -8.9004679e-05 0.0027245499)
(5.0351541 -8.8699773e-05 0.0030610081)
(5.0338947 -8.9211115e-05 0.0033959509)
(5.0325108 -9.0602174e-05 0.0037314376)
(5.0310132 -9.3091037e-05 0.0040699447)
(5.0294119 -9.6729609e-05 0.0044143676)
(5.027717 -0.00010171293 0.0047678968)
(5.0259382 -0.0001080729 0.005134231)
(5.0240856 -0.00011597777 0.0055172565)
(5.0221679 -0.00012546321 0.0059212822)
(5.0201943 -0.00013661683 0.0063507282)
(5.0181722 -0.00014938055 0.0068102615)
(5.0161098 -0.00016378519 0.0073044816)
(5.0140137 -0.00017969066 0.0078378833)
(5.0118911 -0.00019701488 0.0084146245)
(5.0097488 -0.00021541492 0.0090383889)
(5.007594 -0.00023450321 0.0097118589)
(5.0054323 -0.00025368661 0.010436259)
(5.0032695 -0.0002722685 0.011211133)
(5.0011106 -0.00028928406 0.012033457)
(4.9989619 -0.00030368116 0.012897442)
(4.9968291 -0.00031419957 0.013793691)
(4.994718 -0.00031970037 0.014709606)
(4.9926338 -0.00031896597 0.015628285)
(4.9905821 -0.00031081247 0.016530343)
(4.9885683 -0.00029427481 0.017391885)
(4.9865983 -0.00026875552 0.018188216)
(4.9846773 -0.00023406119 0.018891669)
(4.9828104 -0.00019069239 0.01947676)
(4.9810024 -0.00013948595 0.019917698)
(4.9792583 -8.1778282e-05 0.02019417)
(4.9775818 -1.9400076e-05 0.02028868)
(4.9759761 4.537538e-05 0.020192113)
(4.9744431 0.00011012063 0.019900184)
(4.9729846 0.00017243519 0.019417922)
(4.9716013 0.00023023675 0.018755186)
(4.9702938 0.00028185363 0.017929515)
(4.9690616 0.0003259928 0.016961017)
(4.9679048 0.00036173372 0.015874598)
(4.9668232 0.0003888903 0.01469466)
(4.9658167 0.00040768738 0.013447061)
(4.9648856 0.00041888494 0.012154033)
(4.9640303 0.00042341637 0.010836618)
(4.9632519 0.00042232849 0.0095109705)
(4.9625522 0.00041675779 0.0081924549)
(4.9619346 0.00040823166 0.0068946345)
(4.9614033 0.00039814401 0.0056331116)
(4.9609624 0.00038764837 0.004426048)
(4.960614 0.00037691647 0.0032936378)
(4.9603557 0.00036753666 0.0022501246)
(4.9601809 0.0003614298 0.0012997722)
(4.960078 0.00036111328 0.00041728512)
(4.9601543 0.00036115509 0.00041991792)
(4.9602694 0.00035748319 0.00041674251)
(4.960376 0.00036116469 0.00042182615)
(4.9604927 0.00036100444 0.00042280046)
(4.9606085 0.00036407188 0.00042789782)
(4.9607271 0.00036614699 0.00043134455)
(4.960846 0.00036904992 0.00043573199)
(4.9609674 0.00037186197 0.00043985856)
(4.9610907 0.00037474269 0.00044415661)
(4.9612177 0.00037758849 0.00044858303)
(4.9613485 0.00038042318 0.0004531958)
(4.961484 0.00038323983 0.00045800364)
(4.9616245 0.00038603175 0.00046299249)
(4.9617709 0.00038879653 0.00046817765)
(4.9619237 0.00039151948 0.00047354884)
(4.9620834 0.00039419741 0.00047912427)
(4.9622509 0.00039682331 0.0004849072)
(4.9624268 0.000399386 0.00049091153)
(4.962612 0.0004018735 0.00049714887)
(4.9628073 0.00040426931 0.0005036318)
(4.9630136 0.00040656411 0.00051037296)
(4.9632321 0.00040874536 0.00051738504)
(4.9634637 0.00041080295 0.00052468432)
(4.9637097 0.00041270978 0.00053228696)
(4.9639713 0.00041444994 0.00054020808)
(4.96425 0.00041602316 0.00054847033)
(4.9645473 0.00041736302 0.00055710778)
(4.9648649 0.00041844337 0.00056614166)
(4.9652046 0.00041925585 0.00057557457)
(4.9655682 0.00041977343 0.00058544662)
(4.9659581 0.00041994579 0.0005957961)
(4.9663766 0.00041973731 0.00060665739)
(4.9668261 0.00041910509 0.00061805545)
(4.9673096 0.00041800742 0.00063003433)
(4.9678299 0.0004163837 0.00064264056)
(4.9683905 0.00041418673 0.00065592617)
(4.9689948 0.00041135383 0.00066993252)
(4.9696469 0.00040782909 0.00068471067)
(4.9703509 0.00040352735 0.00070031092)
(4.9711115 0.00039837791 0.0007167947)
(4.9719335 0.00039229664 0.00073421515)
(4.9728225 0.00038520479 0.00075263573)
(4.9737842 0.00037701135 0.00077212182)
(4.9748247 0.00036761781 0.00079274182)
(4.9759509 0.00035691966 0.00081455923)
(4.9771698 0.00034481803 0.00083764089)
(4.9784892 0.00033120153 0.00086205009)
(4.9799171 0.00031596127 0.00088785493)
(4.9814621 0.0002989727 0.00091510252)
(4.9831333 0.00028017388 0.00094382496)
(4.9830927 0.00027377185 0.0029102612)
(4.9814246 0.00029198669 0.0028222895)
(4.9798826 0.00030848477 0.0027388565)
(4.9784577 0.00032329788 0.0026598432)
(4.9771413 0.00033654323 0.0025850795)
(4.9759253 0.00034833552 0.0025143772)
(4.974802 0.00035876319 0.0024475305)
(4.9737644 0.00036793056 0.0023843476)
(4.9728056 0.00037593134 0.0023246365)
(4.9719196 0.00038287322 0.0022682023)
(4.9711003 0.00038883891 0.0022148459)
(4.9703426 0.00039390556 0.0021643655)
(4.9696415 0.0003981509 0.0021165752)
(4.9689923 0.00040163915 0.0020712992)
(4.9683907 0.00040446735 0.0020283914)
(4.967833 0.00040668939 0.0019876905)
(4.9673155 0.00040835653 0.0019490505)
(4.9668348 0.00040951323 0.0019123188)
(4.9663881 0.00041021423 0.0018773548)
(4.9659725 0.00041050978 0.0018440482)
(4.9655854 0.00041042841 0.0018123025)
(4.9652245 0.00041000901 0.0017820181)
(4.9648877 0.00040929142 0.0017531013)
(4.964573 0.00040830422 0.001725459)
(4.9642785 0.00040706213 0.0016990189)
(4.9640027 0.00040559798 0.0016737116)
(4.9637439 0.00040395712 0.0016494563)
(4.9635008 0.00040216999 0.0016261865)
(4.9632721 0.00040023445 0.0016038401)
(4.9630565 0.00039819784 0.0015823743)
(4.962853 0.00039604276 0.0015617264)
(4.9626606 0.00039379328 0.0015418655)
(4.9624783 0.00039144448 0.0015227425)
(4.9623053 0.00038902068 0.0015043338)
(4.9621407 0.00038652908 0.0014865805)
(4.9619838 0.00038398225 0.0014694517)
(4.9618339 0.00038139572 0.0014529502)
(4.9616904 0.00037875896 0.0014370142)
(4.9615526 0.00037609796 0.0014216573)
(4.96142 0.00037340144 0.0014068188)
(4.961292 0.00037066984 0.0013925179)
(4.9611678 0.00036791433 0.00137866)
(4.9610472 0.00036510265 0.0013653218)
(4.9609287 0.00036230751 0.0013524246)
(4.9608131 0.00035958053 0.0013403009)
(4.9606976 0.00035726756 0.0013289117)
(4.9605858 0.00035509803 0.0013187635)
(4.9604719 0.00035415958 0.001310036)
(4.9603683 0.00035355025 0.0013028794)
(4.9602571 0.00035678144 0.0012993218)
(4.9604283 0.00036033143 0.0022542888)
(4.9606819 0.00036872679 0.0033055592)
(4.9610273 0.00037790153 0.0044478491)
(4.9614661 0.00038749139 0.0056644622)
(4.9619962 0.0003969634 0.006934567)
(4.9626126 0.0004051777 0.0082402773)
(4.9633111 0.00041057699 0.009566369)
(4.9640884 0.00041169532 0.010899314)
(4.9649426 0.00040737217 0.012223999)
(4.9658728 0.00039646348 0.013523811)
(4.9668784 0.00037806683 0.014777922)
(4.9679593 0.00035156794 0.015963555)
(4.9691154 0.00031668453 0.017055181)
(4.9703468 0.00027364755 0.018027767)
(4.9716534 0.00022341531 0.018856845)
(4.9730354 0.0001673991 0.019521708)
(4.9744926 0.00010706427 0.020005341)
(4.9760239 4.4444012e-05 0.020297272)
(4.9776277 -1.8194394e-05 0.02039308)
(4.979302 -7.8523541e-05 0.020296648)
(4.9810436 -0.00013438386 0.020017604)
(4.9828488 -0.00018398561 0.019573086)
(4.9847127 -0.00022615604 0.018984031)
(4.9866304 -0.00026005792 0.018275953)
(4.9885968 -0.00028500875 0.01747486)
(4.9906067 -0.0003012163 0.016608123)
(4.9926544 -0.00030926618 0.015701002)
(4.9947343 -0.00031003388 0.014777047)
(4.9968409 -0.00030463436 0.013856174)
(4.9989691 -0.00029436847 0.012954946)
(5.0011132 -0.00028041655 0.012086413)
(5.0032671 -0.00026391105 0.011259592)
(5.0054251 -0.000245961 0.010480645)
(5.0075818 -0.00022740919 0.0097523136)
(5.0097319 -0.00020901628 0.0090752571)
(5.0118693 -0.00019125685 0.008448098)
(5.0139874 -0.00017459992 0.0078682323)
(5.0160789 -0.00015920324 0.0073319048)
(5.018137 -0.00014526854 0.0068349807)
(5.0201546 -0.00013286317 0.0063729866)
(5.0221242 -0.00012208634 0.0059412845)
(5.0240379 -0.00011287263 0.0055352235)
(5.0258871 -0.00010530501 0.0051503421)
(5.0276624 -9.9149611e-05 0.0047823421)
(5.0293543 -9.4387601e-05 0.004427271)
(5.0309528 -9.0864745e-05 0.0040814727)
(5.0324482 -8.8521957e-05 0.0037416792)
(5.0338301 -8.7161143e-05 0.0034050141)
(5.0350882 -8.6723648e-05 0.00306892)
(5.036212 -8.699671e-05 0.002731365)
(5.0371907 -8.7956266e-05 0.0023908775)
(5.0380123 -8.9480198e-05 0.0020472233)
(5.0386659 -9.1577165e-05 0.0017019326)
(5.0391431 -9.4060949e-05 0.0013592777)
(5.0394446 -9.6639454e-05 0.0010261437)
(5.0395877 -9.923801e-05 0.00070920501)
(5.0396047 -0.0001022029 0.00041344894)
(5.0395331 -0.0001007963 0.00041232404)
(5.0395121 -9.7803306e-05 0.00070941609)
(5.0393649 -9.5041091e-05 0.0010279879)
(5.0390598 -9.2338605e-05 0.0013631459)
(5.0385791 -8.981076e-05 0.0017077356)
(5.0379235 -8.7712621e-05 0.0020546977)
(5.0371008 -8.6209173e-05 0.0023999036)
(5.0361224 -8.5277323e-05 0.0027418654)
(5.0349996 -8.4998627e-05 0.0030809148)
(5.0337433 -8.5441446e-05 0.0034185864)
(5.0323639 -8.6774609e-05 0.0037569127)
(5.0308717 -8.9097185e-05 0.0040984948)
(5.0292769 -9.2555169e-05 0.004446191)
(5.0275891 -9.7281891e-05 0.0048033465)
(5.0258185 -0.00010336818 0.0051735867)
(5.0239743 -0.00011082469 0.0055608992)
(5.0220658 -0.00011972116 0.0059695503)
(5.0201017 -0.00013013231 0.0064040959)
(5.0180898 -0.00014210291 0.0068691349)
(5.0160377 -0.00015556816 0.0073693561)
(5.0139526 -0.00017047714 0.00790912)
(5.011841 -0.00018672218 0.0084926305)
(5.0097102 -0.00020404148 0.009123628)
(5.0075668 -0.00022200069 0.0098049957)
(5.0054167 -0.00024007747 0.010537861)
(5.0032653 -0.00025758519 0.011321817)
(5.001118 -0.00027365107 0.012153803)
(4.9989805 -0.00028725548 0.013027885)
(4.9968587 -0.00029727507 0.013934794)
(4.9947584 -0.00030254408 0.014861596)
(4.9926845 -0.00030190733 0.015791487)
(4.9906425 -0.00029426954 0.016704759)
(4.9886379 -0.00027870726 0.017577394)
(4.9866765 -0.00025471197 0.018384359)
(4.9847635 -0.00022204026 0.019097899)
(4.9829036 -0.00018064491 0.019691782)
(4.981102 -0.00013199066 0.020139959)
(4.9793636 -7.7191333e-05 0.020421887)
(4.977692 -1.8022874e-05 0.020519926)
(4.9760905 4.3425713e-05 0.020424762)
(4.9745612 0.00010487757 0.020132116)
(4.9731057 0.00016408887 0.019646585)
(4.971725 0.00021917252 0.018978443)
(4.9704194 0.00026829266 0.018144835)
(4.969189 0.00030997042 0.017166629)
(4.9680338 0.0003437119 0.016068795)
(4.9669538 0.00036931727 0.01487626)
(4.9659494 0.00038707819 0.013614865)
(4.9650208 0.00039763253 0.012307369)
(4.9641685 0.00040192158 0.010974844)
(4.9633937 0.00040089237 0.0096336736)
(4.9626982 0.00039569095 0.0082989876)
(4.9620854 0.00038776027 0.0069840045)
(4.9615593 0.00037873557 0.005703881)
(4.9611247 0.0003698339 0.0044766288)
(4.960784 0.0003618955 0.003324153)
(4.9605349 0.00035598782 0.0022644197)
(4.9606351 0.00035379166 0.0022778642)
(4.9608806 0.00035880049 0.0033456327)
(4.9612175 0.00036624034 0.0045071463)
(4.9616487 0.00037491059 0.0057440687)
(4.9621717 0.00038382265 0.0070338457)
(4.9627818 0.0003916863 0.0083582901)
(4.963475 0.00039683279 0.0097020171)
(4.9642478 0.00039780741 0.011051917)
(4.9650983 0.00039350011 0.012392725)
(4.9660254 0.0003829749 0.013708187)
(4.9670284 0.00036531651 0.014976985)
(4.9681069 0.00033992546 0.016176477)
(4.9692608 0.00030652677 0.017280543)
(4.9704898 0.0002653101 0.018264286)
(4.9717937 0.00021717815 0.019102579)
(4.9731726 0.00016284413 0.019774368)
(4.9746261 0.00010397241 0.020261945)
(4.9761531 4.2890747e-05 0.020555445)
(4.9777519 -1.8161357e-05 0.020650034)
(4.9794205 -7.694763e-05 0.020550463)
(4.9811555 -0.00013139889 0.020265659)
(4.9829534 -0.00017969593 0.01981374)
(4.984809 -0.00021992417 0.019214774)
(4.9867175 -0.00025207817 0.018496275)
(4.988674 -0.00027567316 0.01768385)
(4.9906735 -0.00029098389 0.016805705)
(4.9927101 -0.00029849843 0.015886838)
(4.9947785 -0.00029913363 0.014951423)
(4.996873 -0.00029391704 0.014019152)
(4.998989 -0.00028401876 0.013106965)
(5.0011205 -0.00027057052 0.012227479)
(5.0032618 -0.00025471322 0.011390497)
(5.0054069 -0.00023741557 0.010601456)
(5.007551 -0.0002195739 0.0098638942)
(5.0096882 -0.00020181602 0.0091777896)
(5.0118132 -0.00018469102 0.0085424329)
(5.0139189 -0.00016856923 0.0079547419)
(5.0159983 -0.00015379401 0.0074113024)
(5.0180447 -0.00014040835 0.0069076747)
(5.0200512 -0.00012854176 0.0064395088)
(5.02201 -0.00011817701 0.006002)
(5.0239136 -0.00010935092 0.0055906117)
(5.0257532 -0.00010201691 0.0052007129)
(5.0275197 -9.6098719e-05 0.0048280414)
(5.0292036 -9.1445233e-05 0.0044685635)
(5.0307952 -8.7996371e-05 0.0041187038)
(5.0322844 -8.5611988e-05 0.0037750938)
(5.0336616 -8.4276055e-05 0.003434839)
(5.0349161 -8.3773952e-05 0.0030953323)
(5.0360381 -8.4050571e-05 0.0027544863)
(5.0370165 -8.4926226e-05 0.00241078)
(5.0378404 -8.643703e-05 0.0020638388)
(5.0384978 -8.8482426e-05 0.0017151935)
(5.038981 -9.0970312e-05 0.0013690116)
(5.0392895 -9.3808782e-05 0.0010321928)
(5.0394401 -9.6750925e-05 0.00071204923)
(5.0394647 -9.9920187e-05 0.00041359756)
(5.0393893 -9.8804853e-05 0.00041534474)
(5.0393613 -9.5432487e-05 0.00071568489)
(5.0392071 -9.2316688e-05 0.0010376355)
(5.0388954 -8.9445116e-05 0.0013764864)
(5.0384091 -8.6894369e-05 0.0017246998)
(5.0377496 -8.4855694e-05 0.0020754297)
(5.0369247 -8.3412612e-05 0.0024244678)
(5.0359464 -8.2566222e-05 0.0027702427)
(5.0348254 -8.2389007e-05 0.0031131966)
(5.0335726 -8.2919224e-05 0.0034548825)
(5.032198 -8.4346584e-05 0.0037974154)
(5.0307119 -8.6769796e-05 0.0041434003)
(5.0291241 -9.0352912e-05 0.0044957693)
(5.0274445 -9.5181885e-05 0.0048579447)
(5.0256826 -0.0001013142 0.0052334579)
(5.0238481 -0.0001088605 0.0056263927)
(5.0219495 -0.0001177957 0.0060410209)
(5.0199961 -0.00012820504 0.0064820213)
(5.0179952 -0.00014015925 0.006953885)
(5.0159547 -0.00015358878 0.0074614683)
(5.0138813 -0.00016845103 0.0080090693)
(5.011782 -0.00018465372 0.0086011584)
(5.0096635 -0.00020187118 0.0092410918)
(5.0075328 -0.00021969667 0.0099320377)
(5.0053954 -0.00023764058 0.010674685)
(5.0032568 -0.00025501435 0.011469126)
(5.0011222 -0.00027100799 0.012311804)
(4.9989972 -0.0002845736 0.013197209)
(4.9968877 -0.00029466391 0.014115627)
(4.9947996 -0.00030004625 0.015054123)
(4.9927374 -0.00029954962 0.015995972)
(4.9907066 -0.00029217846 0.016920942)
(4.9887129 -0.0002770703 0.017805326)
(4.9867618 -0.00025366988 0.018623477)
(4.9848584 -0.00022155684 0.019347299)
(4.9830071 -0.0001806472 0.01995004)
(4.9812133 -0.00013228672 0.020405439)
(4.9794818 -7.7757383e-05 0.020692557)
(4.9778164 -1.890711e-05 0.020793545)
(4.9762204 4.2253836e-05 0.020698965)
(4.974696 0.00010342722 0.02040448)
(4.9732447 0.0001624039 0.01991439)
(4.9718679 0.00021713162 0.019239389)
(4.9705659 0.00026577002 0.018396401)
(4.9693388 0.00030692189 0.017406807)
(4.9681867 0.00034023881 0.016295675)
(4.9671099 0.00036563794 0.015088695)
(4.9661088 0.00038334433 0.013811569)
(4.9651835 0.00039392863 0.01248748)
(4.9643351 0.00039826382 0.011137509)
(4.9635648 0.00039730001 0.0097783482)
(4.9628745 0.00039210712 0.0084249231)
(4.9622676 0.00038420689 0.007090606)
(4.9617483 0.00037525556 0.0057906122)
(4.961321 0.00036660348 0.0045434648)
(4.960988 0.00035931025 0.0033719627)
(4.960746 0.00035464843 0.0022950542)
(4.9608544 0.00035718382 0.0023133635)
(4.9610925 0.00036172423 0.0033995646)
(4.9614216 0.00036906034 0.0045811493)
(4.9618451 0.00037784233 0.0058385231)
(4.962361 0.00038690826 0.0071486717)
(4.9629647 0.00039490544 0.0084927932)
(4.9636522 0.00040016708 0.0098558959)
(4.9644202 0.00040118984 0.011224335)
(4.9652664 0.00039688022 0.012583549)
(4.9661899 0.00038626743 0.01391641)
(4.9671893 0.00036849495 0.015202004)
(4.9682645 0.00034278589 0.016416688)
(4.969415 0.00030874377 0.017534675)
(4.9706404 0.00026686975 0.018530028)
(4.9719407 0.0002177749 0.019378025)
(4.9733155 0.00016273026 0.02005699)
(4.9747646 0.00010339514 0.020549833)
(4.9762863 4.1869115e-05 0.02084569)
(4.9778794 -1.9648554e-05 0.020940384)
(4.9795415 -7.8839611e-05 0.020838227)
(4.9812693 -0.00013366404 0.0205487)
(4.983059 -0.00018230091 0.020089909)
(4.9849059 -0.00022332718 0.019482944)
(4.9868045 -0.00025599898 0.018754384)
(4.9887503 -0.00027987628 0.017931076)
(4.9907387 -0.00029529387 0.017040977)
(4.9927638 -0.00030272993 0.016110122)
(4.9948199 -0.00030303615 0.015162026)
(4.9969019 -0.00029747847 0.014217486)
(4.9990049 -0.00028715725 0.013293066)
(5.0011233 -0.0002733447 0.012401933)
(5.0032514 -0.00025713173 0.011553632)
(5.0053833 -0.00023950764 0.01075372)
(5.0075142 -0.00022135796 0.01000583)
(5.0096384 -0.00020330862 0.0093098179)
(5.0117505 -0.00018593814 0.0086650471)
(5.0138436 -0.00016955424 0.0080683281)
(5.0159106 -0.00015436733 0.0075163353)
(5.0179452 -0.00014061223 0.007004718)
(5.0199402 -0.00012838146 0.0065290209)
(5.021888 -0.00011768289 0.0060844506)
(5.0237812 -0.00010852333 0.0056664421)
(5.0256108 -0.0001008513 0.0052702976)
(5.027368 -9.4643491e-05 0.0048917318)
(5.0290436 -8.9747355e-05 0.0045266483)
(5.0306277 -8.6088584e-05 0.0041714868)
(5.0321107 -8.3577152e-05 0.0038228827)
(5.0334829 -8.2098196e-05 0.0034777971)
(5.0347339 -8.1483801e-05 0.003133678)
(5.0358538 -8.1622372e-05 0.0027883546)
(5.036832 -8.2405979e-05 0.0024402398)
(5.0376578 -8.3801693e-05 0.00208886)
(5.0383193 -8.576731e-05 0.0017357879)
(5.0388081 -8.827288e-05 0.0013851665)
(5.0391233 -9.1190344e-05 0.0010438794)
(5.039281 -9.4413184e-05 0.00071983196)
(5.0393126 -9.8058935e-05 0.00041771726)
(5.039232 -9.7442921e-05 0.00042052065)
(5.039197 -9.3623999e-05 0.00072469037)
(5.0390358 -9.0361129e-05 0.0010510945)
(5.0387172 -8.7444749e-05 0.0013950442)
(5.0382256 -8.4941897e-05 0.0017483787)
(5.0375622 -8.3008978e-05 0.0021041296)
(5.0367356 -8.1654933e-05 0.0024581987)
(5.0357576 -8.0917868e-05 0.0028090341)
(5.0346387 -8.0822072e-05 0.0031570697)
(5.0333897 -8.1505346e-05 0.0035039597)
(5.0320199 -8.3055848e-05 0.0038519022)
(5.0305401 -8.5639516e-05 0.0042034604)
(5.0289597 -8.9374851e-05 0.0045616873)
(5.0272884 -9.4354228e-05 0.0049299146)
(5.0255358 -0.00010069604 0.005311775)
(5.0237113 -0.00010849095 0.0057114645)
(5.0218235 -0.00011776336 0.0061331405)
(5.0198814 -0.00012858463 0.0065816176)
(5.0178921 -0.00014095176 0.0070613779)
(5.0158638 -0.00015484618 0.0075773013)
(5.0138031 -0.00017017553 0.008133718)
(5.0117166 -0.00018678442 0.0087350791)
(5.0096111 -0.0002044424 0.0093847188)
(5.0074937 -0.00022274367 0.010085917)
(5.0053696 -0.00024116203 0.010839081)
(5.0032445 -0.00025899807 0.011644599)
(5.0011231 -0.00027540452 0.012498546)
(4.9990114 -0.00028936761 0.013395723)
(4.996915 -0.00029973429 0.014325935)
(4.9948395 -0.00030533875 0.015276626)
(4.9927895 -0.00030496859 0.016230644)
(4.9907703 -0.00029754286 0.017167607)
(4.9887875 -0.00028217115 0.018063506)
(4.9868469 -0.00025817199 0.018892326)
(4.9849533 -0.00022541503 0.019625723)
(4.9831112 -0.00018415546 0.020236936)
(4.9813258 -0.00013522119 0.020698706)
(4.9796019 -7.9980979e-05 0.020990559)
(4.9779433 -2.0362152e-05 0.021093465)
(4.9763534 4.1564361e-05 0.020998623)
(4.9748345 0.00010358717 0.020700919)
(4.973388 0.00016336374 0.020205321)
(4.9720154 0.00021885811 0.019521937)
(4.9707171 0.00026831449 0.018668844)
(4.9694934 0.00031052485 0.017666744)
(4.9683444 0.00034473291 0.016541547)
(4.9672707 0.00037072659 0.01531877)
(4.9662729 0.00038891075 0.01402485)
(4.9653513 0.00039976668 0.012682981)
(4.9645072 0.00040426029 0.0113146)
(4.9637417 0.00040336181 0.0099365404)
(4.9630571 0.00039810868 0.0085637057)
(4.9624566 0.00039013585 0.0072094242)
(4.9619443 0.00038097936 0.0058889357)
(4.9615248 0.00037206229 0.0046208839)
(4.9611998 0.00036442367 0.0034290063)
(4.9609659 0.00035945904 0.0023332624)
(4.9610779 0.00036206342 0.0023541506)
(4.9613077 0.00036695846 0.0034595621)
(4.9616285 0.00037457242 0.0046618107)
(4.9620442 0.00038351376 0.0059403148)
(4.9625529 0.00039269884 0.0072712681)
(4.9631504 0.00040070948 0.0086356198)
(4.9638321 0.00040594849 0.010018469)
(4.9645953 0.00040685406 0.011406173)
(4.9654374 0.00040227581 0.012784191)
(4.9663572 0.00039136309 0.014135266)
(4.9673534 0.00037310256 0.015437848)
(4.9684253 0.00034689171 0.016669079)
(4.9695724 0.00031243717 0.017801434)
(4.9707942 0.00026993987 0.018810194)
(4.9720903 0.00022011119 0.01966873)
(4.9734605 0.00016419635 0.020356614)
(4.9749043 0.00010398735 0.020855318)
(4.9764203 4.1524479e-05 0.021154902)
(4.9780069 -2.0886217e-05 0.021250483)
(4.9796618 -8.0972745e-05 0.021146683)
(4.9813815 -0.00013657057 0.020853049)
(4.9831625 -0.00018579464 0.020388141)
(4.9849996 -0.0002272377 0.019773123)
(4.9868881 -0.00026020342 0.019034954)
(4.9888234 -0.00028430271 0.01820092)
(4.9908005 -0.00029972633 0.017299604)
(4.9928137 -0.00030713054 0.016356616)
(4.9948574 -0.00030742694 0.015396761)
(4.9969263 -0.00030173025 0.014439858)
(4.9990161 -0.00029121506 0.013503766)
(5.001121 -0.0002771142 0.012600831)
(5.0032355 -0.00026057664 0.011741066)
(5.0053539 -0.00024258154 0.010930067)
(5.0074711 -0.00022402594 0.010171442)
(5.0095818 -0.00020555509 0.0094650848)
(5.0116806 -0.00018773768 0.0088103928)
(5.0137606 -0.00017096715 0.0082042407)