/*--------------------------------*- C++ -*----------------------------------*\
| =========                 |                                                 |
| \\      /  F ield         | OpenFOAM: The Open Source CFD Toolbox           |
|  \\    /   O peration     | Version:  v2012                                 |
|   \\  /    A nd           | Website:  www.openfoam.com                      |
|    \\/     M anipulation  |                                                 |
\*---------------------------------------------------------------------------*/
FoamFile
{
    version     2.0;
    format      ascii;
    class       volScalarField;
    location    "0";
    object      p;
}
// * * * * * * * * * * * * * * * * * * * * * * * * * * * * * * * * * * * * * //

dimensions      [0 2 -2 0 0 0 0];


internalField   nonuniform List<scalar> 
19664
(
-0.086897348
-0.080420985
-0.078195786
-0.078128095
-0.077358881
-0.076006627
-0.074209424
-0.0720953
-0.069778238
-0.067347994
-0.064867945
-0.062379901
-0.059911269
-0.05747306
-0.055083423
-0.052754341
-0.050485001
-0.048279822
-0.046177089
-0.043968616
-0.041297608
-0.037638138
-0.031709621
-0.021393566
-0.0043642737
0.019756189
0.045190353
0.065628473
0.067494232
0.030078656
-0.05015706
-0.13539678
-0.17492763
-0.085567247
0.0015229148
-0.010090114
-0.0097471103
-0.021334286
-0.020872191
-0.029663341
-0.028482557
-0.028028482
-0.026206189
-0.025347907
-0.025074641
-0.025210527
-0.02534637
-0.025420683
-0.025441943
-0.025420541
-0.025377606
-0.025327666
-0.025273821
-0.02521847
-0.025146099
-0.025067931
-0.024962353
-0.024804019
-0.02458499
-0.024420267
-0.02474195
-0.025589709
-0.027354468
-0.027632668
-0.028769324
-0.019983442
-0.02044412
-0.0088270648
-0.0091705859
0.0024685588
-0.0061621218
0.00027639417
-0.0057612975
-0.0023223554
-0.011900522
-0.013671064
-0.015818858
-0.015810143
-0.013657306
-0.011875525
-0.0022853563
-0.0057132476
0.00033234453
-0.0061036978
0.0025308423
-0.0091078691
-0.0087695582
-0.020387595
-0.019927541
-0.028713637
-0.027573638
-0.027291902
-0.025527909
-0.024675422
-0.024349778
-0.024512506
-0.024729488
-0.024886981
-0.024992634
-0.025069683
-0.025135042
-0.025187787
-0.025244069
-0.025293013
-0.025334087
-0.025356427
-0.025333457
-0.025257095
-0.025119827
-0.024983708
-0.025257368
-0.026118463
-0.027938592
-0.028394037
-0.029577551
-0.020786363
-0.021248218
-0.0096610635
-0.0099966022
0.0016198526
-0.0069932732
-0.00055881063
-0.0065818225
-0.0031668207
-0.012744617
-0.014520582
-0.01666913
-0.016679565
-0.01454359
-0.012786933
-0.003226246
-0.0066569511
-0.00064603425
-0.0070831655
-0.017055979
-7.0895164e-05
0.0056992068
0.0044080587
-0.003317819
-0.0062603847
-0.0078122119
-0.0078004472
-0.0062375904
-0.0032725239
0.0044670437
0.0057701145
1.0461438e-05
-0.01696721
-0.010302027
0.0077741897
0.015539867
0.014948082
0.0092270561
0.0047542362
0.0034317668
0.0034226103
0.0047310443
0.0091854085
0.014892456
0.015469004
0.0076899915
-0.010389875
-0.01477569
0.0038082084
0.017108247
0.022160431
0.01886819
0.014025415
0.011991431
0.01200251
0.014049216
0.018911712
0.022222909
0.01718369
0.0038915234
-0.014688408
-0.015627489
-0.001186253
0.012645662
0.01776448
0.016044224
0.011332141
0.0092218021
0.0092127238
0.011308135
0.016000556
0.017700084
0.01256829
-0.001269625
-0.015713726
-0.022529067
-0.0066287907
0.0081498989
0.014015783
0.011775197
0.0070152669
0.0052718798
0.0052807279
0.0070406649
0.011819522
0.014079859
0.0082262659
-0.0065456874
-0.0224431
-0.023152939
-0.0085492269
0.0056941225
0.01139194
0.0083626453
0.0030185624
-0.00060881865
-0.00061870967
0.0029911092
0.0083180634
0.011328862
0.0056177348
-0.0086329742
-0.023239765
-0.023428617
-0.008551941
0.0073893054
0.014692323
0.0079217162
0.0014390798
-0.002938473
-0.0029255871
0.0014527937
0.0079635376
0.014747531
0.0074648898
-0.0084682514
-0.023340913
-0.02182472
-0.0067571932
0.010967612
0.017672597
0.0091650104
0.0027263248
-0.00086027976
-0.00087562434
0.0026997693
0.0091220717
0.017620566
0.010888826
-0.0068421104
-0.021912524
-0.020981852
-0.0058148716
0.011235864
0.017199709
0.0097833963
0.0036877026
0.00089918812
0.00091271744
0.003716223
0.0098272197
0.017252704
0.011316573
-0.0057283276
-0.020891983
-0.020645488
-0.005580043
0.0099340211
0.016106484
0.0098883333
0.0040563366
0.0014199915
0.0014062328
0.004027379
0.0098442242
0.016051821
0.0098535909
-0.0056665857
-0.020735332
-0.020888799
-0.0059335829
0.0083521995
0.015130574
0.0097466513
0.0041302433
0.001555644
0.0015692622
0.0041589353
0.0097906678
0.015184579
0.008431057
-0.0058479721
-0.020799539
-0.02090416
-0.0060516497
0.0075681949
0.014735301
0.0097280298
0.0041965072
0.0016320295
0.0016186751
0.004168361
0.0096845915
0.014681442
0.0074901312
-0.0061359622
-0.020991931
-0.021028667
-0.0061798617
0.0072963212
0.014556523
0.0097007263
0.0042241737
0.0016820042
0.0016948618
0.0042514227
0.0097432913
0.014609401
0.0073691606
-0.006097811
-0.020942721
-0.020937736
-0.0060691925
0.0073741248
0.014585894
0.0097911938
0.0043141948
0.0017580935
0.0017459828
0.0042880006
0.0097492506
0.014531853
0.0072995357
-0.0061516077
-0.021023747
-0.020992493
-0.0061042138
0.0073448864
0.014544492
0.009806935
0.0043515273
0.0018077983
0.001818509
0.004376586
0.0098478654
0.014596786
0.0074205631
-0.0060231539
-0.020909289
-0.020866365
-0.0059705821
0.0074727357
0.01462177
0.0099043883
0.0044360361
0.0018767453
0.0018659859
0.004411077
0.0098639926
0.014570415
0.0073995679
-0.0060502818
-0.020949407
-0.020904394
-0.0059992397
0.0074517887
0.014600854
0.0099176596
0.0044668333
0.0019232315
0.00193508
0.0044923745
0.0099579173
0.01465065
0.0075226574
-0.0059211944
-0.02082151
-0.020774879
-0.0058714592
0.0075730349
0.014684632
0.010008131
0.0045478155
0.002009231
0.0019978229
0.0045226101
0.0099679523
0.014634267
0.0074998121
-0.0059535707
-0.020858947
-0.020815839
-0.0059119708
0.007545196
0.014666855
0.010014111
0.0045810598
0.0021367629
0.0021499471
0.0046061107
0.010052982
0.014714916
0.0076153843
-0.0058312694
-0.020731842
-0.020687193
-0.0057928564
0.0076571318
0.01474776
0.010086682
0.0046404839
0.0021943078
0.0021791737
0.0046137266
0.010048379
0.014704252
0.0075939839
-0.0058626898
-0.020760844
-0.020709763
-0.0058292032
0.0076348193
0.014756309
0.010079998
0.0046246901
0.0020966139
0.0021095391
0.0046503631
0.010117758
0.014800535
0.0076989591
-0.0057587616
-0.020636141
-0.020559118
-0.0056995225
0.0077931398
0.014929955
0.010162453
0.0046708845
0.0021127849
0.0021003579
0.0046458867
0.010125382
0.014885438
0.0077276009
-0.0057711582
-0.020633629
-0.020505484
-0.0056230587
0.0080739455
0.015147278
0.010210548
0.004682031
0.0021228945
0.0021349955
0.0047063895
0.010246705
0.015190531
0.0081378842
-0.0055528059
-0.020431927
-0.020232945
-0.0052388094
0.0091431907
0.015800611
0.010414013
0.0047655887
0.0021618109
0.0021500409
0.0047419192
0.010378858
0.015758614
0.0090798961
-0.0053075974
-0.020304446
-0.020101837
-0.0049989089
0.010614856
0.016767335
0.010559579
0.0047129863
0.0020447605
0.0020562281
0.0047359582
0.010593901
0.016808622
0.01067724
-0.0049317549
-0.02003257
-0.020260677
-0.0050662455
0.012018305
0.017986459
0.010528521
0.0043629129
0.0012971056
0.0012857078
0.0043409369
0.01049532
0.017946666
0.011957378
-0.0051308651
-0.020327604
-0.021235456
-0.0061334289
0.011620187
0.018357513
0.0098614934
0.0034128886
-0.00022571764
-0.00021349813
0.0034326562
0.0098933592
0.018396702
0.011677406
-0.0060731561
-0.02117321
-0.022689406
-0.0077817721
0.0081596645
0.015418943
0.0086825302
0.0021631373
-0.0023402902
-0.0023498572
0.0021541714
0.008652902
0.015379567
0.0081070935
-0.0078391521
-0.022750058
-0.022430502
-0.0078044751
0.0064705845
0.012183564
0.0091556031
0.0037788303
-6.8316389e-05
-6.2209486e-05
0.0037970215
0.0091860059
0.012226676
0.0065221799
-0.0077489424
-0.022372712
-0.021575301
-0.0056478275
0.0091558275
0.015025104
0.012750515
0.007914611
0.0058816436
0.0058768626
0.0078990052
0.012721564
0.0149827
0.009105661
-0.0057021721
-0.021631382
-0.014828775
-0.00034519368
0.013524087
0.018679703
0.016959306
0.012238644
0.010091941
0.010097059
0.012252761
0.016987075
0.018721864
0.013574853
-0.00029109886
-0.014772622
-0.013818357
0.0047991313
0.018109859
0.023158027
0.019842303
0.014965731
0.012906906
0.012899601
0.014951845
0.019815365
0.023118005
0.018060784
0.0047462219
-0.013875292
-0.0094754366
0.0086454515
0.016420883
0.01583843
0.0101219
0.0056465365
0.0043195864
0.004325748
0.0056602483
0.010146746
0.015872941
0.016467635
0.0087005666
-0.0094171471
-0.016094782
0.00089176371
0.0066490481
0.0053635009
-0.0023584355
-0.0053586088
-0.0069352869
-0.0069439059
-0.0053721455
-0.002382194
0.0053271686
0.0066026803
0.0008376881
-0.016153454
-0.067377076
-0.085780671
-0.15371077
-0.1160372
-0.038605902
0.032991105
0.068875335
0.072349061
0.057153661
0.034901875
0.013117596
-0.0027234773
-0.012136896
-0.017267367
-0.020212131
-0.022283265
-0.024118388
-0.025968483
-0.027946209
-0.030139809
-0.032571427
-0.035230537
-0.038119943
-0.041247962
-0.044622601
-0.048249336
-0.052131585
-0.056271946
-0.060676359
-0.065363662
-0.070383643
-0.075870202
-0.082146328
0.014606804
0.012774035
0.0090222198
0.0041566282
-0.0012214864
-0.0066806055
-0.011924243
-0.016759829
-0.021062902
-0.024798077
-0.027975628
-0.030581943
-0.032632233
-0.034173009
-0.03524687
-0.035915527
-0.036259047
-0.036323118
-0.03607196
-0.035428368
-0.034161266
-0.031686299
-0.026753293
-0.017268483
-0.00092045401
0.022641955
0.047577969
0.067555098
0.069021207
0.031268384
-0.049256576
-0.1347471
-0.17448027
-0.085289375
-0.077644322
-0.14717463
-0.11451048
-0.038275073
0.028980296
0.061190115
0.06204664
0.044753431
0.021307806
-0.00087612163
-0.016822989
-0.026264638
-0.03129187
-0.033848874
-0.035189836
-0.035924924
-0.036267049
-0.03629061
-0.036024868
-0.035420091
-0.034407004
-0.032925549
-0.030935452
-0.028398423
-0.025285382
-0.021605248
-0.017362894
-0.012586897
-0.0073857992
-0.0019446848
0.0034511569
0.00838486
0.012272258
0.014327248
0.013664696
0.011130005
0.0069477721
0.0018670163
-0.0035637991
-0.0089610754
-0.014066639
-0.018718694
-0.022829855
-0.026371247
-0.029336797
-0.03173041
-0.033583187
-0.034930452
-0.035811467
-0.036278348
-0.036386626
-0.036190949
-0.035667195
-0.034736871
-0.033216244
-0.030589619
-0.025759384
-0.017036219
-0.0030080921
0.016302456
0.037418453
0.054469774
0.057442551
0.035250129
-0.02081051
-0.08799572
-0.1108176
-0.050846181
-0.044323625
-0.082818428
-0.061346615
-0.0012055003
0.046555184
0.060059873
0.050077928
0.0300317
0.0092645055
-0.0074505578
-0.018835393
-0.025952579
-0.030147077
-0.032663218
-0.03429896
-0.035433892
-0.036186496
-0.036619977
-0.036740083
-0.036488712
-0.035823713
-0.034697415
-0.033073988
-0.03092077
-0.028203852
-0.024907162
-0.021029391
-0.016590649
-0.011653886
-0.0063444159
-0.00087345396
0.0044319869
0.0090874183
0.01240891
0.01024339
0.0058391329
0.00055917241
-0.0050134122
-0.010493822
-0.01563836
-0.020302715
-0.024410662
-0.027931365
-0.030863271
-0.033220678
-0.035028785
-0.036325844
-0.037142264
-0.037513956
-0.037483947
-0.037090388
-0.036387724
-0.035411672
-0.034150815
-0.032572728
-0.030468214
-0.027251634
-0.021869539
-0.012582668
0.0031228825
0.025455029
0.048864611
0.066499776
0.059207573
0.014226778
-0.043997252
-0.069523313
-0.036510043
-0.050403481
-0.071128293
-0.036285113
0.024730187
0.069534609
0.073110519
0.050189543
0.023689521
-0.00090515637
-0.016902881
-0.025139487
-0.029231042
-0.031470164
-0.033027447
-0.034425904
-0.03573098
-0.036896615
-0.037868254
-0.038557352
-0.038912272
-0.038891941
-0.038457305
-0.037571506
-0.036200215
-0.034306364
-0.031856998
-0.028822977
-0.025181917
-0.020925222
-0.016069158
-0.010673201
-0.0048698759
0.0010891653
0.0067669692
0.0015316032
-0.0054299467
-0.011978797
-0.017861844
-0.022999407
-0.02739362
-0.031081666
-0.034112041
-0.036534107
-0.038394303
-0.039735158
-0.040595792
-0.041013183
-0.041021636
-0.040656546
-0.039955779
-0.038964255
-0.037742412
-0.03639505
-0.035057745
-0.033833774
-0.03270615
-0.031154893
-0.027791748
-0.019848511
-0.0031069598
0.023410399
0.052175428
0.078167758
0.076268996
0.029503456
-0.036357023
-0.079290837
-0.058429567
-0.064978289
-0.0859559
-0.038460811
0.030983088
0.079581723
0.080881874
0.053304252
0.023432814
-0.004147267
-0.021432864
-0.029405347
-0.032508161
-0.033766849
-0.034719071
-0.035906516
-0.037334046
-0.03886864
-0.040335863
-0.041626955
-0.042675972
-0.04343742
-0.043875902
-0.043959695
-0.043656852
-0.042931725
-0.041742445
-0.040037654
-0.037752318
-0.034802329
-0.031079087
-0.026448323
-0.020760701
-0.013921119
-0.0059595712
-0.016072662
-0.024498565
-0.031075194
-0.036138595
-0.039962796
-0.042798296
-0.044858131
-0.046293931
-0.047210713
-0.047682309
-0.047762339
-0.047491304
-0.046901296
-0.0460195
-0.04487234
-0.043489711
-0.041911683
-0.040199295
-0.038457088
-0.036847935
-0.035504155
-0.03442495
-0.033068675
-0.029881913
-0.021808183
-0.0044408138
0.023177516
0.053091064
0.080707946
0.079440085
0.030877188
-0.038535939
-0.085997428
-0.065001569
-0.058501197
-0.079431867
-0.036581346
0.029200121
0.075868052
0.077664927
0.051565967
0.022676435
-0.004032396
-0.020990568
-0.029155175
-0.032779459
-0.034649376
-0.036155262
-0.037830728
-0.039701337
-0.0416656
-0.04360838
-0.045444891
-0.047128549
-0.048630046
-0.04992739
-0.051000246
-0.051828019
-0.052383871
-0.052632015
-0.052522995
-0.051985655
-0.050913437
-0.049140411
-0.046450492
-0.042545168
-0.036927904
-0.028850191
-0.0437609
-0.050417536
-0.054323985
-0.056606289
-0.057928101
-0.058563985
-0.058651689
-0.05832494
-0.057672772
-0.056755472
-0.05561517
-0.054282179
-0.052778546
-0.051115634
-0.049310163
-0.047376462
-0.045330734
-0.043200055
-0.041035865
-0.038879491
-0.03676412
-0.034594656
-0.031831518
-0.027311243
-0.018742336
-0.0024180626
0.022489816
0.049207882
0.072305197
0.068910566
0.024250301
-0.036633881
-0.071357932
-0.050529831
-0.036688173
-0.06982968
-0.044452466
0.013586247
0.058383232
0.065459174
0.047554359
0.023824141
0.0011141985
-0.0149865
-0.024732717
-0.030694629
-0.03460546
-0.037516432
-0.04004953
-0.042427486
-0.044717812
-0.04696413
-0.04915189
-0.051271313
-0.053318185
-0.055276252
-0.057134757
-0.058889652
-0.060522841
-0.062006376
-0.063302799
-0.064361415
-0.065118825
-0.065511508
-0.065528681
-0.065034817
-0.063258516
-0.058604985
-0.096338265
-0.081337579
-0.06926043
-0.059564983
-0.051787457
-0.045535815
-0.040487266
-0.036383401
-0.033016191
-0.030220006
-0.027868425
-0.025868387
-0.024149398
-0.022657968
-0.021354973
-0.020225149
-0.019214176
-0.018178426
-0.016819448
-0.014503104
-0.009965028
-0.0010189755
0.014840146
0.037915732
0.062098382
0.080824075
0.080658254
0.041064787
-0.041419127
-0.12885729
-0.17044843
-0.082801605
-0.08560278
-0.072583525
-0.085298568
-0.089772817
-0.11232466
-0.12241741
-0.12955018
-0.12977784
-0.12812135
-0.12701941
-0.12638923
-0.12603482
-0.12587812
-0.12582284
-0.12580506
-0.12581013
-0.1258707
-0.12596577
-0.12609125
-0.12625699
-0.12646235
-0.12672443
-0.12711471
-0.12773656
-0.12869492
-0.13009189
-0.13184507
-0.1315802
-0.12448852
-0.11455495
-0.092080933
-0.087680944
-0.075037115
-0.088094916
-0.15752387
-0.13798353
-0.13311009
-0.1417104
-0.16427206
-0.18542968
-0.20040636
-0.20654072
-0.20659478
-0.20480445
-0.20262163
-0.20088594
-0.1996732
-0.19884746
-0.19827619
-0.19787351
-0.19760038
-0.19743687
-0.19738154
-0.19747961
-0.19773429
-0.19821622
-0.19906792
-0.20040263
-0.20206938
-0.20337473
-0.20307861
-0.19682735
-0.1819225
-0.16057397
-0.1377935
-0.12905432
-0.13387427
-0.15342226
-0.1156146
-0.10488583
-0.097533521
-0.10362332
-0.11711881
-0.13312304
-0.14576891
-0.15341798
-0.15613453
-0.15576229
-0.1544782
-0.15320556
-0.15222878
-0.15158222
-0.15126047
-0.15119178
-0.1513103
-0.1516006
-0.1520553
-0.15269253
-0.15355652
-0.15470409
-0.15618243
-0.15794759
-0.15967515
-0.16043301
-0.15815207
-0.15094119
-0.13851891
-0.12266926
-0.10939455
-0.10344472
-0.11084711
-0.1215368
-0.045814584
-0.040280622
-0.037918337
-0.041541798
-0.048372998
-0.057454098
-0.064962381
-0.069942309
-0.072062293
-0.071919599
-0.070755315
-0.06924412
-0.067778717
-0.066520543
-0.065507378
-0.064729298
-0.064166776
-0.063808265
-0.063655859
-0.063722375
-0.064037757
-0.064650341
-0.065480689
-0.06634869
-0.066960777
-0.066520154
-0.06384824
-0.058374976
-0.050479711
-0.041193006
-0.034134333
-0.030294323
-0.032561628
-0.03802595
0.03374309
0.031311796
0.030558661
0.028744063
0.025905613
0.022600064
0.01925774
0.016451079
0.014680112
0.014046518
0.014190575
0.014703761
0.015224892
0.01557658
0.015768732
0.015753684
0.01552635
0.015087862
0.014440145
0.013583377
0.012522674
0.011284648
0.0099494051
0.008696506
0.0078393556
0.0077820249
0.0088297525
0.01099382
0.013799816
0.016767371
0.019415881
0.021124368
0.021761197
0.024056656
0.058280975
0.049131241
0.044041988
0.041718706
0.040479823
0.039673127
0.038827392
0.03819904
0.037973535
0.038228178
0.038982237
0.04003372
0.041201778
0.042345451
0.043375446
0.044245291
0.044932667
0.04542724
0.045725586
0.045832941
0.045769283
0.045606838
0.045391604
0.0451941
0.045280257
0.045796608
0.046788928
0.048107438
0.049536431
0.050854352
0.05244732
0.055037416
0.060456955
0.069830442
0.073538085
0.062194702
0.053306793
0.047733235
0.044747669
0.042856602
0.041519132
0.040489345
0.039701776
0.039161977
0.038862237
0.038721046
0.038716413
0.038741085
0.038659353
0.038440818
0.038066261
0.037530668
0.036838402
0.036005428
0.035062513
0.034061863
0.033084197
0.032234191
0.031619074
0.031334527
0.03140554
0.03175666
0.032462217
0.033651565
0.035926626
0.040835478
0.04924665
0.060325263
0.044157387
0.035168931
0.025706867
0.018707137
0.014569492
0.012334934
0.011072324
0.010361282
0.010062903
0.010180598
0.010592833
0.01122704
0.011999966
0.012833449
0.013662704
0.014438835
0.015129749
0.015717852
0.016197862
0.016575235
0.016869672
0.01711372
0.017370244
0.017750865
0.018329963
0.019180717
0.020335844
0.02187625
0.024010415
0.027160297
0.03206554
0.039670268
0.049469358
0.058596207
0.036614492
0.031348037
0.023202436
0.01549593
0.0095318338
0.0052269362
0.0021488872
-9.5750002e-05
-0.0017735868
-0.0030112065
-0.0039179862
-0.0045922711
-0.0051497648
-0.0056601915
-0.0061647235
-0.0066959042
-0.0072739201
-0.0079062966
-0.0085877228
-0.0093004221
-0.010012706
-0.010678152
-0.011236642
-0.011618085
-0.01174911
-0.011566075
-0.010924896
-0.0097051503
-0.0077196946
-0.0042514995
0.0011077633
0.0084041166
0.016310794
0.021424782
-0.00055823838
-0.0025131015
-0.006946108
-0.012340791
-0.017291882
-0.02118209
-0.023766114
-0.025443775
-0.02642378
-0.026960355
-0.027132118
-0.027014102
-0.02667828
-0.02618973
-0.025603764
-0.024963638
-0.024299536
-0.023628663
-0.022955742
-0.022271787
-0.021555462
-0.020771645
-0.019872839
-0.018804661
-0.017497197
-0.015850614
-0.013734486
-0.010995959
-0.0074386338
-0.0029024474
0.0025140633
0.0082193838
0.012955313
0.015123972
-0.0003733918
-0.00042361599
-0.0021475632
-0.0054511856
-0.0095105327
-0.013499196
-0.016993338
-0.01991262
-0.022328491
-0.024343651
-0.026023084
-0.027426591
-0.028612146
-0.029634786
-0.030539949
-0.031361025
-0.032118949
-0.032822124
-0.033466797
-0.034037088
-0.034505385
-0.034832579
-0.034968701
-0.034854025
-0.03442038
-0.033594136
-0.032318049
-0.030403393
-0.027676994
-0.024337605
-0.020796963
-0.017872374
-0.016400632
-0.016539096
-0.026060203
-0.025161576
-0.024973496
-0.02604887
-0.028093648
-0.030470975
-0.032791692
-0.034610379
-0.035993766
-0.036965992
-0.037566307
-0.037848976
-0.037867819
-0.037671821
-0.03730289
-0.036794347
-0.03617002
-0.0354437
-0.034618673
-0.0336878
-0.032633418
-0.031428124
-0.030036244
-0.028417079
-0.026531087
-0.024349796
-0.021855558
-0.019050024
-0.015995021
-0.012899894
-0.010237612
-0.0086861169
-0.0086101319
-0.0093742873
-0.014025567
-0.013146029
-0.012653332
-0.013192451
-0.01476167
-0.016983318
-0.019472233
-0.021974793
-0.024350532
-0.026528968
-0.028483699
-0.030212159
-0.031728329
-0.03305378
-0.034210859
-0.035218294
-0.03608867
-0.036827031
-0.037430407
-0.037887659
-0.038179897
-0.038281386
-0.038161194
-0.037785989
-0.037124144
-0.036152979
-0.034874925
-0.03336108
-0.031714032
-0.03024685
-0.029323284
-0.029271521
-0.030080995
-0.03112037
-0.033691979
-0.032757733
-0.031839891
-0.03141991
-0.031669408
-0.032456958
-0.033502254
-0.034654684
-0.035718855
-0.036592187
-0.037234322
-0.037637419
-0.037810158
-0.037768767
-0.037531914
-0.037116581
-0.036535939
-0.035798132
-0.034905841
-0.033856532
-0.032643356
-0.03125699
-0.029688698
-0.027935074
-0.02600469
-0.023926523
-0.021759837
-0.019607955
-0.01763434
-0.016071556
-0.015181735
-0.01511105
-0.015688123
-0.016423096
-0.017874351
-0.017335768
-0.016856491
-0.016791264
-0.017342228
-0.01848732
-0.020068588
-0.021904163
-0.023842295
-0.025772068
-0.027618716
-0.029335953
-0.03089833
-0.03229438
-0.033520916
-0.034578608
-0.035468851
-0.036191791
-0.036745171
-0.037124043
-0.037321216
-0.037328625
-0.037139802
-0.036753078
-0.036178069
-0.035444471
-0.03461373
-0.033793267
-0.033146688
-0.032801358
-0.032896165
-0.033455336
-0.034285567
-0.035038249
-0.035767863
-0.035201821
-0.034529979
-0.033990895
-0.033752762
-0.033853313
-0.034232744
-0.034792549
-0.035415204
-0.036005435
-0.036496825
-0.036847812
-0.037035442
-0.037049064
-0.036884848
-0.03654292
-0.036024942
-0.035332798
-0.034468159
-0.033432895
-0.032230192
-0.030866549
-0.029354598
-0.027716731
-0.025989408
-0.024227595
-0.022508773
-0.020935231
-0.019631191
-0.018725562
-0.018305324
-0.018344427
-0.018662683
-0.019011914
-0.020110259
-0.019920762
-0.019768416
-0.019819594
-0.020212879
-0.020990014
-0.022107283
-0.023477337
-0.025004154
-0.026600189
-0.028192477
-0.029723991
-0.031152702
-0.032449445
-0.033595158
-0.034578244
-0.035392251
-0.036034102
-0.036503085
-0.036800339
-0.036929185
-0.036896185
-0.036712954
-0.03639934
-0.03598606
-0.035517732
-0.035055352
-0.034675722
-0.034462101
-0.034477833
-0.034742179
-0.03519834
-0.035705757
-0.036110175
-0.036123178
-0.035849694
-0.035488613
-0.035139591
-0.034910413
-0.034858848
-0.034987943
-0.03525996
-0.035617517
-0.036001147
-0.036358259
-0.036646119
-0.03683187
-0.03689127
-0.036807098
-0.036567487
-0.036164737
-0.035594651
-0.034856504
-0.033953458
-0.032893618
-0.031691382
-0.030369165
-0.028959152
-0.027504639
-0.0260606
-0.02469285
-0.023474798
-0.022480706
-0.02177087
-0.0213661
-0.021221681
-0.021238525
-0.021306956
-0.022655467
-0.02266974
-0.022747943
-0.022965899
-0.02339762
-0.024075761
-0.02498717
-0.026087858
-0.02731974
-0.028622647
-0.029938252
-0.031215636
-0.032412832
-0.033497336
-0.034445765
-0.035242885
-0.035880457
-0.036356114
-0.036672432
-0.036836401
-0.03685921
-0.036756452
-0.036548676
-0.036262115
-0.035929287
-0.035588949
-0.035284776
-0.035061688
-0.03495845
-0.034995283
-0.035160198
-0.03540195
-0.0356443
-0.035824109
-0.035187894
-0.035073884
-0.034922374
-0.03477494
-0.034685151
-0.034693332
-0.034813042
-0.035033668
-0.035329413
-0.035666663
-0.03600989
-0.036325006
-0.03658121
-0.036751776
-0.03681423
-0.0367503
-0.036545916
-0.036191424
-0.035682012
-0.035018409
-0.034207734
-0.033264428
-0.03221101
-0.031078435
-0.029905817
-0.02873919
-0.027629145
-0.026626975
-0.025779638
-0.025121725
-0.024664351
-0.024387223
-0.024241299
-0.024174248
-0.025909283
-0.026007676
-0.026196784
-0.026512622
-0.026982009
-0.02761572
-0.028401018
-0.029307841
-0.030296275
-0.031322158
-0.032341164
-0.033312137
-0.034199604
-0.034975353
-0.035619109
-0.036118508
-0.036468614
-0.03667114
-0.036733496
-0.036668045
-0.036491378
-0.036223782
-0.035888808
-0.035512822
-0.03512434
-0.034752915
-0.034427238
-0.034172387
-0.034006079
-0.03393412
-0.033944409
-0.034007119
-0.034083431
-0.034143153
-0.032630295
-0.032618827
-0.032608969
-0.032625209
-0.032696723
-0.032845206
-0.033079994
-0.033397882
-0.033785977
-0.034225405
-0.034692887
-0.035162903
-0.035609256
-0.036006325
-0.036329969
-0.036558262
-0.036672247
-0.036656754
-0.036501302
-0.036201102
-0.035757987
-0.0351812
-0.034487784
-0.033702415
-0.032856554
-0.031986742
-0.031132163
-0.030331752
-0.029621038
-0.02902832
-0.028569596
-0.028243885
-0.028036399
-0.027919374
-0.030274374
-0.030395184
-0.030597808
-0.030904939
-0.03132435
-0.031849016
-0.032459838
-0.03312923
-0.033824603
-0.034510985
-0.035153536
-0.035720082
-0.036183422
-0.036522982
-0.036725733
-0.036786382
-0.036706952
-0.036495936
-0.036167274
-0.035739129
-0.035232781
-0.034671603
-0.034080104
-0.033483035
-0.032904412
-0.03236636
-0.031888003
-0.031484141
-0.031163864
-0.030929396
-0.030774211
-0.030682591
-0.030632185
-0.030600482
-0.028013464
-0.028082478
-0.028188524
-0.028353057
-0.028593736
-0.02892188
-0.029341836
-0.029851804
-0.030444903
-0.031109357
-0.031829422
-0.032585826
-0.033356579
-0.034117834
-0.034844824
-0.035512854
-0.036098316
-0.036579872
-0.036939783
-0.037165279
-0.037249841
-0.037194099
-0.037006391
-0.036702657
-0.036305597
-0.035843045
-0.035345856
-0.034845566
-0.034372268
-0.033952585
-0.033607016
-0.033346468
-0.033169538
-0.033063835
-0.036415598
-0.036488081
-0.036613865
-0.036792229
-0.037020793
-0.037287533
-0.037572668
-0.037851612
-0.03809717
-0.038281385
-0.038377527
-0.038362334
-0.038218029
-0.037933882
-0.0375069
-0.036941772
-0.036250127
-0.035449446
-0.034561582
-0.033611138
-0.03262403
-0.031626169
-0.030642439
-0.029695748
-0.028806211
-0.027990537
-0.027261587
-0.026628395
-0.026096498
-0.025667686
-0.025339586
-0.0251043
-0.024947381
-0.02484879
-0.021124323
-0.021246666
-0.021447335
-0.02174783
-0.022161405
-0.022693743
-0.02334538
-0.024114284
-0.024996358
-0.025984814
-0.027069279
-0.028235389
-0.029464855
-0.03073581
-0.032023444
-0.03330078
-0.034539734
-0.035712422
-0.036792776
-0.037758261
-0.038591551
-0.039282009
-0.03982659
-0.040230158
-0.040504861
-0.040668785
-0.040743908
-0.040753852
-0.040721701
-0.04066818
-0.040610059
-0.040558685
-0.040519479
-0.040497728
-0.045513541
-0.045463409
-0.045377258
-0.045249339
-0.045072543
-0.044838953
-0.044537841
-0.04415491
-0.043673142
-0.043074735
-0.042343623
-0.041467948
-0.040442122
-0.03926804
-0.037955511
-0.036521764
-0.034990225
-0.033388682
-0.031747388
-0.030097278
-0.028468304
-0.026888137
-0.025381208
-0.023968097
-0.022665168
-0.021484477
-0.020434014
-0.019518482
-0.018740562
-0.018101845
-0.017601966
-0.017235441
-0.016988198
-0.016836843
-0.012016462
-0.012200025
-0.012500118
-0.012940124
-0.01353431
-0.014288388
-0.015203327
-0.01627876
-0.017513928
-0.018906509
-0.020451105
-0.022138218
-0.023953749
-0.025878881
-0.027890145
-0.029959829
-0.032056738
-0.034147393
-0.036197607
-0.038174361
-0.040047935
-0.041793977
-0.043395087
-0.044841535
-0.046131113
-0.047267953
-0.048260434
-0.049118337
-0.049849899
-0.050459597
-0.050948139
-0.051316058
-0.051568993
-0.051719268
-0.05943669
-0.059154338
-0.058683788
-0.058004136
-0.057113217
-0.056022094
-0.054744883
-0.053291157
-0.051665012
-0.049867569
-0.047900587
-0.045769634
-0.043486313
-0.041069373
-0.038544654
-0.03594401
-0.033303448
-0.030660845
-0.028053688
-0.025517165
-0.023082716
-0.020777126
-0.018622018
-0.016633773
-0.014823706
-0.013198417
-0.01176049
-0.010509758
-0.0094450391
-0.0085655902
-0.0078703042
-0.0073536439
-0.0070008148
-0.0067864603
-0.0013404218
-0.0015857358
-0.0019923049
-0.0025883884
-0.003390333
-0.0044040754
-0.0056309755
-0.0070726304
-0.0087318319
-0.010611086
-0.012710646
-0.015027084
-0.01755241
-0.020273474
-0.023171538
-0.026221995
-0.029394461
-0.032653299
-0.035958829
-0.039269086
-0.042542115
-0.045738363
-0.048822812
-0.051766364
-0.05454609
-0.057144226
-0.0595458
-0.061735052
-0.063690953
-0.065385334
-0.0667838
-0.067859567
-0.068608488
-0.069056985
-0.081037813
-0.080379644
-0.079290431
-0.077729191
-0.075704066
-0.073269465
-0.070487383
-0.067405786
-0.064069862
-0.060514696
-0.056772276
-0.052875603
-0.048861157
-0.044769805
-0.040646344
-0.036537892
-0.032491616
-0.028552301
-0.024760268
-0.021149939
-0.017749072
-0.0145787
-0.011653532
-0.0089826178
-0.0065700928
-0.0044159724
-0.0025171667
-0.00086901769
0.00053264193
0.0016901049
0.0026052395
0.0032849204
0.0037475931
0.0040249386
0.0088778177
0.0085663041
0.008044268
0.0072757308
0.0062395239
0.0049275492
0.0033375779
0.001466898
-0.00068978084
-0.0031391148
-0.0058870768
-0.0089373508
-0.012290236
-0.015941668
-0.019882181
-0.024095845
-0.028559313
-0.033241359
-0.03810296
-0.043098254
-0.048176094
-0.053282344
-0.058362066
-0.063361196
-0.068227179
-0.072908211
-0.07735062
-0.081495402
-0.085273078
-0.088595369
-0.091368093
-0.093514795
-0.095015722
-0.095924181
-0.059573609
-0.053333503
-0.047199759
-0.041232568
-0.035485257
-0.030002663
-0.024820191
-0.019963708
-0.015450194
-0.011288897
-0.0074828038
-0.0040301108
-0.00092549599
0.0018387485
0.0042715207
0.006381304
0.008174152
0.0096527135
0.010819078
0.011682562
0.012267801
0.012615917
0.014432196
0.014045188
0.013392665
0.012427352
0.011120704
0.0094625743
0.0074516857
0.0050861036
0.002359457
-0.00073835846
-0.0042192261
-0.0080951418
-0.01237696
-0.017073167
-0.022188395
-0.027721634
-0.033664221
0.014175392
0.01214604
0.0082731639
0.0033503631
-0.0020349986
-0.0074656055
-0.012656023
-0.017420426
-0.021651687
-0.025321632
-0.02842265
-0.030943945
-0.032912593
-0.034366694
-0.035351617
-0.035925779
-0.036151713
-0.036055266
-0.03560481
-0.034724098
-0.033175982
-0.030326609
-0.024881054
-0.015046361
0.00030903754
0.02026858
0.039427563
0.050679782
0.046023013
0.017638864
-0.036381666
-0.089640001
-0.10968794
-0.069733062
-0.02682931
-0.062844664
-0.026820033
-0.0025338001
0.0066050496
-0.0056672247
-0.0042671975
-0.0030648881
-0.013098766
-0.012983856
-0.020506361
-0.019776378
0.022941028
0.029675073
0.041111048
0.047681184
0.03550611
0.0024007515
-0.048187695
-0.07923241
-0.066477121
-0.047712517
0.0091097616
0.0095257153
-0.017014427
0.032150751
0.068180032
0.054027153
0.05183459
0.0032429588
-0.05202821
-0.072025383
-0.092095888
-0.069774048
-0.01159378
-0.0066825406
0.010940683
0.075896502