/*--------------------------------*- C++ -*----------------------------------*\
| =========                 |                                                 |
| \\      /  F ield         | OpenFOAM: The Open Source CFD Toolbox           |
|  \\    /   O peration     | Version:  v2012                                 |
|   \\  /    A nd           | Website:  www.openfoam.com                      |
|    \\/     M anipulation  |                                                 |
\*---------------------------------------------------------------------------*/
FoamFile
{
    version     2.0;
    format      ascii;
    class       volVectorField;
    location    "0";
    object      U;
}
// * * * * * * * * * * * * * * * * * * * * * * * * * * * * * * * * * * * * * //

dimensions      [0 1 -1 0 0 0 0];


internalField   nonuniform List<vector> 
19664
(
(4.9716307 -0.00024639415 -0.00061530747)
(4.9717403 -0.00070138318 -0.00029359351)
(4.9734247 -0.00085496276 -6.5512898e-05)
(4.9757615 -0.00073517538 0.00016199776)
(4.9782097 -0.00062512921 0.00025835944)
(4.9805226 -0.00052655169 0.00027830203)
(4.9826039 -0.00043434331 0.00028353659)
(4.9844464 -0.00035450165 0.00027828065)
(4.9860623 -0.00028757843 0.00026647116)
(4.9874723 -0.00023241883 0.00025077696)
(4.9886982 -0.0001871711 0.00023296244)
(4.9897604 -0.00014965569 0.00021402188)
(4.9906756 -0.00011851129 0.00019405941)
(4.991456 -9.2019866e-05 0.00017284489)
(4.9921085 -6.870343e-05 0.00014987009)
(4.9926349 -4.7877357e-05 0.00012403916)
(4.9930202 -1.9865013e-05 9.4832995e-05)
(4.9932433 6.7608731e-06 5.9010369e-05)
(4.9932707 3.6477941e-05 6.512886e-06)
(4.9930292 8.9894258e-05 -5.6488968e-05)
(4.9923994 0.00016512822 -0.00015125666)
(4.9912428 0.00026271437 -0.0002724008)
(4.9892245 0.00045812194 -0.00049360264)
(4.985822 0.00074386843 -0.00081064098)
(4.9805064 0.0011478512 -0.0012082958)
(4.9735122 0.00133314 -0.0014384717)
(4.9664517 0.0011282408 -0.0012473528)
(4.9641673 -0.00049857664 0.00020078152)
(4.9698041 -0.0018894113 0.0014119795)
(4.9921574 -0.0064369321 0.0056418188)
(5.0266743 -0.0070405254 0.0055197273)
(5.0596185 -0.0071371788 0.0041780175)
(5.0642245 0.0018552552 -0.0072574158)
(5.018298 0.012451494 -0.016394316)
(4.9968656 -0.0085379969 0.0032201649)
(4.9726127 0.022147265 0.0094880919)
(4.987619 0.047153387 0.052864666)
(4.9820533 0.021361397 0.068458049)
(4.9896639 0.040227511 0.056145893)
(4.9742817 0.031100714 0.045418655)
(4.9716019 0.040221748 0.018804615)
(4.9671612 0.038869612 0.0086386731)
(4.9683194 0.039662424 0.00019428195)
(4.971117 0.039180078 -0.0017332863)
(4.9735901 0.038905035 -0.00155985)
(4.9753478 0.03864968 -0.00073791233)
(4.9765393 0.038509789 -0.00016408005)
(4.9773526 0.038440911 0.00012683461)
(4.9779378 0.038405412 0.00019716929)
(4.9783875 0.038405936 0.00016652552)
(4.9787333 0.038407863 0.00012895481)
(4.9789998 0.038410586 9.625131e-05)
(4.9791928 0.038410249 6.3394283e-05)
(4.9793091 0.038417566 2.9644633e-05)
(4.9793415 0.038403468 -9.0077178e-06)
(4.9792555 0.038422173 -2.3308843e-05)
(4.9790124 0.038454852 6.2747161e-05)
(4.9785245 0.038527833 0.00034718363)
(4.9776407 0.038670769 0.00091931708)
(4.9761954 0.038930092 0.0017494688)
(4.9740491 0.039204349 0.0019362461)
(4.971625 0.039682916 -1.3351812e-05)
(4.9708366 0.038893173 -0.0085204323)
(4.9754502 0.0402495 -0.018750959)
(4.9783073 0.031132986 -0.045398507)
(4.9938468 0.04026044 -0.056138072)
(4.9863557 0.021375256 -0.068470218)
(4.9920317 0.047187533 -0.052874327)
(4.9770568 0.022162294 -0.0094765043)
(5.0013574 -0.008549539 -0.0032132552)
(4.9910592 -0.020864862 0.018511448)
(5.020259 -0.062187535 0.033787307)
(5.0302008 -0.075640132 0.00051271663)
(5.0475288 -0.062028129 0.01442262)
(5.039953 -0.052120185 0.0059252351)
(5.0387382 -0.025348386 0.015523166)
(5.0345642 -0.0098639258 0.015821592)
(5.0345614 0.0098209336 0.015811955)
(5.0387418 0.02532305 0.01552054)
(5.0399657 0.052109432 0.0059244669)
(5.0475518 0.062026826 0.014421691)
(5.0302303 0.075642655 0.00051226589)
(5.0202927 0.062187875 0.033786805)
(4.9910961 0.020863346 0.01850966)
(5.0013996 0.0085487933 -0.0032180178)
(4.9771072 -0.02216277 -0.0094904577)
(4.9920813 -0.047187859 -0.052894447)
(4.9863989 -0.021375306 -0.068489019)
(4.9938845 -0.040259916 -0.056149447)
(4.9783435 -0.031132243 -0.045398179)
(4.9754877 -0.040249089 -0.018739461)
(4.970877 -0.038895407 -0.0085098445)
(4.9716625 -0.039681218 2.4971946e-06)
(4.9740932 -0.039205122 0.0019634954)
(4.9762393 -0.038932647 0.0017736237)
(4.9776861 -0.038672442 0.00093711103)
(4.9785704 -0.038528963 0.0003600458)
(4.9790585 -0.038455888 7.1851416e-05)
(4.9793001 -0.03842357 -1.4207736e-05)
(4.9793822 -0.038411544 -2.597692e-06)
(4.9793651 -0.038412619 3.2578892e-05)
(4.9792433 -0.038407385 6.7195926e-05)
(4.9790472 -0.038415879 9.75752e-05)
(4.9787838 -0.038409858 0.00012790686)
(4.9784363 -0.038404541 0.00016711241)
(4.9779864 -0.038408861 0.00019905235)
(4.977403 -0.038442621 0.00012789709)
(4.9765905 -0.038511624 -0.00016592347)
(4.9753996 -0.038651907 -0.00074555017)
(4.9736423 -0.038907895 -0.0015763147)
(4.9711696 -0.039181323 -0.0017563269)
(4.9683681 -0.039661277 0.00017951998)
(4.9672129 -0.038871916 0.0086278822)
(4.971651 -0.040221724 0.018792336)
(4.9743301 -0.031100041 0.045416836)
(4.9897162 -0.040226929 0.056154948)
(4.9821154 -0.021360629 0.068474551)
(4.9876928 -0.047153271 0.052882687)
(4.9726864 -0.022147041 0.0094996693)
(4.9969187 0.0085377657 0.0032236086)
(4.9866142 0.02083804 -0.018485111)
(5.0157803 0.06211395 -0.033743808)
(5.0257194 0.075545166 -0.00050260228)
(5.0430313 0.06194421 -0.01439962)
(5.0354509 0.052044048 -0.0059102449)
(5.0342251 0.02529007 -0.015498683)
(5.0300466 0.0098076749 -0.015789908)
(5.0300451 -0.0098529371 -0.015801079)
(5.0342163 -0.025316134 -0.015501489)
(5.0354337 -0.052054443 -0.0059107328)
(5.0430043 -0.061942289 -0.014399324)
(5.0256883 -0.075538466 -0.00049970831)
(5.0157489 -0.062112253 -0.03374075)
(4.9865782 -0.020839336 -0.018484631)
(4.9926021 0.051636434 -0.036995751)
(5.0191948 0.051399336 -0.058116845)
(5.0281204 0.023774288 -0.0097797781)
(5.0359506 -0.0050330765 -0.02359851)
(5.0318469 -0.015848829 -0.013620959)
(5.027036 -0.014757413 -0.02819484)
(5.0229375 -0.0054443775 -0.029858806)
(5.022946 0.0054331869 -0.029839738)
(5.0270503 0.014732411 -0.028190994)
(5.0318686 0.01583157 -0.013620501)
(5.0359798 0.0050245247 -0.023598328)
(5.0281558 -0.023777419 -0.0097836187)
(5.019237 -0.051399001 -0.058121406)
(4.9926531 -0.051635062 -0.036996163)
(5.0061919 -0.099237598 -0.021730986)
(5.0285198 -0.096972491 -0.032231267)
(5.0360092 -0.064470765 -0.0087075571)
(5.0359355 -0.023930377 -0.0061163814)
(5.0315635 0.001431704 -0.0034618118)
(5.02558 0.0084665675 -0.0098890762)
(5.0214778 0.0038524356 -0.012201008)
(5.0214657 -0.0038374634 -0.012204759)
(5.0255638 -0.0084859792 -0.0098898768)
(5.0315396 -0.0014443636 -0.0034621906)
(5.0359031 0.023924893 -0.0061169972)
(5.0359699 0.064467053 -0.0087068288)
(5.0284742 0.096971439 -0.032229793)
(5.0061381 0.099238248 -0.021733276)
(4.9986729 0.06661596 0.013306356)
(5.0221137 0.08627633 0.0089619774)
(5.0307259 0.061549726 0.023204482)
(5.0311187 0.023917982 0.030226204)
(5.0272894 -0.00067695068 0.032471368)
(5.0197344 -0.0075709919 0.030049721)
(5.0147077 -0.0036927448 0.028481975)
(5.0147152 0.003676232 0.028470009)
(5.0197497 0.0075485591 0.030050266)
(5.0273146 0.00066547346 0.03247341)
(5.0311522 -0.023922619 0.030226709)
(5.0307664 -0.061552752 0.023204906)
(5.0221596 -0.086277341 0.0089624446)
(4.9987244 -0.066614882 0.013310587)
(4.9932852 -0.090297773 0.039243826)
(5.0104447 -0.090862913 0.04007951)
(5.0185662 -0.059887063 0.052712594)
(5.0185271 -0.021794568 0.060872139)
(5.0141103 0.0026380206 0.062999818)
(5.0056028 0.0090382408 0.061666913)
(5.0005507 0.0042069498 0.060693656)
(5.0005467 -0.0042395685 0.060701257)
(5.0055883 -0.0090541509 0.061664246)
(5.0140839 -0.0026456513 0.06299683)
(5.018493 0.021790695 0.060871271)
(5.0185254 0.059884538 0.05271212)
(5.0103991 0.090861866 0.040078736)
(4.9932362 0.090298321 0.039240849)
(4.9798073 0.078974668 0.042473844)
(4.9974885 0.087806001 0.048451198)
(5.004589 0.058615336 0.058211724)
(5.0033689 0.020124458 0.064063759)
(4.9983112 -0.0041282942 0.065609737)
(4.9893113 -0.0099498845 0.064975182)
(4.9843149 -0.0045516576 0.064369349)
(4.9843186 0.0045403193 0.064372771)
(4.9893261 0.0099455493 0.064978407)
(4.9983383 0.0041258955 0.065611813)
(5.0034035 -0.020126453 0.064064389)
(5.0046302 -0.058617404 0.058211843)
(4.997534 -0.087807109 0.048451098)
(4.9798552 -0.078974146 0.042473388)
(4.9747102 -0.092238713 0.03277639)
(4.9905124 -0.092792371 0.040905077)
(4.996914 -0.059225365 0.047128532)
(4.9952499 -0.019632347 0.050548382)
(4.9898422 0.0045858698 0.051419145)
(4.9805648 0.010183613 0.051027423)
(4.9755984 0.0046283939 0.050617431)
(4.9755931 -0.0046224522 0.050611562)
(4.9805494 -0.010180672 0.051025373)
(4.9898142 -0.0045855645 0.051418308)
(4.9952148 0.019631213 0.050548478)
(4.9968724 0.059223301 0.047129037)
(4.9904665 0.092790731 0.040906505)
(4.974662 0.092238203 0.032780688)
(4.97144 0.090753953 0.018511867)
(4.9877475 0.092382386 0.026036284)
(4.9942971 0.058679342 0.030049388)
(4.9926671 0.019074362 0.031723019)
(4.9872201 -0.0048255989 0.031994088)
(4.9779261 -0.010198541 0.031659585)
(4.9730103 -0.0046023937 0.031353506)
(4.9730175 0.0046209595 0.031356522)
(4.9779421 0.010205465 0.031660111)
(4.9872486 0.0048269438 0.031993806)
(4.9927027 -0.019075372 0.031722273)
(4.994339 -0.058681674 0.030048261)
(4.9877939 -0.092385134 0.026033424)
(4.9714891 -0.090757678 0.018503265)
(4.9727011 -0.091711883 0.007947478)
(4.9890023 -0.092188142 0.013533685)
(4.9957911 -0.057814941 0.015758853)
(4.9944837 -0.018345837 0.016387854)
(4.989294 0.0051959345 0.016305618)
(4.9802828 0.010327069 0.016010127)
(4.9755009 0.0046383801 0.015787117)
(4.9754928 -0.0046203657 0.015787079)
(4.9802662 -0.01031968 0.016010712)
(4.9892648 -0.005194545 0.016306601)
(4.9944478 0.018344702 0.016388956)
(4.9957488 0.057812286 0.015760267)
(4.9889554 0.092185497 0.013537058)
(4.9726518 0.091711897 0.007957739)
(4.9757038 0.09082154 0.002870111)
(4.9923714 0.091375994 0.0058686753)
(4.9995502 0.057084669 0.0071308139)
(4.9985964 0.017855203 0.0073616951)
(4.9936612 -0.0054209413 0.0072108822)
(4.9849103 -0.010381126 0.0070097762)
(4.9802286 -0.0046225164 0.0068725487)
(4.9802368 0.0046404363 0.0068722543)
(4.984927 0.010388248 0.0070087782)
(4.9936904 0.0054219036 0.0072095555)
(4.9986324 -0.017856932 0.0073605575)
(4.9995928 -0.057088245 0.0071296678)
(4.9924191 -0.091381003 0.0058658485)
(4.9757551 -0.090825718 0.0028647121)
(4.9784994 -0.090143957 0.0011869093)
(4.9955932 -0.090710133 0.0022417917)
(5.0031108 -0.056656362 0.0028834851)
(5.0024149 -0.017626807 0.003005681)
(4.997645 0.0055124003 0.0029069661)
(4.9890489 0.01040977 0.0028184168)
(4.9844153 0.0046383226 0.0027681777)
(4.984407 -0.004621252 0.0027683975)
(4.9890318 -0.010403307 0.0028190599)
(4.9976159 -0.0055119286 0.0029087182)
(5.0023791 0.017624561 0.0030066409)
(5.0030684 0.056652521 0.0028838275)
(4.9955458 0.090705872 0.0022432887)
(4.978449 0.090138984 0.0011892647)
(4.9804082 0.089548169 0.00058676835)
(4.9978525 0.090184306 0.00093419784)
(5.0056407 0.056392914 0.0011772858)
(5.0051248 0.017530745 0.0012595319)
(5.000465 -0.0055229615 0.0012352414)
(4.9919613 -0.010376614 0.0012225997)
(4.987349 -0.0046033293 0.0012210984)
(4.9873573 0.0046190905 0.0012209824)
(4.9919785 0.010381521 0.0012223397)
(5.0004943 0.0055224322 0.0012338929)
(5.0051605 -0.017533164 0.0012588672)
(5.0056825 -0.056396914 0.0011772307)
(4.9978991 -0.090189228 0.00093379728)
(4.9804581 -0.089553004 0.00058475336)
(4.9817255 -0.089307135 0.00029054792)
(4.9993296 -0.089996832 0.00053028457)
(5.0072742 -0.056280806 0.00060678753)
(5.0068453 -0.017510015 0.00065124964)
(5.0022144 0.0055044909 0.00066539578)
(4.9937211 0.010361908 0.0006718913)
(4.9891014 0.0046098922 0.00067345417)
(4.9890935 -0.0045968325 0.00067372722)
(4.9937043 -0.010359067 0.00067239047)
(5.002186 -0.0055063381 0.00066603505)
(5.0068105 0.017506635 0.00065171738)
(5.007233 0.056276243 0.0006072195)
(4.9992834 0.089992013 0.00052985755)
(4.9816761 0.089302994 0.00029052033)
(4.9825172 0.089189875 0.00021593931)
(5.0001782 0.089914307 0.00032227773)
(5.0081953 0.056229776 0.00037320759)
(5.0078254 0.017489926 0.00039555396)
(5.0032312 -0.0055096 0.00040755428)
(4.9947719 -0.010359091 0.00041454379)
(4.9901656 -0.0045977651 0.00041640777)
(4.990173 0.0046055713 0.00041594196)
(4.9947883 0.010358187 0.00041386614)
(5.0032589 0.0055058193 0.0004069881)
(5.0078596 -0.017493889 0.00039549285)
(5.0082357 -0.056234409 0.00037197719)
(5.0002235 -0.089919387 0.00032313962)
(4.9825657 -0.089194031 0.00021637184)
(4.9831654 -0.089129861 0.00019650227)
(5.0008517 -0.089880809 0.0002246168)
(5.0088908 -0.056223378 0.00025662932)
(5.0085435 -0.017488526 0.00026810804)
(5.0039605 0.0055099967 0.00027494316)
(4.9955055 0.010359045 0.00027929823)
(4.990894 0.0046032769 0.0002804294)
(4.9908871 -0.0046012244 0.00028182291)
(4.9954897 -0.010364327 0.0002801226)
(5.0039336 -0.0055162649 0.00027547497)
(5.0085094 0.017480549 0.00026870212)
(5.008852 0.056218438 0.00025627467)
(5.0008064 0.089881641 0.00022262171)
(4.983116 0.089127382 0.00019967176)
(4.9835683 0.089118849 0.00017229972)
(5.0012695 0.089862887 0.0001779439)
(5.0093299 0.056206904 0.00018725634)
(5.0090037 0.017475963 0.00019392815)
(5.0044381 -0.0055226444 0.00019778522)
(4.9960037 -0.010370722 0.00020047339)
(4.9914042 -0.0046086036 0.00020179183)
(4.9914094 0.0045989016 0.0002007923)
(4.9960188 0.010361843 0.00020013656)
(5.0044645 0.005515807 0.00019754897)
(5.0090368 -0.01747917 0.00019353533)
(5.0093716 -0.056213106 0.00018759582)
(5.0013142 -0.089874247 0.00017970249)
(4.983615 -0.089123373 0.00016986518)
(4.983966 -0.089128107 0.00013394698)
(5.0016715 -0.08986983 0.00013768963)
(5.0097339 -0.056207558 0.0001392219)
(5.009406 -0.017475589 0.00014333862)
(5.0048391 0.0055188962 0.0001456441)
(4.9963989 0.010363718 0.0001470176)
(4.9917913 0.0046005543 0.00014765438)
(4.991786 -0.0046069032 0.00014656062)
(4.9963838 -0.01037086 0.00014639816)
(5.0048128 -0.0055248522 0.00014519241)
(5.0093726 0.01747064 0.00014288791)
(5.0096937 0.056202623 0.00014074621)
(5.0016271 0.089865589 0.00013773139)
(4.9839199 0.089124101 0.00013274237)
(4.9841859 0.089133296 9.9634476e-05)
(5.0018981 0.089874498 9.9583066e-05)
(5.0099671 0.056202214 9.5081918e-05)
(5.0096479 0.017466327 0.00010402973)
(5.0050907 -0.0055264384 0.0001041975)
(4.996664 -0.010369806 0.00010446478)
(4.9920664 -0.0045991543 0.00010432397)
(4.9920731 0.0046108693 0.00010423467)
(4.9966797 0.010370687 0.00010474611)
(5.0051178 0.0055236006 0.00010504744)
(5.0096816 -0.017469006 0.00010508722)
(5.0100066 -0.056199042 9.8101468e-05)
(5.0019414 -0.089874245 8.3625889e-05)
(4.984234 -0.089142703 9.9375328e-05)
(4.9844303 -0.089128555 7.6835408e-05)
(5.002139 -0.089880147 4.7046009e-05)
(5.0102034 -0.056216493 6.0682153e-05)
(5.0098779 -0.017476657 7.2151909e-05)
(5.0053128 0.0055230057 6.6717918e-05)
(4.9968736 0.010372193 6.515372e-05)
(4.9922662 0.004608019 6.4255147e-05)
(4.9922609 -0.004603233 6.5422109e-05)
(4.9968585 -0.01036994 6.577646e-05)
(5.0052851 -0.0055255767 6.6765402e-05)
(5.0098427 0.017470479 6.8041097e-05)
(5.0101604 0.056207174 4.8211969e-05)
(5.0020906 0.089875336 6.2303517e-05)
(4.9843803 0.089132237 7.3093855e-05)
(4.9844939 0.089140042 3.1413681e-05)
(5.0022033 0.089870441 1.2205721e-05)
(5.0102734 0.056202364 1.0660531e-05)
(5.0099543 0.017471994 3.2773738e-05)
(5.0053945 -0.0055235098 3.009656e-05)
(4.9969649 -0.010365855 2.7047935e-05)
(4.9923659 -0.00459788 2.2177598e-05)
(4.9923712 0.0046102182 2.0506172e-05)
(4.996979 0.01037083 2.2417211e-05)
(5.0054214 0.005521956 2.7771239e-05)
(5.0099887 -0.017475812 4.0476926e-05)
(5.0103145 -0.056214443 2.3832312e-05)
(5.0022517 -0.089883498 3.2783842e-05)
(4.9845465 -0.089138372 6.2693634e-05)
(4.9845673 -0.08913018 3.7854588e-05)
(5.0022743 -0.089880927 2.6054966e-05)
(5.0103312 -0.056230779 -6.6716852e-06)
(5.0099949 -0.01748877 -1.6848486e-05)
(5.0054231 0.0055225313 -2.862238e-05)
(4.9969781 0.010374627 -3.5272124e-05)
(4.9923697 0.0046156764 -3.7591046e-05)
(4.9923613 -0.0045956217 -3.504202e-05)
(4.9969613 -0.010364907 -3.0331606e-05)
(5.005396 -0.0055162032 -2.6765852e-05)
(5.0099634 0.017492803 -1.9700937e-05)
(5.0102954 0.056235022 -1.0682137e-05)
(5.0022359 0.089883428 2.8353499e-06)
(4.9845278 0.089121274 5.7380619e-06)
(4.9844346 0.089160269 3.6986166e-06)
(5.0021283 0.089906857 -3.8201414e-06)
(5.0101751 0.056232138 -6.6229746e-05)
(5.0098348 0.017485067 -0.00010779614)
(5.0052606 -0.0055164617 -0.00011712675)
(4.9968177 -0.010361778 -0.00012132574)
(4.9922146 -0.0045944896 -0.0001226125)
(4.9922226 0.00461351 -0.0001235923)
(4.9968332 0.010371065 -0.00012211498)
(5.0052873 0.0055193937 -0.00011728679)
(5.0098675 -0.017484058 -0.00010962892)
(5.0102124 -0.056232179 -6.9362583e-05)
(5.002169 -0.089908857 -2.0420067e-06)
(4.9844775 -0.089163073 1.0016604e-05)
(4.9842228 -0.089225 -1.5228992e-05)
(5.0018858 -0.089950488 -0.0001216304)
(5.0099017 -0.056249287 -0.0002134319)
(5.0095325 -0.017492096 -0.00024832504)
(5.004936 0.0055148777 -0.00025958978)
(4.9964685 0.010369259 -0.00026564179)
(4.9918546 0.0046140817 -0.00026748855)
(4.9918467 -0.0045941568 -0.00026744141)
(4.9964534 -0.010360723 -0.00026546078)
(5.0049098 -0.0055128916 -0.0002592951)
(5.0095003 0.017490996 -0.00024801918)
(5.0098636 0.056247193 -0.00021010837)
(5.0018439 0.08994855 -0.00011899702)
(4.9841782 0.089222814 -1.7816708e-05)
(4.9836595 0.089347783 -0.00010139984)
(5.001264 0.09003106 -0.00036340988)
(5.0092175 0.056292736 -0.00046932391)
(5.0088043 0.017508226 -0.00051549577)
(5.0041893 -0.0055134354 -0.00053069245)
(4.9957148 -0.01036517 -0.00053514272)
(4.9911042 -0.0045967548 -0.00053664957)
(4.991112 0.0046163627 -0.00053674539)
(4.9957296 0.010373648 -0.00053535471)
(5.0042149 0.0055154292 -0.00053101341)
(5.0088357 -0.017509109 -0.00051586413)
(5.0092546 -0.056295361 -0.00046994527)
(5.0013056 -0.090034165 -0.00036481706)
(4.9837037 -0.089350435 -9.693991e-05)
(4.982736 -0.089597935 -0.00039431751)
(5.0001842 -0.090234493 -0.00079522753)
(5.0079764 -0.056424342 -0.0010661336)
(5.0074583 -0.017537906 -0.001148509)
(5.0027912 0.0055336149 -0.0011258077)
(4.9942782 0.010395036 -0.0010887755)
(4.9896583 0.0046241949 -0.0010888661)
(4.9896507 -0.0046052271 -0.0010887373)
(4.9942637 -0.010387013 -0.001088469)
(5.002766 -0.0055318426 -0.0011250041)
(5.0074273 0.017536886 -0.0011477241)
(5.0079399 0.05642159 -0.0010657968)
(5.0001433 0.090230964 -0.00079483389)
(4.9826921 0.089594366 -0.00040084857)
(4.9810563 0.09018875 -0.0010242099)
(4.9981733 0.090743651 -0.0021304641)
(5.005713 0.056672641 -0.0027962705)
(5.0050266 0.017632614 -0.0029170696)
(5.0002592 -0.0055088605 -0.002818746)
(4.9916633 -0.010402646 -0.0027046734)
(4.9870342 -0.0046226818 -0.0026556329)
(4.9870417 0.0046403772 -0.0026558944)
(4.9916776 0.010409627 -0.0027052683)
(5.0002839 0.0055099884 -0.002819974)
(5.0050568 -0.017633867 -0.002918254)
(5.0057486 -0.056675521 -0.0027965695)
(4.998213 -0.090746564 -0.0021291906)
(4.9810981 -0.090192475 -0.0010199495)
(4.9786954 -0.090871924 -0.0027494201)
(4.9953825 -0.091423397 -0.0057815886)
(5.002567 -0.057117094 -0.0070473752)
(5.0016096 -0.017865859 -0.007278647)
(4.9966662 0.0054248081 -0.0071273667)
(4.9878984 0.010393294 -0.006924254)
(4.983206 0.0046420987 -0.0067868915)
(4.9831988 -0.0046261784 -0.0067864931)
(4.9878842 -0.010387573 -0.0069234391)
(4.9966422 -0.0054244514 -0.007126179)
(5.0015802 0.017864115 -0.0072774609)
(5.0025323 0.057113945 -0.0070469983)
(4.9953436 0.091418913 -0.0057841746)
(4.978653 0.09086847 -0.002755162)
(4.9759645 0.091765293 -0.0078757258)
(4.9922786 0.092244639 -0.013458407)
(4.9990744 0.057850213 -0.01568158)
(4.9977704 0.018356644 -0.016310394)
(4.9925822 -0.0051984016 -0.016228823)
(4.9835747 -0.010327648 -0.01593372)
(4.9787968 -0.0046253487 -0.01571072)
(4.9788036 0.0046392601 -0.015711332)
(4.9835884 0.010331838 -0.015934684)
(4.9926053 0.0051977664 -0.016230046)
(4.9977987 -0.01835888 -0.016311609)
(4.9991077 -0.057852973 -0.015682099)
(4.9923155 -0.092246722 -0.013456107)
(4.9760031 -0.091764343 -0.0078652148)
(4.9751571 -0.090819513 -0.018430137)
(4.9914683 -0.092454651 -0.025965531)
(4.9980104 -0.058727948 -0.029979811)
(4.996366 -0.019093122 -0.031653312)
(4.9909039 0.0048264244 -0.031925823)
(4.9815881 0.010208877 -0.031592694)
(4.976659 0.0046207643 -0.031288848)
(4.9766532 -0.0046084387 -0.031285344)
(4.9815752 -0.010206984 -0.031590774)
(4.9908822 -0.004828416 -0.031924091)
(4.9963392 0.019090107 -0.031651895)
(4.9979785 0.05872483 -0.029979037)
(4.9914327 0.092452038 -0.025967056)
(4.9751191 0.090816136 -0.018438309)
(4.9785094 0.092307707 -0.032718365)
(4.9943169 0.092866252 -0.040850197)
(5.0007165 0.059273233 -0.047070834)
(4.999047 0.019649182 -0.050488423)
(4.993635 -0.0045881246 -0.051359118)
(4.9843559 -0.010189842 -0.050966707)
(4.9793927 -0.0046295321 -0.050553089)
(4.9793966 0.0046272391 -0.050559465)
(4.9843679 0.010186175 -0.050970052)
(4.9936556 0.0045839507 -0.051361744)
(4.999073 -0.019653098 -0.05049021)
(5.0007476 -0.059276521 -0.047071983)
(4.9943517 -0.092868055 -0.040850022)
(4.978546 -0.092307709 -0.032714817)
(4.9838595 -0.079048759 -0.042427039)
(5.0015411 -0.087886213 -0.048404654)
(5.0086302 -0.058674231 -0.058165643)
(5.0073904 -0.02015219 -0.064018404)
(5.0023146 0.0041205864 -0.065566229)
(4.9932922 0.009945613 -0.064930944)
(4.9882794 0.0045379367 -0.064323968)
(4.9882777 -0.0045581352 -0.064320023)
(4.9932812 -0.0099571475 -0.064926507)
(5.0022954 -0.0041277719 -0.06556259)
(5.0073655 0.020147252 -0.064016171)
(5.0085999 0.058670691 -0.058164178)
(5.0015072 0.087884567 -0.048403707)
(4.9838236 0.079049264 -0.042426644)
(4.9974201 0.090370523 -0.039219024)
(5.0145929 0.090939064 -0.040028046)
(5.0227101 0.059944344 -0.052664654)
(5.022658 0.021820825 -0.060823924)
(5.0182365 -0.0026365425 -0.062949849)
(5.0097282 -0.0090540039 -0.061612566)
(5.0046797 -0.0042426377 -0.060648296)
(5.0046813 0.0042025696 -0.060641052)
(5.0097382 0.0090323035 -0.061616574)
(5.0182543 0.0026255039 -0.062954371)
(5.0226819 -0.021826521 -0.060826545)
(5.0227395 -0.059947594 -0.052666469)
(5.0146263 -0.090940469 -0.040030045)
(4.9974562 -0.090370257 -0.039223185)
(5.0030307 -0.066669359 -0.013280062)
(5.0264863 -0.08635135 -0.0089008718)
(5.0351046 -0.061607072 -0.023156356)
(5.0354939 -0.023946802 -0.030188979)
(5.0316517 0.00065658154 -0.032434675)
(5.0240843 0.0075399599 -0.030007311)
(5.0190467 0.0036714415 -0.028425298)
(5.0190412 -0.0036919118 -0.028436612)
(5.0240741 -0.0075652802 -0.030005144)
(5.0316352 -0.00066834416 -0.032430848)
(5.0354708 0.023943256 -0.030185819)
(5.0350758 0.061605706 -0.023155052)
(5.0264529 0.086351137 -0.0088979485)
(5.0029932 0.066669352 -0.013273639)
(5.0105548 0.099310169 0.021800688)
(5.0329099 0.097039948 0.032310588)
(5.0404152 0.064509083 0.0087591994)
(5.0403565 0.023939828 0.0061560888)
(5.0359902 -0.0014408431 0.0035001612)
(5.0300117 -0.0084852522 0.0099311193)
(5.025909 -0.0038383457 0.012246811)
(5.0259186 0.0038501998 0.012240545)
(5.030022 0.0084647985 0.0099287122)
(5.0360058 0.0014293871 0.0034975881)
(5.0403787 -0.023941811 0.0061526743)
(5.0404436 -0.064508226 0.0087576616)
(5.0329435 -0.097038902 0.032307563)
(5.0105938 -0.099309794 0.021794401)
(4.9970972 -0.051665309 0.037055729)
(5.0237083 -0.05141992 0.058204276)
(5.0326361 -0.023773442 0.009818885)
(5.0404679 0.0050484581 0.02364342)
(5.0363545 0.01585563 0.013656286)
(5.0315358 0.014747948 0.028237308)
(5.0274304 0.0054337245 0.029885758)
(5.0274249 -0.0054543054 0.029905271)
(5.0315272 -0.014772934 0.02824172)
(5.0363392 -0.015868559 0.013658199)
(5.0404453 -0.005050941 0.023645969)
(5.0326072 0.023775454 0.0098205727)
(5.0236743 0.051422371 0.058206111)
(4.9970578 0.051665855 0.037060238)
(5.0214035 0.056707362 0.06090707)
(5.0291119 0.023857166 0.034332694)
(5.0659306 0.0012032617 0.018115236)
(5.0616352 -0.0045801714 -0.012211837)
(5.0342575 -0.009847917 -0.012468146)
(5.0041591 -0.0076292645 -0.012916399)
(4.9831845 -0.0032031044 -0.0047945478)
(4.9737757 -0.00055243104 -0.0010143845)
(4.9735955 0.0010971672 0.0027322092)
(4.9790562 0.0016435942 0.0042740479)
(4.9863594 0.0014963454 0.0037156266)
(4.9923837 0.0011096721 0.002670886)
(4.9966145 0.00060560462 0.0019250994)
(4.9993767 0.00033416113 0.0014876183)
(5.0012153 0.00018639623 0.0011869366)
(5.002529 0.00010337734 0.0010019988)
(5.0035526 5.5116016e-05 0.00090366799)
(5.0044107 2.1160871e-05 0.00086103527)
(5.0051722 -9.7043844e-06 0.00086489999)
(5.0058969 -2.2753297e-05 0.00090450806)
(5.0066277 -3.5090371e-05 0.00096933781)
(5.0073825 -4.9494569e-05 0.0010571795)
(5.0081751 -6.738333e-05 0.0011669746)
(5.0090203 -8.6408107e-05 0.0012993834)
(5.009933 -0.00010795981 0.0014581016)
(5.0109282 -0.00013354424 0.0016477674)
(5.0120221 -0.00016416232 0.0018746037)
(5.0132337 -0.00020094684 0.0021468051)
(5.0145865 -0.0002458501 0.0024764441)
(5.0161111 -0.00029926865 0.0028768865)
(5.0178498 -0.00036259299 0.0033680476)
(5.0198609 -0.0004373329 0.0039780397)
(5.0222272 -0.00052149589 0.004736555)
(5.0019827 -0.0014920423 0.000452392)
(4.9993886 -0.0012233263 0.00042979393)
(4.9974191 -0.00099839297 0.00040694772)
(4.9959599 -0.00081187687 0.00038431787)
(4.9949128 -0.00065834212 0.00036205712)
(4.9941944 -0.00053261726 0.00034007427)
(4.9937345 -0.00043014081 0.00031844229)
(4.9934751 -0.00034683222 0.00029693832)
(4.9933677 -0.00027963182 0.00027575939)
(4.9933732 -0.00022566235 0.00025543043)
(4.9934596 -0.00018226742 0.00023497446)
(4.9935992 -0.00014779115 0.00021415284)
(4.9937685 -0.00012107653 0.00019341681)
(4.9939464 -0.00010095407 0.00017184367)
(4.9941124 -8.6736539e-05 0.00014862485)
(4.9942446 -7.8703048e-05 0.00012324854)
(4.9943169 -7.7584947e-05 9.4040274e-05)
(4.9942942 -8.4315417e-05 5.7641559e-05)
(4.994116 -9.9437098e-05 -7.5783312e-08)
(4.9937065 -0.00014120775 -5.6991784e-05)
(4.9929461 -0.00020615588 -0.00015260197)
(4.9916803 -0.00029544091 -0.00027611861)
(4.9895765 -0.00048124414 -0.00049586453)
(4.9861072 -0.00076383885 -0.0008136225)
(4.9807312 -0.0011631113 -0.0012138209)
(4.9736846 -0.0013457096 -0.0014430944)
(4.9665858 -0.0011349904 -0.0012509426)
(4.9642785 0.00049386192 0.00019978034)
(4.9699005 0.0018854423 0.0014117529)
(4.9922423 0.0064335086 0.0056422354)
(5.0267504 0.0070367991 0.00552073)
(5.0596894 0.0071374173 0.0041767149)
(5.0642793 -0.0018606578 -0.0072643947)
(5.0183433 -0.012444986 -0.016397486)
(5.0277206 -0.018728914 -0.028324099)
(5.059964 0.00070056709 -0.0089461512)
(5.0534686 0.021441149 0.0037197999)
(5.024527 0.016116916 0.0089930185)
(4.9965604 0.014846798 0.0070808727)
(4.9769798 0.0059538718 0.0029246041)
(4.968151 0.001757371 0.00041884509)
(4.9682247 -0.0017599451 -0.0017231938)
(4.9734799 -0.0031550094 -0.0021239649)
(4.9803055 -0.0029890746 -0.0017504309)
(4.9858306 -0.0020792123 -0.0011109706)
(4.9894939 -0.0013819133 -0.00063477358)
(4.9917539 -0.00088350123 -0.00033711151)
(4.9930649 -0.00059898657 -0.0001658508)
(4.9937867 -0.00041499527 -6.0699043e-05)
(4.9941581 -0.00030275457 1.0899511e-05)
(4.9943096 -0.00025708954 5.75141e-05)
(4.99432 -0.00023878634 9.4115809e-05)
(4.994237 -0.00024472668 0.0001240138)
(4.9940951 -0.00027116692 0.00014972634)
(4.99392 -0.00031610307 0.00017292097)
(4.9937327 -0.00037899488 0.00019483288)
(4.9935527 -0.00046202517 0.00021611196)
(4.9934006 -0.00056874751 0.00023708179)
(4.9932996 -0.00070298528 0.00025829075)
(4.9932759 -0.00086933763 0.00027932378)
(4.9933613 -0.0010760636 0.00030064153)
(4.9935946 -0.0013328009 0.00032313778)
(4.9940227 -0.0016487423 0.00034633674)
(4.9947028 -0.0020364627 0.00037026621)
(4.9957043 -0.0025101564 0.00039502297)
(4.9971099 -0.0030855657 0.0004204594)
(4.9990177 -0.0037798357 0.00044645483)
(5.0015421 -0.0046099921 0.00047309572)
(5.0005675 -0.0078831843 0.00049302562)
(4.9981991 -0.0064575338 0.00046293437)
(4.9964284 -0.0052676188 0.00043391117)
(4.9951413 -0.0042832664 0.00040635195)
(4.9942406 -0.0034738552 0.00037985038)
(4.9936451 -0.0028121172 0.00035437332)
(4.9932874 -0.0022733663 0.00032989384)
(4.9931123 -0.0018360414 0.00030631754)
(4.9930747 -0.0014832928 0.00028304099)
(4.9931378 -0.0011990886 0.00026039488)
(4.9932714 -0.00097022366 0.00023865966)
(4.9934504 -0.00078812037 0.00021713817)
(4.9936534 -0.00064623154 0.00019586545)
(4.9938615 -0.00053820915 0.00017399949)
(4.9940563 -0.00045993563 0.00015045438)
(4.9942185 -0.00041193138 0.00012447871)
(4.9943248 -0.00039685395 9.4152953e-05)
(4.994343 -0.00042123591 5.5614049e-05)
(4.9942405 -0.00049451069 1.6833336e-05)
(4.9939415 -0.00064879496 -6.6265471e-05)
(4.9933213 -0.00091249968 -0.00018375714)
(4.9921672 -0.0013388036 -0.00040283921)
(4.9900784 -0.0019836095 -0.00081597741)
(4.9865403 -0.002912108 -0.0013533066)
(4.981327 -0.0037217169 -0.0021314832)
(4.9749037 -0.0031812978 -0.0028390661)
(4.9685389 -0.00072808864 -0.0025452146)
(4.9660551 0.0028483377 5.7028553e-05)
(4.9720374 0.0083269093 0.0036807824)
(4.9889908 0.015076705 0.0090413506)
(5.0199405 0.019404797 0.01278562)
(5.0539294 0.028672268 0.010107579)
(5.06117 0.0057669469 -0.0063130944)
(5.0342186 -0.0073808687 -0.021299919)
(5.0581156 -0.0013867425 -0.0085727221)
(5.0694524 0.0054019765 -0.0010657902)
(5.0558922 0.02508358 0.016339588)
(5.0174402 0.01859845 0.016540634)
(4.9825665 0.012625163 0.010203633)
(4.9645342 0.0076443788 0.0038199131)
(4.9610796 0.0031932399 -0.0008016894)
(4.9667058 0.00019754555 -0.0036159189)
(4.9753338 -0.0020416156 -0.0035428801)
(4.9824801 -0.0033591725 -0.0025850311)
(4.9875718 -0.0030549334 -0.0015964147)
(4.9907985 -0.0021649789 -0.00088043986)
(4.9926572 -0.0015284434 -0.00046178161)
(4.9936493 -0.0010854778 -0.00020532156)
(4.9941421 -0.00080325641 -7.5580516e-05)