/*--------------------------------*- C++ -*----------------------------------*\
| =========                 |                                                 |
| \\      /  F ield         | OpenFOAM: The Open Source CFD Toolbox           |
|  \\    /   O peration     | Version:  v2012                                 |
|   \\  /    A nd           | Website:  www.openfoam.com                      |
|    \\/     M anipulation  |                                                 |
\*---------------------------------------------------------------------------*/
FoamFile
{
    version     2.0;
    format      ascii;
    class       volScalarField;
    location    "433";
    object      k;
}
// * * * * * * * * * * * * * * * * * * * * * * * * * * * * * * * * * * * * * //

dimensions      [0 2 -2 0 0 0 0];


internalField   nonuniform List<scalar> 
229912
(
0.37305474
0.37305356
0.37417083
0.37415325
0.37416556
0.37415578
0.3741745
0.37416515
0.37417619
0.37417286
0.37417476
0.37417355
0.37417319
0.37417292
0.3741729
0.37417291
0.37417293
0.37417295
0.37417295
0.37417296
0.37417296
0.37417296
0.37417296
0.37417296
0.37417296
0.37417295
0.37417295
0.37417293
0.37417291
0.3741729
0.37417292
0.37417319
0.37417355
0.37417476
0.37417286
0.37417619
0.37416515
0.3741745
0.37415578
0.37416556
0.37415325
0.37417083
0.37416484
0.37418958
0.37418137
0.37419399
0.37418954
0.37419124
0.37418937
0.37418885
0.37418845
0.37418843
0.37418846
0.3741885
0.37418854
0.37418856
0.37418857
0.37418858
0.3741886
0.37418861
0.37418862
0.37418863
0.37418864
0.37418865
0.37418866
0.37418867
0.37418868
0.37418869
0.3741887
0.37418871
0.37418872
0.37418873
0.37418873
0.37418874
0.37418875
0.37418875
0.37418876
0.37418876
0.37418877
0.37418877
0.37418878
0.37418878
0.37418878
0.37418879
0.37418879
0.37418879
0.37418879
0.37418879
0.37418879
0.37418879
0.37418879
0.37418879
0.37418879
0.37418879
0.37418879
0.37418878
0.37418878
0.37418878
0.37418877
0.37418877
0.37418876
0.37418876
0.37418875
0.37418874
0.37418874
0.37418873
0.37418872
0.37418871
0.3741887
0.37418869
0.37418868
0.37418867
0.37418866
0.37418865
0.37418863
0.37418861
0.37418857
0.37418853
0.3741885
0.37418852
0.37418892
0.37418944
0.37419131
0.37418961
0.37419406
0.37418144
0.37418965
0.37416491
0.3741709
0.37415333
0.37416565
0.37415592
0.37417472
0.37416548
0.37417667
0.37417352
0.37417563
0.37417466
0.37417457
0.37417458
0.37417485
0.37417517
0.3741755
0.37417582
0.37417612
0.37417641
0.37417666
0.37417688
0.37417705
0.37417718
0.37417725
0.37417725
0.37417718
0.37417704
0.37417681
0.37417654
0.37417624
0.37417614
0.37417609
0.37417688
0.37417457
0.37417749
0.37416611
0.37417517
0.37415626
0.3741659
0.37415354
0.37417111
0.37416515
0.37418992
0.37418178
0.37419447
0.37419011
0.3741919
0.37419013
0.37418972
0.37418942
0.3741895
0.37418962
0.37418976
0.37418988
0.37418998
0.37419006
0.37419013
0.37419019
0.37419024
0.37419029
0.37419032
0.37419035
0.3741904
0.37419049
0.37419065
0.37419094
0.3741914
0.37419203
0.37419283
0.37419378
0.37419483
0.37419594
0.37419707
0.37419817
0.37419919
0.37420002
0.37420021
0.3742002
0.37420016
0.37420012
0.37420008
0.37420004
0.3742
0.37419996
0.37419992
0.37419989
0.37419985
0.37419982
0.37419978
0.37419974
0.37419971
0.37419965
0.37419939
0.37419848
0.37419739
0.37419622
0.37419503
0.37419385
0.37419273
0.37419172
0.37419086
0.37419018
0.37418969
0.37418936
0.37418916
0.37418904
0.37418898
0.37418893
0.3741889
0.37418886
0.37418883
0.3741888
0.37418877
0.37418873
0.37418869
0.37418864
0.37418857
0.37418853
0.37418853
0.37418892
0.37418942
0.37419128
0.37418957
0.37419401
0.37418138
0.37418959
0.37416484
0.37305677
0.37307901
0.37307872
0.37309124
0.3730902
0.37309159
0.37308981
0.3730887
0.37308789
0.37308761
0.37308754
0.37308757
0.37308764
0.37308772
0.37308779
0.37308787
0.37308794
0.37308802
0.3730881
0.37308818
0.37308828
0.3730884
0.37308857
0.37308884
0.37308925
0.37308982
0.37309058
0.37309153
0.37309263
0.37309381
0.37309507
0.37309634
0.37309755
0.37309865
0.37309947
0.37309981
0.37309994
0.37310003
0.37310012
0.37310021
0.37310029
0.37310039
0.37310047
0.37310056
0.37310067
0.37310076
0.37310086
0.37310096
0.37310105
0.37310115
0.3731012
0.37310104
0.37310038
0.37309947
0.37309844
0.37309733
0.37309623
0.3730952
0.37309425
0.37309345
0.37309282
0.37309236
0.37309207
0.3730919
0.37309179
0.37309172
0.37309169
0.37309162
0.37309154
0.37309144
0.37309133
0.37309119
0.37309103
0.37309084
0.37309065
0.37309047
0.37309038
0.37309049
0.37309112
0.37309205
0.37309364
0.37309208
0.37309296
0.37308031
0.37308049
0.3730582
0.37305495
0.37303646
0.37186171
0.37058918
0.36927286
0.36791837
0.36656618
0.36522657
0.36391086
0.36262386
0.36137042
0.36015718
0.35899412
0.35789575
0.35688316
0.35598721
0.35525304
0.35474684
0.35454987
0.35471755
0.35519272
0.3560821
0.3575233
0.35973863
0.362992
0.36781348
0.37478507
0.29137367
0.29219322
0.29302063
0.29385592
0.29469906
0.29554989
0.29640823
0.29727376
0.2981461
0.29902476
0.29990916
0.30079862
0.30169241
0.30258967
0.30348948
0.30439089
0.30529294
0.3061947
0.30709536
0.30799423
0.30889083
0.30978491
0.31067655
0.31156614
0.31245441
0.3133424
0.31423145
0.31512311
0.31601907
0.31692109
0.31783088
0.31875002
0.31967993
0.32062178
0.3215765
0.32254479
0.32352706
0.32452354
0.32553427
0.3265591
0.3275978
0.32865006
0.32971548
0.33079366
0.33188416
0.3329866
0.33410057
0.33522569
0.33636164
0.33750811
0.33866484
0.33983158
0.34100814
0.34219434
0.34339005
0.34459514
0.34580952
0.34703313
0.3482659
0.34950781
0.35075883
0.35201896
0.35328823
0.35456662
0.35585419
0.357151
0.35845716
0.35977287
0.36109849
0.36243462
0.3637821
0.36514138
0.36651115
0.36788521
0.36925109
0.37058385
0.37186014
0.37186387
0.37187938
0.37188464
0.37189474
0.37189634
0.37189714
0.37189556
0.37189404
0.37189289
0.37189232
0.37189209
0.37189207
0.37189213
0.37189223
0.37189235
0.37189247
0.3718926
0.37189272
0.37189285
0.37189299
0.37189314
0.37189331
0.37189356
0.3718939
0.3718944
0.37189507
0.37189593
0.37189697
0.37189817
0.37189948
0.37190083
0.37190218
0.37190347
0.37190458
0.37190541
0.37190582
0.37190603
0.37190618
0.37190634
0.37190649
0.37190664
0.37190678
0.37190694
0.37190709
0.37190726
0.37190743
0.3719076
0.37190776
0.37190794
0.37190809
0.37190819
0.37190808
0.37190756
0.37190675
0.37190577
0.37190471
0.37190363
0.3719026
0.37190168
0.37190088
0.37190026
0.37189983
0.37189954
0.37189938
0.37189929
0.37189926
0.37189923
0.37189918
0.3718991
0.371899
0.37189887
0.3718987
0.37189851
0.3718983
0.37189809
0.37189795
0.37189799
0.37189835
0.37189927
0.37190057
0.37190191
0.37190089
0.37189909
0.37188883
0.37188344
0.37186785
0.37186409
0.37059285
0.36926894
0.3679173
0.36656473
0.36522601
0.36391033
0.36262302
0.36136909
0.3601552
0.35899119
0.35789139
0.35687659
0.35597727
0.35523795
0.35472423
0.3545163
0.35467306
0.35513379
0.35600385
0.35742502
0.35962162
0.36294553
0.36808661
0.37643742
0.37576078
0.36758241
0.36257193
0.35933374
0.35721046
0.35584275
0.35501237
0.35458131
0.35444774
0.35467809
0.35520741
0.35595723
0.35686344
0.35788278
0.35898557
0.3601515
0.36136654
0.36262105
0.36390838
0.36522363
0.36656172
0.36791448
0.36926701
0.37059498
0.37060498
0.36927238
0.36791691
0.36656254
0.36522367
0.36390788
0.36261976
0.36136394
0.3601468
0.35897769
0.35787015
0.35684371
0.35592683
0.35516081
0.35460684
0.35434104
0.3544326
0.35482224
0.35559224
0.35687078
0.35885902
0.36187952
0.3665028
0.37369074
0.37505726
0.36760914
0.36277005
0.35953187
0.35736892
0.35596479
0.35510508
0.35465165
0.35450071
0.3547135
0.35523039
0.35597174
0.35687234
0.35788792
0.35898818
0.36015239
0.36136628
0.36262004
0.36390699
0.36522213
0.36656014
0.36791171
0.3692623
0.37058484
0.3718557
0.37304687
0.37304191
0.37305416
0.37305048
0.37306133
0.37306217
0.3730653
0.37306555
0.3730659
0.37306626
0.37306679
0.37306731
0.37306773
0.37306802
0.37306815
0.37306811
0.37306795
0.37306764
0.37306722
0.37306671
0.37306612
0.37306546
0.37306476
0.37306404
0.37306333
0.37306268
0.37306217
0.37306197
0.3730619
0.37306203
0.37305934
0.37305895
0.37304852
0.37305256
0.37304058
0.37304574
0.37303541
0.37185873
0.37058234
0.36925925
0.36789369
0.36652464
0.36516028
0.36380926
0.36247263
0.36115007
0.35984101
0.35854528
0.35726296
0.3559943
0.35473962
0.3534993
0.35227372
0.3510633
0.3498684
0.34868938
0.34752656
0.34638018
0.34525043
0.34413738
0.343041
0.34196113
0.34089749
0.33984963
0.33881696
0.33779873
0.33679405
0.33580188
0.33482108
0.33385042
0.33288856
0.33193419
0.33194617
0.33289939
0.33386014
0.33482974
0.33580953
0.33680075
0.33780456
0.33882198
0.3398539
0.34090109
0.34196412
0.34304345
0.34413935
0.34525198
0.34638136
0.3475274
0.34868994
0.34986869
0.35106333
0.35227352
0.35349886
0.35473894
0.35599334
0.3572617
0.35854367
0.35983903
0.36114769
0.36246985
0.36380595
0.36515607
0.3665186
0.36788692
0.3692485
0.37057783
0.37185257
0.37184485
0.37056839
0.36923592
0.36787506
0.36650799
0.36514751
0.3637992
0.36246453
0.36114346
0.35983566
0.35854102
0.35725965
0.35599184
0.35473793
0.35349831
0.35227343
0.3510637
0.34986956
0.34869137
0.34752944
0.34638409
0.3452555
0.34414377
0.34304889
0.34197071
0.34090898
0.33986325
0.33883292
0.33781725
0.33681533
0.33582616
0.33484854
0.33388124
0.33292291
0.3319722
0.33201543
0.33296195
0.33391625
0.33487974
0.33585374
0.33683955
0.33783833
0.33885113
0.33987883
0.34092219
0.34198181
0.3430581
0.34415133
0.34526161
0.34638894
0.34753321
0.34869419
0.34987157
0.35106498
0.35227405
0.35349834
0.35473738
0.35599072
0.35725795
0.35853868
0.3598326
0.36113957
0.36245967
0.36379323
0.36514044
0.36650019
0.36786746
0.36922995
0.37056614
0.37184826
0.3718475
0.37056578
0.36922896
0.36786574
0.36649803
0.36513823
0.36379125
0.36245806
0.36113837
0.3598318
0.35853829
0.35725798
0.35599119
0.35473834
0.35349986
0.35227623
0.35106792
0.3498754
0.3486991
0.3475394
0.34639664
0.34527107
0.34416285
0.343072
0.34199843
0.34094189
0.33990197
0.3388781
0.33786951
0.33687532
0.33589446
0.33492575
0.33396789
0.33301951
0.33207917
0.33216612
0.33309804
0.33403837
0.33498858
0.33595009
0.33692422
0.33791219
0.33891506
0.33993376
0.34096902
0.34202141
0.34309134
0.34417901
0.34528451
0.34640775
0.34754856
0.34870663
0.3498816
0.35107304
0.35228047
0.35350341
0.35474136
0.35599381
0.3572603
0.3585404
0.35983378
0.36114027
0.36245994
0.36379318
0.36514033
0.36650052
0.36786892
0.36923322
0.37057157
0.3718553
0.37185831
0.37057537
0.36923708
0.36787268
0.3665042
0.365144
0.36379685
0.36246364
0.361144
0.35983758
0.35854432
0.35726442
0.35599824
0.35474622
0.35350888
0.35228674
0.35108035
0.34989023
0.34871691
0.34756088
0.34642254
0.34530225
0.34420023
0.34311661
0.34205136
0.34100429
0.33997502
0.338963
0.33796749
0.33698756
0.33602212
0.33506993
0.33412961
0.3331997
0.33227866
0.33241947
0.33332687
0.33424373
0.33517166
0.33611219
0.33706674
0.33803659
0.33902288
0.34002654
0.34104832
0.34208875
0.34314817
0.34422674
0.34532443
0.34644106
0.34757633
0.34872984
0.3499011
0.35108956
0.35229465
0.35351577
0.35475233
0.35600376
0.35726949
0.35854906
0.35984206
0.36114825
0.36246767
0.36380065
0.36514754
0.36650748
0.36787576
0.36924006
0.37057835
0.37186122
0.37186199
0.37057966
0.36924175
0.36787781
0.36650996
0.36515045
0.363804
0.36247142
0.36115239
0.35984659
0.35855403
0.35727497
0.35600986
0.35475924
0.35352369
0.35230387
0.35110042
0.349914
0.34874528
0.34759488
0.34646338
0.34535125
0.34425888
0.34318652
0.34213426
0.341102
0.34008944
0.33909606
0.33812112
0.33716367
0.33622255
0.3352964
0.33438375
0.33348297
0.33367278
0.33455388
0.33544785
0.33635639
0.33728111
0.33822339
0.33918445
0.34016527
0.34116658
0.34218888
0.34323242
0.34429722
0.34538313
0.34648978
0.34761671
0.34876332
0.34992894
0.35111285
0.35231429
0.35353252
0.35476679
0.35601641
0.3572807
0.35855909
0.35985109
0.36115638
0.36247493
0.36380703
0.36515299
0.36651201
0.3678794
0.36924292
0.37058046
0.3718624
0.37186289
0.37058129
0.36924414
0.36788103
0.36651408
0.36515554
0.36381006
0.36247846
0.36116043
0.35985571
0.35856438
0.35728678
0.35602346
0.35477506
0.35354232
0.35232602
0.35112701
0.34994612
0.34878423
0.34764219
0.34652079
0.34542076
0.34434268
0.34328703
0.34225408
0.34124389
0.34025626
0.33929073
0.33834658
0.3374228
0.33651812
0.33563105
0.3347599
0.3339028
0.33418163
0.33500939
0.33585268
0.33671351
0.33759372
0.33849492
0.33941845
0.34036535
0.34133633
0.34233183
0.34335194
0.34439651
0.34546513
0.34655719
0.34767194
0.3488085
0.34996591
0.35114318
0.3523393
0.35355329
0.35478422
0.35603119
0.35729338
0.35857006
0.35986065
0.36116474
0.36248222
0.36381332
0.36515833
0.36651642
0.36788293
0.36924563
0.37058241
0.37186367
0.37186466
0.37058377
0.3692474
0.36788512
0.36651904
0.36516141
0.36381688
0.3624863
0.36116941
0.35986601
0.35857626
0.35730062
0.35603974
0.35479446
0.35356568
0.35235441
0.35116173
0.34998878
0.34883673
0.34770675
0.34660001
0.34551757
0.34446038
0.34342924
0.34242471
0.34144711
0.34049642
0.33957228
0.33867398
0.33780043
0.3369502
0.33612154
0.33531241
0.33452058
0.33493452
0.33568213
0.33644918
0.33723822
0.33805152
0.33889103
0.33975832
0.34065452
0.34158035
0.34253608
0.3435216
0.34453642
0.34557974
0.34665055
0.34774765
0.3488697
0.35001533
0.35118312
0.35237169
0.35357971
0.35480596
0.35604927
0.35730859
0.35858303
0.35987183
0.36117445
0.3624907
0.36382071
0.36516473
0.3665219
0.36788751
0.36924934
0.37058528
0.37186576
0.3718669
0.37058685
0.36925137
0.36789
0.36652487
0.36516821
0.36382474
0.36249534
0.36117982
0.35987808
0.3585904
0.35731737
0.35605987
0.35481891
0.35359568
0.35239153
0.35120788
0.35004629
0.3489084
0.3477959
0.34671049
0.34565381
0.34462737
0.34363251
0.3426703
0.34174146
0.34084628
0.33998459
0.33915568
0.33835835
0.33759084
0.33685093
0.336136
0.336697
0.33734702
0.33802561
0.33873594
0.33948061
0.34026163
0.34108035
0.34193745
0.34283299
0.34376643
0.34473674
0.34574248
0.34678191
0.3478531
0.348954
0.35008254
0.35123666
0.35241439
0.35361391
0.35483352
0.35607167
0.35732702
0.35859837
0.35988476
0.36118547
0.36250016
0.36382887
0.36517175
0.36652787
0.3678925
0.36925339
0.37058841
0.37186802
0.37186907
0.3705899
0.36925533
0.36789493
0.36653081
0.36517526
0.36383303
0.3625051
0.36119135
0.35989183
0.35860698
0.35733762
0.35608486
0.35485005
0.35363479
0.35244086
0.35127027
0.3501252
0.34900802
0.34792125
0.34686746
0.34584923
0.34486903
0.34392915
0.3430315
0.34217756
0.34136817
0.34060343
0.33988265
0.33920426
0.33856584
0.33796416
0.33739526
0.33826928
0.33873698
0.33924203
0.33978963
0.34038407
0.34102848
0.34172482
0.3424739
0.34327543
0.34412815
0.34503004
0.34597849
0.3469705
0.34800287
0.34907233
0.35017564
0.35130972
0.35247166
0.35365883
0.35486886
0.35609963
0.3573493
0.35861629
0.35989933
0.36119744
0.36251009
0.36383716
0.36517867
0.36653362
0.36789721
0.36925714
0.37059127
0.37187003
0.37187088
0.37059248
0.36925876
0.36789929
0.36653624
0.36518193
0.36384119
0.36251512
0.36120374
0.35990727
0.35862639
0.35736223
0.35611628
0.35489037
0.35368666
0.35250766
0.35135623
0.35023558
0.34914925
0.34810112
0.34709526
0.34613589
0.3452272
0.34437316
0.34357731
0.34284242
0.34217026
0.34156123
0.34101417
0.34052633
0.34009324
0.33970885
0.33936595
0.34092943
0.34116623
0.34145686
0.3418103
0.34223339
0.34273057
0.34330403
0.34395352
0.34467677
0.34547005
0.34632857
0.34724703
0.34821988
0.34924163
0.35030706
0.3514113
0.35254992
0.35371901
0.35491508
0.35613515
0.35737664
0.35863742
0.35991573
0.36121025
0.36252016
0.36384511
0.36518497
0.3665386
0.36790111
0.36926013
0.37059348
0.37187157
0.37187208
0.37059426
0.36926124
0.36790264
0.36654068
0.36518778
0.36384888
0.36252522
0.36121703
0.35992479
0.35864952
0.35739279
0.35615663
0.35494361
0.35375676
0.3525997
0.35147668
0.35039257
0.34935292
0.34836394
0.34743242
0.34656557
0.34577078
0.34505522
0.34442528
0.34388575
0.34343904
0.34308435
0.342817
0.34262929
0.34251016
0.34244577
0.34426954
0.344151
0.34408132
0.34407832
0.34415832
0.34433535
0.3446211
0.34501946
0.34552921
0.34614487
0.34685818
0.34765957
0.34853912
0.34948723
0.350495
0.35155441
0.35265841
0.35380089
0.35497662
0.3561812
0.35741097
0.3586629
0.35993457
0.36122412
0.36253031
0.3638525
0.36519032
0.36654244
0.36790383
0.36926202
0.37059477
0.3718724
0.37187248
0.37059498
0.36926247
0.36790466
0.36654385
0.36519259
0.36385598
0.36253547
0.36123159
0.35994519
0.35867777
0.35743153
0.35620935
0.35501486
0.35385249
0.35272764
0.3516468
0.3506177
0.3496494
0.34875237
0.34793842
0.3472204
0.34661153
0.34612428
0.34576829
0.34554812
0.34545785
0.34548431
0.34560392
0.3458017
0.34605976
0.34817484
0.34772532
0.34734468
0.34704035
0.3468113
0.34669309
0.34670467
0.3468698
0.34719376
0.34766909
0.34828086
0.34901187
0.34984496
0.35076439
0.35175633
0.35280904
0.35391267
0.35505907
0.35624158
0.35745479
0.35869435
0.35995681
0.36123955
0.36254076
0.36385934
0.36519459
0.36654492
0.36790512
0.36926257
0.3705949
0.37187234
0.37187197
0.37059453
0.36926235
0.36790525
0.36654569
0.36519637
0.36386264
0.36254624
0.36124809
0.35996955
0.35871283
0.35748106
0.35627835
0.35510996
0.35398252
0.35290431
0.3518856
0.35093906
0.35008005
0.3493269
0.34870061
0.34822358
0.34791663
0.34779094
0.34783909
0.3480389
0.34834491
0.34876158
0.34928799
0.34991295
0.35154042
0.35072785
0.35005111
0.34951901
0.34913437
0.34888474
0.3487968
0.34890331
0.34921238
0.34970752
0.35036116
0.35114577
0.3520371
0.35301495
0.35406296
0.35516809
0.35632
0.35751055
0.35873337
0.35998352
0.36125727
0.36255198
0.36386594
0.36519799
0.3665462
0.3679051
0.36926185
0.37059392
0.3718714
0.37187071
0.37059315
0.36926116
0.36790474
0.36654655
0.36519952
0.3638693
0.36255802
0.36126714
0.35999874
0.35875599
0.35754333
0.35636668
0.35523377
0.35415461
0.35314213
0.35221296
0.35138829
0.35069459
0.35016361
0.34982991
0.349718
0.34982358
0.35010446
0.35055306
0.3511848
0.35200362
0.35300854
0.35419023
0.35569707
0.3542621
0.35307572
0.35213598
0.35143075
0.35094389
0.3506531
0.35055765
0.35070346
0.35108566
0.35166956
0.35241461
0.35328642
0.35425757
0.35530691
0.35641825
0.35757925
0.35878057
0.36001512
0.36127763
0.36256434
0.36387271
0.36520099
0.36654678
0.36790428
0.36926038
0.37059231
0.37186999
0.37186934
0.37059147
0.36925952
0.3679037
0.36654688
0.36520234
0.36387608
0.36257077
0.36128854
0.36003238
0.35880674
0.35761786
0.35647415
0.35538693
0.3543713
0.35344745
0.35264227
0.35199093
0.35153754
0.35132764
0.3513802
0.35165518
0.35214714
0.35288935
0.35391221
0.35524562
0.3569132
0.35892319
0.36287461
0.3600724
0.35776163
0.35591808
0.35449624
0.35344411
0.35271083
0.3522518
0.3520222
0.35204711
0.35235082
0.35289423
0.35362358
0.35449431
0.3554726
0.35653343
0.35765838
0.35883391
0.36005004
0.36129947
0.36257701
0.36387914
0.36520332
0.36654663
0.3679028
0.36925839
0.3705904
0.37186858
0.37186732
0.37058863
0.36925649
0.36790113
0.36654562
0.36520357
0.3638815
0.36258266
0.36130997
0.36006752
0.35886131
0.35769978
0.35659465
0.35556199
0.35462404
0.35381148
0.35316619
0.35274404
0.35260161
0.35275505
0.35314184
0.35381749
0.35483699
0.35626983
0.35819802
0.36071378
0.36390769
0.36868805
0.36422624
0.36080176
0.35822438
0.35632063
0.35496047
0.35403591
0.35346208
0.35317262
0.35315653
0.35345067
0.35400561
0.35475661
0.35565239
0.35665596
0.35774083
0.35888814
0.36008432
0.36131971
0.36258748
0.36388296
0.36520282
0.3665435
0.36789821
0.36925311
0.37058504
0.37186382
0.37186019
0.37058057
0.36924876
0.36789444
0.36654072
0.36520156
0.36388397
0.36259182
0.36132884
0.36010026
0.35891373
0.35778018
0.35671504
0.3557401
0.35488635
0.35419745
0.35373485
0.3535677
0.35372557
0.35415207
0.35492143
0.35612262
0.35787954
0.36036106
0.36378729
0.36849061
0.37377554
0.3671615
0.36262804
0.35945114
0.35724709
0.35574943
0.35477783
0.35420732
0.35394653
0.35399941
0.35437581
0.35500583
0.35582045
0.35676908
0.35781634
0.35893756
0.36011551
0.36133808
0.36259683
0.36388599
0.36520142
0.3665389
0.36789114
0.36924399
0.37057415
0.37185181
0.37185205
0.37057394
0.36924451
0.3678927
0.3665415
0.36520509
0.36389102
0.36260384
0.36134811
0.36013009
0.35895886
0.35784755
0.35681497
0.35588831
0.35510692
0.35452811
0.35422582
0.35426895
0.3546139
0.3553106
0.3564699
0.35825532
0.36091778
0.36484102
0.37078194
0.36469372
0.36064595
0.35788564
0.35601247
0.35477366
0.35400249
0.35358963
0.35345103
0.35365108
0.35414114
0.35485115
0.35572055
0.35670695
0.35778057
0.35892057
0.3601122
0.36134501
0.36261169
0.36390727
0.36522823
0.36657094
0.36792867
0.36928746
0.37062295
0.37062249
0.37062001
0.37061171
0.36927853
0.3679219
0.36656633
0.36522633
0.36390931
0.36261961
0.36136158
0.36014129
0.35896766
0.35785359
0.35681758
0.35588643
0.35509889
0.35451188
0.35419859
0.35422962
0.35456875
0.35526171
0.35642529
0.35823647
0.36097332
0.36509314
0.37139992
0.37385731
0.36662822
0.36208336
0.35904175
0.35702093
0.35571148
0.3549166
0.35450905
0.35439522
0.35464207
0.35518243
0.35593919
0.35684977
0.35787182
0.35897621
0.36014296
0.36135823
0.36261245
0.36389904
0.36521308
0.3665495
0.36790008
0.36925006
0.37057574
0.37184826
0.37185335
0.37185459
0.37185837
0.37186653
0.37187187
0.37187509
0.37187627
0.37187677
0.37187722
0.37187778
0.37187838
0.3718789
0.37187924
0.37187938
0.37187929
0.37187898
0.37187847
0.37187778
0.37187695
0.37187598
0.37187493
0.37187383
0.37187272
0.37187167
0.37187078
0.37187015
0.37186986
0.3718697
0.37186901
0.37186637
0.37186165
0.37185408
0.37185079
0.37184994
0.37185559
0.37186109
0.3718648
0.37188029
0.37188552
0.37189558
0.37189713
0.37189788
0.37189625
0.37189466
0.37189346
0.37189281
0.3718925
0.3718924
0.37189238
0.37189239
0.37189241
0.37189243
0.37189245
0.37189248
0.3718925
0.37189252
0.37189255
0.37189256
0.37189258
0.37189259
0.3718926
0.37189261
0.37189262
0.37189263
0.37189264
0.37189265
0.37189265
0.37189264
0.37189265
0.37189265
0.37189264
0.37189264
0.37189263
0.37189263
0.37189262
0.37189261
0.3718926
0.37189259
0.37189257
0.37189255
0.37189254
0.37189252
0.3718925
0.37189249
0.37189247
0.37189244
0.37189242
0.37189239
0.37189236
0.37189234
0.3718923
0.37189227
0.37189225
0.37189221
0.37189218
0.37189216
0.37189211
0.37189207
0.37189203
0.37189199
0.37189195
0.3718919
0.37189186
0.37189182
0.37189177
0.37189173
0.37189169
0.37189164
0.3718916
0.37189158
0.37189158
0.37189167
0.37189196
0.3718926
0.3718938
0.37189538
0.371897
0.37189624
0.37189468
0.37188461
0.37187937
0.37186388
0.37186016
0.3718578
0.37303508
0.37305356
0.37305677
0.373079
0.37307869
0.3730912
0.37309013
0.3730915
0.37308969
0.37308854
0.3730877
0.37308738
0.37308727
0.37308726
0.37308729
0.37308732
0.37308734
0.37308736
0.3730874
0.37308742
0.37308745
0.37308748
0.3730875
0.37308752
0.37308756
0.37308757
0.3730876
0.37308763
0.37308765
0.37308767
0.37308769
0.37308771
0.37308773
0.37308774
0.37308775
0.37308778
0.37308779
0.3730878
0.37308782
0.37308783
0.37308783
0.37308785
0.37308786
0.37308786
0.37308788
0.37308788
0.37308788
0.37308789
0.37308789
0.37308789
0.3730879
0.3730879
0.37308789
0.37308789
0.37308789
0.37308789
0.37308788
0.37308788
0.37308787
0.37308786
0.37308785
0.37308784
0.37308784
0.37308782
0.37308781
0.37308779
0.37308777
0.37308775
0.37308773
0.37308772
0.3730877
0.37308767
0.37308765
0.37308763
0.37308762
0.37308759
0.37308756
0.37308757
0.37308769
0.37308801
0.37308886
0.37309
0.37309181
0.37309045
0.37309152
0.37307902
0.37307932
0.3730571
0.3730539
0.37305512
0.37417014
0.37417476
0.37418824
0.37419206
0.37419919
0.374199
0.37419892
0.37419742
0.37419644
0.37419581
0.37419556
0.37419547
0.37419546
0.37419547
0.37419548
0.3741955
0.37419551
0.37419552
0.37419553
0.37419554
0.37419554
0.37419556
0.37419556
0.37419557
0.37419558
0.37419559
0.3741956
0.3741956
0.37419561
0.37419561
0.37419561
0.37419562
0.37419563
0.37419562
0.37419563
0.37419563
0.37419563
0.37419563
0.37419563
0.37419564
0.37419563
0.37419563
0.37419563
0.37419563
0.37419563
0.37419563
0.37419562
0.37419562
0.37419561
0.37419561
0.37419561
0.37419561
0.3741956
0.37419558
0.37419559
0.37419558
0.37419557
0.37419556
0.37419555
0.37419555
0.37419555
0.37419553
0.37419552
0.37419551
0.3741955
0.37419549
0.37419548
0.37419547
0.37419546
0.37419545
0.37419543
0.37419542
0.37419541
0.37419539
0.37419538
0.37419537
0.37419538
0.37419547
0.37419572
0.37419635
0.37419734
0.37419883
0.37419891
0.3741991
0.37419197
0.37418815
0.37417467
0.37417005
0.37416875
0.37417912
0.37419074
0.37420012
0.37420621
0.37420773
0.37420687
0.37420525
0.37420389
0.37420305
0.37420262
0.37420244
0.37420238
0.37420237
0.37420236
0.37420238
0.3742024
0.37420242
0.37420242
0.37420243
0.37420244
0.37420245
0.37420246
0.37420248
0.37420249
0.37420249
0.37420252
0.37420252
0.37420252
0.37420253
0.37420255
0.37420255
0.37420256
0.37420256
0.37420256
0.37420258
0.3742026
0.37420259
0.37420259
0.37420258
0.3742026
0.37420261
0.37420261
0.37420261
0.37420261
0.37420262
0.37420262
0.37420261
0.37420262
0.37420262
0.37420262
0.37420262
0.37420262
0.37420262
0.37420261
0.37420262
0.37420261
0.37420261
0.3742026
0.37420259
0.37420259
0.37420259
0.37420259
0.37420259
0.37420257
0.37420256
0.37420256
0.37420254
0.37420254
0.37420254
0.37420252
0.37420251
0.3742025
0.37420248
0.37420249
0.37420251
0.37420257
0.37420275
0.37420318
0.37420402
0.37420538
0.374207
0.37420786
0.37420634
0.37420025
0.37419088
0.37417926
0.37416889
0.37417526
0.37418452
0.37419769
0.37420934
0.37421608
0.37421773
0.37421651
0.37421457
0.37421298
0.37421199
0.37421148
0.37421125
0.37421116
0.37421114
0.37421113
0.37421114
0.37421114
0.37421115
0.37421116
0.37421117
0.37421117
0.37421118
0.37421118
0.37421119
0.3742112
0.3742112
0.3742112
0.37421121
0.3742112
0.37421121
0.37421121
0.37421121
0.37421121
0.37421121
0.37421121
0.37421122
0.37421121
0.37421121
0.37421121
0.37421122
0.37421121
0.37421121
0.3742112
0.3742112
0.3742112
0.3742112
0.37421119
0.37421119
0.37421117
0.37421117
0.37421117
0.37421117
0.37421116
0.37421115
0.37421114
0.37421114
0.37421113
0.37421113
0.3742111
0.3742111
0.37421109
0.37421109
0.37421108
0.37421106
0.37421105
0.37421104
0.37421103
0.37421102
0.374211
0.374211
0.37421099
0.37421097
0.37421096
0.37421095
0.37421095
0.37421097
0.37421106
0.37421129
0.3742118
0.37421278
0.37421437
0.37421631
0.37421753
0.37421588
0.37420913
0.37419748
0.3741843
0.37417504
0.37417696
0.37419082
0.37420616
0.37421909
0.37422609
0.37422747
0.37422585
0.3742236
0.37422185
0.3742208
0.37422026
0.37422002
0.37421994
0.37421991
0.37421991
0.37421992
0.37421993
0.37421994
0.37421995
0.37421997
0.37421998
0.37421999
0.37422
0.37422001
0.37422002
0.37422004
0.37422005
0.37422005
0.37422006
0.37422007
0.37422009
0.3742201
0.3742201
0.37422011
0.37422011
0.37422012
0.37422013
0.37422014
0.37422014
0.37422015
0.37422016
0.37422017
0.37422017
0.37422017
0.37422017
0.37422018
0.37422019
0.37422019
0.3742202
0.3742202
0.3742202
0.3742202
0.3742202
0.37422021
0.37422021
0.37422021
0.37422021
0.37422021
0.37422021
0.37422021
0.37422021
0.37422021
0.37422021
0.37422021
0.37422021
0.3742202
0.3742202
0.3742202
0.3742202
0.37422019
0.37422018
0.37422018
0.37422018
0.37422017
0.37422018
0.37422021
0.37422031
0.37422055
0.37422109
0.37422215
0.3742239
0.37422615
0.37422777
0.3742264
0.3742194
0.37420648
0.37419115
0.37417729
0.3741837
0.3741974
0.37421373
0.37422707
0.37423389
0.37423485
0.37423283
0.37423033
0.37422846
0.37422735
0.3742268
0.37422656
0.37422647
0.37422644
0.37422643
0.37422643
0.37422643
0.37422643
0.37422643
0.37422643
0.37422643
0.37422643
0.37422643
0.37422643
0.37422643
0.37422643
0.37422643
0.37422642
0.37422642
0.37422642
0.37422641
0.37422641
0.37422641
0.3742264
0.3742264
0.37422639
0.37422639
0.37422638
0.37422638
0.37422637
0.37422637
0.37422636
0.37422635
0.37422635
0.37422634
0.37422634
0.37422633
0.37422633
0.37422632
0.37422631
0.3742263
0.37422629
0.37422629
0.37422627
0.37422627
0.37422626
0.37422625
0.37422624
0.37422623
0.37422622
0.37422621
0.3742262
0.37422619
0.37422618
0.37422616
0.37422615
0.37422614
0.37422613
0.37422612
0.3742261
0.37422609
0.37422608
0.37422607
0.37422606
0.37422606
0.37422608
0.37422616
0.3742264
0.37422694
0.37422803
0.3742299
0.3742324
0.37423442
0.37423346
0.37422662
0.37421327
0.37419693
0.37418322
0.37418447
0.37420001
0.37421677
0.37423004
0.37423655
0.37423713
0.37423482
0.37423213
0.37423018
0.37422906
0.37422852
0.37422829
0.37422822
0.3742282
0.3742282
0.37422821
0.37422822
0.37422823
0.37422825
0.37422826
0.37422827
0.37422829
0.3742283
0.37422831
0.37422832
0.37422834
0.37422835
0.37422836
0.37422837
0.37422838
0.37422839
0.37422841
0.37422842
0.37422842
0.37422843
0.37422845
0.37422845
0.37422846
0.37422847
0.37422848
0.37422849
0.3742285
0.37422851
0.37422852
0.37422852
0.37422853
0.37422854
0.37422855
0.37422856
0.37422857
0.37422857
0.37422858
0.37422859
0.3742286
0.37422861
0.37422861
0.37422862
0.37422862
0.37422863
0.37422864
0.37422864
0.37422865
0.37422866
0.37422866
0.37422867
0.37422867
0.37422868
0.37422868
0.37422868
0.37422869
0.37422869
0.3742287
0.3742287
0.3742287
0.37422871
0.37422875
0.37422884
0.37422907
0.37422963
0.37423075
0.37423271
0.3742354
0.37423772
0.37423715
0.37423065
0.3742174
0.37420066
0.37418513
0.37418618
0.37420149
0.37421817
0.37423119
0.37423739
0.37423769
0.37423517
0.37423237
0.37423036
0.37422922
0.37422867
0.37422844
0.37422835
0.37422831
0.3742283
0.37422829
0.37422828
0.37422828
0.37422826
0.37422825
0.37422825
0.37422824
0.37422823
0.37422822
0.37422821
0.3742282
0.37422819
0.37422818
0.37422817
0.37422816
0.37422814
0.37422814
0.37422813
0.37422812
0.3742281
0.37422809
0.37422808
0.37422807
0.37422806
0.37422804
0.37422804
0.37422803
0.37422802
0.374228
0.37422799
0.37422798
0.37422797
0.37422796
0.37422795
0.37422794
0.37422793
0.37422792
0.37422791
0.3742279
0.37422788
0.37422787
0.37422786
0.37422785
0.37422784
0.37422783
0.37422781
0.3742278
0.37422779
0.37422777
0.37422776
0.37422775
0.37422774
0.37422772
0.3742277
0.37422769
0.37422768
0.37422767
0.37422765
0.37422764
0.37422763
0.37422765
0.37422772
0.37422794
0.37422848
0.3742296
0.3742316
0.3742344
0.37423691
0.3742366
0.37423039
0.37421734
0.37420064