/*--------------------------------*- C++ -*----------------------------------*\
| =========                 |                                                 |
| \\      /  F ield         | OpenFOAM: The Open Source CFD Toolbox           |
|  \\    /   O peration     | Version:  v2012                                 |
|   \\  /    A nd           | Website:  www.openfoam.com                      |
|    \\/     M anipulation  |                                                 |
\*---------------------------------------------------------------------------*/
FoamFile
{
    version     2.0;
    format      ascii;
    class       volScalarField;
    location    "100";
    object      k;
}
// * * * * * * * * * * * * * * * * * * * * * * * * * * * * * * * * * * * * * //

dimensions      [0 2 -2 0 0 0 0];


internalField   nonuniform List<scalar> 
75385
(
0.02796907
0.026085853
0.024304993
0.022623482
0.021038208
0.019545952
0.018143444
0.016827382
0.015594475
0.014441459
0.013365118
0.012362286
0.011429854
0.010564765
0.0097640087
0.0090246123
0.0083436321
0.0077181463
0.0071452581
0.0066220869
0.0061457663
0.0057134546
0.0053223434
0.0049696631
0.0046526884
0.0043687545
0.0041152723
0.0038897383
0.0036897413
0.0035129615
0.0033571843
0.0032202493
0.0031001571
0.0029948323
0.0029030332
0.0028227232
0.0027540274
0.0026946757
0.0026457449
0.0026050409
0.0025722219
0.0025706851
0.0026012316
0.0025491369
0.0026220433
0.0025467425
0.0026205399
0.0025373492
0.002619038
0.0025318842
0.0026208268
0.0025302258
0.0026245914
0.0025323486
0.0026230571
0.0025292406
0.0026291235
0.0025278758
0.0026341281
0.002535709
0.0026563197
0.0027070152
0.0027934403
0.0027876601
0.0029371151
0.0030691591
0.0031474497
0.0031574039
0.0031705559
0.0031416596
0.0031615206
0.0031346033
0.0031590737
0.0031324765
0.0031557592
0.0031278132
0.0031561327
0.0031262561
0.0031534132
0.0031269264
0.003149782
0.0031178963
0.0031437704
0.0031224329
0.003150471
0.0031210052
0.0031458378
0.0031204034
0.0031472281
0.003115144
0.0031444647
0.0031140379
0.0031377436
0.0031076413
0.0031355777
0.0031075172
0.0031315997
0.0031018553
0.0031341748
0.0031230929
0.0032121515
0.0032680617
0.0033770061
0.0035079177
0.0040124326
0.0047840359
0.005063093
0.0048731744
0.0043129422
0.0033475735
0.0028293847
0.0027572822
0.0026709715
0.0027272897
0.0026512442
0.0027199219
0.0026416006
0.0027170855
0.0026355968
0.0027214145
0.0026942743
0.0027236334
0.002689545
0.0026180955
0.0025396694
0.0026144305
0.0026266565
0.0026236546
0.0026258146
0.002621833
0.0026239274
0.0026224309
0.0026250845
0.002623173
0.0026257692
0.0026235123
0.0026231936
0.0026249973
0.0026232889
0.0026245702
0.0026236125
0.0026203058
0.0026208491
0.0026197095
0.0026196237
0.0026199705
0.0026249586
0.0026196102
0.0026050626
0.0025366013
0.0026132203
0.0026238221
0.0026210302
0.0026239604
0.0026201546
0.0026255673
0.0026213215
0.0026248321
0.0026219227
0.0026231271
0.0026180063
0.0026253676
0.0026211299
0.0026237559
0.0026196942
0.0026243618
0.002623113
0.0026227753
0.0026217815
0.0026229579
0.0026226206
0.0026269447
0.0026221237
0.00262237
0.0026265048
0.0026229972
0.002623339
0.0026260266
0.002623996
0.0026287265
0.002623699
0.0026314042
0.0026257646
0.0026243568
0.0026224604
0.0026265304
0.0026258681
0.0026287479
0.0026267801
0.0026282579
0.0026286764
0.0026290611
0.0026290854
0.0026266838
0.002631564
0.0026275531
0.0026311188
0.0026257782
0.0026300186
0.0026254023
0.0026257742
0.0026218641
0.0026273105
0.0026277119
0.002617423
0.0026186768
0.0026112388
0.002614345
0.0026201808
0.0026185021
0.0026262291
0.0026261648
0.0026218814
0.0026253731
0.0026247275
0.002628663
0.0026249743
0.0026297651
0.0026264686
0.0026300773
0.0026259462
0.0026279151
0.0026278084
0.0026275575
0.0026269722
0.0026258792
0.002627576
0.0026249219
0.0026253186
0.0026222096
0.0026234813
0.0026248174
0.0026293214
0.0026230055
0.0026269079
0.0026230556
0.0026244994
0.002622452
0.0026220386
0.0026250614
0.0026213067
0.0026214703
0.0026248374
0.0026215529
0.0026213701
0.0026206248
0.0026212292
0.0026216061
0.0026221903
0.0026186441
0.0026217937
0.0026196246
0.0026226836
0.0026168766
0.0026210371
0.0026200509
0.0026224097
0.0026193684
0.0026225751
0.0026183602
0.0026210882
0.0026186451
0.0026208439
0.0026109083
0.0025522943
0.0026036031
0.0026042036
0.0026054779
0.0026090238
0.0026129773
0.0026182235
0.0026237741
0.0026300316
0.0026371099
0.0026454055
0.0026553451
0.0026674274
0.0026822304
0.0027004491
0.0027229351
0.0027507355
0.0027851347
0.0028276995
0.002880328
0.0029453019
0.0030253377
0.0031236376
0.0032439385
0.0033905582
0.0035684291
0.0037831178
0.0040408319
0.0043484026
0.0047132379
0.0051432575
0.0056467887
0.006232435
0.0069088986
0.0076848835
0.0085689162
0.0095691699
0.010693313
0.011948345
0.013340478
0.014875054
0.016556315
0.018387558
0.02037099
0.022507718
0.024798088
0.027241048
0.029834976
0.032578856
0.035467719
0.038496753
0.041677976
0.045203125
0.042310294
0.039551717
0.036935692
0.034458274
0.032116267
0.029906951
0.027827088
0.025873197
0.024041274
0.022326936
0.020725299
0.019231211
0.017839591
0.016543666
0.01533825
0.014219132
0.013182228
0.012221994
0.011333335
0.010511409
0.0097519836
0.0090509889
0.0084046657
0.0078095271
0.0072625461
0.0067607355
0.0063012036
0.0058812154
0.0054984431
0.0051504801
0.0048350256
0.0045498823
0.0042929145
0.0040620617
0.0038553377
0.0036708265
0.0035066905
0.0033611703
0.0032325837
0.0031193232
0.0030198534
0.0029326943
0.0028564588
0.0027898482
0.0027318174
0.0026814585
0.0026383954
0.0026023142
0.0025737625
0.0026098969
0.0026189889
0.0026176716
0.0026195693
0.0026178575
0.0026207889
0.0026186622
0.0026212445
0.0026194178
0.0026202424
0.0026170636
0.0026212381
0.0026193938
0.0026211231
0.0026189057
0.0026213431
0.0026213606
0.0026210408
0.0026207628
0.0026211143
0.0026217716
0.0026239947
0.00262212
0.0026216334
0.0026248518
0.0026224753
0.0026228569
0.0026243204
0.0026234024
0.0026262875
0.0026236098
0.0026283818
0.0026251509
0.0026239158
0.0026232826
0.0026253706
0.0026252399
0.0026276902
0.002626249
0.0026269608
0.0026276819
0.002627818
0.0026279649
0.0026264421
0.0026297768
0.0026266619
0.0026296082
0.0026254482
0.0026285098
0.0026253509
0.0026262887
0.0026232823
0.0026265231
0.0026260846
0.0026206626
0.0026222948
0.0026172465
0.0026213687
0.0026250536
0.0026234815
0.0026273248
0.002628173
0.0026257057
0.002628298
0.0026273053
0.0026297504
0.0026273114
0.0026308315
0.0026283067
0.002630902
0.0026283262
0.0026293567
0.0026293365
0.0026290886
0.0026284517
0.0026278306
0.0026292396
0.0026267765
0.0026269332
0.0026253329
0.0026256738
0.0026266523
0.0026291967
0.0026253172
0.002627306
0.0026248931
0.002625574
0.0026243973
0.0026241461
0.002625922
0.0026232187
0.0026238103
0.0026247524
0.0026231415
0.0026222929
0.0026220932
0.0026222557
0.0026223859
0.002622092
0.002620295
0.0026219671
0.002620411
0.0026215271
0.0026183931
0.0026209693
0.0026201345
0.0026216616
0.0026193125
0.0026207595
0.0026186134
0.0026196773
0.0026180033
0.0026187738
0.0026105318
0.0026129149
0.0026200085
0.0026195012
0.0026210566
0.0026203643
0.0026220746
0.0026210362
0.0026232468
0.0026219226
0.0026228054
0.0026205847
0.00262314
0.0026224026
0.0026239081
0.0026225379
0.0026239976
0.0026244122
0.0026244596
0.002624344
0.002624514
0.0026254012
0.0026267101
0.0026262803
0.0026256614
0.0026280172
0.0026266518
0.00262682
0.0026278362
0.0026272802
0.0026294521
0.0026278722
0.0026312627
0.0026290618
0.0026282686
0.0026281096
0.0026295248
0.0026292883
0.0026316921
0.0026303682
0.0026309407
0.0026315253
0.0026318623
0.0026318468
0.0026312064
0.0026332096
0.0026309194
0.0026331894
0.0026301005
0.0026321311
0.0026301097
0.002631127
0.0026287916
0.0026307698
0.0026297178
0.0026272354
0.0026290012
0.002627484
0.0026353558
0.0026341408
0.0026319223
0.0026328772
0.0026339592
0.0026323409
0.0026344595
0.0026334342
0.0026351841
0.0026334704
0.0026362174
0.0026341213
0.0026362134
0.0026347631
0.0026350041
0.0026349828
0.0026345699
0.0026340188
0.0026334776
0.0026346419
0.0026323905
0.002632756
0.0026313395
0.002631363
0.0026320004
0.002634044
0.0026309413
0.0026322393
0.0026301972
0.0026306749
0.0026297671
0.002629656
0.0026306965
0.0026286157
0.0026292222
0.0026293712
0.0026281878
0.0026273729
0.0026271526
0.0026272529
0.0026270131
0.0026265761
0.0026252904
0.0026264795
0.0026249608
0.0026255349
0.0026232941
0.0026252939
0.0026243292
0.0026255038
0.0026233742
0.0026241726
0.0026227057
0.0026232004
0.002621702
0.0026221329
0.0026164842
0.0026207733
0.002624628
0.0026241743
0.0026256338
0.0026252711
0.0026265513
0.0026259356
0.0026279933
0.0026269762
0.0026280386
0.0026262441
0.0026282483
0.0026277489
0.0026292834
0.0026282713
0.0026294345
0.0026298345
0.0026303131
0.0026302319
0.0026305459
0.0026312084
0.0026323242
0.0026323899
0.0026318108
0.0026335963
0.0026328929
0.0026329514
0.0026337347
0.0026333468
0.0026353041
0.0026342629
0.0026371393
0.0026351649
0.0026347076
0.0026348088
0.0026363455
0.0026357776
0.0026377942
0.0026368533
0.0026373879
0.0026378826
0.0026383946
0.0026384813
0.0026387458
0.0026395145
0.002637628
0.0026395324
0.0026371573
0.0026385244
0.0026370238
0.002638036
0.0026361606
0.0026374249
0.0026363861
0.0026373401
0.0026401795
0.0026448406
0.0026558927
0.0026470226
0.0026433879
0.0026400443
0.0026410148
0.0026401613
0.00264175
0.0026407576
0.0026419838
0.0026410294
0.0026429634
0.0026412939
0.0026429248
0.0026430145
0.0026421226
0.0026419368
0.0026413121
0.0026408887
0.0026403611
0.0026409919
0.0026393123
0.0026401411
0.0026384223
0.0026381758
0.0026384251
0.0026403234
0.0026377224
0.0026384495
0.0026365988
0.0026368613
0.0026362481
0.0026362485
0.002636553
0.0026351309
0.0026356803
0.0026353809
0.0026343447
0.0026338947
0.002633465
0.0026335047
0.0026327271
0.0026324037
0.0026313702
0.0026321493
0.0026306313
0.002631079
0.0026293272
0.0026308768
0.0026297124
0.0026305166
0.0026285622
0.002628979
0.0026279058
0.0026281424
0.0026267257
0.002627254
0.0026255771
0.0026309856
0.0026300309
0.0026293704
0.0026307418
0.0026306401
0.0026314775
0.0026312905
0.0026331199
0.002632586
0.0026338614
0.0026326138
0.002634076
0.0026336695
0.0026351256
0.0026346543
0.002635542
0.0026357462
0.0026368934
0.0026369203
0.0026374949
0.0026376597
0.0026386005
0.0026391592
0.0026386434
0.0026396203
0.0026397898
0.0026397272
0.0026401053
0.0026400196
0.002641728
0.0026413895
0.0026436516
0.0026418411
0.0026418379
0.0026422523
0.0026442228
0.0026430717
0.0026442871
0.0026440667
0.0026445908
0.0026449182
0.0026456767
0.0026459938
0.0026476608
0.002646503
0.0026451925
0.002646562
0.0026451661
0.0026456123
0.0026447045
0.0026456626
0.0026444101
0.0026447723
0.0026438745
0.0026501583
0.0026547742
0.0026687598
0.0026839303
0.0026637121
0.0026578728
0.0026480579
0.0026488927
0.0026491091
0.002649972
0.0026490656
0.0026496119
0.0026497813
0.0026505309
0.0026495332
0.0026504482
0.0026529299
0.0026503083
0.0026498196
0.0026489029
0.0026486985
0.0026481751
0.0026478636
0.0026472618
0.0026488134
0.002646504
0.0026458935
0.0026456096
0.00264732
0.0026454698
0.0026453328
0.0026438021
0.0026436568
0.0026435856
0.0026437187
0.0026429864
0.0026425519
0.0026430308
0.0026421896
0.0026413618
0.0026415685
0.0026408157
0.002640686
0.0026390863
0.0026390579
0.002638326
0.0026384101
0.0026370652
0.0026374487
0.0026363098
0.002637197
0.0026357964
0.0026359814
0.0026343089
0.0026342338
0.0026336628
0.0026336162
0.0026322864
0.0026331308
0.0026372398
0.0026447023
0.0026368244
0.0026357287
0.0026370267
0.0026372354
0.0026375054
0.0026378855
0.0026393604
0.0026396239
0.0026411648
0.0026407007
0.0026414842
0.0026410896
0.0026422642
0.0026426635
0.0026432264
0.0026430089
0.0026451703
0.0026454486
0.0026464261
0.0026457379
0.0026464313
0.0026475812
0.0026471452
0.0026469127
0.0026483153
0.0026481075
0.0026477822
0.0026482243
0.0026495374
0.0026502533
0.002651611
0.0026500111
0.002650638
0.0026514716
0.0026542313
0.0026521833
0.0026519799
0.0026529758
0.0026535027
0.0026535537
0.002654654
0.0026553727
0.0026591649
0.0026550394
0.002654614
0.0026551524
0.0026551798
0.0026542628
0.002654131
0.0026549617
0.0026545509
0.0026536489
0.0026528616
0.0026668964
0.0026741972
0.0027019802
0.0027237029
0.0026867272
0.0026776689
0.0026586001
0.0026593635
0.0026610893
0.0026609607
0.0026602198
0.002659889
0.0026617115
0.0026607523
0.002660773
0.0026606004
0.0026667419
0.0026615229
0.0026605124
0.0026591974
0.002659334
0.0026588001
0.0026569291
0.0026581744
0.0026608371
0.0026574839
0.0026563777
0.0026553631
0.0026568395
0.0026560734
0.0026546475
0.0026536014
0.0026527848
0.0026536145
0.0026539076
0.0026517048
0.0026527561
0.0026531412
0.0026516515
0.0026511178
0.0026523983
0.0026511586
0.002650661
0.0026478211
0.0026483641
0.0026479879
0.0026469892
0.0026460612
0.0026465063
0.0026461156
0.0026460878
0.0026443818
0.0026435549
0.0026423226
0.0026415882
0.0026416668
0.0026412723
0.0026400032
0.0026414263
0.0026538054
0.0026650719
0.0026473057
0.0026454583
0.0026467003
0.0026473082
0.0026468196
0.0026479627
0.0026489064
0.0026504324
0.0026523435
0.0026529315
0.0026528841
0.002652342
0.0026529353
0.0026546669
0.0026548419
0.0026538714
0.0026575357
0.0026583298
0.002659886
0.0026578792
0.0026582172
0.0026600977
0.0026597573
0.0026577124
0.0026608866
0.0026604775
0.0026590186
0.0026603011
0.0026610214
0.0026633141
0.0026633747
0.0026620372
0.0026634954
0.0026649306
0.0026690552
0.0026656394
0.0026630582
0.0026660343
0.0026665881
0.0026662181
0.0026677888
0.0026691668
0.0026761097
0.0026675138
0.0026684143
0.0026677123
0.0026697875
0.0026668711
0.0026677194
0.0026683544
0.0026690755
0.0026664121
0.0026656383
0.0026906635
0.0027018656
0.0027500254
0.0027820537
0.0027202923
0.0027064783
0.0026744029
0.0026752124
0.00267897
0.0026775769
0.0026770556
0.0026756364
0.0026798787
0.0026764616
0.0026780137
0.002676207
0.0026877763
0.002678775
0.0026769244
0.0026750629
0.0026757221
0.0026751048
0.0026707763
0.002675037
0.0026793663
0.0026742604
0.0026724485
0.0026704674
0.0026716572
0.0026724009
0.0026690775
0.0026687543
0.0026669015
0.0026691461
0.0026696574
0.0026653518
0.0026685946
0.0026688878
0.0026665649
0.0026664645
0.0026693734
0.0026674347
0.002666226
0.0026615581
0.0026630657
0.0026631258
0.0026604899
0.0026603534
0.0026610518
0.0026615824
0.0026603376
0.0026581971
0.0026558118
0.0026552113
0.0026536052
0.0026545817
0.002653728
0.0026525086
0.0026548939
0.0026791062
0.0026966562
0.0026647353
0.0026616659
0.0026628429
0.0026639917
0.0026624321
0.002664563
0.0026647664
0.0026682042
0.002670621
0.0026726215
0.0026715493
0.0026706199
0.0026701611
0.0026738898
0.0026735702
0.0026713934
0.0026772574
0.0026790322
0.0026814383
0.0026774106
0.002677238
0.0026800604
0.0026798126
0.002675132
0.0026807593
0.0026801624
0.0026769538
0.0026794962
0.0026793347
0.0026839018
0.0026822269
0.0026811982
0.0026837779
0.0026860393
0.0026923648
0.0026869463
0.0026805822
0.0026865843
0.0026872926
0.0026862997
0.0026884812
0.0026909471
0.002702384
0.0026872497
0.0026901217
0.0026875689
0.0026925534
0.0026867438
0.0026887993
0.002689193
0.0026913416
0.0026863137
0.0026854321
0.002725846
0.0027428444
0.0028211068
0.0028687709
0.0027705727
0.0027496804
0.0026994311
0.002700415
0.0027069018
0.0027039014
0.0027036654
0.002700903
0.0027085566
0.0027017344
0.002705472
0.0027013412
0.0027207409
0.002706424
0.0027031721
0.0027006319
0.0027020137
0.0027011664
0.0026931227
0.0027021104
0.0027087976
0.002700963
0.0026981854
0.0026949071
0.0026957657
0.0026985004
0.0026924534
0.0026931891
0.002689829
0.0026941634
0.0026948915
0.0026876931
0.0026941062
0.0026942936
0.0026908921
0.002691421
0.0026967897
0.0026937942
0.0026913375
0.0026840175
0.0026870415
0.0026876454
0.002682603
0.0026838211
0.0026850565
0.0026867313
0.0026838806
0.0026811342
0.0026763951
0.0026766504
0.0026739342
0.0026761841
0.0026746991
0.0026735782
0.0026775019
0.0027186279
0.0027461298
0.002694045
0.0026890446
0.0026901112
0.0026919855
0.0026889191
0.0026922834
0.002691481
0.0026978263
0.0027009834
0.0027047874
0.0027024239
0.0027007928
0.002698625
0.0027052284
0.002704325
0.0027002504
0.0027093703
0.0027126401
0.002716321
0.0027093645
0.0027084117
0.0027124586
0.0027122972
0.0027038511
0.0027129525
0.00271203
0.0027063322
0.0027106863
0.0027092366
0.0027170835
0.0027131103
0.0027124598
0.0027165355
0.0027199314
0.0027296014
0.0027214504
0.0027092129
0.0027197456
0.0027207569
0.0027189642
0.0027218656
0.0027261558
0.0027438165
0.0027193822
0.0027250155
0.0027198554
0.0027288521
0.0027190027
0.0027225424
0.0027226072
0.0027265514
0.0027183869
0.0027172454
0.0027790963
0.0028047434
0.0029269566
0.002997933
0.0028469394
0.0028154801
0.0027399461
0.0027412494
0.0027513972
0.002746369
0.0027465518
0.0027420946
0.0027544916
0.0027430275
0.0027497885
0.0027424698
0.0027728303
0.0027512939
0.002745666
0.002742397
0.0027446266
0.0027434005
0.0027298485
0.0027460305
0.0027559096
0.0027440322
0.0027399341
0.0027349203
0.0027353295
0.0027407096
0.0027307214
0.0027330206
0.002727475
0.0027348132
0.0027358918
0.0027246184
0.0027354769
0.0027356189
0.0027308389
0.0027322503
0.0027411517
0.0027366656
0.002732306
0.0027210958
0.0027264506
0.0027276276
0.0027192215
0.0027225318
0.002724717
0.0027278573
0.0027230109
0.0027192874
0.0027110135
0.0027124196
0.0027083981
0.0027123735
0.0027101142
0.0027090853
0.0027154204
0.0027805259
0.0028234962
0.0027429579
0.0027349926
0.0027359944
0.0027386642
0.0027336141
0.0027383525
0.0027362334
0.0027468669
0.0027512774
0.0027573062
0.0027532613
0.00275039
0.0027456549
0.0027562035
0.0027547274
0.0027478255
0.0027615349
0.0027672668
0.0027726777
0.0027614541
0.0027595186
0.0027651322
0.0027649902
0.0027512802
0.002765074
0.0027638563
0.0027545308
0.0027615022
0.0027582158
0.0027707255
0.0027637703
0.0027636388
0.0027697057
0.0027746607
0.0027891513
0.0027772899
0.0027563211
0.0027734871
0.0027750251
0.0027723119
0.002775976
0.0027832797
0.0028093239
0.0027719904
0.0027812621
0.0027726298
0.0027869559
0.0027715707
0.0027770783
0.0027765743
0.002782829
0.0027703777
0.0027688989
0.0028605152
0.0028990598
0.0030844157
0.0031895623
0.0029634497
0.0029162672
0.0028056851
0.0028074678
0.0028226349
0.0028149366
0.0028157158
0.0028091552
0.0028280559
0.0028103932
0.0028211859
0.0028096809
0.0028550165
0.0028239294
0.0028143998
0.0028104491
0.0028135597
0.0028117211
0.002790127
0.0028169988
0.002831116
0.0028134816
0.0028075579
0.0028002475
0.0027999921
0.0028088267
0.0027932243
0.0027977812
0.0027890855
0.0028007689
0.0028021916
0.0027853962
0.0028025159
0.0028026228
0.002796139
0.0027986614
0.0028125729
0.0028061139
0.0027986983
0.0027820435
0.0027907438
0.0027925442
0.0027794651
0.0027859607
0.0027896876
0.002794767
0.0027874013
0.0027821687
0.0027686539
0.0027716184
0.0027661043
0.0027724218
0.0027692886
0.0027682781
0.0027782633
0.0028769967
0.0029434813
0.002823339
0.0028109419
0.0028119272
0.0028156126
0.002807778
0.0028141533
0.002810162
0.0028272047
0.0028333949
0.0028423061
0.0028360013
0.002831258
0.0028225729
0.0028386632
0.0028364786
0.0028256868
0.0028458571
0.0028553155
0.0028629319
0.0028458953
0.0028427408
0.0028501464
0.0028500889
0.0028289414
0.0028492355
0.0028476025
0.0028330331
0.0028438339
0.0028377674
0.0028570303
0.0028460563
0.0028468095
0.0028555337
0.0028626018
0.0028838103
0.002867284
0.0028332836
0.0028601613
0.0028624073
0.0028589084
0.0028631185
0.0028754178
0.0029122992
0.002857626
0.0028717332
0.00285839
0.0028799608
0.0028569316
0.0028645952
0.0028635918
0.0028728147
0.0028545482
0.002852421
0.0029852041
0.0030428739
0.0033171011
0.0034712629
0.0031406907
0.0030703093
0.0029116501
0.00291397
0.0029358535
0.0029249789
0.0029262982
0.0029172882
0.0029451809
0.002919036
0.0029354843
0.0029182494
0.0029837291
0.0029402298
0.0029245659
0.0029200948
0.0029240024
0.0029211508
0.0028880793
0.0029305414
0.0029498482
0.0029244858
0.0029160673
0.002905738
0.0029044269
0.0029176439
0.0028942478
0.0029019464
0.0028887448
0.0029067256
0.0029085584
0.0028842309
0.0029100818
0.0029101029
0.0029017194
0.002905463
0.0029263157
0.0029173336
0.0029055
0.0028809927
0.0028943494
0.0028969166
0.0028773351
0.0028886527
0.0028946204
0.0029023407
0.0028917252
0.0028843608
0.0028630866
0.0028682518
0.0028609816
0.0028705687
0.0028662769
0.0028653192
0.0028806145
0.0030258067
0.0031273536
0.0029529094
0.002934295
0.002935078
0.002940176
0.0029284425
0.002936762
0.0029300839
0.0029565856
0.0029652029
0.0029778867
0.0029684665
0.0029611017
0.0029464762
0.0029702534
0.0029671424
0.0029509281
0.0029803947
0.0029952394
0.0030055869
0.0029804643
0.002976047
0.0029854921
0.0029854387
0.0029541228
0.002983131
0.0029810804
0.0029591364
0.0029751448
0.0029654612
0.0029937613
0.0029779718
0.0029799953
0.0029922139
0.0030022068
0.0030324685
0.0030099293
0.0029573478
0.0029977475
0.0030013488
0.0029971168
0.003001744
0.0030215719
0.0030725478
0.0029946983
0.0030154465
0.0029954553
0.003026807
0.0029933074
0.003003859
0.0030021624
0.0030149327
0.0029888266
0.0029863025
0.0031750869
0.0032607792
0.0036569631
0.0038796159
0.0034077371
0.0033036887
0.0030800054
0.003082603
0.0031131988
0.0030986665
0.0031006479
0.0030886464
0.0031285371
0.0030911938
0.0031152929
0.0030905344
0.0031825491
0.0031232396
0.0030983595
0.0030936558
0.0030981408
0.0030935751
0.0030445812
0.0031091605
0.0031348568
0.0030992751
0.0030872925
0.0030731655
0.0030701373
0.003088813
0.0030548127
0.0030668137
0.0030473798
0.0030741911
0.0030762119
0.0030420624
0.00307958
0.0030797308
0.0030691731
0.0030743267
0.0031043621
0.0030925235
0.0030740362
0.0030388262
0.0030582881
0.0030620353
0.0030333657
0.0030519886
0.0030609807
0.0030723828
0.0030573333
0.0030472821
0.0030144888
0.0030229784
0.0030135261
0.0030277763
0.0030217204
0.0030212222
0.0030436793
0.0032520293
0.0034043838
0.00315711
0.0031301691
0.003130283
0.0031374365
0.0031203185
0.003130927
0.0031203784
0.0031606263
0.0031723912
0.0031900584
0.0031762817
0.0031655111
0.0031421578
0.0031764145
0.0031720211
0.003148804
0.0031906934
0.0032134838
0.0032271036
0.0031913014
0.0031852691
0.0031970278
0.0031966351
0.003152089
0.0031921319
0.0031901403
0.0031576643
0.0031811402
0.0031662525
0.003207017
0.0031850352
0.0031894258
0.0032056302
0.0032200023
0.0032615791
0.0032325315
0.0031539929
0.0032128158
0.0032187942
0.0032139852
0.0032188367
0.0032496029
0.0033183788
0.0032101088
0.0032392288
0.0032105649
0.003254586
0.0032075461
0.0032210492
0.003218775
0.0032351895
0.0031995733
0.0031969051
0.0034608846
0.0035867418
0.0041454012
0.0044608855
0.0038038337
0.0036522057
0.0033419682
0.0033444809
0.0033857422
0.003367283
0.0033700703
0.0033546353
0.003409935
0.0033583742
0.0033922112
0.0033582533
0.003484775
0.0034054077
0.0033675631
0.0033627552
0.0033677181
0.0033599936
0.0032898338
0.0033846378
0.0034175558
0.0033691724
0.0033521619
0.0033333077
0.0033273103
0.0033530325
0.0033043924
0.0033227223
0.0032948142
0.0033333456
0.003335378
0.0032885768
0.0033413233
0.0033420188
0.0033291593
0.0033360654
0.0033780187
0.0033628636
0.0033346775
0.0032854469
0.0033125558
0.0033179822
0.0032770457
0.0033062719
0.0033190217
0.0033355976
0.0033146557
0.0033012486
0.0032518562
0.0032651376
0.0032531172
0.0032737414
0.0032650869
0.0032657505
0.0032975517
0.003589515
0.0038131236
0.0034705439
0.0034334562
0.0034315661
0.0034421709
0.0034174521
0.0034310533
0.0034145075
0.0034746373
0.0034899181
0.0035146706
0.0034946954
0.0034797933
0.0034436701
0.0034923277
0.0034855996
0.0034543401
0.0035117746
0.0035464146
0.0035631771
0.0035143379
0.00350623
0.0035203896
0.003518974
0.0034571897
0.0035115095
0.0035095837
0.0034639279
0.0034970585
0.0034747347
0.0035325038
0.0035024566
0.0035105419
0.003532462
0.0035525649
0.0036084768
0.0035713994
0.0034576746
0.0035408769
0.0035506358
0.0035458114
0.0035502972
0.0035966037
0.0036874793
0.0035406707
0.0035800508
0.0035402688
0.0036004189
0.0035357112
0.0035533279
0.0035499103
0.0035705208
0.0035229228
0.0035209961
0.0038838545
0.0040656261
0.0048334351
0.0052705326
0.0043796609
0.0041628452
0.00374014
0.0037413943
0.0037963223
0.0037728656
0.0037768121
0.0037573004
0.0038320419
0.0037627531
0.0038087726
0.0037639069
0.0039332526
0.0038298633
0.0037736306
0.0037697075
0.0037741451
0.0037619045
0.0036638849
0.0037993518
0.0038406811
0.003776366
0.0037524041
0.0037275333
0.0037166916
0.0037514539
0.0036829452
0.0037104376
0.003671133
0.0037248485
0.003726669
0.003664075
0.0037357816
0.003738071
0.0037227308
0.0037321806
0.0037888372
0.0037702481
0.0037282934
0.0036614915
0.0036975604
0.0037054206
0.0036483577
0.0036923706
0.0037095191
0.0037333495
0.0037044299
0.0036871023
0.0036142998
0.0036346065
0.0036195618
0.0036487135
0.0036359839
0.0036393164
0.0036824016
0.0040818298
0.0044025727
0.0039404028
0.0038904462
0.0038856116
0.0039003966
0.003866418
0.003882802
0.0038580907
0.0039456544
0.0039652593
0.0039988684
0.0039702092
0.0039510716
0.0038979718
0.0039644276
0.0039551481
0.0039141252
0.00399136
0.0040417652
0.0040622127
0.0039969127
0.0039861061
0.0040021346
0.003998933
0.0039160505
0.0039882146
0.0039863004
0.0039237691
0.0039698929
0.0039364387
0.0040170793
0.0039766698
0.003991421
0.004019705
0.0040479432
0.0041213678
0.0040756395
0.0039158735
0.004030093
0.0040459437
0.0040416948
0.004045233
0.0041124982
0.0042299203
0.0040352268
0.0040861647
0.0040330112
0.0041126628
0.0040266067
0.0040482977
0.0040434214
0.0040695123
0.0040070342
0.0040072688
0.0044967808
0.0047539229
0.0057804505
0.0063711021
0.0051973205
0.0048940246
0.004330076
0.0043270576
0.0043982623
0.0043691863
0.0043751142
0.0043509145
0.0044496653
0.0043583239
0.0044196398
0.0043619472
0.0045839108
0.0044518272
0.0043717635
0.0043690431
0.0043725101
0.0043525888
0.0042204102
0.0044074328
0.0044582722
0.0043748654
0.0043416227
0.0043093227
0.0042900383
0.0043367641
0.0042422986
0.0042823744
0.0042285549
0.0043013032
0.0043033108
0.0042206513
0.0043150302
0.0043203028
0.0043031807
0.0043159533
0.0043909501
0.0043683495
0.0043084184
0.0042196957
0.0042657269
0.0042766931
0.0041998443
0.0042628864
0.0042843267
0.0043186785
0.0042801186
0.0042573536
0.0041536073
0.0041830084
0.0041653128
0.0042046401
0.0041870294
0.0041942651
0.0042511108
0.0047825031
0.0052296719
0.0046230151
0.0045591605
0.0045489086
0.0045699979
0.0045246238
0.0045437866
0.0045088413
0.0046309433
0.0046575016
0.0047015417
0.0046608691
0.0046366812
0.0045627799
0.0046509389
0.0046383183
0.0045870598
0.004687542
0.0047586748
0.0047837948
0.0046982002
0.0046830667
0.0047009434
0.0046931685
0.00458615
0.0046803309
0.0046788012
0.0045944908
0.0046567611
0.0046090242
0.0047191864
0.0046657368
0.0046901706
0.0047269338
0.0047660424
0.0048600326
0.004804017
0.0045862624
0.0047385094
0.0047631259
0.0047607634
0.0047622655
0.0048568798
0.0050042903
0.0047530677
0.0048179836
0.0047475827
0.0048518545
0.0047391755
0.0047662006
0.0047589246
0.0047911646
0.0047103867
0.0047175959
0.0053633581
0.0057188814
0.007051191
0.0078283564
0.0063284815
0.0059142042
0.005180051
0.0051665103
0.0052572314
0.0052213847
0.0052308762
0.005200826
0.005328956
0.0052101541
0.0052908573
0.005218005
0.0055000504
0.0053371177
0.0052258806
0.0052262838
0.0052268302
0.005196505
0.0050229303
0.0052740209
0.0053357485
0.0052301614
0.0051852121
0.005143237
0.0051112026
0.0051728679
0.0050454044
0.0051021614
0.0050305687
0.0051268197
0.0051283683
0.0050213083
0.005143227
0.0051518424
0.0051350431
0.0051521784
0.0052495109
0.0052218263
0.0051374764
0.0050249121
0.0050801082
0.0050956206
0.0049947188
0.0050815928
0.0051072848
0.0051559979
0.0051053977
0.0050755862
0.0049327878
0.0049737109
0.0049533122
0.0050050795
0.004980203
0.0049944022
0.0050652924
0.0057528969
0.0063603078
0.0055881802
0.0055095054
0.0054911471
0.0055198407
0.0054605298
0.0054827941
0.0054347475
0.0056009002
0.0056339057
0.0056922223
0.0056338765
0.0056073599
0.0055059476
0.0056209186
0.0056017308
0.0055436488
0.0056686869
0.0057674224
0.0057979541
0.0056880921
0.0056691562
0.005683492
0.0056725097
0.005536134
0.0056574032
0.0056552794
0.0055473131
0.0056281471
0.0055620102
0.0057080476
0.0056369126
0.0056783199
0.0057260882
0.0057773921
0.0058951936
0.0058277454
0.0055412253
0.0057367593
0.0057734738
0.0057754471
0.0057732283
0.0059022716
0.006081721
0.0057666064
0.0058478139
0.0057557547
0.0058904637
0.0057456233
0.005779068
0.0057664957
0.0058061459
0.0057051425
0.0057271963
0.0065560553
0.0070355875
0.0087111253
0.0097060194
0.0078503396
0.0072988094
0.0063691986
0.0063348654
0.0064478558
0.0064036201
0.0064208459
0.0063821756
0.006545521
0.0063929733
0.0064980482
0.0064074822
0.0067571819
0.0065607682
0.006412834
0.0064168174
0.0064128711
0.0063683883
0.0061487968
0.0064741589
0.0065475903
0.0064170028
0.0063586906
0.0063038543
0.0062526772
0.0063332068
0.0061670879
0.0062430623
0.0061534609
0.0062744692
0.0062749022
0.0061390948
0.0062914889
0.0063047388
0.0062942803
0.0063150393
0.0064393061
0.0064036577
0.0062886538
0.0061524581
0.0062127411
0.0062357438
0.0061066144
0.006222292
0.0062513289
0.0063192221
0.0062531168
0.0062153136
0.0060250304
0.006080254
0.0060561701
0.0061235139
0.0060904422
0.0061130087
0.0061988937
0.0070595035
0.0078593832
0.0069081561
0.0068160537
0.0067884869
0.0068262528
0.0067509927
0.0067763712
0.0067129781
0.0069296489
0.0069732029
0.0070472764
0.0069684838
0.0069374543
0.0068072231
0.0069505517
0.0069236218
0.0068624828
0.0070085827
0.0071422717
0.0071835486
0.0070440651
0.0070208233
0.0070263691
0.0070106463
0.0068418231
0.006992396
0.0069943392
0.0068601149
0.0069584999
0.0068711295
0.0070588567
0.0069688082
0.0070309367
0.007093881
0.0071599051
0.0073019649
0.0072237016
0.0068573668
0.007101758
0.0071554154
0.0071614675
0.0071552649
0.0073235602
0.0075366537
0.0071516439
0.0072521519
0.0071326789
0.0073046522
0.0071214379
0.0071661951
0.0071433602
0.0071919899
0.0070667144
0.0071172697
0.0081520214
0.0087818468
0.010820866
0.012060093
0.009839564
0.0091252485
0.0079798028
0.0079114103
0.0080492167
0.0079948689
0.0080232049
0.0079739897
0.0081756702
0.0079853566
0.0081181095
0.0080095899
0.0084309506
0.0082009925