/*--------------------------------*- C++ -*----------------------------------*\
| =========                 |                                                 |
| \\      /  F ield         | OpenFOAM: The Open Source CFD Toolbox           |
|  \\    /   O peration     | Version:  v2012                                 |
|   \\  /    A nd           | Website:  www.openfoam.com                      |
|    \\/     M anipulation  |                                                 |
\*---------------------------------------------------------------------------*/
FoamFile
{
    version     2.0;
    format      ascii;
    class       volScalarField;
    location    "100";
    object      nut;
}
// * * * * * * * * * * * * * * * * * * * * * * * * * * * * * * * * * * * * * //

dimensions      [0 2 -1 0 0 0 0];


internalField   nonuniform List<scalar> 
75385
(
0.0017463915
0.0016211868
0.0015039111
0.0013941627
0.0012915558
0.0011957189
0.0011062967
0.00102295
0.00094535627
0.00087320961
0.00080622039
0.00074411417
0.00068663045
0.00063352156
0.00058455113
0.00053949262
0.00049812791
0.00046024613
0.00042564326
0.00039412089
0.00036548551
0.00033954874
0.00031612738
0.0002950433
0.00027612337
0.00025920004
0.00024411213
0.00023070513
0.00021883149
0.00020835062
0.00019912988
0.00019104188
0.00018396928
0.00017779018
0.00017242432
0.00016775108
0.00016372573
0.00016022806
0.00015721846
0.00015470085
0.00015266046
0.00015272462
0.00014502839
0.00015045912
0.00014508752
0.00014984909
0.0001450381
0.00014937679
0.00014502141
0.0001487758
0.00014504707
0.00014821256
0.00014510053
0.00014787984
0.00014506715
0.00014760245
0.0001451346
0.00014750916
0.00014524117
0.00014750585
0.00014567814
0.00014647879
0.00014743819
0.00014815523
0.00014990225
0.00015539476
0.00016991269
0.00017499123
0.0001733353
0.00017480086
0.00017298862
0.00017451507
0.00017284667
0.00017443324
0.00017273294
0.00017415283
0.00017260526
0.0001740521
0.00017251379
0.00017403476
0.00017244283
0.00017385351
0.00017229324
0.00017388107
0.00017230717
0.0001737097
0.00017219149
0.00017367354
0.00017206867
0.00017356283
0.00017193945
0.00017338864
0.00017186159
0.00017326652
0.00017187323
0.0001732011
0.00017177791
0.00017296704
0.00017189894
0.0001737129
0.00017514572
0.00017928625
0.00018068022
0.00018417091
0.00020379575
0.00023098114
0.00024011022
0.00023281646
0.00021565313
0.00018245952
0.00016943658
0.00016360854
0.00016500044
0.00016257767
0.00016473012
0.00016230499
0.00016463799
0.00016218207
0.000164635
0.00016209645
0.0001618851
0.00016087692
0.00015468514
0.00014493164
0.00015010844
0.00014522407
0.00014519172
0.0001450731
0.00014508507
0.00014505299
0.00014509199
0.0001450924
0.00014512716
0.00014510254
0.0001451296
0.00014510225
0.00014509527
0.00014513009
0.00014509761
0.00014512063
0.00014508905
0.00014503009
0.0001450154
0.0001449994
0.00014500324
0.00014506777
0.00014521368
0.0001448284
0.00014390323
0.0001501081
0.00014513547
0.00014536884
0.00014534271
0.00014537612
0.00014533545
0.00014538986
0.00014533926
0.00014537971
0.00014534052
0.00014534752
0.00014528134
0.00014534333
0.00014530168
0.00014531528
0.0001452843
0.00014532709
0.0001453076
0.00014531729
0.00014530447
0.00014530619
0.00014531077
0.00014535452
0.00014532437
0.00014531695
0.0001453446
0.00014532106
0.00014530622
0.00014532903
0.00014531302
0.00014536591
0.00014532931
0.00014540006
0.00014533995
0.00014532815
0.00014531056
0.00014536808
0.00014533809
0.00014537448
0.00014535549
0.00014537137
0.00014537425
0.00014539444
0.0001453919
0.00014541535
0.00014541471
0.00014537307
0.00014541838
0.00014536367
0.00014540124
0.00014536934
0.00014538247
0.00014536175
0.00014536092
0.00014535168
0.00014552379
0.00014558387
0.00014517002
0.0001450622
0.00014538158
0.00014529855
0.00014508866
0.0001450961
0.00014509939
0.00014511932
0.00014510098
0.0001451297
0.00014509543
0.00014514866
0.0001451034
0.00014514418
0.00014515237
0.00014512355
0.00014512519
0.00014510567
0.00014510162
0.00014508846
0.000145107
0.00014507055
0.00014510135
0.00014504895
0.00014506092
0.00014507204
0.00014512599
0.00014506366
0.00014509233
0.00014504515
0.0001450576
0.0001450403
0.00014505532
0.00014507461
0.00014504896
0.00014506102
0.00014507916
0.00014504337
0.00014503612
0.00014503614
0.00014504636
0.00014503485
0.00014504872
0.00014501511
0.00014504068
0.00014502774
0.00014506097
0.00014500995
0.00014507114
0.00014506298
0.00014509905
0.00014505916
0.00014510201
0.00014505884
0.00014509594
0.00014506917
0.00014510335
0.00014491822
0.00015135626
0.00014396793
0.0001440128
0.00014405833
0.00014415875
0.00014430191
0.00014448448
0.00014471427
0.00014499247
0.00014533659
0.00014575865
0.00014627875
0.00014692073
0.00014771527
0.00014870026
0.00014992282
0.00015144117
0.00015332682
0.00015566707
0.00015856777
0.00016215634
0.00016658465
0.00017203214
0.00017870877
0.00018685799
0.00019675912
0.00020872924
0.00022312441
0.00024033999
0.00026080944
0.00028500253
0.00031342166
0.00034659689
0.00038507864
0.00042943525
0.00048024605
0.00053809455
0.0006035629
0.00067722542
0.00075964397
0.00085136549
0.00095290941
0.0010647773
0.0011874438
0.0013213548
0.0014669466
0.0016246017
0.0017946978
0.0019776867
0.0021737768
0.0023832008
0.0026074231
0.0029346641
0.0027255177
0.0025292189
0.002345872
0.0021747046
0.0020150502
0.0018663205
0.0017279346
0.0015993357
0.0014799697
0.0013692942
0.0012667682
0.0011718649
0.0010840912
0.0010028691
0.00092774953
0.00085836717
0.00079438191
0.00073537293
0.00068096212
0.0006307991
0.00058458187
0.00054202666
0.00050287593
0.00046689498
0.00043388243
0.00040364235
0.00037598741
0.00035074205
0.00032775853
0.00030688532
0.00028797864
0.00027090215
0.00025552412
0.00024171809
0.00022936264
0.0002183412
0.00020854232
0.00019985976
0.00019219238
0.00018544417
0.00017952446
0.00017434609
0.000169828
0.00016589308
0.00016247722
0.00015951726
0.00015696375
0.00015475355
0.0001528712
0.00014469235
0.00014480732
0.00014476989
0.00014479108
0.0001447565
0.00014479025
0.00014475303
0.00014479338
0.00014475799
0.00014476763
0.00014470783
0.00014475294
0.00014472599
0.00014474078
0.00014471599
0.00014474389
0.00014473557
0.00014474645
0.00014473734
0.00014473655
0.00014474649
0.00014477707
0.00014476582
0.00014474969
0.0001447785
0.00014475905
0.0001447456
0.00014476009
0.00014474873
0.00014479307
0.00014476691
0.00014482658
0.0001447758
0.00014476438
0.00014475441
0.00014480275
0.0001447739
0.00014481329
0.0001447926
0.00014480373
0.00014480956
0.00014482797
0.00014482646
0.00014485436
0.00014484751
0.00014480512
0.00014485228
0.00014479767
0.00014483182
0.00014480394
0.00014482606
0.00014479846
0.00014480551
0.00014479962
0.00014499621
0.00014509656
0.00014497323
0.00014498791
0.00014494351
0.00014482584
0.00014463415
0.00014463812
0.00014462197
0.00014465689
0.00014463279
0.00014465979
0.00014462698
0.00014468102
0.00014463293
0.00014467631
0.00014468365
0.00014465606
0.00014465673
0.00014463879
0.00014463169
0.00014462251
0.0001446433
0.00014460367
0.00014463135
0.00014458472
0.00014459321
0.00014460421
0.00014465457
0.00014459576
0.00014462073
0.00014457743
0.00014458815
0.00014457593
0.00014458754
0.00014460642
0.00014457588
0.00014459482
0.00014460235
0.00014457419
0.000144564
0.0001445642
0.00014457288
0.00014456145
0.0001445669
0.00014454252
0.0001445673
0.00014455
0.00014457354
0.00014453206
0.00014459086
0.00014457918
0.00014461367
0.00014457306
0.00014460603
0.00014457844
0.00014461091
0.00014459326
0.000144636
0.00014459342
0.00014461511
0.00014458086
0.00014453312
0.00014454886
0.00014451944
0.00014454213
0.00014451412
0.00014455365
0.00014452242
0.00014453661
0.0001444808
0.00014451768
0.000144496
0.00014451458
0.00014449225
0.00014451337
0.00014450793
0.00014452343
0.00014451507
0.00014451726
0.00014452394
0.00014455067
0.00014454663
0.0001445269
0.00014455365
0.00014453985
0.0001445285
0.00014453715
0.00014452816
0.00014456936
0.00014454866
0.00014460369
0.00014455392
0.00014454556
0.00014453937
0.00014458792
0.00014455746
0.00014459177
0.00014457543
0.00014458274
0.00014458977
0.00014460849
0.00014460992
0.00014464481
0.00014462625
0.0001445848
0.00014463075
0.00014458231
0.00014460924
0.00014458522
0.00014460947
0.00014457347
0.00014458872
0.0001445869
0.0001448084
0.00014495021
0.00014515167
0.00014543944
0.00014506926
0.00014489853
0.00014461196
0.00014461303
0.00014460824
0.00014463951
0.00014461664
0.00014463429
0.0001446192
0.00014465595
0.00014461634
0.0001446515
0.00014469485
0.00014464275
0.00014463856
0.00014461708
0.00014461227
0.00014460618
0.00014461379
0.00014458998
0.00014462855
0.00014457412
0.00014457703
0.00014457965
0.00014462799
0.00014458082
0.00014459319
0.00014455554
0.00014456087
0.00014455822
0.00014457059
0.00014457447
0.00014455685
0.00014457699
0.00014457571
0.0001445509
0.00014455108
0.00014454534
0.00014455253
0.00014452902
0.00014453692
0.00014451996
0.00014453615
0.00014451816
0.00014453861
0.00014450881
0.00014455849
0.00014454147
0.00014456672
0.00014452956
0.0001445514
0.00014453373
0.00014455873
0.00014454286
0.00014459399
0.00014471305
0.00014486176
0.00014464473
0.00014459077
0.0001446081
0.00014458884
0.00014460021
0.0001445861
0.00014461957
0.00014460336
0.00014462388
0.00014458379
0.00014460325
0.00014458394
0.00014459909
0.00014459349
0.00014460479
0.00014459206
0.00014462801
0.0001446232
0.00014463372
0.00014462315
0.00014464466
0.00014465411
0.00014463408
0.0001446364
0.00014464804
0.00014463319
0.00014462673
0.00014462746
0.0001446593
0.00014466032
0.00014469468
0.00014464921
0.00014465484
0.00014465729
0.00014472068
0.00014466935
0.00014467682
0.00014468268
0.00014468769
0.00014468856
0.00014471433
0.00014472243
0.00014480126
0.00014471975
0.00014469497
0.00014472431
0.00014470492
0.00014470243
0.00014469436
0.00014471551
0.00014469378
0.00014467944
0.00014467794
0.00014506188
0.00014526349
0.00014582434
0.00014631769
0.00014552415
0.00014528411
0.00014477155
0.00014477195
0.00014480863
0.0001448167
0.00014479714
0.00014479295
0.00014481733
0.00014481474
0.00014479856
0.00014480969
0.00014494002
0.00014482698
0.00014481342
0.0001447823
0.00014478635
0.00014478259
0.00014475855
0.00014477334
0.00014484037
0.00014476481
0.00014475609
0.00014474014
0.00014478148
0.0001447635
0.00014474526
0.00014472094
0.000144712
0.00014473022
0.00014474807
0.00014471708
0.00014473396
0.000144754
0.00014473476
0.00014471762
0.00014474212
0.00014472522
0.00014472668
0.00014467469
0.00014469429
0.00014468967
0.00014468122
0.00014467105
0.00014468971
0.0001446827
0.00014471065
0.00014468626
0.0001446906
0.00014466264
0.00014466806
0.0001446656
0.00014468008
0.0001446634
0.0001447215
0.00014505599
0.00014530054
0.00014482347
0.00014475571
0.00014477143
0.00014476229
0.00014475422
0.00014475901
0.0001447801
0.00014479092
0.00014481982
0.0001448068
0.00014479942
0.00014478067
0.0001447836
0.00014480996
0.00014480705
0.00014477817
0.00014485012
0.00014485349
0.00014487843
0.00014483604
0.00014484804
0.00014487849
0.0001448584
0.00014481785
0.00014487255
0.00014485132
0.00014481793
0.00014483761
0.00014485258
0.00014489218
0.00014489032
0.00014485362
0.0001448819
0.00014489818
0.00014498984
0.00014490361
0.00014485985
0.00014490728
0.0001449102
0.00014489956
0.00014493749
0.00014495789
0.00014511335
0.00014492249
0.00014492878
0.00014492805
0.00014495804
0.00014490622
0.00014492493
0.00014494224
0.00014495039
0.00014488716
0.00014488862
0.00014556489
0.00014585423
0.00014692941
0.00014768474
0.0001462633
0.00014590906
0.00014503622
0.0001450336
0.00014512803
0.00014510062
0.0001450864
0.00014505096
0.00014513584
0.00014507296
0.0001450941
0.00014506655
0.00014533273
0.00014512491
0.00014509491
0.00014504916
0.00014506751
0.00014506565
0.00014498783
0.00014506904
0.00014517921
0.0001450664
0.00014504098
0.00014499814
0.00014502973
0.00014505523
0.00014498945
0.00014498553
0.00014495219
0.0001450047
0.00014502986
0.00014494637
0.0001450162
0.00014503605
0.00014499312
0.00014498719
0.00014505218
0.00014501725
0.00014500691
0.00014491019
0.00014495174
0.0001449625
0.00014491432
0.00014492089
0.00014494121
0.00014496446
0.00014496024
0.00014492584
0.00014489554
0.00014488321
0.00014486638
0.0001448869
0.00014488999
0.00014487514
0.00014495546
0.00014560512
0.00014598554
0.00014512863
0.0001450321
0.00014504632
0.0001450501
0.00014501478
0.00014504569
0.00014504712
0.00014510221
0.00014514302
0.00014516772
0.00014512653
0.00014510297
0.00014508349
0.00014515893
0.00014513915
0.00014508131
0.00014520881
0.00014522885
0.00014527644
0.00014518278
0.00014518133
0.00014523834
0.00014521904
0.00014511317
0.00014523121
0.00014520223
0.00014512543
0.00014517611
0.00014516663
0.00014526442
0.00014521108
0.00014518498
0.00014524552
0.00014528153
0.00014542171
0.00014528229
0.00014515293
0.00014526944
0.00014527049
0.00014524284
0.00014529771
0.00014534055
0.00014561281
0.00014525337
0.00014530723
0.00014526095
0.00014536381
0.00014523854
0.00014529359
0.00014530357
0.0001453537
0.00014522245
0.00014522545
0.00014633287
0.00014676547
0.00014860912
0.00014974276
0.00014738492
0.0001468573
0.00014547004
0.0001454684
0.000145644
0.00014556613
0.00014556065
0.00014548388
0.00014565832
0.00014550704
0.00014558374
0.00014549787
0.00014597106
0.00014561999
0.00014556139
0.00014549541
0.00014553435
0.00014553398
0.00014536826
0.00014555881
0.00014573429
0.00014555845
0.00014550877
0.00014542837
0.00014544825
0.00014553508
0.00014539784
0.00014542338
0.00014535117
0.00014545813
0.00014549162
0.00014533157
0.00014548206
0.00014550022
0.00014542722
0.0001454373
0.00014556535
0.00014550334
0.00014546946
0.00014530521
0.0001453835
0.00014541341
0.00014530447
0.00014534089
0.00014536985
0.0001454312
0.00014538253
0.00014533354
0.00014524796
0.00014525967
0.00014521212
0.00014526528
0.00014525333
0.00014523993
0.00014535714
0.00014646273
0.00014706314
0.00014565884
0.00014551567
0.00014552802
0.00014554969
0.00014547476
0.00014554167
0.0001455146
0.00014563818
0.00014569777
0.00014577386
0.0001456895
0.00014565283
0.00014559479
0.0001457444
0.00014570345
0.00014559896
0.00014580809
0.00014585994
0.00014593936
0.00014576964
0.00014574865
0.00014584088
0.00014582315
0.00014561864
0.00014583044
0.00014579058
0.00014564656
0.0001457454
0.00014570045
0.00014588588
0.00014575961
0.00014574658
0.00014584988
0.00014591644
0.0001461379
0.00014591872
0.0001456506
0.00014587811
0.00014587869
0.00014582589
0.00014590531
0.00014598381
0.00014642993
0.00014581878
0.00014594378
0.00014582987
0.0001460397
0.00014580548
0.00014590691
0.0001459072
0.00014601541
0.00014578965
0.00014578794
0.00014750546
0.00014815034
0.00015113486
0.00015284495
0.00014909786
0.0001483094
0.00014620109
0.00014620733
0.00014649197
0.00014634915
0.00014635423
0.00014622524
0.00014653233
0.00014625134
0.00014641216
0.0001462379
0.00014701604
0.00014645647
0.00014635224
0.00014625752
0.0001463275
0.00014632366
0.00014602149
0.00014638581
0.00014665776
0.00014637899
0.00014629303
0.00014616219
0.00014616849
0.00014633883
0.0001460964
0.00014616456
0.00014603345
0.00014622324
0.00014626799
0.00014599585
0.00014626582
0.00014628295
0.0001461686
0.00014620278
0.00014642418
0.00014632365
0.00014624692
0.0001459828
0.00014611945
0.00014617362
0.00014597365
0.0001460601
0.00014610786
0.00014621771
0.00014610871
0.00014603737
0.00014586708
0.00014591254
0.00014582379
0.000145925
0.00014589201
0.00014588066
0.00014605615
0.00014781921
0.00014877143
0.00014657872
0.00014636256
0.00014637116
0.00014641841
0.00014628518
0.00014639932
0.00014633263
0.00014656036
0.00014664629
0.00014679346
0.00014665458
0.00014659166
0.00014646931
0.00014672983
0.00014666103
0.00014648503
0.00014681448
0.00014692457
0.00014705101
0.00014676579
0.00014671656
0.00014685627
0.00014683948
0.00014649075
0.00014683356
0.00014678508
0.0001465397
0.00014670959
0.00014661332
0.0001469246
0.00014670348
0.00014670451
0.00014686702
0.00014697648
0.00014732568
0.00014699141
0.00014650735
0.00014690203
0.00014691046
0.00014682114
0.00014693261
0.00014707068
0.00014776433
0.00014678667
0.00014701842
0.00014680294
0.0001471671
0.00014677403
0.00014693414
0.00014692305
0.00014710481
0.00014675176
0.00014673902
0.00014930938
0.00015027341
0.00015494593
0.00015752523
0.00015173501
0.00015055592
0.00014744074
0.00014746154
0.00014789317
0.00014766725
0.00014768612
0.00014749115
0.00014798528
0.00014752309
0.00014780322
0.0001475035
0.00014871947
0.00014786715
0.00014768581
0.00014755539
0.00014766701
0.00014765127
0.00014714402
0.00014777665
0.00014818283
0.00014774709
0.00014761062
0.00014741061
0.00014740193
0.00014768052
0.00014728745
0.00014741655
0.00014720118
0.00014751063
0.00014756581
0.00014713829
0.00014758232
0.00014759785
0.00014742816
0.00014749748
0.00014785864
0.00014769934
0.00014755008
0.00014714068
0.00014736621
0.00014745098
0.000147118
0.0001472851
0.00014736713
0.00014753864
0.00014734844
0.00014724489
0.00014694572
0.00014703707
0.00014689441
0.00014706566
0.0001470021
0.00014699722
0.00014726371
0.00014997056
0.00015147786
0.00014815826
0.00014782877
0.00014782993
0.00014791266
0.00014769644
0.00014787088
0.00014774978
0.00014813747
0.00014826351
0.00014850219
0.00014829282
0.00014818685
0.0001479647
0.00014838352
0.00014828199
0.0001479956
0.00014850421
0.0001486995
0.00014889673
0.00014844605
0.00014835302
0.00014855618
0.00014853955
0.00014798381
0.00014851471
0.00014844906
0.00014806215
0.00014833282
0.00014816292
0.00014865558
0.00014830959
0.00014832814
0.00014857114
0.00014874039
0.00014928061
0.00014879198
0.00014797616
0.00014862069
0.00014864481
0.00014851014
0.00014865937
0.00014889825
0.00014993467
0.00014843806
0.00014881904
0.00014846131
0.0001490401
0.00014842537
0.0001486591
0.00014863183
0.00014890666
0.00014838448
0.00014835267
0.00015211065
0.00015355274
0.00016068936
0.00016456417
0.0001558141
0.00015405018
0.00014953363
0.00014957634
0.0001502062
0.00014987467
0.00014991484
0.00014963414
0.00015038896
0.00014967764
0.00015012234
0.00014965046
0.00015147717
0.00015022715
0.00014991414
0.00014974566
0.00014990469
0.00014986935
0.00014905827
0.00015009553
0.00015068135
0.00015001605
0.00014980961
0.00014951551
0.00014948542
0.00014990793
0.00014929697
0.00014951508
0.00014917828
0.00014965814
0.00014973177
0.00014908287
0.00014977155
0.00014978972
0.00014954821
0.0001496667
0.00015022705
0.00014998533
0.00014972836
0.00014910485
0.00014946494
0.00014958164
0.00014906397
0.00014935156
0.00014949054
0.00014974298
0.00014945126
0.00014929345
0.00014879956
0.0001489534
0.00014874724
0.00014901322
0.00014891215
0.00014891385
0.000149321
0.00015336991
0.00015574031
0.00015082575
0.00015032426
0.00015032006
0.00015044087
0.00015011555
0.00015035697
0.00015016397
0.00015078833
0.0001509845
0.00015133717
0.00015103403
0.0001508549
0.00015048602
0.00015112147
0.00015098789
0.00015053925
0.00015130033
0.00015163462
0.00015192722
0.0001512362
0.00015108856
0.00015137398
0.00015135296
0.00015050685
0.000151293
0.00015121242
0.00015062006
0.00015103591
0.00015076199
0.00015151211
0.00015100386
0.00015104737
0.00015139888
0.00015165123
0.00015246384
0.00015176692
0.00015046144
0.0001514719
0.00015152384
0.00015133799
0.00015152731
0.00015193317
0.0001534319
0.00015121699
0.00015179452
0.00015124798
0.00015211375
0.00015119437
0.0001515294
0.00015147231
0.00015186833
0.00015111322
0.00015105898
0.00015646761
0.00015862421
0.00016930145
0.0001750771
0.00016211292
0.00015947715
0.00015301534
0.0001530886
0.00015399173
0.00015351914
0.00015359009
0.00015320107
0.00015431437
0.00015326764
0.00015393186
0.00015323327
0.00015589318
0.0001541164
0.00015358676
0.00015338305
0.00015359039
0.00015352304
0.00015226766
0.00015390392
0.00015472691
0.00015373753
0.00015343331
0.00015301353
0.00015295036
0.00015356173
0.00015264041
0.00015298643
0.0001524749
0.00015320048
0.00015329199
0.00015234148
0.00015337649
0.00015339836
0.00015306739
0.00015324766
0.00015408961
0.0001537394
0.0001533107
0.00015238739
0.00015293848
0.00015309055
0.00015231576
0.00015278477
0.00015301346
0.00015337499
0.00015295279
0.00015271074
0.00015192672
0.00015216655
0.00015188655
0.00015228222
0.00015213867
0.00015214356
0.00015276172
0.00015869848
0.00016238192
0.00015524029
0.00015448338
0.00015447524
0.00015464672
0.00015416639
0.00015448994
0.0001541927
0.00015517282
0.00015546808
0.00015597165
0.00015554043
0.00015525337
0.00015465999
0.00015560106
0.0001554268
0.00015475681
0.00015587419
0.00015641711
0.00015683072
0.00015581336
0.000155598
0.00015597717
0.00015595505
0.00015469643
0.000155839
0.00015573623
0.00015484754
0.00015547593
0.00015504444
0.00015616829
0.00015543927
0.00015552822
0.00015602579
0.00015639155
0.00015758122
0.00015662394
0.00015458867
0.00015613628
0.00015622496
0.00015599654
0.00015621326
0.00015689669
0.00015899352
0.00015581393
0.00015665424
0.00015585056
0.00015711033
0.00015576887
0.00015621464
0.00015613303
0.00015668636
0.0001556141
0.00015551971
0.00016321536
0.00016643351
0.00018210043
0.00019060872
0.00017177232
0.00016784746
0.00015871223
0.0001588188
0.00016008903
0.00015944804
0.00015954548
0.00015902894
0.00016063979
0.00015912948
0.00016010389
0.00015909214
0.00016287381
0.00016041069
0.00015954069
0.00015931066
0.00015956148
0.00015944046
0.00015755017
0.00016005884
0.00016117134
0.00015974916
0.00015931052
0.00015872437
0.00015860661
0.00015945885
0.00015810667
0.00015863029
0.00015786889
0.00015895025
0.00015906371
0.00015769917
0.00015921941
0.0001592428
0.00015881247
0.00015906041
0.0001602923
0.00015980375
0.00015912845
0.00015777071
0.00015858664
0.00015878317
0.00015764905
0.0001583918
0.00015874891
0.00015926102
0.00015866727
0.00015830674
0.0001570911
0.00015745431
0.00015708541
0.00015766379
0.0001574614
0.00015747338
0.00015839672
0.00016695103
0.00017259577
0.00016238802
0.00016127444
0.00016124955
0.00016149432
0.0001607953
0.00016121845
0.00016076951
0.00016227702
0.00016270682
0.00016341145
0.00016280167
0.00016236495
0.00016143435
0.00016280131
0.00016257295
0.00016159458
0.0001632271
0.00016407053
0.00016463358
0.00016316171
0.00016287614
0.00016336221
0.0001633332
0.00016150843
0.00016313124
0.00016300598
0.00016170076
0.00016261779
0.00016198173
0.00016360539
0.0001626109
0.00016276613
0.00016345683
0.0001639807
0.00016567697
0.00016438388
0.0001613087
0.00016360503
0.00016376606
0.00016349757
0.00016373497
0.00016483603
0.00016771363
0.00016324206
0.00016444664
0.00016327727
0.0001650735
0.00016315172
0.00016374992
0.00016363347
0.00016437553
0.00016287383
0.00016275422
0.00017356794
0.00017834518
0.00020087998
0.00021322123
0.00018640846
0.00018060771
0.00016784594
0.00016797142
0.00016971912
0.00016888381
0.00016901373
0.00016833939
0.000170616
0.00016848964
0.00016988563
0.00016846024
0.00017372331
0.00017038291
0.00016900131
0.00016876104
0.00016904329
0.00016883059
0.00016605733
0.00016980481
0.00017127402
0.00016928028
0.000168648
0.00016785194
0.00016764275
0.00016879766
0.00016685792
0.00016762557
0.00016651807
0.00016809871
0.00016822162
0.00016631497
0.00016848587
0.00016852458
0.00016798013
0.00016830705
0.00017005543
0.00016941099
0.00016836407
0.00016641291
0.00016757614
0.0001678419
0.00016620282
0.0001673606
0.00016788999
0.00016861411
0.0001677819
0.00016727289
0.00016541349
0.00016596555
0.00016548356
0.00016632439
0.00016602882
0.00016607342
0.00016740733
0.00017953665
0.00018803115
0.00017368924
0.00017209808
0.00017202743
0.00017238158
0.00017137879
0.00017192078
0.00017125092
0.00017352821
0.0001741319
0.00017510591
0.00017424421
0.00017361361
0.00017218649
0.00017413714
0.00017383296
0.0001724556
0.00017477799
0.00017606559
0.00017680746
0.00017473397
0.00017435729
0.00017496492
0.00017490769
0.00017234351
0.00017457663
0.00017445573
0.0001725542
0.00017388684
0.00017295472
0.0001752706
0.00017393069
0.00017421391
0.00017512497
0.00017588784
0.00017821717
0.00017656048
0.00017202979
0.00017534924
0.00017563855
0.0001753381
0.00017558543
0.0001772939
0.00018116159
0.00017498807
0.00017665402
0.00017500587
0.00017750105
0.0001748268
0.00017558014
0.00017543663
0.00017637175
0.00017434845
0.00017421674
0.00018923307
0.00019625217
0.00022798652
0.00024555459
0.00020821615
0.00019975399
0.00018214219
0.00018226794
0.00018460211
0.0001835581
0.0001837274
0.00018287063
0.00018600581
0.00018309267
0.00018502748
0.00018309368
0.00019029245
0.00018583283
0.0001837305
0.00018348697
0.00018379628
0.00018341221
0.00017946109
0.0001849065
0.00018678074
0.00018406948
0.00018316251
0.00018210373
0.00018173291
0.00018328335
0.00018052838
0.00018165714
0.0001800774
0.00018232261
0.00018244569
0.00017983681
0.0001828615
0.00018294144
0.00018227656
0.00018270306
0.00018512412
0.00018429905
0.00018270883
0.00017997796
0.00018157803
0.00018194319
0.00017961856
0.00018138086
0.00018212436
0.0001831489
0.00018199574
0.00018130194
0.0001785105
0.00017933743
0.00017872093
0.00017992259
0.00017948706
0.00017960705
0.00018147768
0.00019836947
0.00021087767
0.00019108545
0.00018890976
0.00018871388
0.00018925617
0.0001878215
0.00018852191
0.00018750658
0.00019090342
0.00019170019
0.00019306296
0.00019183988
0.00019097326
0.00018881614
0.00019157468
0.00019113265
0.00018929378
0.00019248233
0.00019443542
0.00019534756
0.00019253603
0.00019204054
0.00019277376
0.00019264645
0.00018911248
0.00019214081
0.00019202371
0.00018937263
0.00019124458
0.00018988677
0.00019315237
0.00019135684
0.00019184242
0.00019307261
0.00019414906
0.00019728401
0.00019517493
0.00018866226
0.00019334243
0.00019383683
0.00019353484
0.0001937587
0.0001963331
0.00020143818
0.00019309559
0.00019533086
0.00019306541
0.00019645657
0.0001927947
0.00019376876
0.00019356765
0.00019472637
0.00019204206
0.00019194563
0.00021252021
0.00022267518
0.00026635606
0.0002908342
0.00024005985
0.00022792986
0.00020397114
0.00020403477
0.00020712584
0.00020581339
0.00020603988
0.00020496503
0.00020919056
0.00020528901
0.00020790231
0.00020536101
0.00021498029
0.00020917006
0.00020604022
0.00020584977
0.00020613084
0.00020550144
0.00019998985
0.00020773349
0.00021008395
0.00020647405
0.00020518492
0.00020378958
0.00020315129
0.00020521592
0.00020134717
0.00020300227
0.00020078342
0.00020389571
0.00020400714
0.00020051542
0.00020461086
0.00020479551
0.00020400099
0.00020457406
0.00020783089
0.00020681942
0.00020445397
0.00020074072
0.0002028579
0.00020336797
0.0002001353
0.00020274602
0.0002037417
0.00020519133
0.00020359863
0.00020268943
0.00019857556
0.000199809
0.00019903295
0.00020072082
0.00020006228
0.00020034738
0.000202871
0.00022593814
0.00024395483
0.00021725011
0.00021432563
0.00021394646
0.00021471701
0.00021275195
0.00021359747
0.00021210714
0.00021705966
0.00021809436
0.0002199471
0.00021821272
0.00021710152
0.00021396579
0.00021773117
0.00021713571
0.00021472914
0.00021902939
0.00022187317
0.00022298554
0.00021923362
0.00021858114
0.00021940889
0.00021916292
0.00021443165
0.0002184623
0.00021834502
0.00021472495
0.00021732866
0.00021532924
0.00021988223
0.00021749309
0.00021834938
0.00021993683
0.00022146224
0.00022558979
0.00022298755
0.00021386173
0.00022028635
0.0002211141
0.00022084218
0.00022100917
0.00022475841
0.00023136398
0.0002203005
0.00022318282
0.00022016945
0.00022465297
0.00021978846
0.00022098012
0.00022070638
0.00022216046
0.00021864875
0.00021866262
0.0002464187
0.0002608314
0.00031948795
0.0003528062
0.00028551036
0.00026847103
0.00023645741
0.00023629477
0.00024029574
0.00023868031
0.00023900722
0.00023768015
0.00024326595
0.00023812184
0.00024159573
0.00023833123
0.00025095977
0.00024351715
0.00023904583
0.00023892707
0.00023915684
0.00023810491
0.00023066216
0.00024134753
0.00024424453
0.00023954584
0.00023774256
0.00023592777
0.00023481782
0.00023757277
0.00023223594
0.00023462007
0.00023157969
0.00023579195
0.00023591527
0.00023129009
0.00023668018
0.00023705546
0.00023617161
0.00023693928
0.0002412502
0.00024002041
0.00023663454
0.00023168458
0.00023438736
0.00023508484
0.00023072619
0.00023444055
0.00023568663
0.00023775864
0.00023563034
0.00023441974
0.00022854329
0.00023030954
0.00022939633
0.00023167072
0.00023074416
0.00023127078
0.00023460138
0.00026535023
0.00029060584
0.00025541923
0.00025167017
0.00025095839
0.00025207852
0.00024945161
0.00025044139
0.00024834662
0.00025527795
0.00025670064
0.00025913612
0.00025668555
0.00025527758
0.00025092525
0.00025593497
0.00025513521
0.00025211926
0.00025773864
0.00026176601
0.00026313374
0.00025820701
0.00025730015
0.00025822046
0.00025768841
0.00025156811
0.0002568507
0.00025675344
0.00025186572
0.00025538891
0.0002525569
0.00025878924
0.00025564062
0.00025704022
0.00025910908
0.00026123997
0.00026654947
0.0002633506
0.00025089452
0.00025948296
0.00026079457
0.00026062475
0.00026067209
0.00026596924
0.00027429471
0.00025997209
0.00026364865
0.00025965886
0.00026553863
0.00025915576
0.00026063606
0.00026024041
0.00026202716
0.00025748594
0.00025787469
0.00029460331
0.00031463428
0.00039133938
0.00043559248
0.00034880142
0.00032537869
0.00028350864
0.00028277499
0.00028788187
0.00028589867
0.00028641083
0.00028476608
0.00029204031
0.0002853276
0.00028990663
0.00028577318
0.00030189994
0.00029267011
0.00028642271
0.0002864866
0.00028655641
0.00028492673
0.00027511003
0.00028950401
0.00029303961
0.00028705412
0.00028459536
0.00028222805
0.00028039797
0.00028403082
0.00027680397
0.00028016663
0.00027610644
0.00028170034
0.00028180009
0.00027577647
0.00028276408
0.00028336228
0.00028251032
0.00028353786
0.0002891527
0.0002876448
0.00028285508
0.00027654196
0.00027980363
0.00028077846
0.00027502852
0.0002801489
0.00028164999
0.00028458388
0.00028177747
0.00028017334
0.00027204344
0.00027449648
0.00027344334
0.00027644712
0.00027511521
0.00027606893
0.0002802452
0.00032025816
0.00035481534
0.00030969235
0.0003050367
0.00030382465
0.00030537122
0.00030191865
0.00030307152
0.00030018806
0.00030968256
0.00031146562
0.00031471226
0.00031119524
0.00030963712
0.00030364679
0.00031022294
0.00030902511
0.00030557089
0.00031260765
0.00031823507
0.00031989913
0.00031354141
0.00031240227
0.0003131058
0.00031234986