/*--------------------------------*- C++ -*----------------------------------*\
| =========                 |                                                 |
| \\      /  F ield         | OpenFOAM: The Open Source CFD Toolbox           |
|  \\    /   O peration     | Version:  v2012                                 |
|   \\  /    A nd           | Website:  www.openfoam.com                      |
|    \\/     M anipulation  |                                                 |
\*---------------------------------------------------------------------------*/
FoamFile
{
    version     2.0;
    format      ascii;
    class       volScalarField;
    location    "100";
    object      p;
}
// * * * * * * * * * * * * * * * * * * * * * * * * * * * * * * * * * * * * * //

dimensions      [0 2 -2 0 0 0 0];


internalField   nonuniform List<scalar> 
75385
(
0.02934057
0.028734314
0.02803762
0.027274707
0.026465253
0.025619574
0.024745931
0.02385382
0.02295086
0.022042029
0.02113135
0.020223176
0.019322072
0.018431826
0.017554435
0.016691784
0.015846281
0.015019772
0.014211802
0.01342201
0.012651599
0.011901601
0.011172193
0.010464186
0.0097764952
0.0091059558
0.0084496256
0.0078090161
0.0071848196
0.0065770042
0.0059815754
0.0053964002
0.0048177794
0.0042416847
0.0036617933
0.0030928067
0.0025092298
0.0019901654
0.0013477694
0.0008963239
0.00012272512
0.0001759666
6.8561051e-05
0.00021111662
-3.0091439e-05
0.00025664364
-0.00015971632
0.00033402315
-0.00032262173
0.00042742792
-0.000560119
0.00051946248
-0.00080885334
0.00062297031
-0.0010374641
0.00067963936
-0.0012100317
0.00059650709
-0.0012684925
0.00022981999
-0.0013604894
-3.9127844e-05
0.00039341026
0.00050632373
-0.0007576377
9.7776043e-05
0.00062908264
0.0012495358
0.0011663676
0.0010576661
0.0012039379
0.0010267265
0.0011684167
0.00098238422
0.0010729011
0.00092619999
0.00095375852
0.00086713393
0.0009252913
0.00086199121
0.00098873203
0.0010475809
0.0010748585
0.00080105834
0.00063614313
0.0006845062
0.00072090485
0.0005920162
0.00051431649
0.00047656079
0.00052410151
0.00055845626
0.00056435056
0.00049988263
0.0004847859
0.00043761897
0.00045500887
0.00054768261
0.00055759941
0.00053022519
0.00060354749
0.0011433656
0.0010723812
0.00090976353
0.00084076356
-0.00036487771
-0.0011672457
-0.0014329043
-0.00014012132
0.00053170114
2.5409168e-05
-0.00016094486
-0.00021698719
-0.00024075826
-0.00025180913
-0.0002638266
-0.00028358124
-0.00027950828
-0.00031881695
-0.00032206097
-0.00032737569
-0.00030061831
-0.00025566522
-0.0002242589
-0.00020722256
-0.00020174005
-0.00018999181
-0.00019837075
-0.00020110577
-0.00019512579
-0.00022103914
-0.00020202455
-0.00021364642
-0.0002056045
-0.00021747009
-0.00021123919
-0.00021250171
-0.00020820009
-0.00021882489
-0.00021131362
-0.00021193742
-0.00022830873
-0.00022244793
-0.0002229847
-0.00021722883
-0.00019021839
-0.00019567345
-0.00021307431
-0.00022842513
-0.00021327385
-0.00024499933
-0.00023160155
-0.00026389691
-0.00025923177
-0.00025721795
-0.00025146112
-0.00025916969
-0.00024521307
-0.00026403036
-0.00023884651
-0.0002614281
-0.00023269178
-0.000252106
-0.00022592546
-0.00023727545
-0.00021487338
-0.00023080438
-0.0002093521
-0.00020996995
-0.00019706257
-0.00018594681
-0.00018966307
-0.00016527274
-0.00017224791
-0.00014805102
-0.00014245489
-0.0001348371
-0.00011902551
-9.9977049e-05
-9.7994325e-05
-7.6274236e-05
-8.3397888e-05
-4.3901227e-05
-6.8769257e-05
-1.7618787e-05
-5.4750332e-05
9.3186832e-06
-3.0272056e-05
1.9388803e-05
-2.0303622e-06
3.0768501e-05
4.8739512e-06
4.8415077e-05
1.4690151e-05
7.3328708e-05
3.378876e-05
7.2956098e-05
4.978905e-05
8.3310671e-05
5.8780219e-05
7.9609903e-05
6.5571381e-05
8.7726527e-05
0.00010001967
0.00016808258
0.0001581716
0.00017291566
0.00089776462
0.00082033944
0.00082403395
0.00073956805
0.0007179745
0.00063840832
0.00065156772
0.0005839985
0.00059971738
0.00051511052
0.00052732118
0.00043320985
0.00046510472
0.00034361701
0.00036383337
0.00025229956
0.00025365076
0.0001593742
0.00015277787
4.1269591e-05
6.6612477e-05
-7.8312637e-05
-6.5014589e-05
-0.00019250349
-0.00019384967
-0.00028869521
-0.0003174926
-0.00039192316
-0.00044383794
-0.00051727328
-0.00059740406
-0.00064937285
-0.00070229234
-0.00076974039
-0.00081762118
-0.00088884806
-0.00093542478
-0.00097746352
-0.0010515527
-0.001084014
-0.0011661111
-0.0011677295
-0.001252217
-0.0012597351
-0.0013366632
-0.0013192754
-0.0014054195
-0.0013815481
-0.0014474619
-0.0014264051
-0.0014721037
-0.0014573006
-0.0014862793
-0.0014676272
-0.0014856599
-0.0014350422
-0.0014496866
-0.0013787736
-0.0013561935
-0.0020101281
-0.0027154949
-0.0032497058
-0.0038306479
-0.004376052
-0.0049921344
-0.0056387056
-0.0063066642
-0.0069894023
-0.0076930285
-0.0084158423
-0.0091657366
-0.0099492497
-0.010770875
-0.011630055
-0.012532479
-0.013483185
-0.014485734
-0.015541805
-0.01665926
-0.01783962
-0.019090131
-0.020410325
-0.021811652
-0.023296399
-0.024871276
-0.026546984
-0.028337619
-0.03025233
-0.032298778
-0.034483609
-0.036820543
-0.039325859
-0.042013727
-0.044896199
-0.047989894
-0.051313254
-0.054887207
-0.058731588
-0.06287206
-0.067333612
-0.072144369
-0.077332729
-0.082931676
-0.088974404
-0.095492634
-0.10253
-0.11012788
-0.11831833
-0.1271716
-0.12691734
-0.11807513
-0.10990241
-0.10231733
-0.095293567
-0.088787601
-0.08275492
-0.077166599
-0.071989058
-0.067187383
-0.062735036
-0.058603702
-0.054769095
-0.051203092
-0.047887789
-0.044801439
-0.041926393
-0.039244908
-0.036745609
-0.034414686
-0.032235924
-0.030194255
-0.028284874
-0.026497951
-0.024824534
-0.023247892
-0.021764877
-0.02036749
-0.019055068
-0.017807073
-0.016631932
-0.01551569
-0.014462484
-0.013460763
-0.012512545
-0.011613688
-0.010756597
-0.0099349303
-0.0091514492
-0.0084005594
-0.0076761245
-0.0069719913
-0.0062910188
-0.0056288727
-0.0049943336
-0.0043809235
-0.0038424705
-0.0032394045
-0.0027256759
-0.0019906877
-0.0020149411
-0.0019917276
-0.0020113749
-0.0020015595
-0.0020015204
-0.0019662493
-0.0019637759
-0.0019098457
-0.001911848
-0.0018356509
-0.0018393931
-0.0017407477
-0.0017414443
-0.0016524982
-0.0016116038
-0.0015063056
-0.0014786394
-0.0013705746
-0.001305496
-0.0012045259
-0.0011382837
-0.0010707735
-0.00095958516
-0.00089315956
-0.00079192957
-0.0007099388
-0.0006315449
-0.0005125733
-0.00041959745
-0.00035742284
-0.00025342838
-0.00019983044
-7.1455247e-05
-6.4495338e-05
0.00010592655
0.00011691531
0.00030039746
0.00028066635
0.00042000371
0.00043886933
0.00056412514
0.00057240469
0.00071779201
0.00071103809
0.00085813147
0.00082934551
0.00094358499
0.00094183791
0.0010459517
0.0010433334
0.0011535455
0.0011593135
0.0012455491
0.0012460742
0.0013209386
0.0013231071
0.001371119
0.0019794802
0.0019280618
0.0019170371
0.0018528691
0.0018587813
0.0017552975
0.0017534653
0.0016352038
0.0016337
0.0015103101
0.0014945556
0.0013580175
0.0013516883
0.0011867043
0.0011863062
0.0010200579
0.00098564661
0.00083013291
0.00078118856
0.00061434992
0.00058363145
0.00037807486
0.0003565741
0.00015422803
0.00011117325
-4.1897842e-05
-0.00013269666
-0.00026923784
-0.00039361427
-0.00049090283
-0.00065413702
-0.00075413722
-0.00088159132
-0.0010195152
-0.0010993072
-0.0012335016
-0.0013480741
-0.0014378086
-0.0015852998
-0.0016655744
-0.0018238143
-0.0018904751
-0.0020303028
-0.002093368
-0.0022213054
-0.0022469784
-0.0023808604
-0.0023871454
-0.0024906851
-0.0024868788
-0.0025847014
-0.0026030088
-0.0026784926
-0.0026877069
-0.0027341577
-0.0027289101
-0.0027600872
-0.0032475352
-0.0032003842
-0.0032107842
-0.0031365174
-0.0031427305
-0.0030413624
-0.0030534869
-0.0029125194
-0.0029416303
-0.0027875576
-0.0027723244
-0.0026003328
-0.0025604805
-0.0024022144
-0.0023240935
-0.0021489517
-0.0020640237
-0.0018638844
-0.0017855143
-0.0015970346
-0.0014978357
-0.0013406599
-0.0012131556
-0.0010926608
-0.00091815426
-0.00073126084
-0.00060891292
-0.00040601929
-0.00028760795
-0.00011681749
3.7027921e-05
0.00016439305
0.00032397976
0.00040895116
0.00060989437
0.00066000153
0.00089421301
0.0009736569
0.0011516823
0.0012301687
0.0013999457
0.001453464
0.0016160572
0.0016398112
0.0018230991
0.0018672589
0.0020149999
0.0020510766
0.0021842286
0.0021967923
0.0023131186
0.0023253515
0.002426913
0.0024172542
0.0024831578
0.0024925069
0.0025200916
0.0030927441
0.003070466
0.0030631099
0.0030004876
0.0030052913
0.0029023631
0.0028752511
0.0027453671
0.002737415
0.0025921352
0.0025482104
0.0023809579
0.0023141409
0.002110965
0.0020512997
0.0018599137
0.0018090644
0.0016148924
0.0015190618
0.0013150107
0.0011986005
0.00093762395
0.00085828583
0.00063748797
0.00052079845
0.00032499052
0.00018292049
-7.6421658e-06
-0.00021385648
-0.00037066024
-0.00059803277
-0.00074311218
-0.00095428293
-0.0011564061
-0.0013301372
-0.0015032063
-0.001675421
-0.0018148508
-0.0020314252
-0.0021395601
-0.0023642499
-0.0024842202
-0.0026735587
-0.0027821252
-0.0029603628
-0.0030308144
-0.0032207062
-0.0032621341
-0.0034429146
-0.0034596879
-0.0036011838
-0.0036122644
-0.0037090972
-0.0037193423
-0.0038009965
-0.0038027224
-0.0038467845
-0.0043752927
-0.0043296955
-0.0043320337
-0.0042331585
-0.004230019
-0.0041189665
-0.0040864885
-0.0039393403
-0.003895746
-0.0037030878
-0.0036354924
-0.0034238529
-0.0033340911
-0.003131082
-0.0029981616
-0.0027946632
-0.0026520983
-0.002391094
-0.0022764963
-0.0020277764
-0.0018686968
-0.0016758609
-0.0014693098
-0.0012516318
-0.0010141203
-0.00077404469
-0.00059609391
-0.0003384529
-0.00013048215
0.0001049455
0.00029779396
0.00047315784
0.00069873941
0.00085047735
0.0010829188
0.0011979494
0.001491799
0.0016473662
0.00185477
0.0019774021
0.0021828701
0.0022641476
0.0024837243
0.0025668816
0.0027909284
0.0028802621
0.0030496872
0.0031062543
0.0032589851
0.0032799613
0.0034273552
0.0034614195
0.0035588301
0.0035607519
0.0036293928
0.0036398889
0.0036595711
0.004234941
0.0042119976
0.0041992926
0.004132246
0.0041185922
0.0040139861
0.0039705459
0.0038195705
0.0037746928
0.0036138626
0.0035433725
0.0033504876
0.0032628199
0.0030266256
0.0029141823
0.0026736518
0.0025577381
0.0023305742
0.0021713036
0.0019252067
0.001773736
0.0014761062
0.0012999365
0.0010379454
0.00085972462
0.00060180002
0.00038506965
0.00014015684
-8.8150072e-05
-0.00032343065
-0.00060441611
-0.00080535788
-0.0010943587
-0.0013305707
-0.0016099169
-0.0018645588
-0.0020926504
-0.002282552
-0.0025622608
-0.0027012658
-0.0029905266
-0.0031598391
-0.0033802415
-0.0035312414
-0.0037635131
-0.0038674401
-0.0041028371
-0.0041954097
-0.004412513
-0.0044779929
-0.0046390185
-0.0046846343
-0.0048085399
-0.0048192033
-0.0049298823
-0.0049265022
-0.0049785348
-0.0056216669
-0.0055592352
-0.005566591
-0.0054371909
-0.0054305227
-0.0052805601
-0.0052032959
-0.0050235032
-0.0049220256
-0.0046977745
-0.0046060436
-0.0043433412
-0.004232999
-0.0039605827
-0.0038038133
-0.0035533407
-0.0033498263
-0.0030234078
-0.0028770852
-0.0025503069
-0.0023370981
-0.0020724899
-0.0017519022
-0.001444773
-0.0012035264
-0.00087707989
-0.00067940259
-0.00034749855
-9.7087404e-05
0.00016973289
0.00046628998
0.00072461684
0.0010067829
0.0012139704
0.0015088306
0.0017240173
0.0020266098
0.0022044389
0.002485455
0.0026844904
0.0029211264
0.003063835
0.0033382237
0.0034719164
0.0037158028
0.0038168034
0.0040316547
0.0041138017
0.004291485
0.0043538548
0.0045160953
0.0045673781
0.0046752
0.0046966212
0.0047665251
0.004782755
0.0048080334
0.0053866193
0.0053601916
0.0053426295
0.005274426
0.005234895
0.0051146263
0.0050604656
0.0049041249
0.0048105395
0.0046125015
0.0045165534
0.0042826365
0.0041636587
0.0039042198
0.0037609388
0.0034761264
0.0032915968
0.0030323383
0.0028042201
0.0025037154
0.0022985263
0.0019752873
0.0017256586
0.0014011646
0.0011587078
0.00083315268
0.00055114545
0.00021510169
-8.6815679e-05
-0.00036500097
-0.0007446049
-0.0010008726
-0.0013364571
-0.0016072938
-0.0019066979
-0.0022530825
-0.0025788748
-0.0028208364
-0.0031957933
-0.0033994227
-0.003725016
-0.0039670538
-0.004240052
-0.0044153016
-0.0047143669
-0.0048515492
-0.0051304113
-0.0052481406
-0.0054736956
-0.00559476
-0.0058009329
-0.0058949259
-0.0060661135
-0.0060989534
-0.0062221568
-0.0062288475
-0.0062888669
-0.0069605145
-0.006902374
-0.0068701286
-0.0067539371
-0.0066840518
-0.0065223151
-0.0064071464
-0.0061848317
-0.0060738937
-0.0058189099
-0.0056731589
-0.0053807901
-0.0052258178
-0.004896235
-0.0047174691
-0.0044002546
-0.0041046251
-0.0037701928
-0.0035069161
-0.0031066332
-0.0028448462
-0.0024749949
-0.0021187964
-0.0017717929
-0.0014787989
-0.0011154469
-0.00079146442
-0.00037715595
-8.117119e-05
0.00025533729
0.00064160318
0.00096440501
0.0013281566
0.0015924401
0.0019333403
0.0022195517
0.0025741616
0.0027986219
0.0031201403
0.0033853249
0.0036663273
0.0038741061
0.0041680274
0.0043375187
0.0046211796
0.0047634975
0.0050168635
0.0051259306
0.0053469704
0.0054495641
0.0056020505
0.0056681927
0.0058022173
0.0058506204
0.0059225518
0.0059432251
0.0059726744
0.0065681624
0.0065352701
0.0065099003
0.0064304063
0.0063732975
0.0062388515
0.0061593251
0.0059949749
0.0058788113
0.0056508595
0.0055294562
0.0052607519
0.0050955652
0.0048049638
0.0045957569
0.0042867066
0.0040483385
0.0037263732
0.0034436524
0.0031136606
0.0028497263
0.0024518861
0.0021357858
0.0017747152
0.0014883827
0.001075141
0.00073508003
0.00033132555
-6.3599542e-05
-0.00039614044
-0.00083645178
-0.0012130238
-0.0016234579
-0.0019558525
-0.0023123785
-0.0026916425
-0.0031159977
-0.0034272596
-0.0038343869
-0.0041600723
-0.0045082831
-0.0048120419
-0.0051871476
-0.0054029589
-0.0057490754
-0.0059445993
-0.0062365456
-0.0064111715
-0.006688991
-0.0068199002
-0.0070391042
-0.0071766561
-0.0073425247
-0.0074347144
-0.0075536903
-0.0075979479
-0.0076608892
-0.0083781877
-0.0083073758
-0.0082544071
-0.0081315998
-0.0080232956
-0.0078556409
-0.0076991075
-0.0074713968
-0.0073103998
-0.007015936
-0.0068204938
-0.0065122374
-0.0062715645
-0.0059112814
-0.0056520152
-0.0052474537
-0.0049275788
-0.0045375055
-0.0041621887
-0.0037338918
-0.0033749403
-0.0029191286
-0.0025441049
-0.0021312666
-0.0017369661
-0.0013079087
-0.00087423532
-0.00040007075
-3.2009924e-05
0.00039521554
0.00081792624
0.0012015433
0.001634178
0.0019623142
0.0023565593
0.0026953991
0.0031142756
0.0034196441
0.0037930781
0.0040988173
0.0044471353
0.0047144751
0.0050396899
0.0052751365
0.0055717987
0.005765557
0.0060405698
0.0061789996
0.0064184005
0.0065597387
0.0067269974
0.0068140258
0.0069542552
0.007026677
0.0071090104
0.0071388641
0.0071753512
0.0077984359
0.0077589109
0.0077265604
0.0076385314
0.007554248
0.0074113268
0.0073014852
0.0071279093
0.0069706174
0.0067227123
0.0065637551
0.0062839873
0.0060616183
0.0057577682
0.0054924259
0.0051538645
0.0048547897
0.004483171
0.0041494618
0.0037522149
0.003401155
0.0029470171
0.0025749749
0.0021607574
0.0017947133
0.0013266865
0.00090650761
0.00046057396
-7.8726541e-06
-0.0004316167
-0.00092508707
-0.0013933971
-0.0018681526
-0.0023018286
-0.0027572674
-0.0031632707
-0.003652925
-0.0040740341
-0.0045120372
-0.0049174445
-0.005351242
-0.0057007873
-0.006141765
-0.0064443029
-0.0068249098
-0.0070977119
-0.0074259233
-0.0076509861
-0.0079644096
-0.0081543421
-0.0083914951
-0.0085606684
-0.008742076
-0.0088564934
-0.0089889213
-0.0090458377
-0.0091246241
-0.0099056568
-0.0098222749
-0.0097560879
-0.009611982
-0.0094849788
-0.0092872956
-0.0091013617
-0.0088468986
-0.008623155
-0.0082955915
-0.0080527138
-0.007700473
-0.0073855749
-0.0069814087
-0.0066285567
-0.0061623432
-0.0057990042
-0.0053265736
-0.0048960265
-0.0044181461
-0.0039360861
-0.0034219057
-0.0029930697
-0.0024887954
-0.0020057364
-0.0014984994
-0.00098668481
-0.00046055476
4.3176042e-06
0.00051236748
0.00097992692
0.0014498395
0.0019474254
0.0023626886
0.0028077637
0.0031976892
0.0036993988
0.0040878377
0.00451416
0.0048683997
0.0052599834
0.0055909012
0.0059445639
0.0062382054
0.0065559867
0.0068060914
0.0070916753
0.0072758129
0.0075455366
0.0077145262
0.007904711
0.0080231325
0.0081776684
0.00826624
0.0083617494
0.0083978404
0.0084391115
0.0090953001
0.0090521091
0.0090126269
0.0089140819
0.0088217621
0.0086579088
0.0085171042
0.008307777
0.0081359346
0.0078637742
0.0076358073
0.0073403131
0.0070593916
0.0067273049
0.0064016367
0.0060327342
0.0056671061
0.0052558723
0.0048657323
0.0044062402
0.0040046823
0.0034741125
0.0030374332
0.0025649597
0.0021159632
0.0015866173
0.0010556843
0.00055315575
2.9166151e-06
-0.00051503256
-0.0010588731
-0.0016011254
-0.002152409
-0.0026680275
-0.0032204296
-0.0037155352
-0.0042543523
-0.0047652074
-0.0052854216
-0.0057465206
-0.0062683589
-0.006673233
-0.0071496415
-0.0075376643
-0.0079712463
-0.0083138096
-0.0087078078
-0.0089845827
-0.0093205994
-0.009567442
-0.0098419098
-0.010043864
-0.010258842
-0.010402374
-0.010560184
-0.010639776
-0.010727227
-0.011582093
-0.011490586
-0.011398641
-0.011233386
-0.011080613
-0.010846195
-0.010631172
-0.01033006
-0.010063862
-0.0096986267
-0.0093903398
-0.0089705201
-0.0086003432
-0.0081297442
-0.0077108089
-0.0072007998
-0.0067477485
-0.0061914232
-0.005694982
-0.0051394188
-0.0045852863
-0.0039979803
-0.0034599011
-0.0028667093
-0.0023029463
-0.0017111605
-0.0011321891
-0.00055313278
1.6304237e-05
0.00059917484
0.0011455653
0.0017170169
0.0022640077
0.0027629007
0.0032978034
0.0037528657
0.0043146505
0.0047520455
0.0052447241
0.0056619958
0.0061036749
0.0064936536
0.0068883639
0.0072366775
0.007595131
0.0078936398
0.0082156885
0.0084592288
0.0087404981
0.0089301777
0.0091570118
0.009309262
0.0094786371
0.0095751309
0.009679815
0.0097227223
0.009766341
0.010454943
0.010410193
0.010361778
0.010251607
0.010145891
0.0099720146
0.0098147511
0.0095757928
0.0093576199
0.0090643255
0.0087990286
0.0084578207
0.0081354783
0.0077587274
0.0073801649
0.006964275
0.0065442862
0.0060766002
0.0056244976
0.0051025693
0.0046313607
0.0040455347
0.0035467451
0.0029819159
0.0024325361
0.001844918
0.0012276202
0.00063665881
1.3161772e-05
-0.00059729848
-0.0012160029
-0.0018295216
-0.0024650734
-0.0030750042
-0.0037143902
-0.0043129362
-0.0049357818
-0.005527028
-0.0061243304
-0.0066649297
-0.007258697
-0.0077565856
-0.0082954263
-0.0087534872
-0.009255703
-0.0096581742
-0.010109266
-0.010453578
-0.010840712
-0.011133798
-0.011454474
-0.011691214
-0.011941419
-0.012109826
-0.01227992
-0.012382133
-0.012477556
-0.01342372
-0.013322706
-0.013212685
-0.013030018
-0.012844268
-0.012577845
-0.012317389
-0.011976492
-0.011653894
-0.011240269
-0.010860097
-0.010380676
-0.0099420169
-0.0094057191
-0.0089095589
-0.0083366459
-0.0077815099
-0.0071482055
-0.0065702143
-0.0059371916
-0.0052936205
-0.0046244447
-0.0039745034
-0.0033000588
-0.0026412204
-0.0019619359
-0.0013128382
-0.00064807277
1.3066237e-05
0.00068031665
0.0013275
0.001983486
0.0026008038
0.0031937203
0.0038022843
0.0043361884
0.0049571837
0.0054664771
0.0060239249
0.0065015641
0.0070060522
0.0074485181
0.0078976553
0.0082974834
0.0087011691
0.0090407032
0.0094066866
0.0096868871
0.01000165
0.010237129
0.01047984
0.010647012
0.010833719
0.010945455
0.01106345
0.011115978
0.011161896
0.01188823
0.011841072
0.011783599
0.011659035
0.011542287
0.01134703
0.011159901
0.010905684
0.010655685
0.010327766
0.010029448
0.0096425979
0.0092826151
0.0088546921
0.0084292027
0.007948116
0.0074771825
0.0069388337
0.0064295679
0.0058371785
0.0052869739
0.0046476681
0.0040553553
0.0034131218
0.0027638939
0.0020984349
0.0014201142
0.00072689039
1.5625368e-05
-0.00067801148
-0.0014176993
-0.0021109653
-0.0028397053
-0.0035526042
-0.00426168
-0.0049661247
-0.0056687914
-0.0063504863
-0.0070413565
-0.0076705085
-0.0083343028
-0.008931099
-0.0095525038
-0.010092425
-0.0106648
-0.011140807
-0.01165398
-0.01207101
-0.012512355
-0.012865616
-0.013228099
-0.013511838
-0.013796065
-0.01400023
-0.014193638
-0.014314338
-0.014420834
-0.015466668
-0.015357291
-0.015223875
-0.015018577
-0.014794129
-0.014492596
-0.014181923
-0.013797866
-0.013408283
-0.01293969
-0.012484711
-0.011939255
-0.011418824
-0.010810659
-0.010225517
-0.0095649973
-0.0089229679
-0.0082115871
-0.0075340494
-0.0067984949
-0.0060708475
-0.0053156096
-0.0045609617
-0.0038091841
-0.0030342708
-0.0022622129
-0.0015149162
-0.00072759696
9.8667803e-06
0.00077001981
0.0015061385
0.0022270489
0.0029418321
0.0036381389
0.0043188712
0.0049520098
0.0056293411
0.006225359
0.0068475001
0.0073954327
0.0079647362
0.0084678178
0.0089736191
0.0094303378
0.0098778695
0.010263163
0.010668573
0.01098719
0.011329211
0.011602038
0.011865413
0.01206563
0.012269367
0.012394403
0.012524095
0.012587805
0.012636113
0.013405281
0.013355753
0.013285139
0.013154366
0.013016678
0.012806294
0.012584289
0.012314527
0.012018447
0.011666239
0.011325106
0.010903367
0.010489767
0.010020669
0.0095316585
0.0089913707
0.0084572654
0.0078534531
0.0072658337
0.0066117311
0.0059731302
0.0052649205
0.0045778489
0.0038597267
0.0031142633
0.0023539012
0.001588365
0.00080860071
1.676964e-06
-0.0007832456
-0.0016279175
-0.0024256371
-0.0032493384
-0.004080676
-0.004884889
-0.0056920045
-0.0064952861
-0.0072704751
-0.0080587891
-0.0087903674
-0.0095451372
-0.010233655
-0.010939298
-0.011569434
-0.012215914
-0.012780706
-0.013364759
-0.013858124
-0.014355378
-0.01478002
-0.015192486
-0.01553031
-0.015851396
-0.016095987
-0.016315596
-0.016459111
-0.016576692
-0.017745887
-0.017624317
-0.017465307
-0.017232187
-0.016964177
-0.016623612
-0.016252879
-0.015814045
-0.015354807
-0.014826619
-0.014288706
-0.013668882
-0.013057295
-0.012370794
-0.011690689
-0.010939862
-0.010198853
-0.0093966011
-0.0086082898
-0.007771653
-0.0069407013
-0.0060848029
-0.0052220743
-0.0043663497
-0.003477222
-0.0026027233
-0.0017442498
-0.00084880291
-1.1718057e-05
0.00084143123
0.0016678096
0.002481289
0.0032954246
0.0040914125
0.0048483034
0.005572133
0.0063189235
0.0069997433
0.0076928861
0.0083185
0.0089593555
0.0095240426
0.010106745
0.010623975
0.011118799
0.011556644
0.011996612
0.01235961
0.012729355
0.013047682
0.013332217
0.013565491
0.01378696
0.013933512
0.014065781
0.014143803
0.014194464
0.015002415
0.014948706
0.014862041
0.014727866
0.014562761
0.014338968
0.014087072
0.013786739
0.013454947
0.0130732
0.012671499
0.012217264
0.011746751
0.01121892
0.010681979
0.010070751
0.0094727094
0.0087984701
0.0081312697
0.0074016143
0.0066773912
0.0058951533
0.005115828
0.0043083411
0.0034709018
0.0026164721
0.0017418777
0.00086683748
-4.7253864e-05
-0.00094436533
-0.0018798788
-0.002796177
-0.0037302732
-0.004663572
-0.0055797276
-0.0065001167
-0.0074143266
-0.0083030942
-0.0091944292
-0.010040844
-0.010892668
-0.011686081
-0.012488394
-0.013219061
-0.013954422
-0.014615327
-0.015271225
-0.015851866
-0.016420191
-0.016914063
-0.017380414
-0.017780852
-0.018144579
-0.018434139
-0.018685848
-0.018857806
-0.0189903
-0.020294661
-0.020157306
-0.019970244
-0.01970345
-0.019387988
-0.019002342
-0.018569
-0.018074761
-0.017537933
-0.016931328
-0.016304759
-0.015609409
-0.014891454
-0.014110867
-0.013324655
-0.012473002
-0.011621256
-0.010717799
-0.0098088186
-0.00886378
-0.0079099727
-0.0069387204
-0.005958814
-0.0049897235
-0.0040003848
-0.0030009235
-0.002029098
-0.0010382456
-7.9305105e-05
0.00088667779
0.0018172038
0.0027408318
0.0036465731
0.0045374433
0.0053908633
0.0062149276
0.0070421092
0.0078122044
0.0085790994
0.0092873702
0.0099976439
0.010631213
0.011273614
0.011840714
0.012398073
0.012894687
0.013373549
0.013800055
0.014198874
0.014550627
0.014869371
0.015131993
0.01536603
0.015540203
0.015677943
0.015772128
0.015828764
0.016673816
0.01661627
0.016516104
0.016375072
0.01618374
0.015940199
0.015661338
0.015328759
0.014956371
0.014542596
0.014087454
0.013587378
0.013058883
0.012470361
0.011870429
0.011198273
0.010526255
0.0097782647
0.0090298351
0.008224238
0.0074081931
0.0065387484
0.0056603118
0.0047609691
0.003818936
0.0028609343
0.0018781688
0.00089395024
-0.00012965999
-0.0011498697
-0.0021953741
-0.0032209938
-0.0042801979
-0.0053279621
-0.0063726023
-0.0074154155
-0.008445688
-0.0094605346
-0.010463838
-0.011434264
-0.012397012
-0.013308395
-0.014215719
-0.01506035
-0.015891817
-0.016663514
-0.017404975
-0.018077329
-0.018728374
-0.019305251
-0.019835
-0.020299593
-0.020712656
-0.021051445
-0.021335726
-0.021533891
-0.021684162
-0.023161673
-0.022999859
-0.022780462
-0.022482282
-0.022113532
-0.021673413
-0.021170468
-0.020607381
-0.01998655
-0.019290377
-0.018566964
-0.017781405
-0.016951497
-0.016064534
-0.015155828
-0.014193912
-0.01321579
-0.01219336
-0.011155878
-0.010091893
-0.0090110412
-0.0079185521
-0.0068099254
-0.0057000395
-0.0045807746
-0.0034572715
-0.0023749927
-0.001275802
-0.00018806395
0.00089629769
0.0019365853
0.0029691116
0.0039888488
0.0049872957
0.0059355962
0.0068572158
0.007771945
0.0086335566
0.0094866547
0.01027282
0.011060559
0.011770205
0.012476879
0.013111111
0.013734391
0.014291753
0.0148183
0.015294912
0.015732473
0.016124322
0.016476089
0.016762253
0.017021726
0.017226539
0.01737348
0.017476442
0.017535137
0.018410308
0.018348649
0.018240978
0.018082382
0.01787251
0.017600449
0.017294357
0.016924262
0.016518012
0.01605313
0.015556259
0.01499914
0.014413337
0.01376078
0.013090557
0.012348993
0.011599989
0.010772087
0.0099457413
0.0090471574
0.008141393
0.0071836249
0.0062031815
0.0051949296
0.0041469517
0.0030764577
0.0019823246
0.00087809656
-0.00026560046
-0.0014117701
-0.0025756052
-0.0037334432
-0.0049172848
-0.0060991329
-0.0072817382
-0.0084549868
-0.0096186856
-0.010765192
-0.011901952
-0.013009227
-0.014096032
-0.015141803
-0.016165632
-0.017137581
-0.018079812
-0.018966881
-0.019810119
-0.020590215
-0.021328462
-0.021990839
-0.022597813
-0.023137903
-0.023611892
-0.024006136
-0.02432921
-0.024563498
-0.024733766
-0.026399118
-0.026220098
-0.025969368
-0.025624503
-0.025199817
-0.024694124
-0.024112295
-0.023466475
-0.022752193
-0.021966295
-0.021130858
-0.020232998
-0.019281081
-0.018274552
-0.017236319
-0.016148098
-0.015028032
-0.013874139
-0.012691472
-0.011483671
-0.010265816
-0.0090338316
-0.0077863309
-0.0065316101
-0.005275586
-0.004024836
-0.0027973361
-0.0015730303
-0.00036007806
0.00085350865
0.002020054
0.0031706348
0.0043015594
0.0054070888
0.0064696861
0.0075012633
0.0085101467
0.0094628926
0.010407923
0.011276357
0.012146034
0.012935429
0.01371213
0.014420324
0.01510467
0.015721671
0.016306896
0.016828089
0.017314627
0.017740566
0.018129896
0.018452022
0.018737735
0.018955512
0.019119896
0.019232805
0.01929797
0.020196569
0.020128308
0.020011577
0.019840855
0.019608961
0.019311898
0.018969908
0.018566727
0.018117191
0.017609617
0.017060996
0.016448086
0.01579751
0.015084446
0.014336946
0.013527145
0.012693956
0.011782756
0.010868307
0.0098790411
0.0088765469
0.007816908
0.0067259672
0.0056055963
0.0044430607
0.0032535278
0.0020329307
0.00080109962
-0.00047697261
-0.0017503491
-0.0030454662
-0.0043554093
-0.0056739009
-0.0070037671
-0.0083301697
-0.0096491491
-0.010964659
-0.012258195
-0.013542527
-0.014798914
-0.016025399
-0.017220727
-0.018381097
-0.019487409
-0.020563591
-0.021581099
-0.022540131
-0.023433072
-0.024273184
-0.02503265
-0.025725438
-0.026349945
-0.026893593
-0.027345492
-0.027716933
-0.027982785
-0.028175878
-0.030077221
-0.029869656
-0.029575564
-0.02917463
-0.028691111
-0.028113066
-0.027444405
-0.026706612
-0.025886565
-0.02498883
-0.024032441
-0.023014932
-0.021927504
-0.020777238
-0.019594879
-0.018361688
-0.017088525
-0.015790305
-0.014452208
-0.013085403
-0.011712011
-0.010318281
-0.0089193354
-0.0075180616
-0.0061103134
-0.0047135433
-0.0033223477
-0.0019570779
-0.00061515683
0.00073110711
0.0020312805
0.0033118107
0.0045665852
0.0057915862
0.0069746075
0.0081202623
0.0092367171
0.010289323
0.011327468
0.01228586
0.013240012
0.01411829
0.014965516
0.015748457
0.016491653
0.017171257
0.017815049
0.018390807
0.01892472
0.01940054
0.019821386
0.020175697
0.020485111
0.020729459
0.020910055
0.02103168
0.02110244
0.022010987
0.021937403
0.021809565
0.021620396
0.02136443
0.021042401
0.0206661
0.020226818
0.019730007
0.019171976
0.018567624
0.017894502
0.017185778
0.016404935
0.0155883
0.01469841
0.0137784
0.012784595
0.011770288
0.010685345
0.0095740654
0.0084027717
0.0071991637
0.0059524268
0.0046698971
0.0033528399
0.0020029086
0.0006258621
-0.00078160435
-0.0022005559
-0.0036444179
-0.0051154578
-0.0065892973
-0.0080751456
-0.0095611531
-0.011042199
-0.012521373
-0.013978992
-0.015426987
-0.016846746
-0.018235691
-0.019588567
-0.020902552
-0.022170145
-0.023389311
-0.024541374
-0.025632413
-0.026661172
-0.027616761
-0.028488141
-0.029284167
-0.029998606
-0.03062126
-0.031143934
-0.031572387
-0.031889954
-0.032110937
-0.034281346
-0.034045874
-0.033704246
-0.033245822
-0.032683666
-0.032016302
-0.031251281
-0.030399744
-0.029460744
-0.028446185
-0.027346238
-0.026181233
-0.024946454
-0.023653748
-0.022302323
-0.020904868
-0.019462625
-0.017984261
-0.016475423
-0.014942037
-0.013392414
-0.01182723
-0.010257442
-0.0086872826
-0.0071160502
-0.0055621122
-0.0040059813
-0.0024758353
-0.00098064188
0.0004939204
0.0019446936
0.0033663333
0.0047517029
0.0060963866
0.0074059544
0.0086675134
0.0098968483
0.011064517
0.012201159
0.013266434
0.014307462
0.015270373
0.016201474
0.017056097
0.01787488
0.018616295
0.019318603
0.019952496
0.020533682
0.021052736
0.021512258
0.021907919
0.022242686
0.022509609
0.022706157
0.022841257
0.022918104
0.023819699
0.023738204
0.023594463
0.023390693
0.023109178
0.022763627
0.022347306
0.021869404
0.021323583
0.020721535
0.020056199
0.019326441
0.018548952
0.017692439
0.016796132
0.015824999
0.014815995
0.013727476
0.012608023
0.011420731
0.010194541
0.0089075649
0.0075840564
0.006215072
0.00480321
0.0033445536
0.0018557588
0.00033106053
-0.0012232346
-0.0028045687
-0.004419749
-0.0060571923
-0.0076983927
-0.0093569652
-0.011019592
-0.012680474
-0.014339622
-0.015981962
-0.017609552
-0.019210809
-0.020781602
-0.022317044
-0.023805591
-0.02524333
-0.026623318
-0.02793871
-0.029183034
-0.030356981
-0.031444568
-0.032449734
-0.033361242
-0.034178356
-0.034892988
-0.035494841
-0.035985299
-0.036350737
-0.036602847
-0.039092038
-0.038823118
-0.038430829
-0.037909365
-0.037262687
-0.036497156
-0.03562183
-0.034645413