/*--------------------------------*- C++ -*----------------------------------*\
| =========                 |                                                 |
| \\      /  F ield         | OpenFOAM: The Open Source CFD Toolbox           |
|  \\    /   O peration     | Version:  v2012                                 |
|   \\  /    A nd           | Website:  www.openfoam.com                      |
|    \\/     M anipulation  |                                                 |
\*---------------------------------------------------------------------------*/
FoamFile
{
    version     2.0;
    format      ascii;
    class       surfaceScalarField;
    location    "100";
    object      phi;
}
// * * * * * * * * * * * * * * * * * * * * * * * * * * * * * * * * * * * * * //

dimensions      [0 3 -1 0 0 0 0];
oriented        oriented;


internalField   nonuniform List<scalar> 
220384
(
0.0022209535
-1.3352445e-07
7.2826931e-08
0.0022210264
-1.2564957e-07
5.2733479e-08
0.0022211102
-1.1786408e-07
3.4072611e-08
0.0022212043
-1.1221438e-07
1.8095059e-08
0.0022213075
-1.0746304e-07
4.2502841e-09
0.0022214174
-1.0253078e-07
-7.3408729e-09
0.0022215332
-9.8270447e-08
-1.7501541e-08
0.0022216552
-9.5671024e-08
-2.633859e-08
0.0022217837
-9.4563148e-08
-3.3912923e-08
0.0022219178
-9.4943454e-08
-3.9192065e-08
0.0022220562
-9.6183589e-08
-4.2221724e-08
0.0022221981
-9.8230904e-08
-4.372217e-08
0.0022223435
-1.0169653e-07
-4.3668128e-08
0.0022224918
-1.0616488e-07
-4.2145916e-08
0.0022226424
-1.1179869e-07
-3.8779216e-08
0.0022227946
-1.1849854e-07
-3.3721984e-08
0.0022229488
-1.2710199e-07
-2.7037975e-08
0.0022231052
-1.388074e-07
-1.7618021e-08
0.0022232624
-1.5004387e-07
-7.1379923e-09
0.0022234186
-1.6102212e-07
4.77346e-09
0.0022235749
-1.7523892e-07
1.8987813e-08
0.0022237314
-1.9278987e-07
3.624578e-08
0.002223885
-2.104806e-07
5.6896958e-08
0.0022240303
-2.2643541e-07
8.1117576e-08
0.0022241655
-2.4394683e-07
1.0875009e-07
0.002224292
-2.6502257e-07
1.3854519e-07
0.0022244096
-2.8729442e-07
1.6966873e-07
0.0022245156
-3.0742024e-07
2.0138861e-07
0.0022246039
-3.2305518e-07
2.3477948e-07
0.0022246933
-3.4255621e-07
2.5314535e-07
0.0022247934
-3.5347743e-07
2.5345266e-07
0.0022251685
-4.5844667e-07
8.3272854e-08
0.0022259808
-5.9381755e-07
-2.1846903e-07
0.0022288282
-1.4258706e-06
-1.4215002e-06
0.0022323139
-1.6019433e-06
-1.8838021e-06
0.0022406657
-3.8278148e-06
-4.5239269e-06
0.0022510982
-4.8283436e-06
-5.6041363e-06
0.0022730106
-1.0189918e-05
-1.1722559e-05
0.0023105189
-1.7547426e-05
-1.9960887e-05
0.0023428077
-1.4854241e-05
-1.7434517e-05
3.6181115e-05
3.6455131e-05
5.3971065e-06
-0.002431136
-3.0513295e-05
8.1171324e-05
-0.0025872486
-4.8224069e-05
2.244865e-05
-0.0027866312
-4.9866901e-05
5.6492389e-05
-0.0029417241
-5.0415322e-05
1.5937358e-05
-0.0030605271
-5.3832911e-05
1.3560673e-05
-0.0031182562
-5.772925e-05
1.0410068e-06
-0.0031476736
-6.0305636e-05
-2.592553e-06
-0.003158715
-6.139707e-05
-3.8603225e-06
-0.0031628565
-6.1925558e-05
-3.9741915e-06
-0.0031655023
-6.2091928e-05
-4.0956288e-06
-0.003167823
-6.2208068e-05
-3.8863e-06
-0.0031707186
-6.2292249e-05
-3.7430305e-06
-0.0031734966
-6.245337e-05
-3.2529089e-06
-0.00317694
-6.2448273e-05
-2.6912438e-06
-0.0031801759
-6.2698053e-05
-1.9931356e-06
-0.003184253
-6.2653813e-05
-1.0834462e-06
-0.0031880313
-6.3139846e-05
-1.4811733e-06
-0.0031915812
-6.2664955e-05
6.8089478e-07
-0.0031922383
-6.4491324e-05
-1.304976e-06
-0.0031794917
-5.9826922e-05
2.5436849e-06
-6.07093e-05
-0.0031301992
1.268495e-06
-5.4907614e-05
-0.0030138644
3.641072e-05
-5.6078765e-05
-0.0028033549
3.4199254e-06
-5.5274497e-05
-0.0023990312
-2.6645412e-05
-7.2575142e-05
-0.0023729202
3.3443325e-06
-9.5371889e-05
-0.0027520939
-2.3185975e-06
-0.00011205489
-0.0029096495
-2.7245146e-07
-0.00011945812
-0.0029636632
-4.8070258e-06
-0.00012011477
-0.0029705001
-2.4482332e-06
-0.0001187076
-0.0029554589
-2.52005e-06
-0.00011692605
-0.0029385243
5.6282245e-07
-0.00011539023
-0.0029252975
2.0806767e-06
-0.00011419247
-0.0029168225
3.6523667e-06
-0.00011361766
-0.0029117143
4.6934524e-06
-0.00011350588
-0.0029084384
5.1393503e-06
-0.00011315647
-0.0029085871
6.3358299e-06
-0.00011408388
-0.002908547
7.6081151e-06
-0.00011419302
-0.002906748
7.413257e-06
-0.00011264683
-0.002902845
6.8869941e-06
-0.00011233417
-0.0029008341
7.6656636e-06
-0.00011365708
-0.0029014972
8.5159589e-06
-0.00011374964
-0.0028998256
7.6542725e-06
-0.00011198996
-0.0029008416
6.6250213e-06
-0.00011183384
-0.002904742
6.5383969e-06
-0.00011280865
-0.0029058077
6.1405315e-06
-0.00011246802
-0.0029048486
5.3510922e-06
-0.00011203747
-0.0029050881
4.8448688e-06
-0.00011232669
-0.0029062454
5.126396e-06
-0.00011315155
-0.0029075406
6.1637563e-06
-0.00011390617
-0.0029069432
7.1566487e-06
-0.00011387898
-0.0029049467
8.2780098e-06
-0.00011402357
-0.0029040239
9.4557771e-06
-0.00011407809
-0.0029043238
1.013727e-05
-0.00011355627
-0.0029038672
1.0687094e-05
-0.00011343702
-0.0029034124
1.1754589e-05
-0.00011394617
-0.002904049
1.384314e-05
-0.00011498231
-0.0029032109
1.6625369e-05
-0.00011569709
-0.0029039058
1.9528113e-05
-0.00011577786
-0.0029038715
2.3072909e-05
-0.00011639784
-0.0029014288
3.1460834e-05
-0.00012128204
-0.0028980271
4.3490779e-05
-0.00012488422
-0.0028976427
5.4013111e-05
-0.00012328021
-0.0029015805
6.6480572e-05
-0.00012512663
-0.0029026524
7.9277667e-05
-0.00012512446
-0.0028987188
8.2855333e-05
-0.00011579493
-0.0028947039
7.141456e-05
-0.00010078296
-0.0028966946
4.8688847e-05
-9.0019458e-05
-0.0029031791
2.9903259e-05
-9.4070729e-05
-0.0029051329
2.0582954e-05
-0.00010334656
-0.0029045916
1.6204624e-05
-0.00010808304
-0.0029039782
1.3722349e-05
-0.00010976508
-0.0029036965
1.2336741e-05
-0.00011054077
-0.0029047168
1.0777658e-05
-0.0001115584
-0.0029078854
8.3003024e-06
-0.00011214075
-0.0029125523
-4.668054e-06
-0.00011269328
-0.0029158019
-5.1033036e-06
-0.00011165617
-0.0029058811
-4.9853843e-05
-0.00010895238
-0.002875696
-1.4354602e-05
-0.00010316006
-0.0027889882
-7.8889675e-05
-9.5688583e-05
-0.0026741062
-2.0343825e-07
-8.0884077e-05
-0.0025100595
-3.4871435e-05
-4.878074e-05
-0.0023860098
3.6725459e-05
-0.0023146635
7.2077025e-06
-3.120817e-05
-0.0024016355
8.2820481e-05
-4.8599164e-05
-0.0025553845
2.5633765e-05
-5.0270131e-05
-0.0027517954
6.003065e-05
-5.0821714e-05
-0.0029040592
2.0673761e-05
-5.4044658e-05
-0.0030201435
1.8819661e-05
-5.7792271e-05
-0.0030750284
6.891668e-06
-6.0160657e-05
-0.0031017279
3.5431936e-06
-6.1168907e-05
-0.0031098221
2.5643327e-06
-6.1593539e-05
-0.0031112045
2.4635887e-06
-6.1674903e-05
-0.0031106898
2.3886856e-06
-6.1625935e-05
-0.0031100538
2.3104582e-06
-6.160071e-05
-0.0031094759
2.2643952e-06
-6.1624153e-05
-0.0031091627
2.1622029e-06
-6.1579123e-05
-0.0031089841
1.876545e-06
-6.1469623e-05
-0.0031089467
6.7493764e-07
-6.1342158e-05
-0.0031087161
-2.8980593e-06
-6.0903781e-05
-0.003106671
-1.515311e-05
-5.9777741e-05
-0.0030979353
-1.7451777e-05
-5.7301976e-05
-0.0030707784
-5.7328759e-05
-5.344089e-05
-0.0030155681
-2.358947e-05
-5.0199734e-05
-0.0028995131
-8.1219832e-05
-4.9699093e-05
-0.0027472157
-6.1964959e-06
-4.8107821e-05
-0.0025508182
-3.61106e-05
-3.0755481e-05
-0.0023972811
3.5326534e-05
-0.0023107241
1.2232987e-06
-0.0023818028
-4.9239982e-05
8.0297859e-05
-0.0025051251
-8.1341727e-05
1.6481359e-05
-0.0026684101
-9.6174932e-05
5.2539442e-05
-0.0027828615
-0.00010369255
8.5534888e-06
-0.002868968
-0.00010948275
8.9378856e-06
-0.002898931
-0.00011234611
-2.9975396e-06
-0.0029083368
-0.00011353564
-4.0876113e-06
-0.0029048079
-0.00011336073
-4.019835e-06
-0.0028994518
-0.00011299649
-3.0465779e-06
-0.0028957674
-0.00011270289
-2.5376637e-06
-0.002893865
-0.00011252618
-2.3038524e-06
-0.0028934719
-0.00011244084
-2.2498709e-06
-0.0028934909
-0.00011242931
-2.3111901e-06
-0.0028941309
-0.00011243314
-2.4735506e-06
-0.0028947138
-0.00011238691
-2.6750982e-06
-0.0028955814
-0.00011239105
-2.8313158e-06
-0.0028962203
-0.00011242811
-2.9874779e-06
-0.0028970986
-0.000112463
-3.1763088e-06
-0.0028978688
-0.0001124602
-3.3923729e-06
-0.0028988356
-0.0001124668
-3.5623095e-06
-0.0028996171
-0.00011251852
-3.7499457e-06
-0.002900628
-0.00011255008
-3.9699254e-06
-0.0029014901
-0.00011253716
-4.1904102e-06
-0.0029025289
-0.00011258146
-4.4271425e-06
-0.0029033877
-0.00011257412
-4.5706353e-06
-0.0029044217
-0.00011271854
-4.7729307e-06
-0.0029053629
-0.00011269959
-4.9666176e-06
-0.0029064534
-0.0001127294
-5.0371075e-06
-0.0029073707
-0.00011286965
-5.1489781e-06
-0.0029084681
-0.00011287515
-5.2519293e-06
-0.0029094075
-0.00011291601
-5.3558798e-06
-0.002910501
-0.00011295905
-5.4771211e-06
-0.0029114114
-0.00011296193
-5.4650758e-06
-0.0029125065
-0.00011314171
-5.4198995e-06
-0.0029134337
-0.0001132024
-5.4456029e-06
-0.0029145019
-0.00011316795
-5.4304964e-06
-0.002915361
-0.00011322898
-5.3132461e-06
-0.002916446
-0.00011338916
-5.1989306e-06
-0.0029173794
-0.00011339309
-5.0838784e-06
-0.0029183947
-0.00011343404
-5.0004244e-06
-0.0029192599
-0.00011343337
-4.882564e-06
-0.0029202055
-0.00011351899
-4.7067355e-06
-0.0029210224
-0.00011358456
-4.5204133e-06
-0.0029219255
-0.00011361887
-4.2475362e-06
-0.0029226844
-0.00011367868
-3.8320491e-06
-0.0029236998
-0.00011378459
-3.2100061e-06
-0.0029248836
-0.00011384138
-2.2908863e-06
-0.0029267647
-0.00011400451
-8.9867071e-07
-0.0029297646
-0.00011420985
-3.8366829e-07
-0.0029348034
-0.00011460004
-1.0415354e-06
-0.0029411349
-0.00011498439
-1.2703255e-05
-0.0029457588
-0.00011518427
-1.1892298e-05
-0.0029368943
-0.00011397976
-5.6018643e-05
-0.0029074933
-0.00011115707
-1.8913626e-05
-0.0028206874
-0.00010540898
-8.3024451e-05
-0.0027050601
-9.7849227e-05
-2.36141e-06
-0.0025396927
-8.2770424e-05
-0.0024148541
-5.0214503e-05
-2.3825701e-05
-0.0023463489
-5.9533702e-05
-1.1855282e-05
-0.0024610049
-9.0658242e-05
-7.2481188e-06
-0.0026022458
-0.00010742155
5.8589898e-06
-0.0027175337
-0.00011626079
5.0245349e-06
-0.0027854933
-0.00012116554
5.4421006e-06
-0.0028136159
-0.00012369597
3.4886785e-06
-0.0028190204
-0.00012478496
2.6675321e-06
-0.0028154805
-0.0001248332
2.5979138e-06
-0.0028101707
-0.00012456307
2.9395956e-06
-0.0028058859
-0.00012422037
3.3413496e-06
-0.002803147
-0.0001240195
3.6768186e-06
-0.0028013747
-0.00012384437
3.9702237e-06
-0.0028002162
-0.00012377702
4.138278e-06
-0.0027991933
-0.00012365913
4.3080333e-06
-0.0027984924
-0.00012360285
4.5046722e-06
-0.002797661
-0.00012355801
4.5717794e-06
-0.0027967764
-0.00012349619
4.6357425e-06
-0.0027959249
-0.00012339899
4.7791775e-06
-0.0027951309
-0.00012340721
4.8765124e-06
-0.0027941216
-0.00012335507
4.9445683e-06
-0.0027931597
-0.00012335432
4.9785153e-06
-0.0027922206
-0.00012317436
4.9283642e-06
-0.0027913343
-0.0001231174
4.9794441e-06
-0.0027903298
-0.00012315496
4.9887467e-06
-0.0027894218
-0.00012309401
4.8606236e-06
-0.0027883823
-0.00012290098
4.7544212e-06
-0.0027874903
-0.00012290448
4.6002009e-06
-0.0027863984
-0.00012285489
4.4793824e-06
-0.002785537
-0.00012281031
4.4444387e-06
-0.0027845358
-0.0001227999
4.2457726e-06
-0.0027836023
-0.00012265243
4.0285932e-06
-0.0027825192
-0.00012262648
3.8918192e-06
-0.0027816498
-0.00012263506
3.6921927e-06
-0.0027807111
-0.00012247701
3.4821598e-06
-0.0027798188
-0.00012250012
3.2322596e-06
-0.002778789
-0.00012245115
3.0530162e-06
-0.00277799
-0.0001224588
2.929748e-06
-0.0027770736
-0.00012242023
2.7222241e-06
-0.0027762625
-0.00012236566
2.5141464e-06
-0.0027752958
-0.00012236492
2.3672441e-06
-0.0027745924
-0.0001223593
2.2504721e-06
-0.0027737932
-0.00012231034
2.0735664e-06
-0.0027731201
-0.00012228432
1.9074455e-06
-0.0027722659
-0.00012228178
1.8382631e-06
-0.0027717381
-0.00012232359
1.8138331e-06
-0.0027711522
-0.00012231429
1.8056798e-06
-0.0027711256
-0.00012233821
1.8564234e-06
-0.002771487
-0.00012242877
1.843227e-06
-0.0027731542
-0.00012260006
1.3900638e-06
-0.0027761623
-0.00012283637
1.9407299e-07
-0.0027805192
-0.00012309277
-2.1059958e-06
-0.0027830192
-0.00012301755
-2.0619707e-06
-0.0027770226
-0.00012195241
-3.2748746e-06
-0.0027483918
-0.0001193633
9.1554305e-06
-0.002680886
-0.00011440588
1.3191502e-05
-0.0025668108
-0.00010563538
2.4550298e-05
-0.0024273439
-8.9139981e-05
1.5281675e-05
-0.0023140797
-5.8454478e-05
-0.0022786832
-1.6759195e-05
-0.0022414953
-1.7936739e-05
-1.9251142e-05
-0.0022197186
-1.0679045e-05
-1.1097621e-05
-0.0022092823
-5.378534e-06
-5.0578123e-06
-0.0022009207
-4.3743125e-06
-3.9873077e-06
-0.0021973718
-2.1561896e-06
-1.3927026e-06
-0.0021944652
-1.9589329e-06
-9.4764021e-07
-0.0021935771
-1.1157244e-06
2.2760078e-07
-0.0021931311
-9.5952257e-07
5.1352619e-07
-0.0021929712
-8.3314874e-07
6.7330436e-07
-0.0021928378
-7.9938791e-07
6.6596845e-07
-0.0021927227
-7.5671055e-07
6.4157318e-07
-0.0021926078
-7.1644355e-07
6.0159897e-07
-0.0021925002
-6.7024112e-07
5.6254551e-07
-0.0021924041
-6.210568e-07
5.2502277e-07
-0.0021923196
-5.7152499e-07
4.8699735e-07
-0.0021922434
-5.2329654e-07
4.4712232e-07
-0.0021921764
-4.7607846e-07
4.0904253e-07
-0.0021921226
-4.2857245e-07
3.7474718e-07
-0.0021920822
-3.8280103e-07
3.4247289e-07
-0.0021920535
-3.3995013e-07
3.1125383e-07
-0.0021920363
-2.9982077e-07
2.8258974e-07
-0.0021920336
-2.6097697e-07
2.5829893e-07
-0.0021920475
-2.2371717e-07
2.3758179e-07
-0.002192079
-1.8648059e-07
2.180125e-07
-0.0021921292
-1.5038059e-07
2.0052625e-07
-0.0021922001
-1.1511919e-07
1.8606061e-07
-0.0021922909
-8.0432945e-08
1.712237e-07
-0.0021923997
-4.8044633e-08
1.5684439e-07
-0.0021925246
-1.898151e-08
1.4387882e-07
-0.002192667
9.8680798e-09
1.3253124e-07
-0.0021928314
3.9237176e-08
1.2519633e-07
-0.00219302
6.9057318e-08
1.1947605e-07
-0.0021932293
9.6315834e-08
1.1307438e-07
-0.0021934592
1.2245903e-07
1.0734484e-07
-0.0021937119
1.4901042e-07
1.0372163e-07
-0.0021939891
1.7527125e-07
1.0196387e-07
-0.0021942921
2.0145006e-07
1.0148929e-07
-0.0021946221
2.2767268e-07
1.0233395e-07
-0.0021949815
2.5490802e-07
1.0449692e-07
-0.0021953725
2.8296454e-07
1.0807923e-07
-0.0021957958
3.1014781e-07
1.1309883e-07
-0.0021962532
3.3739515e-07
1.2000958e-07
-0.0021967485
3.6738824e-07
1.2797324e-07
-0.0021972865
3.9929349e-07
1.3864656e-07
-0.0021978682
4.2997954e-07
1.5175296e-07
-0.0021984946
4.6168901e-07
1.646731e-07
-0.0021991703
4.9645415e-07
1.7932651e-07
-0.0021999004
5.3307758e-07
1.9702798e-07
-0.0022006882
5.7060757e-07
2.1710627e-07
6.1035934e-07
2.4072357e-07
0.0022332011
1.2204577e-06
2.5831381e-07
0.0022323965
1.1440468e-06
2.3120124e-07
0.0022316499
1.0710167e-06
2.087113e-07
0.0022309574
1.0008159e-06
1.8813384e-07
0.0022303142
9.3451898e-07
1.703708e-07
0.0022297176
8.7279496e-07
1.5377447e-07
0.0022291663
8.1319788e-07
1.3734449e-07
0.0022286549
7.5330199e-07
1.2553849e-07
0.0022281813
6.9651779e-07
1.1448785e-07
0.0022277452
6.4386584e-07
1.023417e-07
0.0022273411
5.9306195e-07
9.3967549e-08
0.0022269676
5.4138433e-07
8.7081365e-08
0.0022266232
4.9072833e-07
8.1291701e-08
0.0022263068
4.4268545e-07
7.5175782e-08
0.0022260153
3.958059e-07
7.0962323e-08
0.0022257483
3.4818285e-07
6.7839308e-08
0.0022255043
3.0090841e-07
6.5604872e-08
0.0022252832
2.5449169e-07
6.2897353e-08
0.0022250845
2.0681942e-07
6.0949218e-08
0.0022249053
1.5739257e-07
6.0993134e-08
0.0022247462
1.0805431e-07
6.0883506e-08
0.0022246066
6.0508924e-08
6.0150535e-08
0.0022244858
1.1734831e-08
6.0995359e-08
0.0022243839
-4.1213292e-08
6.2709529e-08
0.0022242987
-9.6315686e-08
6.64301e-08
0.0022242325
-1.5107165e-07
6.6839278e-08
0.0022241838
-2.0555179e-07
6.7750376e-08
0.0022241487
-2.603217e-07
7.1788012e-08
0.0022241282
-3.1650579e-07
7.5939664e-08
0.0022241247
-3.7488471e-07
7.8655823e-08
0.0022241357
-4.3480796e-07
8.3781793e-08
0.0022241616
-4.9728765e-07
8.8578254e-08
0.0022242006
-5.6297811e-07
9.5411939e-08
0.0022242526
-6.3039503e-07
1.0231723e-07
0.0022243173
-6.9733834e-07
1.0933055e-07
0.0022243917
-7.6499769e-07
1.1908037e-07
0.0022244715
-8.3258006e-07
1.3176796e-07
0.0022245503
-8.969503e-07
1.4794869e-07
0.0022246109
-9.5322811e-07
1.7609723e-07
0.00222463
-1.0017847e-06
2.2598348e-07
0.0022245833
-1.0549799e-06
3.0236708e-07
0.0022245043
-1.1548745e-06
4.0064323e-07
0.0022245178
-1.3937128e-06
4.2068725e-07
0.0022250481
-1.9034029e-06
2.5738877e-07
0.0022263363
-2.7501014e-06
-4.9696904e-07
0.0022293911
-3.7156478e-06
-1.4953365e-06
0.002234406
-5.2803604e-06
-4.1088677e-06
0.0022449159
-7.9217198e-06
-7.9667349e-06
0.0022681309
-1.5138022e-05
-1.8755979e-05
-2.5394787e-05
-3.8490799e-05
-2.3420402e-05
-0.0023741498
-5.5168475e-05
-1.603906e-05
-0.0025081666
-6.6025552e-05
-8.245862e-06
-0.0026164823
-7.2196904e-05
-3.0985268e-06
-0.0026780964
-7.5442708e-05
-9.7188253e-07
-0.0027021933
-7.6955955e-05
-5.1488759e-07
-0.002705971
-7.7505262e-05
-8.1394e-07
-0.0027026983
-7.7521816e-05
-1.1677893e-06
-0.0026984789
-7.7329513e-05
-1.403547e-06
-0.002695749
-7.7169377e-05
-1.5295039e-06
-0.0026942986
-7.7062455e-05
-1.6402789e-06
-0.0026940298
-7.6985009e-05
-1.706254e-06
-0.0026941121
-7.6974149e-05
-1.7757444e-06
-0.002694692
-7.6976665e-05
-1.8535423e-06
-0.0026952521
-7.6935983e-05
-2.0211969e-06
-0.0026960412
-7.6911293e-05
-2.2103841e-06
-0.002696677
-7.6927004e-05
-2.3496374e-06
-0.0026974885
-7.6964627e-05
-2.4659976e-06
-0.0026982168
-7.6962644e-05
-2.6709036e-06
-0.0026991223
-7.6935299e-05
-2.8739936e-06
-0.0026998869
-7.6983635e-05
-3.0501221e-06
-0.0027008107
-7.7003131e-05
-3.2140611e-06
-0.0027016349
-7.6990185e-05
-3.4200008e-06
-0.0027025974
-7.70154e-05
-3.7117928e-06
-0.0027034457
-7.6973575e-05
-3.8510814e-06
-0.0027043905
-7.7120021e-05
-3.9906035e-06
-0.0027052765
-7.7103216e-05
-4.1931568e-06
-0.0027062965
-7.7103245e-05
-4.3126032e-06
-0.0027071748
-7.7241567e-05
-4.4372353e-06
-0.0027081832
-7.7229181e-05
-4.5032216e-06
-0.0027090669
-7.7265547e-05
-4.6053716e-06
-0.0027100955
-7.729266e-05
-4.7424141e-06
-0.002710971
-7.7274248e-05
-4.7354101e-06
-0.0027119754
-7.7453414e-05
-4.6974723e-06
-0.0027128666
-7.7501201e-05
-4.7509394e-06
-0.0027138429
-7.7437973e-05
-4.8138449e-06
-0.0027146742
-7.7483457e-05
-4.6586108e-06
-0.0027156633
-7.7651636e-05
-4.5745959e-06
-0.0027165676
-7.7638085e-05
-4.5190141e-06
-0.0027175118
-7.7674717e-05
-4.466711e-06
-0.0027183298
-7.7647373e-05
-4.319964e-06
-0.0027191888
-7.7734322e-05
-4.2187018e-06
-0.0027199836
-7.7778684e-05
-4.065935e-06
-0.0027208332
-7.7811972e-05
-3.8412431e-06
-0.0027215644
-7.7853567e-05
-3.603027e-06
-0.0027225013
-7.795304e-05
-3.3911609e-06
-0.0027235939
-7.7992607e-05
-3.1897242e-06
-0.0027252268
-7.8121668e-05
-3.0984723e-06
-0.0027277308
-7.8246369e-05
-3.0879267e-06
-0.0027316941
-7.8487156e-05
-3.0214691e-06
-0.0027368597
-7.8687291e-05
-2.1987472e-06
-0.0027411749
-7.866822e-05
3.0557877e-07
-0.0027380232
-7.8096996e-05
5.9011294e-06
-0.002714451
-7.663793e-05
1.4287845e-05
-0.0026524501
-7.3470344e-05
2.2268165e-05
-0.0025429718
-6.7254289e-05
2.4698863e-05
-0.0024072404
-5.6195229e-05
-0.0022999239
-3.9273573e-05
-1.4334633e-05
-0.0022765305
-1.9248629e-05
-1.3286085e-05
-0.0023819076
-2.6381336e-05
-9.2745082e-06
-0.002515261
-3.1722414e-05
-4.633943e-06
-0.0026223138
-3.4776921e-05
-9.6460511e-07
-0.0026820171
-3.6103147e-05
1.2523852e-06
-0.0027037032
-3.6536946e-05
2.3720486e-06
-0.0027056373
-3.6657312e-05
2.845475e-06
-0.0027007529
-3.6580237e-05
3.0246866e-06
-0.0026954615
-3.6411855e-05
3.1308748e-06
-0.0026915998
-3.6237125e-05
3.2962079e-06
-0.0026892223
-3.6169771e-05
3.4691787e-06
-0.0026876855
-3.6081454e-05
3.6758852e-06
-0.0026866465
-3.6061559e-05
3.8344114e-06
-0.002685741
-3.5981936e-05
3.974852e-06
-0.0026850155
-3.5958157e-05
4.1091074e-06
-0.0026841804
-3.593743e-05
4.2203947e-06
-0.0026833951
-3.5905022e-05
4.2605451e-06
-0.002682538
-3.5831938e-05
4.3339758e-06
-0.0026817132
-3.5872033e-05
4.4073907e-06
-0.002680789
-3.5851996e-05
4.5127503e-06
-0.0026798985
-3.5870186e-05
4.4802702e-06
-0.0026789193
-3.5722404e-05
4.4214575e-06
-0.0026780924
-3.5691638e-05
4.4505881e-06
-0.0026771222
-3.5773556e-05
4.451314e-06
-0.0026762423
-3.5733874e-05
4.3041647e-06
-0.0026752499
-3.5573908e-05
4.1987214e-06
-0.0026743867
-3.5603317e-05
4.1034997e-06
-0.0026733739
-3.5597729e-05
3.9684842e-06
-0.0026724884
-3.5559783e-05
3.8713814e-06
-0.0026714783
-3.5599428e-05
3.6631922e-06
-0.0026706187
-3.5469564e-05
3.4952885e-06
-0.0026696158
-3.5492793e-05
3.3566143e-06
-0.0026687353
-3.5516529e-05
3.0820261e-06
-0.0026677837
-3.5387471e-05
2.8773488e-06
-0.0026669494
-3.5443399e-05
2.6947724e-06
-0.0026660113
-3.5441006e-05
2.5206892e-06
-0.0026651795
-3.5457136e-05
2.3453562e-06
-0.0026642528
-3.5458756e-05
2.1431835e-06
-0.0026635057
-3.5414382e-05
2.0143054e-06
-0.0026626197
-3.5468214e-05
1.8833729e-06
-0.002661883
-3.5474577e-05
1.7259118e-06
-0.002661068
-3.5451563e-05
1.5729976e-06
-0.0026604447
-3.5443612e-05
1.4876291e-06
-0.0026596731
-3.5493633e-05
1.4288162e-06
-0.0026591037
-3.5529469e-05
1.3629536e-06
-0.0026585096
-3.5536595e-05
1.2434013e-06
-0.0026583768
-3.5533428e-05
1.1157716e-06
-0.0026585681
-3.5602858e-05
9.2756485e-07
-0.0026598991
-3.5661706e-05
7.7551814e-07
-0.002662543
-3.578387e-05
9.0796661e-07
-0.002666889
-3.5941722e-05
1.6886646e-06
-0.0026707044
-3.60473e-05
3.5674068e-06
-0.0026681251
-3.5946892e-05
6.8474161e-06
-0.002645909
-3.546739e-05
1.0982595e-05
-0.0025865841
-3.4033366e-05
1.4489471e-05
-0.0024806746
-3.0998861e-05
-0.0023490158
-2.5782568e-05
-7.4894717e-06
-0.0023387107
-1.0737306e-05
-5.7851466e-06
-0.0024699339
-1.2445049e-05
-3.8585798e-06
-0.0025754504
-1.3060251e-05
-2.2285957e-06
-0.0026344596
-1.3079384e-05
-1.2223354e-06
-0.0026562887
-1.2842675e-05
-7.6065668e-07
-0.0026585025
-1.2663495e-05
-6.8470393e-07
-0.0026544955
-1.2469422e-05
-7.8802932e-07
-0.0026501107
-1.2329012e-05
-9.3682475e-07
-0.0026475307
-1.2219572e-05
-1.0309415e-06
-0.0026462822
-1.2191748e-05
-1.1349702e-06
-0.0026461488
-1.2124013e-05
-1.1886053e-06
-0.0026463222
-1.2133734e-05
-1.2387041e-06
-0.0026469326
-1.2121021e-05
-1.3060741e-06
-0.0026475171
-1.2088686e-05
-1.4521038e-06
-0.0026482731
-1.2025521e-05
-1.5861968e-06
-0.0026489054
-1.202848e-05
-1.7085634e-06
-0.0026497199
-1.2040759e-05
-1.8363189e-06
-0.0026504594
-1.2032589e-05
-2.0340992e-06
-0.0026513453
-1.1962586e-05
-2.1890909e-06
-0.0026520932
-1.2004666e-05
-2.3599072e-06
-0.0026530195
-1.198914e-05
-2.5461558e-06
-0.0026538516
-1.1973451e-05
-2.7500521e-06
-0.0026547871
-1.1958336e-05
-3.0109768e-06
-0.0026556201
-1.1902659e-05
-3.1612996e-06
-0.0026565685
-1.2016497e-05
-3.326632e-06
-0.0026574591
-1.1991407e-05
-3.5297012e-06
-0.0026584584
-1.1957259e-05
-3.6283894e-06
-0.002659301
-1.2078626e-05
-3.7688509e-06
-0.0026603173
-1.2030602e-05
-3.8669733e-06
-0.0026612128
-1.2063035e-05
-3.980985e-06
-0.0026622186
-1.2054154e-05
-4.1314724e-06
-0.0026630774
-1.2022019e-05
-4.1490589e-06
-0.0026640587
-1.2165955e-05
-4.1229832e-06
-0.0026649441
-1.2204161e-05
-4.1908416e-06
-0.0026659182
-1.21064e-05
-4.2193152e-06
-0.0026667549
-1.2135956e-05
-4.1229665e-06
-0.0026677226
-1.2272298e-05
-4.0538755e-06
-0.002668607
-1.2251088e-05
-3.9879119e-06
-0.0026695207
-1.2258415e-05
-3.9642656e-06
-0.002670348
-1.2213695e-05
-3.8652362e-06
-0.0026712195
-1.2274624e-05
-3.7415572e-06
-0.0026720009
-1.230318e-05
-3.6151763e-06
-0.0026728311
-1.2310767e-05
-3.4726811e-06
-0.0026735528
-1.233074e-05
-3.2835691e-06
-0.0026744366
-1.2398954e-05
-3.1222174e-06
-0.0026754378
-1.2409011e-05
-2.962081e-06
-0.0026769108
-1.2471629e-05
-2.8438065e-06
-0.0026792046
-1.2513522e-05
-2.655493e-06
-0.0026829984
-1.2651431e-05
-2.2676251e-06
-0.0026883312
-1.280957e-05
-1.5105185e-06
-0.002693443
-1.2951336e-05
-2.0729144e-07
-0.0026918852
-1.3121256e-05
1.7579922e-06
-0.0026705845
-1.3397884e-05
4.1256905e-06
-0.0026111769
-1.3504577e-05
6.2660053e-06
-0.0025045117
-1.2889579e-05
7.0534477e-06
-0.0023715918
-1.1103205e-05
-0.0022660092
-8.2962566e-06
-4.430695e-06
-0.0022610349
-4.371449e-06
-3.3786095e-06
-0.0023678679
-4.7760078e-06
-1.6400671e-06
-0.0025015334
-4.7168248e-06
4.118524e-08
-0.0026088365
-4.0216017e-06
1.2791178e-06
-0.0026686671
-3.1553738e-06
1.9893408e-06
-0.002690071
-2.5244224e-06
2.3618585e-06
-0.0026915931
-2.2224902e-06
2.54163e-06
-0.0026864594
-2.0515525e-06
2.6556839e-06
-0.0026812028
-1.9095777e-06
2.7480796e-06
-0.0026775054
-1.7916244e-06
2.8930131e-06
-0.0026752903
-1.7654806e-06
3.0383801e-06
-0.0026738713
-1.7118476e-06
3.2082919e-06
-0.0026728978
-1.7087974e-06
3.3359843e-06
-0.0026720294
-1.6510211e-06
3.4487582e-06
-0.0026713105
-1.6334295e-06
3.5532841e-06
-0.0026704819
-1.6235192e-06
3.6307275e-06
-0.0026696934
-1.6035417e-06
3.6518065e-06
-0.0026688229
-1.5461848e-06
3.7179224e-06
-0.0026679907
-1.5961804e-06
3.782919e-06
-0.0026670836
-1.5884189e-06
3.8637242e-06
-0.0026661917
-1.6116843e-06
3.8222208e-06
-0.0026652235
-1.4898501e-06
3.7493732e-06
-0.0026643834
-1.4619635e-06
3.7650697e-06
-0.0026634003
-1.5594278e-06
3.7495615e-06
-0.002662518
-1.5252245e-06
3.603222e-06
-0.0026615441
-1.3870086e-06
3.4858387e-06
-0.0026606771
-1.4240707e-06
3.3756981e-06
-0.0026596695
-1.4331556e-06
3.232966e-06
-0.0026587683
-1.4062997e-06
3.1330006e-06
-0.0026577435
-1.4575178e-06
2.9179196e-06
-0.0026568984
-1.344908e-06
2.7520585e-06
-0.0026559112
-1.3820196e-06
2.6043264e-06
-0.0026550127
-1.4080871e-06
2.3474524e-06
-0.0026540526
-1.3106471e-06
2.1511862e-06
-0.0026532263
-1.3645371e-06
1.9683564e-06
-0.002652291
-1.3778234e-06
1.8049037e-06
-0.0026514568
-1.3993244e-06
1.658136e-06
-0.0026505307
-1.4157207e-06
1.4782095e-06
-0.0026497845
-1.3809274e-06
1.3591187e-06
-0.0026488897
-1.4506157e-06
1.2425533e-06
-0.0026481402
-1.4631102e-06
1.1223153e-06
-0.0026473298
-1.455386e-06
1.00777e-06
-0.0026466991
-1.4594848e-06
9.4851869e-07
-0.0026459313
-1.5265154e-06
9.0986061e-07
-0.0026453367
-1.5572131e-06
8.6979637e-07
-0.0026447113
-1.5709002e-06
7.8802361e-07
-0.0026445034
-1.5636043e-06
7.1806987e-07
-0.0026445834
-1.6289399e-06
5.8499231e-07
-0.0026457493
-1.6483925e-06
4.4541601e-07
-0.0026482366
-1.7344851e-06
3.5604519e-07
-0.0026525381
-1.8680817e-06
4.759433e-07
-0.0026565378
-2.0845981e-06
9.3668338e-07
-0.0026543504
-2.3990696e-06
1.8888296e-06
-0.0026324241
-2.9876557e-06
3.1844352e-06
-0.002573018
-3.7280162e-06
4.5399431e-06
-0.00246688
-4.409449e-06
-0.0023349287
-4.5224752e-06
-3.2781409e-06
-0.0023337058
-1.6603412e-06
-2.0879919e-06
-0.0024669492
-1.1209353e-06
-9.608542e-07
-0.0025739923
-1.528326e-07
-2.4683687e-07
-0.0026338634
7.2531177e-07
-3.7157353e-08
-0.0026559335
1.373417e-06
-9.0506641e-08
-0.0026581894
1.7049069e-06
-2.5084419e-07
-0.0026542916
1.9138038e-06
-4.0316539e-07
-0.0026501182
2.0338387e-06
-5.1695966e-07
-0.0026477408
2.1053637e-06
-5.6321413e-07
-0.0026466584
2.1213073e-06
-6.2207346e-07
-0.0026466254
2.1809042e-06
-6.4584014e-07
-0.002646864
2.1764891e-06
-6.7027746e-07
-0.0026475014
2.1891649e-06
-7.1820193e-07
-0.0026481
2.2165987e-06
-8.1639879e-07
-0.0026488836
2.2826996e-06
-9.2242486e-07
-0.0026495166
2.2927701e-06
-1.0211532e-06
-0.0026503294
2.2879333e-06
-1.1266193e-06
-0.0026510828
2.2986303e-06
-1.3011273e-06
-0.0026519824
2.3724117e-06
-1.4392714e-06
-0.0026527332
2.340627e-06
-1.5953951e-06
-0.0026536596
2.3590092e-06
-1.7674838e-06
-0.0026544962
2.3773732e-06
-1.9516763e-06
-0.0026554338
2.3917175e-06
-2.1893364e-06
-0.002656265
2.4500882e-06
-2.333319e-06
-0.0026572286
2.3599455e-06
-2.5020965e-06
-0.0026581294
2.3870187e-06
-2.7028433e-06
-0.0026591178
2.4201384e-06
-2.7927996e-06
-0.0026599706
2.3171076e-06
-2.9404416e-06
-0.0026609851
2.3644978e-06
-3.0536215e-06
-0.0026618965
2.3401888e-06
-3.1695296e-06
-0.0026629157
2.3545207e-06
-3.326406e-06
-0.0026637749
2.3877479e-06
-3.3480655e-06
-0.0026647536
2.2572583e-06
-3.3321034e-06
-0.0026656395
2.2232358e-06
-3.4111953e-06
-0.002666626
2.3216787e-06
-3.4591917e-06
-0.0026674694
2.2938855e-06
-3.3939031e-06
-0.0026684359
2.1789405e-06
-3.3465046e-06
-0.0026693312
2.2001958e-06
-3.2918329e-06
-0.0026702423
2.1969616e-06
-3.2753889e-06
-0.0026710835
2.2441404e-06
-3.2186262e-06
-0.0026719427
2.1925416e-06
-3.1285934e-06
-0.002672742
2.1700237e-06
-3.030038e-06
-0.0026735704
2.1614209e-06
-2.9188404e-06
-0.0026742914
2.1507841e-06
-2.7653536e-06
-0.0026751458
2.0945646e-06
-2.6335826e-06
-0.0026760967
2.0935778e-06
-2.5042108e-06
-0.0026774695
2.0498672e-06
-2.4325297e-06
-0.002679608
2.0310132e-06
-2.3724087e-06
-0.0026831929
1.9299108e-06
-2.3063345e-06
-0.0026883266
1.8011132e-06
-2.1501961e-06
-0.0026933795
1.6302517e-06
-1.7328607e-06
-0.0026918007
1.3123827e-06
-7.764176e-07
-0.0026702473
6.2370926e-07
6.8891615e-07
-0.0026099268
-3.7509063e-07
2.2094071e-06
-0.0025016993
-1.3546184e-06
2.9030397e-06
-0.0023667174
-1.8440987e-06
-0.0022580322
-1.7015671e-06
-1.9856686e-06
-0.0022567991
-6.7332911e-07
-1.4701914e-06
-0.002366743
-4.8990294e-07
-2.4326123e-07
-0.0025028697
-5.6552662e-08
9.6148938e-07
-0.0026118241
6.9258515e-07
1.7071483e-06
-0.0026724619
1.4690023e-06
1.9840906e-06
-0.0026940988
2.0211422e-06
2.0665505e-06
-0.0026957331
2.2711585e-06
2.112271e-06
-0.0026907836
2.4112865e-06
2.1701202e-06
-0.0026857786
2.527835e-06
2.2443169e-06
-0.0026822981
2.6158621e-06
2.3686312e-06
-0.002680225
2.6311262e-06
2.4877104e-06
-0.0026788908
2.6750083e-06
2.6262116e-06
-0.0026779548
2.6705307e-06
2.7228686e-06
-0.0026771111
2.7229928e-06
2.8058059e-06
-0.0026763876
2.7342243e-06
2.8827367e-06
-0.0026755574
2.7385613e-06
2.9316819e-06
-0.0026747537
2.7620518e-06
2.9345863e-06
-0.0026738965
2.8100978e-06
2.984189e-06
-0.0026730577
2.7657771e-06
3.0094026e-06
-0.0026721339
2.777476e-06
3.053502e-06
-0.0026712307
2.7506663e-06
3.0045137e-06
-0.0026702711
2.8507254e-06
2.9295125e-06
-0.0026694334
2.8824904e-06
2.9388158e-06
-0.002668439
2.7901991e-06
2.9106514e-06
-0.0026675489
2.8234523e-06
2.7613981e-06
-0.0026665728
2.9470786e-06
2.6421952e-06
-0.002665711
2.9144853e-06
2.5250707e-06
-0.0026646907
2.9113587e-06
2.3842125e-06
-0.002663771
2.9267066e-06
2.2869601e-06
-0.0026627546
2.8812548e-06
2.0922045e-06
-0.002661899
2.9759325e-06
1.9285204e-06
-0.002660911
2.9452978e-06
1.780534e-06
-0.0026600087
2.9280857e-06