/*--------------------------------*- C++ -*----------------------------------*\
| =========                 |                                                 |
| \\      /  F ield         | OpenFOAM: The Open Source CFD Toolbox           |
|  \\    /   O peration     | Version:  v2012                                 |
|   \\  /    A nd           | Website:  www.openfoam.com                      |
|    \\/     M anipulation  |                                                 |
\*---------------------------------------------------------------------------*/
FoamFile
{
    version     2.0;
    format      ascii;
    class       volVectorField;
    location    "0";
    object      U;
}
// * * * * * * * * * * * * * * * * * * * * * * * * * * * * * * * * * * * * * //

dimensions      [0 1 -1 0 0 0 0];


internalField   nonuniform List<vector> 
15114
(
(4.6313668 0.049429355 0.080666789)
(4.6858848 0.031293936 0.0052988391)
(4.35241 0.080214194 -0.092164885)
(3.6896096 0.25943779 0.095569604)
(2.3856066 1.9885482 -0.44884697)
(3.0567508 2.9950378 -0.2310907)
(3.8390012 2.5019293 -0.14211973)
(4.2265219 2.2245072 -0.073152279)
(4.453981 1.915483 -0.014476772)
(4.796655 1.7755491 0.0068999576)
(5.046956 1.6298849 0.0529049)
(5.2031234 1.4447702 -0.065480692)
(5.2869106 1.3359189 -0.033389687)
(5.3819514 1.292716 0.023687964)
(5.4575422 1.2629933 0.081930278)
(5.5422653 1.1187597 0.042708038)
(5.5528383 1.0667673 0.046038107)
(5.5292936 0.92569138 0.0074099927)
(5.5878712 0.69482421 -0.075168908)
(5.7845654 0.68884927 -0.052269842)
(5.7768695 0.75836285 -0.0063166017)
(5.8935644 0.62137692 0.030470282)
(5.9575886 0.639124 0.011458008)
(5.919889 0.59226357 0.002294378)
(5.8840084 0.51033112 0.012581358)
(5.8674508 0.47867454 0.023368724)
(5.8560475 0.42218251 0.025899515)
(5.8455068 0.38576662 0.027838041)
(5.8379549 0.31812082 0.025101343)
(5.8310926 0.29205078 0.024044217)
(5.8286786 0.23982359 0.019298586)
(5.8212243 0.20601698 0.01997693)
(5.8161231 0.15461622 0.01541944)
(5.8170357 0.14032638 0.01571551)
(5.8128045 0.082311638 0.012156499)
(5.8057512 0.076832295 0.011605646)
(5.804266 0.01762614 0.0099010745)
(5.797218 0.017571169 0.010183837)
(5.7919226 -0.033096857 0.0075897307)
(5.7819361 -0.035332831 0.0093973308)
(5.7737205 -0.08320425 0.004403923)
(5.7699875 -0.092258129 0.0062722179)
(5.7620568 -0.12720848 0.00024934778)
(5.7517479 -0.13958498 0.0012993752)
(5.7423598 -0.17127799 -0.0018611212)
(5.7347066 -0.18305701 -0.001570031)
(5.7235195 -0.20975385 -0.0040779659)
(5.7105725 -0.21743966 -0.0036521413)
(5.6964325 -0.24855687 -0.0063767087)
(5.6857878 -0.25207973 -0.0060779015)
(5.6689586 -0.28258164 -0.0094432274)
(5.6489156 -0.27897447 -0.011435534)
(5.6149933 -0.31454168 -0.020489622)
(5.5774342 -0.30229929 -0.018400946)
(5.545254 -0.33430834 -0.0059026585)
(5.5346715 -0.31963132 0.011300919)
(5.5809792 -0.35565479 0.039429469)
(5.7031668 -0.34901859 0.076723007)
(5.9299134 -0.48137682 0.034245391)
(5.9602673 -0.35699769 0.0028149987)
(5.7375796 -0.4443791 -0.12205866)
(5.670678 -0.50559426 -0.057042676)
(5.6904758 -0.43222122 0.031497881)
(5.7516396 -0.53814748 0.059951259)
(4.387046 0.051000232 0.0039753626)
(4.0086809 0.12372663 -0.0022720397)
(4.5149313 0.055142356 -0.069944505)
(4.815688 -0.025438984 -0.23841396)
(4.8597279 0.13670941 0.5016477)
(4.3101138 0.34671074 0.3786752)
(3.2192929 0.85560413 -0.45762449)
(3.435644 1.02888 -0.18328203)
(4.3382209 0.07254596 0.28467273)
(3.6675886 0.090962723 0.12616239)
(3.0322957 0.17090352 -1.5910534)
(2.8711388 0.3077551 -0.86276668)
(3.1762958 0.20158683 -0.54399436)
(3.2178843 0.064359039 -0.60893018)
(2.9030578 0.01255966 -0.79547902)
(2.801924 0.037042815 -0.49382886)
(2.733925 0.056915424 -0.73603251)
(2.6023294 0.091989208 -1.035528)
(2.6864114 0.24621531 -1.4647604)
(2.6077508 0.38251937 -1.9258886)
(1.6958067 2.1860121 -1.6406653)
(2.5446703 2.6447681 -1.436258)
(2.7188252 1.2028229 -2.6491189)
(2.8189202 2.303321 -2.1277947)
(2.4807566 2.169504 -1.1779063)
(3.0146952 3.0210117 -0.76802089)
(3.7172256 2.7935393 -0.42719202)
(4.1883252 2.4803917 -0.13189594)
(4.3570485 2.031731 -0.040452193)
(4.9072922 1.7905661 -0.018993247)
(5.0113919 1.7226249 0.01956526)
(5.2010586 1.5226194 0.037703872)
(5.4322174 1.4069338 -0.16287538)
(5.455947 1.2756776 0.0042564052)
(5.5579549 1.1785644 0.17557262)
(5.5539543 1.2002344 0.09501965)
(5.527016 1.0478625 0.084869805)
(5.5008402 0.9357341 0.015872608)
(5.6751675 0.7593165 -0.065212581)
(5.9035171 0.79157721 -0.16079249)
(5.9195785 0.66987584 -0.096113095)
(6.0184458 0.58086129 0.064109249)
(5.960657 0.73730525 0.0098231193)
(5.858886 0.6022829 0.015980911)
(5.8422359 0.53151001 0.03980971)
(5.8480408 0.47088549 0.058336916)
(5.8500917 0.4244385 0.064660578)
(5.8449366 0.38112458 0.067575041)
(5.8406851 0.3269405 0.062461111)
(5.8361729 0.28724691 0.060131798)
(5.8326006 0.24704093 0.051437368)
(5.8254559 0.20851202 0.050417836)
(5.8205747 0.16305995 0.042482498)
(5.820774 0.13875502 0.041215662)
(5.8172722 0.096679683 0.034326261)
(5.80874 0.074392062 0.032083342)
(5.8063888 0.030386304 0.028783386)
(5.8000476 0.014147732 0.02688883)
(5.7933429 -0.020903586 0.022393995)
(5.7832536 -0.037352844 0.023674821)
(5.7750216 -0.072758024 0.015179233)
(5.7714302 -0.092204802 0.016217106)
(5.7641015 -0.11522753 0.0060592373)
(5.7533751 -0.13473214 0.0058841532)
(5.7438602 -0.16009758 -0.00051764323)
(5.7368113 -0.17877708 -0.0019307576)
(5.7256552 -0.19694691 -0.0061627598)
(5.7129837 -0.21118273 -0.0069151837)
(5.6998848 -0.2371608 -0.012116062)
(5.6918895 -0.24717676 -0.013067726)
(5.6787314 -0.27010229 -0.019335811)
(5.6599887 -0.27598607 -0.028350723)
(5.6393296 -0.30006447 -0.04511823)
(5.6230442 -0.30435969 -0.037451018)
(5.6115413 -0.32057671 -0.006199418)
(5.6058978 -0.32554888 0.032252359)
(5.6196095 -0.35708376 0.091604867)
(5.7053386 -0.45994814 0.13623661)
(5.7263602 -0.40600199 0.028128198)
(5.6300284 -0.39287065 -0.020441663)
(5.6565589 -0.34338327 -0.078318476)
(5.5637906 -0.32132604 -0.03855031)
(5.5456782 -0.33433004 -0.02860297)
(5.5184517 -0.33292261 0.0094479538)
(5.5110214 -0.34058506 0.055988133)
(5.5177106 -0.34529569 0.090539014)
(5.5273917 -0.3491404 0.11591076)
(5.5479821 -0.35177283 0.13085566)
(5.5847693 -0.34930197 0.14271712)
(5.6494305 -0.39687775 0.052064295)
(5.3306932 -0.33541869 -0.2398889)
(5.675275 -0.41558441 0.10730241)
(5.6347135 -0.40671658 0.039391667)
(5.6181798 -0.39980346 0.091189926)
(5.6217608 -0.39883198 0.094888642)
(5.6025275 -0.40618238 0.079420829)
(5.5914552 -0.41492999 0.074306228)
(5.5908498 -0.42779 0.078672822)
(5.6011838 -0.46323465 0.15056418)
(5.7428447 -0.52188263 0.21947322)
(5.8501035 -0.34928302 0.17309921)
(5.7170496 -0.28270045 0.072785697)
(5.5150791 -0.38833364 0.10166265)
(5.5306229 -0.40838387 0.030348059)
(5.642101 -0.41606578 -0.23536394)
(5.7543198 -0.37049291 0.069334031)
(5.6797922 -0.401391 0.080192905)
(5.7386931 -0.42273556 0.16054125)
(5.7359568 -0.4256212 0.10706387)
(5.7062217 -0.37275592 0.017189388)
(5.6639177 -0.35510863 -0.19865154)
(5.6930043 -0.40072715 -0.084656303)
(5.6392899 -0.46512122 -0.11337951)
(5.6560706 -0.44256407 0.064686776)
(5.7025399 -0.5720836 0.096885839)
(5.7635778 -0.41091625 0.047004286)
(5.784831 -0.41934198 0.023963106)
(5.809866 -0.42447549 0.028362632)
(5.8214053 -0.42694161 0.036282733)
(5.8309879 -0.43031956 0.046340245)
(5.8342847 -0.4299286 0.052460703)
(5.8409589 -0.42886889 0.059200126)
(5.8427273 -0.42464636 0.05996729)
(5.8537786 -0.42328437 0.05981066)
(5.8527089 -0.42258647 0.050321328)
(5.8767793 -0.42851171 0.037181183)
(5.8584277 -0.43372528 -0.012565208)
(5.9121425 -0.4727381 -0.099225313)
(5.9236083 -0.40917693 -0.18144787)
(5.6496136 -0.47120675 -0.14647357)
(5.3637141 -0.25676058 0.49210536)
(5.8014922 -0.46468372 0.21850431)
(5.879757 -0.35787056 0.040921664)
(5.8368846 -0.3456196 0.051324469)
(5.8540432 -0.34508704 0.046177631)
(5.8524658 -0.34402318 0.053809449)
(5.8672977 -0.34448027 0.056018504)
(5.8702244 -0.34448242 0.068254945)
(5.8783205 -0.34181888 0.073425273)
(5.8847877 -0.34060501 0.083213026)
(5.8897091 -0.33845089 0.081898403)
(5.8965162 -0.33727888 0.088633579)
(5.9015142 -0.33505953 0.085353959)
(5.9106439 -0.3326102 0.094132365)
(5.9185067 -0.32763929 0.099706948)
(5.9097601 -0.32264835 0.11030537)
(5.8985016 -0.32593673 0.085456705)
(5.9308752 -0.33123808 0.074051658)
(5.9470917 -0.33961488 0.065815759)
(5.9828557 -0.34707308 0.058411943)
(5.9701643 -0.35572874 0.014187603)
(6.0315566 -0.39615442 -0.072785858)
(6.0443902 -0.33313933 -0.15263463)
(5.7662311 -0.399938 -0.11850206)
(5.4834502 -0.17209796 0.50170081)
(5.8919473 -0.384654 0.2419694)
(5.9696508 -0.26245133 0.071894412)
(5.9572004 -0.25052419 0.091196976)
(5.9623239 -0.24917489 0.083884133)
(5.9743476 -0.24800753 0.081909155)
(5.9906879 -0.24800061 0.074249668)
(6.0144138 -0.2477608 0.081397017)
(6.0265634 -0.24456827 0.083346277)
(6.0549808 -0.24440546 0.086710107)
(6.0269412 -0.24714004 0.052543316)
(6.068028 -0.27978604 -0.041342109)
(6.1032237 -0.23244312 -0.16254544)
(5.8559419 -0.30899603 -0.15381245)
(5.6108115 -0.073979644 0.49240854)
(6.0614854 -0.3002501 0.19296611)
(6.1206982 -0.16572701 0.008575347)
(6.1247566 -0.14482805 0.039653548)
(6.1202843 -0.14705689 0.055645515)
(6.1606529 -0.14403055 0.042892355)
(6.1551806 -0.14815061 0.0021886995)
(6.2371612 -0.18917153 -0.092757894)
(6.2549939 -0.12530681 -0.21362337)
(6.0171763 -0.21194514 -0.18278681)
(5.8750788 0.019467023 0.35867498)
(6.3089912 -0.23342016 -0.0059712043)
(6.2141882 -0.081766934 -0.27410651)
(6.3178824 -0.083937435 -0.33642219)
(6.3984522 -0.0039484007 -0.28187629)
(4.4842695 0.043930103 -0.089551727)
(4.1837403 0.11227355 -0.10390197)
(4.1120237 0.10731792 -0.036748596)
(3.6312158 0.099268369 -0.18775235)
(3.8546959 0.10612399 -0.27785784)
(3.5764439 0.12812787 -0.37936539)
(3.0701932 0.0055550182 -0.24135347)
(2.8240614 0.080586491 -0.88268356)
(2.8652139 0.16565655 -1.274058)
(3.1405925 0.049594202 -1.8942854)
(1.9696926 2.5704866 -1.3386175)
(2.175948 3.3934995 -0.91792267)
(2.6080763 1.0152676 -4.2453231)
(2.1147169 2.2328652 -3.7149372)
(2.3575715 1.6660403 -2.3059077)
(2.5516924 2.1390471 -1.1713885)
(1.9805836 2.46906 -1.1242595)
(3.1178774 2.0112436 -3.1305559)
(2.3693418 0.89716713 -1.8100817)
(1.9996837 0.82326574 -1.1094666)
(2.3739311 0.50320933 -2.6358972)
(2.367037 1.0765031 -1.8142199)
(2.6128251 2.2368783 -1.877109)
(2.4571128 1.1838149 -3.0065949)
(2.2716462 0.54497849 -3.0758718)
(2.9184842 0.10767524 -1.7630148)
(2.3710993 0.84920877 -1.2483655)
(3.6060715 1.2394192 -3.003319)
(2.6774909 0.24195742 -1.6296828)
(2.288011 0.7742328 -1.6620678)
(2.896932 1.3604452 -1.688113)
(2.4701099 0.20626691 -1.4633339)
(2.1560553 0.89992088 -1.1241881)
(1.9227937 2.1290034 -1.8604306)
(2.5255806 1.6226803 -2.3297796)
(2.3166244 2.5209037 -1.1053301)
(2.4444996 2.6707995 -0.75918226)
(2.8189159 3.1113127 -0.84682964)
(3.5691211 2.8501791 -0.39467929)
(3.4183605 2.9494646 -0.60611144)
(4.0875423 2.4368969 -0.13694952)
(4.3063769 2.2387221 -0.02730156)
(4.6896112 1.8445776 -0.074138904)
(5.0493313 1.7272133 0.017899484)
(5.2221672 1.6926335 0.17147079)
(5.3932571 1.4871663 -0.11315402)
(5.5628784 1.3510951 -0.29791973)
(5.4687492 1.3415844 0.069554969)
(5.4317597 1.3091424 0.27023655)
(5.4909805 1.2266414 0.14491855)
(5.5385091 1.0836252 0.13381121)
(5.5871166 1.0042536 0.055250831)
(5.7070569 0.88062523 0.088421624)
(5.9575765 0.89177397 -0.023616337)
(5.9991298 0.87912158 -0.16748708)
(6.0095129 0.79364355 -0.067639799)
(5.8531971 0.75396666 0.093624129)
(5.81113 0.74182845 0.053494385)
(5.7883881 0.60954833 0.073831383)
(5.8214157 0.54944314 0.07483566)
(5.8371951 0.48280383 0.082366243)
(5.8452675 0.43406385 0.085972477)
(5.8466002 0.38708947 0.087175782)
(5.8448115 0.33714891 0.082754668)
(5.8418231 0.29590917 0.079983394)
(5.8388559 0.25759686 0.072723239)
(5.8315659 0.21602564 0.068800115)
(5.8265231 0.1712007 0.062314039)
(5.8265547 0.14733005 0.057311139)
(5.8233003 0.10338535 0.052765776)
(5.8132488 0.081685561 0.049166591)
(5.8112048 0.039479299 0.044839735)
(5.8050131 0.017802503 0.040140163)
(5.7968343 -0.01296737 0.036552653)
(5.7876519 -0.028681959 0.034514767)
(5.77851 -0.066011742 0.028071527)
(5.7738434 -0.084888163 0.025632554)
(5.7665973 -0.10838832 0.01907611)
(5.7555234 -0.12796676 0.015663621)
(5.7463664 -0.15291564 0.0087264783)
(5.7399655 -0.17243365 0.0046080592)
(5.7297873 -0.19042642 0.00083542871)
(5.7188677 -0.20378465 -0.0028921302)
(5.70692 -0.23219517 -0.0073874073)
(5.7008766 -0.24286521 -0.011265132)
(5.6913769 -0.26403782 -0.016104088)
(5.6785708 -0.27245405 -0.031204684)
(5.6707571 -0.29278726 -0.04344881)
(5.6708825 -0.30436764 -0.026772914)
(5.6689558 -0.31575256 0.0065408023)
(5.6598475 -0.33548115 0.042161734)
(5.6403053 -0.36184121 0.080547933)
(5.6226415 -0.35876441 0.085257024)
(5.6225083 -0.32774581 0.057666233)
(5.6874067 -0.32756574 0.049613103)
(5.7200602 -0.33789878 0.035746118)
(5.714729 -0.33610658 0.014759645)
(5.7028716 -0.30337477 -0.0064026452)
(5.6988108 -0.28771619 -0.024069705)
(5.699101 -0.27020316 -0.020505512)
(5.7038331 -0.25914561 -0.0066042772)
(5.710577 -0.23851835 -0.002971783)
(5.7168057 -0.2256928 0.0028502498)
(5.7253035 -0.19942062 0.0077907455)
(5.7327612 -0.18529216 0.012340965)
(5.7425941 -0.16471415 0.018172343)
(5.750222 -0.14634486 0.022051011)
(5.7592184 -0.12198345 0.029746563)
(5.7697492 -0.10381743 0.032863318)
(5.7780044 -0.076499827 0.038472739)
(5.7846985 -0.060233207 0.041173623)
(5.793443 -0.020876651 0.046543487)
(5.8010136 -0.0092190707 0.050220709)
(5.8104767 0.02758245 0.054257665)
(5.8178206 0.048436283 0.058241432)
(5.8191224 0.091813013 0.063564942)
(5.8279403 0.11017568 0.068223457)
(5.8326543 0.15644724 0.070220356)
(5.8340203 0.18612167 0.07625011)
(5.8384948 0.22453493 0.083710281)
(5.8455228 0.26706327 0.086808899)
(5.8470052 0.31122231 0.092691183)
(5.8487618 0.35030679 0.096152474)
(5.848757 0.39824609 0.10026448)
(5.8453734 0.45140084 0.10067457)
(5.8373594 0.50983272 0.1022355)
(5.8314831 0.56678104 0.10730484)
(5.8456816 0.64360304 0.12517576)
(5.8401689 0.70352048 0.12691096)
(5.8377585 0.72647901 0.11575024)
(5.8599194 0.93166611 0.046037439)
(5.8118519 0.95062957 0.28590199)
(5.6867415 0.91842459 0.24753455)
(5.5947859 1.0580259 0.13047058)
(5.6459983 1.2160554 0.19165805)
(5.6241524 0.98691335 0.18797889)
(5.3654714 1.2426827 0.23428154)
(5.4513791 1.3631842 -0.43002081)
(5.2673703 1.5337037 0.065983569)
(5.1747696 1.7358399 0.099539563)
(5.0174722 1.9135077 0.2722274)
(4.6166908 2.1030586 -0.20939329)
(4.548998 2.5355244 -0.055702644)
(4.1351854 2.80983 -0.016708185)
(3.6924906 2.6383301 -0.23501164)
(4.2498335 2.4458437 -0.12445972)
(4.6144946 2.0835761 -0.19868801)
(4.9161035 1.9129121 0.19388725)
(5.1297507 1.7109004 0.070065495)
(5.2728489 1.6410757 0.097117806)
(5.4637093 1.4483929 -0.30797021)
(5.5738766 1.3801 -0.3039871)
(5.3837339 1.2314198 0.11443747)
(5.4889072 1.257863 0.30886935)
(5.5261716 1.1906318 0.21649785)
(5.5182652 1.0859888 0.20951766)
(5.7145782 0.90221699 0.42543188)
(5.8987701 0.94594888 0.38976157)
(5.8085584 0.95746819 0.41894802)
(6.033543 0.92190453 0.21917799)
(5.9372533 0.80454191 0.077372353)
(5.8331275 0.67021782 0.16988161)
(5.8423187 0.58125602 0.12198042)
(5.844544 0.53047631 0.11441005)
(5.8493547 0.46843846 0.11422665)
(5.8527409 0.41676125 0.1115558)
(5.8534857 0.36917589 0.10711302)
(5.8526986 0.32532735 0.10249141)
(5.8508513 0.27690191 0.098424421)
(5.844678 0.24019554 0.094935771)
(5.8422815 0.19861274 0.088138976)
(5.8380132 0.16420835 0.083284103)
(5.8327267 0.12347375 0.079911712)
(5.8257136 0.10026122 0.07498991)
(5.8233027 0.057051227 0.070662467)
(5.8159165 0.038023479 0.067147301)
(5.8069975 -0.0025740354 0.062766968)
(5.7991892 -0.014933847 0.057538136)
(5.7897384 -0.054161408 0.054211706)
(5.7833969 -0.067816135 0.050554264)
(5.7748612 -0.10116548 0.046164114)
(5.7648202 -0.11464276 0.043035247)
(5.75519 -0.14380562 0.036722079)
(5.7463395 -0.15720401 0.033472241)
(5.7366752 -0.18302817 0.026836374)
(5.7294605 -0.1949385 0.022285915)
(5.7225722 -0.2206523 0.017340359)
(5.719374 -0.23379001 0.011760759)
(5.7163249 -0.25564092 0.0074653706)
(5.7149918 -0.2670132 -0.0021525364)
(5.7164826 -0.28775419 -0.00080934198)
(5.7251295 -0.30975165 0.0082368585)
(5.7455412 -0.33636487 0.01678078)
(5.7514354 -0.32823124 0.027991959)
(5.7042667 -0.30953272 0.040537258)
(5.6179174 -0.28048689 0.039105832)
(5.6279016 -0.26384804 0.049272272)
(5.7179115 -0.2995359 0.041254939)
(5.7678687 -0.31801693 0.029539924)
(5.7641573 -0.33248015 0.022047998)
(5.7384529 -0.31074749 0.019606041)
(5.723597 -0.28504598 0.01774072)
(5.7214444 -0.26327489 0.018070243)
(5.7230016 -0.25252678 0.023464881)
(5.7247118 -0.23033381 0.028396659)
(5.7271268 -0.2181894 0.032241265)
(5.7345105 -0.1916219 0.035837751)
(5.7428239 -0.17938547 0.040305101)
(5.7518208 -0.15205589 0.04618559)
(5.7602222 -0.13972397 0.049046824)
(5.7702877 -0.10804982 0.054138516)
(5.7794855 -0.09325349 0.057251842)
(5.7883904 -0.063591529 0.061117044)
(5.7945589 -0.046355282 0.06554802)
(5.8044716 -0.0089038899 0.068577712)
(5.8132556 0.0093577994 0.073759883)
(5.8212105 0.045142467 0.078011986)
(5.8282425 0.066348648 0.08194984)
(5.8311339 0.10948339 0.085452307)
(5.8387158 0.13641575 0.089718464)
(5.8439674 0.17620173 0.095009924)
(5.8486903 0.21047522 0.099282859)
(5.8510019 0.2543693 0.10460207)
(5.8557454 0.2918814 0.10880174)
(5.8582394 0.33819733 0.11131259)
(5.8595734 0.38588032 0.1172415)
(5.8575388 0.43503467 0.12163172)
(5.8507235 0.48716893 0.12192126)
(5.8481384 0.55453643 0.12549707)
(5.8793005 0.72853372 0.20963911)
(5.9535129 0.72342182 0.20456015)
(6.0283571 0.85862877 0.046145752)
(6.0675083 0.74164089 0.29676973)
(5.972833 0.8830329 0.21173416)
(5.7198821 0.86730291 0.1085766)
(5.5539613 1.139336 0.23116443)
(5.4903786 1.2321775 0.29334821)
(5.5765984 1.3787317 -0.20974989)
(5.5251101 1.4562611 -0.31012724)
(5.3021107 1.5697137 -0.01892961)
(5.1379583 1.71072 0.023920961)
(4.9672807 1.8852174 0.13226618)
(4.5857915 2.151909 -0.17624687)
(4.5201867 2.8549498 -0.039970329)
(4.0575654 3.6955196 -0.25553688)
(2.5518571 2.7631661 -1.0552539)
(2.3735803 1.787575 -2.0170644)
(2.3014518 2.3179204 -1.5060485)
(2.9799809 0.84289284 -0.59317458)
(2.2341816 0.45350908 -1.0534059)
(1.920306 0.5745568 -1.3855932)
(2.5022009 0.8450439 -1.2189976)
(2.6073291 0.84639961 -1.3041434)
(2.7432927 0.74748109 -1.3161848)
(2.274845 0.28226296 -1.1176441)
(2.9021585 0.67718978 -1.2826376)
(2.5257692 0.72202066 -1.1472469)
(2.9253175 0.2631125 -0.98217406)
(3.4574817 1.0157456 -2.2280201)
(2.8305379 1.0973464 -0.86212855)
(3.378572 1.0789862 -1.1900004)
(3.1941612 1.3684567 -1.1910046)
(3.2752191 1.8110698 -1.164719)
(3.196977 2.1682144 -0.80540985)
(4.1288634 2.9846651 -0.48064939)
(3.3436815 2.1406837 -1.1060635)
(3.2984979 2.6279649 -1.0969797)
(3.148686 2.8289194 -0.74577642)
(3.4129063 2.7571561 -0.3112006)
(3.3789994 1.7053816 -0.18227836)
(3.7033514 0.81240578 -0.042938547)
(4.2751918 0.26404657 -0.11338885)
(4.6298065 0.15380651 0.0080989141)
(4.6126601 0.16455989 0.048466129)
(5.2538618 0.0086979208 9.2865297e-05)
(5.2744712 0.0071033057 0.0004013742)
(5.2914028 0.0052424204 0.00067312409)
(5.3040482 0.0032201939 0.00092709835)
(5.3120632 0.0011364124 0.0011475927)
(5.315351 -0.00088338935 0.0013186171)
(5.314066 -0.0027433354 0.0014309792)
(5.3084769 -0.0044584659 0.0015036155)
(5.2989187 -0.0059847336 0.0015422119)
(5.2858264 -0.0072976562 0.0015522554)
(5.2696969 -0.0083831094 0.0015392828)
(5.2510691 -0.0092320083 0.0015086747)
(5.2305132 -0.0098377209 0.0014651438)
(5.2086218 -0.010197699 0.0014126961)
(5.2090026 -0.031277683 0.0015569573)
(5.231286 -0.030186437 0.00161105)
(5.2522342 -0.028341747 0.0016539444)
(5.271247 -0.02575396 0.0016821476)
(5.2877491 -0.02244397 0.001691196)
(5.3011956 -0.018438432 0.0016756846)
(5.3110776 -0.013776732 0.0016298943)
(5.3169424 -0.0085341894 0.0015494783)
(5.3184657 -0.0028706895 0.0014310625)
(5.3153509 0.0033346441 0.0012356444)
(5.3073446 0.0097945351 0.00097191608)
(5.294519 0.016037146 0.00068188483)
(5.277242 0.021804473 0.00036236178)
(5.2561849 0.026795342 -8.3316012e-05)
(5.261379 0.046785663 -6.7000835e-05)
(5.2834758 0.037879048 0.00041980456)
(5.3014616 0.027698052 0.00076547365)
(5.3146907 0.016721632 0.001113316)
(5.3226636 0.0051404113 0.0014800158)
(5.3252938 -0.0057226916 0.0017115974)
(5.3232115 -0.015286189 0.001769178)
(5.316769 -0.024353552 0.001833876)
(5.306172 -0.032380634 0.0018695221)
(5.2919462 -0.039257453 0.001875436)
(5.2746291 -0.044934984 0.00185772)
(5.2547743 -0.049372952 0.0018219851)
(5.2329646 -0.052530463 0.001771891)
(5.2098173 -0.054380267 0.0017095448)
(5.2111139 -0.080259487 0.001792407)
(5.2357179 -0.077634632 0.0018736919)
(5.2589672 -0.073083264 0.0019445828)
(5.2802183 -0.066675499 0.0020073679)
(5.2988865 -0.058489061 0.0020611589)
(5.3144218 -0.048571715 0.0021004084)
(5.326254 -0.036937805 0.0021161527)
(5.3337384 -0.023665302 0.002109285)
(5.3367742 -0.01024637 0.0021593238)
(5.3350377 0.0058254362 0.0019372967)
(5.3272144 0.023984589 0.0014021359)
(5.3133023 0.040419506 0.00099025013)
(5.294178 0.055758055 0.00059090082)
(5.2703054 0.069266747 0.0001904389)
(5.2839641 0.094782747 0.00047585947)
(5.3104252 0.075621035 0.00091288504)
(5.3311657 0.054098756 0.0013605966)
(5.3459524 0.03132189 0.0018295185)
(5.3535361 0.0045953319 0.0024713335)
(5.3539795 -0.017369748 0.0027756724)
(5.3493324 -0.034728623 0.0027034467)
(5.340061 -0.0524728 0.0025954635)
(5.3263195 -0.067786562 0.0024562668)
(5.3088669 -0.080763301 0.0023158564)
(5.2882668 -0.091521941 0.0021910374)
(5.265009 -0.09999842 0.0020833162)
(5.239652 -0.10602953 0.0019836142)
(5.2128746 -0.1094332 0.0018756686)
(5.2149963 -0.14242957 0.0021398288)
(5.2447943 -0.13819029 0.0022638518)
(5.2729634 -0.13050911 0.0023747259)
(5.2987847 -0.11985768 0.002534469)
(5.321791 -0.10660812 0.0027871015)
(5.3417142 -0.09095802 0.0031606752)
(5.358148 -0.07245452 0.0036433483)
(5.3707662 -0.051041078 0.004100792)
(5.378043 -0.027828719 0.0037044167)
(5.3788699 0.00088704258 0.0031504921)
(5.3716523 0.038194291 0.0023966364)
(5.3560149 0.068297651 0.0018664371)
(5.3333718 0.097330247 0.0013496358)
(5.3035794 0.12370353 0.00083451771)
(5.3306526 0.15605961 0.0012028567)
(5.364205 0.120419 0.0018906232)
(5.3886244 0.082169178 0.0025344403)
(5.4045737 0.043699775 0.0031192224)
(5.410943 -0.0057623932 0.0039596445)
(5.4088387 -0.041788197 0.0048288957)
(5.3995443 -0.074383658 0.0059976121)
(5.381448 -0.1019969 0.006402981)
(5.3595535 -0.11948639 0.0047202886)
(5.3370319 -0.13641318 0.0036785163)
(5.3115923 -0.151925 0.0031629406)
(5.2828971 -0.16502915 0.0029865159)
(5.2512431 -0.17492322 0.0029881697)
(5.2173474 -0.18033904 0.0028941834)
(5.2199294 -0.22494269 0.0039255927)
(5.2595964 -0.21748015 0.0041772413)
(5.2952995 -0.20419449 0.0042513453)
(5.3265936 -0.18773736 0.0041970567)
(5.3532157 -0.17000531 0.0053009664)
(5.3817457 -0.16069534 0.0084973757)
(5.4121899 -0.14374655 0.0092334929)
(5.4342039 -0.10356879 0.0073973064)
(5.4453351 -0.058856777 0.0057622856)
(5.4490522 -0.015695017 0.004772499)
(5.4446547 0.046291937 0.0040563722)
(5.4298578 0.094282115 0.0034625266)
(5.4044167 0.14374367 0.0029755951)
(5.366861 0.19138307 0.0020750331)
(5.4149221 0.22794808 0.0038603708)
(5.4558866 0.16515875 0.0045837636)
(5.4807135 0.10236827 0.0050039612)
(5.4915532 0.043011033 0.0056168261)
(5.492539 -0.02880245 0.0061209121)
(5.4857159 -0.079786461 0.0065620487)
(5.4709238 -0.13553301 0.007571735)
(5.4496566 -0.18947893 0.010731137)
(5.4118493 -0.22328661 0.012504102)
(5.3730789 -0.2096135 0.0079280758)
(5.3443212 -0.22478205 0.0037758849)
(5.3112761 -0.24671279 0.0041486339)
(5.2709267 -0.26545881 0.0039607306)
(5.2231185 -0.27811868 0.0045543172)
(5.2288174 -0.34131677 0.0029629488)
(5.2883673 -0.31397594 0.0013074609)
(5.3324951 -0.28730757 0.0014072012)
(5.3604236 -0.2543909 0.0036573526)
(5.4108775 -0.21046652 -0.066717642)
(5.4734705 -0.2824101 0.013783024)
(5.4720977 -0.21856382 -0.0041101042)
(5.4985356 -0.16983438 0.004705015)
(5.5272383 -0.10845075 0.0068999624)
(5.5441463 -0.047267519 0.0085594148)
(5.5497636 0.030653142 0.0085639625)
(5.5455073 0.10324514 0.0082921767)
(5.5246093 0.18128793 0.0076141702)
(5.4828474 0.2631641 0.006040251)
(4.7978195 0.60105459 -0.012614593)
(4.8951327 0.58153973 0.0098327282)
(5.0759953 0.51339377 0.018786033)
(5.1894871 0.77333915 -0.08058056)
(5.1393072 0.57360368 0.022177276)
(5.1668429 0.49397142 0.059165809)
(5.2801707 0.46847224 -0.003264052)
(5.3962457 0.48568913 0.044922773)
(5.4473816 0.39325912 -0.0093704242)
(5.5175052 0.40749358 0.035367457)
(5.5473077 0.27915543 -0.0054200403)
(5.5869082 0.31153926 0.028505051)
(5.6031879 0.16086541 0.00015249737)
(5.6206712 0.2197912 0.022169701)
(5.6284509 0.05266227 0.0079124101)
(5.628808 0.13770358 0.01608236)
(5.6292826 -0.038658581 0.0011543984)
(5.6208892 0.059336936 0.011230586)
(5.617977 -0.11746151 -0.0029249667)
(5.6048671 -0.027240898 -0.00038487039)
(5.5971577 -0.18360259 -0.0052038942)
(5.5768549 -0.10079475 -0.008266337)
(5.5631382 -0.24502216 -0.0047148786)
(5.5279676 -0.17214869 -0.0073019647)
(5.4950331 -0.28551025 -0.0086551738)
(5.425863 -0.20512031 -0.0062507682)
(5.3191986 -0.20231991 -0.046776279)
(5.3074161 -0.37165303 0.024842789)
(5.5219596 -0.33163637 0.040967498)
(5.6826683 -0.24176536 0.11411585)
(5.5261716 -0.33013029 -0.051138214)
(5.4707166 -0.16697605 -0.043319272)
(5.6134084 -0.42115787 0.039633064)
(5.5900005 -0.47137186 0.0073353872)
(5.5485366 -0.53339493 -0.0012520212)
(5.5864481 -0.46514095 -0.0042589979)
(5.6703529 -0.33126791 -0.022663102)
(5.7391263 -0.56139814 -0.0143605)
(5.7368166 -0.3277149 0.0018768449)
(5.6468747 -0.42338789 0.016003099)
(5.5804893 -0.26831036 0.015314706)
(5.5691259 -0.37513056 -0.0067074302)
(5.5813419 -0.25719397 -0.00038933178)
(5.5994469 -0.36554823 -0.018345568)
(5.6313111 -0.22241943 -0.002809342)
(5.6544734 -0.33072095 -0.0092579986)
(5.6729079 -0.19659682 0.00058451131)
(5.6800182 -0.30393386 -0.0060310999)
(5.6964219 -0.14825414 0.0028505376)
(5.7139781 -0.26100705 -0.0050217041)
(5.7248905 -0.11442656 0.0090048388)
(5.7284348 -0.22639744 -0.0025201708)
(5.7383697 -0.062817666 0.0086415654)
(5.7529219 -0.17485834 -0.0019414133)
(5.7602779 -0.017304431 0.011367882)
(5.7623912 -0.13223877 0.00060667737)
(5.7676387 0.046851157 0.010285047)
(5.7782718 -0.072608816 0.0014622681)
(5.7840797 0.095349664 0.012975185)
(5.7811406 -0.02137259 0.0065252026)
(5.7851919 0.15775751 0.012886755)
(5.7967077 0.053235396 0.0047528248)
(5.7985937 0.21769132 0.015483229)
(5.7950115 0.12106368 0.0074135757)
(5.7921521 0.29367646 0.016024337)
(5.8039514 0.22398772 0.00896464)
(5.80198 0.37111887 0.018233)
(5.8007335 0.31301648 0.013176128)
(5.7939722 0.46754044 0.020156893)
(5.8003314 0.43005847 0.015340418)
(5.7907889 0.54803438 0.022493779)
(5.7977373 0.52293363 0.017532847)
(5.7743634 0.64135287 0.028158158)
(5.7176031 0.64277538 0.05546988)
(5.7043257 0.66794693 0.052289925)
(5.5810132 0.86224122 0.022368459)
(5.4656093 0.73630316 0.053303108)
(5.3710354 1.0459523 0.01062761)
(5.1615717 1.147603 0.011482424)
(4.9457748 1.1213092 -0.0036764901)
(4.7159938 1.0909551 -0.013668662)
(4.4964744 1.0717937 -0.04080565)
(4.3401998 0.74674019 -0.01530891)
(4.3234097 0.62137373 -0.049998033)
(4.6859696 0.55006878 -0.097234979)
(5.2087146 -0.010161699 0.0044117828)
(5.2089106 -0.01005033 0.0076247663)
(5.2092157 -0.0098749514 0.010908758)
(5.2096219 -0.0096843308 0.014141696)
(5.2101075 -0.0095299198 0.01722377)
(5.2106412 -0.0094122188 0.020094857)
(5.2111895 -0.0093027722 0.022729455)
(5.211721 -0.0091805494 0.025125872)
(5.2122059 -0.0090407902 0.027297777)
(5.2126142 -0.0088881476 0.029268046)
(5.2129145 -0.0087289819 0.031066274)
(5.2130729 -0.0085677623 0.032727919)
(5.2130538 -0.008405846 0.034292583)
(5.2128192 -0.0082404966 0.03579947)
(5.21233 -0.008063955 0.037279349)
(5.211548 -0.0078622229 0.038742082)
(5.2296501 -0.0070251576 0.037525238)
(5.2309625 -0.0072610754 0.036406203)
(5.2319247 -0.0074761367 0.035228597)
(5.2325828 -0.0076823314 0.033981197)
(5.232982 -0.0078859058 0.032634422)
(5.2331645 -0.0080885103 0.031151269)
(5.2331691 -0.0082881824 0.029494673)
(5.2330314 -0.0084800934 0.027631465)
(5.2327843 -0.0086576548 0.025533847)
(5.2324587 -0.008815814 0.02318023)
(5.232085 -0.0089584421 0.020557902)
(5.231695 -0.0091053732 0.01766938)
(5.2313223 -0.0092835265 0.014542118)
(5.2309999 -0.0094919295 0.01124064)
(5.2307519 -0.0096795615 0.007871875)
(5.2305902 -0.0097980396 0.0045648146)
(5.2511244 -0.0091892418 0.0046880717)
(5.251238 -0.0090640792 0.0080642678)
(5.2514055 -0.0088633391 0.011490089)
(5.2516105 -0.0086362206 0.014829217)
(5.2518264 -0.0084318066 0.017968849)
(5.2520204 -0.0082516869 0.020840657)
(5.2521602 -0.008071193 0.023415833)
(5.2522151 -0.0078724593 0.025691451)
(5.2521551 -0.0076526987 0.027679512)
(5.2519498 -0.0074173046 0.029400217)
(5.2515665 -0.0071730021 0.030879139)
(5.2509695 -0.0069248675 0.032146377)
(5.2501189 -0.0066754994 0.033235291)
(5.2489707 -0.0064243861 0.034179134)
(5.2474764 -0.0061671306 0.035004774)
(5.2455852 -0.0058944728 0.03572345)
(5.2586744 -0.0044950923 0.033296316)
(5.2611912 -0.0048049823 0.033020756)
(5.263278 -0.0051056973 0.032586201)
(5.2649869 -0.0054033225 0.031982617)
(5.266366 -0.0057002107 0.0311872)
(5.2674584 -0.0059956815 0.030171594)
(5.268302 -0.0062865951 0.028906917)
(5.2689307 -0.0065677139 0.02736655)
(5.2693753 -0.0068323303 0.025527262)
(5.2696646 -0.0070747218 0.023370135)
(5.2698264 -0.0072963455 0.020883606)
(5.2698886 -0.0075125171 0.018070542)
(5.2698805 -0.0077448495 0.014960513)
(5.2698323 -0.0079908449 0.01162464)
(5.2697724 -0.0082039712 0.0081799489)
(5.2697231 -0.0083363674 0.0047688928)
(5.2858148 -0.0072462441 0.0047920963)
(5.2857808 -0.0071063383 0.0081913106)
(5.2857021 -0.0068815176 0.011605043)
(5.285549 -0.0066169415 0.014887001)
(5.285293 -0.0063563247 0.017916134)