/*--------------------------------*- C++ -*----------------------------------*\
| =========                 |                                                 |
| \\      /  F ield         | OpenFOAM: The Open Source CFD Toolbox           |
|  \\    /   O peration     | Version:  v2012                                 |
|   \\  /    A nd           | Website:  www.openfoam.com                      |
|    \\/     M anipulation  |                                                 |
\*---------------------------------------------------------------------------*/
FoamFile
{
    version     2.0;
    format      ascii;
    class       volScalarField;
    location    "433";
    object      k;
}
// * * * * * * * * * * * * * * * * * * * * * * * * * * * * * * * * * * * * * //

dimensions      [0 2 -2 0 0 0 0];


internalField   nonuniform List<scalar> 
229778
(
0.23659582
0.23112647
0.22612262
0.22151862
0.21728218
0.21336821
0.20974033
0.2063662
0.203218
0.20027174
0.19750662
0.19490477
0.19245013
0.19012901
0.1879289
0.1858391
0.18384996
0.18195283
0.18013996
0.1784044
0.17673962
0.17513995
0.17360053
0.17211668
0.17068391
0.16929861
0.167957
0.16665607
0.16539258
0.16416381
0.16296723
0.1618008
0.16066223
0.15954995
0.15846199
0.15739708
0.15635351
0.15533022
0.15432568
0.1533384
0.23073371
0.23222235
0.23367835
0.23510958
0.23651316
0.23789657
0.23925354
0.24058325
0.24188116
0.24315156
0.24439854
0.24561366
0.24679925
0.2479578
0.24908764
0.25019426
0.25127589
0.25232767
0.25335215
0.25435147
0.2553287
0.25628698
0.25722506
0.25814179
0.25903946
0.25991988
0.26078361
0.26163345
0.26246965
0.26329308
0.26410465
0.26490553
0.26569731
0.26648095
0.26725671
0.26802594
0.26878933
0.26954743
0.27030053
0.27104922
0.27179411
0.27253566
0.27327427
0.27401037
0.27474439
0.27547683
0.27620811
0.27693873
0.27766919
0.27840001
0.27913169
0.27986479
0.28059986
0.28133741
0.28207799
0.28282215
0.28357041
0.28432325
0.28508116
0.28584457
0.28661393
0.2873896
0.28817194
0.28896126
0.28975784
0.29056192
0.27838585
0.27764643
0.27690414
0.2761588
0.27541025
0.27465826
0.2739026
0.27314289
0.27237881
0.27160984
0.27083552
0.27005517
0.26926817
0.26847367
0.26767092
0.26685886
0.26603665
0.26520306
0.26435716
0.26349758
0.26262335
0.261733
0.2608256
0.2598996
0.25895418
0.25798774
0.25699963
0.2559883
0.2549533
0.25389316
0.25280772
0.25169558
0.25055689
0.24939038
0.24819654
0.24697422
0.24572423
0.24444553
0.24313925
0.24180459
0.2404432
0.23905454
0.23764058
0.23620089
0.23473775
0.23325077
0.2317423
0.23021162
0.22865936
0.22707894
0.22703171
0.22861667
0.2301723
0.231706
0.23321819
0.23470824
0.23617517
0.23761815
0.23903611
0.24042828
0.24179385
0.24313225
0.24444274
0.245725
0.24697889
0.24820452
0.24940193
0.25057148
0.25171344
0.25282839
0.25391682
0.25497953
0.25601726
0.25703095
0.25802152
0.25899006
0.25993766
0.26086553
0.26177485
0.26266684
0.26354272
0.26440373
0.26525103
0.26608584
0.26690924
0.26772232
0.26852607
0.26932142
0.27010923
0.27089029
0.27166527
0.27243482
0.27319945
0.27395962
0.27471572
0.27546808
0.27621697
0.27696259
0.27770513
0.27844482
0.27857783
0.2778383
0.27709587
0.27635039
0.27560167
0.27484953
0.27409372
0.27333392
0.27256975
0.27180079
0.2710265
0.27024628
0.26945943
0.26866521
0.26786276
0.26705115
0.2662294
0.26539645
0.26455119
0.26369245
0.26281904
0.26192973
0.26102329
0.26009851
0.25915418
0.2581891
0.25720213
0.25619222
0.25515839
0.25409974
0.2530154
0.25190461
0.25076679
0.2496014
0.24840794
0.24718618
0.24593591
0.24465736
0.24335021
0.24201542
0.24065369
0.23926564
0.2378516
0.23641266
0.23494967
0.23346355
0.23195485
0.23042446
0.2288718
0.22729189
0.22769641
0.22927504
0.23082429
0.23235057
0.23385497
0.23533593
0.23679385
0.23822648
0.23963497
0.24101638
0.24237125
0.24369912
0.2449999
0.2462727
0.24751829
0.24873495
0.24992334
0.25108281
0.25221473
0.25331963
0.25439811
0.25545089
0.25647901
0.25748343
0.2584651
0.25942509
0.26036457
0.26128476
0.26218689
0.26307218
0.26394186
0.26479717
0.26563929
0.2664694
0.2672886
0.26809795
0.26889842
0.2696909
0.27047623
0.27125516
0.27202834
0.27279639
0.27355979
0.27431897
0.27507431
0.27582609
0.27657452
0.27731978
0.278062
0.27880138
0.27986663
0.27913028
0.27839112
0.27764908
0.27690404
0.2761559
0.2754045
0.27464972
0.27389124
0.27312869
0.27236169
0.27158974
0.27081229
0.2700287
0.26923825
0.26844011
0.26763343
0.26681725
0.26599053
0.26515213
0.2643009
0.26343565
0.26255518
0.26165819
0.26074349
0.25980979
0.25885591
0.25788061
0.25688286
0.25586167
0.25481606
0.25374427
0.25264667
0.25152241
0.25037057
0.24918842
0.24797787
0.24673959
0.2454763
0.24418409
0.24286468
0.24151818
0.24014479
0.23874274
0.23731708
0.23586473
0.23439095
0.23289111
0.23136938
0.22982471
0.22825397
0.22883081
0.23039691
0.23193326
0.23344593
0.23494003
0.23641231
0.23786234
0.23928878
0.24068774
0.24205725
0.24340002
0.24471673
0.24600644
0.24726633
0.2484987
0.2497037
0.25088052
0.25202729
0.25314667
0.2542396
0.25530709
0.25634902
0.25736661
0.2583607
0.2593326
0.26028284
0.26121334
0.26212483
0.26301898
0.26389661
0.26475928
0.26560816
0.26644444
0.26726918
0.26808362
0.26888879
0.26968563
0.270475
0.27125771
0.27203446
0.27280588
0.27357251
0.27433481
0.27509316
0.27584788
0.27659922
0.27734739
0.27809246
0.27883452
0.27957363
0.28030995
0.28087417
0.28013778
0.27939844
0.2786561
0.27791075
0.27716227
0.27641065
0.27565566
0.27489709
0.27413463
0.27336795
0.27259656
0.27182001
0.27103763
0.27024878
0.2694526
0.26864826
0.26783484
0.26701133
0.26617644
0.2653291
0.26446845
0.26359284
0.26270081
0.26179125
0.26086296
0.25991567
0.25894605
0.25795396
0.25693866
0.25589944
0.25483676
0.25374883
0.25263225
0.2514875
0.2503151
0.24911482
0.24788507
0.24662755
0.24534117
0.2440278
0.24268597
0.24131771
0.23992213
0.23850408
0.23705903
0.23559383
0.23410577
0.23259632
0.23106096
0.22949919
0.23171073
0.23325017
0.23475936
0.23624932
0.2377181
0.2391651
0.24058655
0.24198403
0.24335406
0.24469845
0.24601391
0.24730079
0.24855872
0.24979047
0.25099018
0.2521607
0.25330567
0.25442135
0.25550917
0.25657322
0.25761245
0.25862806
0.25961994
0.26058975
0.26153783
0.26246701
0.26337631
0.26426796
0.2651434
0.26600416
0.26685211
0.26768755
0.26851155
0.26932562
0.2701306
0.27092756
0.27171722
0.27250051
0.273278
0.27405037
0.27481804
0.27558152
0.27634107
0.27709701
0.27784955
0.27859896
0.27934517
0.28008822
0.28082812
0.28156499
0.2823913
0.28165361
0.28091266
0.28016845
0.27942096
0.27867016
0.27791617
0.27715863
0.27639742
0.27563225
0.27486287
0.27408878
0.2733096
0.27252463
0.27173332
0.27093474
0.27012824
0.26931262
0.26848712
0.26765054
0.26680248
0.26594085
0.26506511
0.26417264
0.26326327
0.26233434
0.26138628
0.26041622
0.2594248
0.258409
0.25737014
0.25630509
0.2552147
0.25409684
0.25295208
0.2517793
0.25058043
0.24935058
0.24809397
0.24680638
0.24548901
0.24414307
0.24277063
0.24137135
0.23995032
0.23850322
0.23703619
0.2355456
0.23403246
0.23249104
0.23328875
0.23483939
0.23636104
0.23785896
0.23933019
0.24077968
0.24220816
0.24361291
0.24499061
0.24634059
0.24766188
0.24895257
0.25021398
0.25144805
0.25265281
0.25383119
0.25498148
0.25610167
0.25719394
0.25826175
0.25930432
0.26032288
0.2613176
0.26229023
0.26324136
0.26417307
0.26508607
0.26598148
0.26686013
0.26772425
0.268575
0.26941423
0.27024254
0.27106119
0.27187068
0.27267225
0.27346659
0.27425449
0.27503661
0.27581353
0.27658573
0.2773536
0.27811746
0.27887749
0.27963389
0.28038698
0.28113656
0.28188267
0.28262535
0.28336458
0.28449879
0.28375727
0.28301199
0.282263
0.28151035
0.28075406
0.27999429
0.27923073
0.27846326
0.27769169
0.27691576
0.27613504
0.27534912
0.27455738
0.27375919
0.27295381
0.27214075
0.27131845
0.27048658
0.26964384
0.26878903
0.26792068
0.26703748
0.26613848
0.26522294
0.26428852
0.26333515
0.2623597
0.26136134
0.26033924
0.25929284
0.25822107
0.25712399
0.2559998
0.25484712
0.25366547
0.25245777
0.2512206
0.24995703
0.24866149
0.24733497
0.24598061
0.24459884
0.24318963
0.24175629
0.24029853
0.23881779
0.2373122
0.23578133
0.23422087
0.23677909
0.23832871
0.23984664
0.24133749
0.24280369
0.24424428
0.24565922
0.24704544
0.24840517
0.24974019
0.25104338
0.25231484
0.25355902
0.25477691
0.25596791
0.25712794
0.25825905
0.25936262
0.26044063
0.26149261
0.26251997
0.2635235
0.2645043
0.26546349
0.26640353
0.26732532
0.26823011
0.26911891
0.26999299
0.27085408
0.27170316
0.27254126
0.27336948
0.27418859
0.27499973
0.27580354
0.27660087
0.27739229
0.27817843
0.27895968
0.27973651
0.28050914
0.28127775
0.28204242
0.28280343
0.28356057
0.28431377
0.28506297
0.28580808
0.28730669
0.28655642
0.28580167
0.28504256
0.28427922
0.28351175
0.2827404
0.28196497
0.28118543
0.28040155
0.27961324
0.27881987
0.27802107
0.27721633
0.27640507
0.27558646
0.27475979
0.273924
0.27307823
0.27222138
0.27135311
0.27047126
0.26957527
0.26866259
0.26773354
0.26678591
0.26581882
0.26483035
0.26381974
0.26278579
0.26172721
0.26064252
0.25953188
0.25839296
0.25722729
0.25602984
0.25480343
0.25354791
0.25226456
0.25095141
0.24961052
0.24824129
0.24684548
0.24542169
0.24397317
0.24249877
0.24099917
0.23946887
0.23790911
0.24067073
0.2422194
0.24372915
0.2452117
0.24666861
0.24810444
0.24951341
0.25089506
0.25224866
0.25357275
0.25486736
0.25613503
0.25737374
0.25858067
0.25975654
0.2609058
0.26202762
0.26312258
0.26419146
0.26523603
0.26625742
0.26725782
0.26823715
0.26919702
0.27013835
0.27106201
0.27196877
0.27286091
0.2737397
0.27460708
0.27546331
0.27630945
0.27714648
0.27797533
0.27879681
0.27961168
0.28042062
0.2812239
0.28202203
0.28281559
0.28360483
0.28438969
0.28517025
0.28594668
0.28671867
0.28748606
0.28824868
0.2890064
0.29091609
0.29014817
0.28937481
0.28859622
0.28781264
0.28702429
0.28623151
0.28543414
0.28463227
0.2838258
0.28301462
0.28219835
0.28137655
0.28054884
0.27971459
0.27887292
0.27802306
0.27716425
0.27629547
0.27541546
0.2745235
0.2736179
0.27269774
0.27176119
0.27080726
0.2698345
0.26884213
0.26782879
0.266794
0.26573576
0.26465369
0.26354571
0.2624132
0.26125214
0.26006296
0.25884536
0.25759924
0.25632317
0.25502084
0.25368717
0.2523231
0.25093196
0.24951408
0.24806971
0.24660036
0.24510356
0.24357978
0.24202223
0.24342902
0.24500367
0.2465427
0.24805717
0.24953991
0.25099374
0.25241864
0.25381721
0.25519151
0.25653752
0.25785425
0.25914502
0.26040372
0.26163317
0.26283672
0.26401272
0.2651616
0.26628619
0.26738523
0.26846037
0.26951221
0.27054157
0.27154996
0.27253885
0.27350901
0.27446206
0.27539885
0.27632149
0.27723067
0.27812716
0.27901214
0.27988737
0.28075404
0.2816124
0.28246324
0.28330768
0.28414637
0.28497957
0.28580762
0.2866309
0.28744943
0.28826315
0.28907205
0.28987622
0.29067522
0.29146879
0.29225662
0.29303848
0.29536885
0.29456879
0.29376211
0.29294914
0.29213024
0.29130579
0.29047627
0.28964166
0.28880214
0.28795774
0.28710857
0.28625415
0.28539432
0.28452864
0.28365664
0.28277745
0.28189049
0.28099473
0.28008934
0.2791729
0.27824457
0.27730288
0.27634752
0.27537585
0.27438698
0.2733797
0.27235324
0.27130604
0.27023688
0.26914471
0.26802954
0.26688945
0.26572588
0.26453438
0.26331605
0.26207035
0.26079915
0.25949743
0.25816936
0.25681112
0.25542828
0.25401959
0.25258393
0.25111896
0.24962767
0.24810587
0.24655503
0.24811016
0.2496736
0.25120565
0.25270935
0.25418518
0.25563287
0.25705491
0.25845119
0.25982314
0.26116736
0.2624844
0.26377285
0.26503599
0.2662714
0.26748022
0.26866322
0.26982266
0.27095759
0.27206931
0.27315853
0.27422686
0.27527516
0.27630456
0.27731624
0.27831096
0.27929031
0.28025615
0.28120903
0.28215005
0.28308043
0.28400168
0.28491427
0.28581922
0.28671723
0.28760921
0.28849541
0.28937625
0.290252
0.29112291
0.29198886
0.29284965
0.29370515
0.29455526
0.29539936
0.29623701
0.29706777
0.29789123
0.30057723
0.2997248
0.29886427
0.29799618
0.29712109
0.29623955
0.29535228
0.29445947
0.29356143
0.2926584
0.29175052
0.29083773
0.28992003
0.28899676
0.2880678
0.28713209
0.28618934
0.28523827
0.28427862
0.28330866
0.2823274
0.28133383
0.28032711
0.27930582
0.27826874
0.27721502
0.2761434
0.27505267
0.27394189
0.27280978
0.27165526
0.27047724
0.26927539
0.26804903
0.26679933
0.265522
0.26421978
0.2628886
0.26152942
0.2601425
0.25873018
0.25729376
0.25583512
0.25434682
0.25283391
0.25129017
0.2497149
0.25123871
0.25282732
0.25438376
0.25591392
0.25741656
0.25889043
0.2603414
0.26177123
0.26317318
0.26454653
0.26589372
0.26721434
0.26851003
0.26977999
0.27102607
0.27224848
0.27344789
0.27462489
0.27578062
0.27691594
0.27803243
0.27913107
0.28021299
0.28127997
0.28233209
0.28337044
0.28439632
0.28541055
0.28641457
0.28740922
0.2883958
0.28937494
0.29034733
0.29131347
0.29227423
0.2932299
0.29418084
0.29512703
0.29606848
0.29700496
0.29793615
0.29886167
0.29978106
0.30069347
0.30159826
0.30249472
0.30338225
0.30624506
0.30531644
0.30437785
0.30343003
0.30247387
0.30151023
0.30054012
0.29956403
0.29858262
0.2975963
0.29660546
0.29561017
0.29461054
0.29360627
0.2925972
0.29158275
0.29056268
0.28953592
0.28850214
0.28745983
0.28640863
0.28534644
0.28427247
0.28318567
0.28208564
0.28097176
0.27984222
0.27869726
0.27753493
0.27635342
0.27515235
0.27393026
0.27268699
0.27142162
0.27013305
0.26881869
0.26747961
0.26611496
0.26472582
0.26331063
0.26187147
0.2604076
0.25892054
0.25740818
0.25587095
0.25430665
0.25271239
0.2539728
0.25557835
0.25715142
0.25869818
0.26021959
0.26171692
0.26319305
0.26464464
0.26607251
0.26747627
0.26885823
0.2702166
0.27154996
0.27285918
0.27414686
0.27541382
0.2766625
0.27789265
0.27910572
0.28030016
0.2814789
0.28264343
0.28379335
0.28493096
0.28605672
0.28717135
0.28827495
0.28936896
0.29045502
0.29153383
0.29260655
0.29367401
0.29473651
0.29579445
0.2968484
0.29789831
0.29894437
0.29998642
0.30102404
0.30205686
0.30308433
0.30410559
0.30511991
0.30612604
0.30712296
0.30810955
0.30908495
0.31180227
0.31077567
0.3097362
0.30868496
0.30762338
0.30655269
0.30547442
0.30438956
0.30329924
0.30220429
0.30110532
0.30000276
0.29889707
0.29778811
0.29667604
0.29556014
0.29444037
0.29331625
0.29218718
0.29105214
0.28991055
0.28876121
0.2876031
0.28643519
0.28525719
0.28406776
0.28286588
0.28165242
0.28042486
0.27918106
0.27792236
0.2766469
0.27535417
0.27404148
0.27270878
0.27135631
0.26998499
0.26859101
0.26717693
0.26573872
0.26427962
0.26279633
0.26129312
0.25976552
0.25821292
0.2566324
0.2572777
0.25886172
0.2604176
0.26194913
0.26345965
0.26495094
0.26642222
0.26787215
0.26930009
0.27070896
0.27209834
0.27347052
0.274827
0.27616493
0.27748579
0.27879254
0.28008488
0.28136393
0.28262852
0.28388117
0.28512423
0.28635689
0.28758002
0.28879467
0.29000152
0.29120132
0.29239513
0.29358425
0.29476856
0.29594897
0.29712631
0.29830088
0.29947274
0.30064236
0.30180972
0.30297454
0.30413613
0.30529393
0.30644718
0.30759475
0.30873524
0.3098673
0.31098907
0.31209879
0.31319477
0.31427572
0.31636262
0.31522661
0.31407242
0.31290181
0.31171693
0.31052
0.30931339
0.30809884
0.30687816
0.30565281
0.30442406
0.30319251
0.30195892
0.30072371
0.29948718
0.29824923
0.29700988
0.29576875
0.29452569
0.29327962
0.29203048
0.29077699
0.28951833
0.28825382
0.28698314
0.28570506
0.28441885
0.28312527
0.2818216
0.28050649
0.27918002
0.27784133
0.27649061
0.27512616
0.27374756
0.27235383
0.27094501
0.26951934
0.2680772
0.26661744
0.26514202
0.26364803
0.26213781
0.26060576
0.25904913
0.25856455
0.26012096
0.26165238
0.26316501
0.2646635
0.26614939
0.26762101
0.26907804
0.27052223
0.27195219
0.27337004
0.27477409
0.27616587
0.27754715
0.27891992
0.28028314
0.28163768
0.28298303
0.28432083
0.28565366
0.28698079
0.28830275
0.28962082
0.29093486
0.29224585
0.29355468
0.29486212
0.29616847
0.29747427
0.29877979
0.30008533
0.30139058
0.30269557
0.3039995
0.30530188
0.30660185
0.30789834
0.30918982
0.31047439
0.31174976
0.31301361
0.3142629
0.31549469
0.31670622
0.31789528
0.31868055
0.31744471
0.3161801
0.31488973
0.31357732
0.31224676
0.31090197
0.30954601
0.30818184
0.30681188
0.30543818
0.30406225
0.30268546
0.30130838
0.2999319
0.29855614
0.29718143
0.29580791
0.2944355
0.29306386
0.29169294
0.29032185
0.28895048
0.28757748
0.28620308
0.28482564
0.28344473
0.28206127
0.28067286
0.27927857
0.27787822
0.27647124
0.27505764
0.27363639
0.27220789
0.27076933
0.26932167
0.26786252
0.26639349
0.26491169
0.26341812
0.26191276
0.26039583
0.25886502
0.25731733
0.25507313
0.25661727
0.25814672
0.25966561
0.26117616
0.2626774
0.26416916
0.26565245
0.26712847
0.26859716
0.27005961
0.27151597
0.27296758
0.27441436
0.27585726
0.2772963
0.27873254
0.2801653
0.28159635
0.28302756
0.28445747
0.28588731
0.28731785
0.2887492
0.29018244
0.29161805
0.29305617
0.29449637
0.2959391
0.29738457
0.29883239
0.30028209
0.30173314
0.30318456
0.30463529
0.30608362
0.30752762
0.30896468
0.31039153
0.31180448
0.31319933
0.31457092
0.31591413
0.31722405
0.31580563
0.31446246
0.31307521
0.31165101
0.31019687
0.3087196
0.30722459
0.30571693
0.30420055
0.30267895
0.30115441
0.29962926
0.29810479
0.29658249
0.29506293
0.29354716
0.29203525
0.2905277
0.28902402
0.28752433
0.28602856
0.28453666
0.28304813
0.28156277
0.28007996
0.27859935
0.27712142
0.27564432
0.27416707
0.2726897
0.27121166
0.26973351
0.26825362
0.26677245
0.26528781
0.26380054
0.26230909
0.26081431
0.2593133
0.25780634
0.25629329
0.25477573
0.25325004
0.25171402
0.24696756
0.24849784
0.25002093
0.25154033
0.25305752
0.25457233
0.2560829
0.25759082
0.25909844
0.2606072
0.26211486
0.2636222
0.26513127
0.26664292
0.26815688
0.26967301
0.27119207
0.27271342
0.27423838
0.27576878
0.27730372
0.27884364
0.28038891
0.28193953
0.28349626
0.2850581
0.28662552
0.28819861
0.28977737
0.29136152
0.29295072
0.29454374
0.29613947
0.2977364
0.29933233
0.30092465
0.30251043
0.30408568
0.30564468
0.30718126
0.30868835
0.31015693
0.30409438
0.30254076
0.30095012
0.29933161
0.29769343
0.29604215
0.29438302
0.2927201
0.29105641
0.2893942
0.28773537
0.28608118
0.28443296
0.2827913
0.28115673
0.27952927
0.27790966
0.27629706
0.27469215
0.27309407
0.27150287
0.26991852
0.26834114
0.2667715
0.2652078
0.26364925
0.262096
0.26054751
0.259004
0.25746493
0.25593014
0.25439872
0.25287068
0.25134541
0.24982276
0.24830181
0.24678196
0.24526268
0.24374397
0.24222483
0.24070371
0.23266498
0.23418333
0.23570271
0.23722525
0.23875169
0.24028236
0.24181749
0.24335774
0.24490405
0.24645599
0.24801383
0.24957804
0.25114948
0.25272772
0.25431307
0.25590557
0.25750599
0.25911311
0.26072834
0.26235338
0.26398699
0.26562909
0.26727963
0.2689388
0.27060683
0.27228363
0.27396835
0.27566078
0.27736112
0.2790691
0.28078432
0.28250489
0.28422953
0.28595553
0.28768093
0.28940273
0.29111593
0.2928146
0.29449036
0.29613433
0.2977348
0.28806891
0.28636848
0.28463264
0.28287263
0.28109701
0.27931246
0.27752358
0.27573401
0.27394614
0.27216214
0.27038334
0.26861128
0.2668465
0.26508983
0.26334167
0.26160337
0.2598739
0.25815441
0.25644397
0.25474286
0.25305147
0.25137035
0.24970101
0.24804163
0.24639151
0.2447513
0.24312072
0.24150036
0.23988974
0.23829005
0.23669921
0.23511712
0.23354401
0.23198146
0.23042699
0.22888012
0.22734101
0.22580963
0.2242853
0.22276691
0.2107944
0.21232024
0.21385621
0.21540391
0.21696389
0.21853703
0.22012125
0.22171889
0.22333231
0.22495939
0.22659983
0.22825483
0.22992263
0.23160444
0.23330187
0.2350131
0.23673869
0.23847628
0.24022755
0.24199418
0.2437741
0.24556658
0.24737131
0.24918795
0.25101586
0.25285424
0.25470257
0.2565596
0.25842497
0.26029677
0.26217421
0.26405535
0.26593831
0.26782062
0.26969942
0.27157069
0.27342955
0.27526981
0.27708123
0.27885503
0.26971619
0.26778926
0.26580811
0.2637874
0.26173869
0.25967062
0.25759006
0.25550272
0.25341288
0.25132508
0.24924234
0.24716922
0.24510617
0.24305652
0.24102053
0.23899968
0.2369961
0.23501156
0.2330472
0.23110539
0.22918454
0.22728472
0.22540888
0.22355483
0.22172227
0.21991209
0.2181243
0.21635926
0.21461669
0.21289623
0.21119732
0.20951977
0.2078634
0.20623007
0.2046169
0.20302274
0.20144785
0.1998919
0.19835429
0.19683386
0.18101587
0.18247624
0.18396034
0.18546989
0.18700626
0.18857093
0.19016235
0.19178349
0.19343711
0.19512297
0.1968388
0.19858713
0.20036984
0.20218774
0.20404199
0.20593321
0.20786402
0.20983308
0.21184278
0.21389256
0.21598245
0.21811351
0.22028644
0.22250222
0.2247612
0.22706131
0.22940148
0.23178016
0.23419588
0.2366467
0.23912746
0.24163642
0.24416757
0.24671482
0.24927152
0.2518275
0.25437089
0.25688662
0.25935142
0.26174086
0.28739221
0.28655435
0.28572156
0.28489373
0.28407075
0.28325249
0.28243881
0.28162955
0.28082458
0.28002371
0.27922677
0.27843357
0.27764391
0.27685761
0.27607443
0.27529417
0.27451655
0.27374135
0.27296826
0.27219701
0.27142723
0.27065862
0.26989071
0.26912314
0.26835533
0.26758681
0.26681697
0.26604532
0.26527091
0.26449321
0.26371123
0.26292442
0.26213144
0.26133159
0.26052344
0.25970634
0.2588787
0.25804008
0.25718836
0.25632325
0.25544238
0.25454565
0.25363026
0.25269594
0.25174114
0.25076632
0.24976797
0.24874758
0.24770179
0.24663173
0.24553483
0.24441273
0.2432631
0.24208877
0.24088581
0.23965788
0.23840092
0.23711915
0.23580778
0.23447044
0.23310251
0.23170476
0.22467686
0.22476459
0.22484421
0.22492357
0.22499823
0.22507386
0.22514017
0.22518699
0.22519381
0.22518331
0.22518168
0.22686961
0.22679566
0.22679343
0.22680112
0.22679301
0.22674732
0.22668376
0.22660594
0.22653214
0.2264559
0.22638035
0.22630096
0.22622761
0.22617071
0.22611561
0.22605109
0.22744193
0.22751573
0.22758094
0.22765042
0.22771233
0.22776697
0.22782599
0.22789079
0.2279651
0.22803855
0.22811328
0.22818711
0.22826275
0.22832453
0.2283701
0.2283794
0.22837365
0.22837797
0.22845907
0.23001443
0.22993681
0.22993116
0.22993613
0.22992622
0.22988109
0.2298205
0.2297484
0.22967372
0.22960038
0.2295277
0.22945694
0.2293928
0.22933324
0.22927804
0.22921853
0.22915642
0.22909365
0.22902644
0.22894772
0.22886432
0.23032762
0.23042392
0.23050189
0.23057502
0.23064032
0.23070375
0.23076373
0.23082198
0.23087797
0.23093714
0.23100028
0.23106943
0.23114177
0.23121612
0.23128784
0.23135781
0.23141778
0.23146224
0.23147264
0.23146862
0.23147568
0.23155354
0.23306623
0.23299328
0.23298641
0.23298864
0.23297736
0.23293368
0.23287536
0.2328072
0.23273837
0.23266217
0.23259135
0.23252301
0.23246023
0.23240114
0.23234547
0.23228769
0.23222902
0.23216307
0.23209759
0.23202457
0.23195128
0.23186767
0.23128779
0.23139941
0.23151438
0.23163615
0.23176439
0.23190629
0.23203229
0.23214086
0.23224124
0.23233507
0.23242238
0.23250336
0.23258781
0.2326693
0.23275549
0.23284253
0.23293235
0.23302413
0.23311642
0.23320358
0.23328612
0.23337411
0.23345283
0.23352378
0.23359567
0.2336622
0.23372925
0.23378801
0.23384639
0.23390189
0.23396093
0.23402383
0.23409081
0.2341616
0.23423655
0.23430343
0.23437059
0.23442731
0.23447053
0.23448293
0.23448212
0.23448909
0.23456188
0.23602974
0.23596157
0.23595382
0.23595403
0.23594062
0.2358979
0.2358415
0.23577604
0.23571091
0.23563858
0.23556688
0.23550117
0.23543884
0.23537949
0.23532413
0.23526497
0.23520614
0.23513834
0.23507071
0.23499954
0.23493016
0.23485262
0.234774
0.23469305
0.23460618
0.2345168
0.23442357
0.23433375
0.23424765
0.23416219
0.23408074
0.23399785
0.23391783
0.23383054
0.23373689
0.23363673
0.23352864
0.23340554
0.23326952
0.23314204
0.23302215
0.23290877
0.232806
0.23269352
0.2326076
0.23250592
0.2323947
0.23230277
0.23220046
0.23211273
0.23200758
0.23159621
0.23173403
0.23185993
0.23199917
0.23213759
0.23228556
0.2324312
0.23258737
0.23273844
0.23287614
0.23299603
0.23309707
0.23320572
0.23330317
0.23340711
0.2335026
0.23360517
0.23369242
0.23379346
0.23388447
0.23399405
0.23409457
0.23418044
0.23428707
0.23438352
0.23450235
0.23461283
0.23474383
0.23487225
0.23499288
0.23509849
0.23519922
0.23529187
0.23538024
0.23545934
0.23554089
0.23562222
0.23570639
0.23579108
0.23587974
0.2359737
0.23606256
0.23614808
0.23622927
0.2363061
0.23638233
0.23645186
0.23652252
0.23659058
0.23665812
0.23671787
0.23677735
0.23683366
0.23689255
0.23695416
0.23702049
0.23708977
0.23716057
0.23722485
0.23728885
0.23734484
0.23738691
0.23740148
0.23740214
0.23741102
0.2374784
0.23889769
0.23883553
0.23882693
0.23882462
0.23880856
0.23876727
0.23871261
0.23864935
0.23858577
0.2385172
0.23845017
0.23838245
0.23832176
0.23826329
0.2382068
0.2381463
0.23808544
0.23801857
0.23795108
0.23788013
0.23780995
0.2377344
0.23765856
0.23757683
0.23749248
0.23740442
0.23731135
0.23722191
0.23713767
0.23705538
0.23697526
0.23689419
0.2368161
0.23672757
0.23663519
0.23653474
0.23643
0.23631297
0.23618869
0.23605954
0.23595148
0.23583535
0.23573976
0.23563534
0.23554906
0.23544975
0.2353426
0.23525258
0.23515283
0.2350656
0.23496437
0.23487426
0.23476893
0.23467183
0.23455759
0.23445215
0.23433042
0.23419104
0.23404155
0.23388759
0.2337389
0.23359244
0.23345365
0.23331373
0.23318818
0.23305174
0.23292941
0.23280581
0.23270171
0.2325905
0.23249898
0.23240069
0.23232518
0.2322479
0.23216333
0.23206564
0.23198981
0.23191514
0.23185249
0.23180823
0.23177094
0.23174244
0.23170816
0.23167035
0.23161401
0.23155552
0.23151601
0.23155363
0.23295837
0.23292641
0.23296026
0.23302112
0.23307218
0.23311409
0.23314439
0.23317828
0.23321201
0.23326153
0.23331945
0.23339486
0.23347496
0.23357047
0.233656
0.23373385
0.23381396
0.2339106
0.23400649
0.23411694
0.23422557
0.23434839
0.23446987
0.2346035
0.23473348
0.23486958
0.23501717
0.23516368
0.23531278
0.23545944
0.23561032
0.23575064
0.23587574
0.23598434
0.23610109
0.23619992
0.23630604
0.23639629
0.23649722
0.23658493
0.23668324
0.23677248
0.2368772
0.2369747
0.23706251
0.237162
0.23725914
0.23737072
0.23747964
0.23760341
0.23772653
0.23784173
0.23794564
0.23804452
0.23813721
0.23822513
0.23830305
0.23838353
0.23846245
0.23854427
0.23862957
0.23871885
0.23880982
0.23889717
0.23898098
0.23906149
0.23913766
0.23921258
0.23928362
0.23935437
0.23942116
0.23948745
0.23954946
0.23961046
0.23966732
0.23972545
0.23978658
0.23985286
0.23991853
0.23998572
0.24004884
0.24011089
0.24016404
0.24020472
0.24022238
0.24022593
0.24023455
0.24029546
0.24166255
0.24160671
0.24159746
0.24159352
0.24157463
0.24153473
0.24148208
0.24142206
0.24135975
0.2412941
0.24122915
0.24116534
0.24110376
0.24104504
0.24098685
0.24092629
0.24086345
0.24079793
0.24073074
0.24066102
0.24058938
0.24051524
0.24043841
0.240359
0.24027585
0.24018841
0.24009891
0.24001163
0.23992522
0.23984343
0.23976475
0.23968527
0.23960779
0.23952067
0.23942793
0.23933107
0.23922807
0.239115
0.23899245
0.23887537
0.2387647
0.23865814
0.23855861
0.23846424
0.23837663
0.23827944
0.23817748
0.23808869
0.23799198
0.23790335
0.23780248
0.23771123
0.23760427
0.23750338
0.23738455
0.23727285
0.23714579
0.2370036
0.23685057
0.23670833
0.23656031
0.23641251
0.23626055
0.23612463
0.23599123
0.23586017
0.23573448
0.23561344
0.23549958
0.23539086
0.23528977
0.23519472
0.23510856
0.23503077
0.23494491
0.23485238
0.23476884
0.23469443
0.23463609
0.23458642
0.23455112
0.23451689
0.23448513
0.23444463
0.23439325
0.23433501
0.23430098
0.23433541
0.23567976
0.23564457
0.23568251
0.23573503
0.23578996
0.23582567
0.23586213
0.23589377
0.2359336
0.23598051
0.23604409
0.23612021
0.23620463
0.2362937
0.23637825
0.23645576
0.23654942
0.23664211
0.2367493
0.2368554
0.23697524
0.23709378
0.2372251
0.23735312
0.23748929
0.23762824
0.23777924
0.23793046
0.23807674
0.23821789
0.23837086
0.23851411
0.23864272
0.23875678
0.23887744
0.23898036
0.23908814
0.23918054
0.23928122
0.23937124
0.23946623
0.23955497
0.23965414
0.23975179
0.23984118
0.23992942
0.24003226
0.24013325
0.24024649
0.24035651
0.2404781
0.24058875
0.24069052
0.24078514
0.24087743
0.24096358
0.24104082
0.24112004
0.241197
0.24127907
0.24136523
0.2414519
0.2415413
0.24162742
0.24171073
0.24178922
0.24186673
0.24194014
0.24201228
0.24208097
0.24214862
0.24221333
0.24227686
0.24233684
0.24239614
0.24245462
0.24251557
0.24257851
0.24264347
0.24270766
0.242769
0.24282702
0.24287907
0.24291803
0.24293772
0.24294208
0.2429523
0.24300632
0.24431838
0.24426986
0.24425991
0.24425456
0.24423487
0.24419625
0.2441455
0.24408882
0.24402918
0.24396582
0.24390157
0.24383869
0.24377809
0.24371974
0.24366045
0.24360049
0.24353698
0.24347241
0.24340496
0.24333662
0.24326469
0.24319127
0.24311378
0.2430355
0.24295266
0.24286704
0.24277815
0.24269093
0.24260581
0.24252431
0.24244806
0.24236904
0.24229182
0.24220689
0.242116
0.24202313
0.24192342
0.24181517
0.24169673
0.24159022
0.24147766
0.24137879
0.24127571
0.24118849
0.24109783
0.24100162
0.2409065
0.24081734
0.24072433
0.24063235
0.24053231
0.24043868
0.24033009
0.24022521
0.24010286
0.23998557
0.23985529
0.23971172
0.23955848
0.23941902
0.2392721
0.23911849
0.2389684
0.23882882
0.23869172
0.23856267
0.23842907
0.23830965
0.23818705
0.23808021
0.23797024
0.23787678
0.23777918
0.23769937
0.23761566
0.23752731
0.23744103
0.23736605
0.23730136
0.23725366
0.23721296
0.23718014
0.23714265
0.2371083
0.23705315
0.23700319
0.23696472
0.23699969
0.23828732
0.23825709
0.23829547
0.23834438
0.23839825
0.23843267
0.23846931
0.23850609
0.23854464
0.23859575
0.23865819
0.2387305
0.23881831
0.23890724
0.2389935
0.23907598
0.23917532
0.23927059
0.23938198
0.2394909
0.23961497
0.23973659
0.23987093
0.2400034
0.24013851
0.24028168
0.2404285
0.24058196
0.24073078
0.24087157
0.24102482
0.24116893
0.2413005
0.24142039
0.24154419
0.24165096
0.24176026
0.24185511
0.24195396
0.24204934
0.24213877
0.24223021
0.24232012
0.24241459
0.24250574
0.24259379
0.24269574
0.24279386
0.24290448
0.24300943
0.24312411
0.24323036
0.24332738
0.24341914
0.24350791
0.24359231
0.24366946
0.24374791
0.2438242
0.2439047
0.24398945
0.24407697
0.24416459
0.24425015
0.24433175
0.24441043
0.24448722
0.24456132
0.24463237
0.244701
0.24476763
0.24483272
0.24489558
0.24495609
0.24501462
0.24507336
0.24513325
0.24519652
0.24525942
0.24532247
0.24537981
0.24543572
0.24548459
0.24552332
0.24554222
0.24554909
0.24555857
0.24560564
0.2468611
0.24681832
0.24680975
0.24680203
0.24678348
0.24674523
0.24669766
0.24664307
0.24658747
0.24652532
0.24646333
0.24640034
0.24634079
0.24628211
0.24622388
0.24616322
0.24610061
0.24603542
0.24596914
0.24590063
0.24583003
0.24575575
0.2456792
0.24560067
0.24551988
0.24543494
0.24534833
0.24526125
0.24517697
0.24509681
0.24502026
0.24494232