/*--------------------------------*- C++ -*----------------------------------*\
| =========                 |                                                 |
| \\      /  F ield         | OpenFOAM: The Open Source CFD Toolbox           |
|  \\    /   O peration     | Version:  v2012                                 |
|   \\  /    A nd           | Website:  www.openfoam.com                      |
|    \\/     M anipulation  |                                                 |
\*---------------------------------------------------------------------------*/
FoamFile
{
    version     2.0;
    format      ascii;
    class       volScalarField;
    location    "300";
    object      nut;
}
// * * * * * * * * * * * * * * * * * * * * * * * * * * * * * * * * * * * * * //

dimensions      [0 2 -1 0 0 0 0];


internalField   nonuniform List<scalar> 
229778
(
0.0018476994
0.0018820174
0.0019164418
0.0019505651
0.0019843204
0.0020175905
0.0020503682
0.0020826555
0.0021144625
0.002145793
0.0021766418
0.0022070197
0.0022369135
0.0022663166
0.0022952069
0.0023235766
0.0023514102
0.0023786909
0.0024054008
0.0024315207
0.0024570212
0.0024818819
0.0025060938
0.0025296373
0.0025524839
0.0025746256
0.0025960348
0.0026167024
0.0026366
0.0026557076
0.0026740044
0.0026914835
0.0027081173
0.002723903
0.0027388149
0.0027528504
0.0027659833
0.0027782118
0.0027895081
0.0027998449
0.019273603
0.019524593
0.019774791
0.02002559
0.020276744
0.020530672
0.020785087
0.021040403
0.021294203
0.021548685
0.021805788
0.022061085
0.022316303
0.022571811
0.022826847
0.023084146
0.023342333
0.023597233
0.023850349
0.024101724
0.024353267
0.024607319
0.024861491
0.025112638
0.025362342
0.025610689
0.025856755
0.026102937
0.026347261
0.026589342
0.026827689
0.027062244
0.027294789
0.027524861
0.027750183
0.027972879
0.028192966
0.028410054
0.028621697
0.028828216
0.029030358
0.02922778
0.029419722
0.029605965
0.029785899
0.02995999
0.030127389
0.030288198
0.030442635
0.030590366
0.030731013
0.030864612
0.030991771
0.031111447
0.031223612
0.031329363
0.031428566
0.031521144
0.031607233
0.031687171
0.031761213
0.03182926
0.031891802
0.03194905
0.03200152
0.032049854
0.030075953
0.029900478
0.0297191
0.029531855
0.029339298
0.029141412
0.028938759
0.028731329
0.028519716
0.028303902
0.02808448
0.027861407
0.027635266
0.027405983
0.027174126
0.026939598
0.02670295
0.026464062
0.026223466
0.025981019
0.025737237
0.025491955
0.025245669
0.024998198
0.024750017
0.024500933
0.024251398
0.024001207
0.023750796
0.023499955
0.023249102
0.022998017
0.0227471
0.022496126
0.022245474
0.021994915
0.021744807
0.02149491
0.021245555
0.02099651
0.020748127
0.020500209
0.020253103
0.020006624
0.019761113
0.019516383
0.01927275
0.019029995
0.018788131
0.018545763
0.018510949
0.018754162
0.018996417
0.019239517
0.01948363
0.01972874
0.019974788
0.02022172
0.020469441
0.020717877
0.020966936
0.021216525
0.021466528
0.021716881
0.021967546
0.022218485
0.022469626
0.022720925
0.022972294
0.023223673
0.023474957
0.023726075
0.023976909
0.024227371
0.024477321
0.024726664
0.024975253
0.025222979
0.025469672
0.025715208
0.025959398
0.0262021
0.026443105
0.026682254
0.026919316
0.027154109
0.027386383
0.027615938
0.027842506
0.028065871
0.028285749
0.028501904
0.028714032
0.028921871
0.029125088
0.0293234
0.029516507
0.029704162
0.029886114
0.030063575
0.030089963
0.029915017
0.029734292
0.029547838
0.02935587
0.029158661
0.028956536
0.028749847
0.028538898
0.028323947
0.028105248
0.02788304
0.027657567
0.027429069
0.027197786
0.026963946
0.026727779
0.026489497
0.026249304
0.026007384
0.025763924
0.02551909
0.025273046
0.025025944
0.02477793
0.024529134
0.024279677
0.024029679
0.023779268
0.023528555
0.023277623
0.02302655
0.022775425
0.02252432
0.022273267
0.022022325
0.021771534
0.021521023
0.021270696
0.021020828
0.020771578
0.020523056
0.020275266
0.02002833
0.019782304
0.019537252
0.019293165
0.01905008
0.018807794
0.01856509
0.01862145
0.01886567
0.019108853
0.019352699
0.019597491
0.019843064
0.020089648
0.020336828
0.020585096
0.020833779
0.021083181
0.021333296
0.021584165
0.021835533
0.022087583
0.02233955
0.022591567
0.022843175
0.023094733
0.02334615
0.023597322
0.023848147
0.024098619
0.02434863
0.02459803
0.024846689
0.02509449
0.0253413
0.025586976
0.025831357
0.026074287
0.026315589
0.026555079
0.026792572
0.027027881
0.027260788
0.027491056
0.027718437
0.027942685
0.028163553
0.0283808
0.028594196
0.028803526
0.029008606
0.029209345
0.029405342
0.029596089
0.029781307
0.029960671
0.03013483
0.030362207
0.03019665
0.030024817
0.029846768
0.029662771
0.029473514
0.02927921
0.029080914
0.02887815
0.028670928
0.028459437
0.028243911
0.028024615
0.027801808
0.027575758
0.027346719
0.027114966
0.026880746
0.026644267
0.026405657
0.026165108
0.025922821
0.025678991
0.025433751
0.025187304
0.024939764
0.024691306
0.024442033
0.024192116
0.023941689
0.023690856
0.023439176
0.023187461
0.02293572
0.022683838
0.022430775
0.022177355
0.021924461
0.021673556
0.021422998
0.021173177
0.020924014
0.020675408
0.020426674
0.020179181
0.019931796
0.019685986
0.019440201
0.019195115
0.018950823
0.018706491
0.01874708
0.018990812
0.01923357
0.019477468
0.019723855
0.019971647
0.020220649
0.020471178
0.020721111
0.020970685
0.021220919
0.021472715
0.021725094
0.021977146
0.022229698
0.02248328
0.022736661
0.022988914
0.023241076
0.023493774
0.023746486
0.023998627
0.024250307
0.024501297
0.024751728
0.025000995
0.025249601
0.025496883
0.025743126
0.025987613
0.026230529
0.026471628
0.026710703
0.02694736
0.027181677
0.027413445
0.027642413
0.027868301
0.028090897
0.02830992
0.028525144
0.028736303
0.028943203
0.029145646
0.029343522
0.029536615
0.029725311
0.029908353
0.030085106
0.030255298
0.030420164
0.030483108
0.03031999
0.030150423
0.029974156
0.029792474
0.029604799
0.029412772
0.029215724
0.029013964
0.028807426
0.0285966
0.028381475
0.028162589
0.027939945
0.027714076
0.027484916
0.027252851
0.027018137
0.026781054
0.026541402
0.026299609
0.0260564
0.025811315
0.025564289
0.025315533
0.02506567
0.024816024
0.02456446
0.024311751
0.024058557
0.023805234
0.023553037
0.023301177
0.023048121
0.022794262
0.022540514
0.022287026
0.022033409
0.021780262
0.021527293
0.021275127
0.021023361
0.020772434
0.020522092
0.020273798
0.020025784
0.019779717
0.019534759
0.019291153
0.019047848
0.018804567
0.019049041
0.019293223
0.019537112
0.01978356
0.020031762
0.02028144
0.020531991
0.020783898
0.021036361
0.021289958
0.021543797
0.021797914
0.022052182
0.022307762
0.022561453
0.022814854
0.023070024
0.023323627
0.023576631
0.023831148
0.024085707
0.024340266
0.024594055
0.024847228
0.025099083
0.025351068
0.025600096
0.025847481
0.026093054
0.026337118
0.026581044
0.026822278
0.02706055
0.027296605
0.027529819
0.027760318
0.027987405
0.028211374
0.02843141
0.028647728
0.028859492
0.029066941
0.029269276
0.029466503
0.029658804
0.029847293
0.030030206
0.030206605
0.030375691
0.030539182
0.030599266
0.030436706
0.030267355
0.030091415
0.029909084
0.029720774
0.029528667
0.02933048
0.029126871
0.02891804
0.028704818
0.02848701
0.028265466
0.028039984
0.027811379
0.027579389
0.027344834
0.02710731
0.026867617
0.026625773
0.026383521
0.026139163
0.025894017
0.025646199
0.025397496
0.025146292
0.024894711
0.024641274
0.02438785
0.024132941
0.023878476
0.02362294
0.02336745
0.023111603
0.022856074
0.022600747
0.022346952
0.02209236
0.021838774
0.021584489
0.021329848
0.021075472
0.020821963
0.02056924
0.020318973
0.020069434
0.019822152
0.019576053
0.019331293
0.019086435
0.019079756
0.019326271
0.019572893
0.019820301
0.02006797
0.020317719
0.020570118
0.020824054
0.021078601
0.021333684
0.021589073
0.021844197
0.022099684
0.02235603
0.022612417
0.02286982
0.023127404
0.023383114
0.023638181
0.023894294
0.024150231
0.024405887
0.024660721
0.024914972
0.02516806
0.025420445
0.025671776
0.025920827
0.026167085
0.02641172
0.026654757
0.026897405
0.027138316
0.027377729
0.027614105
0.027848093
0.028078944
0.028306474
0.028530229
0.02875002
0.028965294
0.029175795
0.029381306
0.029580537
0.029773792
0.02996354
0.030146385
0.030322496
0.030492658
0.03065682
0.030724101
0.030560197
0.0303895
0.030212089
0.03002827
0.029838244
0.029644277
0.029443952
0.029237597
0.029025942
0.028809547
0.028588621
0.028363702
0.028134969
0.027902889
0.027667763
0.027431117
0.027191123
0.026949746
0.026706551
0.026461598
0.026214601
0.025965502
0.025715226
0.025464726
0.025212635
0.024960442
0.024706343
0.024450741
0.0241943
0.023937445
0.023680285
0.023423466
0.023166555
0.022909213
0.022651577
0.022395456
0.022139194
0.021884268
0.021628458
0.021372
0.021116165
0.02086109
0.020606672
0.020353654
0.02010199
0.019851886
0.01960284
0.019354611
0.019105928
0.019353278
0.019605082
0.019855973
0.020107378
0.020359812
0.020613169
0.020867526
0.021122147
0.021378106
0.021636619
0.021893893
0.022150467
0.022408303
0.022667907
0.022928797
0.023187869
0.023446195
0.023704112
0.023962157
0.02421937
0.024475881
0.024731421
0.024985743
0.025238698
0.025491598
0.025743657
0.025994877
0.026244531
0.026492561
0.026739935
0.026985893
0.027230099
0.027472287
0.027711763
0.027948781
0.02818244
0.028412736
0.028638987
0.028861188
0.029078539
0.029291236
0.029498887
0.029700671
0.02989616
0.030087917
0.030273454
0.030452465
0.030624647
0.03079041
0.030866727
0.030700938
0.03052794
0.030347925
0.030161354
0.02996861
0.02977199
0.029569355
0.029361626
0.029148218
0.028930672
0.028707426
0.028479471
0.028247388
0.028011933
0.027773119
0.027531668
0.02728749
0.027041227
0.026793051
0.026544881
0.026294821
0.026044174
0.025791062
0.025537878
0.025283601
0.025028689
0.024772713
0.02451618
0.024259116
0.024001439
0.023742871
0.023484322
0.023224904
0.022966124
0.022705553
0.022444628
0.02218388
0.02192393
0.021664236
0.021405454
0.021147466
0.0208907
0.020634669
0.020380105
0.020126659
0.019874381
0.019622012
0.01936931
0.019606471
0.019861505
0.020114062
0.020367374
0.020622335
0.020880368
0.021139452
0.021399501
0.021660329
0.021921554
0.022183132
0.02244577
0.022708869
0.022970024
0.023229735
0.023490452
0.023750737
0.024010346
0.024269211
0.024527725
0.024786221
0.02504564
0.025304521
0.025562918
0.0258207
0.02607633
0.026329289
0.026580822
0.026831117
0.027081595
0.027330156
0.027576503
0.027820249
0.02806116
0.02829876
0.028532785
0.028763155
0.028987729
0.029206624
0.029421081
0.029631529
0.029835915
0.03003436
0.030229066
0.030417441
0.03059914
0.030773873
0.030942017
0.031024978
0.030856641
0.030680981
0.030498125
0.030308552
0.030112656
0.029912724
0.029706274
0.029494245
0.029276976
0.029055199
0.028828633
0.028597512
0.028362709
0.028124495
0.027882653
0.027637708
0.027390389
0.027140908
0.026889087
0.026636021
0.026381091
0.026124897
0.025866947
0.025607655
0.025347112
0.025085906
0.024824137
0.024562579
0.024300678
0.024038933
0.023776787
0.02351585
0.023253942
0.022991598
0.022729317
0.022467295
0.022205228
0.021944885
0.021684012
0.02142275
0.021162463
0.020903295
0.020645266
0.02038874
0.020133102
0.019878336
0.019622681
0.019609662
0.019868317
0.020125161
0.020383647
0.020640729
0.020897835
0.021155216
0.021414142
0.021675606
0.021937737
0.022200222
0.022464432
0.022726973
0.022989504
0.023253772
0.023518148
0.023782592
0.024048147
0.024313404
0.024578692
0.024843581
0.025107666
0.025371143
0.025634026
0.025895765
0.026156586
0.026415748
0.026674223
0.026931155
0.027184836
0.02743511
0.027683494
0.027930749
0.028173989
0.028412815
0.028648595
0.028881652
0.029110525
0.02933469
0.029554689
0.029769489
0.029977719
0.030179724
0.030377914
0.030569634
0.030754558
0.03093239
0.031103703
0.031181099
0.031008868
0.03082961
0.030643135
0.030449651
0.030249889
0.030046113
0.029835773
0.02961967
0.02939813
0.029172789
0.028942083
0.028707238
0.028468642
0.028226993
0.027981821
0.02773408
0.027483615
0.027231046
0.026975821
0.026718757
0.026459632
0.026200224
0.025938434
0.025674906
0.02541016
0.025144853
0.024878835
0.024612247
0.024345215
0.024078622
0.023812002
0.023547046
0.023281293
0.023015578
0.022750364
0.02248707
0.022223251
0.021960784
0.021698078
0.021437443
0.021178368
0.020920381
0.020662579
0.020405824
0.020148729
0.019891947
0.019871776
0.020129249
0.020386601
0.020644126
0.020901995
0.021160338
0.02141994
0.0216812
0.021944725
0.022209063
0.02247417
0.022739487
0.023006206
0.023272929
0.023539857
0.023807098
0.024075352
0.024343407
0.024611425
0.024879035
0.025146581
0.025413572
0.025679849
0.025945184
0.02620876
0.026470913
0.02673231
0.026991684
0.027248631
0.027503103
0.027755954
0.028005697
0.028252485
0.028495873
0.028736621
0.028973269
0.029205713
0.029433614
0.029657351
0.029875912
0.030087812
0.030293591
0.030495579
0.030691088
0.030879785
0.031061464
0.031236615
0.031264054
0.031088787
0.03090623
0.030716602
0.03052021
0.030317286
0.030110313
0.029897111
0.02967779
0.029453107
0.029223761
0.028990117
0.028753555
0.028512545
0.028268821
0.028020797
0.027770402
0.027516413
0.027260896
0.0270023
0.026741157
0.026478168
0.026214055
0.025948772
0.025682481
0.025415794
0.025148735
0.024881348
0.024613878
0.024346277
0.024078628
0.023810892
0.02354344
0.023276461
0.023011372
0.022745856
0.022481612
0.022216763
0.021951707
0.021686909
0.021423327
0.021161597
0.020902744
0.020643903
0.020386578
0.020128688
0.019869755
0.019811787
0.020072437
0.020331939
0.020592661
0.020853084
0.021113319
0.021375687
0.021641297
0.021906229
0.022170672
0.02243559
0.022700742
0.022966608
0.023232527
0.023499058
0.023765827
0.024032675
0.024299363
0.024565925
0.024832138
0.025098364
0.025364405
0.025630384
0.025897089
0.02616278
0.026427144
0.026690156
0.026951131
0.027210417
0.027467436
0.027722644
0.027975491
0.028224908
0.02847016
0.028712243
0.028950455
0.029185019
0.029414923
0.029640117
0.029859788
0.030073658
0.030282367
0.030486446
0.030683425
0.030873732
0.031056786
0.031233609
0.031125501
0.030949202
0.03076593
0.030575455
0.030378467
0.030175078
0.029967518
0.02975367
0.02953426
0.029309271
0.029079622
0.028845254
0.028607128
0.028364974
0.02811966
0.027871111
0.027620792
0.027367586
0.027113026
0.026855706
0.026597308
0.026335856
0.026072203
0.025806831
0.025540931
0.025275356
0.025009522
0.024745038
0.024480752
0.02421601
0.023951305
0.023686395
0.023421875
0.023157729
0.022893772
0.022628922
0.022363864
0.022098895
0.021834659
0.021570735
0.02130793
0.02104611
0.020785741
0.020526268
0.020267761
0.020009684
0.01975109
0.019608677
0.01986686
0.020123229
0.020379887
0.020637062
0.020895086
0.021154808
0.021415
0.021676017
0.021937487
0.022200155
0.022463277
0.022724946
0.022985638
0.023246483
0.023507811
0.023770826
0.024034461
0.024299125
0.024562032
0.024825333
0.025089242
0.025352286
0.025615975
0.025879118
0.026141266
0.026400047
0.026656048
0.026910295
0.027162153
0.02741248
0.027661622
0.027908287
0.028151794
0.028392783
0.028629682
0.02886285
0.029091781
0.02931479
0.029532336
0.029744603
0.029950986
0.030153139
0.030348798
0.030538402
0.030720969
0.030897029
0.030515585
0.030344721
0.030166579
0.02998126
0.029790066
0.029592082
0.029389441
0.029180581
0.028966474
0.028747314
0.028523129
0.02829439
0.028062539
0.027826667
0.027588275
0.027345797
0.027100765
0.026853711
0.026604897
0.026353843
0.026101237
0.025846733
0.025590461
0.025332526
0.025074097
0.02481499
0.024555387
0.024297549
0.024039688
0.023780679
0.023522654
0.023264885
0.023007731
0.022749918
0.02249179
0.02223432
0.021978639
0.021722727
0.021468111
0.02121291
0.020958917
0.020704663
0.020451991
0.020199265
0.019946407
0.019692756
0.019397272
0.019645492
0.019891987
0.020138242
0.020385176
0.020633156
0.020882154
0.021130593
0.021378426
0.021626863
0.02187543
0.022125256
0.022377175
0.022628045
0.022878745
0.02313094
0.023383531
0.023636738
0.023888194
0.024139648
0.024392793
0.02464551
0.024897456
0.025148604
0.025398474
0.025646589
0.025893057
0.026138906
0.026381498
0.026621366
0.026859335
0.02709462
0.027326117
0.027554865
0.027780905
0.028003682
0.028221103
0.028433239
0.02864061
0.028842813
0.029039152
0.029230893
0.029416325
0.029594685
0.029765251
0.029929158
0.029099962
0.028948301
0.028789008
0.028622066
0.028447993
0.028267231
0.02808169
0.027889925
0.027692789
0.027490631
0.02728441
0.027072957
0.026857245
0.026637837
0.026415467
0.026190072
0.025962471
0.025732616
0.025501519
0.02526771
0.025032756
0.024795488
0.024556093
0.024315105
0.024073532
0.023831051
0.023587977
0.023346435
0.023104215
0.022860856
0.022617469
0.022374104
0.022131679
0.021889597
0.021648024
0.021406841
0.021166467
0.020926314
0.020686813
0.02044774
0.020210343
0.019973244
0.019737634
0.01950137
0.019263654
0.018723747
0.018951058
0.01917537
0.019399142
0.019624288
0.019851466
0.020079466
0.020307967
0.020537496
0.020766955
0.020997453
0.021226872
0.021455945
0.021685644
0.021916941
0.022148118
0.022379361
0.022608854
0.02283758
0.023067643
0.02329704
0.023525248
0.023753013
0.023978312
0.024201562
0.024423027
0.024642993
0.024860868
0.025076841
0.025290761
0.025502943
0.02571213
0.025918789
0.026120758
0.026318101
0.026510684
0.026698575
0.026881455
0.02705886
0.027230087
0.027396272
0.027555385
0.027706806
0.027850298
0.027986277
0.026572448
0.026459071
0.026337221
0.026206553
0.02606754
0.025920942
0.025768601
0.025609572
0.025444574
0.025274104
0.025098848
0.024919007
0.024735595
0.024547828
0.024357065
0.024162762
0.023965677
0.023766459
0.023565404
0.023362549
0.023158703
0.02295297
0.022746236
0.022537285
0.022327712
0.022116199
0.021903238
0.021691058
0.021477763
0.021263214
0.021048189
0.020832908
0.020618024
0.020403417
0.020190027
0.019976199
0.019763085
0.019549513
0.019336819
0.019123683
0.01891077
0.018698469
0.018487097
0.018276048
0.018064403
0.017225499
0.017421295
0.01761585
0.017810552
0.018005995
0.018201551
0.01839692
0.018592394
0.018788236
0.01898412
0.019180276
0.019376419
0.019572915
0.019769229
0.019965452
0.020161041
0.020356364
0.020549706
0.020742251
0.020935417
0.021126388
0.021316046
0.02150442
0.021690844
0.021876204
0.02206067
0.02224383
0.022424112
0.022602001
0.022777969
0.022951169
0.02312123
0.02328798
0.023450785
0.023609611
0.023763696
0.023912809
0.024056356
0.024193274
0.024323393
0.02444671
0.024561553
0.024667399
0.024764506
0.022799058
0.022729759
0.022650413
0.022561846
0.022464703
0.022360511
0.02224901
0.022131205
0.02200736
0.021878528
0.021744513
0.021606408
0.021464015
0.021318357
0.021169201
0.021017631
0.020863329
0.020707056
0.020548044
0.020386828
0.020223816
0.020059392
0.01989343
0.019726255
0.01955778
0.019388175
0.019218633
0.019047824
0.018875448
0.018702206
0.018528225
0.018354536
0.018180284
0.018006298
0.017831516
0.017656952
0.017481975
0.017307483
0.017132201
0.016956523
0.016780744
0.016605895
0.016430584
0.016254135
0.015099142
0.015255648
0.015410845
0.015565823
0.015720878
0.015875841
0.016029309
0.016181867
0.0163345
0.016487864
0.016639997
0.016791132
0.016942235
0.017093557
0.01724444
0.017394324
0.017543413
0.017690566
0.017836517
0.017982392
0.018126918
0.018270142
0.018411927
0.018551922
0.018690581
0.01882645
0.01895978
0.019090652
0.019219116
0.0193451
0.019468667
0.019589013
0.019705764
0.0198186
0.019926652
0.020029457
0.020127081
0.020219266
0.020304501
0.020382463
0.02045311
0.020515181
0.018202817
0.018157079
0.018103968
0.018043548
0.017976563
0.017903765
0.0178258
0.017743133
0.017656129
0.017565147
0.017470613
0.017372808
0.017272276
0.017169124
0.017063587
0.016955644
0.016845863
0.016733653
0.016619676
0.016503499
0.016385341
0.016265541
0.016144415
0.016022831
0.015899858
0.015775271
0.015649494
0.015522522
0.015394796
0.015266345
0.015137353
0.01500762
0.014877385
0.014746663
0.014615609
0.014484057
0.01435196
0.014219327
0.014086349
0.013952886
0.013818607
0.012387941
0.012501931
0.012614849
0.012727205
0.012839075
0.012950412
0.013061112
0.013171254
0.013280981
0.013389999
0.013498196
0.013605583
0.013712303
0.013818013
0.013922652
0.014026007
0.014128295
0.014228671
0.014327712
0.014426035
0.014522863
0.014618003
0.014711228
0.014802584
0.014892012
0.014979479
0.015064399
0.015146721
0.01522661
0.015304052
0.015379086
0.015450983
0.015519575
0.015584126
0.015644609
0.015700926
0.015752401
0.015798504
0.015838224
0.015871591
0.015898322
0.013635826
0.013616243
0.013590828
0.013559936
0.013524068
0.013483779
0.013439449
0.013391439
0.013339996
0.013285436
0.013227977
0.013167965
0.013105498
0.013040777
0.012973886
0.01290525
0.012834544
0.012762158
0.012687819
0.012611604
0.01253375
0.01245449
0.012374438
0.012293058
0.012210191
0.01212613
0.012040881
0.011954724
0.011867636
0.011780116
0.011691595
0.011602121
0.011511915
0.011421583
0.011330497
0.011238581
0.011146046
0.011053002
0.010959399
0.010865076
0.0092125298
0.0092895765
0.0093659382
0.0094418348
0.0095173175
0.0095925253
0.0096668185
0.0097407516
0.0098147815
0.0098883029
0.0099611903
0.010033694
0.010105286
0.010176262
0.010246952
0.010316867
0.010386129
0.010454132
0.01052131
0.010588006
0.01065372
0.01071831
0.010781703
0.010843889
0.010904759
0.010964196
0.011022117
0.011078316
0.011132756
0.011185109
0.011235288
0.011282992
0.011327976
0.011369927
0.011408545
0.011443402
0.01147414
0.011500457
0.011521647
0.011538074
0.0096323044
0.0095994172
0.0095619451
0.0095204229
0.0094754831
0.0094276508
0.0093774204
0.0093252425
0.0092714594
0.0092164481
0.0091604472
0.0091039224
0.0090467525
0.0089892503
0.0089312917
0.0088729313
0.0088143615
0.0087557137
0.008697067
0.0086387078
0.0085803276
0.0085218548
0.0084637392
0.0084056066
0.0083473534
0.0082890967
0.0082308462
0.0081726761
0.0081145563
0.0080564412
0.0079982951
0.0079401063
0.007881882
0.007823997
0.0077660476
0.0077078535
0.007649528
0.0075910722
0.0075324601
0.0074735805
0.0056577673
0.0056958529
0.0057337325
0.0057715277
0.0058093202
0.0058472365
0.0058849939
0.0059229097
0.0059612139
0.0059998249
0.0060383892
0.00607719
0.006116387
0.0061560308
0.0061962031
0.0062369577
0.006278561
0.0063208591
0.0063641365
0.0064083289
0.006453494
0.0064998186
0.0065474553
0.006596611
0.0066474544
0.0066999428
0.0067541823
0.0068102947
0.0068684318
0.0069287855
0.0069912588
0.0070562148
0.0071236387
0.0071936661
0.0072664835
0.0073421263
0.007420698
0.0075023681
0.0075869275
0.0076744933
0.031875047
0.031820439
0.031760871
0.03169634
0.031626213
0.031550571
0.031468676
0.03138057
0.031285936
0.031185074
0.031077116
0.030962502
0.030840787
0.030712649
0.030577577
0.030436024
0.030287334
0.030132584
0.029970915
0.029803501
0.029629475
0.029450142
0.029264593
0.029074194
0.028877826
0.02867652
0.02847025
0.028260378
0.028045468
0.027827035
0.02760458
0.027379688
0.027151084
0.026919979
0.026685651
0.02644933
0.026210433
0.025970508
0.025728217
0.025485161
0.025239971
0.024994232
0.024746415
0.024497589
0.024247558
0.023997735
0.023746494
0.023495559
0.023243519
0.022991485
0.02273869
0.022486191
0.022233368
0.021981618
0.021729566
0.021478629
0.021227437
0.020977371
0.020726966
0.02047714
0.020226787
0.019975736
0.018048037
0.018064624
0.018079632
0.018096029
0.018111327
0.018130311
0.018148658
0.018166008
0.018172624
0.018178067
0.01818752
0.018466499
0.01843143
0.01842148
0.018415845
0.018409215
0.018392303
0.018374764
0.01835493
0.018339859
0.018323899
0.018309578
0.018295205
0.018286856
0.018285122
0.018286433
0.018285458
0.018530746
0.018530935
0.01853049
0.018531757
0.018532168
0.018530947
0.018533447
0.018540359
0.018553132
0.018567124
0.018582989
0.018598765
0.018617685
0.018634745
0.018651428
0.018658063
0.018663729
0.018673711
0.018710559
0.018952367
0.018916563
0.018906626
0.018901137
0.018894544
0.018878128
0.018861376
0.018843395
0.018827006
0.018811232
0.018797337
0.018785558
0.01877844
0.018775684
0.018776624
0.018776597
0.018776753
0.018777658
0.018779013
0.018777214
0.01877556
0.019017288
0.019023815
0.019024052
0.019024634
0.019023142
0.019023176
0.019022226
0.019022047
0.019021338
0.01902409
0.019031127
0.019042503
0.01905633
0.019073233
0.019088617
0.019106072
0.019122656
0.019138771
0.019145346
0.019150695
0.01916059
0.019196531
0.019440276
0.019405676
0.019396125
0.019390718
0.019384065
0.019368273
0.019352053
0.019334991
0.019320366
0.019302436
0.019288991
0.019277766
0.019270749
0.019267993
0.019268717
0.019268895
0.019270257
0.019269321
0.019270537
0.01926984
0.01927051
0.019267082
0.019240865
0.019255656
0.019275638
0.01929846
0.01932731
0.019364409
0.019392615
0.01941089
0.019424668
0.019434653
0.019441236
0.019442854
0.019446267
0.019448482
0.019454086
0.019462248
0.019473077
0.019485662
0.019496858
0.019504839
0.019509795
0.019514945
0.019517584
0.019516639
0.019517091
0.019516247
0.019517488
0.019516226
0.019516305
0.019515637
0.019518372
0.019525385
0.019536388
0.019550566
0.019567914
0.019582102
0.01959898
0.019614877
0.019630381
0.019637159
0.019642529
0.019651822
0.019686495
0.0199322
0.019898916
0.019889694
0.019884559
0.01987765
0.019862461
0.019846593
0.019830088
0.019816194
0.019799587
0.019784649
0.019773863
0.019767001
0.019764244
0.019764807
0.019764447
0.019765549
0.01976416
0.019764686
0.01976443
0.019765457
0.019762828
0.019759937
0.019755114
0.019747263
0.019736939
0.019723483
0.019712599
0.019704527
0.019699089
0.019696768
0.019693685
0.019692226
0.019685312
0.019675226
0.019661241
0.019642906
0.01961525
0.01957992
0.019550197
0.019527715
0.019507501
0.019495183
0.01947858
0.019475989
0.019463805
0.019447493
0.019444341
0.019434783
0.019435754
0.019428802
0.019621445
0.019625492
0.019622161
0.019626132
0.019630921
0.019641002
0.019650423
0.019663938
0.019679386
0.019689993
0.019691788
0.01968531
0.019689011
0.019684366
0.019687788
0.019684141
0.019690294
0.01968945
0.019698598
0.019701521
0.019717089
0.019728873
0.019732151
0.019747118
0.019757871
0.019780814
0.019800314
0.019832287
0.019864988
0.019892197
0.019910132
0.0199244
0.019934416
0.019941845
0.019943179
0.019946038
0.019948407
0.019953597
0.019961484
0.019972134
0.019986116
0.019996365
0.020003803
0.020008864
0.020011592
0.020013997
0.020013284
0.020013392
0.020013026
0.020014254
0.020013576
0.020014043
0.020013872
0.020016523
0.020023143
0.020034876
0.020049008
0.020065198
0.020079071
0.020095251
0.020111039
0.020125864
0.02013294
0.020137889
0.020147082
0.020180272
0.020427661
0.020396073
0.020387236
0.020382258
0.020374969
0.020360537
0.020345056
0.020329018
0.020315129
0.0202995
0.020285912
0.020273255
0.020266988
0.020264392
0.020264346
0.020263622
0.020263831
0.020262868
0.020263293
0.020263137
0.020263454
0.020261204
0.020258436
0.020253186
0.020246061
0.020235915
0.020222587
0.020210984
0.020203058
0.020198185
0.02019606
0.020193158
0.020191945
0.0201843
0.020174132
0.020159915
0.020141907
0.020115353
0.020083279
0.020052223
0.020032404
0.02001034
0.019998802
0.019984814
0.019980474
0.019968978
0.019954621
0.019951716
0.019943188
0.019943554
0.019937964
0.019943167
0.01993951
0.019944247
0.019938942
0.019943753
0.01994158
0.01993055
0.019915914
0.019904637
0.019894172
0.0198852
0.019879613
0.019876302
0.019879448
0.019876911
0.019880187
0.019880539
0.019888342
0.019891622
0.019902271
0.019907983
0.019920406
0.019930573
0.019930747
0.019918332
0.019913333
0.019906835
0.019904297
0.019907699
0.0199116
0.019916657
0.01991787
0.01991723
0.019904922
0.019890255
0.019879809
0.019902534
0.020154747
0.020133445
0.020142006
0.020158306
0.020168825
0.020171141
0.020167952
0.020165183
0.020159282
0.020157899
0.020157996
0.020163944
0.020171005
0.020181741
0.020181393
0.020170716
0.020160825
0.020153499
0.02014487
0.020140178
0.020134441
0.020132651
0.02012974
0.020130349
0.020129293
0.020130099
0.020139336
0.020147809
0.020158433
0.020165535
0.020181041
0.020191739
0.020195184
0.020191512
0.020197583
0.020193285
0.020197073
0.020191842
0.020197138
0.020197341
0.020205274
0.02020818
0.020221384
0.020232082
0.020237944
0.02024991
0.020263256
0.020283463
0.020304931
0.020333665
0.020366218
0.020392544
0.02041062
0.020424401
0.020434891
0.02044249
0.020443854
0.020446786
0.020448669
0.020453638
0.020462519
0.020474089
0.020486619
0.020496638
0.020503691
0.020508603
0.020511763
0.02051386
0.020513954
0.020514029
0.020513567
0.020514298
0.020514552
0.020515379
0.020515699
0.020518319
0.020525209
0.02053724
0.020550637
0.020565968
0.020579902
0.020595677
0.020610842
0.020624914
0.020632381
0.020637269
0.020645842
0.020677234
0.020925936
0.020896193
0.020887707
0.020883135
0.020875644
0.020861929
0.020846809
0.020831521
0.02081767
0.02080262
0.020789222
0.020777913
0.020770604
0.020767693
0.020766888
0.020766224
0.020765618
0.02076511
0.020765304
0.020765541
0.020765142
0.020763181
0.020759594
0.020754954
0.020747992
0.020737849
0.020725791
0.020714666
0.020705085
0.020699902
0.020698017
0.020695179
0.020693692
0.020686175
0.020675487
0.020662211
0.020644144
0.020618102
0.020584719
0.020558803
0.020535292
0.020517236
0.020501711
0.02049191
0.020485662
0.020474626
0.020462877
0.020459617
0.020452554
0.020451385
0.020446592
0.020451531
0.020447762
0.0204514
0.020444826
0.020447278
0.020443552
0.020432437
0.02041612
0.020411187
0.020401423
0.020392298
0.020381976
0.020381598
0.020381474
0.020382875
0.02038368
0.020387314
0.02039056
0.020397092
0.020403277
0.020412489
0.020419265
0.020430656
0.02043112
0.020422391
0.020413811
0.02040923
0.02040872
0.020410825
0.020415995
0.02041915
0.020421467
0.020420416
0.020408747
0.020393611
0.020383827
0.020407086
0.020658169
0.020633623
0.020646091
0.020658757
0.020672882
0.020671315
0.020671076
0.020666389
0.020663231
0.020659122
0.020661895
0.020666279
0.020675207
0.020681881
0.020680359
0.020668619
0.020665464
0.020653997
0.020650575
0.020641919
0.020641474
0.020635727
0.020637442
0.020633836
0.02063487
0.020636045
0.020645565
0.020656158
0.02066464
0.020668902
0.020685029
0.020695935
0.020700141
0.020698683
0.020705789
0.020702715
0.020706539
0.020701833
0.02070603
0.020708281
0.020714573
0.020718211
0.0207286
0.020739629
0.020747458
0.020754841
0.020772847
0.020788517
0.020814372
0.020837355
0.020871083
0.020896746
0.020914641
0.02092746
0.02093813
0.020945534
0.020947226
0.020950203
0.020951682
0.020957085
0.020966776
0.020978041
0.020990064
0.020999937