/*--------------------------------*- C++ -*----------------------------------*\
| =========                 |                                                 |
| \\      /  F ield         | OpenFOAM: The Open Source CFD Toolbox           |
|  \\    /   O peration     | Version:  v2012                                 |
|   \\  /    A nd           | Website:  www.openfoam.com                      |
|    \\/     M anipulation  |                                                 |
\*---------------------------------------------------------------------------*/
FoamFile
{
    version     2.0;
    format      ascii;
    class       volScalarField;
    location    "300";
    object      omega;
}
// * * * * * * * * * * * * * * * * * * * * * * * * * * * * * * * * * * * * * //

dimensions      [0 0 -1 0 0 0 0];


internalField   nonuniform List<scalar> 
229778
(
87.308282
83.700298
80.378667
77.319226
74.498133
71.891167
69.474752
67.228118
65.133038
63.173832
61.336607
59.609825
57.983526
56.448951
54.998389
53.62501
52.322716
51.086061
49.910161
48.790632
47.723516
46.705231
45.732506
44.802383
43.912158
43.059347
42.241672
41.457053
40.703565
39.97944
39.283041
38.61285
37.967466
37.345595
36.746024
36.167628
35.609361
35.070247
34.549376
34.045898
8.1266116
8.1247836
8.1236552
8.12317
8.1233054
8.1239176
8.1251842
8.1270557
8.1297123
8.1329804
8.1367518
8.1413048
8.1464846
8.1522999
8.1587568
8.1657347
8.1733026
8.181635
8.1906084
8.2002198
8.210363
8.2209554
8.2320853
8.2438394
8.2561218
8.2689256
8.2822368
8.2959838
8.3101984
8.3248553
8.3399685
8.3554977
8.3713823
8.3876173
8.4042006
8.4210781
8.4382291
8.4556389
8.4733127
8.4912173
8.509325
8.5276223
8.5460976
8.5647362
8.5835275
8.6024575
8.6215202
8.6407077
8.6600134
8.6794351
8.6989714
8.7186215
8.7383842
8.7582636
8.7782611
8.7983778
8.8186177
8.8389845
8.859482
8.880114
8.9008841
8.9217963
8.9428535
8.9640589
8.9854149
9.0069233
8.6555597
8.6364943
8.6175367
8.5987032
8.5800094
8.5614744
8.5431153
8.524953
8.5070056
8.4892952
8.4718402
8.4546634
8.437783
8.4212224
8.4049987
8.3891354
8.3736486
8.3585614
8.3438882
8.3296514
8.3158634
8.3025457
8.2897085
8.2773724
8.2655448
8.254245
8.2434778
8.2332613
8.2235972
8.2145023
8.2059755
8.1980319
8.190668
8.1838973
8.1777135
8.1721294
8.1671361
8.1627455
8.1589474
8.1557532
8.15315
8.1511474
8.1497298
8.148905
8.1486548
8.1489857
8.1498775
8.1513373
8.1533611
8.1560441
8.161036
8.1581354
8.1559487
8.1543301
8.1532746
8.1527885
8.1528787
8.1535524
8.1548161
8.1566753
8.1591345
8.1621977
8.1658669
8.1701413
8.1750187
8.1804975
8.1865754
8.1932489
8.2005144
8.2083675
8.2168027
8.2258133
8.2353922
8.2455306
8.2562191
8.2674467
8.2792018
8.2914718
8.3042433
8.3175009
8.3312295
8.3454122
8.3600321
8.3750713
8.3905112
8.4063323
8.422515
8.439039
8.4558844
8.4730298
8.4904549
8.5081389
8.5260615
8.5442021
8.5625409
8.5810589
8.599737
8.6185571
8.6375023
8.6565498
8.6584543
8.6393748
8.6204007
8.6015481
8.582834
8.5642768
8.545895
8.5277068
8.5097316
8.4919898
8.4745018
8.4572877
8.440368
8.4237639
8.4074953
8.3915822
8.3760442
8.3609005
8.34617
8.33187
8.3180178
8.3046299
8.2917219
8.2793091
8.2674052
8.2560226
8.2451734
8.2348688
8.2251184
8.215931
8.2073146
8.1992762
8.1918223
8.1849579
8.1786887
8.1730199
8.1679562
8.1634976
8.1596547
8.1564196
8.1537866
8.151749
8.1503043
8.149445
8.1491649
8.1494567
8.1503161
8.151737
8.1537273
8.1563764
8.1545446
8.1518872
8.1499578
8.1486155
8.1478464
8.1476608
8.1480496
8.1490384
8.1505993
8.1527706
8.155534
8.1588896
8.1628366
8.1673868
8.1725334
8.1783056
8.1846885
8.1916891
8.199284
8.207467
8.2162313
8.2255688
8.2354685
8.2459214
8.2569177
8.2684457
8.2804927
8.2930457
8.3060904
8.3196114
8.3335925
8.348017
8.3628675
8.378126
8.3937736
8.4097909
8.4261585
8.4428564
8.4598645
8.4771619
8.4947278
8.5125422
8.5305839
8.5488328
8.5672688
8.5858748
8.6046337
8.6235276
8.6425399
8.6616512
8.6855842
8.666337
8.6471737
8.6281086
8.6091574
8.5903347
8.5716574
8.5531368
8.5347952
8.5166536
8.4987325
8.4810523
8.4636336
8.4464969
8.4296626
8.4131506
8.3969806
8.3811719
8.3657438
8.3507159
8.3361069
8.3219345
8.3082156
8.2949672
8.2822043
8.2699423
8.258194
8.246973
8.2362902
8.2261562
8.2165812
8.2075938
8.1991803
8.1913486
8.184113
8.1775294
8.1715998
8.1662738
8.1614591
8.1572352
8.1535935
8.1505413
8.1480883
8.1462785
8.1450352
8.1444356
8.1443713
8.1449548
8.1461604
8.1479557
8.1503954
8.1545645
8.1522666
8.1506711
8.1495866
8.1489359
8.1488441
8.149339
8.1503788
8.1521588
8.1546048
8.157651
8.1612229
8.1654201
8.1702695
8.1757239
8.1817325
8.1883829
8.1956841
8.2035782
8.2120136
8.2210359
8.2306449
8.2408215
8.2515577
8.2628337
8.2746482
8.2869734
8.2998073
8.3131257
8.3269236
8.341177
8.3558691
8.3709814
8.386497
8.4023924
8.4186479
8.4352438
8.45216
8.4693758
8.4868708
8.5046241
8.5226153
8.5408236
8.5592288
8.5778111
8.5965523
8.6154308
8.6344363
8.653553
8.6727645
8.6920513
8.7002887
8.6809516
8.6616893
8.6425175
8.6234478
8.6045006
8.5856864
8.5670269
8.5485405
8.5302486
8.51217
8.494327
8.4767383
8.4594269
8.4424108
8.4257137
8.4093556
8.3933563
8.3777353
8.362518
8.3477217
8.3333555
8.3194484
8.3060248
8.293111
8.2807041
8.2687773
8.2574082
8.2466094
8.236372
8.2266954
8.2175308
8.2089158
8.2009213
8.1935673
8.1868179
8.180673
8.1751511
8.1702369
8.1659464
8.1622556
8.1591804
8.1567033
8.1548318
8.1534583
8.1527028
8.1524565
8.1527664
8.1536122
8.155056
8.1571145
8.1669089
8.1653319
8.1643695
8.1638275
8.163808
8.1643491
8.1654831
8.1671923
8.1695227
8.1724483
8.1760109
8.1802115
8.1850471
8.1904547
8.1966028
8.2033689
8.2106435
8.2186021
8.2271561
8.2362192
8.2458521
8.2560514
8.266822
8.2781494
8.29003
8.3024121
8.3153627
8.3288076
8.3427362
8.3571166
8.3718994
8.3871295
8.4027758
8.4188024
8.4351938
8.4519252
8.4689801
8.4863326
8.5039662
8.521856
8.5399845
8.5583273
8.5768665
8.5955801
8.6144452
8.6334392
8.6525522
8.6717717
8.6910811
8.7104584
8.7226622
8.7032343
8.6838744
8.6645977
8.6454213
8.6263621
8.6074284
8.5886508
8.5700496
8.5516459
8.5334579
8.51551
8.4978201
8.4804135
8.463307
8.4465265
8.4300874
8.414017
8.3983297
8.3830459
8.368152
8.3536981
8.3396779
8.3261522
8.3131032
8.3005937
8.2885931
8.2771597
8.2662573
8.2559479
8.2461844
8.2370332
8.2284769
8.2205276
8.2131702
8.2064095
8.2001763
8.1945906
8.1895799
8.185241
8.1815824
8.1785698
8.1761735
8.1743904
8.173092
8.1723909
8.1721792
8.1725149
8.1733816
8.1748708
8.1908724
8.1892188
8.1881615
8.1877032
8.1878626
8.188505
8.189609
8.1912873
8.1935991
8.1965438
8.2001278
8.2043688
8.209224
8.2146759
8.2207567
8.2274268
8.2347072
8.2426914
8.2512822
8.2604055
8.270107
8.2803833
8.2912314
8.3026318
8.3145827
8.3270597
8.3400437
8.3535624
8.3675833
8.3820579
8.3969586
8.4122495
8.4279405
8.4440107
8.4604573
8.4772489
8.494371
8.5118011
8.5295191
8.5475017
8.5657287
8.5841773
8.6028237
8.6216534
8.6406385
8.6597471
8.6789766
8.6983043
8.7177098
8.7371777
8.7542789
8.7347573
8.7152962
8.6959121
8.6766225
8.6574466
8.638394
8.619497
8.6007795
8.5822617
8.5639651
8.5459127
8.5281256
8.5106269
8.4934373
8.4765769
8.4600472
8.4438951
8.4281175
8.4127402
8.3977835
8.3832734
8.3692399
8.3556794
8.3425815
8.3299991
8.3179122
8.3063872
8.2954432
8.2850738
8.2752822
8.266076
8.2574425
8.2494015
8.2419777
8.2351767
8.228916
8.2232839
8.2182132
8.2138212
8.2101239
8.2070572
8.2046115
8.2027904
8.2015526
8.2008867
8.2007711
8.2012238
8.2022564
8.2039562
8.2220184
8.2207711
8.2202521
8.2203491
8.2210396
8.2223306
8.2242197
8.2267473
8.2298385
8.2334159
8.2377449
8.242744
8.2483041
8.2544049
8.2610796
8.2684853
8.2765324
8.2851913
8.294435
8.3042813
8.3147108
8.3257125
8.3372748
8.3493799
8.361972
8.3750685
8.3886459
8.4027082
8.4172306
8.4321736
8.4475398
8.4633143
8.4794813
8.496025
8.5129204
8.5301525
8.5476969
8.565534
8.5836384
8.6019901
8.6205631
8.6393337
8.6582843
8.6773897
8.6966173
8.7159577
8.7353912
8.7548997
8.7744638
8.7982821
8.7786681
8.7591062
8.7396148
8.7202124
8.700919
8.6817459
8.662724
8.6438721
8.6252192
8.6067805
8.5885928
8.5706786
8.5530589
8.5357528
8.5187847
8.5021719
8.4859387
8.4701007
8.4546762
8.4396481
8.4250672
8.4109271
8.3972862
8.3841127
8.3714434
8.3592863
8.3476664
8.3365871
8.3260617
8.3161083
8.3067516
8.297974
8.2898231
8.2822455
8.2753587
8.2691379
8.2635574
8.2585945
8.254271
8.2505612
8.2474651
8.2449597
8.243066
8.2417442
8.2410041
8.2408385
8.2413143
8.2424666
8.270198
8.2695832
8.2697828
8.270569
8.2718731
8.2736331
8.2760034
8.2789926
8.282611
8.2868708
8.2917749
8.2972974
8.303443
8.3103387
8.3179078
8.3260217
8.3347548
8.3440947
8.354023
8.3645146
8.375537
8.3870571
8.3991171
8.4117053
8.4248005
8.4384374
8.4525833
8.4671908
8.4822319
8.4976702
8.5135273
8.5297857
8.5464274
8.56343
8.5807749
8.5984388
8.6163955
8.6346378
8.6531311
8.6718392
8.6907347
8.7098076
8.7290302
8.7483713
8.7678197
8.7873541
8.8069544
8.8266004
8.8605217
8.8408461
8.8212096
8.8016323
8.7821349
8.7627391
8.743459
8.7243279
8.7053687
8.6866044
8.6680572
8.6497542
8.6317215
8.613979
8.5965495
8.5794598
8.5627305
8.5463779
8.5304219
8.5148864
8.4997766
8.4851195
8.4709272
8.4572271
8.4440366
8.4313716
8.4192397
8.4076519
8.3965994
8.3861041
8.3761646
8.3668037
8.3579677
8.3497527
8.3421678
8.3351962
8.3288389
8.3231098
8.3179219
8.3133977
8.3095621
8.3063465
8.3037375
8.3017278
8.3002888
8.2994411
8.2991848
8.2996277
8.338938
8.3384197
8.338699
8.3395311
8.3411544
8.3434277
8.3463202
8.3497472
8.3536645
8.3582002
8.3633584
8.3690728
8.3755116
8.3825556
8.3901221
8.3982902
8.4070482
8.4163626
8.4262696
8.4367493
8.4478013
8.4594203
8.4715839
8.4842782
8.4974951
8.5112136
8.5254278
8.5401056
8.5552376
8.5708376
8.5868717
8.603292
8.6200671
8.6372166
8.6547107
8.6725088
8.6905846
8.7089273
8.7275138
8.7463163
8.7653129
8.7844842
8.8037992
8.823226
8.84275
8.862348
8.8819976
8.901677
8.9522912
8.9326192
8.9129659
8.8933537
8.8738064
8.8543471
8.8349938
8.815779
8.7967283
8.7778665
8.7592118
8.7407989
8.7226497
8.7047848
8.6872237
8.6699944
8.6531131
8.6366018
8.6204767
8.6047669
8.5894854
8.5746544
8.5602611
8.5463644
8.5329832
8.5201226
8.5077872
8.4959946
8.4847578
8.4740887
8.4639758
8.4544361
8.445413
8.4370039
8.4292076
8.4220001
8.4153114
8.4092545
8.4037579
8.3989034
8.3945786
8.390799
8.3875843
8.3849843
8.3829549
8.3815894
8.380841
8.4380842
8.4391336
8.4408013
8.4431056
8.4460199
8.4495242
8.4535828
8.4581595
8.4632342
8.4688908
8.4751367
8.4819823
8.4893857
8.4973904
8.5059827
8.5151467
8.5248599
8.5351501
8.5460005
8.5574088
8.569353
8.5818325
8.5948334
8.6083424
8.6223543
8.6368401
8.651773
8.6671521
8.682961
8.6991757
8.7157678
8.7327289
8.7500353
8.7676659
8.7855937
8.8038032
8.8222704
8.8409699
8.8598744
8.8789616
8.8982091
8.917586
8.9370618
8.9566172
8.9762267
8.9958652
9.0155108
9.0956411
9.0760166
9.0563824
9.0367623
9.017182
8.9976677
8.9782429
8.9589363
8.9397765
8.920789
8.9019982
8.8834277
8.8650951
8.8470313
8.8292508
8.8117856
8.7946463
8.7778654
8.7614479
8.7454304
8.7298349
8.7146718
8.6999517
8.6856909
8.6719045
8.6585989
8.6457876
8.6334835
8.6216953
8.6104351
8.5997124
8.5895396
8.5799183
8.5708485
8.5622737
8.554285
8.5468298
8.5399923
8.5337848
8.5281875
8.5231633
8.5186759
8.514641
8.511203
8.5082892
8.5060264
8.5044733
8.5921992
8.5942007
8.5969157
8.6001789
8.6041231
8.6086947
8.6137696
8.6192944
8.6255043
8.6323393
8.6397479
8.6477254
8.6562512
8.6653361
8.6749594
8.685125
8.6958272
8.7070587
8.7188066
8.7310622
8.743807
8.7570333
8.7707197
8.7848432
8.7994219
8.8144438
8.829893
8.8457559
8.8620131
8.8786473
8.8956382
8.912966
8.9306202
8.948576
8.9668062
8.9852907
9.0040061
9.0229314
9.0420421
9.0613136
9.0807198
9.100233
9.1198275
9.139475
9.1591483
9.17882
9.1984692
9.3317314
9.3119422
9.2921133
9.2722694
9.2524403
9.2326547
9.2129447
9.19333
9.173839
9.1544963
9.1353271
9.116354
9.0975989
9.079083
9.060826
9.0428482
9.0251643
9.0077967
8.9907564
8.9740678
8.957737
8.9417965
8.9262639
8.9111523
8.896465
8.8822044
8.8683864
8.8549912
8.8420463
8.8295761
8.8175875
8.8060988
8.7951105
8.7846306
8.7746728
8.7652783
8.7564601
8.7482068
8.7405086
8.7333868
8.7268225
8.7208144
8.7153465
8.7104396
8.7060971
8.7023394
8.6992208
8.83922
8.8434349
8.8483462
8.853835
8.8598922
8.8664972
8.8736239
8.8813104
8.8895416
8.8983248
8.9076358
8.9174754
8.9279127
8.9388841
8.9503434
8.9622638
8.9746226
8.9874432
9.000712
9.0144656
9.0286447
9.0432459
9.0582702
9.0736879
9.0895017
9.1057021
9.1222903
9.1392337
9.1565095
9.1741042
9.1920008
9.2101859
9.2286467
9.2473686
9.2663361
9.2855294
9.3049307
9.3245201
9.3442711
9.3641649
9.3841774
9.4042829
9.4244662
9.4446904
9.4649294
9.4851509
9.5053366
9.732127
9.7111321
9.6901133
9.6690924
9.6481056
9.6271695
9.6063224
9.5855728
9.5649464
9.5444671
9.5241524
9.5040168
9.4840837
9.4643616
9.4448699
9.4256124
9.4066061
9.3878638
9.3693965
9.3512157
9.3333353
9.3157714
9.2985433
9.2816643
9.2651425
9.2489895
9.2332203
9.2178212
9.202817
9.188235
9.174063
9.1603179
9.1470052
9.1341542
9.1217833
9.1098828
9.0984269
9.0874741
9.0769939
9.0670475
9.0575909
9.048684
9.0402718
9.0324226
9.0251603
9.0185096
9.2438849
9.2526396
9.2620139
9.2719368
9.2823719
9.2933111
9.3047322
9.3166939
9.329153
9.3420687
9.3554402
9.3692341
9.38343
9.3980867
9.4131619
9.4286242
9.4444792
9.4607167
9.4773433
9.4943273
9.5116555
9.5293302
9.547339
9.5656679
9.5843067
9.6032434
9.6224629
9.6419612
9.6617103
9.6817077
9.7019531
9.7224304
9.743125
9.7640407
9.7851738
9.8065117
9.8280235
9.8497095
9.871569
9.8935816
9.9157299
9.9380153
9.9604032
9.9828577
10.005357
10.027905
10.412681
10.387489
10.362453
10.337581
10.312886
10.288383
10.264106
10.240032
10.21617
10.192525
10.169115
10.145912
10.122916
10.10013
10.077561
10.055207
10.033081
10.011183
9.9895309
9.9681076
9.9469316
9.925995
9.9053084
9.8848846
9.8647389
9.8448816
9.8253255
9.8060825
9.7871577
9.7685648
9.750317
9.7324241
9.7148947
9.6977461
9.6809884
9.6646261
9.6486663
9.633125
9.6180095
9.6033351
9.5890847
9.5752998
9.5619619
9.5491289
9.5368486
9.894431
9.9101957
9.9265196
9.94331
9.9605207
9.9781387
9.9961803
10.014641
10.033509
10.052775
10.072428
10.092456
10.112844
10.133577
10.154644
10.176033
10.197735
10.219721
10.241989
10.26455
10.287377
10.310456
10.333795
10.357346
10.381122
10.405121
10.429348
10.453794
10.478465
10.503371
10.528525
10.55391
10.579555
10.605418
10.631537
10.65793
10.68462
10.711631
10.738968
10.766643
10.794703
10.823119
10.851895
10.881039
10.910582
11.551566
11.515356
11.47991
11.445152
11.411046
11.37756
11.344698
11.312377
11.280555
11.249197
11.218271
11.187738
11.157592
11.127763
11.098251
11.069003
11.040006
11.011263
10.982764
10.954498
10.926481
10.898681
10.87112
10.84376
10.816643
10.789737
10.763052
10.736638
10.71047
10.684553
10.658913
10.633563
10.608517
10.583789
10.559405
10.535363
10.511683
10.488371
10.465446
10.442918
10.420799
10.399095
10.377813
10.356974
10.336606
10.880285
10.906208
10.932596
10.959429
10.986699
11.014388
11.042487
11.070986
11.099875
11.129135
11.158758
11.188724
11.219028
11.249649
11.280574
11.311784
11.343285
11.375009
11.406992
11.439276
11.471762
11.504492
11.537453
11.570636
11.604083
11.637811
11.671817
11.706053
11.740586
11.775471
11.810706
11.846323
11.882368
11.918879
11.955922
11.993543
12.031818
12.070818
12.110585
12.15123
12.192839
12.235457
12.279167
12.324107
13.346932
13.288473
13.231841
13.176909
13.123552
13.071701
13.02118
12.971888
12.923682
12.876478
12.830126
12.784564
12.739672
12.69541
12.651682
12.608482
12.565728
12.523417
12.481467
12.439851
12.398561
12.357591
12.316923
12.27656
12.236494
12.196731
12.157322
12.118208
12.079372
12.040844
12.002633
11.964787
11.927284
11.89016
11.853386
11.817002
11.781001
11.745421
11.710239
11.675471
11.641137
11.60727
11.573858
11.540912
12.333517
12.374829
12.416658
12.459008
12.501872
12.545251
12.589071
12.633351
12.678126
12.723428
12.769136
12.815272
12.861883
12.90898
12.956508
13.004446
13.052819
13.101548
13.150702
13.200343
13.250406
13.300908
13.351849
13.403238
13.455139
13.507473
13.560332
13.613773
13.667857
13.722661
13.778271
13.834718
13.892088
13.950505
14.010035
14.070836
14.133109
14.197049
14.262732
14.330366
14.400158
14.4722
15.896942
15.805378
15.716644
15.630552
15.546925
15.46558
15.386321
15.308955
15.233296
15.159174
15.08645
15.014994
14.94472
14.875531
14.807348
14.740091
14.673746
14.608198
14.543441
14.479386
14.416
14.353276
14.291209
14.229845
14.169104
14.108944
14.049382
13.990406
13.932026
13.874236
13.817042
13.760436
13.70443
13.649019
13.59421
13.540003
13.486403
13.43341
13.381034
13.329271
13.278119
14.393888
14.456067
14.518944
14.582551
14.646897
14.711984
14.777816
14.844403
14.911762
14.979884
15.048779
15.118462
15.188959
15.260268
15.3324
15.405372
15.479241
15.553945
15.629596
15.706284
15.783978
15.862714
15.942538
16.023507
16.105685
16.189165
16.273942
16.360141
16.447889
16.537325
16.628586
16.721758
16.817022
16.914496
17.014442
17.117107
17.222686
17.331395
17.443342
17.558717
17.677523
19.558789
19.413816
19.273009
19.136465
19.004126
18.87582
18.751301
18.630309
18.512579
18.397872
18.285961
18.176656
18.069764
17.965125
17.862583
17.762049
17.66334
17.566374
17.470998
17.377107
17.284636
17.193519
17.103757
17.015216
16.927804
16.841496
16.756238
16.67201
16.588767
16.506533
16.425207
16.344748
16.265153
16.186473
16.108618
16.031553
15.955282
15.879801
15.805095
15.731146
17.389518
17.476575
17.564238
17.652537
17.741483
17.83112
17.921333
18.01224
18.103927
18.196301
18.289372
18.383212
18.477735
18.573068
18.669297
18.76639
18.864439
18.963389
19.063418
19.164674
19.267168
19.370996
19.47628
19.583158
19.691775
19.802302
19.914938
20.029891
20.147423
20.267781
20.391287
20.518261
20.649074
20.784126
20.923848
21.068658
21.218952
21.375026
21.536912
21.704475
23.950541
23.810482
23.67672
23.548789
23.426056
23.307758
23.193102
23.081348
22.971824
22.863979
22.757338
22.651585
22.54633
22.441374
22.33645
22.231386
22.126102
22.020546
21.914678
21.808565
21.702095
21.595224
21.488111
21.380657
21.272855
21.164776
21.056464
20.94797
20.839339
20.730623
20.621853
20.513079
20.404354
20.295835
20.187467
20.079242
19.971244
19.863521
19.756114
19.649052
23.007021
23.161845
23.31736
23.473475
23.6301
23.787169
23.944371
24.101685
24.259037
24.416243
24.572832
24.728782
24.883917
25.038013
25.190809
25.34203
25.491498
25.638719
25.78347
25.925204
26.063577
26.198176
26.328541
26.454239
26.574728
26.689284
26.797266
26.897958
26.990663
27.074669
27.149027
27.21314
27.266063
27.307004
27.335177
27.349707
27.349747
27.334444
27.30281
27.254608
8.9484009
8.9265384
8.9047945
8.8831684
8.8616596
8.8402672
8.8189913
8.7978315
8.7767884
8.7558619
8.7350541
8.7143662
8.6938009
8.6733602
8.6530485
8.6328697
8.6128308
8.5929361
8.5731955
8.5536142
8.5342051
8.5149747
8.4959386
8.4771044
8.4584917
8.4401123
8.4219831
8.4041122
8.3865277
8.3692397
8.3522713
8.3356275
8.3193407
8.3034209
8.2878969
8.272777
8.2580884
8.243827
8.2300335
8.2166997
8.2038698
8.1915316
8.1797356
8.1684817
8.1577925
8.1476448
8.1380939
8.1291059
8.120735
8.112964
8.105826
8.0992992
8.0934088
8.0881034
8.0834401
8.0793622
8.0759318
8.0730891
8.0709046
8.0693444
8.0684644
8.0683014
8.1860179
8.1848796
8.1839056
8.1827382
8.1818318
8.1803543
8.1788703
8.1771051
8.1763878
8.1754593
8.1739941
8.1656253
8.1700446
8.1714817
8.1723776
8.1730634
8.1747151
8.1760603
8.1775545
8.1783882
8.1794791
8.180351
8.1812106
8.1812147
8.1803784
8.1790489
8.1779678
8.1699808
8.1714555
8.1727876
8.1739225
8.1750449
8.1763464
8.1771158
8.1772239
8.1765891
8.1757934
8.1747532
8.1738633
8.1725504
8.1713054
8.169749
8.1690946
8.1682429
8.1668701
8.1624629
8.1601363
8.1642795
8.1655866
8.1663811
8.1670039
8.1684647
8.1696277
8.1707969
8.171699
8.1726844
8.1734223
8.1739232
8.1738187
8.1730628
8.1717994
8.1706578
8.1694185
8.1680611
8.1664736
8.1651447
8.1636581
8.1599031
8.1608357
8.1624212
8.163849
8.1654212
8.166656
8.1679793
8.1691277
8.1703612
8.171125
8.1712589
8.1708323
8.170152
8.1690871
8.1683453
8.1672783
8.166185
8.1648206
8.1642271
8.1634869
8.1622445
8.1582526
8.1570567
8.1607775
8.1619392
8.1626389
8.1632086
8.1644772
8.1654908
8.1664709
8.1671054
8.1681999
8.1688005
8.1691782
8.1690149
8.1682423
8.1670231
8.1658841
8.1645379
8.163376
8.1618451
8.1604274
8.1588015
8.1576206
8.1527773
8.1530082
8.1524939
8.1517109
8.1500804
8.1474049
8.1457874
8.1453985
8.1455552
8.1461553
8.147104
8.1487005
8.1500591
8.1515413
8.1525476
8.1530885
8.1532759
8.1532469
8.1534946
8.1541454
8.1551241
8.1561611
8.1573883
8.1590049
8.1604393
8.161928
8.1630752
8.1643969
8.1655121
8.1667103
8.1674929
8.1676884
8.1673619
8.1667106
8.1657587
8.1651978
8.1642885
8.1633487
8.1621733
8.1616271
8.1609749
8.1598848
8.1563143
8.1562674
8.1595759
8.1606079
8.1612014
8.1617233
8.1628063
8.1636914
8.1645189
8.1650228
8.1658526
8.1665234
8.1667978
8.1665631
8.1657733
8.1645999
8.1635053
8.1622134
8.1610675
8.1596136
8.1581672
8.1565729
8.1553466
8.1541492
8.1531588
8.1524647
8.152112
8.1521643
8.1519392
8.1513739
8.1503422
8.148873
8.1474953
8.1459009
8.1449688
8.1443454
8.144155
8.1444828
8.1459519
8.1483232
8.1499459
8.1506239
8.1511003
8.1506428
8.1506231
8.1490401
8.1485743
8.1485292
8.1468449
8.1460207
8.143875
8.1425769
8.1096554
8.1118562
8.114861
8.1171388
8.1191946
8.1207507
8.1223479
8.1237414
8.124608
8.1259945
8.1283822
8.1316149
8.1333769
8.1362881
8.138065
8.1408499
8.1422422
8.1443295
8.1452299
8.1469163
8.1471152
8.1476723
8.149142
8.1493619
8.1499525
8.1493175
8.1489495
8.1472527
8.1452441
8.1439122
8.1436712
8.1438976
8.1445524
8.1454653
8.1470523
8.1484381
8.1499007
8.1509579
8.1515553
8.1518311
8.1517947
8.1521869
8.1529386
8.153924
8.1551214
8.1563649
8.1579163
8.1593694
8.1607984
8.1619627
8.1632102
8.1642992
8.1654324
8.166233
8.166514
8.166173
8.1656333
8.1648957
8.1644305
8.1636787
8.1628525
8.1618616
8.161366
8.1608268
8.1598514
8.1566956
8.1578265
8.1607268
8.1616287
8.1621277
8.162595
8.1634968
8.1642527
8.1649419
8.1653689
8.1660137
8.1664669
8.1668395
8.1665052
8.1657001
8.1645928
8.1635168
8.162311
8.1611267
8.15971
8.1582628
8.156753
8.155497
8.1543122
8.1533229
8.1525266
8.1520952
8.1519941
8.1517858
8.1511661
8.1500847
8.1486106
8.1472348
8.1456585
8.144741
8.1440695
8.1437841
8.1439701
8.1451603
8.1470248
8.1484639
8.1488562
8.1492971
8.1488011
8.1484158
8.147088
8.146459
8.1460671
8.144413
8.1434098
8.1414199
8.1399381
8.1370795
8.1352935
8.1324226
8.1307489
8.1277166
8.1253514
8.1239446
8.1229579
8.1212598
8.1197206
8.1180154
8.1160604
8.1136675
8.1107463
8.1083466
8.105536
8.1030214
8.099986
8.0973217
8.0941006
8.0913058
8.0882449
8.0853034
8.0836879
8.0836001
8.0829388
8.0823518
8.0814794
8.0801254
8.0788596
8.0776291
8.0767606
8.0760182
8.0766667
8.0775676
8.0783495
8.0758397
8.0756099
8.0779325
8.0773159
8.0763299
8.075851
8.0764619
8.0774855
8.0784952
8.0799101
8.0810895
8.0821674
8.0828807
8.083369
8.0836887
8.0853208
8.0882712
8.0910068
8.0939621
8.0969303
8.0997441
8.1025317
8.1052154
8.1079233
8.110529
8.1132259
8.1158672
8.1175369
8.119332
8.1208865
8.1230036
8.123951
8.1254654
8.1277279
8.1306265
8.1322692
8.1350752
8.1368717
8.1396947
8.1412421
8.14314
8.144231
8.1458578
8.1464174
8.1471698
8.1483362
8.1489457
8.1492812
8.1491023
8.1485944
8.1474997
8.1456989
8.1446243
8.1444972
8.1448596
8.1455408
8.14648
8.1480283
8.1493952
8.1508787
8.1519587
8.1525153
8.1527789
8.1529962
8.1534696
8.1542926
8.1553152
8.1564721
8.1577367
8.1592112
8.1606574
8.1620598
8.1632576
8.1644285
8.1654997
8.1665825
8.1673851
8.1676727
8.1674109
8.1670166
8.1664434
8.1660561
8.1654329
8.1647454
8.1639265
8.1634955
8.1630426
8.1622074
8.159453
8.1617855
8.1643036
8.1650803
8.1654787
8.1658611
8.1666046
8.1672371
8.1677873
8.1681256
8.1686344
8.1689795
8.1691543
8.1688743
8.168088
8.1670336
8.1659562
8.1648076
8.1636039
8.1622284
8.1607751
8.1593231
8.1580574
8.1569215
8.1558761
8.1550248
8.154526
8.1542247
8.1539003
8.1533597
8.1522846
8.1508068
8.149441
8.1479199
8.1469594
8.146256
8.1458236
8.1458832
8.1468429
8.148598
8.1493431
8.149973
8.1498888
8.1497156
8.1488977
8.1477688
8.1470132
8.1462659
8.1447051
8.1434977
8.1417301
8.1400881
8.1373325
8.1355011
8.1327824
8.1311356
8.1283769
8.1261058
8.1245671
8.1236145
8.1213193
8.119647
8.1178789
8.1162261
8.113557
8.1109649
8.1081669
8.1056731
8.1028091
8.1002779
8.0973025
8.094594
8.0914692
8.0890675
8.0861036
8.0844756
8.083922
8.0835311
8.0826338
8.0816232
8.0803585
8.0790513
8.0780092
8.0770914
8.0763455
8.0769225
8.0777332
8.0784672
8.0760567
8.0772525
8.0796776
8.0787518
8.0781846
8.0774448
8.078393
8.0791456
8.0802882
8.0814066
8.0828378
8.0836694
8.0846427
8.0850437
8.085801
8.087507
8.0904254
8.0925065
8.0957955
8.0982604
8.1013828
8.1036735
8.1067048
8.1089922
8.1119668
8.1144816
8.1170947
8.1188531
8.1205558
8.1223718
8.1247122
8.1257558
8.1273844
8.1296313
8.1322786
8.1339235
8.1365732
8.138428
8.1411296
8.1428629
8.144514
8.1458066
8.1473192
8.1482155
8.1490443
8.1500355
8.1510375
8.1510679
8.151397
8.1506608
8.1502324
8.1485855
8.1477439
8.1477646
8.1482539
8.1489953
8.1499759
8.1514669
8.1528196
8.1543095
8.1553846
8.1559535
8.1562985
8.1566571
8.1571996
8.1580733
8.1591277
8.1602559
8.1615108
8.162954
8.1644027
8.165761
8.1669591
8.1680986
8.1691729
8.1702158
8.1709973
8.1713057
8.1711689
8.170869
8.1704146
8.1701329
8.1696447
8.1690749
8.1683985
8.1680783
8.1677269
8.1670136
8.1646291
8.1681766
8.1703458
8.1709774
8.1712955
8.171541
8.1721648
8.172659
8.1731015
8.1733157
8.1737286
8.1739674
8.1740813
8.1737458
8.1729723
8.1719166
8.1708639
8.1697133
8.1685405
8.1671807
8.1657569
8.1643024
8.1630774
8.1619362
8.1608926
8.1599792
8.1594139
8.1589923
8.1586422
8.1580262
8.1569343
8.1554551
8.1541143
8.152654
8.1516549
8.1508574
8.1503334
8.1502156
8.1509467
8.1523813
8.1527267
8.1533483
8.1529967
8.1528816
8.1519577
8.1510151
8.1500758
8.1490142
8.1475742
8.1461866
8.1446712
8.1428077
8.1401877
8.138285
8.1357221
8.1340515
8.1315434
8.1292711
8.1275853
8.1264309
8.1240862
8.1222641
8.1204978
8.1186202
8.1160427
8.1135004
8.1105767
8.1082657
8.1052915
8.1030175
8.0999708
8.0975235
8.0942826
8.0922798
8.0895239
8.0878028
8.086984
8.0865829
8.0854721
8.0845959
8.0832024
8.0820691
8.081038
8.0802153
8.0792942
8.079976
8.0805164
8.0814154
8.0790995
8.0816938
8.0837823
8.0829321
8.0823905
8.0817985
8.0826712
8.0835789
8.0844368
8.0856667
8.0869512
8.0879287
8.0892398
8.0896573
8.0905076
8.092104
8.094731
8.096703
8.0998768
8.1023377
8.1052817
8.1075689
8.1104715
8.1128206
8.1156277
8.1182699
8.1207472
8.1227785
8.1246991
8.1264604
8.1287666
8.1300249
8.1318034
8.13407
8.1364666
8.1381591
8.1406498
8.1425951
8.1451515
8.1471236
8.1484764
8.1500058
8.1513271
8.1525626
8.1536362
8.1545342
8.1553415
8.155581
8.1559269
8.1554508
8.1551592
8.1539451
8.1533174
8.1535385
8.1540826
8.1549439
8.1559487
8.1573808
8.1587213
8.160175
8.1612886
8.1619408
8.1623064
8.1628023
8.1633808
8.1643439
8.1653666
8.166533
8.1677188
8.1691963
8.1705832
8.1719543
8.1730912
8.1742645
8.1752849
8.176364
8.1771211
8.177489
8.1773945
8.1772249
8.1768493
8.1767049
8.1762994
8.1758857
8.1753098
8.1751451
8.1748563
8.1743097
8.1722434
8.1770039
8.1788932
8.1793548
8.1796002
8.1797016
8.1802165
8.1805657
8.1809218
8.1810144
8.1813373
8.1814507
8.1815083
8.1811222
8.1803676
8.1792804
8.1782784
8.1770956
8.1759807
8.1746129
8.1732506
8.1717639
8.1706018
8.1694234
8.1684069
8.1674099
8.1668046
8.1662483
8.1658476
8.1651562
8.1640366
8.1626073
8.1612691
8.1598632
8.1588426
8.1579365
8.1573626
8.1570577
8.1575831
8.1585933
8.1588424
8.1591382
8.158827
8.158421
8.1577475
8.1568759
8.1555817
8.154398
8.1530002
8.1515543
8.150259
8.1481547
8.1456767
8.1436554
8.1412603
8.1395157
8.137256
8.1349484
8.1331106
8.131727
8.1294654
8.1277584
8.1255875
8.1236297
8.121046
8.1185344
8.115739
8.1133341
8.1105124
8.1081781
8.1053653
8.1028614
8.0997727
8.0978049
8.0953084
8.0937568
8.0929477
8.0924458
8.0910121
8.0900574
8.0886747
8.0875754
8.0867829
8.0857676
8.0849623
8.0854333
8.0860039
8.0867661
8.0848373
8.0886967
8.0904062
8.0897181
8.0891342
8.0887671
8.0894736
8.0906269
8.0914476
8.0922826
8.0938254
8.0946877
8.0961491
8.096769
8.0976302
8.0991223
8.1015171
8.1034746
8.1064916
8.1090367
8.1117342
8.1140991
8.1168171
8.1192938
8.1221776
8.124422
8.1271856
8.1289702
8.131391
8.1330854
8.1353244
8.1368169
8.1387397
8.1410562
8.1432203
8.1450111
8.1473287
8.1494144
8.1517805
8.1540512
8.155376
8.1566123
8.1581447
8.1591823
8.1606886
8.1615764
8.1621412
8.1627107
8.1630045
8.1628797
8.1626374
8.1618649
8.1614352
8.1618223
8.162419
8.1633685
8.1643952
8.1657781
8.1671104
8.1685204
8.1696475
8.1703856
8.1708205
8.1714399
8.1720682
8.1731011
8.1741081
8.1753035
8.1764402
8.1779395
8.1792729
8.1806396
8.1817299
8.1829257
8.183907
8.1850046
8.185753
8.1861544
8.1861451
8.1860794
8.1858206
8.185765
8.185465
8.1851708
8.1847273
8.1846763
8.1844848
8.1840864
8.1822852
8.1882483
8.1898903
8.1902251
8.1903662
8.1903715
8.1907467
8.1909772
8.1912335
8.1912537
8.1914494
8.1914577
8.1914269
8.1910085
8.1902528
8.1891615
8.1881854
8.1869915
8.1859101
8.1845602
8.1832421
8.181746
8.1806182
8.1794194
8.1784072
8.1773548
8.1766903
8.1760247
8.1755401
8.1747679
8.1736367
8.1722322
8.1709151
8.1695494
8.1685062
8.1675323
8.1669016
8.1664513
8.1667863
8.167462
8.167593
8.1675202
8.16726
8.1664981
8.1660401
8.1650331
8.1635437
8.1624555
8.1609992
8.159751
8.1583748
8.1561812
8.1538388
8.1516657
8.1494377
8.1475783
8.1455148
8.1431382
8.1411739
8.1395572
8.137337
8.1355634
8.1331081
8.1313088
8.128557
8.1263934
8.1234855
8.1210727
8.1183554
8.1159411
8.1133686
8.1107508
8.1078253
8.1058572
8.1035843
8.1021158
8.1012319
8.1004762
8.0990164
8.0981364
8.0966447
8.0958607
8.0949821
8.0939412
8.0932414
8.0934888
8.0940973
8.0946812
8.0931114
8.0982478
8.0995902
8.099114
8.0984597
8.0983439
8.099127
8.0999583
8.100925
8.1016421
8.1030805
8.103996
8.1054301
8.1063167
8.1072443
8.1086616
8.1108364
8.1128138
8.1156627
8.118336
8.1207644
8.1232498
8.1260521
8.1282869
8.1311563
8.1333251
8.136076
8.1378981
8.1403691
8.1422135
8.1444375
8.1461495
8.1481976
8.1506106
8.1525701
8.1545098
8.1566287
8.1589069
8.16131
8.1633332