/*--------------------------------*- C++ -*----------------------------------*\
| =========                 |                                                 |
| \\      /  F ield         | OpenFOAM: The Open Source CFD Toolbox           |
|  \\    /   O peration     | Version:  v2012                                 |
|   \\  /    A nd           | Website:  www.openfoam.com                      |
|    \\/     M anipulation  |                                                 |
\*---------------------------------------------------------------------------*/
FoamFile
{
    version     2.0;
    format      ascii;
    class       volScalarField;
    location    "300";
    object      p;
}
// * * * * * * * * * * * * * * * * * * * * * * * * * * * * * * * * * * * * * //

dimensions      [0 2 -2 0 0 0 0];


internalField   nonuniform List<scalar> 
229778
(
1.0000374
0.89691678
0.80873367
0.7328192
0.66632111
0.60804772
0.55674378
0.51119784
0.47056847
0.43423916
0.40155226
0.37203864
0.34537772
0.32119718
0.29916993
0.27904184
0.26061109
0.24370696
0.22818155
0.21389627
0.20072832
0.18857108
0.17733259
0.16692901
0.15728495
0.14833402
0.14001595
0.13227487
0.12506553
0.11834186
0.11206724
0.10620304
0.10071687
0.095578605
0.090763079
0.086243697
0.082001828
0.078013983
0.074264132
0.07073293
-0.050586189
-0.052602213
-0.054707639
-0.056908735
-0.059212253
-0.061625631
-0.06415688
-0.066815172
-0.069610726
-0.072555261
-0.075660957
-0.078941713
-0.082412573
-0.086090994
-0.089995537
-0.094147205
-0.098568826
-0.10328563
-0.10832493
-0.11371688
-0.11949471
-0.12569354
-0.13235248
-0.13951248
-0.14721666
-0.15551265
-0.16444813
-0.17407207
-0.18443627
-0.19559232
-0.20759393
-0.22049099
-0.23433002
-0.2491563
-0.26500855
-0.28191793
-0.29990922
-0.31899816
-0.33919096
-0.36048084
-0.38285089
-0.40627284
-0.43070634
-0.45609938
-0.4823886
-0.50950177
-0.53735809
-0.56586816
-0.59493603
-0.62446216
-0.65434244
-0.6844649
-0.71474257
-0.74506485
-0.77530034
-0.80534466
-0.83508764
-0.86442112
-0.89323732
-0.92143
-0.94889424
-0.97552525
-1.001218
-1.0258688
-1.0493772
-1.0716394
-0.36838066
-0.34015091
-0.31322637
-0.28761589
-0.26332052
-0.24033015
-0.21862826
-0.19819213
-0.1789934
-0.16099921
-0.14417265
-0.12847369
-0.11385954
-0.10028558
-0.087705524
-0.076072346
-0.065338442
-0.055456374
-0.046378919
-0.038059679
-0.030453112
-0.023514997
-0.017202393
-0.011474046
-0.0062902119
-0.0016129757
0.0025938945
0.006364694
0.0097319984
0.012726495
0.015377267
0.017711536
0.019754879
0.021531154
0.023062745
0.024370392
0.025473536
0.026390174
0.027137097
0.02772985
0.028182823
0.028509435
0.028721853
0.028832052
0.028852295
0.028793209
0.028651897
0.028437579
0.028171773
0.027853481
0.02790001
0.02822018
0.028488515
0.02870117
0.0288486
0.028922257
0.028913605
0.02881137
0.028606826
0.028288578
0.027844595
0.027261496
0.026524977
0.025619478
0.024528287
0.023233391
0.021715458
0.019953776
0.017926028
0.015608341
0.012975238
0.0099994506
0.0066519516
0.0029020391
-0.001282784
-0.0059368491
-0.011096394
-0.016799496
-0.02308584
-0.029996747
-0.037575199
-0.045865586
-0.054913601
-0.06476594
-0.0754699
-0.087073206
-0.099623667
-0.11316879
-0.12775503
-0.14342733
-0.1602289
-0.17820043
-0.19737897
-0.21779768
-0.23948557
-0.2624662
-0.28675626
-0.31236648
-0.33929486
-0.36753314
-0.36572011
-0.33745854
-0.31051825
-0.28490762
-0.26062738
-0.23766619
-0.21600664
-0.19562391
-0.17648783
-0.15856423
-0.14181543
-0.12619989
-0.11167333
-0.098190132
-0.085703187
-0.074164203
-0.063524777
-0.053736649
-0.044752121
-0.036524056
-0.02900639
-0.022154467
-0.015925079
-0.010276791
-0.0051698766
-0.00056607893
0.0035709122
0.0072754315
0.010579933
0.013515052
0.016109805
0.018391428
0.020385305
0.022115256
0.023603516
0.024870675
0.025935933
0.026817243
0.027531204
0.028093346
0.028517883
0.028818141
0.029006167
0.029093222
0.029089038
0.029004196
0.028846708
0.028623931
0.028344465
0.028012943
0.028195125
0.028543398
0.028840338
0.02908184
0.029260369
0.029368034
0.029396024
0.029334685
0.029174185
0.028903893
0.028511536
0.027984113
0.027307619
0.026466569
0.025444541
0.024223732
0.022785046
0.021108099
0.019170805
0.016949453
0.014418769
0.011551581
0.0083189087
0.0046902643
0.00063321622
-0.0038866202
-0.0089056099
-0.01446212
-0.020596122
-0.027349331
-0.03476533
-0.042889269
-0.051767701
-0.06144833
-0.07197969
-0.08341093
-0.095791463
-0.10917063
-0.1235969
-0.13911747
-0.15577793
-0.17362102
-0.19268614
-0.21300931
-0.23462208
-0.25755053
-0.28181396
-0.30742556
-0.33438641
-0.36268756
-0.38797949
-0.35825531
-0.3298933
-0.3029026
-0.27729143
-0.25305326
-0.23017354
-0.20863027
-0.18839548
-0.16943513
-0.15171085
-0.13518092
-0.11980034
-0.10552158
-0.092295286
-0.08007103
-0.068797898
-0.058425058
-0.048902029
-0.040179057
-0.032207567
-0.024940351
-0.018331532
-0.012336962
-0.0069145121
-0.0020238818
0.0023734619
0.0063139515
0.009832035
0.012960091
0.015728393
0.018165944
0.020299619
0.022154576
0.023754476
0.025121185
0.026274803
0.027234316
0.028017206
0.028639233
0.029115972
0.029461586
0.029688857
0.029809571
0.029833996
0.029771444
0.029631493
0.029422682
0.029153552
0.028830924
0.028458587
0.028807644
0.029212762
0.029569562
0.029874646
0.030122237
0.030304388
0.030412516
0.030437715
0.030370698
0.030201356
0.029918059
0.029507771
0.028957294
0.028251917
0.027375952
0.026311421
0.025039838
0.023541911
0.021796135
0.019778437
0.017464274
0.014827091
0.011838048
0.008466861
0.0046814996
0.00044732398
-0.0042721708
-0.009515817
-0.015324303
-0.021740171
-0.028808386
-0.036575732
-0.045090342
-0.05440201
-0.064562007
-0.075622557
-0.087636377
-0.1006566
-0.11473609
-0.12992685
-0.14627929
-0.16384154
-0.18265876
-0.20277229
-0.22421881
-0.24703011
-0.27123168
-0.29684053
-0.32386575
-0.35230339
-0.38214441
-0.37478232
-0.34479966
-0.31627246
-0.28920784
-0.26360648
-0.23945599
-0.21673537
-0.19541562
-0.17546004
-0.15682796
-0.13947409
-0.1233491
-0.10840089
-0.094575496
-0.081817461
-0.070070867
-0.059279778
-0.04938902
-0.040344214
-0.032092428
-0.024581878
-0.01776343
-0.011589454
-0.0060140912
-0.00099395421
0.003512006
0.0075426308
0.011134181
0.014322034
0.017138217
0.019612437
0.021773085
0.02364602
0.02525633
0.026628176
0.027781695
0.028735728
0.029508845
0.030118764
0.030580238
0.030907626
0.031114107
0.031212451
0.031213626
0.031127492
0.030962852
0.030728322
0.030431962
0.030081925
0.029683653
0.029239153
0.03023786
0.030685758
0.031087932
0.031440559
0.031736508
0.031967884
0.03212646
0.032203621
0.03218939
0.032073062
0.031843031
0.03148652
0.030989588
0.0303381
0.029515199
0.028501673
0.02727996
0.025829643
0.024127209
0.022148574
0.019868161
0.0172579
0.014287951
0.010926334
0.0071382901
0.0028877027
-0.0018645874
-0.0071610184
-0.013045038
-0.019563871
-0.026765685
-0.034701237
-0.043423881
-0.052988978
-0.063453411
-0.074875276
-0.087313817
-0.10082865
-0.11547938
-0.13132437
-0.14842063
-0.1668226
-0.18658039
-0.20773978
-0.23034325
-0.2544247
-0.28000914
-0.30711359
-0.33574173
-0.36588926
-0.35545209
-0.32511945
-0.29638126
-0.26923876
-0.24368371
-0.2196935
-0.19723761
-0.1762761
-0.15675986
-0.1386371
-0.12185118
-0.10634174
-0.092046058
-0.078900561
-0.066840643
-0.05580246
-0.045723016
-0.036540779
-0.028195683
-0.020630102
-0.013788954
-0.0076200926
-0.0020730574
0.0028995502
0.0073424729
0.011297879
0.014805003
0.017900499
0.020618996
0.02299207
0.025049385
0.026817993
0.028323847
0.029590544
0.0306406
0.031493706
0.032167617
0.032679884
0.0330468
0.033282307
0.033400459
0.033413302
0.033331636
0.033165697
0.03292484
0.032617205
0.032250688
0.031832647
0.03136974
0.030865249
0.031564886
0.03213263
0.032662658
0.033153314
0.033598514
0.033990788
0.034323274
0.034588589
0.034777773
0.034880885
0.034887631
0.034786732
0.034565009
0.034208776
0.033702336
0.033029544
0.032173485
0.031114373
0.029829803
0.028297198
0.02649166
0.024386423
0.021952333
0.019158302
0.015969864
0.012350364
0.0082600447
0.003656622
-0.0015052483
-0.0072740076
-0.01370146
-0.02084149
-0.02875139
-0.037491324
-0.047124649
-0.057716856
-0.06933499
-0.082048169
-0.095926456
-0.11103974
-0.12745714
-0.14524646
-0.16447159
-0.18519211
-0.20746473
-0.23133656
-0.25684453
-0.28401814
-0.31287126
-0.3434069
-0.32966482
-0.29891123
-0.26994245
-0.24274984
-0.21731215
-0.19359302
-0.17154715
-0.15111814
-0.13224066
-0.11484612
-0.098861863
-0.084211771
-0.070818973
-0.058606564
-0.047498079
-0.037418711
-0.028296477
-0.020061937
-0.012648011
-0.0059918238
-3.3436394e-05
0.0052832058
0.01001102
0.014199338
0.017893799
0.021137006
0.023968879
0.02642588
0.028542417
0.030349291
0.031874784
0.033145119
0.034184479
0.035014828
0.035657264
0.036130767
0.036451784
0.036635602
0.036696963
0.036648954
0.036504292
0.036273442
0.035965965
0.035591359
0.035157863
0.034672235
0.034141157
0.033571242
0.032967083
0.032329705
0.033869272
0.03455404
0.035210288
0.035834722
0.036421675
0.036964973
0.037458603
0.037894713
0.038264136
0.038558333
0.038768002
0.038881099
0.038884735
0.038765741
0.038510131
0.038101889
0.037522622
0.036752423
0.035770155
0.034552592
0.03307419
0.031307175
0.029221525
0.026783753
0.023957307
0.020702713
0.016977026
0.012734051
0.0079231789
0.0024905377
-0.0036218147
-0.010476041
-0.018138437
-0.026679695
-0.036173846
-0.046698717
-0.05833532
-0.071167254
-0.085279131
-0.10075708
-0.11768686
-0.13615149
-0.15622974
-0.17799757
-0.20152186
-0.22685814
-0.25405208
-0.28313301
-0.31411629
-0.296634
-0.26541305
-0.23622952
-0.20905983
-0.18386441
-0.16058673
-0.1391588
-0.11950126
-0.10152572
-0.085140978
-0.070252095
-0.056762581
-0.044575685
-0.033597722
-0.02373718
-0.014905989
-0.0070202828
-1.0714452e-06
0.0062262743
0.011731501
0.016579008
0.020828414
0.024535431
0.027750904
0.0305217
0.032890286
0.034896179
0.036575407
0.037960444
0.039080858
0.039963593
0.040633142
0.041111543
0.041418772
0.04157376
0.041593656
0.041493935
0.041287546
0.040986671
0.040603091
0.040147514
0.039628615
0.039054532
0.038433328
0.037771909
0.037076043
0.036351534
0.035602718
0.034830955
0.036712371
0.037560282
0.038391686
0.039203079
0.03998945
0.040745953
0.041466736
0.042144546
0.042772149
0.043341546
0.043843
0.044266205
0.044599979
0.044832204
0.044948618
0.044933167
0.04476858
0.044436008
0.043914562
0.043181041
0.042209331
0.040971007
0.039434371
0.037564459
0.035322302
0.032665553
0.029547201
0.025915819
0.02171463
0.016882524
0.011352588
0.005051681
-0.0020988411
-0.01018317
-0.019291518
-0.029519966
-0.040968893
-0.053742325
-0.067948076
-0.083695743
-0.10109368
-0.12024768
-0.14126113
-0.16422872
-0.18923293
-0.21634386
-0.24561314
-0.27707428
-0.25527761
-0.22357962
-0.19425046
-0.16724428
-0.14249426
-0.11991416
-0.09940384
-0.080850455
-0.064133147
-0.049128849
-0.035712832
-0.023761136
-0.013153263
-0.0037737292
0.0044875065
0.011734723
0.018065061
0.023568149
0.028326674
0.032416886
0.035908175
0.038863388
0.0413398
0.043389132
0.045058047
0.046388578
0.047418725
0.048182476
0.048710378
0.049029532
0.049164505
0.049137168
0.048967023
0.048671385
0.048266555
0.047766964
0.047185194
0.046532436
0.045818536
0.045052426
0.044242913
0.043397178
0.042521569
0.041622394
0.040704345
0.039771365
0.038827516
0.037874995
0.039085039
0.04014622
0.041207121
0.042267233
0.043323493
0.044372531
0.045410293
0.046431521
0.04743109
0.048402954
0.049339752
0.050234109
0.05107718
0.051858541
0.052567411
0.053191216
0.053715469
0.054124389
0.054399994
0.054522
0.054467638
0.054211134
0.053723432
0.052972026
0.051920212
0.05052715
0.048746507
0.04652671
0.043810122
0.04053259
0.036622706
0.032001317
0.026581657
0.020268503
0.012957823
0.0045367914
-0.0051151148
-0.016125973
-0.028631089
-0.042771108
-0.05868902
-0.076527668
-0.096429123
-0.11852769
-0.1429449
-0.16978718
-0.19913986
-0.23106358
-0.20423022
-0.17210121
-0.1427751
-0.11617244
-0.092185181
-0.07068221
-0.05151581
-0.034525978
-0.019545838
-0.0064091995
0.0050483268
0.014985631
0.023554264
0.03089622
0.03714372
0.04241831
0.046830923
0.050482226
0.053463256
0.055855451
0.057731681
0.059156637
0.060188011
0.060876553
0.061267787
0.061401124
0.0613116
0.061029908
0.060583193
0.059995318
0.059287203
0.058476998
0.057580729
0.056612359
0.055584752
0.05450868
0.053393328
0.052247192
0.051077888
0.049891512
0.048694031
0.047490178
0.04628426
0.045080344
0.043881313
0.042689536
0.041507117
0.042901245
0.044208469
0.045535507
0.046881704
0.048245459
0.049624923
0.051017174
0.052418852
0.053826467
0.055235869
0.056642356
0.058040078
0.05942232
0.060781532
0.06210855
0.063392775
0.06462239
0.065783574
0.066860172
0.067833695
0.0686827
0.069382412
0.069904329
0.07021554
0.070278354
0.070049242
0.069478695
0.068509846
0.067077915
0.06510903
0.062519683
0.059215665
0.055091366
0.05002871
0.043896688
0.036551148
0.027835466
0.017580899
0.0056071938
-0.0082745298
-0.024257989
-0.042538953
-0.063308529
-0.086746215
-0.11301366
-0.14224729
-0.1745505
-0.14176636
-0.10933346
-0.080277642
-0.054465637
-0.031724916
-0.011855949
0.0053601053
0.020152107
0.032749752
0.043378181
0.052254053
0.059581392
0.065548803
0.070328343
0.074076205
0.076932242
0.07902131
0.08045333
0.081325255
0.081721661
0.081716296
0.081373155
0.080747788
0.079887818
0.078834213
0.07762211
0.076281605
0.074838347
0.073314363
0.071728351
0.070096091
0.068431168
0.06674499
0.065047231
0.063346087
0.061648391
0.059959938
0.058285445
0.056629117
0.054994245
0.053383325
0.051798529
0.050241878
0.048714806
0.047218238
0.045752667
0.044318375
0.045749602
0.047312356
0.048918138
0.050567393
0.052260394
0.053997277
0.055777821
0.057601849
0.059468453
0.061376528
0.063324475
0.065310102
0.067330675
0.069382541
0.07146114
0.073560816
0.075674404
0.077793216
0.079906577
0.082001764
0.084063269
0.0860724
0.08800701
0.089840501
0.091540858
0.093070422
0.094384502
0.095429877
0.096144351
0.096455457
0.096278512
0.09551518
0.094051895
0.091758419
0.088486183
0.08406695
0.078311994
0.07101165
0.061936438
0.050838647
0.037456728
0.021519455
0.0027523757
-0.019110644
-0.044316785
-0.073084232
-0.10558432
-0.065669368
-0.033186897
-0.0048513019
0.019559803
0.040321781
0.057742167
0.072145838
0.083861997
0.093210901
0.10049541
0.10599836
0.10997753
0.11266429
0.11426352
0.11495499
0.11489488
0.11421831
0.11304084
0.11146097
0.10956163
0.10741297
0.10507339
0.10259268
0.10001181
0.097364361
0.094678164
0.091975671
0.089275
0.086591105
0.083935609
0.081317772
0.078745005
0.07622301
0.073756033
0.071347035
0.068998112
0.066710711
0.064485421
0.062322437
0.060221523
0.058182284
0.056203924
0.054285182
0.05242497
0.050622159
0.048875506
0.047184036
0.048613163
0.050432652
0.052319896
0.054276203
0.05630342
0.058404263
0.060580944
0.062836125
0.065172131
0.067591414
0.070095877
0.072687482
0.075367777
0.078137597
0.080997607
0.083947916
0.086987464
0.090113909
0.093323071
0.096609636
0.09996636
0.10338272
0.1068453
0.11033681
0.11383417
0.11730857
0.12072364
0.12403625
0.12719239
0.13012604
0.13275755
0.13499025
0.13670813
0.13777357
0.13802437
0.13727054
0.13529135
0.1318333
0.12660888
0.11929711
0.10954728
0.096981955
0.081206088
0.061821513
0.038444815
0.010725213
-0.021627213
0.027002627
0.059074362
0.085940247
0.10797986
0.12564378
0.13941294
0.14977547
0.15720569
0.16214759
0.16500604
0.16614294
0.16587655
0.16448265
0.16219554
0.15921318
0.15570118
0.15179683
0.14761361
0.14324413
0.13876273
0.13422914
0.12969165
0.12518629
0.12074196
0.11638218
0.11212354
0.10797733
0.10395176
0.10005266
0.096282308
0.09264191
0.08913174
0.085750295
0.082495061
0.079362734
0.07635024
0.073454586
0.070671473
0.067996831
0.065426572
0.062956401
0.060582318
0.058300562
0.056107231
0.053998649
0.051972121
0.053484014
0.055646718
0.057905419
0.060262656
0.062723074
0.06529217
0.067975045
0.070777373
0.073705218
0.076764425
0.079961531
0.083303577
0.086796238
0.090445448
0.094258139
0.098240206
0.10239663
0.10673108
0.11124748
0.11594926
0.12083615
0.12590597
0.13115362
0.13656887
0.14213706
0.1478378
0.15364185
0.15950996
0.16539057
0.17121768
0.17690657
0.18234925
0.18741205
0.19193028
0.19570134
0.19847884
0.19996761
0.19982
0.19763069
0.19293506
0.18521243
0.17389321
0.15837732
0.13805917
0.11235776
0.08077071
0.14034693
0.17117133
0.19529658
0.21339752
0.22622824
0.23455408
0.23911373
0.24058914
0.23958786
0.23663789
0.2321887
0.22661579
0.22022874
0.21328017
0.20597267
0.19846573
0.19088454
0.18332661
0.17586609
0.16855783
0.16144221
0.15454796
0.14789333
0.14148933
0.13534242
0.12945417
0.12382171
0.11844078
0.11330609
0.10840839
0.10373852
0.099288127
0.095048197
0.091008948
0.087160264
0.083493035
0.079998432
0.076667226
0.073490644
0.070460585
0.067569348
0.06480967
0.062174969
0.059658168
0.057253346
0.058808654
0.061354855
0.064026391
0.066829927
0.069774699
0.072868262
0.07611939
0.079538267
0.083134653
0.08691992
0.090905135
0.095101883
0.099523165
0.10418316
0.10909518
0.11427241
0.11972761
0.12547519
0.1315309
0.13790689
0.14461464
0.15166559
0.15906668
0.1668223
0.17493264
0.18339123
0.19218256
0.20128043
0.21064483
0.22021738
0.22991552
0.2396276
0.24920515
0.25845338
0.26712184
0.27489291
0.28136881
0.28605964
0.28837247
0.28760426
0.28294102
0.27347574
0.25823944
0.23624386
0.20656811
0.28047226
0.30845403
0.3275701
0.33909394
0.34433139
0.34450781
0.34073245
0.33397112
0.32502697
0.31455447
0.30307584
0.29100032
0.2786434
0.26624369
0.2539783
0.24197608
0.23032735
0.21909378
0.20831396
0.19800914
0.18818869
0.17885214
0.16999166
0.16159416
0.15364398
0.14612395
0.13901314
0.13229233
0.12594262
0.11994167
0.11426898
0.10890697
0.10383752
0.099043322
0.094507381
0.090214047
0.086148278
0.082296281
0.078644402
0.075180609
0.071892739
0.068769717
0.065802698
0.062981635
0.060299692
0.061719455
0.064530072
0.067492272
0.070614467
0.073907449
0.077381548
0.081049405
0.084924865
0.089022302
0.093357393
0.097946294
0.10280721
0.10795906
0.11342233
0.11921854
0.12537063
0.13190084
0.1388361
0.14620541
0.15403439
0.16235139
0.17118713
0.18056961
0.19052705
0.20108769
0.21227501
0.22410648
0.23659397
0.24973977
0.26353058
0.27793179
0.29288222
0.30828313
0.32398692
0.33978044
0.35536664
0.37034091
0.38416393
0.39613235
0.40534493
0.41066692
0.41076226
0.40406845
0.38887233
0.47881614
0.48864464
0.48900059
0.48220348
0.47013289
0.45442689
0.43638817
0.41700016
0.39699194
0.37689387
0.35708155
0.33781223
0.31925521
0.3015138
0.28464507
0.26867165
0.25359327
0.23939198
0.22603922
0.21349895
0.20173253
0.19069882
0.18035459
0.17065773
0.16156777
0.15304459
0.14505119
0.13755349
0.13051548
0.12390475
0.11769333
0.11185426
0.10636203
0.10119264
0.096323432
0.091733283
0.087403855
0.083317955
0.079458226
0.075808948
0.072355442
0.069087109
0.065991803
0.063059768
0.064312816
0.067357692
0.070577103
0.073981192
0.077583409
0.081396117
0.08543471
0.089717149
0.094263805
0.09909283
0.10422445
0.10968296
0.11549521
0.12168788
0.12829021
0.13533407
0.14285221
0.1508831
0.15946967
0.16865404
0.17848261
0.18900555
0.20027557
0.21234949
0.22528622
0.23914667
0.25399304
0.26988722
0.28688902
0.30505268
0.32442081
0.34501824
0.36684266
0.38985175
0.41394253
0.43892619
0.46449102
0.49015433
0.51520507
0.53861495
0.55892363
0.57422015
0.64082944
0.61048015
0.57797253
0.54487919
0.5122036
0.48057159
0.45036252
0.42178007
0.39490913
0.36975929
0.34629223
0.32444082
0.30412127
0.28524181
0.26770684
0.25142232
0.23629758
0.22224612
0.20918619
0.19704185
0.18574151
0.17521938
0.16541553
0.15627488
0.14774688
0.13978237
0.13233691
0.12537268
0.1188531
0.11274547
0.10701897
0.10164468
0.096596155
0.091850633
0.08738663
0.08318267
0.079220246
0.075482255
0.071954269
0.068621159
0.065472364
0.066530867
0.06977232
0.073206739
0.076845815
0.080705958
0.084802312
0.089153962
0.093781108
0.098705892
0.10395154
0.10954385
0.11551183
0.12188641
0.12870147
0.13599355
0.14380355
0.15217368
0.1611541
0.17080017
0.18116987
0.19232726
0.20434257
0.21729386
0.23126681
0.24635503
0.26266067
0.28029535
0.29938016
0.3200461
0.34243298
0.36668677
0.39295768
0.42139318
0.45212958
0.48527592
0.52088745
0.55892108
0.59917315
0.64120364
0.68416448
0.72648558
0.75851092
0.70357488
0.65169543
0.60335805
0.55868996
0.517626
0.4799777
0.44550144
0.41393868
0.38503393
0.35854813
0.33425886
0.31196171
0.29147094
0.27261839
0.25525284
0.2392378
0.22445117
0.21078311
0.19813411
0.1864143
0.17554456
0.16545287
0.15607407
0.14734738
0.13921792
0.13163828
0.12456426
0.11795594
0.11177664
0.1059936
0.10057565
0.095494091
0.090724952
0.086244804
0.082032014
0.078065467
0.074329799
0.070807075
0.067485052
0.06831826
0.071706373
0.075300991
0.079115953
0.083170068
0.087478893
0.092065244
0.096951599
0.10216213
0.10772248
0.11366365
0.12001668
0.12681807
0.13410665
0.14192523
0.15032084
0.15934469
0.16905573
0.17952018
0.19080833
0.20299973
0.21618214
0.23045635
0.24593296
0.26273769
0.28101036
0.3009103
0.32261711
0.34633556
0.37229546
0.40075258
0.43200303
0.46638688
0.50427496
0.54607826
0.59223866
0.6432013
0.69936498
0.76103269
0.82832916
0.8911484
0.81105133
0.73969968
0.67617611
0.61959453
0.56905718
0.52377999
0.48309367
0.44642522
0.4132946
0.3832671
0.3559778
0.33113212
0.30846654
0.28774276
0.26875601
0.25132856
0.23530698
0.22055373
0.20694905
0.19438432
0.18276537
0.17200599
0.16203164
0.15277227
0.14416607
0.13615789
0.12869868
0.12174333
0.11525147
0.10918486
0.10351072
0.09819726
0.093217658
0.088546253
0.084160356
0.080037153
0.076158883
0.072507069
0.069066284
0.069695708
0.073174355
0.076866855
0.080790934
0.084963923
0.089405905
0.094138907
0.099185809
0.10457327
0.11032855
0.11648478
0.1230766
0.13014276
0.13772444
0.14586828
0.15462489
0.16405366
0.17421736
0.18518902
0.19704655
0.20988079
0.22379045
0.23889118
0.2553106
0.27319434
0.29270722
0.31404354
0.33742903
0.36312977
0.39144082
0.4227034
0.45733129
0.49582535
0.53877706
0.58690581
0.64107486
0.70231671
0.77181249
0.85087562
0.94144734
-0.91441217
-0.89977574
-0.88425464
-0.86791592
-0.85082793
-0.83306092
-0.81468568
-0.79577317
-0.77639422
-0.7566188
-0.73651592
-0.71615345
-0.69559727
-0.674912
-0.65415804
-0.63339957
-0.61269898
-0.59210226
-0.57165604
-0.55140985
-0.53140765
-0.51169051
-0.49229586
-0.4732577
-0.45460633
-0.4363687
-0.41856879
-0.40122685
-0.38435948
-0.36798051
-0.35210097
-0.33672857
-0.32186818
-0.30752241
-0.29369156
-0.28037372
-0.26756491
-0.25525946
-0.24344987
-0.23212733
-0.22128191
-0.21090254
-0.20097721
-0.19149281
-0.18243584
-0.17379233
-0.16554807
-0.15768915
-0.15020141
-0.14307022
-0.13628113
-0.12981984
-0.1236722
-0.11782452
-0.11226324
-0.10697516
-0.10194749
-0.097167745
-0.092623919
-0.088304335
-0.084198097
-0.08029495
0.024780063
0.02520129
0.025588038
0.025939932
0.026257892
0.026540985
0.026790205
0.027001806
0.027174825
0.02730689
0.02740105
0.027824591
0.027767471
0.027669685
0.027533604
0.027355723
0.027138183
0.026882497
0.026591755
0.026264787
0.025903224
0.025506624
0.025075059
0.024606659
0.024101136
0.023559656
0.022983195
0.021180636
0.021880688
0.022544963
0.023171821
0.023762831
0.024318052
0.024836868
0.025317821
0.025761355
0.026168586
0.026540457
0.02687608
0.02717506
0.027437266
0.027660526
0.027843025
0.027982349
0.028082334
0.028140498
0.028403805
0.02834497
0.02824253
0.028099728
0.02791246
0.027683362
0.027414208
0.027107149
0.026762646
0.026380359
0.025961705
0.025505606
0.025011358
0.024478601
0.023908598
0.023301888
0.022658818
0.021977762
0.021260018
0.020506197
0.019714193
0.018841337
0.019689342
0.020501035
0.021273815
0.022010458
0.022709356
0.023369926
0.023992905
0.024578212
0.025125091
0.025632914
0.026101586
0.026532213
0.026924317
0.027278213
0.027593451
0.02786985
0.028105061
0.02829724
0.028443924
0.028549303
0.028610578
0.028750526
0.028686513
0.02857884
0.028428106
0.028230892
0.027989331
0.027705538
0.027381767
0.027018542
0.026616383
0.026173713
0.025692232
0.025171084
0.024609823
0.024008908
0.023369309
0.022690798
0.021973675
0.021217775
0.020424829
0.019593281
0.018725991
-0.0081827023
-0.0066069568
-0.0050541089
-0.0035298282
-0.0020325759
-0.00056400193
0.00087511117
0.0022849557
0.0036641699
0.0050117604
0.0063271249
0.0076105654
0.0088601209
0.010075592
0.011257079
0.012403354
0.01351504
0.01459107
0.015631705
0.016634793
0.017601509
0.018528584
0.019417647
0.02027029
0.021084154
0.021859623
0.022595672
0.023292281
0.023948856
0.024565512
0.025141399
0.025676133
0.026170855
0.02662484
0.027037671
0.027410547
0.027743039
0.028034226
0.028282288
0.028484801
0.028639728
0.028749429
0.028815904
0.028798527
0.028729885
0.028617568
0.028458648
0.028250739
0.027996107
0.02769724
0.02735595
0.026973141
0.026549514
0.02608398
0.025575922
0.025027024
0.024436177
0.023803403
0.023129627
0.022414755
0.021659603
0.020864107
0.020029002
0.019154206
0.018241473
0.017289829
0.016298723
0.015269496
0.014202039
0.013098501
0.01195763
0.010781429
0.0095687682
0.0083211706
0.0070383937
0.0057207549
0.0043701332
0.0029859683
0.0015694672
0.00012089917
-0.0013581302
-0.0028677858
-0.0044064049
-0.0059743156
-0.0075703099
-0.0091916624
-0.01083935
-0.012513893
-0.014208971
-0.015927963
-0.017666485
-0.019424918
-0.021200195
-0.022990047
-0.052500907
-0.05072246
-0.048915973
-0.047087042
-0.045238046
-0.043373815
-0.041497922
-0.039610995
-0.037719991
-0.035825062
-0.033929237
-0.032034176
-0.030143887
-0.028260174
-0.026387767
-0.024527465
-0.022680063
-0.020849219
-0.019036209
-0.01724454
-0.015473844
-0.013728603
-0.012005031
-0.010309265
-0.008640796
-0.0070003062
-0.0053884127
-0.0038073549
-0.0022566195
-0.00073718965
0.00075046371
0.0022047944
0.0036256881
0.0050120971
0.0063642417
0.007680597
0.0089607646
0.010205142
0.011412056
0.012582027
0.013713713
0.014808016
0.015863728
0.016880267
0.017856878
0.018793749
0.019691034
0.020547687
0.021363647
0.022138258
0.022871516
0.02356279
0.024212134
0.024818584
0.02538218
0.025902982
0.026380682
0.026815316
0.027208054
0.027558256
0.027865037
0.028126327
0.028339575
0.028502516
0.028617674
0.028688117
0.028474847
0.02840247
0.028284356
0.028117126
0.027898594
0.027630447
0.0273157
0.026956349
0.026553589
0.026107552
0.025617718
0.025083865
0.02450549
0.023882974
0.023216908
0.022507705
0.021755894
0.020961334
0.020124667
0.019246037
0.018326037
0.017364841
0.01636319
0.015320675
0.014238305
0.013116592
0.011956454
0.010756997
0.0095190955
0.0082427925
0.0069297684
0.0055795162
0.0041924118
0.0027698054
0.0013121015
-0.00018060119
-0.0017074744
-0.0032677282
-0.0048600079
-0.0064844545
-0.0081401894
-0.0098266411
-0.011542136
-0.013286676
-0.015059144
-0.016855794
-0.018678888
-0.020524885
-0.022393354
-0.024281204
-0.026187149
-0.02810821
-0.030042822
-0.031989336
-0.033943864
-0.035905068
-0.03786714
-0.039829766
-0.041789672
-0.043746334
-0.045693515
-0.047630042
-0.049549381
-0.05145002
-0.053327074
-0.05517668
-0.056992309
-0.058771891
-0.060512079
-0.062208103
-0.063855137
-0.065448406
-0.066983916
-0.068455417
-0.069860685
-0.071195592
-0.072454079
-0.073630951
-0.074725968
-0.075733305
-0.076652397
-0.077480113
-0.078212861
-0.078841582
-0.07935851
-0.079756738
-0.080040572
-0.080214117
-0.084113941
-0.083932753
-0.083636639
-0.083220766
-0.08268107
-0.082024587
-0.081259651
-0.080395404
-0.079435816
-0.078384113
-0.077241562
-0.076012581
-0.074699541
-0.073307056
-0.071841855
-0.070307091
-0.068706786
-0.067045929
-0.065330203
-0.063563395
-0.061751737
-0.059898587
-0.058009059
-0.056085672
-0.054136031
-0.052161348
-0.05016859
-0.048159218
-0.046139462
-0.044111203
-0.042080019
-0.040048374
-0.038018036
-0.035990052
-0.033969702
-0.031959192
-0.029961168
-0.027978728
-0.026012879
-0.024067229
-0.022141985
-0.020241212
-0.018364618
-0.016516007
-0.014693554
-0.012899754
-0.011137193
-0.0094042426
-0.0077044128
-0.0060361242
-0.0044020824
-0.0028008015
-0.0012344338
0.00029688786
0.0017917096
0.0032506203
0.0046731127
0.0060576362
0.0074039255
0.008712035
0.0099809268
0.011210405
0.012399773
0.013549514
0.01465871
0.015727717
0.016754484
0.017740286
0.018683309
0.019584373
0.020442005
0.021256871
0.022027523
0.022754978
0.023437749
0.024076375
0.024669551
0.025217279
0.025719528
0.026177211
0.026590154
0.026958912
0.027281648
0.027556806
0.027780663
0.027952381
0.028073208
0.028147362
0.027693411
0.027617402
0.027493633
0.027317583
0.027088019
0.026805905
0.026474839
0.026096742
0.02567314
0.025203775
0.024688592
0.024126744
0.023518626
0.02286392
0.022163996
0.021418244
0.020628225
0.019792902
0.018913804
0.017990173
0.017023602
0.016013139
0.014960783
0.01386523
0.012728622
0.011550494
0.010331616
0.0090716535
0.0077716619
0.006431387
0.0050514792
0.0036325097
0.0021744096
0.00067909985
-0.00085327588
-0.002423344
-0.004029648
-0.0056718519
-0.0073483986
-0.0090607017
-0.010805254
-0.012584957
-0.014395091
-0.016238818
-0.018111374
-0.020012783
-0.021943269
-0.023899625
-0.025882266
-0.027886776
-0.029913189
-0.031958165
-0.034020145
-0.036096105
-0.038183252
-0.040279899
-0.042379437
-0.044481904
-0.046586097
-0.048687775
-0.05078174
-0.052865621
-0.054934195
-0.056984365
-0.059009958
-0.061008987
-0.062974126
-0.064902889
-0.066788408
-0.068628291
-0.070415
-0.072145564
-0.073813006
-0.075413319
-0.076940347
-0.078392575
-0.07976242
-0.081044875
-0.082236461
-0.083334362
-0.084335528
-0.085238018
-0.086035921
-0.086721582
-0.087284426
-0.087718933
-0.088027408
-0.088216765
-0.092532717
-0.092335184
-0.092013672
-0.091560249
-0.090973217
-0.090257739
-0.08942544
-0.08848374
-0.087439288
-0.086293891
-0.085051282
-0.083714012
-0.082285584
-0.080771705
-0.079180449
-0.077512535
-0.075775563
-0.073973332
-0.07211317
-0.070198275
-0.068236387
-0.066230427
-0.064187349
-0.062110946
-0.060006697
-0.057879136
-0.055732725
-0.053572162
-0.05140259
-0.049225993
-0.047047236
-0.044872349
-0.042701372
-0.040535233
-0.038379799
-0.036237533
-0.034110427
-0.032002444
-0.029914342
-0.027850603
-0.02580955
-0.023797193
-0.021811839
-0.019857617
-0.017933919
-0.016040657
-0.014181867
-0.012355816
-0.010565575
-0.0088097627
-0.0070900348
-0.0054067644
-0.0037600361
-0.0021511232
-0.00058076119
0.00095103205
0.0024448462
0.0038983483
0.0053120866