/*--------------------------------*- C++ -*----------------------------------*\
| =========                 |                                                 |
| \\      /  F ield         | OpenFOAM: The Open Source CFD Toolbox           |
|  \\    /   O peration     | Version:  v2012                                 |
|   \\  /    A nd           | Website:  www.openfoam.com                      |
|    \\/     M anipulation  |                                                 |
\*---------------------------------------------------------------------------*/
FoamFile
{
    version     2.0;
    format      ascii;
    class       volScalarField;
    location    "100";
    object      k;
}
// * * * * * * * * * * * * * * * * * * * * * * * * * * * * * * * * * * * * * //

dimensions      [0 2 -2 0 0 0 0];


internalField   nonuniform List<scalar> 
14948
(
0.24244854
0.23503448
0.22974729
0.22319162
0.21675428
0.20946155
0.20342536
0.1977606
0.19201658
0.18635904
0.18073926
0.17526
0.1697701
0.16457628
0.15985186
0.15738759
0.15976373
0.15644166
0.15175581
0.14630992
0.14048589
0.13761895
0.13242967
0.12683016
0.12336116
0.11965
0.11588303
0.11204491
0.10833228
0.10462284
0.10122599
0.098466238
0.098480779
0.10366722
0.10497763
0.10307978
0.10182856
0.10550731
0.12254119
0.12179078
0.11828457
0.11422418
0.1100393
0.25787245
0.26089337
0.26375311
0.26646747
0.26905476
0.27152969
0.27390197
0.27618522
0.27840221
0.28057686
0.28272944
0.28488201
0.28705245
0.28925495
0.29150019
0.23808191
0.23843696
0.24143021
0.24248806
0.24868951
0.24953845
0.25566045
0.25644547
0.26307571
0.26421857
0.27483396
0.27596238
0.28182406
0.28215668
0.28221216
0.28226827
0.28970875
0.28763375
0.28554356
0.28342146
0.28125318
0.27902684
0.27673305
0.27436334
0.27190948
0.26936115
0.26670477
0.26703456
0.26973277
0.27231568
0.27479937
0.27719377
0.27950737
0.28174806
0.28392563
0.28605217
0.28814269
0.29021479
0.29137621
0.28931971
0.28723997
0.28511965
0.28294373
0.28069983
0.27837937
0.27597716
0.27348479
0.27089369
0.26819016
0.27011957
0.27286116
0.27548761
0.27801106
0.28043974
0.28278167
0.28503828
0.28721904
0.28933654
0.2914054
0.29344358
0.29676133
0.29473499
0.29266671
0.29053825
0.28833395
0.28604145
0.28365425
0.28117271
0.27859166
0.27590725
0.27310608
0.27690779
0.27987571
0.28272185
0.28545484
0.28807779
0.2905911
0.29298925
0.29527748
0.29747007
0.2995858
0.30164521
0.30816534
0.30596878
0.30370269
0.30134426
0.29887138
0.29626037
0.29350716
0.29062767
0.28762834
0.28451351
0.28127329
0.28470681
0.28841791
0.29200682
0.29547636
0.29881669
0.30200848
0.30501699
0.30784886
0.31055062
0.31315441
0.31569187
0.32230736
0.31912016
0.31590025
0.31260551
0.3091799
0.30555004
0.3017012
0.29769682
0.29357082
0.28934374
0.28501457
0.27730361
0.28240126
0.28744978
0.29244685
0.29737329
0.30216556
0.30668045
0.31128112
0.31550234
0.31963747
0.32379693
0.33322014
0.32748908
0.32175089
0.3160951
0.3108695
0.30583594
0.30073561
0.29513642
0.28872709
0.28330022
0.27786139
0.27229847
0.26667188
0.26103563
0.25540903
0.21130178
0.21661004
0.221809
0.22667423
0.23103351
0.2352
0.22272145
0.2009317
0.19832854
0.17916534
0.13589657
0.13023193
0.13275805
0.13402752
0.13468061
0.11762818
0.11662956
0.11859505
0.12055087
0.123913
0.12643369
0.12984095
0.1318974
0.13449299
0.1303208
0.13592614
0.15031212
0.15537915
0.13899244
0.14345647
0.18245229
0.18350727
0.18969637
0.19283954
0.17684732
0.17775622
0.1814069
0.18506151
0.1900527
0.19432483
0.19951992
0.20377494
0.20879942
0.21199955
0.21299967
0.22033319
0.2374565
0.23533695
0.24216811
0.23264784
0.23812079
0.26626681
0.2882728
0.28588188
0.28352013
0.28118083
0.27885551
0.27653451
0.2742065
0.27185922
0.26947891
0.26705115
0.26456022
0.26199186
0.25932772
0.25655184
0.25364234
0.25332452
0.25332113
0.25353426
0.25383204
0.25416478
0.25450036
0.25487134
0.25528483
0.25569775
0.25610707
0.25649396
0.25682613
0.26237867
0.26217606
0.26193229
0.26172782
0.26148272
0.26125327
0.26102265
0.26081536
0.26059475
0.26037304
0.26012113
0.25983892
0.25949744
0.25910215
0.25868937
0.25826025
0.25783681
0.25746069
0.25712265
0.2567982
0.25651417
0.25631044
0.25630338
0.25913556
0.25915471
0.25934718
0.2596206
0.25993574
0.26027856
0.26066271
0.26108849
0.26153104
0.26194686
0.26234766
0.2626972
0.26298867
0.26325039
0.26347972
0.26369797
0.2639022
0.26413699
0.26436842
0.26460726
0.26481614
0.26505641
0.26526902
0.2654926
0.26571622
0.26589122
0.26604346
0.26616904
0.26630015
0.26645173
0.26915504
0.26902737
0.26890885
0.26877899
0.268626
0.26845249
0.26823584
0.26801218
0.26779415
0.26755807
0.26734389
0.26710997
0.26687753
0.26664418
0.26643722
0.26622092
0.26598494
0.26572082
0.26542279
0.26506859
0.26466729
0.2642417
0.26379602
0.26336659
0.26297545
0.26263367
0.26232436
0.26206372
0.26188211
0.2618468
0.2644527
0.26450527
0.26468026
0.26492729
0.26523188
0.26556941
0.26596482
0.26639672
0.26684226
0.26727557
0.26767925
0.26803344
0.26833663
0.26859932
0.26884076
0.26905602
0.26926758
0.26949723
0.26973047
0.26995983
0.27017813
0.27041101
0.27063167
0.27085349
0.27106356
0.27123684
0.27139378
0.27152505
0.27163274
0.27174395
0.27422968
0.27413306
0.27403035
0.27389852
0.27374361
0.27356736
0.27335997
0.27314256
0.27292021
0.27269053
0.27246829
0.27223992
0.27200843
0.27178194
0.27156685
0.27134939
0.27110642
0.27084596
0.27054021
0.27018562
0.26978505
0.26934764
0.26890243
0.26847334
0.26807909
0.26774423
0.26744627
0.26720896
0.26704068
0.26697896
0.26943358
0.26950322
0.2696655
0.26989383
0.27018331
0.27051684
0.27090775
0.27133187
0.27177283
0.27221056
0.27260537
0.27295707
0.27326323
0.27352049
0.27376237
0.27398206
0.27420082
0.27442455
0.2746533
0.27488199
0.2751071
0.27533457
0.27555798
0.27577116
0.27597561
0.27615548
0.27630855
0.27643995
0.27654013
0.27662696
0.278942
0.27886398
0.27876582
0.27863581
0.27848124
0.27830192
0.27810005
0.27788734
0.2776648
0.27743947
0.27721253
0.27698409
0.2767585
0.27653436
0.27631597
0.27609412
0.27585539
0.27559967
0.27529924
0.27495371
0.27456485
0.27413481
0.27370178
0.27328425
0.27289847
0.27256736
0.27228638
0.27206608
0.27191007
0.27183608
0.27419961
0.27427696
0.27442749
0.27464044
0.27491346
0.27523897
0.27561561
0.27602539
0.27644736
0.27686429
0.27724248
0.27757823
0.27787016
0.27812233
0.27835673
0.27857957
0.27879639
0.27902094
0.27924411
0.27947151
0.27969915
0.27992235
0.28014294
0.28035583
0.28055469
0.28073334
0.28088904
0.28101758
0.28111417
0.28118591
0.28336724
0.28330122
0.28320603
0.28307833
0.28292382
0.28274549
0.28254903
0.28233861
0.28212025
0.2818977
0.28167122
0.28144605
0.28122367
0.28100131
0.2807852
0.28056485
0.28033538
0.28008881
0.27980816
0.27948605
0.27912277
0.27872317
0.27831516
0.2779179
0.27755225
0.27723433
0.27696883
0.27676292
0.27661765
0.27654007
0.27886971
0.27894713
0.2790868
0.27928579
0.27954292
0.27985192
0.28020458
0.28058645
0.28097684
0.28135565
0.28169983
0.28200516
0.28227192
0.28251077
0.28273373
0.2829502
0.28316417
0.28338343
0.28360413
0.28382663
0.28405059
0.28427207
0.28448745
0.28469509
0.28488842
0.28506555
0.28521794
0.28534454
0.28543788
0.28549966
0.28759735
0.2875393
0.2874485
0.28732384
0.28717354
0.28699968
0.28680988
0.28660565
0.28639367
0.28617537
0.28595498
0.28573566
0.28551787
0.28530286
0.28509248
0.2848813
0.28466607
0.284438
0.28418622
0.28390061
0.28357846
0.28322311
0.28285295
0.28248855
0.28215019
0.28185163
0.28160376
0.28141156
0.28127728
0.28120127
0.28354444
0.28361867
0.28374756
0.28393259
0.28417095
0.28445817
0.28478177
0.28512763
0.28547612
0.28580695
0.28610562
0.28637034
0.28660598
0.28682182
0.28702819
0.28723251
0.28743761
0.28764726
0.28786061
0.28807551
0.28829145
0.288505
0.2887125
0.28891211
0.28909737
0.28926656
0.28941343
0.28953522
0.2896233
0.28967844
0.28899781
0.28879464
0.28857527
0.28833115
0.2880558
0.28774893
0.28742173
0.28709407
0.28678507
0.28650985
0.28628085
0.28610345
0.28598017
0.28590849
0.28830034
0.28836907
0.28848655
0.2886561
0.28887564
0.2891391
0.28943433
0.2897453
0.29005318
0.29033843
0.29059253
0.29081753
0.29017765
0.28810152
0.28600535
0.28387157
0.28168477
0.27943212
0.27710404
0.27469333
0.2721904
0.26958493
0.26686221
0.12068028
0.12535505
0.1299222
0.13398366
0.13576365
0.13315755
0.12845118
0.13000391
0.12757267
0.12340734
0.12263771
0.12491092
0.12800205
0.1313603
0.13485464
0.13848258
0.14212176
0.14584971
0.14926385
0.15303561
0.15804163
0.15957243
0.1625091
0.16352724
0.16618072
0.16706756
0.16849005
0.16870738
0.16891959
0.16921404
0.1701802
0.17068017
0.17232572
0.17346812
0.1762172
0.17741272
0.17993389
0.18127846
0.18374065
0.18501855
0.18783873
0.18931627
0.19186162
0.19347011
0.19705302
0.19948766
0.20433553
0.20756194
0.21357171
0.21715613
0.22260685
0.2255085
0.22923825
0.23070828
0.23137063
0.23134717
0.23096182
0.23092553
0.2310244
0.23106037
0.23118479
0.23116718
0.23078228
0.23038445
0.22983363
0.22948075
0.22889576
0.22858322
0.22857725
0.22860377
0.22846648
0.22824874
0.2279358
0.22771936
0.22712387
0.2266915
0.22605477
0.22580483
0.22520039
0.22491619
0.2248214
0.22534016
0.22689061
0.22908893
0.23415519
0.23665017
0.2386847
0.23909196
0.23846619
0.2363171
0.23207135
0.2268488
0.21616748
0.2123703
0.21214749
0.19350598
0.17461031
0.16630786
0.159337
0.16442561
0.18697829
0.20492865
0.1990674
0.20958891
0.22010529
0.22526821
0.22920409
0.23136177
0.23206292
0.23161623
0.22982367
0.22724522
0.22278938
0.22054067
0.21912312
0.21857256
0.21869703
0.21895776
0.21950072
0.21972309
0.22034812
0.22078264
0.22133193
0.22153811
0.2217481
0.22197718
0.22202995
0.22201293
0.22197813
0.22233407
0.22282842
0.22319795
0.22366413
0.22414098
0.2244636
0.22447658
0.22437852
0.22428897
0.22422823
0.22422908
0.224512
0.22453293
0.22384101
0.22225098
0.218842
0.21578989
0.21084595
0.20711958
0.201609
0.19824285
0.19386192
0.19133026
0.18802841
0.18640863
0.18414687
0.18260383
0.1799755
0.17866562
0.17638162
0.17500259
0.17269334
0.17140202
0.16892571
0.16777196
0.16629754
0.16577881
0.16488033
0.16459998
0.16439628
0.16412272
0.16291942
0.16195411
0.15960104
0.15851191
0.1558904
0.15418805
0.15094749
0.14737412
0.14382022
0.14026741
0.13679356
0.13326162
0.12957921
0.12710209
0.12659537
0.13368691
0.11966294
0.11868372
0.12234484
0.12641308
0.12878749
0.12957191
0.13166818
0.13177413
0.13285156
0.13185381
0.13313541
0.13243501
0.13421994
0.13364368
0.13546132
0.13545735
0.13787971
0.13801621
0.14029261
0.14070657
0.14325771
0.14349147
0.14623949
0.1465228
0.14885759
0.14914622
0.15222495
0.15345682
0.15734724
0.15925615
0.16366442
0.16589526
0.17015216
0.17187095
0.17516997
0.17581998
0.17766244
0.17706658
0.17831807
0.17756238
0.17850031
0.17761954
0.17858458
0.17762163
0.17838989
0.17707036
0.17754763
0.1761311
0.17670926
0.17548987
0.17660272
0.17606106
0.17711223
0.17599146
0.17676043
0.17586109
0.1766194
0.1754201
0.17587606
0.17478362
0.1753499
0.17407329
0.17480309
0.17423962
0.17638449
0.1772768
0.18068216
0.18161192
0.18316253
0.18213009
0.1815708
0.17845344
0.17563174
0.16927887
0.16216108
0.1511389
0.1380733
0.12063972
0.10600449
0.10069771
0.095477986
0.099503486
0.11604854
0.13276073
0.14573162
0.15632745
0.16351953
0.16958778
0.17269511
0.17556887
0.17636661
0.17722951
0.17605145
0.17501376
0.1719643
0.17091356
0.16917723
0.16955367
0.16896698
0.1699939
0.16972881
0.1705074
0.17031286
0.17126854
0.17069731
0.17134775
0.17079263
0.17168288
0.17082748
0.17104951
0.17023807
0.17122381
0.17085755
0.17198568
0.17176053
0.17286472
0.17235637
0.17303528
0.17226831
0.17289223
0.17215937
0.17271433
0.17168969
0.17205531
0.17044484
0.16952293
0.16658138
0.16472052
0.16086094
0.1585745
0.15453657
0.15250859
0.14904165
0.14764805
0.14486508
0.14444244
0.14242732
0.14194857
0.13955871
0.13913367
0.13692835
0.13629853
0.13437601
0.13403971
0.13188676
0.13170831
0.13017676
0.13052213
0.12899048
0.12948248
0.12844348
0.12928772
0.12839081
0.12821012
0.12626306
0.125253
0.12137495
0.12183507
0.13430125
0.12338947
0.12269088
0.12458567
0.12522705
0.13671395
0.1255581
0.12487522
0.12563551
0.12628386
0.13739437
0.12560754
0.1249273
0.1258051
0.12637452
0.13787404
0.12622531
0.12550585
0.12686989
0.12750681
0.13912035
0.12747153
0.12669097
0.12800152
0.12864356
0.14057851
0.12900435
0.12827069
0.13018456
0.13080793
0.14298787
0.13143257
0.13074062
0.13245937
0.13315163
0.14553964
0.13388297
0.13313175
0.13514799
0.1357349
0.14823313
0.13647804
0.13578515
0.13790752
0.13845299
0.1512161
0.13915589
0.13852998
0.140305
0.14085455
0.15389818
0.1414883
0.14087941
0.14335546
0.14391667
0.1578153
0.145405
0.14481851
0.14796635
0.14843553
0.16278143
0.15054435
0.15009464
0.15384787
0.15417507
0.16877111
0.15650276
0.15625989
0.15984871
0.15996554
0.17446694
0.16195614
0.16184302
0.16459525
0.16473787
0.17899381
0.16573746
0.16562394
0.16706844
0.16719985
0.18145324
0.16723023
0.16700128
0.16790898
0.16812998
0.1826159
0.16790517
0.1676052
0.16808251
0.16838657
0.1829675
0.16792011
0.16748794
0.16805623
0.16842728
0.18333004
0.16807039
0.16762618
0.16796594
0.16831628
0.18306762
0.1675684
0.1670996
0.16713344
0.16749461
0.18225856
0.16662579
0.16618117
0.16633354
0.16670539
0.18172988
0.16606638
0.16556132
0.16624305
0.16675234
0.18196926
0.16666682
0.16613641
0.16684916
0.1672999
0.18219637
0.16669494
0.16620154
0.16658769
0.16701809
0.18213412
0.16663942
0.16609374
0.1664235
0.16691115
0.18192438
0.16632525
0.16568257
0.16584411
0.16653973
0.18168634
0.16598273
0.16523399
0.1652438
0.16589313
0.18098862
0.16511647
0.16435845
0.16473337
0.16536539
0.1808787
0.1652066
0.16449576
0.16602464
0.16665034
0.18273656
0.16780338
0.16724656
0.16994956
0.17027768
0.18607238
0.17148452
0.17108736
0.17196195
0.17223619
0.18677035
0.17155615
0.17119011
0.17013698
0.17022428
0.18330902
0.16750643
0.16735964
0.16396502
0.16384556
0.17477422
0.15824103
0.15814551
0.1507988
0.15038662
0.15714995
0.14007339
0.14056562
0.12784687
0.12642334
0.12272896
0.1106268
0.11161073
0.095342193
0.090287777
0.096980427
0.090572391
0.082639299
0.084330964
0.083102978
0.080296291
0.091248169
0.089393269
0.08924085
0.086902965
0.087815272
0.13336282
0.16711829
0.18684955
0.19696961
0.20085407
0.20005607
0.19705429
0.19530348
0.1953412
0.19595964
0.19617837
0.19639547
0.19648465
0.19629203
0.19609703
0.19656343
0.19684703
0.19605941
0.19466932
0.19328321
0.19129213
0.1880819
0.18292282
0.17671613
0.17021303
0.1647557
0.16025015
0.15701086
0.15353874
0.15041432
0.14749229
0.14481374
0.14310602
0.14170196
0.14106935
0.14031589
0.138062
0.13692731
0.13690132
0.14161624
0.1514155
0.14402142
0.13866571
0.14087853
0.14619019
0.155705
0.14716983
0.14172848
0.14254811
0.1481761
0.15832338
0.14976243
0.14407325
0.14599673
0.1518412
0.16263776
0.15477327
0.1488976
0.1521107
0.15804418
0.16878731
0.16163125
0.15562516
0.15946248
0.1656688
0.17603649
0.16938846
0.16313847
0.16804949
0.17445583
0.18505323
0.17998358
0.17392025
0.18073807
0.18645416
0.19590524
0.19247357
0.18727136
0.1928657
0.19789679
0.20515373
0.20141015
0.19664506
0.19932176
0.20408905
0.20997311
0.20574642
0.20132148
0.20333863
0.20744247
0.21215451
0.20793762
0.2044594
0.20422173
0.20775515
0.21187295
0.20711961
0.20372554
0.20395975
0.20754078
0.2121343
0.20767449
0.20427086
0.20424954
0.20775823
0.21225784
0.20755677
0.20406244
0.20381895
0.20774003
0.21248926
0.20712236
0.20328911
0.20344403
0.20776984
0.2140414
0.20946134
0.20543571
0.20875538
0.21262259
0.21766777
0.21320581
0.20973378
0.20647135
0.20948697
0.20691184
0.1992304
0.19648515
0.1787616
0.18187826
0.17818413
0.18080455
0.17577546
0.20029837
0.21279196
0.20974143
0.20820154
0.20779225
0.20757849
0.20728326
0.20755247
0.20562078
0.20097916
0.19222292
0.18204529
0.173358
0.16629173
0.16027704
0.15599345
0.15329405
0.14902529
0.14489127
0.14025935
0.13553687
0.14002883
0.14470124
0.14924608
0.15203373
0.14768456
0.14324231
0.14724883
0.15185203
0.15630345
0.16220403
0.15771775
0.15311266
0.1594443
0.16436916
0.16911235
0.17750079
0.17256206
0.16749807
0.16238665
0.16987849
0.17595596
0.181618
0.18714278
0.19548558
0.18965466
0.18372997
0.17781413
0.18094891
0.1876056
0.1938623
0.1999695
0.20171664
0.19554962
0.18928233
0.18303174
0.18202789
0.18879986
0.19521179
0.20146066
0.2017727
0.19563948
0.18940799
0.18321076
0.1830108
0.1896771
0.19593432
0.20206909
0.20264352
0.19672257
0.19075042
0.18477798
0.18570125
0.19221319
0.19828344
0.20422307
0.20679492
0.2005474
0.19423115
0.18784771
0.16622297
0.17271493
0.17924021
0.18569962
0.19271218
0.17097113
0.17103812
0.17660118
0.1362244
0.13678624
0.13797862
0.14455434
0.14854501
0.14303783
0.13049379
0.10764775
0.09050807
0.087115845
0.099495396
0.11194086
0.11095853
0.12762358
0.13129742
0.12556092
0.12195007
0.11504869
0.10934581
0.095172927
0.090282769
0.094841891
0.10034382
0.10554222
0.10965208
0.090371831
0.093542141
0.092503151
0.083133538
0.08185951
0.079540806
0.077053305
0.086569137
0.081964292
0.077035908
0.07316504
0.074707121
0.097071272
0.10153317
0.10509201
0.1344125
0.13259306
0.12983111
0.16574457
0.16642065
0.14976643
0.13031405
0.10401252
0.10385052
0.10576381
0.10395078
0.10144992
0.091082374
0.088307058
0.084799414
0.092101453
0.1178992
0.12668268
0.12008794
0.14363968
0.32207812
0.2977688
0.28244456
0.24536291
0.25237327
0.41991755
0.35801072
0.29036788
0.22608102
0.21116308
0.20850651
0.20778128
0.20015957
0.19017086
0.19396598
0.20052035
0.20699732
0.21353911
0.22071731
0.2281202
0.23482974
0.24220636
0.2489831
0.25522762
0.26211709
0.27023291
0.27780688
0.285624
0.29412364
0.30313378
0.31260618
0.32237178
0.33256977
0.34304071
0.35379485
0.36480583
0.37623512
0.38795262
0.3999857
0.41230391
0.4250925
0.43822989
0.45173818
0.46563555
0.48013149
0.49510352
0.51067705
0.52682442
0.54368107
0.5612306
0.57961547
0.59884269
0.61903025
0.64029094
0.63461364
0.61391078
0.59416371
0.57533683
0.55730586
0.54006086
0.52348178
0.50757177
0.49221362
0.47742256
0.46308967
0.44926083
0.43582209
0.42280666
0.41012229
0.39783834
0.3858487
0.37417488
0.36272831
0.35163335
0.34085232
0.33040788
0.32020207
0.31034743
0.30075229
0.29151347
0.28262138
0.27419165
0.26616429
0.25878185
0.25195572
0.24540565
0.23803151
0.23196855
0.22658689
0.22167986
0.2140574
0.20708689
0.19996762
0.19200962
0.18416172
0.18281401
0.17811356
0.17259145
0.16334614
0.16928401
0.17680042
0.1796268
0.1867309
0.19399443
0.20107576
0.20805766
0.21473854
0.22127623
0.22730659
0.23359548
0.24005106
0.24702625
0.25403273
0.26141095
0.26909993
0.27733686
0.28582683
0.29476638
0.30392338
0.31346307
0.32319248
0.33330042
0.34359324
0.35427585
0.36522514
0.37657951
0.38808761
0.39994382
0.41204053
0.42454532
0.43733165
0.45055223
0.46412554
0.47819297
0.49268931
0.50773463
0.52330969
0.53951612
0.5563717
0.57395508
0.59232275
0.61154289
0.63181492
0.62608139
0.60745737
0.59032155
0.57320082
0.55727902
0.5415186
0.52667891
0.51208951
0.49818404
0.48460226
0.4714923
0.45878074
0.44636947
0.434418
0.42261185
0.41133435
0.40007461
0.38939489
0.37861928
0.36852405
0.35832136
0.34883331
0.33904989
0.33005416
0.32072626
0.3122571
0.30339875
0.29546826
0.28711161
0.27972328
0.27189611
0.26499702
0.25746216
0.25089164
0.24378902
0.23751372
0.23044262
0.22421209
0.21718423
0.21094568
0.20392048
0.19759141
0.19123023
0.17273217
0.16728944
0.15730059
0.15102039
0.15891327
0.1535677
0.14164792
0.13792691
0.14616881
0.13696057
0.1858619
0.29733239
0.30443851
0.44340677
0.45422901
0.47622943
0.48069437
0.43711852
0.32397115
0.23897929
0.29044623
0.38082593
0.22681964
0.18914303
0.19619534
0.1938053
0.19077401
0.22906748
0.26799129
0.19516314
0.18752876
0.18723805
0.18522817
0.1726419
0.17203179
0.18758311
0.18060421
0.17992711
0.17950092
0.17739929
0.18546377
0.21454168
0.30076354
0.39697381
0.25190135
0.14415514
0.10689832
0.12336175
0.15247816
0.19905505
0.23660061
0.24731546
0.24482394
0.24245768
0.24130205
0.24098966
0.24046426
0.24039882
0.23914986
0.23554259
0.22865028
0.22066999
0.21318595
0.2074086
0.20266399
0.19912925
0.19650022
0.19185036
0.17990063
0.1685337
0.16958591
0.18260215
0.23353906
0.27918586
0.29823226
0.30190128
0.2988051
0.29340619
0.28799261
0.28355414
0.28035048
0.27827143
0.27585454
0.27334307
0.27072969
0.26800001
0.15624084
0.16086636
0.16516603
0.1756656
0.22503156
0.26813716
0.2882971
0.29373044
0.29197249
0.28748688
0.28260892
0.27845331
0.27537083
0.27273215
0.26997563
0.25746403
0.26040008
0.26318511
0.26583986
0.26837835
0.27081344
0.27315743
0.27542565
0.2776372
0.27981277
0.28197313
0.28413811
0.28632474
0.28854688
0.29081517
0.29071083
0.28844023
0.28621432
0.28402237
0.2818505
0.27968132
0.27749509
0.2752721
0.27299126
0.27063318
0.26818386
0.26563338
0.26296599
0.2601658
0.25721589
0.25338383
0.2534696
0.25380562
0.25422712
0.2546655
0.2551202
0.25557593
0.25596955
0.25634826
0.256649
0.25691667
0.25986921
0.2595762
0.25923183
0.25881946
0.2584001
0.25795272
0.25751717
0.25711232
0.25673562
0.2564348
0.25635133
0.25917235
0.25925574
0.25952485
0.2598631
0.26023117
0.26064872
0.26109067
0.26153177
0.26197208
0.26235458
0.26267502
0.26534178
0.26500489
0.26459194
0.26413004
0.26367593
0.26323598
0.26283774
0.26249682
0.26219547
0.26195681
0.26187403
0.26447121
0.26455517
0.26476713
0.26503692
0.26535601
0.26573523
0.2661672
0.26663117
0.2671079
0.26754425
0.26789676
0.27034968
0.26998411
0.26953163
0.26904641
0.26858009
0.2681605
0.26779897
0.26750055
0.2672562
0.26706756
0.26698961
0.26943762
0.26951165
0.26967769
0.26990118
0.27018034
0.27052501
0.27093157
0.2713938
0.27188075
0.27234188
0.27271476
0.2750047
0.2746322
0.27417195
0.27368779
0.27323417
0.27284161
0.27251478
0.27225429
0.27205018
0.27190185
0.27183486
0.27419419
0.2742557
0.27438822
0.2745748
0.27481707
0.27512584
0.27550191
0.27594247
0.27641705
0.27687086
0.27723912
0.27943559
0.27907642
0.2786335
0.27817324
0.27774948
0.27739093
0.27710047
0.27687487
0.27670525
0.27658786
0.27653156
0.27885866
0.27891051
0.27901464
0.27916849
0.2793779
0.27965001
0.2799899
0.28039452
0.28083748
0.28126655
0.28161512
0.28379557
0.28345781
0.28304386
0.28261912
0.28223508
0.28191453
0.28166043
0.28146715
0.2813277
0.28123533
0.28118821
0.2835298
0.28357254
0.28365467
0.28378089
0.28395872
0.28419519
0.28449646
0.2848602
0.28526664
0.28566601
0.28599429
0.28822509
0.28790463
0.28751849
0.28712914
0.28678424
0.28650145
0.28628161
0.28611818
0.28600392
0.28593085
0.28589267
0.2882837
0.28831757
0.28838251
0.28848592
0.2886362
0.28884083
0.2891069
0.28943507
0.28980959
0.29018479
0.29049921
0.29011332
0.2880345
0.28593517
0.28379778
0.2816069
0.27935065
0.27701834
0.27460101
0.27208826
0.26946889
0.26672876
0.13937009
0.14481792
0.1026326
0.10677508
0.10215351
0.1026451
0.23064284
0.19641269
0.17525954
0.19478849
0.21031812
0.19216165
0.19521677
0.19107548
0.18809267
0.18474685
0.19378502
0.18646556
0.21031443
0.24372689
0.25447273
0.26513755
0.27600164
0.28743747
0.29947206
0.31216517
0.32545588
0.33932604
0.35378467
0.36877928
0.38434642
0.40045529
0.41720984
0.4345316
0.45251164
0.47107685
0.49032549
0.51013558
0.53057042
0.55141257
0.57262374
0.27499365
0.27499052
0.27500116
0.27440717
0.26935938
0.2674681
0.25833486
0.25636446
0.25052307
0.24918379
0.24368882
0.24218355
0.23630759
0.23456899
0.23166591
0.229719
0.22443805
0.21836715
0.21151238
0.21369506
0.21717961
0.21985776
0.225065
0.22759297
0.23195491
0.23418181
0.2386514
0.24174446
0.24812857
0.25101423
0.25456298
0.25548023
0.25517186
0.25386301
0.26856333
0.26899022
0.26898957
0.26817699
0.26379092
0.26139015
0.25354992
0.25102072
0.24580959
0.24404908
0.23907283
0.23711206
0.2314922
0.22939056
0.22661269
0.22014608
0.22325864
0.2257088
0.23102532
0.23337941
0.23793713
0.24004067
0.24476067
0.2477141
0.25457184
0.25733168
0.26118668
0.2621481
0.26213453
0.26156343
0.27303173
0.27302191
0.27260785
0.27157439
0.26799773
0.26559015
0.25982107
0.25722406
0.2528183
0.25095014
0.24661126
0.24429443
0.23871091
0.23589323
0.23260522
0.2294206
0.26247917
0.26305303
0.29919757
0.30287529
0.32272576
0.32176725
0.31659753
0.31563163
0.31031106
0.30929622
0.3039523
0.30312341
0.2981064
0.29707686
0.29204144
0.29146788
0.28643542
0.28575309
0.2807479
0.2793564
0.27411228
0.26812379
0.25200393
0.24480541
0.24760702
0.25140157
0.25483869
0.25848711
0.26122943
0.26438662
0.26687882
0.2702291
0.27329449
0.27702386
0.28001096
0.28408563
0.28759473
0.29193773
0.29521989
0.26014415
0.25549769
0.24977405
0.24418355
0.23936427
0.23759518
0.23494929
0.23273797
0.23101861
0.23002828
0.22850905
0.22649024
0.22373635
0.22100243
0.21866746
0.21775284
0.17667894
0.17593624
0.17568106
0.1781756
0.18184402
0.18448691
0.184929
0.15782542
0.15343695
0.15797287
0.1533131
0.15607854
0.15133537
0.15345323
0.14893365
0.15145704
0.14968345
0.1815696
0.22804321
0.24871503
0.25224666
0.24967074
0.24218492
0.2468922
0.22183065
0.22419253
0.17994577
0.18382938
0.17724799
0.17066903
0.16769391
0.17582925
0.13905759
0.1312074
0.13116315
0.12636839
0.10270722
0.10299159
0.1183768
0.1157081
0.11911368
0.11713806
0.11329935
0.11241062
0.1145377
0.11751856
0.12080576
0.12415027
0.12760087
0.13111188
0.13453844
0.13759486
0.14127018
0.14969614
0.15481116
0.15864062
0.16359224
0.16457999
0.17084873
0.17141514
0.17557514
0.17598706
0.17979494
0.18015244
0.18236911
0.18243489
0.182823
0.18294541
0.18426632
0.18445916
0.18700494
0.18752198
0.19162204
0.19214176
0.19578194
0.19636642
0.19982223
0.20037806
0.20445368
0.20513401
0.20908903
0.20985101
0.21508896
0.21623745
0.22352691
0.22505369
0.23393181
0.23566939
0.24384288
0.2452407
0.25083083
0.25150771
0.25218999
0.25210295
0.25102028
0.25092282
0.25116293
0.25117231
0.25140342
0.25135873
0.2508306
0.25062267
0.24976708
0.24958487
0.24872616
0.2485488
0.24842826
0.24839806
0.24806151
0.24792047
0.24732017
0.24717653
0.24629783
0.24605821
0.24521852
0.24506324
0.24413629
0.24397944
0.24393059
0.24415486
0.246489
0.2475905
0.25595107
0.25720075
0.26060618
0.26085313
0.26069202
0.25823698
0.25733551
0.26027456
0.26736792
0.26629563
0.25559051
0.24824059
0.24161522
0.24222289
0.25110597
0.25258389
0.26188536
0.26228207
0.27166228
0.27613001
0.26549798
0.25904415
0.24844297
0.24966579
0.26323418
0.25264918
0.2450398
0.23709109
0.23077329
0.22454825
0.22225637
0.21566555
0.23752815
0.24631424
0.25624663
0.2574154
0.25159735
0.24561535
0.25049308
0.25271979
0.25316044
0.25281717
0.25006615
0.24811072
0.24129138
0.23954494
0.23762916
0.23724899
0.23725798
0.23748953
0.23827708
0.23849817
0.23924701
0.23959548
0.24032023
0.240516
0.24100836
0.24118291
0.2414556
0.24145902
0.2415395
0.24177348
0.24250234
0.24277019
0.2434935
0.24377979
0.24425996
0.24428517
0.244074
0.24407086
0.24387148
0.24397172
0.24476957
0.2448602
0.2442088
0.2431355
0.23843277
0.23620617
0.22932796
0.22658773
0.21907296
0.21661531
0.21046665
0.20862559
0.20417042
0.20290762
0.19960491
0.19850623
0.19501502
0.19405513
0.19104885
0.19010264
0.18701323
0.1860987
0.18259556
0.18175531
0.17962057
0.17925086
0.17808801
0.17787324
0.17757755
0.17742349
0.17554703
0.17494971
0.17160769
0.17088477
0.16726707
0.16626371
0.16057005
0.15768015
0.1629312
0.16429365
0.16749801
0.16842985
0.17136933
0.17216561
0.17376122
0.17395508
0.17424794
0.17454618
0.17556258
0.17602574
0.1778794
0.17895266
0.18193082
0.18305418
0.18579153
0.18703488
0.18972302
0.19092357
0.19398464
0.19536169
0.19816098
0.1996883
0.20358442
0.20586752
0.21117191
0.21415906
0.22068893
0.22403033
0.22995809
0.23264407
0.23672825
0.23805978
0.2387366
0.23868118
0.23820559
0.23816031
0.23832596
0.23829178
0.23846602
0.23847058
0.23802113
0.23766693
0.23707107
0.23677331
0.23611983
0.23582899
0.23576842
0.23578709
0.23558192
0.23539047
0.2350157
0.23480772
0.23417898
0.23375212
0.23308638
0.23284838
0.23219516
0.23191665
0.23190869
0.23239219
0.23406503
0.23612373
0.24178668
0.24412815
0.24643255
0.24682527
0.24631993
0.24419688
0.2397646
0.23539736
0.24215042
0.24931533
0.23956061
0.23219446
0.22624273
0.24550846
0.25601279
0.25861722
0.26080414
0.26224366
0.2615989
0.26105267
0.25847591
0.25626446
0.25105768
0.24932996
0.24763149
0.24700591
0.24685257
0.24708867
0.24744707
0.24746213
0.24813733
0.24860309
0.24915003
0.24919236
0.24941208
0.24963243
0.24982471
0.2496835
0.24968601
0.2500575
0.25069637
0.25083626
0.25121506
0.25159239
0.25208178
0.25202301
0.25180438
0.25192394
0.25166958
0.25155239
0.25124643
0.2512467
0.25026107
0.2490034
0.24485383
0.24266376
0.2370791
0.23419149
0.22777412
0.22533366
0.22030139
0.21827429
0.21419407
0.21297735
0.21044112
0.20919103
0.20601655
0.20509225
0.20227849
0.20106515
0.19823382
0.19741845
0.19470143
0.19368993
0.19185352
0.19160259
0.19050335
0.19012771
0.18967216
0.18967274
0.18825457
0.18749324
0.18458417
0.18402239
0.18101507
0.17980628
0.17463607
0.1727373
0.16354349
0.14610043
0.14926128
0.15375217
0.15875935
0.16404123
0.16793085
0.16636284
0.16745933
0.17149463
0.17638492
0.18155804
0.1868861
0.1924287
0.19802596
0.20381921
0.20948659
0.21489183
0.21204382
0.20818503
0.20315
0.19780558
0.19287155
0.18769191
0.18252455
0.17732745
0.17218001
0.16701962
0.16205025
0.1576916
0.15596583
0.160081
0.15773435
0.15905438
0.16334835
0.16851028
0.17395243
0.17952641
0.18527959
0.19128991
0.19712922
0.20271787
0.20677779
0.2013734
0.1957808
0.19028809
0.1848018
0.17946659
0.17423638
0.16923344
0.16496582
0.16345338
0.18231938
0.1773512
0.17516476
0.20851622
0.2119727
0.21083655
0.21703035
0.21659954
0.22297199
0.22264497
0.22905225
0.22826475
0.23442855
0.2315995
0.22640833
0.25966005
0.29934787
0.29711109
0.29213232
0.28979817
0.28506503
0.28296327
0.27779097
0.26684528
0.2718935
0.26885866
0.26013164
0.26475649
0.26245975
0.25506504
0.25875049
0.25625265
0.22942797
0.23357605
0.23398116
0.1857101
0.1863833
0.18084959
0.15041231
0.14620121
0.1160652
0.096418967
0.098640523
0.10181411
0.10528805
0.10885409
0.11242765
0.11586725
0.11909017
0.12204154
0.128645
0.13242889
0.13826583
0.14356557
0.14719796
0.1526645
0.14584643
0.15136624
0.15658357
0.19025554
0.23713898
0.23884114
0.23605624
0.23706909
0.18864012
0.18248942
0.15061589
0.13454684
0.13817622
0.14500009
0.1391199
0.1340445
0.13644429
0.13043148
0.13216671
0.13070103
0.13552536
0.14705953
0.14094544
0.13767314