/*--------------------------------*- C++ -*----------------------------------*\
| =========                 |                                                 |
| \\      /  F ield         | OpenFOAM: The Open Source CFD Toolbox           |
|  \\    /   O peration     | Version:  v2012                                 |
|   \\  /    A nd           | Website:  www.openfoam.com                      |
|    \\/     M anipulation  |                                                 |
\*---------------------------------------------------------------------------*/
FoamFile
{
    version     2.0;
    format      ascii;
    class       volScalarField;
    location    "100";
    object      nut;
}
// * * * * * * * * * * * * * * * * * * * * * * * * * * * * * * * * * * * * * //

dimensions      [0 2 -1 0 0 0 0];


internalField   nonuniform List<scalar> 
14948
(
0.0071156173
0.0069044301
0.0068416494
0.0066902722
0.0065062682
0.0062997112
0.0061701288
0.0060376332
0.005891199
0.0057438445
0.0055940009
0.0054475002
0.0053016153
0.0051666228
0.0050592173
0.005070316
0.0053065154
0.0052495524
0.00512077
0.0049388387
0.0047475216
0.0046963601
0.0045244205
0.0043408831
0.0042546277
0.0041500672
0.0040382751
0.0039203067
0.0038042774
0.0036880844
0.0035819327
0.0035017851
0.0035421332
0.0027522657
0.0010731509
0.001551307
0.0019719436
0.0036049569
0.0046175077
0.0047301522
0.0046905334
0.0046138691
0.0045266248
0.031187739
0.031374011
0.031532374
0.031666228
0.031779307
0.031874693
0.031954542
0.03202109
0.032077251
0.032125667
0.032168252
0.032207055
0.032243647
0.032279219
0.032314672
0.0069095834
0.0069083491
0.0070179924
0.007058801
0.0074038509
0.00744738
0.0078477492
0.0078892596
0.0082655694
0.0083122845
0.0086916923
0.0087424735
0.0091435181
0.0091877405
0.0095503863
0.0095960367
0.0323389
0.032309048
0.032276161
0.032238831
0.032195609
0.032144969
0.032085332
0.032014949
0.031931909
0.031833922
0.031718189
0.031724611
0.031845719
0.031947946
0.032034481
0.03210763
0.032169403
0.032221545
0.032265735
0.032303555
0.032336562
0.032366275
0.032430542
0.032402252
0.032370385
0.032333451
0.032289889
0.032238059
0.032176373
0.032103355
0.032016957
0.031915015
0.031794651
0.031897077
0.03202059
0.032125313
0.032213968
0.032288765
0.032351808
0.032404256
0.032447894
0.032484408
0.032515315
0.032542176
0.032707169
0.032679997
0.032647991
0.032609579
0.032563141
0.032507046
0.032439772
0.032360187
0.032266388
0.032156658
0.032028107
0.032070021
0.032217801
0.032346301
0.032457877
0.032554309
0.032637166
0.032707303
0.032766178
0.032815461
0.032857024
0.032892617
0.032944455
0.032883308
0.032815081
0.032737907
0.032649912
0.032549126
0.0324344
0.032305598
0.032161584
0.03200128
0.031822175
0.030804525
0.031030468
0.031239739
0.031434345
0.031615332
0.031783244
0.031936959
0.032076808
0.032204499
0.032321805
0.032431473
0.030516795
0.030364881
0.030200089
0.030016535
0.029812228
0.029597827
0.029374643
0.029144579
0.028906387
0.028658835
0.02839959
0.024062026
0.024307033
0.024542937
0.024771323
0.024995075
0.025219193
0.025442526
0.025788175
0.025991545
0.026130748
0.0262284
0.019255644
0.019350847
0.019429968
0.019488611
0.019569701
0.01964446
0.019644953
0.019465077
0.019139425
0.018952196
0.018831494
0.018706126
0.018564672
0.018406064
0.018233813
0.012361786
0.012496702
0.012611453
0.012684837
0.01270549
0.012736634
0.011223086
0.007377391
0.0094328636
0.0080155239
0.005313223
0.0047024779
0.0022326355
0.0028984484
0.0051598665
0.0043981459
0.0043166315
0.0043629721
0.0044076177
0.0045124495
0.0045778932
0.0046805389
0.0047207732
0.004783019
0.0045433119
0.0047515262
0.0053949839
0.0055615474
0.0047094875
0.0048636683
0.0068789576
0.0067676889
0.0069573205
0.0069820145
0.0060139388
0.0059459824
0.0060119058
0.0060783921
0.0062097823
0.0063039679
0.0064418556
0.0065300126
0.0066540303
0.0066841144
0.0066082534
0.0068757302
0.007774022
0.0074491225
0.0076401073
0.0068723369
0.0070395734
0.009027195
0.032136307
0.032091167
0.032045409
0.031998417
0.031949361
0.031897219
0.031840697
0.031778287
0.031708166
0.031628284
0.031536265
0.031429743
0.031305657
0.031161063
0.030992049
0.030941536
0.030933619
0.030952651
0.030978495
0.031003955
0.031024434
0.031045406
0.031068676
0.031089622
0.031110022
0.031129383
0.031144456
0.031453761
0.031444006
0.03142886
0.031419424
0.031404101
0.03139072
0.031377086
0.031367266
0.031356362
0.031346889
0.031336072
0.031324528
0.031308633
0.031288646
0.031268283
0.031245611
0.031221523
0.031200248
0.031179822
0.031156054
0.031132694
0.031115423
0.031121637
0.031275027
0.031270673
0.031286016
0.031307431
0.03132943
0.031350131
0.031372101
0.031396023
0.03142004
0.031440402
0.031460685
0.031477318
0.031489847
0.031501722
0.031511977
0.031522288
0.031531473
0.03154529
0.031558597
0.031572723
0.031582619
0.031596966
0.031607899
0.03162113
0.031635497
0.031644571
0.03165233
0.031658877
0.031669086
0.031685309
0.031807991
0.031795259
0.031786915
0.031779912
0.031772151
0.031763381
0.031750219
0.03173723
0.031725756
0.031712256
0.031701818
0.031688663
0.031675542
0.031662279
0.031652935
0.031643121
0.03163221
0.031620231
0.031607015
0.031590025
0.031569995
0.031548635
0.03152461
0.031500596
0.031478055
0.031457844
0.031437057
0.031417798
0.03140424
0.031406266
0.031518379
0.031518715
0.031531132
0.03154823
0.031568022
0.031587388
0.031610173
0.031634215
0.031657956
0.031680119
0.031700298
0.031717156
0.031730946
0.031742612
0.031754033
0.031763515
0.03177325
0.031785711
0.031798624
0.031810908
0.031821698
0.031834527
0.031846154
0.031858679
0.031870759
0.031879397
0.031887586
0.031894676
0.031901474
0.031911809
0.031999342
0.031991064
0.03198499
0.031977907
0.031970046
0.031961118
0.031949568
0.031937808
0.031926148
0.031913957
0.031902854
0.031890946
0.031878548
0.031866778
0.031856782
0.031847177
0.031835712
0.031824369
0.031810237
0.031793298
0.031773507
0.031750865
0.031727269
0.031703759
0.03168135
0.031662542
0.031643913
0.031628361
0.031617032
0.031615469
0.031699134
0.031701737
0.031712139
0.031726337
0.031743664
0.031762182
0.031784066
0.031806948
0.031830092
0.031852924
0.03187222
0.031889003
0.031903328
0.031914346
0.031925597
0.031935366
0.031945648
0.031956828
0.031968627
0.031980348
0.031991619
0.032003337
0.032014955
0.03202602
0.032037043
0.032046342
0.032053928
0.032060904
0.032066603
0.0320735
0.032135984
0.032130288
0.032124875
0.032118098
0.032110342
0.03210118
0.032090597
0.032079719
0.03206836
0.032057071
0.032045746
0.032034255
0.032023057
0.03201202
0.032001924
0.031991949
0.03198107
0.031970044
0.031956129
0.031939694
0.031920667
0.031898404
0.031875933
0.031853683
0.031832393
0.031814196
0.031798054
0.031784996
0.031775485
0.031772308
0.03183693
0.031840564
0.031849351
0.031861448
0.031876595
0.031894196
0.031914575
0.031936265
0.031957938
0.03197925
0.031997696
0.03201358
0.032026945
0.032037863
0.032048342
0.032058444
0.032068276
0.032079219
0.032089969
0.032101179
0.032112449
0.032123358
0.032134366
0.032145167
0.032155304
0.032164352
0.032172252
0.032178855
0.032184067
0.032188918
0.032233812
0.032229699
0.032224638
0.032218094
0.032210296
0.032201279
0.032191457
0.032181007
0.032170331
0.03215957
0.032148528
0.032137679
0.032127111
0.032116507
0.032106756
0.032096861
0.032086729
0.03207602
0.032063337
0.032048227
0.032030604
0.032010456
0.031989673
0.031968915
0.031949494
0.031932596
0.031918275
0.031907009
0.031898851
0.031895131
0.031948444
0.03195223
0.031959781
0.031970321
0.031983822
0.031999982
0.032018374
0.032038059
0.032057744
0.032076574
0.032093119
0.0321073
0.032119177
0.032129562
0.032139281
0.032148908
0.032158492
0.032168737
0.032179093
0.032189605
0.03220033
0.032210958
0.032221283
0.032231414
0.032240896
0.032249828
0.032257464
0.032263959
0.032268847
0.032272432
0.032306233
0.032303086
0.032298417
0.032292024
0.032284491
0.032275824
0.032266654
0.032256841
0.032246837
0.032236512
0.03222614
0.03221593
0.032205836
0.032195981
0.032186637
0.032177341
0.032168061
0.032158236
0.032147146
0.032134064
0.032118756
0.032101357
0.032082904
0.032064389
0.032047051
0.032031699
0.032019024
0.032009119
0.032002088
0.03199836
0.032045916
0.032049576
0.032056144
0.032065441
0.032077343
0.032091861
0.032108176
0.032125478
0.032142623
0.032158571
0.032172573
0.032184514
0.032194774
0.032203962
0.032212766
0.032221649
0.032230658
0.0322401
0.032249858
0.032259725
0.032269745
0.032279683
0.032289338
0.032298783
0.032307606
0.032315924
0.032323266
0.032329505
0.032333977
0.03233681
0.032238739
0.032230194
0.032220754
0.032209913
0.032197206
0.03218265
0.032166775
0.032150633
0.032135287
0.032121624
0.032110414
0.032101714
0.032095582
0.032092054
0.032137416
0.032140798
0.032146518
0.03215465
0.032165207
0.032178067
0.032192521
0.032207615
0.032222341
0.032235654
0.03224719
0.032257019
0.03236393
0.032333739
0.032300044
0.032261318
0.032215948
0.03216225
0.03209855
0.032023173
0.031933958
0.031828525
0.031703841
0.005118861
0.0052249415
0.0053179196
0.0053735673
0.0052883084
0.0038571814
0.0022315226
0.0016518394
0.0033690579
0.0049175336
0.0048448442
0.0049168191
0.0050226719
0.0051359343
0.0052514923
0.005369787
0.005484244
0.0055960541
0.005685057
0.0057845541
0.0061590006
0.0062568922
0.0064879176
0.0065555885
0.0067451523
0.0068081804
0.0069554728
0.0069956174
0.0070948234
0.007139227
0.0072616686
0.007312916
0.0074543569
0.0075297005
0.0077058299
0.0077837048
0.0079562996
0.0080426791
0.0082118339
0.00829789
0.0084926486
0.0085875141
0.0087543574
0.0088550018
0.0090841209
0.0092315269
0.0095286222
0.0097191404
0.010079913
0.010289973
0.010618051
0.01079418
0.01103729
0.011134913
0.011196959
0.011207373
0.011208858
0.011218418
0.011245522
0.011257302
0.011281512
0.011284336
0.011260352
0.011229806
0.011179609
0.01114526
0.011086302
0.011054731
0.011037475
0.011029733
0.011007895
0.010987618
0.010957481
0.010936946
0.01088613
0.010851182
0.010796197
0.010769702
0.010707649
0.010672383
0.010625835
0.010628584
0.010659724
0.010740985
0.010929401
0.010978264
0.010872212
0.010707532
0.010292787
0.0099343808
0.0093381994
0.0087620737
0.0077900898
0.007476772
0.0072798344
0.0062648869
0.0053039641
0.0049665364
0.0047179977
0.0049525494
0.0060677685
0.0070732338
0.0068973251
0.0075750612
0.0085164144
0.0090835312
0.0096379729
0.0100011
0.010386015
0.010550448
0.0106446
0.010590815
0.010425442
0.010340976
0.010310433
0.010306055
0.010350607
0.010386083
0.010441985
0.010467138
0.010519433
0.010554674
0.010601186
0.010621335
0.010644303
0.010666179
0.010681724
0.010690052
0.010702562
0.010737345
0.010789954
0.010827456
0.010872206
0.010908032
0.010928505
0.010925836
0.010905648
0.01089204
0.010871675
0.010860125
0.010855814
0.010845493
0.010786413
0.010682597
0.010462719
0.010279083
0.0099834703
0.0097663148
0.0094372079
0.0092390938
0.0089716783
0.0088189078
0.0086088345
0.0085071098
0.0083599001
0.0082611146
0.0080807772
0.0079923533
0.0078380424
0.007748645
0.0075914506
0.0075093296
0.0073520549
0.0072749656
0.0071483566
0.0070947322
0.0069841095
0.0069382237
0.0068493295
0.0068051046
0.0066763305
0.0066074486
0.006435905
0.0063622346
0.0061528709
0.0060436014
0.0059510599
0.0058361577
0.005717079
0.0055944545
0.0054727086
0.0053450614
0.0052098335
0.0051228306
0.0051343472
0.0035390143
0.0036565665
0.0042851141
0.0049501881
0.0051181665
0.0052700245
0.0053341041
0.0054709345
0.0055035869
0.0055922856
0.0055729075
0.0056743677
0.0056666174
0.0057878952
0.0057798719
0.0058975168
0.0059080046
0.0060453292
0.0060603079
0.0061959095
0.0062258847
0.006376732
0.006398944
0.0065664461
0.0065874412
0.0067228683
0.0067412017
0.0069234283
0.0069939079
0.007216807
0.0073182225
0.0075663672
0.0076798944
0.0079175424
0.0080059954
0.0082010581
0.008235328
0.008350001
0.0083150128
0.0084006862
0.0083567186
0.0084188944
0.0083642227
0.0084305911
0.0083704512
0.0084173271
0.0083246548
0.008342249
0.0082367201
0.0082583376
0.0081673723
0.0082278335
0.0081829925
0.0082423333
0.0081648629
0.008208918
0.0081453337
0.0081867119
0.0081032978
0.0081257466
0.0080478797
0.0080726489
0.0079754372
0.0079991194
0.0079379262
0.0080395926
0.0080557096
0.0082115535
0.0082009477
0.0081955917
0.0080048125
0.0077933137
0.0074431291
0.007094479
0.0065654091
0.005977012
0.0052833394
0.0045564824
0.0037200446
0.0030928559
0.0028873925
0.0027131248
0.0028801499
0.0035735383
0.0043763556
0.0050922498
0.0057568003
0.0063307571
0.0068307831
0.007179066
0.0075045378
0.0077168731
0.0078879604
0.0079046217
0.0079021056
0.0077655805
0.0077375675
0.0076555036
0.0077035406
0.0076915294
0.0077723422
0.0077647853
0.0078212269
0.0078135765
0.0078808951
0.0078522615
0.0079003429
0.0078694944
0.0079314127
0.0078842782
0.0079085174
0.007866615
0.0079422574
0.0079346106
0.0080225035
0.0080206329
0.0080980878
0.0080664787
0.0081097963
0.0080583039
0.0080988601
0.0080515001
0.0080822152
0.0080105728
0.0080305978
0.0079309827
0.0078813
0.0077111178
0.0076170339
0.007405151
0.0072891209
0.0070660614
0.0069594795
0.0067619538
0.0066845857
0.0065221109
0.0064965481
0.0063802449
0.0063495985
0.0062035901
0.0061715342
0.0060402516
0.0059426876
0.0056904296
0.0056494402
0.0056052523
0.0055656995
0.0055762009
0.005619424
0.0054957874
0.0052556256
0.0051752337
0.0052814649
0.0053317955
0.0053254953
0.0051970867
0.0051228932
0.0045518695
0.0040080096
0.0033852194
0.0041593464
0.004604874
0.004614644
0.0041765584
0.0032784177
0.0041339674
0.0047470332
0.0050208971
0.0040900601
0.0032198133
0.0041379185
0.0049776026
0.0049096622
0.0042776392
0.0032044109
0.0043037027
0.0048236786
0.0049158253
0.0043332796
0.0032858345
0.0044016549
0.0050338047
0.0053133226
0.0044750537
0.0033988431
0.0046575482
0.0055633056
0.0056700622
0.0048195208
0.0035989423
0.0049728444
0.0056087108
0.0058055045
0.0052215123
0.0038247416
0.0054100561
0.0058491869
0.0059667362
0.0054598463
0.0041194176
0.005730649
0.0060075751
0.0061370674
0.0059586459
0.0044397671
0.0062247797
0.0061745555
0.0062759541
0.0063216455
0.0048048601
0.0063575142
0.0063083259
0.0064531544
0.0064991398
0.0052204366
0.0065824136
0.0065347317
0.0067127023
0.0067528343
0.0056677032
0.0068628712
0.006823286
0.0070262351
0.0070592976
0.0061458824
0.0071753409
0.0071461105
0.0073383633
0.0073592595
0.0066593116
0.007459653
0.0074385993
0.0075954064
0.0076170548
0.0071890585
0.0076704306
0.0076501458
0.007737847
0.007757941
0.0077630748
0.0077606932
0.0077328432
0.0077943668
0.0078220749
0.008386673
0.0078095225
0.007776097
0.00780985
0.007841137
0.0086541169
0.0078129903
0.0077761886
0.007815292
0.0078477377
0.0086786648
0.0078249483
0.0077856016
0.0078058011
0.0078390089
0.0086566068
0.0077834339
0.0077421629
0.0077321342
0.0077670906
0.0085835784
0.0076976
0.007655861
0.0076515152
0.0076884629
0.0085212386
0.0076348948
0.0075895224
0.0076240869
0.0076686803
0.0085174783
0.0076538534
0.007607488
0.0076450532
0.0076870014
0.0085196116
0.0076427389
0.0075966382
0.0076172372
0.0076592559
0.0085058556
0.0076300542
0.0075804729
0.0075967289
0.0076412752
0.0084814182
0.0075976539
0.0075432054
0.0075477884
0.0076056416
0.0084557405
0.0075633647
0.0075009526
0.0074955593
0.0075494272
0.0083917073
0.007486127
0.0074254771
0.0074259392
0.0074817177
0.008343674
0.0074484128
0.0073876023
0.0074570393
0.0075114719
0.0084003511
0.0075488802
0.0074955447
0.0076156259
0.0076550214
0.0085034532
0.0076724468
0.0076291626
0.0076034514
0.0076380888
0.0083693213
0.0074893807
0.007447223
0.0072346179
0.0072641397
0.0078662469
0.0069629339
0.0069260872
0.0065797735
0.0066035063
0.0070667396
0.006144276
0.0061051674
0.005541863
0.0055604068
0.0058133286
0.0049181248
0.0049016339
0.0042064339
0.0041759218
0.0039768111
0.0034213093
0.0034347381
0.0027566115
0.0025902701
0.0028811034
0.0026519091
0.0023482797
0.0023909544
0.0023238986
0.002236063
0.0025979406
0.0025197905
0.002498688
0.002431622
0.0025016306
0.0042913021
0.0061050423
0.0074145949
0.008247473
0.007738023
0.007441999
0.0072466985
0.0071560327
0.0070408224
0.0069684012
0.0069161037
0.0068713109
0.0068147071
0.006784732
0.0067325896
0.0066551484
0.0064083826
0.0059494819
0.0055179908
0.0051063159
0.0047255829
0.0043623349
0.0040128759
0.0036721554
0.0033640111
0.0030785053
0.0028270688
0.0025922845
0.0023867734
0.0022072697
0.0020540017
0.0019231304
0.0018337623
0.0017804151
0.0017491171
0.0017408835
0.0017256305
0.0017485938
0.0023160836
0.0040828385
0.0061870873
0.0040499199
0.002337005
0.0023650991
0.0040809139
0.0065409727
0.0041227812
0.0023764169
0.0024122665
0.0041473741
0.0068562215
0.0042649362
0.0024950034
0.002624365
0.0044210837
0.0072219193
0.0046988094
0.0027982104
0.0030084405
0.004982636
0.007647798
0.0054126902
0.0032436404
0.0035267723
0.0058046764
0.0081236457
0.006335006
0.0038407056
0.0041810887
0.0068257898
0.0086766267
0.0074936886
0.004535004
0.0049314251
0.0080952267
0.0093074429
0.0087043466
0.0053818777
0.0058277543
0.0090056703
0.0098560803
0.0092035515
0.0063113036
0.0067980994
0.0093696807
0.01016855
0.0094642364
0.0073718606
0.0080102432
0.0095638035
0.010307957
0.0095828526
0.0086438465
0.0089155448
0.0095534953
0.010263242
0.009493983
0.0089796274
0.0089904064
0.0095052481
0.010252919
0.0095023336
0.0089812224
0.0089847478
0.00950066
0.01024428
0.0094811141
0.0090073531
0.0090374379
0.009482238
0.010227074
0.0094267045
0.0090286066
0.0089972636
0.0094136766
0.010208559
0.0094525285
0.0090473507
0.0089971781
0.0095144414
0.010115102
0.0093494005
0.0090121332
0.0085194837
0.0088109557
0.0087369451
0.0078824651
0.0076659827
0.00639668
0.0066104133
0.0065410621
0.0069349473
0.0067979652
0.0086233173
0.010144895
0.010277466
0.010297003
0.01030402
0.010307099
0.010313205
0.01035423
0.010224462
0.0099142872
0.0093780353
0.0087654241
0.008213975
0.0077338363
0.007301109
0.0069278831
0.0066067481
0.0062506518
0.0062000881
0.0061116454
0.0060098642
0.0063909128
0.0064858671
0.0065649232
0.006891647
0.0068235272
0.0067409696
0.0071108132
0.007199174
0.0072690458
0.007703975
0.0076385148
0.0075550768
0.0080145964
0.0081107524
0.0081840004
0.0087294973
0.0086540539
0.0085576538
0.0084453164
0.0089369897
0.009102698
0.0092254835
0.0093245277
0.0098472803
0.0097392786
0.0096089881
0.0094635934
0.0096928962
0.0098851989
0.010032534
0.010153267
0.010274998
0.010153219
0.010007501
0.0098458324
0.0097610387
0.0099582681
0.010111762
0.010237036
0.01023406
0.010118336
0.0099786938
0.0098235432
0.0097939225
0.0099812758
0.010121853
0.010236821
0.010240108
0.010140565
0.010019845
0.0098821344
0.0098357743
0.010006418
0.010128403
0.010225261
0.010071712
0.009974966
0.0098543693
0.0097062036
0.0079970159
0.0081451396
0.0082734759
0.0083738128
0.0084625752
0.0070596275
0.0068648248
0.0070551268
0.0045027558
0.0044093978
0.0043130195
0.0045041497
0.0046129053
0.0043876741
0.0037620219
0.0029381128
0.0023863319
0.0022627753
0.0026187372
0.0030201195
0.0030162733
0.0036270271
0.0038377477
0.0036399338
0.0035319166
0.0033002939
0.0031016909
0.0026410878
0.0024546731
0.0025913926
0.0027514498
0.0029027517
0.003012057
0.0023949528
0.0024646049
0.0024066941
0.00215226
0.0021304694
0.0020772038
0.0020054258
0.0023001727
0.002177249
0.0020441603
0.0019378712
0.0019908963
0.0027264354
0.0029101646
0.0030788457
0.0045311592
0.0045777261
0.0045808165
0.0068943642
0.0071447461
0.0061754549
0.0047628001
0.0032255452
0.0031441934
0.0031439977
0.0021427482
0.0016212777
0.001618618
0.0016105856
0.0016689241
0.0016067099
0.0018096643
0.0017952811
0.0017003229
0.0018286103
0.0031335776
0.0030823927
0.0030690313
0.0029118323
0.0029991954
0.0042987114
0.0041267339
0.0039639328
0.0036690305
0.0037127517
0.0037844767
0.0038513285
0.0038934455
0.0038856355
0.0041051958
0.0042530139
0.0043637998
0.004472376
0.0046207609
0.004750923
0.004875641
0.0050135665
0.005151849
0.0052869454
0.0054353524
0.0056014227
0.005767127
0.0059396021
0.0061267935
0.0063232566
0.0065298942
0.0067427343
0.0069648068
0.0071928192
0.0074259245
0.0076634157
0.0079094274
0.0081591555
0.008411608
0.0086651573
0.0089241064
0.0091827224
0.0094393254
0.0096927152
0.0099469065
0.010195403
0.010439466
0.010675454
0.010904957
0.011124733
0.011336777
0.011538713
0.011732371
0.011917754
0.011890837
0.011706398
0.011512488
0.011310602
0.011098949
0.010879829
0.010651885
0.010417948
0.010176937
0.0099320278
0.00968235
0.0094317387
0.0091789539
0.0089270063
0.0086749032
0.0084263494
0.0081796251
0.0079364386
0.0076953169
0.0074610058
0.0072335256
0.0070137677
0.0067994229
0.0065933236
0.0063933088
0.0062020156
0.0060181838
0.0058447711
0.0056796021
0.0055269729
0.005384514
0.0052502368
0.0051118245
0.0049931945
0.0048839473
0.0047812162
0.0046528258
0.004536778
0.0044162164
0.0042490024
0.0041176841
0.0038148199
0.0037283413
0.0036279884
0.0035670174
0.0038312233
0.0039855935
0.0043856075
0.0045106819
0.004638485
0.0047562317
0.0048707332
0.0049771159
0.0050866074
0.0051913254
0.0053028009
0.0054154318
0.0055421468
0.0056725127
0.0058143635
0.0059617643
0.0061228674
0.0062887953
0.0064672236
0.0066498827
0.0068437488
0.0070410219
0.0072489302
0.007459692
0.0076809624
0.0079066103
0.0081421169
0.0083763975
0.0086166993
0.0088564356
0.0091016973
0.00934459
0.0095905292
0.0098322994
0.010074958
0.010311158
0.010545359
0.010771079
0.010992537
0.011203995
0.011409519
0.011604272
0.011792594
0.011972272
0.012343592
0.012202873
0.01203798
0.01188261
0.011700272
0.011531321
0.011333025
0.011152382
0.010940651
0.010751358
0.010529648
0.010335729
0.010108421
0.0099137184
0.0096845504
0.0094927757
0.0092655243
0.0090791834
0.0088561921
0.0086788686
0.008466639
0.0083021265
0.0080982862
0.0079452047
0.0077528138
0.0076138768
0.0074348032
0.0073116269
0.0071473953
0.0070406279
0.0068920818
0.0068013499
0.0066659991
0.0065898384
0.0064674576
0.0063989538
0.0062805151
0.0062142088
0.0060936693
0.0060148404
0.0058739359
0.0057585597
0.005627143
0.0042698608
0.0042429175
0.0037134037
0.0034716957
0.0033796423
0.0031317694
0.0029170847
0.0030893764
0.0034660684
0.0028584519
0.0036741766
0.003908028
0.00395394
0.004418235
0.0043781776
0.0043810603
0.0042609018
0.0039249909
0.0031027789
0.0027756987
0.0030886574
0.0036625032
0.0037261689
0.0040419582
0.0038185201
0.0038729252
0.0037211083
0.0034252109
0.0036742969
0.003532616
0.0036534145
0.0049540051
0.0040862365
0.0034736008
0.0033100375
0.0031420056
0.0033567128
0.0035585122
0.0041771533
0.0036030148
0.0038117361
0.0043609904
0.0039887928
0.0041668966
0.0030237051
0.0023798345
0.0025013586
0.0036557381
0.0055065409
0.0087617651
0.01172949
0.013619611
0.013994265
0.014017472
0.013978941
0.013964684
0.013930311
0.013919242
0.013785811
0.013458127
0.012903948
0.012263321
0.011618847
0.011044902
0.010517265
0.010050793
0.0096748559
0.0092709591
0.0084063982
0.0077358613
0.0075767527
0.0083230071
0.012409324
0.018440893
0.024863211
0.02930661
0.031579671
0.032410234
0.032539932
0.032427228
0.032279531
0.03216537
0.032090285
0.032001182
0.031896017
0.031771801
0.0075529932
0.0076551805
0.0077301147
0.008364985
0.012489323
0.018323803
0.024466035
0.028862491
0.03121074
0.032134984
0.032328884
0.032248779
0.032112333
0.032005856
0.03188019
0.031223255
0.031395358
0.031541073
0.031664437
0.031768503
0.031856048
0.031929525
0.031991382
0.03204408
0.032089912
0.032130898
0.03216883
0.032205171
0.032241045
0.032277304
0.032271809
0.032235235
0.032198929
0.03216204
0.032123444
0.032081625
0.032034779
0.031980977
0.031917832
0.031842796
0.031753556
0.031647974
0.031522909
0.031375052
0.031200888
0.030950865
0.030957398
0.030996612
0.03104275
0.031085169
0.031123632
0.03115532
0.031171659
0.031181459
0.031180521
0.031181959
0.031356927
0.031351794
0.031346342
0.031331645
0.031311552
0.031281225
0.031245835
0.031208576
0.031169335
0.031135648
0.031129279
0.031281078
0.031287551
0.031316401
0.031349874
0.031381746
0.031414366
0.031443836
0.031467037
0.031485759
0.031496716
0.031505808
0.031630901
0.031619336
0.031603971
0.031582106
0.031557002
0.031527845
0.031498014
0.031470018
0.031441875
0.031417492
0.031410999
0.03152195
0.031528675
0.03154927
0.031573013
0.031598001
0.031625252
0.031653417
0.031680051
0.0317042
0.031723042
0.031737037
0.031826534
0.031810337
0.031788882
0.031763165
0.031735879
0.031709112
0.031684084
0.031661794
0.031641464
0.03162405
0.031618026
0.031700878
0.031706506
0.031720974
0.031738644
0.03175858
0.031781676
0.031807154
0.031834434
0.031861023
0.03188428
0.031902089
0.031965863
0.031947255
0.031923217
0.03189613
0.031869229
0.031844967
0.031823746
0.031805924
0.031790585
0.031778302
0.031773433
0.031837585
0.031841934
0.031852375
0.03186575
0.031881664
0.031901159
0.03192408
0.031950238
0.031977157
0.032001456
0.032020494
0.032068006
0.032049105
0.032024989
0.031998685
0.031973572
0.03195196
0.031934067
0.031919737
0.031908139
0.031899358
0.031895459
0.031948523
0.03195209
0.03195952
0.031969581
0.031982489
0.031998889
0.03201917
0.032043057
0.032068445
0.032092033
0.032110564
0.032149788
0.03213178
0.032108943
0.032084597
0.032062078
0.03204315
0.032028128
0.032016561
0.032007799
0.03200148
0.031998252
0.032045669
0.032048616
0.032054052
0.032061705
0.032072057
0.032085781
0.032103366
0.032124516
0.032147721
0.032169735
0.032187213
0.032223952
0.032206985
0.032185824
0.032163761
0.032143904
0.032127612
0.03211508
0.032105803
0.032099085
0.032094367
0.032091708
0.032137006
0.032139412
0.032143532
0.032149451
0.032157783
0.032169245
0.03218436
0.032203031
0.032224035
0.032244406
0.032260906
0.032360638
0.03233015
0.032296073
0.032256885
0.03221097
0.032156755
0.032092436
0.032016113
0.031925503
0.031818079
0.031690853
0.0059854072
0.0060972021
0.0029507354
0.002951209
0.0022768763
0.002202225
0.0029269932
0.0027935386
0.0031603754
0.0035759032
0.0036550446
0.0058413975
0.0058617023
0.0056680147
0.0054534352
0.0052991684
0.0061437481
0.0055345407
0.0071118869
0.0090769516
0.0093601873
0.0095960348
0.0097795332
0.0099425196
0.010103111
0.010278505
0.010469584
0.01068132
0.010908655
0.011151174
0.011401834
0.011653318
0.011897718
0.012134148
0.012356761
0.012564582
0.012752811
0.012921167
0.013066494
0.013188527
0.013288334
0.0095079143
0.0094318688
0.0091161831
0.0090388256
0.0086793839
0.0085910373
0.0082478734
0.0081649254
0.0078164937
0.0077419426
0.0073624125
0.0072817626
0.0069406135
0.0068665439
0.0067456168
0.0066725938
0.006601902
0.0064690641
0.0062666512
0.0063419332
0.0065003244
0.0066280678
0.0069619495
0.0071127518
0.0074497191
0.00758846
0.0078830002
0.0080282048
0.0083040754
0.0084537267
0.0087329839
0.0088617238
0.0090833239
0.0091661979
0.009452478
0.0093642145
0.0090853868
0.0089828775
0.0086582741
0.0085421886
0.0082321346
0.0081215423
0.0077979812
0.0076959782
0.0073366984
0.0072272102
0.0068871389
0.0067933793
0.0066693165
0.006525436
0.0066638883
0.0067773781
0.0071101493
0.0072462409
0.0075882724
0.0077147491
0.008018126
0.0081522321
0.0084375593
0.0085763575
0.008871961
0.0089939068
0.009241571
0.0093391675
0.0099658194
0.009860892
0.009606866
0.0094910574
0.0092138694
0.0090928075
0.0088511504
0.0087339266
0.0084567175
0.0083443598
0.008031971
0.0078953241
0.007533779
0.0073886764
0.0072363036
0.0071507794
0.0091291252
0.0092306922
0.01269147
0.012432251
0.015970345
0.016758284
0.016454992
0.017098702
0.016753667
0.017286722
0.016923671
0.017409453
0.017085972
0.017484264
0.017145133
0.017554793
0.017198176
0.017533837
0.01715425
0.017321683
0.016870052
0.016392085
0.014338942
0.013345666
0.013447135
0.013611819
0.013707681
0.013800096
0.013759871
0.013742249
0.013620586
0.013582313
0.013487307
0.01346244
0.013323792
0.01328499
0.013138291
0.01308035
0.012848269
0.0094375749
0.0095057431
0.0094779117
0.0094454625
0.0094594755
0.0096301334
0.0097190495
0.0098371284
0.0099986205
0.010216816
0.010384482
0.010489845
0.010514272
0.010514293
0.01052297
0.010651548
0.0060657258
0.0074386547
0.0073128232
0.0073135678
0.0073687447
0.0073516076
0.007195976
0.0058375324
0.0056907283
0.0059958499
0.0058288705
0.0060428196
0.0058647435
0.0060388785
0.0058620591
0.0060464466
0.0059722935
0.0076795474
0.011037062
0.012551693
0.013395392
0.013410539
0.012366077
0.013362912
0.010955322
0.01092791
0.0076763179
0.0064264729
0.0067751008
0.0060529313
0.006670029
0.0076559893
0.003500026
0.0050569003
0.0029202394
0.0020312363
0.0015813448
0.0025046344
0.0034719402
0.0018494483
0.0015310443
0.0030595778
0.0043173366
0.0042382167
0.0042955922
0.0043885161
0.0044914916
0.004594157
0.0046984474
0.0048011676
0.004895592
0.0049670856
0.0050596886
0.0056024348
0.0057836022
0.0058796928
0.0060314029
0.0060888765
0.0065593587
0.0065951178
0.0069089013
0.0069351715
0.0071957619
0.0072200764
0.0074359883
0.0074510928
0.0076007018
0.0076193052
0.0077975446
0.0078185904
0.008033612
0.0080677371
0.0083337876
0.0083678221
0.0086202538
0.0086588142
0.0089050847
0.0089432697
0.0092270002
0.0092710802
0.0095338116
0.0095819228
0.0099180365
0.0099876516
0.0104341
0.010524157
0.011055911
0.011157764
0.011651916
0.011737406
0.012106116
0.012153311
0.012244585
0.012247813
0.012232984
0.012235517
0.012291462
0.01229726
0.012341068
0.012341693
0.012313654
0.012299018
0.01222733
0.012211146
0.01212805
0.012112014
0.012079476
0.012073407
0.012032136
0.012019996
0.011966185
0.011954074
0.011878359
0.011859548
0.01178216
0.011766912
0.011671554
0.011652811
0.011588301
0.011587158
0.011622483
0.011660483
0.01196606
0.011986223
0.011819462
0.011735368
0.011163123
0.010864641
0.010548832
0.010361674
0.01041205
0.010235505
0.0090521411
0.0086095758
0.0081904171
0.0080769427
0.0083906615
0.0082796791
0.0085908103
0.008348496
0.0086108708
0.0085145227
0.0079757827
0.0077659812
0.0074057786
0.0074651
0.00812886
0.0078252885
0.0076539811
0.0074362755
0.0072897858
0.0071404382
0.0072013823
0.0070096103
0.0082063347
0.0087597087
0.0098124224
0.010070084
0.010024925
0.0098452335
0.010533164
0.010863255
0.011364004
0.011497399
0.011636795
0.011602849
0.011350883
0.011288499
0.011256772
0.011256758
0.011310927
0.011338933
0.01141895
0.011441124
0.011508076
0.011536085
0.011599313
0.011616823
0.011661072
0.01167696
0.011710796
0.011718035
0.011744421
0.011767917
0.011839812
0.011865048
0.011927206
0.011948311
0.011975398