/*--------------------------------*- C++ -*----------------------------------*\
| =========                 |                                                 |
| \\      /  F ield         | OpenFOAM: The Open Source CFD Toolbox           |
|  \\    /   O peration     | Version:  v2012                                 |
|   \\  /    A nd           | Website:  www.openfoam.com                      |
|    \\/     M anipulation  |                                                 |
\*---------------------------------------------------------------------------*/
FoamFile
{
    version     2.0;
    format      ascii;
    class       volScalarField;
    location    "100";
    object      omega;
}
// * * * * * * * * * * * * * * * * * * * * * * * * * * * * * * * * * * * * * //

dimensions      [0 0 -1 0 0 0 0];


internalField   nonuniform List<scalar> 
14948
(
34.072735
34.041113
33.580687
33.360618
33.314686
33.24939
32.969386
32.754657
32.593803
32.445001
32.30948
32.172555
32.022335
31.853743
31.596164
31.040983
30.107088
29.800952
29.63535
29.624357
29.591417
29.303322
29.269974
29.217593
28.994584
28.830858
28.69617
28.580649
28.47644
28.367799
28.26016
28.11887
27.802675
27.479668
29.584983
30.27366
30.565391
29.267288
26.538384
25.747751
25.217721
24.756701
24.309348
8.268392
8.3155888
8.3645181
8.4148787
8.4663508
8.5186605
8.5716131
8.6251036
8.6791168
8.7337287
8.7890831
8.8453295
8.902605
8.9610269
9.0206762
34.456767
34.514318
34.401607
34.352585
33.58921
33.506878
32.577551
32.505645
31.827899
31.786517
31.620306
31.565709
30.822278
30.710128
29.549817
29.415089
8.9585222
8.9025759
8.8468873
8.7913069
8.7357621
8.6802646
8.6249084
8.5698511
8.5152906
8.4614504
8.408575
8.4172684
8.4699853
8.5237304
8.5782371
8.6332677
8.688609
8.7440892
8.7996022
8.8551296
8.9107398
8.96658
8.9846236
8.9290002
8.873542
8.8181014
8.7626109
8.7070947
8.6516702
8.5965208
8.5418733
8.4879701
8.4350717
8.468474
8.5214284
8.5754063
8.6301401
8.685366
8.7408304
8.7963223
8.8517003
8.9069359
8.9620969
9.0173311
9.0732811
9.0188194
8.9643098
8.9095984
8.8546112
8.7993676
8.744027
8.6888471
8.6341135
8.5800972
8.5270755
8.6344749
8.6869899
8.7404692
8.7946245
8.8491446
8.9036865
8.9579151
9.0116547
9.0649363
9.1178617
9.1706054
9.3540883
9.3046838
9.2549731
9.2047502
9.153819
9.1019456
9.0492549
8.9962015
8.9432268
8.8906916
8.8389082
9.2423698
9.2946685
9.3472874
9.3997936
9.4516386
9.5021286
9.5505959
9.597241
9.6430819
9.6886423
9.7341205
10.561639
10.509515
10.460243
10.414444
10.370909
10.323394
10.270804
10.214483
10.155916
10.096144
10.035869
11.524533
11.618088
11.712118
11.805863
11.897275
11.981572
12.053852
12.070692
12.138653
12.232236
12.34528
17.305064
16.92376
16.559517
16.219478
15.885245
15.568559
15.308543
15.162356
15.085463
14.948148
14.755143
14.556647
14.364482
14.182045
14.007439
17.093143
17.333377
17.587903
17.8697
18.183755
18.466417
19.844938
21.308013
21.025274
22.352293
25.577051
26.678665
26.787737
26.031176
25.693858
26.744947
27.018651
27.182171
27.350573
27.460252
27.618313
27.740599
27.939787
28.118849
28.684097
28.606838
27.861459
27.938115
29.513283
29.49553
26.523247
27.115204
27.265722
27.61947
29.406238
29.89518
30.174608
30.445799
30.605372
30.825797
30.972429
31.205904
31.379391
31.716924
32.23237
32.045061
30.544871
31.592574
31.696952
33.852798
33.826026
29.496074
8.9703151
8.9084288
8.8474494
8.7873354
8.7280466
8.6695491
8.6118245
8.5548734
8.4987226
8.4434282
8.3890791
8.3357937
8.2837334
8.2330901
8.1841101
8.1871993
8.1891851
8.1910355
8.1938144
8.1978182
8.2032232
8.2096313
8.2167914
8.2245373
8.2323009
8.2396096
8.2462871
8.3417265
8.3378709
8.3341325
8.3301281
8.3263877
8.3226275
8.3188939
8.3148899
8.3107457
8.3061844
8.3010127
8.2950627
8.2883668
8.2810279
8.2732195
8.2654887
8.2583032
8.2518797
8.2464441
8.242321
8.2393822
8.2374083
8.2355367
8.2857022
8.2874684
8.289556
8.2926191
8.2968551
8.3023118
8.3087425
8.3159731
8.3237017
8.3315366
8.3389049
8.345603
8.3515385
8.3566983
8.3612565
8.365445
8.3694851
8.3732623
8.3770652
8.3808819
8.3848696
8.3886666
8.3924915
8.3960503
8.3993061
8.4024276
8.4051777
8.407406
8.408836
8.4093144
8.4618687
8.4612417
8.4597339
8.4575122
8.4547629
8.4516348
8.4483145
8.444725
8.4409068
8.4370555
8.4330774
8.4291967
8.4253501
8.4215094
8.4174569
8.413232
8.4086739
8.4035064
8.3975911
8.3908951
8.3835075
8.3756936
8.3679394
8.360686
8.3542471
8.3487499
8.3444313
8.3412502
8.3390685
8.3374062
8.3904282
8.3920068
8.3942518
8.3975327
8.4019163
8.4074509
8.4138996
8.421158
8.4289162
8.4366971
8.444061
8.45074
8.4566223
8.4617902
8.4663502
8.4705998
8.4746626
8.4785654
8.4824572
8.4863919
8.4903743
8.4942682
8.4980959
8.5017176
8.5050864
8.5082175
8.510954
8.5131779
8.5147395
8.5154667
8.5698538
8.5690508
8.5674673
8.5652425
8.5625028
8.5593801
8.5559831
8.5523265
8.5484854
8.5445541
8.5405618
8.5365895
8.5326482
8.5286923
8.5246165
8.5203592
8.5157956
8.5106468
8.504816
8.4981939
8.4908806
8.4831593
8.4754357
8.4681866
8.4617319
8.4561823
8.4517445
8.4483974
8.4461023
8.4445677
8.4997141
8.501213
8.5035417
8.5069332
8.5114092
8.5169475
8.5233825
8.530585
8.5382357
8.5458576
8.5530712
8.5595987
8.5653518
8.5704558
8.5750116
8.5792679
8.5833547
8.5873527
8.5913386
8.5953411
8.5993492
8.6033083
8.6071643
8.610847
8.614266
8.6173791
8.620115
8.622338
8.6239298
8.6247826
8.6800516
8.6791622
8.6775691
8.6753521
8.6726336
8.6695231
8.6660915
8.6623992
8.6585281
8.6545483
8.6505251
8.646497
8.6424759
8.638454
8.6343552
8.6301125
8.6255835
8.6205595
8.614912
8.6085266
8.6014762
8.5939977
8.5864711
8.579361
8.5729801
8.5674759
8.5629886
8.5595758
8.557228
8.5557549
8.6126271
8.6140734
8.6164232
8.6198354
8.6243047
8.629751
8.6360422
8.643008
8.6503506
8.6576229
8.6644512
8.6706403
8.676137
8.6810512
8.6855267
8.6897409
8.6938378
8.697872
8.7019129
8.7059577
8.709991
8.7139815
8.7178612
8.7215548
8.7249896
8.7280894
8.7307858
8.7329889
8.7345758
8.735488
8.7909938
8.7900673
8.7884937
8.7863151
8.7836453
8.7805669
8.777143
8.7734547
8.7695788
8.7655931
8.761559
8.7575101
8.753469
8.7494355
8.7453618
8.7411928
8.7368015
8.7320313
8.7267326
8.720796
8.7142527
8.7072539
8.7001562
8.6933792
8.687219
8.6818599
8.6774373
8.674048
8.6717121
8.6702912
8.7287417
8.7301303
8.7324378
8.7357834
8.7401348
8.7453773
8.7513682
8.7579105
8.7647104
8.7713747
8.7775773
8.7832099
8.7882675
8.7928608
8.797139
8.8012385
8.8052691
8.8092806
8.813304
8.817338
8.8213564
8.8253219
8.8291782
8.8328453
8.8362438
8.8392889
8.8419208
8.8440648
8.8456176
8.8465494
8.9022248
8.901295
8.8997704
8.8976719
8.8950928
8.8920946
8.8887395
8.885112
8.8812951
8.8773676
8.873386
8.8693904
8.8654078
8.8614433
8.8574797
8.8534755
8.8493388
8.8449503
8.8401697
8.8348802
8.8290612
8.8227768
8.8163139
8.8100399
8.8042482
8.799147
8.794889
8.7916058
8.7893414
8.7879903
8.8480679
8.8493737
8.8515812
8.8547851
8.8589306
8.8638727
8.8694472
8.8754363
8.8815442
8.887427
8.8928424
8.8977681
8.9022514
8.9064141
8.9103862
8.914271
8.9181428
8.9220337
8.9259497
8.9298813
8.9338002
8.9376652
8.9414189
8.9449846
8.9482758
8.9512081
8.9537185
8.9557578
8.9572435
8.9581638
8.9643027
8.9603754
8.9561922
8.9516277
8.9466086
8.9411199
8.9353603
8.9296555
8.9243039
8.9195318
8.9155142
8.9124043
8.9102658
8.909012
8.9708626
8.9720571
8.9741152
8.9771184
8.9809976
8.9855957
8.9907323
8.9961735
9.0016173
9.0067486
9.0114062
9.0156357
8.966082
8.9102447
8.854643
8.7991313
8.7436436
8.6882019
8.6329147
8.5779547
8.5235409
8.469916
8.4173463
23.575613
23.991666
24.431021
24.933838
25.672415
26.582052
27.124513
26.573089
25.099792
25.095373
25.313035
25.404823
25.484852
25.576709
25.679298
25.789214
25.914558
26.062956
26.255472
26.455903
25.660272
25.503465
25.04796
24.944707
24.637059
24.539239
24.224097
24.116153
23.80885
23.702011
23.435412
23.339551
23.117449
23.037852
22.868036
22.792837
22.615274
22.539562
22.375105
22.29706
22.117803
22.045526
21.916129
21.848681
21.692029
21.609389
21.444395
21.355997
21.187852
21.103662
20.964945
20.891675
20.769432
20.719362
20.663703
20.642408
20.605294
20.584501
20.54368
20.525377
20.492359
20.485669
20.495122
20.515443
20.55829
20.589986
20.646718
20.677412
20.709198
20.726139
20.754783
20.773269
20.801843
20.821111
20.8636
20.890949
20.938371
20.966673
21.031731
21.074599
21.157997
21.201335
21.284849
21.328485
21.424339
21.556246
21.953648
22.329326
23.168282
23.787804
24.851831
25.889853
27.749035
28.40401
29.141802
30.887386
32.920718
33.485682
33.772165
33.200195
30.815001
28.972412
28.861537
27.66828
25.844831
24.79963
23.781358
23.133632
22.343788
21.953213
21.590635
21.456822
21.369778
21.326871
21.252563
21.20817
21.128909
21.081842
21.020976
20.991708
20.946767
20.917998
20.878035
20.85784
20.832562
20.811312
20.785965
20.76818
20.740655
20.706614
20.65147
20.61407
20.572102
20.548251
20.539279
20.545483
20.574524
20.592008
20.624994
20.647006
20.681268
20.702878
20.752128
20.804958
20.916361
20.993107
21.119505
21.207547
21.363205
21.456959
21.608211
21.69546
21.841331
21.912099
22.027401
22.104018
22.272053
22.35457
22.503275
22.584928
22.748398
22.82521
22.976665
23.061547
23.263744
23.366465
23.607924
23.723648
24.001806
24.117589
24.40254
24.510839
24.798538
24.914503
25.336206
25.512611
25.364808
25.251908
25.156242
25.072581
24.995585
24.931729
24.872045
24.81091
24.656566
24.398578
24.709249
24.789869
24.71519
24.698899
24.43774
24.291222
24.066854
23.943317
23.756219
23.659788
23.462598
23.371086
23.189767
23.122257
22.969213
22.927767
22.807643
22.773795
22.642779
22.600254
22.465693
22.424242
22.270721
22.242749
22.141976
22.124574
21.986932
21.941499
21.802889
21.761588
21.630515
21.601242
21.490527
21.46778
21.359435
21.349482
21.276937
21.294806
21.226608
21.247859
21.202346
21.23563
21.182925
21.220078
21.193176
21.270594
21.282945
21.383645
21.397679
21.486699
21.464061
21.515486
21.488117
21.554736
21.532732
21.590409
21.573912
21.647989
21.644295
21.717971
21.721482
21.826175
21.852791
21.95027
21.939482
22.006355
22.003407
22.145235
22.348909
22.752574
23.298279
23.975594
24.756116
25.783446
27.130793
28.606699
30.302608
32.429643
34.273982
34.874962
35.191152
34.548024
32.474408
30.335911
28.618318
27.155266
25.82938
24.82699
24.055372
23.395027
22.854673
22.468357
22.271965
22.147737
22.144422
22.088797
22.098772
22.009837
21.96793
21.871644
21.85879
21.800595
21.797042
21.732117
21.738618
21.688647
21.703127
21.64594
21.66685
21.628518
21.640575
21.558582
21.5332
21.437907
21.414835
21.346362
21.36699
21.336576
21.377738
21.347724
21.382272
21.369677
21.432885
21.42497
21.491012
21.509513
21.602754
21.625284
21.722844
21.754955
21.870256
21.913793
22.041211
22.087839
22.21138
22.233721
22.323175
22.355519
22.496444
22.544421
22.669313
22.719515
22.838274
22.872255
22.978455
23.021144
23.159968
23.226959
23.398408
23.495117
23.681017
23.774807
23.95024
24.074779
24.294969
24.44966
24.536161
24.472728
24.121693
24.271564
24.361736
24.140992
24.05725
23.797936
23.922965
24.006663
23.831575
23.758804
23.529153
23.661056
23.737637
23.564399
23.487563
23.240619
23.387308
23.469583
23.306662
23.230422
22.982038
23.155843
23.236909
23.104496
23.028698
22.764355
22.976513
23.05656
22.959988
22.88254
22.606255
22.844534
22.930909
22.816169
22.731242
22.426036
22.676458
22.760727
22.650238
22.574139
22.260456
22.519748
22.602322
22.471241
22.395821
22.074598
22.355151
22.43562
22.355963
22.28131
21.959184
22.255286
22.332297
22.214789
22.143957
21.795631
22.089922
22.161356
22.04274
21.981219
21.643348
21.93606
21.997412
21.896204
21.840002
21.507378
21.811195
21.866425
21.78261
21.736635
21.408236
21.710948
21.757191
21.670368
21.627502
21.299345
21.607321
21.649775
21.591075
21.552092
21.225745
21.548362
21.596361
21.54235
21.494295
21.160962
21.500056
21.553898
21.521862
21.474764
21.142249
21.492425
21.538565
21.503512
21.46189
21.124221
21.478785
21.53028
21.518091
21.471628
21.147734
21.528852
21.583064
21.615434
21.564653
21.2334
21.64646
21.706399
21.738641
21.682539
21.326697
21.750972
21.814458
21.804979
21.744594
21.364217
21.775544
21.838537
21.824461
21.764
21.385525
21.81089
21.878301
21.869832
21.806046
21.412792
21.839874
21.910735
21.907258
21.843363
21.449759
21.891659
21.964478
21.972544
21.896868
21.486745
21.945621
22.028401
22.04556
21.974267
21.567557
22.056328
22.134396
22.183506
22.102597
21.678543
22.180108
22.266462
22.26415
22.18611
21.753443
22.228911
22.312796
22.315902
22.24392
21.881978
22.350695
22.425445
22.616302
22.549645
22.316069
22.906587
22.987107
23.517065
23.433508
23.303237
24.056876
24.163664
24.919554
24.811903
24.731946
25.754219
25.903551
27.21085
27.045975
27.032697
28.481056
28.6773
30.393173
30.274356
30.861148
32.334639
32.494684
34.586736
34.85651
33.660863
34.153656
35.191421
35.270838
35.760156
35.909673
35.12327
35.476468
35.715083
35.738682
35.103214
31.077471
27.373813
25.200236
23.842509
22.920411
22.511325
22.404569
22.341937
22.252665
22.188388
22.165368
22.140417
22.128633
22.115091
22.089587
22.013284
21.941686
21.929071
21.962694
21.997685
22.082419
22.17448
22.30362
22.420941
22.571467
22.739823
22.917215
23.052566
23.258287
23.442022
23.646316
23.839018
24.097651
24.398515
24.772456
25.133903
25.546885
25.795043
26.37381
25.874705
24.472824
25.563872
26.046868
25.615617
25.160753
23.804563
24.755164
25.207649
24.811026
24.360108
23.091929
24.022478
24.482701
24.201309
23.730441
22.52002
23.509792
23.995926
23.781934
23.285078
22.070053
23.090973
23.598979
23.382737
22.869705
21.669641
22.722602
23.243039
23.060981
22.535283
21.327785
22.377706
22.901782
22.752613
22.227439
21.048234
22.112351
22.629818
22.496393
21.974688
20.814941
21.88396
22.395348
22.302198
21.781857
20.649267
21.739358
22.25218
22.209346
21.690374
20.581626
21.698927
22.211857
22.276285
21.746507
20.643861
21.815882
22.349168
22.376817
21.834336
20.690138
21.855104
22.396929
22.410122
21.867769
20.719645
21.891601
22.433628
22.452212
21.908333
20.777131
21.971873
22.516111
22.611767
22.071062
20.966857
22.159292
22.693578
22.836114
22.347354
21.519088
22.804222
23.272379
24.235195
23.775738
23.682402
25.275139
25.630784
27.945997
27.513901
27.240855
26.07151
25.857069
23.227531
20.975275
20.407893
20.219625
20.166134
20.139372
20.098821
20.045186
20.11067
20.27167
20.497142
20.768566
21.105251
21.501843
21.952424
22.516756
23.202647
23.84156
23.369227
22.949523
22.552401
21.910615
22.310238
22.733865
22.06058
21.643433
21.249511
20.707735
21.092979
21.502609
21.054589
20.647699
20.266195
19.894239
20.265587
20.663776
20.333449
19.940026
19.572896
19.228012
19.008469
19.330088
19.686556
20.069947
19.851733
19.473173
19.120637
18.789282
18.668198
18.978435
19.323362
19.695089
19.631794
19.259864
18.914046
18.589769
18.648414
18.959106
19.305417
19.67959
19.715801
19.335143
18.981241
18.650171
18.68616
19.003292
19.357554
19.739438
19.789197
19.399568
19.037262
18.698185
18.880186
19.208991
19.576969
19.972407
20.532251
20.105071
19.710156
19.353366
20.785625
21.204661
21.664438
22.176233
22.772286
24.218152
24.915148
25.03161
30.253561
31.021523
31.991189
32.09359
32.20205
32.599921
34.687144
36.638398
37.927696
38.499557
37.993655
37.065045
36.78663
35.186828
34.212102
34.495386
34.528014
34.860135
35.253612
36.035503
36.779955
36.598812
36.469433
36.359367
36.404384
37.734284
37.954214
38.435774
38.62616
38.423227
38.29225
38.422416
37.635929
37.645806
37.685845
37.755367
37.524365
35.603731
34.88915
34.133575
29.664042
28.96483
28.342351
24.040589
23.292731
24.251887
27.360806
32.246494
33.029305
33.639912
48.51283
62.574051
56.271693
54.829162
50.810829
57.323014
65.149761
70.564259
70.626548
78.551281
102.78288
96.603137
92.030526
84.264093
84.146991
97.684517
86.754011
73.252474
61.618735
56.875089
55.095203
53.950549
51.409368
48.942022
47.248899
47.147823
47.435108
47.746234
47.766442
48.015975
48.163869
48.310192
48.328882
48.275063
48.224489
48.243621
48.170758
48.08807
48.006129
47.939504
47.873084
47.810246
47.750035
47.692108
47.643206
47.603555
47.567934
47.548134
47.551634
47.581815
47.634181
47.723309
47.857041
48.039743
48.269428
48.561449
48.917931
49.349133
49.856323
50.448904
51.127007
51.898568
52.762589
53.725804
53.369972
52.44233
51.610363
50.867041
50.212491
49.638726
49.144521
48.720899
48.365596
48.068992
47.828231
47.632875
47.480584
47.362649
47.276872
47.213606
47.17193
47.146447
47.136241
47.129483
47.121188
47.108471
47.092537
47.069953
47.041728
47.00302
46.961241
46.912299
46.863192
46.821625
46.792657
46.741825
46.564883
46.456943
46.394213
46.364744
46.005891
45.646247
45.280304
45.189341
44.724586
47.922056
47.772868
47.572217
45.793479
44.185368
44.359874
40.958249
41.397488
41.8228
42.276276
42.715881
43.145176
43.501732
43.785849
44.051339
44.327224
44.572304
44.783104
44.959514
45.137634
45.295258
45.450172
45.578504
45.70357
45.802832
45.90136
45.979257
46.059977
46.123888
46.192379
46.250811
46.331088
46.414968
46.52442
46.644632
46.800517
46.978871
47.20417
47.463519
47.782153
48.147687
48.584703
49.080219
49.658332
50.304934
51.043506
51.858218
52.773183
50.721167
49.779865
49.038258
48.23863
47.629579
46.960674
46.472933
45.917503
45.535135
45.073587
44.777595
44.387847
44.158179
43.819885
43.637735
43.331304
43.178841
42.888757
42.751927
42.462222
42.321558
42.017345
41.866869
41.541303
41.369014
41.011578
40.807906
40.41074
40.170104
39.729877
39.450505
38.962416
38.623191
38.072502
37.694722
37.117587
36.691674
36.080553
35.64096
35.070869
34.716158
34.312645
33.983539
40.453819
39.427926
42.360219
43.500469
47.020737
49.035444
48.558042
44.645551
42.171358
47.914247
50.586002
76.082463
76.996239
100.35835
103.74842
108.70187
112.81517
111.36803
104.41322
86.096987
94.036404
103.97968
60.872078
46.7949
51.379942
50.041066
51.268061
66.876896
72.936754
55.246068
51.329724
37.795289
45.329771
49.701136
51.97276
59.701711
53.803892
50.562455
42.972068
49.236347
48.655983
49.195632
75.402146
95.268457
83.308836
60.573598
42.736103
33.74469
27.690371
22.718602
20.171433
18.158776
17.494592
17.29682
17.261826
17.257079
17.261946
17.270971
17.347537
17.501885
17.719406
17.994309
18.348289
18.778673
19.269648
19.812292
20.310403
20.69369
21.400441
21.786029
22.382401
21.939445
18.819645
15.139498
11.994921
10.301474
9.4619446
9.052887
8.8504369
8.7443225
8.6850854
8.6512741
8.5962008
8.5416555
8.4878837
8.4351532
20.68595
21.014051
21.366569
21.000109
18.017914
14.63327
11.783564
10.176892
9.3548725
8.9462277
8.7416849
8.6345381
8.575236
8.5213204
8.4684448
8.2459062
8.2942226
8.3442027
8.395534
8.4479384
8.5011625
8.5550105
8.6093703
8.6642275
8.7196489
8.7757623
8.8327148
8.8906448
8.9496754
9.0098966
9.0081977
8.9479799
8.888939
8.8309813
8.7739815
8.7178039
8.6623071
8.6073698
8.5529387
8.4990395
8.4457896
8.393377
8.3420597
8.2921231
8.2438645
8.1866477
8.1876908
8.1881731
8.1895812
8.1925082
8.1969931
8.2032838
8.2116115
8.2211758
8.2310685
8.239273
8.2874579
8.2794688
8.2699229
8.2606405
8.2525485
8.2462473
8.2416479
8.238515
8.2368013
8.2360516
8.2350549
8.2852756
8.2862267
8.2871863
8.2891274
8.2924375
8.2971187
8.3033977
8.3112932
8.3203355
8.3295851
8.3373523
8.3886887
8.3811024
8.3721107
8.3632813
8.3555444
8.3493173
8.3445812
8.3411716
8.3390533
8.3379287
8.3370168
8.390065
8.3909386
8.3921794
8.3944133
8.3978732
8.4026281
8.4087984
8.4163745
8.4250005
8.4337514
8.4411396
8.4944744
8.4873076
8.4788015
8.4703905
8.4629794
8.4568909
8.4521608
8.4486857
8.4463918
8.4450777
8.4442215
8.4993741
8.5002003
8.5015578
8.5038662
8.507318
8.5119806
8.5179446
8.5251647
8.5333339
8.5415723
8.5484924
8.6030745
8.5964256
8.5884811
8.5805956
8.5736048
8.5678095
8.5632527
8.5598609
8.5575708
8.5562106
8.5554137
8.6122799
8.6130352
8.6143725
8.6166116
8.6199098
8.6243209
8.6299091
8.6366328
8.6442034
8.6518208
8.6581775
8.7138434
8.707776
8.7005027
8.693271
8.6868455
8.6814999
8.6772683
8.6740961
8.6719331
8.6706405
8.6699349
8.7283742
8.7290222
8.7302513
8.7323162
8.7353394
8.7393662
8.744446
8.7505547
8.7574399
8.764373
8.7701703
8.8272921
8.8217275
8.8151099
8.8085609
8.8027696
8.7979653
8.7941584
8.7912988
8.7893485
8.7881977
8.7876117
8.8476792
8.8481992
8.849261
8.8510856
8.8537732
8.8573562
8.8618888
8.8673773
8.8736192
8.8799617
8.8853388
8.9444365
8.9391986
8.9330785
8.927101
8.9218858
8.917608
8.9142426
8.911728
8.9100334
8.9090665
8.9086147
8.9704594
8.9708416
8.9717117
8.9732768
8.975625
8.9787881
8.9828381
8.9878208
8.9935847
8.999539
9.0046826
8.9650062
8.9091608
8.8535584
8.7980528
8.7425777
8.687153
8.6318886
8.5769627
8.5225991
8.4690495
8.4165851
23.284981
23.751537
34.782042
36.180116
44.865639
46.609725
78.798558
70.309638
55.455293
54.472527
57.541874
32.896521
33.303768
33.711183
34.490677
34.863367
31.541823
33.691245
29.572241
26.851183
27.186713
27.629907
28.222374
28.909923
29.641569
30.370678
31.085845
31.768176
32.431559
33.070894
33.709175
34.364058
35.066374
35.81064
36.620571
37.492442
38.448423
39.480613
40.605415
41.81002
43.092214
28.922605
29.155465
30.166261
30.358719
31.034389
31.133389
31.32139
31.398261
32.050569
32.186209
33.099045
33.258918
34.047074
34.161144
34.343177
34.427242
33.995968
33.755601
33.752058
33.695571
33.410581
33.170716
32.327871
31.997879
31.136062
30.860256
30.274184
30.111895
29.880336
29.69273
29.149599
28.829631
28.092343
27.695563
28.41195
28.725337
29.606838
29.854241
30.466918
30.599904
30.800021
30.908011
31.522209
31.71125
32.585888
32.808242
33.612246
33.766782
33.978398
33.736608
33.502759
33.303263
32.49233
32.206963
31.355903
31.114514
30.525919
30.386045
30.171265
30.004775
29.439566
29.1473
28.364715
28.007147
27.396817
27.687344
28.376356
28.613712
29.086339
29.208817
29.354497
29.451136
29.89556
30.074223
30.703704
30.94166
31.685414
31.926318
32.144203
32.0833
28.751842
28.49765
23.574697
24.362065
20.207814
19.200489
19.240212
18.459391
18.521979
17.892127
17.960188
17.411426
17.447436
16.991099
17.033489
16.603322
16.654988
16.297237
16.366084
16.127556
16.248455
16.356906
17.574792
18.343439
18.413366
18.469359
18.590941
18.73082
18.984874
19.238963
19.593783
19.895661
20.263089
20.577537
21.015861
21.383955
21.889812
22.318802
22.977405
27.564724
26.878245
26.353279
25.851942
25.30418
24.672055
24.174101
23.659138
23.105049
22.514674
22.004859
21.59138
21.279299
21.019238
20.780014
20.443305
23.445407
23.65162
24.023699
24.362337
24.677747
25.094772
25.698946
27.036325
26.962621
26.347035
26.302368
25.82876
25.804261
25.410882
25.406371
25.048934
25.062976
23.643268
20.661587
19.815257
18.830854
18.617502
19.58462
18.475927
20.248666
20.515591
23.441678
22.989915
23.217418
23.733582
23.708008
22.966235
25.520367
25.946211
26.183465
26.586895
29.998321
29.680939
28.064907
28.633861
27.550624
26.20935
26.242882
26.523095
26.664008
26.778656
26.89658
27.023515
27.158093
27.308333
27.481546
27.701326
27.920725
26.719837
26.767255
26.981106
27.123415
27.029616
26.046561
25.991217
25.412889
25.376021
24.986226
24.951597
24.525201
24.484314
24.053437
24.010774
23.631326
23.59238
23.277816
23.243441
22.993392
22.96198
22.711853
22.678212
22.439116
22.405459
22.158196
22.126225
21.931315
21.90072
21.686648
21.65048
21.422731
21.384486
21.15898
21.121561
20.927278
20.893944
20.719347
20.694584
20.596041
20.583508
20.519955
20.507741
20.433934
20.425064
20.371285
20.366633
20.370119
20.377453
20.426952
20.439103
20.508338
20.520848
20.566146
20.573983
20.616581
20.625669
20.668254
20.67718
20.735004
20.747689
20.812697
20.826471
20.917206
20.937389
21.049728
21.071161
21.207947
21.233297
21.389752
21.458032
22.048904
22.227945
23.352965
23.76857
24.394692
25.118968
25.678701
26.016854
28.235365
28.83308
29.499745
29.989428
29.926838
30.506483
30.48436
31.416685
31.548758
32.430475
33.288016
33.356268
33.547178
33.4444
32.382669
32.286245
32.014685
31.883043
31.657074
31.447405
30.863014
30.767124
28.944487
28.118999
26.114513
25.562388
25.09718
24.947641
23.781371
23.263727
22.277398
21.989076
21.489263
21.383603
21.257499
21.220264
21.109886
21.076138
20.975997
20.944611
20.866812
20.845695
20.789489
20.76922
20.718489
20.704111
20.66777
20.654599
20.618205
20.60576
20.566318
20.545137
20.481942
20.460953
20.414966
20.402865
20.396813
20.401921
20.445844
20.460638
20.519099
20.535795
20.588129
20.607448
20.685291
20.723677
20.874555
20.928917
21.097919
21.159497
21.359299
21.422901
21.622114
21.681931
21.869462
21.91928
22.084556
22.137337
22.35344
22.408929
22.613343
22.670593
22.890208
22.941956
23.156348
23.214751
23.489072
23.555386
23.885401
23.958879
24.337263
24.408434
24.788908
24.853697
25.206976
25.271234
25.801277
25.901487
26.809406
26.537454
25.70831
25.571196
25.091846
25.00316
24.682119
24.594807
24.255897
24.15942
23.823821
23.726457
23.435926
23.348309
23.103376
23.02833
22.841226
22.773267
22.576522
22.504803
22.327097
22.255966
22.061417
21.99441
21.85115
21.788285
21.619552
21.544303
21.367842
21.287988
21.108878
21.031895
20.882922
20.816161
20.683452
20.636724
20.572294
20.550048
20.503682
20.484371
20.43703
20.417972
20.380023
20.374449
20.382077
20.398345
20.440396
20.467364
20.525279
20.551827
20.585248
20.599855
20.631248
20.647888
20.678906
20.696092
20.740206
20.765481
20.815402
20.841409
20.908375
20.947356
21.037208
21.077852
21.170566
21.214896
21.329269
21.456221
21.890787
22.241905
23.135282
23.717787
24.820417
25.77391
25.859967
25.957432
27.917057
27.732383
27.510813
26.728243
24.848326
24.159664
23.037232
22.525387
21.52639
21.217294
20.770839
20.655022
20.454217
20.399969
20.292884
20.262809
20.172493
20.135793
20.077576
20.063076
20.019862
19.994611
19.958585
19.950144
19.928851
19.910991
19.884818
19.877787
19.854972
19.828679
19.783561
19.768089
19.74639
19.730285
19.730785
19.74186
19.793604
19.805179
19.860927
19.885669
19.965228
19.983757
20.055563
20.099042
20.240698
20.290867
20.42837
20.493923
20.675856
20.7361
20.899231
20.965729
21.153207
21.203296
21.349753
21.412433
21.63663
21.694925
21.880323
21.947243
22.178217
22.233605
22.427228
22.496478
22.780528
22.851457
23.140883
23.224421
23.570244
23.641483
23.943326
24.011382
24.293632
24.355196
24.766357
24.876371
25.571418
25.751222
26.915835
27.996527
28.275198
28.480346
28.565947
28.793152
29.144444
29.799297
30.369933
30.690676
30.942542
31.181833
31.420252
31.657595
31.898614
32.144944
32.42124
32.762952
33.044532
33.411837
33.680968
33.349987
33.09293
32.894708
32.716376
32.550244
32.381423
32.205759
32.012651
31.740257
31.208488
30.113576
30.990818
31.566763
31.855419
32.057617
32.236665
32.4095
32.574244
32.736375
32.920169
33.144867
32.738895
32.492105
32.27639
32.068803
31.864297
31.656253
31.446513
31.219318
30.921067
30.374578
28.921922
29.448913
29.623148
27.199936
26.829784
27.385958
27.412571
27.978166
28.005672
28.615988
28.653484
29.379916
29.446623
30.438652
30.902326
27.826494
22.706485
21.864816
21.64636
20.95641
20.768298
20.204866
20.04242
21.191374
20.03019
19.694212
20.717131
19.571774
19.217933
20.181901
19.129746
18.850401
20.988657
21.214771
21.715834
25.033973
24.358856
24.216806
25.497754
25.468229
26.955216
28.063624
28.222931
28.343295
28.453325
28.566188
28.691194
28.832527
29.018905
29.276694
29.326447
29.106673
28.246732
28.282729
28.503365
28.607357
29.518393
29.538867
29.776485
27.318784
24.192118
23.288555
22.831839
22.09468
25.423393
26.545306
28.056087
29.318959
29.555963
29.565195
29.642636
29.608281
29.509753
29.641108
29.682527
29.712462
29.647117
28.942177
29.388598
29.132551
27.98365
27.839871
27.936741
27.114122
27.033463
26.484723
26.416663
25.918815
25.881394
27.302564
27.138472
26.912974
27.907416
28.0386
28.153963
28.273947
28.402513
28.539717
28.712167
28.927293
28.058021
27.859319
27.70481
27.568795
27.447352
27.33149
27.218993
27.104017
26.963827
27.72906
27.399665
27.759164
27.26219
29.015435
29.548684
26.061131
25.832694
25.484894
24.415662
22.508414
22.004858
22.190937
19.288925
15.421856
12.098595
10.361619
9.5144766
9.1060718
8.905059
8.7996214
8.7405067
8.7066199
8.7620884
8.7608767
8.7054176
8.6500712
8.5950302
8.5405309
8.4868259
8.4341871
33.486069
47.913315
51.310584
26.285422
26.308397
21.850089
22.749945
22.905106
25.083841
25.409902
26.327029
20.031476
20.33704
20.580251
20.813731
21.213131
21.57972
22.086908
22.51165
23.058294
23.493057
24.046848
24.471344
25.01759
25.416742
25.9619
26.404972
27.0179
27.491765
28.131996
28.603419
29.228389
29.637614
30.180598
18.973447
18.586964
19.00274
18.548895
18.873946
18.377412
18.623727
18.095334
18.267849
17.695708
17.792237
17.233176
17.314431
16.806112
16.873101
16.402409
16.454629
16.025367
16.067315
15.695073
15.739584
15.415169
15.45397
15.315792
19.640377
17.523159
17.807974
18.021788
17.883845
17.67226
26.108008
13.121171
13.256195
13.381133
13.533528
13.719957
13.822229
13.944156
14.092759
14.266904
14.459385
14.650085
14.81759
14.93949
14.974425
14.909819
14.744921
14.473077
10.472262
10.515217
10.543911
10.557607
10.557635
10.546432
10.526959
10.501636
10.471302
10.433856
10.394058
10.3492
10.302657
10.258681
10.210525
8.4152347
8.4327766
8.4852193
8.4674888
8.5209473
8.5387822
8.5721714
8.5740964
8.5202082
8.4673698
8.5277693
8.5806225
8.6882113
8.6357333
8.8417037
8.8935469
8.8959815
8.6884307
8.5799281
8.5270663
8.5250572
8.4656054
8.9723884
9.0109004
9.0494355
9.087798
9.1249739
9.160363
9.1938146
9.2250533
9.2544368
9.2823692
9.3091487
9.3348699
9.3598403
9.3845054
9.4094303
9.1339077
9.0836356
9.0349308
8.987635
8.9415437
8.8964122
8.851957
8.8078508
8.7637974
8.7196134
8.6753214
8.6311152
8.5872757
8.5440994
8.5018479
8.3304252
8.3759129
8.4229451
8.4712176
8.5204625
8.5704127
8.6208784
8.6717832
8.7231697
8.775179
8.8280013
8.8818243
8.9368051
8.9930662
9.0506819
27.32004
27.698167
28.361265
28.698289
29.205677
29.409347
29.645338
29.82639
30.387332
30.692062
31.529638
31.900648
31.544692
31.251139
30.987384
30.731843
30.482208
30.235269
29.990137
29.734333
29.422588
28.891218
27.749057
28.284593
28.806507
29.126272
29.394973
29.659193
29.930801
30.20982
30.498669
30.799188
31.132217
30.31546
29.997108
29.708046
29.430396
29.162895
28.902269
28.649488
28.395737
28.097403
27.621689
26.683652
27.195175
27.650023