/*--------------------------------*- C++ -*----------------------------------*\
| =========                 |                                                 |
| \\      /  F ield         | OpenFOAM: The Open Source CFD Toolbox           |
|  \\    /   O peration     | Version:  v2012                                 |
|   \\  /    A nd           | Website:  www.openfoam.com                      |
|    \\/     M anipulation  |                                                 |
\*---------------------------------------------------------------------------*/
FoamFile
{
    version     2.0;
    format      ascii;
    class       surfaceScalarField;
    location    "100";
    object      phi;
}
// * * * * * * * * * * * * * * * * * * * * * * * * * * * * * * * * * * * * * //

dimensions      [0 3 -1 0 0 0 0];
oriented        oriented;


internalField   nonuniform List<scalar> 
43345
(
0.00071468433
0.00021399708
0.00068211001
0.00065356158
4.668583e-05
1.4436918e-05
0.00073791893
-0.00010563544
2.1278094e-05
0.00076646729
-2.3791613e-05
-4.7567543e-06
0.00048633498
0.00026316844
1.6963866e-05
0.00049630801
3.272293e-06
-1.3245323e-05
0.00056517655
-7.5794e-05
6.9254639e-06
0.0006196151
-5.1393744e-05
-3.0448017e-06
0.00065244196
-3.1429288e-05
-1.3975797e-06
0.00067394767
-2.1340601e-05
-1.6510988e-07
0.00069073094
-1.6897543e-05
1.1427502e-07
0.00070499733
-1.4297305e-05
3.0914039e-08
0.00072230996
-1.5109519e-05
-2.2031037e-06
0.00075468873
-2.2520576e-05
-9.858198e-06
0.0008549408
-5.8544892e-05
-4.1707178e-05
0.0012930915
-0.00023601644
-0.0002021343
0.0020241556
-0.00038823402
-0.00034283004
0.0021266228
-9.8211015e-05
-4.2561833e-06
0.0015302967
0.00023571188
0.00036061417
0.00069073504
0.00063805338
0.00020150833
0.00063735594
3.7903482e-05
1.547561e-05
0.00070421542
-8.2004446e-05
1.5144973e-05
0.00045017198
0.00023605118
1.7992251e-05
0.00046504515
-2.7923123e-06
-1.2080849e-05
0.00053659367
-7.8284039e-05
6.7355118e-06
0.00059256978
-5.3323089e-05
-2.6530192e-06
0.00062591727
-3.2621153e-05
-7.263312e-07
0.00064801014
-2.220172e-05
1.0884373e-07
0.00066491687
-1.7059098e-05
1.5237094e-07
0.0006820635
-1.5309589e-05
-1.8370396e-06
0.00071346118
-2.099731e-05
-1.0400372e-05
0.00080510587
-5.1069051e-05
-4.0575637e-05
0.0012265742
-0.00021858845
-0.00020287989
0.0019289256
-0.0003417443
-0.0003606071
0.0020598084
-9.5219939e-05
-3.5662878e-05
0.0019470127
-1.3521978e-05
0.00012631775
0.0021597934
-5.8064818e-05
-0.00015471593
0.0046658944
-0.00083364758
-0.0016724534
0.0083092191
-0.0016369833
-0.0020063414
0.0092922556
-0.00034941497
-0.0006336215
0.0095245008
-4.4965037e-05
-0.00018728022
0.0095657498
2.1557851e-05
-6.2806823e-05
3.0793379e-05
-2.7758081e-05
-0.0099318019
-6.3793467e-06
1.0820323e-05
4.0432097e-07
-0.0099377854
-8.6804927e-06
1.5257229e-05
-5.9325606e-07
-0.0099457619
-1.1824672e-05
2.1568539e-05
-1.7673237e-06
-0.0099567504
-1.5801742e-05
2.983663e-05
-3.0463725e-06
-0.0099716005
-2.0335133e-05
3.9486785e-05
-4.3015571e-06
-0.0099905834
-2.4909998e-05
4.925702e-05
-5.364152e-06
-0.010013579
-2.9057152e-05
5.8183423e-05
-6.1311102e-06
-0.010040219
-3.2458467e-05
6.5675475e-05
-6.5768146e-06
-0.010069827
-3.4876893e-05
7.1188575e-05
-6.7029996e-06
-0.010101334
-3.6066927e-05
7.4063075e-05
-6.4897701e-06
-0.010133426
-3.5877988e-05
7.3902759e-05
-5.9322795e-06
-0.010164801
-3.4292356e-05
7.071333e-05
-5.0465985e-06
-0.010194297
-3.1392236e-05
6.4756412e-05
-3.8681572e-06
-0.010220922
-2.7301463e-05
5.636204e-05
-2.434911e-06
-2.2114057e-05
4.5757702e-05
-7.7868378e-07
0.00012283467
0.00059548552
0.0004709888
9.224732e-05
0.00064134753
0.00073192186
2.6271237e-05
0.00063251581
0.0007429343
1.9757756e-05
0.00066529198
0.0007812777
-8.558923e-07
0.00068247175
0.00079630604
-8.8412658e-06
0.00068603128
0.00080647796
-8.2619291e-06
0.00068236353
0.00080342623
-1.4249181e-05
0.0006763833
0.00079631783
-7.9358775e-06
0.00067154734
0.0007906216
-1.1499056e-05
0.00066804405
0.00078371443
-5.7250882e-06
0.00066604626
0.0007806099
-7.477704e-06
0.00066505424
0.00077731066
-3.1946616e-06
0.00066499369
0.00077684137
-4.6575879e-06
0.00066627822
0.00077758422
-4.636259e-06
0.00066835654
0.0007802733
0.00066965279
0.00078223299
0.0099874044
5.0919568e-05
-8.4213136e-06
0.0099451653
5.0349452e-05
-8.1103074e-06
0.0099043267
4.861295e-05
-7.7743935e-06
0.0098658661
4.5885411e-05
-7.4247914e-06
0.0098305484
4.2398891e-05
-7.0811733e-06
0.0097988787
3.8408294e-05
-6.7386703e-06
0.0097710927
3.4185648e-05
-6.3995498e-06
0.0097471937
2.9976367e-05
-6.077403e-06
0.0097270114
2.5954435e-05
-5.7721621e-06
0.0097102612
2.2225299e-05
-5.4751228e-06
1.886135e-05
-5.1906944e-06
-0.010240679
3.8380117e-05
-5.5200135e-06
-0.010257868
4.5226091e-05
-5.8123176e-06
-0.010278624
5.2829693e-05
-6.1188524e-06
-0.010303283
6.1070914e-05
-6.4353009e-06
-0.01033207
6.9746226e-05
-6.7736128e-06
-0.010365057
7.8529478e-05
-7.1348052e-06
-0.010402071
8.6925564e-05
-7.5127e-06
-0.010442634
9.4352564e-05
-7.903656e-06
-0.010485958
0.00010024262
-8.3052272e-06
-0.010530987
0.00010407616
-8.6979469e-06
0.00010545577
-9.0660194e-06
0.011363767
0.00016635852
-1.0749332e-05
0.011314566
0.00016353929
-1.0261316e-05
0.011267836
0.0001567067
-9.7348239e-06
0.01122475
0.00014663191
-9.1927701e-06
0.011186048
0.00013429016
-8.6626135e-06
0.011152066
0.00012067327
-8.1621518e-06
0.011122764
0.00010675138
-7.7028736e-06
0.011097851
9.3269139e-05
-7.2850717e-06
0.011076956
8.0625891e-05
-6.9013576e-06
0.011059687
6.9038846e-05
-6.5441165e-06
5.8631452e-05
-6.2082929e-06
-0.011873476
7.8083283e-05
-6.5780814e-06
-0.011889257
9.1707075e-05
-6.8868445e-06
-0.011908306
0.00010689411
-7.2199398e-06
-0.011931062
0.00012362673
-7.601136e-06
-0.011958142
0.00014187945
-8.04868e-06
-0.01199033
0.00016143522
-8.573718e-06
-0.012028262
0.0001813915
-9.1687893e-06
-0.012072095
0.00020027101
-9.8065525e-06
-0.012121352
0.00021644706
-1.0482912e-05
-0.012174748
0.00022810551
-1.1170138e-05
0.00023376164
-1.1828663e-05
0.012701874
0.00030660744
-1.1920845e-05
0.012645642
0.0002953859
-1.104841e-05
0.01259689
0.00027545296
-1.025322e-05
0.012557028
0.0002496949
-9.5622127e-06
0.012525704
0.0002216301
-8.9140362e-06
0.012501454
0.00019393609
-8.251256e-06
0.01248223
0.00016874527
-7.6415156e-06
0.012466283
0.00014674326
-7.1694403e-06
0.012452715
0.000127308
-6.8465127e-06
0.012441189
0.00010986123
-6.6281636e-06
9.4149197e-05
-6.4455024e-06
-0.01272003
0.00010428984
-6.1780847e-06
-0.01272403
0.00012010038
-6.239419e-06
-0.012727619
0.00013728248
-6.3854006e-06
-0.012730576
0.00015647346
-6.7726828e-06
-0.012733713
0.00017933042
-7.4484646e-06
-0.012740365
0.00020884492
-8.2568742e-06
-0.012755583
0.00024579657
-8.9480586e-06
-0.012783895
0.00028743226
-9.4258498e-06
-0.012827629
0.00032913728
-9.9500029e-06
-0.012884972
0.0003635309
-1.0801753e-05
0.00038496571
-1.1969873e-05
0.012814074
0.0004708226
-1.2298069e-05
0.012755666
0.00043255685
-1.0617935e-05
0.012721137
0.00037330181
-9.6346074e-06
0.012714014
0.00030413121
-9.5766677e-06
0.012727772
0.00024195232
-9.9134175e-06
0.012751107
0.00019521611
-9.7066735e-06
0.012773153
0.00016596698
-8.6818145e-06
0.012788956
0.00014804039
-7.3701894e-06
0.01279891
0.00013376912
-6.4406755e-06
0.012804959
0.00012014607
-6.0950013e-06
0.00010672646
-6.0233452e-06
-0.012786012
0.00010141691
-6.1117802e-06
-0.012770502
0.00011132422
-6.688218e-06
-0.012748272
0.0001198128
-8.2733413e-06
-0.012713926
0.00012507049
-1.137664e-05
-0.012661528
0.00012824029
-1.4671289e-05
-0.012594553
0.00014337651
-1.5135193e-05
-0.012534509
0.00019405522
-1.214672e-05
-0.012510069
0.00028845363
-8.7627109e-06
-0.012535856
0.00040722666
-8.1373355e-06
-0.012600468
0.0005068376
-9.6686954e-06
0.00056826851
-1.2046685e-05
0.012332531
0.00068173969
-1.0952036e-05
0.012248186
0.00059896229
-7.7799745e-06
0.01221566
0.00044301911
-3.265673e-06
0.012276566
0.00023025136
-2.7042307e-06
0.012400185
8.7021596e-05
-1.6585336e-05
0.012514791
6.2953646e-05
-3.4183319e-05
0.012587289
9.1645812e-05
-3.5903013e-05
0.012627042
0.00010992993
-2.461231e-05
0.012651297
0.00010957228
-1.4015242e-05
0.012670445
0.00010066831
-8.4915197e-06
9.1551748e-05
-6.3741777e-06
-0.01237197
8.0869558e-05
-5.5760352e-06
-0.01235925
9.8750776e-05
-1.080287e-05
-0.012352041
0.00012955132
-2.7187894e-05
-0.012339315
0.00015657472
-5.9370398e-05
-0.012276703
0.00014504081
-0.00011600689
-0.012103379
2.4486863e-05
-0.00013485799
-0.011771067
-0.00020219754
-4.3092182e-05
-0.011711657
0.00014392864
2.6912167e-05
-0.011813949
0.00052954886
1.5762104e-05
-0.011928974
0.00071583683
-1.849647e-06
0.0007972151
-1.1535991e-05
0.010784388
-0.0009463726
0.0017663439
7.1733343e-05
0.010623296
-0.00087182599
0.001734167
0.00018223001
0.01059688
-0.00094521524
0.0016500301
0.00015318717
0.010892174
-0.00095344393
0.0016188882
-0.00013720516
0.011168348
-0.00089382279
0.0015680321
-0.00015316814
0.010957684
-0.0008272533
0.0016126663
0.0001410872
0.010705267
-0.000842011
0.0014664487
0.00015752893
0.010542334
-0.0010220817
0.0011738707
0.00015507277
0.011372621
-0.001390082
0.0002560024
0.00010159455
0.01173319
0.00061490039
-0.00095098216
0.011836232
0.00035201082
-0.00031001279
0.011818887
0.00032996303
-0.00015604302
0.011798471
0.00019629401
-4.6326347e-05
0.011800322
0.00010619487
-9.2956058e-06
7.072529e-05
-5.9832905e-07
-0.010980558
5.6015468e-05
7.0273408e-06
-0.010972628
0.00010190032
-3.63506e-06
-0.01096124
0.00024927009
-6.4364446e-05
-0.010911607
0.00060797141
-0.00032764143
-0.010451225
0.0012121098
-0.001320481
-0.0030648413
-0.0011084967
0.00039375339
-0.0047405554
-0.0013161846
0.0017806675
-0.00080919311
-0.0019108844
-0.0021254313
0.001801385
-0.00048854427
-0.00064066991
0.0022732137
-0.00014596355
6.7888297e-05
0.0007715498
0.0047152298
-0.0012380058
-0.0019755602
-0.0017161174
0.0030232967
-0.001369277
-0.0017655764
-5.3789047e-05
4.5183225e-05
-0.0020562572
0.00019623164
8.0927149e-05
-0.0021461254
-5.1804227e-05
4.6452535e-05
-0.00091003375
-5.088518e-05
-0.0011846808
-0.00034227005
-0.0008324489
-0.00013751059
-0.00015866271
-0.00078936329
-5.8912022e-05
-3.524264e-05
-0.00075444291
-4.805692e-05
-7.8607704e-06
-0.00074581113
-2.3590522e-05
-3.5084917e-07
-0.00072086551
-4.3641452e-05
1.6367281e-06
-0.00070785323
-3.6959035e-05
1.7450407e-06
-0.00066879761
-7.1932025e-05
2.5525142e-07
-0.00062504156
-9.3736349e-05
-3.3427848e-06
-0.00046520926
-0.00023830588
1.8953948e-07
-0.00045691795
-1.108362e-05
-0.0002313649
1.0498137e-05
-0.0011198456
6.0229347e-05
0.000761778
6.647338e-05
-0.00057035079
-0.00064276949
1.1270199e-05
-0.00052951129
-2.9360171e-06
5.5499424e-05
5.3042663e-05
-0.0024851772
-0.00030364648
0.0019836351
0.00021791852
-0.0023698596
-0.00011190897
0.00023230326
-0.002321093
-0.00012709598
-1.9881659e-05
-0.00095966409
-9.7217347e-05
-0.0012574277
-0.00039501794
-0.00087599069
-0.00017117651
-0.00014851332
-0.00083107663
-6.5773886e-05
-3.7685063e-05
-0.00079498926
-5.0103971e-05
-8.5039731e-06
-0.00078709695
-2.1834577e-05
-1.1672584e-06
-0.00076338985
-3.8871688e-05
8.672814e-07
-0.00075536591
-2.5969776e-05
1.0482947e-06
-0.000725817
-5.1732559e-05
8.4305469e-07
-0.00070415498
-5.2133504e-05
-9.5780536e-07
-0.00064751297
-0.00010333666
-4.6991026e-06
-0.00050443109
-0.00021844133
-4.3454388e-07
-0.00048939278
-1.1766014e-05
-0.00023702041
1.079607e-05
-0.00088097231
-0.00046781291
0.001078491
3.3273773e-05
-0.0010636867
1.78487e-05
0.00014107412
-0.00058578018
-0.00060088435
1.7342342e-05
-0.0005352033
-3.891054e-06
9.4560567e-05
5.2346151e-05
0.0019773164
-0.00019491567
0.00019639124
0.0098551644
1.1707989e-05
1.4735329e-06
0.0098391028
1.324177e-05
2.8199016e-06
0.0098207321
1.4456324e-05
3.9143289e-06
0.0098006455
1.5339395e-05
4.7472719e-06
0.0097794332
1.5900329e-05
5.3119382e-06
0.0097576696
1.6155663e-05
5.6079362e-06
0.0097358709
1.6132675e-05
5.6660225e-06
0.0097144847
1.5872503e-05
5.5137059e-06
0.009693899
1.5417391e-05
5.16829e-06
0.0096744201
1.4808473e-05
4.6703796e-06
0.0096562631
1.4075182e-05
4.0818464e-06
0.0096395574
1.3268065e-05
3.437617e-06
0.0096243617
1.2440402e-05
2.7553588e-06
0.009610679
1.1610619e-05
2.0720517e-06
1.0787767e-05
1.42684e-06
2.1752155e-05
-0.0099577622
1.6443759e-06
3.3253809e-05
-0.010516356
1.7523731e-06
4.5146004e-05
-0.011055366
1.9305277e-06
5.6897765e-05
-0.011393886
2.3415237e-06
6.7981925e-05
-0.011507939
2.9570262e-06
7.7941174e-05
-0.01148018
3.8261071e-06
8.6346529e-05
-0.011403007
5.046167e-06
9.2782639e-05
-0.011331185
6.6861836e-06
9.6949452e-05
-0.011283114
8.662845e-06
9.8633756e-05
-0.011257338
1.0896105e-05
9.7952249e-05
-0.01124639
1.3054758e-05
-0.011243647
1.4899433e-05
-4.6870573e-05
-0.011407953
1.8670416e-05
-5.1831424e-05
-0.011353207
1.8731064e-05
-5.6845765e-05
-0.011320249
1.8882827e-05
-6.1981868e-05
-0.011301539
1.9116831e-05
-6.7300059e-05
-0.011290449
1.9412423e-05
-7.2835887e-05
-0.011282908
1.9738032e-05
-7.8577598e-05
-0.01127691
2.004141e-05
-8.4439028e-05
-0.011271615
2.0249207e-05
-9.0223805e-05
-0.011266911
2.0253619e-05
-9.5596411e-05
-0.011262768
1.9920139e-05
-0.00010006973
-0.011259595
1.9102076e-05
-0.00010306691
-0.011258368
1.7718031e-05
-0.00010399861
-0.011261219
1.5760305e-05
-0.00010247821
-0.011272302
1.3443848e-05
-9.8346557e-05
-0.011298253
1.100748e-05
-9.1781443e-05
-0.011346544
8.7930711e-06
-8.3070649e-05
-0.011418622
6.9044899e-06
-7.2630977e-05
-0.011496053
5.4333566e-06
-6.0913765e-05
-0.011523986
4.3302115e-06
-4.8414144e-05
-0.011409882
3.4962015e-06
-3.5708886e-05
-0.011070969
2.8977105e-06
-2.3386417e-05
-0.010531249
2.5701427e-06
-0.0099718994
2.361382e-06
2.5050344e-05
-0.0099876419
3.1325453e-06
3.822415e-05
-0.010547879
3.4567159e-06
5.1769307e-05
-0.011088458
3.9431104e-06
6.5042031e-05
-0.011427908
4.7535764e-06
7.7410967e-05
-0.011542192
5.8373533e-06
8.8344992e-05
-0.011514204
7.2175652e-06
9.7365025e-05
-0.011436628
8.9859362e-06
0.00010405308
-0.011364403
1.1171445e-05
0.00010813233
-0.011316002
1.3669948e-05
0.00010946466
-0.011289981
1.6346352e-05
0.00010825849
-0.011278861
1.8848473e-05
0.00010494666
-0.01127599
2.0934327e-05
0.00010015351
-0.011277206
2.2404131e-05
9.4477974e-05
-0.011280363
2.3271365e-05
8.8414819e-05
-0.011284485
2.3637316e-05
8.2301313e-05
-0.011289153
2.3651361e-05
7.6328208e-05
-0.011294395
2.3458508e-05
7.0577527e-05
-0.011300324
2.316572e-05
6.5052733e-05
-0.011307777
2.2853404e-05
5.9712566e-05
-0.01131877
2.2571519e-05
5.4491091e-05
-0.011337383
2.235575e-05
4.9316822e-05
-0.011370258
2.222483e-05
4.4120319e-05
-0.011424947
2.2190323e-05
3.884701e-05
-0.011502969
2.2244743e-05
3.3457786e-05
-0.011585781
2.2350025e-05
2.7914553e-05
-0.011618085
2.2427602e-05
2.2192476e-05
-0.011506442
2.2337213e-05
1.6346774e-05
-0.011167156
2.1860079e-05
1.0598373e-05
-0.010624297
2.085719e-05
-0.010060738
1.9600586e-05
-1.1203442e-05
-0.010078155
2.3144741e-05
-1.7295925e-05
-0.010642862
2.4657481e-05
-2.3475975e-05
-0.011186833
2.5857245e-05
-2.9496271e-05
-0.011526844
2.6421911e-05
-3.530125e-05
-0.011638802
2.6522708e-05
-4.0934991e-05
-0.011606564
2.6416181e-05
-4.644063e-05
-0.011523732
2.6268895e-05
-5.1857776e-05
-0.011445702
2.6172607e-05
-5.7241462e-05
-0.011391045
2.6171345e-05
-6.2661374e-05
-0.011358236
2.6272747e-05
-6.8193246e-05
-0.011339703
2.6464856e-05
-7.3910222e-05
-0.011328785
2.6724529e-05
-7.9860448e-05
-0.011321391
2.701783e-05
-8.6046558e-05
-0.0113155
2.7291115e-05
-9.2396151e-05
-0.011310269
2.7465267e-05
-9.8723733e-05
-0.011305581
2.742328e-05
-0.00010469493
-0.011301411
2.7018636e-05
-0.0001098077
-0.011298179
2.6086557e-05
-0.00011344354
-0.011296873
2.4518541e-05
-0.0001149378
-0.011299646
2.2279661e-05
-0.00011380791
-0.011310671
1.9559951e-05
-0.00010979184
-0.011336622
1.6604428e-05
-0.00010298367
-0.011384986
1.3774811e-05
-9.3648476e-05
-0.011457205
1.124138e-05
-8.2209866e-05
-0.011534773
9.1295684e-06
-6.9178454e-05
-0.011562659
7.4354025e-06
-5.5122439e-05
-0.011448033
6.0689323e-06
-4.0733608e-05
-0.011107871
5.0246488e-06
-2.6708031e-05
-0.010566266
4.3612757e-06
-0.010004992
3.9098666e-06
2.8307848e-05
-0.010023869
4.6442126e-06
4.3147502e-05
-0.010586333
5.2272194e-06
5.8353676e-05
-0.011129161
6.0839787e-06
7.3175947e-05
-0.011470241
7.385767e-06
8.686833e-05
-0.011585412
9.0604397e-06
9.8814167e-05
-0.011557822
1.1103673e-05
0.00010846976
-0.01148046
1.3599422e-05
0.00011540246
-0.011408443
1.6524084e-05
0.00011935617
-0.011360307
1.9731286e-05
0.00012028228
-0.011334605
2.3008266e-05
0.0001185033
-0.011323842
2.5974888e-05
0.00011455466
-0.011321312
2.8388385e-05
0.00010913767
-0.011322836
3.0073415e-05
0.00010289219
-0.011326246
3.1080268e-05
9.6323599e-05
-0.011330549
3.1536692e-05
8.9764071e-05
-0.011335326
3.1616462e-05
8.3390509e-05
-0.011340602
3.1475695e-05
7.7266557e-05
-0.011346499
3.123188e-05
7.137875e-05
-0.011353866
3.0968596e-05
6.5671842e-05
-0.011364736
3.0739906e-05
6.0067466e-05
-0.011383215
3.0583797e-05
5.448494e-05
-0.011415985
3.0522267e-05
4.8852426e-05
-0.01147064
3.0570161e-05
4.3115902e-05
-0.011548713
3.0717317e-05
3.7234938e-05
-0.011631598
3.0915511e-05
3.1160728e-05
-0.011663786
3.1058423e-05
2.4833851e-05
-0.011551466
3.0948892e-05
1.829686e-05
-0.011210583
3.0287385e-05
1.1835825e-05
-0.010665273
2.8871466e-05
-0.010099169
2.7077665e-05
-1.2501879e-05
-0.010124057
3.1312382e-05
-1.9354023e-05
-0.010691827
3.3406531e-05
-2.6257964e-05
-0.011238741
3.5061568e-05
-3.2901122e-05
-0.011580649
3.5826022e-05
-3.9251441e-05
-0.011693375
3.5939098e-05
-4.5380422e-05
-0.011661221
3.5752005e-05
-5.1344309e-05
-0.011578243
3.5493639e-05
-5.7183195e-05
-0.011500084
3.5283291e-05
-6.2950351e-05
-0.011445394
3.5175741e-05
-6.8720509e-05
-0.011412626
3.5181234e-05
-7.4577357e-05
-0.011394167
3.528741e-05
-8.0605073e-05
-0.011383307
3.5469003e-05
-8.6869464e-05
-0.011375923
3.5687878e-05
-9.3392724e-05
-0.011369965
3.5886155e-05
-0.00010012293
-0.011364577
3.5980895e-05
-0.00010689228
-0.011359628
3.5847637e-05
-0.00011337509
-0.011355089
3.5326171e-05
-0.00011906062
-0.011351378
3.4227952e-05
-0.00012329185
-0.011349492
3.2410766e-05
-0.00012533205
-0.011351605
2.9803033e-05
-0.00012458989
-0.011361909
2.6562167e-05
-0.00012068354
-0.011387141
2.292709e-05
-0.00011361642
-0.011434814
1.9304308e-05
-0.00010363811
-0.011506393
1.5954965e-05
-9.1195202e-05
-0.011583313
1.3048255e-05
-7.6868602e-05
-0.011610373
1.0634256e-05
-6.1325354e-05
-0.011494422
8.6377529e-06
-4.5360111e-05
-0.0111522
7.0735012e-06
-2.9769713e-05
-0.010607948
6.0248359e-06
-0.010044148
5.3178385e-06
3.1002416e-05
-0.010065623
5.8900439e-06
4.724564e-05
-0.010630899
6.7075468e-06
6.3878005e-05
-0.011176765
7.9321259e-06
8.0065343e-05
-0.011520355
9.7450389e-06
9.4967056e-05
-0.011637328
1.2053724e-05
0.00010787673
-0.011611059
1.4835853e-05
0.00011817284
-0.011534848
1.8158838e-05
0.00012539021
-0.011463979
2.1947673e-05
0.00012927829
-0.011417034
2.6005504e-05
0.00012987547
-0.011392528
3.0021147e-05
0.00012762389
-0.011382912
3.3558356e-05
0.00012316569
-0.011381417
3.6383508e-05
0.00011727315
-0.011383839
3.8353441e-05
0.00011061621
-0.011387994
3.9562098e-05
0.00010370729
-0.011392887
4.0168193e-05
9.68633e-05
-0.011398105
4.0372336e-05
9.0241798e-05
-0.011403686
4.0341905e-05
8.3882435e-05
-0.01140977
4.0206575e-05
7.7752714e-05
-0.011417228
4.0051285e-05
7.1779181e-05
-0.011428128
3.9934378e-05
6.5868411e-05
-0.01144661
3.9894577e-05
5.9932246e-05
-0.011479414
3.9956653e-05
5.3896874e-05
-0.011534186
4.013689e-05
4.7710634e-05
-0.01161248
4.042362e-05
4.1334931e-05
-0.011695602
4.0756236e-05
3.4705764e-05
-0.011727746
4.099973e-05
2.7735365e-05
-0.011614571
4.0892677e-05
2.0452984e-05
-0.011271491
4.0032888e-05
1.3200217e-05
-0.010722718
3.8143568e-05
-0.010153003
3.5746669e-05
-1.3922084e-05
-0.010186006
4.0186468e-05
-2.1582688e-05
-0.010757924
4.2866911e-05
-2.9253875e-05
-0.01130879
4.4969993e-05
-3.6555504e-05
-0.011653178
4.5908874e-05
-4.3466351e-05
-0.011766832
4.5997234e-05
-5.0086333e-05
-0.011734666
4.5683808e-05
-5.6486685e-05
-0.011651343
4.5263084e-05
-6.2704173e-05
-0.011572853
4.4885099e-05
-6.8787557e-05
-0.011517949
4.4618332e-05
-7.4809583e-05
-0.011485061
4.4472746e-05
-8.086314e-05
-0.011466506
4.4431634e-05
-8.7046076e-05
-0.011455514
4.4468582e-05
-9.3441625e-05
-0.011447917
4.4542934e-05
-0.00010009352
-0.011441631
4.4597354e-05
-0.00010697375
-0.011435768
4.4543127e-05
-0.0001139374
-0.011430171
4.4248045e-05
-0.00012067789
-0.011424791
4.3537668e-05
-0.00012668837
-0.011420029
4.2199838e-05
-0.0001312879
-0.011416876
4.0058319e-05
-0.00013367394
-0.011417526
3.6999855e-05
-0.00013315985
-0.0114262
3.3157934e-05
-0.00012924516
-0.011449704
2.8755024e-05
-0.00012185955
-0.011495628
2.4263564e-05
-0.00011126055
-0.011565496
2.0048615e-05
-9.7936223e-05
-0.011640715
1.6331801e-05
-8.2545939e-05
-0.011665926
1.3206908e-05
-6.5833323e-05
-0.011547683
1.0615881e-05
-4.8670601e-05
-0.01120251
8.5822655e-06
-3.1924119e-05
-0.010654851
7.2057494e-06
-0.01008797
6.2959004e-06
3.2452837e-05
-0.010110779
6.4881117e-06
4.9501213e-05
-0.010679363
7.4633078e-06
6.7001065e-05
-0.011228964
8.9544332e-06
8.407773e-05
-0.011575923
1.1162769e-05
9.9834622e-05
-0.011695669
1.3987034e-05
0.00011349544
-0.01167178
1.7404527e-05
0.00012437268
-0.011597837
2.1464327e-05
0.00013194595
-0.011529266
2.60647e-05
0.00013594535
-0.01148466
3.095633e-05
0.00013646489
-0.011462443
3.5723618e-05
0.00013405362
-0.011454969
3.9854425e-05
0.00012943398
-0.011455394
4.3137948e-05
0.00012342717
-0.011459473
4.5450985e-05
0.0001167192
-0.011465009
4.6926006e-05
0.00010980824
-0.011471015
4.7754763e-05
0.00010298841
-0.011477106
4.8157604e-05
9.6389607e-05
-0.01148335
4.8317516e-05
9.0027683e-05
-0.011489921
4.8365713e-05
8.3848386e-05
-0.011497728
4.8393284e-05
7.7761635e-05
-0.011508875
4.8456125e-05
7.1663554e-05
-0.011527561
4.8597885e-05
6.5460796e-05
-0.011560592
4.8846148e-05
5.9081547e-05
-0.011615692
4.9217591e-05
5.2479945e-05
-0.011694442
4.9700304e-05
4.5621264e-05
-0.011778028
5.0221139e-05
3.843005e-05
-0.011810257
5.0615613e-05
3.0793987e-05
-0.011696102
5.0559742e-05
2.272971e-05
-0.011350289
4.9562748e-05
1.4655343e-05
-0.010797128
4.7278028e-05
-0.01022279
4.4358595e-05
-1.5391199e-05
-0.010262803
4.797956e-05
-2.3876319e-05
-0.010839719
5.107623e-05
-3.2328879e-05
-0.011395333
5.3497233e-05
-4.0299237e-05
-0.011742655
5.4523489e-05
-4.776563e-05
-0.011857319
5.4528937e-05
-5.4853485e-05
-0.01182498
5.4039861e-05
-6.1639822e-05
-0.011741062
5.3406339e-05
-6.8155267e-05
-0.01166198
5.2803396e-05
-7.4442539e-05
-0.011606616
5.231042e-05
-8.0571221e-05
-0.011573371
5.1938832e-05
-8.6637577e-05
-0.011554482
5.1673839e-05
-9.2746714e-05
-0.011543104
5.1485199e-05
-9.899407e-05
-0.011535005
5.1331398e-05
-0.0001054428
-0.011528057
5.115605e-05
-0.00011208866
-0.01152133
5.087018e-05
-0.00011881652
-0.011514628
5.0341128e-05
-0.00012534741
-0.011507862
4.9383153e-05
-0.00013119656
-0.011501395
4.7771543e-05
-0.0001356835
-0.011496207
4.5299936e-05
-0.00013798007
-0.011494492
4.1819338e-05
-0.00013734524
-0.011500524
3.7446629e-05
-0.00013318936
-0.011521191
3.2374992e-05
-0.00012540948
-0.0115642
2.7153941e-05
-0.00011430111
-0.011631194
2.2248556e-05
-0.00010041256
-0.011703596
1.7926822e-05
-8.445847e-05
-0.011725926
1.4302714e-05
-6.7230057e-05
-0.011604465
1.1314328e-05
-4.9626676e-05
-0.011255563
8.995841e-06
-3.2512752e-05
-0.010703917
7.4401955e-06
-0.010133576
6.4402681e-06
3.2024911e-05
-0.010155826
6.125406e-06
4.8932697e-05
-0.010727932
7.1070625e-06
6.6375941e-05
-0.011281674
8.6672725e-06
8.3515219e-05
-0.011632621
1.1016791e-05
9.9473668e-05
-0.011755948
1.4063245e-05
0.00011345413
-0.011735374
1.7798401e-05
0.00012472721
-0.011664728
2.2260937e-05
0.0001327142
-0.011599538
2.7350654e-05
0.00013709821
-0.01155836
3.2784898e-05
0.00013797789
-0.011539472
3.8067787e-05
0.00013596067
-0.011535087
4.2613037e-05
0.00013178595
-0.011538278
4.6245067e-05
0.00012627297
-0.011544737
4.8854555e-05
0.00012008669
-0.011552275
5.0599621e-05
0.00011369071
-0.011559929
5.1697128e-05
0.00010734732
-0.011567357
5.2370404e-05
0.00010115616
-0.011574673
5.2806617e-05
9.5112638e-05
-0.011582096
5.3134713e-05
8.9148652e-05
-0.011590583
5.3442381e-05
8.3165608e-05
-0.011602284
5.3784119e-05
7.7055109e-05
-0.011621458
5.4197761e-05
7.0723772e-05
-0.011654999
5.4714505e-05
6.4104122e-05
-0.011710709
5.5349331e-05
5.715657e-05
-0.011790202
5.6088171e-05
4.9853732e-05
-0.011874525
5.6847524e-05
4.2117793e-05
-0.011907028
5.7445269e-05
3.3825508e-05
-0.011791876
5.7513707e-05
2.4996339e-05
-0.011443004
5.6499656e-05
1.611998e-05
-0.010884848
5.4005472e-05
-0.010305258
5.0800769e-05
-1.6817668e-05
-0.010349138
5.2587378e-05
-2.6062584e-05
-0.010931432
5.5828803e-05
-3.5248371e-05
-0.011492151
5.8333449e-05
-4.384852e-05
-0.011842571
5.9294834e-05
-5.1835384e-05
-0.011958172
5.9130125e-05
-5.9331212e-05
-0.011925437
5.8408133e-05
-6.6411343e-05
-0.01184063
5.7507578e-05
-7.3099178e-05
-0.011760638
5.6616126e-05
-7.9430778e-05
-0.011704488
5.5820354e-05
-8.5470347e-05
-0.011670554
5.5135985e-05
-9.1309498e-05
-0.011650994
5.4549523e-05
-9.7052517e-05
-0.011638872
5.4032185e-05
-0.00010279717
-0.011629898
5.3546046e-05
-0.00010861444
-0.011621896
5.304103e-05
-0.0001145163
-0.011613887
5.2432252e-05
-0.00012041807
-0.011605625
5.159753e-05
-0.00012607691
-0.011596971
5.0354976e-05
-0.00013105611
-0.011588242
4.8485004e-05
-0.00013471782
-0.011580386
4.5769468e-05
-0.00013627081
-0.01157558
4.2045984e-05
-0.00013499908
-0.011578162
3.7418468e-05
-0.00013030125
-0.011595102
3.2044118e-05
-0.0001221014
-0.011634276
2.653857e-05
-0.00011074014
-0.011697496
2.1406884e-05
-9.6823983e-05
-0.01176623
1.693934e-05
-8.108289e-05
-0.011784914
1.3224759e-05
-6.4299661e-05
-0.011659628
1.0223572e-05
-4.7316327e-05
-0.011306588
7.9314798e-06
-3.0923193e-05
-0.010750758
6.4330577e-06
-0.010176922
5.511957e-06
2.9177852e-05
-0.010196238
4.5953264e-06
4.4726758e-05
-0.010771711
5.4041146e-06
6.0920587e-05
-0.011329548
6.7660486e-06
7.703803e-05
-0.011684646
8.9004469e-06
9.2305882e-05
-0.011811917
1.1735138e-05
0.00010597449
-0.011795189
1.5290135e-05
0.0001173327
-0.011728459
1.9603865e-05
0.00012575498
-0.011667314
2.4615245e-05
0.00013086719
-0.011630248
3.0033672e-05
0.00013269533
-0.011615354
3.5364189e-05
0.00013180751
-0.011614667
3.997487e-05
0.00012887317
-0.011621177
4.3725406e-05
0.00012463639
-0.011630521
4.6515012e-05
0.00011969634
-0.011640531
4.8500012e-05
0.0001144533
4.9896732e-05
0.00010913036
5.0909971e-05
0.00010380384
5.1715035e-05
9.8455096e-05
5.2424635e-05
9.3013999e-05
5.3114182e-05
8.7388843e-05
5.3831034e-05
8.1481738e-05
5.4612602e-05
7.5202822e-05
5.5483592e-05
6.8490847e-05
5.645637e-05
6.1314335e-05
5.7515577e-05
5.3656136e-05
5.8570637e-05
4.5446104e-05
5.9430353e-05
3.6561556e-05
5.9711207e-05
2.7049607e-05
5.883883e-05
1.7466189e-05
5.6377723e-05
5.3164797e-05
-0.00012184336
4.4904827e-05
-0.00012512902
4.2806922e-05
-0.00012711722
-0.011659158
3.9969889e-05
-0.0001271352
-0.011650906
3.6256935e-05
-0.00012458452
-0.011649672
3.1766704e-05
-0.00011896864
-0.011662495
2.6631714e-05
-0.00011033635
-0.011697436
2.1489724e-05
-9.9091564e-05
-0.011756494
1.6790196e-05
-8.5869807e-05
-0.011821222
1.2811293e-05
-7.134529e-05
-0.011836016
9.5746492e-06
-5.6207843e-05
-0.011706823
7.0395678e-06
-4.1142434e-05
-0.011349784
5.1698803e-06
-2.6776066e-05
-0.0107901
4.022498e-06
-0.010213152
3.3794614e-06
2.3733976e-05
1.8759881e-06
3.6589096e-05
2.3042361e-06
5.0194713e-05
3.1591361e-06
6.4037046e-05
4.6526812e-06
7.7543217e-05
6.7472465e-06
9.0108574e-05
9.4961083e-06
0.00010111886
1.294836e-05
0.00010994271
1.7134302e-05
0.0001161475
2.179907e-05
0.00011957988
2.6576781e-05
0.0001206246
3.0842153e-05
3.445374e-05
0.011175887
-1.9339399e-05
0.00011183602
0.011127908
-1.8573844e-05
0.00011044255
0.011081661
-1.7754673e-05
0.00010649663
0.011038273
-1.690698e-05
0.00010037093
0.010998606
-1.6055677e-05
9.2568362e-05
0.010963214
-1.5219093e-05
8.3662857e-05
0.010932325
7.4271514e-05
-1.4409504e-05
0.010905888
6.4949447e-05
-1.3634719e-05
0.010883668
5.6076968e-05
-1.2899002e-05
0.010865311
4.7893162e-05
-1.2203652e-05
4.0540196e-05
-1.1543804e-05
-0.0098898831
5.2185194e-05
-3.5134217e-05
-0.009840462
4.6010192e-05
-7.3873437e-05
-0.0096692457
-1.8278352e-05
-0.00019790305
-0.0091447367
-0.00022208227
-0.00065184166
-0.0039062831
-0.00024558408
-0.0025517892
-0.0040780637
-0.003152268
3.1777202e-05
-4.0714986e-05
-0.00074507732
-0.0029944139
0.00017255188
-0.00019859952
-0.00013180654
-0.0027462904
8.811117e-05
-0.00010053787
-0.00023569677
-0.0011552367
6.1071377e-05
5.89197e-05
-0.00059465056
-0.0011163942
-0.00093094051
1.2464182e-06
1.9940762e-06
-0.00022753666
-0.00088450381
1.5321549e-05
1.4112657e-06
-6.3169518e-05
-0.0008458723
-9.510314e-06
6.922812e-07
-2.9813479e-05
-0.0008074558
-1.4767886e-05
2.1683785e-06
-2.5816991e-05
-0.00077196359
-7.3646477e-06
1.1993474e-06
-2.9326909e-05
-0.00073677343
-2.7063553e-06
6.8142075e-09
-3.2490618e-05
-0.00069746392
-9.6096969e-07
-1.457963e-07
-3.8202749e-05
-0.00064463136
-8.4574167e-07
5.7841132e-07
-5.2565224e-05
-0.00055895997
-1.5902763e-06
1.6718346e-06
-8.5752955e-05
-0.00044248643
-1.9370384e-06
2.0243726e-06
-0.00011656087
-4.0534601e-06
4.4446329e-06
-0.00084871849
0.00040584089
-3.4060694e-06
0.00043794937
-0.00084258985
0.00040399309
-2.3881527e-06
0.00043393243
-0.00083661291
0.00040166257
-1.521406e-06
0.00043102
-0.00083029661
0.00039840986
-1.2455556e-06
0.00042915888
-0.00082421831
0.00039478358
-1.1209514e-06
0.00042835997
-0.00082175155
0.00039326698
-7.1029642e-07
0.00042824309
-0.0008222481
0.00039359436
-4.0671402e-07
0.00042817057
-0.0008215518
0.00039307765
-6.0426755e-07
0.00042793548
-0.0008193936
0.00039165567
-8.6206918e-07
0.00042803066
-0.00081930387
0.00039153101
-6.8560979e-07
0.0004284204
-0.00082127811
0.00039268125
-5.0938064e-07
0.00042854257
-0.00082136686
0.00039264807
-8.0480696e-07
0.00042838383
-0.00081953786
0.00039144945
-1.1117016e-06
0.00042841887
-0.00081961402
0.00039150204
-1.0140447e-06
0.00042900223
-0.00082177226