/*--------------------------------*- C++ -*----------------------------------*\
| =========                 |                                                 |
| \\      /  F ield         | OpenFOAM: The Open Source CFD Toolbox           |
|  \\    /   O peration     | Version:  v2012                                 |
|   \\  /    A nd           | Website:  www.openfoam.com                      |
|    \\/     M anipulation  |                                                 |
\*---------------------------------------------------------------------------*/
FoamFile
{
    version     2.0;
    format      ascii;
    class       volScalarField;
    location    "0";
    object      p;
}
// * * * * * * * * * * * * * * * * * * * * * * * * * * * * * * * * * * * * * //

dimensions      [0 2 -2 0 0 0 0];


internalField   nonuniform List<scalar> 
11751
(
-0.13516667
-0.10429166
-0.069452665
-0.049184607
-0.038928254
-0.033783058
-0.031099417
-0.030040365
-0.029594401
-0.028839494
-0.027867559
-0.026797088
-0.025693911
-0.024617858
-0.023739957
-0.022908489
-0.021727435
-0.019659957
-0.015295187
-0.0060190014
0.01168818
0.040222859
0.076512244
0.11327133
0.14725154
0.15146887
0.11262579
0.053479561
0.01979511
0.031898495
0.021938467
0.0081836276
0.015823677
0.0051781168
0.011085693
0.0019262714
0.0026586395
0.0022268252
0.0038401062
0.0049834972
0.0055707645
0.005720575
0.005748131
0.0057638508
0.0058010692
0.0058728507
0.0059645042
0.0060880133
0.0062000919
0.0061796554
0.0056720273
0.0045921086
0.0030252282
0.0035231732
0.0028669213
0.012068084
0.0061956835
0.016900236
0.0092526683
0.023012234
0.010689372
0.01112599
-0.0097759953
-0.015177027
-0.028573104
-0.028563901
-0.015148974
-0.0097322286
0.011182508
0.010753194
0.023076013
0.0093168154
0.016966357
0.0062614602
0.012134748
0.0029343864
0.003596584
0.0030910559
0.0046657543
0.0057520083
0.006263685
0.0062857481
0.0061770198
0.0060566992
0.0059679403
0.0058943926
0.0058589979
0.005845074
0.0058188232
0.0056696905
0.005082343
0.0039349803
0.0023155303
0.0027562465
0.0020190663
0.011178387
0.0052689671
0.015913917
0.008270364
0.022019516
0.0097118271
0.010142403
-0.010710073
-0.016112948
-0.029504822
-0.029523047
-0.016163084
-0.010780822
0.01005639
0.0096208183
0.011542576
0.013656032
-0.0014990787
-0.010374166
-0.022245555
-0.022227483
-0.010325118
-0.0014291343
0.013739279
0.011632952
0.020116195
0.021978123
0.012026278
0.00034455713
-0.010234629
-0.010253427
0.00029575257
0.011957316
0.021896901
0.020024195
0.021975212
0.029339677
0.021014615
0.0059378283
-0.0054759171
-0.0054564402
0.0059854626
0.021081913
0.029421474
0.022065786
0.022519119
0.028832573
0.020993705
0.0050376537
-0.006761332
-0.0067793589
0.0049926603
0.020929099
0.028752125
0.022428977
0.017755657
0.025198514
0.017031567
-0.00038108218
-0.012818698
-0.012802567
-0.00033842587
0.017095888
0.025278047
0.017846331
0.016724479
0.022416906
0.012805942
-0.0053761937
-0.018241592
-0.018255132
-0.0054157806
0.012745645
0.022338316
0.01663237
0.016295403
0.021445431
0.011158684
-0.0073134025
-0.020332351
-0.020321052
-0.0072753785
0.011219192
0.021523083
0.01638543
0.01767378
0.022323184
0.011717564
-0.0068338485
-0.019857998
-0.019868521
-0.0068714328
0.01165624
0.022243815
0.017580789
0.018586609
0.023173368
0.012501324
-0.0060825589
-0.019089183
-0.01907888
-0.0060451052
0.012563275
0.02325446
0.018681721
0.019209445
0.023760873
0.013073881
-0.0055559147
-0.018587307
-0.018597851
-0.005593225
0.013012454
0.0236819
0.019112782
0.019141881
0.023805481
0.013183177
-0.0054221117
-0.018420129
-0.018407725
-0.0053841242
0.013243997
0.023882948
0.01923761
0.019240387
0.023927767
0.013348402
-0.0052601638
-0.018276587
-0.018290681
-0.005298467
0.013288841
0.023853035
0.019145289
0.019178298
0.023912453
0.013374988
-0.0051949363
-0.018181481
-0.018167438
-0.0051572126
0.013433043
0.023984303
0.019271673
0.019326242
0.024055997
0.013513894
-0.0050707315
-0.018080398
-0.018092411
-0.0051068293
0.013456641
0.023984738
0.019233239
0.019309705
0.024057742
0.013528776
-0.0050392726
-0.018027097
-0.018017025
-0.0050034987
0.0135869
0.024133035
0.019403522
0.019478736
0.024187612
0.013638434
-0.0049582842
-0.017975612
-0.017984805
-0.0049925608
0.01358174
0.02411513
0.019386996
0.019505922
0.024219401
0.013659488
-0.0049378293
-0.017940207
-0.017930867
-0.0049036335
0.013715082
0.024289624
0.019594207
0.019738765
0.024395187
0.013768958
-0.0048730551
-0.017909784
-0.017919871
-0.0049075918
0.013714013
0.024325998
0.019654878
0.019721343
0.02427114
0.013608377
-0.0050208727
-0.018041391
-0.018029232
-0.0049857536
0.013662363
0.024338727
0.019804144
0.019346993
0.023889215
0.013204083
-0.0054263431
-0.018473053
-0.01848685
-0.0054612695
0.013151912
0.023824325
0.019268153
0.018340608
0.02298187
0.012364121
-0.006193733
-0.019213083
-0.019199592
-0.0061602273
0.01241394
0.023044437
0.018413563
0.017176343
0.022274951
0.011928581
-0.006588791
-0.019649394
-0.01966184
-0.0066203013
0.011881411
0.022215364
0.017108149
0.017532842
0.023238321
0.013602251
-0.0045747257
-0.017436094
-0.017425934
-0.0045457161
0.013646759
0.023296589
0.017601673
0.018815169
0.026294969
0.018096411
0.00063080831
-0.011856456
-0.011864519
0.00060351865
0.01805203
0.026238213
0.018749034
0.023464333
0.029842735
0.022013535
0.0060735294
-0.005725689
-0.0057183316
0.0060994678
0.022055528
0.02989747
0.023530308
0.023096615
0.030476698
0.022131425
0.0070143186
-0.0044411914
-0.0044495469
0.0069884535
0.022089061
0.030420723
0.023032189
0.02111252
0.022967569
0.013014127
0.0013265146
-0.0092488667
-0.0092386291
0.001353139
0.013056419
0.023021999
0.021177773
0.012685351
0.014781515
-0.0004302505
-0.0093489988
-0.021269079
-0.021278858
-0.0093759957
-0.00047295781
0.014726184
0.012621556
0.037158557
0.027199088
0.047607455
0.088306093
0.13432328
0.15598154
0.14975318
0.12243372
0.087891073
0.054375077
0.027491828
0.010700812
0.0018918621
-0.0024094089
-0.0048025654
-0.0067726874
-0.0090105506
-0.011806216
-0.015242546
-0.019328171
-0.02402016
-0.029152415
-0.034299912
-0.03847263
-0.041017514
-0.041847513
-0.040914219
-0.038922646
-0.038111352
-0.04311722
-0.061346449
-0.10108407
-0.1650571
-0.24708958
-0.33726884
0.072951458
0.075516102
0.071486692
0.063589558
0.053848046
0.043649739
0.033866528
0.02499431
0.01726172
0.010650108
0.0051094063
0.00060164296
-0.0030352369
-0.0060281307
-0.0084692969
-0.010341702
-0.011505792
-0.011377154
-0.0086126971
-0.00066081126
0.01598084
0.043664994
0.079264398
0.11546788
0.1489779
0.15280501
0.11363445
0.054203355
0.020291284
0.032175627
0.016784745
0.013949407
0.041088655
0.093939343
0.12793408
0.12891671
0.10620766
0.074311178
0.042795628
0.017228398
0.0012360033
-0.0069230523
-0.010020377
-0.010468801
-0.0096555857
-0.0081448395
-0.0060367831
-0.0033503517
-2.7365872e-06
0.0042186016
0.0094668337
0.015813777
0.023308546
0.031958854
0.041604129
0.051823427
0.061833414
0.070339409
0.075397735
0.074320877
0.076848771
0.074772447
0.067593405
0.05787473
0.047367527
0.037163171
0.027842269
0.019674222
0.012731553
0.0069708415
0.0023128439
-0.0013292838
-0.0040958924
-0.006168749
-0.0076284913
-0.0084556243
-0.0085774926
-0.0075256016
-0.004137472
0.0033125199
0.016819479
0.037646487
0.062620391
0.086545492
0.10230505
0.098841767
0.064481054
0.011666563
-0.015322343
0.0025853704
-0.048654638
-0.068964861
-0.031765781
0.025823398
0.066688807
0.076638861
0.066882306
0.049448503
0.030402242
0.014573254
0.0043369989
-0.0017611763
-0.0050606793
-0.0066419812
-0.0072818209
-0.0072806846
-0.0066704405
-0.005440012
-0.0034946112
-0.00068667239
0.0030890588
0.0079252762
0.013942774
0.021262484
0.029936577
0.039918254
0.05096703
0.062332165
0.072597606
0.079590833
0.080591561
0.067176301
0.053314027
0.040418374
0.029209013
0.01990328
0.012346891
0.0063305281
0.0016116675
-0.0020113471
-0.0046814804
-0.0064888356
-0.0075021772
-0.0078352979
-0.0075550364
-0.0067598341
-0.0054873959
-0.0035748985
-0.00062096232
0.0040653187
0.011808915
0.02418791
0.039060276
0.051539295
0.056010432
0.038447128
-0.013340937
-0.081263512
-0.12710312
-0.084176511
-0.12177138
-0.16954647
-0.11254082
-0.037053382
0.021813436
0.044616889
0.043391849
0.033276969
0.020395691
0.0097040559
0.0032695671
-0.00070428425
-0.0034620817
-0.0055907533
-0.0073424155
-0.0087898933
-0.0098052893
-0.010274514
-0.010154364
-0.0093818924
-0.0079186278
-0.0056959453
-0.0025688201
0.0017133782
0.0075139137
0.015290645
0.025988907
0.040248643
0.057468105
0.076526264
0.063078647
0.040003522
0.022180065
0.0089432073
-0.00031641519
-0.0061085232
-0.0095861602
-0.011787724
-0.013203527
-0.014025527
-0.014341544
-0.014195887
-0.01359307
-0.012520295
-0.011009487
-0.0091564788
-0.0070580188
-0.00463971
-0.0016487322
0.0024997747
0.0090830372
0.019898722
0.032880001
0.04308613
0.044377108
0.021621706
-0.037195175
-0.11264596
-0.16962492
-0.12182203
-0.084317543
-0.12732648
-0.08157126
-0.013748185
0.037895187
0.055301461
0.050644568
0.037912495
0.022749083
0.010003024
0.0018230899
-0.003432368
-0.0070404104
-0.0097599344
-0.012018208
-0.01399473
-0.015702452
-0.0170946
-0.018163524
-0.018972773
-0.019529264
-0.019842049
-0.019934892
-0.01967556
-0.018489891
-0.015537315
-0.010089413
-0.00082082194
0.014239085
0.037618233
-0.00065539901
-0.019050651
-0.026451431
-0.028750716
-0.028619325
-0.027781628
-0.026760193
-0.025746121
-0.024788702
-0.02383308
-0.022797662
-0.02163842
-0.020363459
-0.01892071
-0.017305012
-0.015481979
-0.013317457
-0.01046274
-0.0061362671
0.00079353452
0.011748793
0.028162284
0.047659428
0.065460437
0.075521796
0.065829654
0.025186417
-0.032244278
-0.069303757
-0.048861752
0.0023367093
-0.015736493
0.011062605
0.063654284
0.097746161
0.10087303
0.084727055
0.060340416
0.03479296
0.013241458
-0.0011620084
-0.0096928155
-0.014400559
-0.017074187
-0.01889545
-0.020353889
-0.021694844
-0.02302216
-0.024302413
-0.025518503
-0.026641474
-0.027676862
-0.028718215
-0.030177745
-0.032780641
-0.037005503
-0.043334487
-0.050575876
-0.056281392
-0.050807343
-0.49518015
-0.40464768
-0.32435939
-0.25505457
-0.19681236
-0.1491379
-0.11108946
-0.081436568
-0.058823754
-0.041909185
-0.029459754
-0.020405361
-0.013863091
-0.0091388945
-0.0057106899
-0.0032045486
-0.0013673654
-3.6965107e-05
0.00088526498
0.0014172004
0.0016642972
0.0019692207
0.0030408756
0.0063118247
0.014475608
0.031303571
0.059182874
0.094508956
0.12964652
0.16142371
0.16338473
0.12239891
0.060974388
0.025164849
0.035228667
0.027398129
0.050088112
0.045713057
0.058932848
0.044353601
0.04101322
0.037023089
0.038088023
0.04019859
0.041843645
0.042662342
0.043046731
0.043152544
0.043110042
0.042910597
0.042592482
0.042099043
0.041320786
0.040100539
0.038226285
0.035882556
0.034633835
0.038514954
0.041651582
0.056089327
0.042750552
0.04705417
0.02436685
0.043045902
0.07366093
0.098249487
0.11337144
0.10922922
0.10019388
0.091669907
0.088652446
0.08978446
0.092218445
0.094705889
0.096667107
0.098007068
0.098802048
0.099109554
0.098910513
0.098180885
0.096857661
0.095003626
0.093030425
0.092336832
0.095705336
0.10436238
0.1137257
0.11812961
0.10313192
0.078564424
0.047952671
0.088821071
0.11711212
0.14698048
0.1610067
0.16350422
0.1563344
0.14867751
0.14382252
0.14271328
0.14378202
0.14548985
0.14693188
0.1478653
0.14807814
0.14764603
0.1465716
0.14485937
0.14259357
0.14012283
0.13830482
0.13876325
0.14309577
0.15042799
0.1572393
0.15444951
0.14025285
0.11029942
0.081997183
0.1263365
0.14453548
0.16121784
0.17105186
0.17492243
0.17405789
0.171572
0.16932951
0.16882561
0.16996408
0.17180938
0.17373495
0.17534188
0.17644311
0.17697978
0.17695789
0.17634273
0.17530851
0.17433441
0.17413398
0.17550814
0.17852832
0.1817149
0.18287309
0.17927409
0.16971003
0.15320084
0.13504529
0.15694668
0.15964689
0.1648797
0.16879094
0.17165812
0.17261226
0.17181785
0.17054529
0.16968337
0.16955123
0.16991134
0.17035812
0.17050577
0.17036322
0.169802
0.16881657
0.16748701
0.16599252
0.16462996
0.16379007
0.16365375
0.16399032
0.16380894
0.16236211
0.1590635
0.15482508
0.14929374
0.14644374
0.13868308
0.1311925
0.12793609
0.12711357
0.12760732
0.12783117
0.1278896
0.12792111
0.12812339
0.12869353
0.12966492
0.13078166
0.13184427
0.1327092
0.13329849
0.13361372
0.13379902
0.13396913
0.13416418
0.13461727
0.13543705
0.13644455
0.13741427
0.13807428
0.13818822
0.13965579
0.14322923
0.15099696
0.12400203
0.11325298
0.10395155
0.09776841
0.09369641
0.090802584
0.088707788
0.08711224
0.085855582
0.084878981
0.084151189
0.083630534
0.08321849
0.082712001
0.082062347
0.081279746
0.080431035
0.079631433
0.079021393
0.078746008
0.078881524
0.079398333
0.080433649
0.082222958
0.085372155
0.090827931
0.099666546
0.10998975
0.074683145
0.064687215
0.054282126
0.045999917
0.040535992
0.037293056
0.035356134
0.034231941
0.0336762
0.033681924
0.033993003
0.034523906
0.035179373
0.035876841
0.036563359
0.0372219
0.037862529
0.038597948
0.039616492
0.041026072
0.042824486
0.04517885
0.048391857
0.052958291
0.059482812
0.068549822
0.079577642
0.089851155
0.056814358
0.049656978
0.03978188
0.030411072
0.022999071
0.017457757
0.013358296
0.010286965
0.0079826956
0.0062427197
0.0049010783
0.0038061496
0.0028576595
0.0020248928
0.0012918232
0.00066787076
0.00019072997
-7.9466653e-05
-7.0926501e-05
0.00028558217
0.001180402
0.0028756788
0.0055104529
0.0098918909
0.01638252
0.025002723
0.034367597
0.041381571
0.015327861
0.012311042
0.0065966816
3.2692069e-05
-0.005882992
-0.010510306
-0.01369374
-0.015810794
-0.01705882
-0.017809211
-0.018133984
-0.018105415
-0.017787243
-0.017227453
-0.016453144
-0.015466963
-0.014247497
-0.012758761
-0.010955562
-0.008776584
-0.0060299191
-0.0025462631
0.0018913286
0.0074485481
0.014044791
0.021095514
0.027196782
0.030524632
0.014473068
0.013451035
0.010655594
0.0062849818
0.0012664615
-0.0035527249
-0.0077727168
-0.011344289
-0.014369515
-0.016919203
-0.019045772
-0.020791564
-0.022192983
-0.023281513
-0.024075071
-0.024573041
-0.024755587
-0.024584905
-0.024007632
-0.022960473
-0.021399808
-0.019155766
-0.015885447
-0.01193489
-0.0075971486
-0.0037096002
-0.0012413987
-0.00051327073
-0.0081888115
-0.0079371617
-0.0085003318
-0.010287745
-0.012923867
-0.015823188
-0.018494942
-0.020594709
-0.022243401
-0.023421845
-0.024148347
-0.024458286
-0.024384316
-0.023950223
-0.023168531
-0.022039962
-0.020555019
-0.018698474
-0.016456193
-0.013820637
-0.010810373
-0.0074477889
-0.0038000233
-5.9388663e-05
0.003332454
0.0057082215
0.0066334269
0.0065809527
0.0033889066
0.0038782226
0.003800188
0.0026587042
0.0005224508
-0.0022265282
-0.0052143364
-0.0081871321
-0.010986634
-0.013519791
-0.0157257
-0.017573971
-0.019052504
-0.020159131
-0.020894714
-0.021258568
-0.021246563
-0.0208517
-0.02006754
-0.018895977
-0.017364279
-0.015562216
-0.013654076
-0.011789022
-0.010428361
-0.0098932401
-0.010216436
-0.010919867
-0.011067017
-0.010270362
-0.0096120148
-0.0095197109
-0.010108577
-0.01119957
-0.012554758
-0.014006341
-0.015339614
-0.01643224
-0.017218703
-0.017664725
-0.017752433
-0.017472193
-0.016819072
-0.015792466
-0.014397617
-0.012650012
-0.010581687
-0.0082487983
-0.0057404619
-0.003186294
-0.00077238223
0.0012528508
0.0026093409
0.0031138142
0.0028736538
0.0023244386
0.0019398059
0.0023680564
0.0026292974
0.0023772106
0.0014492921
-8.7464839e-05
-0.0020413639
-0.0042024758
-0.0063907578
-0.0084666119
-0.010327268
-0.011901979
-0.013146601
-0.014037847
-0.01456814
-0.014741806
-0.014572444
-0.014083763
-0.013312962
-0.012317188
-0.011183682
-0.01004239
-0.0090724242
-0.0084412391
-0.0082669199
-0.0086014372
-0.009280621
-0.009962246
-0.0081782603
-0.0076650369
-0.0071065212
-0.0067480164
-0.0067569426
-0.0071524902
-0.0078731536
-0.0087939589
-0.0097759901
-0.010700035
-0.011473051
-0.012025286
-0.012305587
-0.012277996
-0.011919765
-0.011221361
-0.010189167
-0.0088488641
-0.0072492487
-0.0054657094
-0.0036022475
-0.0017915482
-0.00019077236
0.0010360386
0.0017636186
0.0019811853
0.001839779
0.0015855833
0.00096138341
0.0010608291
0.001059258
0.00079356473
0.00014829333
-0.00088340477
-0.0022158536
-0.0037222717
-0.0052704488
-0.006741805
-0.0080394241
-0.0090914721
-0.0098515863
-0.010297332
-0.010427378
-0.010258279
-0.0098224096
-0.0091660653
-0.0083489344
-0.0074445715
-0.0065408079
-0.0057379762
-0.0051400753
-0.0048306775
-0.0048370572
-0.0051075946
-0.0054988361
-0.0058425904
-0.0029311399
-0.0027307078
-0.0025024507
-0.0023622596
-0.0024256164
-0.002749714
-0.0033283577
-0.0041089999
-0.0050163147
-0.0059691252
-0.0068888631
-0.0077033547
-0.0083488832
-0.0087718188
-0.0089308271
-0.0087997157
-0.008370673
-0.0076575546
-0.0066983405
-0.0055557806
-0.0043155601
-0.0030814123
-0.0019664441
-0.0010709054
-0.00046522805
-0.0001456208
-3.4683411e-05
-2.5161461e-05
-0.0013959182
-0.0014773352
-0.001664037
-0.0020214424
-0.0025915314
-0.0033634566
-0.0042751521
-0.0052371984
-0.0061527378
-0.0069325636
-0.0075043136
-0.0078179825
-0.0078482216
-0.0075937311
-0.0070744854
-0.0063278103
-0.005404221
-0.0043635233
-0.0032714092
-0.0021965238
-0.0012073015
-0.00036779136
0.00026919948
0.00067307054
0.00084946564
0.00084681365
0.00075842502
0.00066108212
0.0051247388
0.0051343202
0.0050996043
0.0049613549
0.0046520103
0.0041269137
0.0033730616
0.0024065052
0.001263473
-6.2457774e-06
-0.001343866
-0.002685089
-0.0039633464
-0.0051133119
-0.0060749677
-0.0067983807
-0.0072488488
-0.0074118352
-0.0072966842
-0.0069379787
-0.0063936472
-0.00573959
-0.0050610115
-0.0044401428
-0.0039400218
-0.0035877182
-0.0033707153
-0.0032541395
-0.005760905
-0.0058721177
-0.0060624712
-0.0063436072
-0.0067051079
-0.0071060744
-0.0074806962
-0.0077516214
-0.0078432167
-0.0076924089
-0.0072568753
-0.0065198068
-0.0054907374
-0.0042027619
-0.0027073297
-0.0010679786
0.00064578158
0.0023638237
0.0040196458
0.005553729
0.0069161482
0.0080688263
0.0089878377
0.0096672179
0.010124388
0.01040027
0.010549817
0.010622051
0.017205863
0.017072109
0.016824218
0.016417128
0.015802504
0.014942326
0.013817649
0.012427737
0.010787167
0.0089243561
0.0068809989
0.0047113095
0.0024804936
0.00026223831
-0.0018652083
-0.0038245149
-0.0055462693
-0.0069767166
-0.0080849016
-0.0088674407
-0.0093492458
-0.009579576
-0.0096240034
-0.0095539258
-0.0094349924
-0.009316288
-0.009224434
-0.0091664115
-0.01383969
-0.013785574
-0.013687257
-0.013522101
-0.013254686
-0.012836532
-0.01220933
-0.011312583
-0.010094215
-0.0085216424
-0.0065900616
-0.0043256109
-0.0017826982
0.00096311957
0.0038244575
0.0067112933
0.009538548
0.012231185
0.014727152
0.016978484
0.01895133
0.020625166
0.021991977
0.023056605
0.023839236
0.024377048
0.024718444
0.024910741
0.033743702
0.033476291
0.033022986
0.032332543
0.031352946
0.030045608
0.028389914
0.026379187
0.024017024
0.021317196
0.018305502
0.015021958
0.011522642
0.0078803888
0.0041835916
0.00053197897
-0.0029709364
-0.0062282516
-0.009161137
-0.011718377
-0.013881038
-0.015660019
-0.017087046
-0.018202453
-0.019045514
-0.019651789
-0.020056496
-0.020296347
-0.029223066
-0.028706953
-0.027851165
-0.02660699
-0.024949481
-0.022872744
-0.020372913
-0.017444005
-0.014085437
-0.01031534
-0.006180677
-0.0017592256
0.0028466641
0.0075216569
0.01215051
0.016628994
0.020870761
0.024809901
0.028399989
0.031611182
0.034426478
0.036838064
0.038844526
0.040450978
0.041674631
0.042552361
0.043138051
0.043487871
0.053641579
0.053195395
0.052450785
0.051343152
0.049817984
0.047845676
0.045418334
0.04253671
0.03920234
0.035417684
0.03119003
0.026536683
0.021490509
0.01610508
0.010457971
0.0046504929
-0.0011976231
-0.0069586401
-0.012510259
-0.017748088
-0.022592491
-0.026986683
-0.030884862
-0.03423885
-0.036997961
-0.039114599
-0.040594225
-0.041494354
-0.05817506
-0.056772187
-0.054479729
-0.051225355
-0.047036981
-0.042057142
-0.036397158
-0.030188446
-0.023543489
-0.016568561
-0.0093809258
-0.0021100729
0.0051081153
0.012142551
0.018878869
0.025227782
0.0311279
0.036543507
0.041458973
0.045871806
0.049785605
0.053203421
0.056122466
0.058532671
0.060426503
0.061819077
0.062761343
0.063327429
0.07115585
0.070441522
0.069255897
0.067517549
0.065186958
0.062271896
0.05880043
0.054793756
0.050254415
0.045172826
0.03953314
0.033321117
0.026532079
0.01917892
0.011299373
0.0029608593
-0.0057389423
-0.014676499
-0.023710221
-0.032687615
-0.041446578
-0.049826262
-0.057620838
-0.064603596
-0.07052852
-0.075180286
-0.078476064
-0.080499359
-0.10981965
-0.10708016
-0.10262443
-0.096355007
-0.088412775
-0.079124663
-0.068875994
-0.058021975
-0.046863128
-0.03564651
-0.024580711
-0.013839728
-0.0035641575
0.0061400617
0.015202649
0.023587235
0.03128625
0.038313557
0.044696217
0.050466455
0.055653436
0.060273318
0.064332154
0.067795977
0.070613969
0.072748102
0.074217502
0.075105456
0.072456254
0.07138386
0.069614607
0.067070445
0.06376118
0.059754986
0.055120327
0.049891999
0.044065877
0.037612985
0.030489216
0.022643852
0.014026513
0.0045942023
-0.0056801658
-0.01679777
-0.028722952
-0.041372948
-0.054609772
-0.068234197
-0.081980957
-0.095513365
-0.10841517
-0.12019072
-0.13030628
-0.13831254
-0.14400964
-0.14751367
-0.19484536
-0.19060027
-0.18369532
-0.17398993
-0.16173411
-0.1474913
-0.13193721
-0.115706
-0.099333517
-0.083251685
-0.12438238
-0.142784
-0.16159918
-0.18030162
-0.19824536
-0.21467702
-0.22880552
-0.23998039
-0.2479205
-0.25279674
-0.32190275
-0.31659165
-0.30792923
-0.29571065
-0.28022151
-0.262157
-0.24237981
-0.22172783
-0.20093468
-0.18060969
-0.25397271
-0.27551856
-0.2975095
-0.31927829
-0.34003913
-0.35891645
-0.37503102
-0.3876937
-0.39664332
-0.40211847
-0.49273066
-0.48741948
-0.47871182
-0.46634138
-0.45051919
-0.43187558
-0.41124375
-0.38948035
-0.36737469
-0.34561112
0.073862821
0.074995854
0.069992606
0.061540047
0.051577738
0.041399953
0.031795725
0.02318581
0.015727402
0.0094199281
0.0042216443
4.8102493e-05
-0.0032432212
-0.0058273196
-0.0077860388
-0.0091140653
-0.0096628545
-0.0088462411
-0.0053406102
0.0029441365
0.018065569
0.040318501
0.066978812
0.093110335
0.11231852
0.11726365
0.10261565
0.072241575
0.049948975
0.034321201
0.062190136
0.065273288
0.032612237
-0.0055940388
0.035357766
-0.0049745313
-0.04201165
-0.075508426
-0.036877553
-0.01749864
0.016343452
0.061498356
0.087401182
0.076014524
0.082995586
0.073069603
0.065638443
0.070118022
0.081773043
0.092516119
0.062465525
0.012322975
-0.023853257
-0.04459793
-0.006064978
0.047994118
0.032467828
-0.025126615
-0.065391171
-0.077920155
-0.036663445
0.022960277
0.062906675
0.06080411
0.060775573
0.06272105
0.064636423
0.064332961
0.062472056
0.061077959
0.01996817
-0.040585216
-0.08225247
-0.081794841
-0.039999372
0.020872355
0.022791104
-0.038077148
-0.079863568
-0.077961245
-0.036230799
0.024515726
0.065809033
0.065939168
0.066838843
0.067417002
0.06778213
0.067919445
0.067520765
0.066865811
0.025842315
-0.03476592
-0.076440339
-0.075503968
-0.033863146
0.026659925
0.027120303
-0.033372776
-0.075004346
-0.13212287
-0.13316007
-0.13517822
-0.13839604
-0.14235487
-0.14521251
-0.14354772
-0.13215872
-0.10932004
-0.077976326
-0.047305147
-0.033885778
-0.057398855
-0.10749609
-0.066697349
-0.010969392
0.034182673
0.043298323
-0.0016808755
0.029061312
0.078263545
0.10668712
0.090857783
0.083457118
0.041418822
-0.015972159
-0.025975848
-0.052847097
-0.085262629
-0.061586175
-0.059924304
-0.04534544
-0.020512651
0.02228657
0.067307549
0.08051132
0.040038642
0.013022679
0.064007631
0.11121797
0.11637635
0.073118073
0.018651127
-0.031239914
-0.027105285
0.0068262702
-0.011761994
-0.048359424
-0.030399445
0.0097419026
0.022221727
0.046049037
0.078324288
0.067673443
0.04486375
0.015545434
0.043163581
0.075925182
0.096177104
0.052357704
0.012176944
-0.016230193
-0.0029531197
0.028503467
0.020330254
-0.011943651
0.0037942964
0.023054926
0.028516715
0.038762473
0.052675404
0.035094535
0.028463486
0.021598578
0.028195044
0.033462235
0.05412198
0.036414496
0.020408125
0.0092924228
0.016452055
0.02294314
0.019546974
0.013439854
0.0048006874
0.0076505653
0.012675355
0.019265184
0.024510791
0.041607066
0.062256305
0.08515215
0.10801013
0.12732208
0.13340235
0.119523
0.13266433
0.14339284
0.13121711
0.10636464
0.10616015
0.13071399
0.14016052
0.12515121
0.11236123
0.13034629
0.12716696
0.10578116
0.076950929
0.077396355
0.07937415
0.054064137
0.032623928
0.016414666
0.010259151
0.027149435
0.050131583
0.048417875
0.024165876
0.006121764
0.0014760375
0.0054287185
0.011344434
0.010973309
0.021273767
0.023380779
0.032232656
0.050340753
0.074724938
0.098907825
0.11322039
0.070882231
0.041452032
0.03402081
0.10017579
0.12113672
0.070133005
0.0013703493
0.01030337
-0.019980339
-0.059624598
-0.079314723
-0.035307846
-0.071007369
-0.049565026
0.008996957
-0.010861431
-0.028593161
0.040539231
0.069944865
-0.0050727465
-0.019493588
0.062120295
0.089788184
0.10858339
0.050018078
0.015956604
-0.0030597622
0.07581264
0.091148959
0.026957148
-0.053707048
-0.025326087
-0.059916006
-0.10719318
-0.13320286
-0.083329996
-0.10570672
-0.09083757
-0.095597302
-0.081118502
-0.058073871
-0.082374926
-0.08263497
-0.10832649
-0.10812664
-0.12458521
-0.13169035
-0.1481619
-0.13362781
-0.10370558
-0.045908656
-0.039566066
0.034751814
0.031286091
0.054385688
-0.031364783
-0.03933064
0.04842381
0.12323896
0.12129448
0.10191163
0.097486026
0.1163795
0.12043058
0.10441168
0.10504444
0.076850161
0.047586465
0.047201625
0.076866346
0.077077172
0.10448989
0.11982532
0.11561343
0.0980623
0.10058087
0.11746481
0.12104037
0.10521009
0.077616293
0.047454259
0.047177336
0.020959519
0.021425034
0.022440966
0.0036047732
0.0019885017
0.0011106996
0.00075143876
0.02094201
-0.00086806996
-0.00084672403
-0.00041689301
0.00053988425
0.0021832561
0.0051261902
0.0061617051
0.011606199
0.020291621
-0.032659436
-0.015428403
-0.0086303504
-0.023102899
-0.0080230228
0.0033740081
-0.0087274784
-0.029340005
-0.048028646
-0.063789347
-0.039161251
-0.055814911
-0.045341639
-0.068187423
-0.084768051
-0.095102274
-0.07843325
-0.041107525
0.014904789
0.012751941
0.0039279398
-0.032807708
-0.029899968
-0.014396286
-0.0012708954
0.0046664417
-0.00036054247
-0.020866653
-0.027039276
-0.014561323
-0.014939335
0.0034122444
0.02266579
0.020029535
0.0095065472
-0.011948427
-0.0454846
-0.085366303
-0.10757545
-0.075558963
-0.04215151
-0.0051131197
-0.036928366
-0.017549595
0.016207618
0.012191167
-0.02390169
-0.044643178
-0.0061916846
-0.025246532
-0.065432763
-0.077958362
-0.036780949
-0.040701335
-0.082288902
-0.081830708
-0.040114923
-0.038192294
-0.079899779
-0.078000166
-0.036346874
-0.034882621
-0.076481865
-0.075544925
-0.033977765
-0.033483471
-0.075041784
-0.1321904
-0.13322989
-0.1352492
-0.13846649
-0.14242467
-0.14528241
-0.14361836
-0.13223111
-0.1093941
-0.078050184
-0.047380151
-0.033962074
-0.057476101
-0.061691957
-0.026286536
-0.053155177
-0.066921308
-0.016193975
0.041079308
-0.011309082
-0.0057988321
0.032362651
0.06502308
0.03515412
0.061297403
0.087152929
0.092271151
0.062267624
0.0477954
0.081530005
0.069878824
0.032290583
0.022775556
0.062668681
0.060836017
0.019781789
0.020684749
0.062222913
0.064085128
0.022604509
0.024330626
0.065564734
0.066630372
0.025659772
0.026481313
0.067292122
0.067693984
0.026944998
0.011294272
0.010320666
0.0085066073
0.005669567
0.002172702
-0.0004539674
0.00057374878
0.0092787357
0.026614605
0.049691056
0.069797796
0.070543632
0.010083712
-0.020292447
-0.059731144
-0.079420682
-0.035619531
0.0011534438
-0.025539823
-0.06022775
-0.10729912
-0.13331522
-0.083643734
-0.053920972
-0.074810954
-0.10118238
-0.15291536
-0.15280662
-0.10086927
-0.017825879
0.064228262
0.077497521
0.0096120043
0.00090497689
0.070906574
0.057893078
-0.025856888
-0.043279474
0.045145102
0.028196472
0.029218788
-0.049057198
-0.050433381
-0.10916299
-0.10751643
-0.11493158
-0.15755382
-0.13723872
-0.13893169
-0.16225031
-0.11943164
-0.11024623
-0.0850764
-0.074599848
-0.086524446
-0.00012382269
0.070561007
0.056706856
-0.027479449
-0.025434054
0.05876271
0.073159363
0.0025009427
-0.083750966
-0.11012169
-0.11222618
-0.16517688
-0.16304496
-0.16314982
-0.11055791
-0.085285254
-0.086731984
-0.11253658
-0.16528137
-0.16306903
-0.16296474
-0.16256245
-0.16354463
-0.12050699
-0.044073466
0.044599855
0.028080819
-0.05077441
-0.050209668
0.02869443
0.045818762
-0.042837069
-0.11937175
-0.10923866
-0.10970117
-0.1396622
-0.13937334
-0.10480345
-0.10511403
-0.10473974
-0.10339196
-0.10036285
-0.083102664
-0.04472297
-0.046263648
0.011903829
0.0029255201
-0.034262313
-0.034965558
0.0024718945
0.011583844
-0.046953996
-0.086323886
-0.085287329
-0.058457403
-0.056581987
-0.053095674
-0.064153837
-0.067892178
-0.037627362
-0.033999906
-0.027633617
-0.0063092787
-0.0091466442
-0.0031706568
0.010585614
0.014181087
0.015628544
0.013593471
0.015368339
0.017426649
0.018769077
0.0064384984
0.0084080261
0.012288821
0.0088814227
0.0036969797
0.016093169
0.018185821
0.018116166
0.017003798
0.013380546
0.0086111252
0.0080295301
0.013121609
0.0085825999
0.0032788961
0.0032548746
0.0018009087
-0.0013167037
-0.0054798706
-0.0024860089
0.0011849951
-0.0026332398
-0.0071522674
-0.0036515568
0.0019212155
0.0062217577
0.0082740139
0.0033011119
-0.00078956968
-0.00060399385
0.0036769495
-0.00079360545
-0.0037809018
-0.0037139426
-0.005023181
-0.0072971389
-0.007689311
-0.0063431653
-0.0047145183
-0.0063692652
-0.0081727343
-0.0083301943
-0.0052493416
-0.0024428734
-0.00084980503
-0.0039542099
-0.0057525587
-0.0063076396
-0.0044343524
-0.0071307447
-0.0082203616
-0.0070160171
-0.0067602523
-0.0071729843
-0.0059253598
-0.0064096671
-0.0058879096
-0.0054626316
-0.0054350738
-0.0071535155
-0.0063642831
-0.0058020125
-0.0059725873
-0.0070009471
-0.0075622151
-0.0095056989
-0.0089141569
-0.0082182089
-0.0063254479
-0.0052629389
-0.0049192672
-0.0049829874
-0.0064649567
-0.0072402942
-0.0072054111
-0.006056619
-0.0031973922
0.0023354157
0.011461472
0.0057241932
-0.00080251569
-0.0044333655
-0.0062131909
-0.0074488657
-0.0068372216
-0.0047482382
0.00028261534
-0.0041623004
-0.0085578303
-0.0096523028
-0.0092842373
-0.0084353302
-0.007354216
-0.0068572843
-0.0067443587
-0.0060145823
-0.0046657439
-0.0046360531
-0.0059799126
-0.00685272
-0.0074742441
-0.0063659351