/*--------------------------------*- C++ -*----------------------------------*\
| =========                 |                                                 |
| \\      /  F ield         | OpenFOAM: The Open Source CFD Toolbox           |
|  \\    /   O peration     | Version:  v2012                                 |
|   \\  /    A nd           | Website:  www.openfoam.com                      |
|    \\/     M anipulation  |                                                 |
\*---------------------------------------------------------------------------*/
FoamFile
{
    version     2.0;
    format      ascii;
    class       volScalarField;
    location    "200";
    object      k;
}
// * * * * * * * * * * * * * * * * * * * * * * * * * * * * * * * * * * * * * //

dimensions      [0 2 -2 0 0 0 0];


internalField   nonuniform List<scalar> 
227544
(
0.38526781
0.39801223
0.42236731
0.4718334
0.54893021
0.72724265
0.82417783
0.78940335
0.8264231
0.79835386
0.79343608
0.75798764
0.75196899
0.74406318
0.71866395
0.70539768
0.67875214
0.66961293
0.66058539
0.64961866
0.63408531
0.62492388
0.61808203
0.60699007
0.59875715
0.59226676
0.58647489
0.57845194
0.57261232
0.56754418
0.56309305
0.55895549
0.55292061
0.54766136
0.54324029
0.53943888
0.53596734
0.53122156
0.52689355
0.5228875
0.51918714
0.51583222
0.5125275
0.50875859
0.50495562
0.50134369
0.49790137
0.49480103
0.49136699
0.48826355
0.48555102
0.48219042
0.47861093
0.47536803
0.47235741
0.46923552
0.46558218
0.46182786
0.45857675
0.45574246
0.45222606
0.44868354
0.44539402
0.44216294
0.43882135
0.43563529
0.432651
0.42934385
0.42605297
0.4228578
0.41979057
0.41645443
0.41303674
0.40962281
0.40650596
0.40355636
0.40050906
0.39756434
0.39469127
0.39140425
0.3884947
0.38628648
0.38303284
0.37957742
0.37614667
0.37257685
0.36895264
0.36534492
0.3616425
0.35810425
0.35441764
0.35081108
0.34721502
0.34360126
0.34018801
0.33663889
0.33316183
0.3298014
0.32640125
0.3231245
0.31992154
0.31668394
0.31349376
0.31027857
0.30662252
0.30223614
0.29914346
0.29549959
0.29153989
0.28705871
0.28356862
0.28038139
0.2772066
0.27409945
0.27099694
0.26801649
0.26490056
0.26178883
0.2586697
0.25559454
0.25250123
0.24957064
0.24653688
0.24351017
0.24044651
0.23743823
0.23441853
0.23155637
0.22892221
0.22719925
0.22751686
0.22569854
0.22362038
0.22142283
0.21904407
0.21649628
0.21298427
0.2091159
0.20737352
0.20457437
0.20123595
0.19737104
0.19464334
0.19215166
0.18961518
0.18717353
0.18473238
0.1823034
0.17984592
0.17743561
0.17501727
0.17266151
0.17027626
0.16776217
0.1642834
0.15998152
0.15594381
0.15551982
0.16296561
0.1628261
0.16118999
0.15937028
0.15649397
0.15333793
0.15209592
0.14910171
0.14580647
0.14399099
0.14205976
0.14018116
0.1382922
0.13640361
0.13447513
0.13261477
0.13075408
0.12904426
0.12764388
0.12760869
0.13009721
0.12927155
0.12767321
0.12506877
0.12225782
0.12151995
0.12006097
0.1187623
0.11642218
0.11381719
0.11254852
0.11106527
0.10955359
0.10795328
0.10639511
0.10483244
0.10343012
0.10240404
0.10284614
0.10579414
0.10539366
0.10400397
0.10175459
0.099362377
0.09876254
0.097233124
0.095308113
0.093152416
0.09177631
0.090438177
0.08899093
0.087563899
0.086115527
0.084705587
0.083266877
0.081776228
0.079693102
0.077240304
0.074938201
0.074875804
0.080890988
0.079945925
0.078120203
0.076287214
0.076576786
0.075651193
0.074198193
0.072636109
0.071917247
0.071115777
0.070137589
0.069147878
0.068134451
0.067288708
0.066719241
0.067320908
0.069844342
0.068885037
0.067221039
0.065511858
0.065576247
0.064592941
0.063215148
0.061728695
0.060924406
0.06005987
0.059063481
0.058060403
0.057044541
0.05620088
0.05558869
0.055999105
0.05805223
0.057191585
0.055773509
0.054325418
0.054420031
0.053692749
0.052585068
0.051417023
0.050895855
0.050252074
0.049467544
0.048613756
0.047752684
0.047350738
0.04769862
0.052338109
0.054949541
0.054897406
0.053496936
0.052922873
0.061402132
0.061367894
0.059868974
0.058094346
0.05626383
0.39138039
0.40928439
0.40925482
0.42225605
0.46914193
0.51331621
0.57910084
0.65099113
0.69730982
0.56545748
0.52944924
0.45457463
0.44100403
0.40700615
0.40375506
0.38930017
0.38493894
0.40525451
0.39944239
0.41954944
0.42874862
0.47369035
0.49718112
0.54102644
0.52312398
0.55559297
0.59732681
0.62306653
0.66363583
0.57584572
0.66034586
0.62764071
0.75273618
0.92107657
0.83686044
0.73294488
0.73616131
0.77351533
0.85910609
0.82014187
0.86715705
0.83478655
0.84107799
0.79817282
0.78389832
0.77476838
0.7420007
0.72535285
0.69650138
0.68522423
0.67246569
0.662892
0.64487327
0.63326846
0.6263033
0.61479369
0.60665941
0.59819657
0.59202489
0.58382993
0.57791744
0.57166534
0.56634926
0.56201192
0.55608529
0.55048024
0.54571335
0.54134258
0.53744013
0.53315213
0.52908154
0.52457981
0.52060758
0.51682058
0.51328704
0.50972237
0.50612024
0.50226015
0.49870718
0.49541874
0.49205265
0.48866439
0.48545103
0.48241329
0.47927363
0.47583401
0.47273072
0.46961008
0.46644443
0.46337724
0.4686462
0.47102083
0.47399346
0.47741289
0.48116429
0.48445211
0.48687855
0.49009193
0.49385867
0.49728108
0.50079564
0.50451044
0.50860074
0.51275747
0.51558858
0.51916382
0.52358877
0.52782246
0.5326431
0.53774809
0.540773
0.54500206
0.55010283
0.55570915
0.56046614
0.56621867
0.57089461
0.57715843
0.58383249
0.59354696
0.5982771
0.60455487
0.6142824
0.62690014
0.63206249
0.63934249
0.64929636
0.66922841
0.67894191
0.69320314
0.71849215
0.72360369
0.73691113
0.77890023
0.79079768
0.83702264
0.84350336
0.9018866
0.88437683
0.94247002
0.87288946
0.76357156
0.67102157
0.67921427
0.6187988
0.77855031
0.64366346
0.62901373
0.58639457
0.50498533
0.44860317
0.4138631
0.39612555
0.38730244
0.330837
0.32985106
0.32885663
0.32784982
0.32682625
0.32578141
0.32471019
0.32360757
0.32246781
0.32128554
0.32005457
0.31876949
0.31742395
0.31601294
0.31453032
0.31297193
0.31133229
0.30960858
0.30779632
0.30589442
0.30389963
0.30181267
0.29963164
0.29735956
0.29499613
0.29254619
0.29001057
0.28739586
0.28470374
0.28194155
0.27911121
0.27622118
0.27327383
0.27027795
0.26723581
0.26415648
0.26104162
0.25789882
0.25472928
0.25154134
0.24833631
0.24512202
0.24189906
0.23867471
0.23544882
0.23222772
0.22901061
0.22580336
0.22260472
0.21941977
0.21624685
0.21309083
0.20995001
0.20682863
0.20372458
0.2006422
0.19757951
0.19454123
0.19152522
0.18853458
0.18556605
0.18261865
0.17967784
0.17928828
0.18223446
0.18518337
0.18815052
0.19114013
0.19415325
0.19719096
0.20025584
0.20334213
0.20644939
0.20957595
0.21272002
0.21588231
0.21905972
0.22225169
0.22545523
0.2286701
0.23189294
0.2351226
0.23835509
0.24158915
0.24482023
0.24804597
0.25126093
0.25446199
0.2576427
0.26079947
0.26392312
0.26701344
0.27006552
0.27307344
0.2760315
0.27893399
0.28177519
0.28454931
0.2872516
0.28987791
0.29242407
0.29488576
0.29725972
0.29954325
0.3017345
0.30383196
0.30583579
0.30774699
0.30956735
0.31129917
0.31294575
0.3145109
0.31599916
0.31741547
0.31876529
0.32005425
0.32128824
0.32247312
0.32361477
0.32471892
0.32579115
0.32683673
0.32786062
0.3288675
0.32986181
0.33084765
0.33087959
0.32989764
0.32890738
0.3279051
0.32688629
0.32584621
0.32478018
0.32368287
0.32254876
0.32137209
0.32014708
0.31886779
0.31752847
0.31612337
0.31464716
0.3130947
0.3114616
0.3097438
0.30793816
0.30604204
0.30405384
0.30197127
0.29979481
0.2975261
0.29516737
0.2927204
0.29018903
0.28757696
0.28488882
0.28212456
0.27929239
0.27639722
0.27344689
0.27044526
0.26740001
0.26431565
0.26119746
0.25804149
0.25485806
0.25165369
0.24843777
0.2452099
0.24197823
0.23874199
0.23550852
0.23227615
0.22905184
0.22583386
0.22262842
0.21943295
0.21625327
0.21308798
0.20994556
0.20681674
0.20370809
0.20062058
0.19755549
0.19452867
0.19152458
0.18854014
0.18557574
0.18262776
0.17968885
0.1801734
0.18313431
0.18610062
0.18908073
0.19208918
0.1950999
0.19813573
0.20121403
0.20431264
0.20743555
0.21056591
0.21370621
0.21687647
0.2200632
0.2232653
0.22647703
0.22970049
0.23292982
0.23616636
0.23940318
0.24264102
0.24587246
0.24909737
0.25230744
0.2555018
0.25867039
0.26181359
0.2649208
0.26799655
0.2710295
0.27402069
0.27695807
0.27984265
0.28266505
0.28541505
0.28808345
0.29067548
0.29318444
0.29560975
0.29794515
0.30019054
0.3023438
0.30440339
0.30636847
0.30824262
0.310026
0.31172289
0.31333525
0.31486841
0.31632585
0.31771362
0.31903635
0.32030044
0.32151112
0.32267473
0.32379662
0.3248828
0.32593868
0.32696953
0.32797978
0.32897439
0.32995776
0.33093344
0.33101051
0.33004387
0.32907025
0.32808625
0.32708751
0.32606926
0.32502737
0.32395585
0.32284963
0.32170294
0.32051058
0.31926614
0.31796456
0.31659928
0.31516581
0.31365779
0.31207189
0.31040237
0.30864743
0.30680223
0.3048668
0.30283702
0.30071496
0.2984994
0.2961942
0.29379871
0.29131936
0.2887542
0.28611129
0.28339187
0.28061079
0.27776197
0.27486216
0.27190213
0.26890119
0.2658499
0.26276863
0.25964222
0.25649408
0.25331132
0.25010509
0.24688225
0.24365178
0.24041405
0.23717651
0.23393863
0.23070744
0.22748158
0.22426736
0.2210619
0.21787078
0.21469286
0.21153629
0.20839595
0.20527405
0.20216977
0.19908875
0.19605298
0.19304106
0.19003844
0.18705863
0.18407381
0.18466867
0.18767137
0.19066921
0.1936929
0.19671759
0.19976816
0.20286302
0.20597993
0.20911617
0.21226658
0.21543421
0.21862475
0.22182708
0.22504132
0.22826492
0.23149899
0.234738
0.2379809
0.24122354
0.24446325
0.24769528
0.2509158
0.25411951
0.257298
0.26045445
0.263572
0.26664258
0.2696743
0.27265778
0.27559288
0.27846924
0.2812917
0.28405942
0.28675823
0.28937944
0.29192588
0.29438459
0.29675581
0.29903722
0.30122833
0.30332522
0.30533146
0.30724372
0.30906463
0.3107963
0.31244208
0.31400543
0.31549087
0.31690306
0.3182474
0.31952931
0.32075465
0.32192909
0.32305848
0.32414856
0.32520425
0.32623151
0.32723595
0.32822158
0.32919346
0.33015565
0.33111164
0.33123938
0.33029664
0.32934829
0.32839103
0.32742062
0.32643218
0.32542184
0.32438364
0.32331227
0.32220232
0.32104832
0.3198443
0.31858472
0.31726352
0.31587549
0.31441487
0.31287727
0.31125767
0.30955289
0.307759
0.30587429
0.30389588
0.30182491
0.29965968
0.29740327
0.29505629
0.29262915
0.2901113
0.28751754
0.28483917
0.28209108
0.27927999
0.27641268
0.27348892
0.27051511
0.26749003
0.26442466
0.26131846
0.25817894
0.25500852
0.25181987
0.2486112
0.24538838
0.24215471
0.23891668
0.23567485
0.23243466
0.22919667
0.22597153
0.22275559
0.2195508
0.21635711
0.21318064
0.21001923
0.20687467
0.20375215
0.20064997
0.19759393
0.19456158
0.1915431
0.18854952
0.18554809
0.18602189
0.18904538
0.19205195
0.19508683
0.1981394
0.20121772
0.2043266
0.20744982
0.21060533
0.21378256
0.21697358
0.220179
0.2233962
0.22661933
0.22985171
0.23309336
0.23633619
0.23958574
0.24282955
0.2460679
0.24929606
0.25251093
0.25570681
0.25888028
0.26202559
0.26513329
0.26820061
0.27123667
0.27420992
0.27712445
0.27997776
0.28277104
0.28549943
0.2881629
0.29074858
0.2932539
0.29567184
0.29800594
0.30024721
0.30239514
0.3044486
0.30640781
0.3082733
0.31004727
0.31173207
0.31333121
0.31484844
0.31628847
0.31765615
0.31895699
0.32019655
0.32138072
0.32251525
0.323606
0.32465875
0.32567843
0.32667095
0.32764198
0.32859547
0.32953642
0.33046889
0.33139634
0.33249543
0.33158744
0.33067857
0.32976522
0.32884395
0.32791054
0.32696002
0.32598843
0.32498982
0.3239589
0.32289014
0.32177801
0.32061644
0.31939984
0.31812202
0.31677768
0.31536093
0.31386722
0.31229135
0.31062997
0.30887893
0.30703642
0.30509947
0.3030681
0.30094112
0.29872039
0.29640567
0.29400235
0.29151058
0.28893684
0.28628397
0.28356451
0.28078111
0.27794179
0.2750378
0.27208428
0.26907027
0.2660185
0.26291378
0.25976698
0.25658844
0.25338708
0.25016593
0.24693489
0.24369578
0.24045187
0.23720052
0.23395071
0.23070147
0.22745961
0.22422443
0.22100239
0.21779316
0.21459772
0.21141138
0.20824642
0.20509938
0.20197375
0.19888963
0.19582193
0.19276404
0.18972486
0.18668769
0.18705457
0.19012572
0.19318941
0.19628227
0.19937024
0.20247893
0.2056342
0.20880964
0.21200537
0.21520213
0.21840076
0.22161181
0.2248381
0.22809412
0.23135814
0.23462748
0.23790352
0.24116038
0.24440092
0.24763494
0.25086241
0.25409479
0.25730856
0.26049747
0.26365969
0.26676828
0.26982469
0.27283528
0.27578962
0.27869581
0.28154073
0.28431902
0.28703066
0.28968047
0.29225019
0.294735
0.2971306
0.29943426
0.30164329
0.30375689
0.30577427
0.30769584
0.30952242
0.31125607
0.31289953
0.31445623
0.31593031
0.31732642
0.31864973
0.31990575
0.32110025
0.32223914
0.32332837
0.32437384
0.3253815
0.32635644
0.32730462
0.32823182
0.32914207
0.33004051
0.33093141
0.3318183
0.33270507
0.33295886
0.33209813
0.33123793
0.3303743
0.3295036
0.32862133
0.32772232
0.32680244
0.32585562
0.32487635
0.3238588
0.32279732
0.32168567
0.32051813
0.31928843
0.31799111
0.31662019
0.31517096
0.31363811
0.31201812
0.31030674
0.30850201
0.30660088
0.30460444
0.30251124
0.3003218
0.29803654
0.29565591
0.29318653
0.29063136
0.28799425
0.28528438
0.28250304
0.27966511
0.27675841
0.27379111
0.27076597
0.26769502
0.26457875
0.2614257
0.25824106
0.2550306
0.25179998
0.24856046
0.24531017
0.24205544
0.23878923
0.23551885
0.23224781
0.22897972
0.22571351
0.22246096
0.21921823
0.21599111
0.21277786
0.2095967
0.20642315
0.20325641
0.20013276
0.19703012
0.19393376
0.19085869
0.18777626
0.18816165
0.19127715
0.19438553
0.19751729
0.20064674
0.20380256
0.20698398
0.21017067
0.21337892
0.21662261
0.21988259
0.22316006
0.22645085
0.22974035
0.2330212
0.23630478
0.23959614
0.2428865
0.24616218
0.24943191
0.25268685
0.25592707
0.25914126
0.2623282
0.26548541
0.26861768
0.2717064
0.27475921
0.27774361
0.28066265
0.2835147
0.2863019
0.28901214
0.29164356
0.29418624
0.29664514
0.29901422
0.3012863
0.30345923
0.30553438
0.30751143
0.30939682
0.31118492
0.31287778
0.31447795
0.31598923
0.31741564
0.31876217
0.32003394
0.32123674
0.32237635
0.32345888
0.32449058
0.32547661
0.3264234
0.32733739
0.32822451
0.32909053
0.32993971
0.33077752
0.33160848
0.33243654
0.3332661
0.33363986
0.33284869
0.33205975
0.33126863
0.33047117
0.32966236
0.32883666
0.32798953
0.32711437
0.32620565
0.32525719
0.32426288
0.32321635
0.3221117
0.32094245
0.31970307
0.31838739
0.31699063
0.31550732
0.31393391
0.312266
0.31050165
0.30863802
0.30667674
0.30461415
0.30245294
0.30019137
0.29784329
0.29540467
0.29287523
0.29024877
0.2875358
0.2847448
0.28189036
0.27896509
0.2759852
0.2729398
0.26985262
0.26670974
0.26352987
0.26031437
0.25707443
0.25380893
0.25052927
0.24723246
0.24392911
0.24061804
0.23730817
0.23399592
0.23068886
0.22738456
0.22410077
0.22081613
0.21755095
0.21428923
0.21104187
0.20781031
0.20459915
0.20143185
0.19828998
0.1951529
0.19203591
0.18890933
0.18936388
0.19252774
0.19569049
0.19885385
0.20201988
0.2052174
0.20846357
0.21172888
0.21500908
0.21829859
0.22160039
0.22491507
0.22823766
0.23157227
0.23490881
0.23825707
0.24160326
0.2449432
0.24827456
0.25160669
0.25491958
0.25821826
0.26149648
0.26473046
0.26792777
0.27108507
0.27418677
0.27723802
0.28022775
0.28316158
0.28603736
0.28884366
0.29157147
0.29419965
0.29672895
0.29916602
0.30150985
0.3037666
0.30592232
0.30797517
0.30992412
0.31177049
0.31351511
0.31516046
0.31670938
0.31816549
0.31953311
0.32081712
0.3220229
0.32315623
0.32422313
0.32522982
0.32618265
0.3270877
0.32795164
0.32878075
0.32958087
0.33035864
0.33111896
0.33186786
0.33261062
0.3333518
0.33409629
0.33535392
0.33465791
0.33397129
0.33328893
0.33260553
0.3319161
0.33121481
0.33049536
0.32975259
0.32897943
0.32817036
0.32731773
0.32641533
0.32545686
0.32443628
0.32334697
0.32218328
0.32093895
0.31960913
0.31818821
0.31667259
0.31505786
0.31334203
0.31152106
0.30959464
0.30756095
0.30542166
0.3031775
0.30083569
0.29839349
0.29585764
0.29322663
0.29050407
0.28769415
0.28481141
0.28185859
0.27884575
0.27577032
0.27264415
0.26946846
0.26625743
0.26301027
0.2597273
0.25641505
0.25309434
0.24975175
0.24640781
0.24303987
0.23966356
0.23628412
0.23292247
0.22955549
0.22618979
0.22283169
0.21948746
0.21615407
0.2128409
0.20954271
0.20626258
0.20302959
0.19981556
0.19661159
0.19342224
0.19023386
0.19096161
0.19420344
0.19743767
0.20068955
0.20394124
0.20721913
0.21054344
0.21388867
0.21725071
0.22062948
0.22402045
0.22742281
0.23083427
0.23424563
0.2376601
0.2410844
0.24450692
0.24790423
0.25127872
0.25464769
0.25801268
0.26136585
0.26467427
0.26794062
0.2711728
0.27437632
0.27753058
0.28063893
0.28368317
0.2866615
0.28956426
0.29238629
0.29512082
0.29775954
0.30030058
0.30274828
0.30509064
0.30732789
0.30945557
0.31147324
0.31338052
0.31517837
0.31686808
0.31845322
0.3199364
0.32132142
0.32261242
0.32381456
0.32493322
0.3259743
0.32694376
0.32784799
0.32869364
0.32948613
0.3302326
0.3309405
0.3316163
0.33226672
0.33289741
0.33351533
0.33412665
0.33473709
0.33535266
0.33597921
0.33675802
0.33621764
0.33568946
0.33516673
0.33464275
0.33411114
0.33356493
0.33299686
0.33240093
0.33176938
0.33109586
0.33037351
0.32959579
0.32875598
0.32784794
0.32686496
0.3258014
0.32465097
0.32340875
0.32206905
0.32062829
0.319082
0.31742831
0.31566255
0.31378412
0.31179096
0.30968408
0.30746221
0.30513251
0.30269374
0.30016044
0.29752014
0.29477929
0.29194622
0.28902897
0.28603094
0.28296922
0.27984027
0.2766666
0.27343323
0.27015722
0.26684461
0.26351159
0.26013553
0.25673094
0.25330626
0.2498722
0.24642516
0.24296819
0.23950432
0.23604243
0.23258212
0.2291281
0.22568116
0.22224619
0.2188228
0.2154161
0.21202526
0.20865785
0.20534001
0.20205154
0.19876884
0.19549072
0.19221224
0.19331926
0.19666077
0.20000135
0.20333419
0.2066733
0.21004805
0.21347682
0.21692844
0.22039731
0.22388409
0.22738324
0.23089443
0.23441436
0.23794128
0.24147041
0.24499869
0.2485218
0.25203131
0.25552635
0.25902078
0.26247518
0.26589375
0.26927624
0.27262865
0.27594343
0.27922095
0.28244653
0.28560406
0.28868556
0.29170766
0.29464704
0.29749651
0.30025032
0.30289843
0.30544084
0.30788083
0.31020637
0.31241583
0.31450657
0.31647865
0.3183319
0.32006725
0.3216864
0.32319368
0.32459153
0.32588382
0.3270748
0.32816969
0.32917391
0.3300934
0.33093419
0.33170263
0.33240513
0.33304791
0.33363792
0.33418189
0.33468646
0.33515942
0.3356071
0.33603735
0.33645765
0.336875
0.33729722
0.33773217
0.33895196
0.33864426
0.3383483
0.33805501
0.33775577
0.33744303
0.3371089
0.33674536
0.33634593
0.33590262
0.33540937
0.33485853
0.33424368
0.33355881
0.3327978
0.33195417
0.33102188
0.32999491
0.3288679
0.32763534
0.32629288
0.32483658
0.32326426
0.32156927
0.31975056
0.3178094
0.31574524
0.31355514
0.31124189
0.30881118
0.3062682
0.30361458
0.30085449
0.29799296
0.29503674
0.29199263
0.28887359
0.28567971
0.28241846
0.27909335
0.27572018
0.27231054
0.26887911
0.26540534
0.26190913
0.25837529
0.25483182
0.25125755
0.24766306
0.24406092
0.24045861
0.23685922
0.23326798
0.22968634
0.22611767
0.22256115
0.21902747
0.21551228
0.21201863
0.20857759
0.20515897
0.2017536
0.19836336
0.19497525
0.19659494
0.20007094
0.20354291
0.20703605
0.21053291
0.2140573
0.21763392
0.22122849
0.22484342
0.22847879
0.23212698
0.2357898
0.23945993
0.24313889
0.24681808
0.25049722
0.25417222
0.25782404
0.26144591
0.26505005
0.26862611
0.27217583
0.27568745
0.27916994
0.28262557
0.28601518
0.28932987
0.29257502
0.29573944
0.29882083
0.30180585
0.3046917
0.30746732
0.31013317
0.31267903
0.31510744
0.31741982
0.31959734
0.32163786
0.32355084
0.32534067
0.32699709
0.32852259
0.32992582
0.33120939
0.33237758
0.3334344
0.33438619
0.33523807
0.33599634
0.33666701
0.33725714
0.33777266
0.33821979
0.33860499
0.33893504
0.33921684
0.33945748
0.33966373
0.33984419
0.34000657
0.3401587
0.34030968
0.34046934
0.34064804
0.34233359
0.34232267
0.34232708
0.34233649
0.34234105
0.34233188
0.34230114
0.34224003
0.34213931
0.34199234
0.34179229
0.34153245
0.34120583
0.34080577
0.34032595
0.33976033
0.33910084
0.33834175
0.33747566
0.33649784
0.33540179
0.33418383
0.33283889
0.33136098
0.32974819
0.32799974
0.32611244
0.32408852
0.3219238
0.31962467
0.31719238
0.31463422
0.31195252
0.30916135
0.30624797
0.3032249
0.30009854
0.29688359
0.29358041
0.29020285
0.28675104
0.28324204
0.27968207
0.2760839
0.2724462
0.26878196
0.2650877
0.26137571
0.25764637
0.25392494
0.25018621
0.2464345
0.24267841
0.23892764
0.23518376
0.23145421
0.22773733
0.22403964
0.22036181
0.21670742
0.21310585
0.2095226
0.2059526
0.20240055
0.19885605
0.20113708
0.20478408
0.20842663
0.2120903
0.21575724
0.21945164
0.22320001
0.22696745
0.23075528
0.23456856
0.23839451
0.24222524
0.24606033
0.24991471
0.25374698
0.25756297
0.26137735
0.26520161
0.26900973
0.27280721
0.27657048
0.2803052
0.2839984
0.28764434
0.29123416
0.29475403
0.29819722
0.30156843
0.30484426
0.30802537
0.31110024
0.31405682
0.31689292
0.31961336
0.32220135
0.32465254
0.326963
0.32912657
0.33114278
0.33301825
0.33474053
0.3363168
0.33774932
0.3390404
0.34019923
0.34122903
0.34213065
0.34290992
0.34357193
0.34412335
0.3445709
0.34492404
0.34518949
0.34537436
0.34548547
0.3455302
0.34551772
0.34545448
0.34534616
0.34520484
0.34504163
0.34486446
0.34468204
0.34450333
0.34433781
0.34628989
0.34661341
0.34696329
0.34733006
0.34770453
0.34807737
0.34843933
0.34878104
0.34908913
0.34935155
0.34956444
0.34971896
0.34979527
0.34978701
0.34968564
0.34948269
0.34916968
0.3487384
0.34818232
0.34749269
0.34666443
0.34569408
0.34458139
0.34332718
0.34192785
0.34037328
0.33866748
0.33680486
0.33479394
0.3326241
0.33029936
0.32782552
0.32520859
0.32245424
0.31958102
0.31658038
0.3134556
0.31021912
0.30689208
0.30346644
0.29996572
0.29637403
0.29270707
0.28897955
0.28520036
0.28137436
0.27752757
0.27363944
0.26973839
0.2658107
0.26187699
0.25794348
0.25402652
0.25009949
0.2461879
0.24227162
0.23835354
0.23444527
0.23056081
0.22669977
0.22286119
0.21907756
0.21531603
0.21156957
0.20783818
0.20411161
0.20704982
0.21090192
0.21473032
0.21856438
0.22241501
0.22630855
0.23024251
0.23418721
0.23815548
0.24217218
0.24618335
0.25019438
0.25421029
0.2582371
0.26226362
0.2662935
0.27032323
0.27435733
0.27837537
0.28237198
0.28633946
0.29025879
0.29411524
0.29791435
0.30165364
0.30531816
0.30889023
0.31237998
0.31578352
0.31908944
0.32226884
0.32532232
0.32825751
0.33106457
0.33372942
0.33624628
0.3386127
0.34081468
0.34285451
0.34473985
0.34647254
0.34804253
0.34944984
0.35070121
0.35179823
0.35274332
0.35352849
0.35415603
0.35462846
0.3549497
0.3551245
0.35516025
0.35506611
0.35485711
0.35455697
0.3541708
0.35372278
0.35322623
0.35269213
0.35212766
0.35154032
0.3509397
0.35033605
0.34974045
0.34916436
0.34861995
0.35057249
0.35134373
0.35216678
0.35302623
0.35390789
0.35479824
0.35568422
0.3565538
0.35739528
0.3581965
0.35894556
0.35963079
0.36024024
0.36077016
0.36119877
0.3614896
0.3616038
0.36153174
0.36127168
0.36082831
0.36020389
0.35940486
0.35843311
0.35730011
0.35600057
0.35453769
0.3529103
0.35112272
0.34917539
0.34707231
0.3448118
0.34239533
0.33982602
0.33710874
0.33424705
0.33125458
0.32813557
0.32490361
0.32154843
0.31808369
0.31451888
0.31086689
0.30712977
0.30332326
0.2994492
0.2955149
0.2915272
0.28749341
0.28342077
0.27931999
0.27519448
0.27106135
0.26691973
0.26278164
0.25864956
0.25454119
0.25043768
0.24635665
0.24227205
0.23820268
0.23415211
0.23012712
0.22615683
0.22221331
0.21828487
0.21436759
0.21045097
0.21354332
0.21756645
0.22156033
0.22555663
0.22957013
0.23362427
0.23773638
0.24187265
0.24603494
0.25019444
0.25435631
0.25854547
0.26276801
0.26701267
0.27126146
0.27550891
0.27975217
0.28395832
0.28812707
0.29226395
0.2963559
0.30041154
0.30441166
0.30834524
0.31221419
0.31601926
0.31973767
0.32337401
0.32689649
0.33030821
0.33361629
0.33681149
0.33988096
0.34281852
0.34561745
0.3482734
0.35078351
0.35314257
0.35535069
0.35740998
0.35931367
0.36105843
0.36264137
0.36406233
0.3653142
0.36640028
0.36731179
0.36803757
0.36856586
0.36888344
0.36897622
0.36883137
0.36844182
0.36787553
0.3671548
0.36630373
0.36534289
0.36429009
0.36316228
0.36197673
0.36075052
0.35950003
0.35824168
0.35699173
0.35576738
0.35458673
0.35346915
0.35243556
0.35549457
0.3569636
0.35853865
0.36019206
0.36189782
0.36363155
0.36537055
0.36709124
0.36876817
0.37037577
0.37188762
0.37327633
0.37451076
0.37555642
0.37637455
0.3769273
0.37717302
0.37711898
0.37680732
0.37626066
0.37550001
0.37454288
0.37340513
0.37210478
0.37064053
0.36901541
0.36723788
0.36530776
0.36323171
0.3610135
0.35866095
0.35616705
0.35353399
0.35076631
0.34786784
0.34484134
0.34169111
0.33842439
0.3350521
0.33157817
0.32801394
0.32434595
0.32059424
0.31674775
0.31282198
0.30883188
0.3047929
0.30069641
0.29655084
0.29236079
0.28813944
0.28388686
0.2796086
0.27531472
0.27101362
0.26671121
0.26242655
0.25816007
0.25391899
0.24969568
0.24549115
0.24130915
0.23715254
0.23305408
0.22897883
0.22491964
0.22086981
0.21681799
0.21520672
0.21929061
0.2233767
0.22744678
0.23152556
0.23561826
0.23973793
0.24391269
0.24810654
0.25232904
0.25657641
0.26084362
0.26514027
0.26944856
0.27375945
0.27806726
0.28236783
0.28665192
0.29091824
0.29515435
0.29937008
0.30352879
0.30764004
0.31169883
0.3157023
0.31965625
0.32352734
0.32731263
0.33101696
0.33463405
0.33816594
0.34160484
0.34495186
0.34820377
0.35135167
0.35438881
0.35731353
0.36012562
0.36281508
0.36538515
0.36783821
0.37017089
0.37238042
0.37445897
0.37640211
0.37820235
0.37985285
0.38135427
0.38269435
0.38385557
0.38481837
0.38555834
0.38604655
0.3862453
0.38605898
0.38546936
0.38445589
0.38309278
0.38142784
0.37952293
0.37743194
0.37520277
0.37288044
0.37050977
0.36812945
0.36577193
0.36347366
0.36127682
0.35922007
0.35734086
0.36123745
0.36386565
0.36674247
0.36981965
0.37302892
0.37627714
0.37951603
0.38270214
0.38575809
0.38858797
0.39109688
0.39319405
0.39481048
0.39583071
0.39628613
0.39617961
0.39563652
0.39476281
0.39361289
0.39223263
0.39065417
0.38890616
0.3870111
0.38498744
0.38282891
0.38054908
0.37815406
0.37565313
0.37304936
0.37035075
0.36756284
0.36469124
0.36173677
0.35869927
0.35557882
0.35237516
0.34908574
0.34571557
0.342267
0.33874781
0.33516166
0.33151371
0.32779704
0.32401338
0.32016311
0.31626255
0.31230322
0.30830001
0.30424131
0.30014631
0.29600445
0.29184133
0.28764702
0.28344526
0.27922057
0.27497657
0.27072361
0.26647767
0.26224168
0.25804489
0.25387028
0.24971071
0.24556009
0.2414313
0.23735456
0.23329679
0.22924438
0.22519541
0.22114574
0.21711738
0.20895053
0.21298534
0.21697328
0.22092366
0.22488978
0.22883851
0.23278692
0.23671551
0.24065068
0.24463782
0.24862097
0.25261875
0.25665413
0.26071466
0.26480041
0.26888648
0.2729738
0.27703223
0.28106566
0.28508952
0.28911321
0.29312429
0.29711894
0.30108732
0.30500727
0.30887794
0.31270903
0.31650402
0.32027066
0.32399649
0.32768603
0.33134311
0.33498874
0.33861083
0.34218709
0.34570697
0.34917119
0.35258578
0.35596154
0.35930456
0.36261489
0.36589159
0.36913215
0.37232699
0.37547078
0.37855602
0.38157866
0.38453437
0.3874128
0.39020031
0.39289099
0.39548174
0.39794541
0.40024742
0.40235035
0.40420556
0.40575034
0.40690064
0.40756217
0.4075663
0.4067573
0.40515602
0.40269381
0.3995046
0.39572336
0.39156729
0.38724138
0.38280867
0.37826305
0.37388559
0.36982438
0.36613058
0.36782844
0.37248843
0.37771612
0.3834974
0.38983912
0.39648965
0.40226708
0.40782577
0.41280221
0.41672352
0.41927866
0.42055768
0.42063516
0.41981336
0.41828052
0.41610091
0.41342542
0.41040466
0.40712515
0.40364437
0.40001337
0.39627575
0.39247789
0.38864275
0.38477559
0.3809073
0.37706028
0.37323827
0.36943446
0.36562598
0.36181316
0.35799363
0.35418334
0.350408
0.34669509
0.34303653
0.33941463
0.33579934
0.33215266
0.32844877
0.32469526
0.32096696
0.3173866
0.31385078
0.31033394
0.30680864
0.30327574
0.29972408
0.29613905
0.29251566
0.28885759
0.28516698
0.28148576
0.27780982
0.2741279
0.27043471
0.2667375
0.2630146
0.25926496
0.25550405
0.25176233
0.24803375
0.24432383
0.2406471
0.23696939
0.23331218
0.2296425
0.22594672
0.22222237
0.21846051
0.21468524
0.21086727
0.20700198
0.20308918
0.19709048
0.20082095
0.20447155
0.20805187
0.21157118
0.21503169
0.21840316
0.22170633
0.224933
0.22812899
0.23130631
0.23446893
0.23765667
0.24088659
0.24412836
0.24735499
0.25051585
0.25362162
0.25668868
0.25972831
0.26276826
0.26583494
0.26902089
0.27222783
0.27534357
0.27836684
0.28131684
0.28422908
0.28713854
0.29002869
0.29283187
0.295537
0.29843896
0.30280307
0.30689786
0.31074607
0.31434401
0.31786661
0.32160209
0.32557643
0.32974976
0.3343718
0.33904008
0.34370205
0.3482765
0.35269112
0.35705757
0.361733
0.36674238
0.37197299
0.37741448
0.38302747
0.38872332
0.39444435
0.40013641
0.40574586
0.4112094
0.4164945
0.42159832
0.42628145
0.43020116
0.43328131
0.43544596
0.43650032
0.43607238
0.43368706
0.42899683
0.42265214
0.41628447
0.40603356
0.39676649
0.38844643
0.38114112
0.37427572
0.37480349
0.38276481
0.39313101
0.40331864
0.41548732
0.42884391
0.44067172
0.44584931
0.44591234
0.44567272
0.44845913
0.44921193
0.45079411
0.45039431
0.45066218
0.44873044
0.44837673
0.44553514
0.44464943
0.44150073
0.43995861
0.43677171
0.43464236
0.43136027
0.42850831
0.42495988
0.42134755
0.41790754
0.41417156
0.41144047
0.40769902
0.40517757
0.40124094
0.39884754
0.39473856
0.39249171
0.38826788
0.38616777
0.38186774
0.37991234
0.37557469
0.37377121
0.3694298
0.36775275
0.36344217
0.36194122
0.35768515
0.35638742
0.35214981
0.35109512
0.34694872
0.34632335
0.34227559
0.34177985
0.3375861
0.3368977
0.33250319
0.33169805
0.32715182
0.32636508
0.32170131
0.32104205
0.31635991
0.31591649
0.31160957
0.31075794
0.30644044
0.30604782
0.30176219
0.30202707
0.29777892
0.29836137
0.29414806
0.29455432
0.29034289
0.2904285
0.28620004
0.28600251
0.28173918
0.27882833
0.26625858
0.24531467
0.23349968
0.25925076
0.25766623
0.25599239
0.25394755
0.25174126
0.24976381
0.24785468
0.24594742
0.24371087
0.2410587
0.23802789
0.23648958
0.23505681
0.23335044
0.23147216
0.22947025
0.22732551
0.22501538
0.22257087
0.22011339
0.21775875
0.2154255
0.21305405
0.21062708
0.20808955
0.20539697
0.20254239
0.19951104
0.19637078
0.19312662
0.18981062
0.18642408
0.1829799
0.1650311
0.16804622
0.17098814
0.17385418
0.17661144
0.17924741
0.18221214
0.1844859
0.1863059
0.18772938
0.18887447
0.18975868
0.19032366
0.19094135
0.19297331
0.1945879
0.19572778
0.19657846
0.19729953
0.19810268
0.19865164
0.19858553
0.18135754
0.17183732
0.17798993
0.17474065
0.17966091
0.17619803
0.18003199
0.17650289
0.17985646
0.17637231
0.17926304
0.17578814
0.1786503