/*--------------------------------*- C++ -*----------------------------------*\
| =========                 |                                                 |
| \\      /  F ield         | OpenFOAM: The Open Source CFD Toolbox           |
|  \\    /   O peration     | Version:  v2012                                 |
|   \\  /    A nd           | Website:  www.openfoam.com                      |
|    \\/     M anipulation  |                                                 |
\*---------------------------------------------------------------------------*/
FoamFile
{
    version     2.0;
    format      ascii;
    class       volScalarField;
    location    "200";
    object      p;
}
// * * * * * * * * * * * * * * * * * * * * * * * * * * * * * * * * * * * * * //

dimensions      [0 2 -2 0 0 0 0];


internalField   nonuniform List<scalar> 
227544
(
5.2322573
6.3033195
7.5869323
9.3490335
11.31388
13.042831
12.341084
10.25273
8.9338828
7.4612137
6.2029301
4.9621968
4.1515323
3.0190513
2.5005474
2.0022863
1.5673826
1.27061
0.37926259
-0.021902953
-0.10116517
-0.50066642
-0.75268966
-1.0854633
-1.1087985
-1.5457769
-1.7101968
-1.9046646
-1.8853434
-2.2492054
-2.2784636
-2.6891153
-2.5144404
-2.7411453
-2.8814088
-2.9347935
-3.2497309
-3.0710941
-3.2195482
-3.3645175
-3.3553184
-3.6024453
-3.60248
-3.5361912
-3.7464011
-3.7470025
-3.7374627
-4.0028308
-3.9130459
-3.8638976
-4.1435273
-4.0870783
-4.0109881
-4.1342141
-4.252476
-4.1994857
-4.2459506
-4.2462267
-4.2756521
-4.4262566
-4.4173405
-4.3259081
-4.4750435
-4.5061761
-4.4318665
-4.4480423
-4.6561352
-4.5050851
-4.4764507
-4.5713275
-4.6615021
-4.542182
-4.521618
-4.55966
-4.7488006
-4.5761287
-4.5391598
-4.5567415
-4.7181434
-4.6492999
-4.5468537
-4.5709779
-4.6273632
-4.5581013
-4.6301314
-4.5784111
-4.5625554
-4.5912371
-4.5074922
-4.5968662
-4.4833969
-4.4928186
-4.4766507
-4.3989507
-4.4880088
-4.3596656
-4.3450558
-4.3672209
-4.2665565
-4.2737311
-4.2558643
-4.1700675
-4.1649092
-4.1928808
-4.128421
-4.0795498
-4.0472845
-4.0661529
-4.1483854
-4.0568099
-3.9780299
-3.9508774
-3.9290873
-3.9264938
-3.9759199
-3.994406
-3.8811509
-3.8345319
-3.8057488
-3.7955555
-3.7875044
-3.8906988
-3.7789404
-3.7207911
-3.6868401
-3.6651231
-3.6479696
-3.6699664
-3.6468672
-3.5712686
-3.5282236
-3.4905538
-3.4916419
-3.4445691
-3.3843145
-3.3410453
-3.3241167
-3.3695365
-3.3149238
-3.2478305
-3.2239018
-3.1948402
-3.1650349
-3.1523466
-3.1411646
-3.1764466
-3.1475358
-3.0712081
-3.0321229
-3.0028627
-2.9780656
-2.9639284
-2.9566701
-2.9584199
-2.9735423
-2.8849798
-2.844363
-2.8200398
-2.7859868
-2.7584435
-2.735605
-2.7304962
-2.6963358
-2.6594668
-2.5951869
-2.5728583
-2.5568145
-2.539326
-2.529512
-2.5215417
-2.5332559
-2.4417177
-2.4067409
-2.3795006
-2.3461836
-2.3198564
-2.2987754
-2.2807353
-2.2806462
-2.1881716
-2.1403575
-2.1170738
-2.0975441
-2.0633338
-2.0470748
-2.034452
-2.0495134
-1.9698465
-1.9293262
-1.899377
-1.8689178
-1.8381299
-1.81277
-1.7912194
-1.775447
-1.7787201
-1.7233862
-1.6475653
-1.595753
-1.5525182
-1.5224111
-1.5104677
-1.481384
-1.4719904
-1.4307398
-1.3767873
-1.3408667
-1.3087926
-1.2756441
-1.248738
-1.2257041
-1.2066556
-1.1913503
-1.1598125
-1.1106835
-1.0725697
-1.0347871
-0.99854015
-0.96695146
-0.92338104
-0.89537812
-0.88929756
-0.88286342
-0.79882474
-0.75846505
-0.71955524
-0.67346114
-0.63534996
-0.59704655
-0.56260441
-0.52904377
-0.52122861
-0.43891532
-0.37217851
-0.31198804
-0.2424525
-0.192483
-0.16197594
-0.13437677
-0.069899864
-0.011949201
0.046951902
0.11102448
0.16769233
0.22509322
0.28055924
0.34113349
0.37376041
0.47707622
0.57991104
0.67616356
0.78361877
0.8717156
0.9330541
1.012275
1.1482259
1.2545854
1.3635198
1.4926797
1.6118454
1.746856
1.8716676
2.02668
2.0949747
3.3504682
-0.105794
5.927096
2.8885218
2.2161669
2.3684154
1.9329345
1.6126453
1.4254323
1.2652998
1.1207259
5.6197003
7.1763807
7.1176824
8.0422022
9.4044038
11.091435
11.761575
12.842333
12.771747
11.538405
10.790189
8.9284564
8.2490544
6.7708712
6.5091628
5.331006
5.03817
6.175533
6.1907137
7.3463822
7.73421
9.0281678
9.7213573
11.449497
10.807736
10.772701
11.705365
11.962553
12.625475
12.11324
13.126484
12.988434
13.400814
13.074369
12.829999
13.138829
13.035452
13.20227
12.360194
10.548606
9.0303399
7.5285095
6.2344902
4.9493543
4.237663
2.9699429
2.3187627
1.88345
1.4315341
1.246076
0.39300131
-0.10852551
-0.24673073
-0.50462537
-0.89575548
-1.2214624
-1.1063857
-1.546305
-1.8001446
-2.0300919
-1.8895999
-2.208115
-2.372531
-2.6175427
-2.6380721
-2.7189671
-2.894086
-2.9963489
-3.2255336
-3.1918049
-3.2031723
-3.3552727
-3.431743
-3.5352203
-3.6413496
-3.6215997
-3.687641
-3.7748048
-3.7767439
-3.9428446
-3.9687443
-3.8992276
-4.0591034
-4.1823707
-4.0371568
-4.0808538
-4.2134636
-4.2930419
-4.2185197
-4.2079122
-4.2669963
-4.3290367
-4.1568067
-4.0674287
-4.2354825
-4.119328
-4.0032943
-3.9691806
-4.0095642
-3.8559195
-3.8163458
-3.7755567
-3.72136
-3.7674525
-3.620548
-3.4990986
-3.495428
-3.307361
-3.4085236
-3.1835943
-3.2233752
-2.9946943
-2.909133
-2.7062054
-2.7738336
-2.5233981
-2.4860072
-2.1225157
-2.0690072
-2.1098389
-1.8076658
-1.529753
-1.4195705
-1.2206394
-0.91007745
-0.45130911
-0.37245905
-0.074354234
0.46073613
0.5690082
1.3956619
1.9266509
2.2850283
3.1307103
3.8381036
4.9912256
6.1455344
7.5504027
9.3987033
11.002643
10.219473
10.276671
8.4749317
8.3767159
9.0287771
9.2852069
8.8019449
8.9578018
9.1637847
8.2879197
7.6687243
6.7776928
6.0698618
5.221933
-0.84880311
-0.9009484
-0.95273823
-1.0039075
-1.0542087
-1.1033979
-1.1512458
-1.1975165
-1.2419893
-1.2844582
-1.324732
-1.3626351
-1.3980084
-1.4307114
-1.460621
-1.4876333
-1.5116605
-1.5326374
-1.5505077
-1.56525
-1.5768231
-1.5852738
-1.5905102
-1.5927535
-1.5923175
-1.5883656
-1.5814917
-1.5717944
-1.5593015
-1.544119
-1.5263562
-1.5061223
-1.4835348
-1.4587175
-1.4317995
-1.4029133
-1.3721981
-1.3397925
-1.3058398
-1.2704854
-1.2338768
-1.1961617
-1.1574898
-1.11801
-1.0778711
-1.0372205
-0.99620408
-0.95496785
-0.91364522
-0.87239825
-0.83136431
-0.79064384
-0.75036574
-0.71064616
-0.67159551
-0.63331706
-0.59590627
-0.55944986
-0.52402503
-0.48969939
-0.4565328
-0.4245763
-0.39387296
-0.39307077
-0.4237971
-0.45578278
-0.48898395
-0.52335007
-0.55882062
-0.59532792
-0.63279502
-0.6711346
-0.71025114
-0.75004042
-0.79039211
-0.83118937
-0.87230412
-0.91363389
-0.95504153
-0.99636493
-1.03747
-1.0782101
-1.1184394
-1.1580102
-1.1967737
-1.2345805
-1.2712802
-1.3067244
-1.3407662
-1.3732598
-1.4040633
-1.4330365
-1.4600402
-1.4849415
-1.507611
-1.5279237
-1.5457623
-1.5610169
-1.5735783
-1.5833449
-1.590275
-1.5942759
-1.5949335
-1.5925921
-1.5873234
-1.5789117
-1.5673636
-1.5526404
-1.5347752
-1.5137929
-1.4897482
-1.4627068
-1.4327564
-1.4000009
-1.3645634
-1.326585
-1.2862248
-1.2436583
-1.1990774
-1.1526882
-1.1047108
-1.0553755
-1.0049244
-0.95360491
-0.9016642
-0.84936039
-0.85041344
-0.9030581
-0.95532756
-1.0069746
-1.0577547
-1.1074151
-1.1556922
-1.2023544
-1.2471846
-1.2899768
-1.330538
-1.3686913
-1.4042771
-1.4371545
-1.4672007
-1.4943123
-1.5184026
-1.5394059
-1.5572711
-1.5719748
-1.5834968
-1.5918816
-1.5971445
-1.5994239
-1.59852
-1.594415
-1.5873665
-1.5774563
-1.5647451
-1.5493331
-1.5313293
-1.5108451
-1.4879988
-1.4629151
-1.4357257
-1.4065625
-1.3755648
-1.3428741
-1.3086333
-1.2729892
-1.2360884
-1.19808
-1.1591146
-1.1193433
-1.0789148
-1.0379774
-0.99667757
-0.95516316
-0.91356882
-0.872058
-0.83076744
-0.78980093
-0.74928758
-0.70934554
-0.67008535
-0.63161262
-0.59402347
-0.55740622
-0.52183819
-0.48738638
-0.45411193
-0.4220655
-0.39129125
-0.38829061
-0.41914059
-0.45128612
-0.48468241
-0.51927566
-0.55500533
-0.59180626
-0.62959964
-0.66829542
-0.70779579
-0.74799373
-0.78877892
-0.83003113
-0.87161767
-0.91343355
-0.95534274
-0.99717929
-1.0388073
-1.0800779
-1.120843
-1.1609528
-1.200258
-1.2386063
-1.2758463
-1.311828
-1.3464036
-1.3794259
-1.4107506
-1.4402359
-1.4677418
-1.4931332
-1.5162789
-1.537053
-1.5553356
-1.5710131
-1.5839746
-1.5941214
-1.6013773
-1.605666
-1.6068187
-1.6047263
-1.5995557
-1.5912315
-1.5797459
-1.5650602
-1.5471839
-1.5261373
-1.501966
-1.4747334
-1.4445239
-1.41144
-1.3756037
-1.3371562
-1.2962574
-1.2530853
-1.2078338
-1.1607089
-1.1119341
-1.0617588
-1.0104378
-0.95822414
-0.90537133
-0.85213551
-0.85463911
-0.90875215
-0.96246693
-1.0155199
-1.0676416
-1.1185741
-1.1680697
-1.2158714
-1.261745
-1.3054788
-1.3468771
-1.3857602
-1.4219674
-1.4553577
-1.4858102
-1.5132242
-1.5375186
-1.5586337
-1.5765279
-1.5911853
-1.6026005
-1.6108021
-1.6157907
-1.6176166
-1.6161672
-1.6115965
-1.6040279
-1.5935357
-1.5802066
-1.5641431
-1.5454556
-1.5242602
-1.5006787
-1.4748387
-1.4468728
-1.4169187
-1.3851167
-1.3516102
-1.3165449
-1.2800703
-1.2423356
-1.2034917
-1.163691
-1.1230866
-1.0818298
-1.0400723
-0.99796387
-0.95565489
-0.91328432
-0.8710204
-0.82900002
-0.78732993
-0.74614568
-0.7055686
-0.66571319
-0.62668819
-0.58859239
-0.55151878
-0.51554689
-0.48074293
-0.44716863
-0.41487824
-0.40917846
-0.44166535
-0.47547927
-0.51056581
-0.54686223
-0.5843021
-0.62280288
-0.66226986
-0.70260091
-0.74368524
-0.78540651
-0.82763999
-0.87024473
-0.91310975
-0.95609754
-0.99903955
-1.041791
-1.0842004
-1.1261147
-1.1673804
-1.2078441
-1.2473512
-1.2857472
-1.3228795
-1.3585967
-1.3927478
-1.4251857
-1.4557655
-1.4843447
-1.5107834
-1.534947
-1.5567066
-1.5759367
-1.5925179
-1.6063378
-1.6172901
-1.6252805
-1.6302337
-1.6320473
-1.6305572
-1.6258283
-1.6178177
-1.6065218
-1.5919192
-1.5740106
-1.5528108
-1.5283573
-1.5007056
-1.4699332
-1.4361379
-1.399439
-1.3599769
-1.3179132
-1.2734297
-1.2267268
-1.1780259
-1.127568
-1.0756008
-1.022389
-0.96820467
-0.91332816
-0.85802269
-0.86230013
-0.91911049
-0.97546459
-1.0310843
-1.0856727
-1.1389442
-1.1906297
-1.24047
-1.2882155
-1.3336387
-1.3765338
-1.4167168
-1.4540255
-1.4883205
-1.5194849
-1.5474243
-1.5720659
-1.5933585
-1.6112701
-1.6257895
-1.636915
-1.6446695
-1.6490636
-1.6501418
-1.6478782
-1.6424337
-1.6339049
-1.6223713
-1.607933
-1.5907008
-1.5707899
-1.5483237
-1.5234302
-1.4962417
-1.4668957
-1.4355343
-1.4023017
-1.3673444
-1.330812
-1.2928569
-1.2536331
-1.2132959
-1.172001
-1.1299065
-1.0871678
-1.0439412
-1.0003824
-0.95664511
-0.9128811
-0.86926021
-0.8259205
-0.78298112
-0.74058558
-0.69886205
-0.65793134
-0.61790834
-0.57889821
-0.540998
-0.50429197
-0.46884939
-0.43473497
-0.4020025
-0.39334267
-0.42636866
-0.46084374
-0.49671333
-0.53391204
-0.5723672
-0.61199099
-0.65268494
-0.69433896
-0.73683281
-0.78003958
-0.82382672
-0.86804926
-0.91257819
-0.95727414
-1.0019664
-1.0464944
-1.0907005
-1.1344255
-1.177511
-1.2197977
-1.2611265
-1.3013389
-1.3402771
-1.3777845
-1.413706
-1.4478904
-1.4801882
-1.5104522
-1.5385392
-1.5643083
-1.5876234
-1.6083539
-1.6263723
-1.6415584
-1.6537958
-1.6629798
-1.6690267
-1.6718331
-1.6712456
-1.6672607
-1.6598286
-1.6489278
-1.6345347
-1.6166435
-1.5952608
-1.5704127
-1.5421451
-1.5105259
-1.475645
-1.4376161
-1.3965772
-1.3526906
-1.3061426
-1.2571444
-1.2059301
-1.1527576
-1.0978984
-1.0416368
-0.98427166
-0.92612763
-0.86749754
-0.81267965
-0.87365139
-0.93444012
-0.99469693
-1.0541222
-1.1123611
-1.1690964
-1.224021
-1.2768467
-1.3273066
-1.3751596
-1.4201913
-1.4622132
-1.5010633
-1.536606
-1.568732
-1.5973567
-1.6224195
-1.6438805
-1.6617206
-1.6759398
-1.6865517
-1.6935866
-1.6970784
-1.6970851
-1.6936419
-1.6868754
-1.6769201
-1.6638571
-1.6477936
-1.6288544
-1.607165
-1.582857
-1.5560659
-1.5269318
-1.4955982
-1.462211
-1.4269199
-1.3898785
-1.3512403
-1.3111624
-1.2698033
-1.2273234
-1.1838837
-1.1396464
-1.0947738
-1.049428
-1.0037728
-0.95796894
-0.91218649
-0.86659689
-0.821341
-0.77655993
-0.73240265
-0.68900839
-0.64651026
-0.60503302
-0.56468938
-0.52558636
-0.48781586
-0.45145122
-0.41655851
-0.38319354
-0.37147417
-0.40522136
-0.44059089
-0.47752363
-0.51595125
-0.55579828
-0.59696783
-0.63934748
-0.68281843
-0.72725015
-0.7725015
-0.81842571
-0.86486935
-0.9116774
-0.95870577
-1.0057819
-1.0527256
-1.099373
-1.1455555
-1.1911074
-1.2358637
-1.2796578
-1.3223245
-1.3637013
-1.4036272
-1.4419437
-1.4784946
-1.5131239
-1.545679
-1.5760103
-1.60397
-1.6294148
-1.652206
-1.6722047
-1.6892776
-1.7032967
-1.7141531
-1.7217611
-1.7259511
-1.7266248
-1.7237176
-1.7171623
-1.7069113
-1.6929245
-1.6751783
-1.6536634
-1.6283895
-1.5993871
-1.5667096
-1.5304346
-1.4906661
-1.4475359
-1.401205
-1.3518633
-1.2997297
-1.2450535
-1.1881134
-1.1292128
-1.0686783
-1.0068603
-0.94412785
-0.88081119
-0.81729938
-0.82261119
-0.88906478
-0.95530773
-1.0209032
-1.0854774
-1.1486434
-1.2100192
-1.2692557
-1.3260313
-1.3800543
-1.4310673
-1.4788469
-1.523203
-1.5639773
-1.6010433
-1.6343043
-1.6636917
-1.6891624
-1.7106968
-1.7282967
-1.7419828
-1.7517914
-1.7577748
-1.759995
-1.75853
-1.7534656
-1.7448971
-1.732998
-1.7178811
-1.6996546
-1.6784513
-1.6544101
-1.6276775
-1.5983977
-1.5667175
-1.5327875
-1.4967606
-1.458793
-1.4190427
-1.3776683
-1.3348308
-1.2906935
-1.245422
-1.199185
-1.1521523
-1.1044926
-1.0563762
-1.0079764
-0.95946152
-0.91102283
-0.86283558
-0.81504762
-0.76782596
-0.7213311
-0.6757185
-0.6311383
-0.58772999
-0.54561832
-0.50492361
-0.46574827
-0.4281725
-0.39226762
-0.35809367
-0.342939
-0.37758492
-0.41408719
-0.45238291
-0.49239799
-0.53404824
-0.57722348
-0.62179478
-0.66762729
-0.71457072
-0.76246615
-0.8111488
-0.86044869
-0.91018634
-0.96020733
-1.010333
-1.0603627
-1.1101197
-1.1594265
-1.2081089
-1.2559941
-1.3029094
-1.3486827
-1.3931455
-1.4361334
-1.4774818
-1.5170291
-1.5546145
-1.5900792
-1.6232679
-1.6540265
-1.6822022
-1.7076467
-1.7302084
-1.7497399
-1.7661065
-1.7791986
-1.7888578
-1.7949323
-1.7973133
-1.795899
-1.7905968
-1.7813286
-1.768028
-1.750644
-1.7291416
-1.7035048
-1.6737398
-1.6398769
-1.6019732
-1.5601154
-1.5144225
-1.4650478
-1.4121808
-1.3560479
-1.2969146
-1.2350863
-1.1709034
-1.104741
-1.037016
-0.96813752
-0.89853051
-0.82868823
-0.8356246
-0.90935494
-0.98281093
-1.0554338
-1.1267404
-1.1962938
-1.263638
-1.3283701
-1.3901287
-1.4485949
-1.5034965
-1.5546053
-1.6017355
-1.6447411
-1.6835138
-1.7179798
-1.7480969
-1.7738504
-1.795251
-1.8123314
-1.8251439
-1.8337567
-1.838253
-1.8387279
-1.83529
-1.8280562
-1.817154
-1.8027213
-1.7849375
-1.7639409
-1.7398603
-1.7128497
-1.6830665
-1.6506661
-1.6158049
-1.57864
-1.5393306
-1.4980385
-1.454928
-1.4101626
-1.3639083
-1.3163318
-1.2676048
-1.2179015
-1.1673975
-1.1162693
-1.0646956
-1.0128587
-0.96094455
-0.90915952
-0.85768786
-0.80669662
-0.7563767
-0.70690958
-0.65847363
-0.61123743
-0.56536104
-0.52099219
-0.47827096
-0.43731474
-0.39821545
-0.36105257
-0.3258899
-0.30678978
-0.34251518
-0.3804061
-0.42039446
-0.46239649
-0.50631251
-0.5520138
-0.59934877
-0.64815585
-0.69826102
-0.74948054
-0.80162291
-0.85449255
-0.90788659
-0.96162471
-1.0155161
-1.0693469
-1.1229215
-1.1760532
-1.2285586
-1.2802576
-1.3309711
-1.3805214
-1.4287355
-1.4754466
-1.5204876
-1.5636919
-1.6048931
-1.6439266
-1.6806308
-1.7148439
-1.7464042
-1.7751491
-1.8009158
-1.8235541
-1.8429278
-1.8588575
-1.8711756
-1.879732
-1.8843851
-1.8850015
-1.8814557
-1.8736337
-1.861433
-1.8447656
-1.8235592
-1.7977607
-1.7673395
-1.7322904
-1.6926373
-1.6484372
-1.599784
-1.5468123
-1.4897012
-1.4286773
-1.364018
-1.2960551
-1.2251713
-1.1518
-1.0764402
-0.99956348
-0.92171796
-0.84353865
-0.76957803
-0.85258261
-0.93584368
-1.018683
-1.1003783
-1.1803086
-1.2579591
-1.3327848
-1.4043196
-1.4721595
-1.5359621
-1.5954479
-1.6503953
-1.7006374
-1.7460557
-1.7865754
-1.8221611
-1.8528121
-1.8785571
-1.8994508
-1.9155701
-1.9270106
-1.9338831
-1.9363118
-1.9344313
-1.9283861
-1.918327
-1.904411
-1.886804
-1.865672
-1.8411997
-1.8135636
-1.7829075
-1.7493952
-1.7131961
-1.6744774
-1.6334049
-1.5901429
-1.5448574
-1.4977153
-1.4488843
-1.3985331
-1.3468307
-1.2939513
-1.2400746
-1.1853828
-1.1300589
-1.0742917
-1.0182723
-0.96220683
-0.90631668
-0.85080206
-0.7958565
-0.74169563
-0.6885309
-0.63656922
-0.58601158
-0.53705045
-0.48986429
-0.44461972
-0.40145792
-0.36048907
-0.32180487
-0.28547472
-0.26174192
-0.29871954
-0.33826935
-0.38031724
-0.42476392
-0.47148675
-0.52032789
-0.57110099
-0.62360653
-0.67763149
-0.73295409
-0.78934862
-0.84658574
-0.90443552
-0.96268831
-1.0211336
-1.0795412
-1.1376961
-1.1954018
-1.2524677
-1.3087048
-1.3639279
-1.4179557
-1.4706155
-1.5217391
-1.571156
-1.6186967
-1.6641935
-1.7074793
-1.7483881
-1.7867515
-1.8223963
-1.8551508
-1.8848615
-1.9113525
-1.9344269
-1.9539102
-1.9696211
-1.9813809
-1.9890154
-1.9923548
-1.9912341
-1.9854956
-1.9749915
-1.9595845
-1.9391527
-1.9135912
-1.8828173
-1.8467733
-1.8054318
-1.7588013
-1.7069312
-1.6499173
-1.5879086
-1.5211154
-1.4498145
-1.3743552
-1.2951615
-1.2127336
-1.1276657
-1.0405261
-0.95201386
-0.86295044
-0.77411028
-0.77936582
-0.87489374
-0.97058182
-1.0655339
-1.1588147
-1.2496416
-1.3373817
-1.4213903
-1.5011339
-1.5761707
-1.64615
-1.7108053
-1.7699446
-1.8234465
-1.871246
-1.9133259
-1.9497114
-1.980464
-2.005675
-2.0254606
-2.0399574
-2.049318
-2.0537089
-2.0533042
-2.0482869
-2.0388446
-2.025167
-2.0074456
-1.9858742
-1.9606452
-1.9319491
-1.8999715
-1.8649109
-1.8269456
-1.7862362
-1.742957
-1.6972796
-1.6493717
-1.5994019
-1.5475394
-1.4939515
-1.4388081
-1.3822783
-1.3245354
-1.2657584
-1.206134
-1.1458534
-1.0851113
-1.0241103
-0.96307149
-0.90223392
-0.84182179
-0.78206085
-0.72319968
-0.66548665
-0.60917068
-0.55449846
-0.50170801
-0.45102316
-0.40265435
-0.35678009
-0.31354128
-0.27304883
-0.23538116
-0.20615352
-0.24455658
-0.28607809
-0.33063089
-0.37808911
-0.42829089
-0.48103042
-0.53606784
-0.59314904
-0.65200518
-0.71235988
-0.77393807
-0.83646797
-0.89968114
-0.96333625
-1.0271932
-1.0910009
-1.1545357
-1.217589
-1.2799627
-1.3414647
-1.4019094
-1.4611177
-1.5189171
-1.5751416
-1.6296229
-1.6821939
-1.7326867
-1.7809346
-1.8267669
-1.8700105
-1.9105029
-1.9480659
-1.9825008
-2.0136174
-2.0412191
-2.0651047
-2.085069
-2.100902
-2.112394
-2.119334
-2.1215105
-2.1187128
-2.1107374
-2.097386
-2.0784711
-2.0538198
-2.0232775
-1.9867134
-1.944025
-1.8951463
-1.8400546
-1.7787735
-1.711384
-1.63805
-1.5590179
-1.4746285
-1.3853377
-1.2917122
-1.194445
-1.0942468
-0.99198902
-0.88873551
-0.78553491
-0.79288823
-0.90492012
-1.0168295
-1.1273748
-1.2353486
-1.3397866
-1.4398919
-1.5349343
-1.6243192
-1.7075793
-1.7843985
-1.8545634
-1.9179474
-1.9745287
-2.0243398
-2.067451
-2.1039774
-2.1340695
-2.1579034
-2.175678
-2.1876069
-2.1939164
-2.1948403
-2.1906146
-2.1814794
-2.1676719
-2.1494248
-2.1269675
-2.1005268
-2.0703215
-2.0365626
-1.9994558
-1.9591988
-1.9159825
-1.8700021
-1.8214335
-1.7704388
-1.7171873
-1.6618451
-1.6045754
-1.5455435
-1.4849152
-1.4228539
-1.3595291
-1.2951164
-1.2298001
-1.1637716
-1.0972326
-1.0303966
-0.96348848
-0.89676844
-0.83049612
-0.76493003
-0.7003596
-0.63708393
-0.57540919
-0.51564639
-0.45810208
-0.40306871
-0.35082296
-0.3016031
-0.25559924
-0.21295884
-0.17377704
-0.13791548
-0.1779192
-0.22177955
-0.26938937
-0.32057654
-0.3751143
-0.43272065
-0.49307186
-0.55582795
-0.62063734
-0.68714767
-0.75501495
-0.82390885
-0.89352244
-0.96357068
-1.0337728
-1.1038691
-1.1736277
-1.242833
-1.3112834
-1.3787884
-1.4451675
-1.5102505
-1.5738741
-1.6358771
-1.6960991
-1.7543806
-1.8105609
-1.8644781
-1.915977
-1.9648856
-2.0110136
-2.0541739
-2.0941715
-2.1308035
-2.1638568
-2.193108
-2.2183242
-2.2392641
-2.2556789
-2.2673107
-2.2738948
-2.2751617
-2.2708399
-2.260656
-2.2443419
-2.2216367
-2.1922933
-2.1560832
-2.1127999
-2.0622714
-2.0043729
-1.9390002
-1.8660933
-1.7857325
-1.6980746
-1.6033711
-1.502089
-1.3948491
-1.2824123
-1.1656783
-1.0457217
-0.92391541
-0.8017345
-0.68069272
-0.67982133
-0.81284878
-0.94684125
-1.0799845
-1.2105334
-1.3369499
-1.4580657
-1.5729631
-1.6809529
-1.7813354
-1.8735675
-1.9574864
-2.0330207
-2.1001583
-2.1591015
-2.2100499
-2.2531799
-2.2887263
-2.3169593
-2.3381659
-2.3526475
-2.3607161
-2.3626866
-2.3588745
-2.349589
-2.3351317
-2.3157966
-2.2918663
-2.2636089
-2.2312806
-2.1951285
-2.1553861
-2.1122743
-2.0660012
-2.0167645
-1.9647514
-1.9101427
-1.853119
-1.7938435
-1.7324619
-1.6691275
-1.6039938
-1.5372157
-1.4689469
-1.399344
-1.3285703
-1.2567989
-1.1842148
-1.1110172
-1.0374225
-0.96366953
-0.8900177
-0.81676457
-0.74422442
-0.67272647
-0.60263294
-0.53433057
-0.46822168
-0.40471307
-0.34420474
-0.28708045
-0.23367807
-0.18427363
-0.13907571
-0.098207021
-0.054199787
-0.095983023
-0.14265967
-0.19408335
-0.24999782
-0.31006137
-0.37386135
-0.44093647
-0.5108138
-0.58301961
-0.65708942
-0.73258927
-0.80912874
-0.88633973
-0.96387773
-1.0414455
-1.1187772
-1.1956327
-1.2717969
-1.3470758
-1.4212925
-1.4942831
-1.565894
-1.6359791
-1.7043946
-1.7709944
-1.8356337
-1.8981772
-1.9584757
-2.0163602
-2.0716637
-2.1242075
-2.1738055
-2.2202583
-2.2633527
-2.302862
-2.3385443
-2.3701408
-2.3973782
-2.4199683
-2.4376056
-2.4499681
-2.4567179
-2.4575078
-2.4519755
-2.439757
-2.4204825
-2.3937903
-2.3593306
-2.3167617
-2.2657825
-2.2061639
-2.1375525
-2.0595453
-1.9722288
-1.8756459
-1.7696621
-1.65482
-1.531588
-1.4005241
-1.2628344
-1.1199623
-0.97370069
-0.82616868
-0.67954416
-0.51681927
-0.67583997
-0.83834745
-1.0016318
-1.1630593
-1.3200938
-1.4706859
-1.6132503
-1.7467003
-1.8701894
-1.9828892
-2.0839541
-2.1739949
-2.2537626
-2.3232366
-2.3830416
-2.4335987
-2.4751232
-2.5079959
-2.532646
-2.5494954
-2.5589633
-2.5614821
-2.5574812
-2.5473623
-2.5315162
-2.5103168
-2.4841144
-2.4532365
-2.4179921
-2.3786691
-2.335537
-2.2888446
-2.238824
-2.1856899
-2.1296419
-2.0708635
-2.0095307
-1.9458054
-1.8798391
-1.8117832
-1.7417738
-1.6699351
-1.5963986
-1.5212961
-1.4447626
-1.3669382
-1.287975
-1.2080374
-1.1273107
-1.0460026
-0.96434995
-0.88262076
-0.80112468
-0.72021196
-0.64028929
-0.56180023
-0.48522324
-0.41109076
-0.33996101
-0.27240192
-0.20897314
-0.1501835
-0.096463954
-0.048139267
-0.0053879252
0.048821509
0.005037852
-0.04514889
-0.10150965
-0.16362809
-0.23095349
-0.30284505
-0.37861177
-0.45756822
-0.53905886
-0.62247998
-0.70727614
-0.7929577
-0.87909968
-0.96533425
-1.0513468
-1.1368712
-1.2216784
-1.3055732
-1.3883859
-1.4699679
-1.5501843
-1.628911
-1.7060281
-1.7814192
-1.8549748
-1.9265828
-1.9961052
-2.0634068
-2.1283474
-2.1907727
-2.2505146
-2.3073927
-2.3612071
-2.4117438
-2.4587675
-2.5020231
-2.5412328
-2.5760964
-2.606289
-2.6314584
-2.6512255
-2.6651808
-2.672893
-2.6739042
-2.6677354
-2.6538851
-2.631852
-2.6011322
-2.5612047
-2.5116955
-2.4526435
-2.3832507
-2.3014657
-2.2068728
-2.0999105
-1.980186
-1.8476413
-1.7032542
-1.548084
-1.3832173
-1.2102422
-1.031231
-0.84904506
-0.66711642
-0.48914927
-0.26459057
-0.45769736
-0.65964577
-0.86523302
-1.0697042
-1.2689215
-1.4597966
-1.6400262
-1.8078886
-1.9623697
-2.102917
-2.2291201
-2.3415406
-2.4399678
-2.524152
-2.5943916
-2.6524678
-2.7002931
-2.7379529
-2.7658508
-2.7846201
-2.7948481
-2.7971099
-2.7919847
-2.7800188
-2.7617208
-2.7375607
-2.7079869
-2.6734087
-2.6341987
-2.5906955
-2.5432089
-2.4920234
-2.4373982
-2.3795708
-2.318748
-2.2551326
-2.1889
-2.1202095
-2.0491997
-1.9760011
-1.9007303
-1.8235105
-1.7444539
-1.6636446
-1.5811791
-1.4971583
-1.4116857
-1.3248743
-1.2368527
-1.147769
-1.0577999
-0.9671596
-0.87610458
-0.78494674
-0.69406187
-0.60389955
-0.51498904
-0.42794832
-0.34349111
-0.26238578
-0.18546317
-0.11357943
-0.047551666
0.011901204
0.064224332
0.10911502
0.17637772
0.13027792
0.07545374
0.012322298
-0.058362074
-0.13564311
-0.21846387
-0.3057636
-0.3965309
-0.48982778
-0.5848534
-0.68092118
-0.7774631
-0.87401501
-0.97020069
-1.0657218
-1.160342
-1.2538723
-1.3461614
-1.437091
-1.5265585
-1.6144767
-1.7007666
-1.7853495
-1.8681608
-1.9491315
-2.0281513
-2.1051238
-2.1799426
-2.2524982
-2.3226759
-2.3903239
-2.4552765
-2.5173235
-2.5762694
-2.6318797
-2.6838917
-2.7320176
-2.7759415
-2.8153164
-2.8497547
-2.8788201
-2.9020158
-2.9188327
-2.9287185
-2.9310589
-2.9251697
-2.9103686
-2.8859422
-2.8510077
-2.8047953
-2.747517
-2.6771744
-2.5919333
-2.4921349
-2.3767205
-2.2451541
-2.0969659
-1.9321347
-1.7509122
-1.5540937
-1.3432986
-1.1210917
-0.89079268
-0.65716129
-0.42627594
-0.20477006
0.00057484015
0.099471574
-0.13833605
-0.39509112
-0.66146243
-0.92858799
-1.1889582
-1.4372533
-1.6698048
-1.8841182
-2.0788442
-2.2536922
-2.4088276
-2.544662
-2.6619962
-2.7617921
-2.8445448
-2.913406
-2.9708199
-3.014802
-3.0460007
-3.0660079
-3.075955
-3.0766741
-3.0689558
-3.0535868
-3.0312503
-3.0025355
-2.9679892
-2.9281752
-2.8835574
-2.8345347
-2.7814559
-2.7246307
-2.6643452
-2.6008616
-2.5344017
-2.4651415
-2.3933191
-2.3190818
-2.2425814
-2.1638833
-2.083066
-2.0002246
-1.9154383
-1.8288103
-1.7403976
-1.6502305
-1.5583605
-1.4648372
-1.3697145
-1.2730616
-1.1749557
-1.0755129
-0.97488589
-0.87327912
-0.77096597
-0.66830881
-0.56577014
-0.46394483
-0.36358057
-0.26559195
-0.17106312
-0.081252893
0.0024928503
0.078810113
0.14640704
0.20422513
0.25166887
0.37259962
0.33635835
0.28737849
0.22588608
0.15276107
0.06951536
-0.0220803
-0.12022601
-0.22320156
-0.32949745
-0.43783831
-0.54720556
-0.65680114
-0.76601812
-0.87442571
-0.9816961
-1.0875984
-1.1919758
-1.2947257
-1.3957738
-1.495103
-1.5926782
-1.6884862
-1.782517
-1.8747474
-1.9651752
-2.0537661
-2.1404274
-2.2250906
-2.3076669
-2.388099
-2.4664377
-2.542516
-2.6162251
-2.6872467
-2.7554315
-2.8205972
-2.8824782
-2.940782
-2.9952234
-3.0454813
-3.0911607
-3.1317814
-3.1666708
-3.1952396
-3.2168919
-3.230892
-3.2363686
-3.2324753
-3.2183113
-3.1925974
-3.153626
-3.0991039
-3.0301676
-2.9478767
-2.8506825
-2.7341628
-2.5956292
-2.4352617
-2.2515965
-2.0440003
-1.8120107
-1.5562997
-1.2789891
-0.98400616
-0.67708704
-0.36706256
-0.06571292
0.21382799
0.45885694
0.63633818
0.34581463
0.011738246
-0.34625263
-0.71012279
-1.0645733
-1.399118
-1.7071919
-1.986121
-2.2347771
-2.4532951
-2.6437553
-2.8061062
-2.9433289
-3.06116
-3.160382
-3.2417967
-3.305785
-3.3527873
-3.3846553
-3.4033084
-3.4102935
-3.407092
-3.3944861
-3.3733062
-3.3445531
-3.3089712
-3.2670865
-3.2195888
-3.1673867
-3.110984
-3.0507476
-2.9869563
-2.9198221
-2.8496172
-2.7765909
-2.7008208
-2.6224589
-2.5420101
-2.459515
-2.3752472
-2.2887993
-2.2002331
-2.1096494
-2.0171892
-1.9229436
-1.8269019
-1.7290367
-1.6293365
-1.5277611
-1.4242777
-1.3188878
-1.2115065
-1.1021799
-0.99094132
-0.87787761
-0.76312888
-0.64702201
-0.52985257
-0.41221118
-0.29492142
-0.17909436
-0.066217324
0.041885617
0.14309745
0.23498546
0.31513864
0.38130723
0.43213855
0.46714086
0.59014409
0.58926305
0.57426729
0.54132877
0.48816588
0.41586791
0.32664868
0.22378772
0.11073057
-0.0093457113
-0.13380097
-0.26052342
-0.38777829
-0.51443153
-0.63965513
-0.76305048
-0.88424402
-1.0032066
-1.1198473
-1.2340868
-1.3460172
-1.4555739
-1.5630657
-1.6684817
-1.7718766
-1.8733636
-1.9730191
-2.0708486
-2.1669263
-2.2611658
-2.3532521
-2.4433921
-2.5311709
-2.6176952
-2.7024504
-2.7855254
-2.8660653
-2.9437912
-3.0189704
-3.0915234
-3.16094
-3.2269773
-3.2896578
-3.3486542
-3.403523
-3.4529464
-3.4960525
-3.5325097
-3.5616581
-3.5823404
-3.5937767
-3.5955386
-3.5858541
-3.5630577
-3.525534
-3.4716435
-3.398908
-3.3031743
-3.1842757
-3.0429091
-2.8772707
-2.6864675
-2.4617102
-2.1982043
-1.896661
-1.5568913
-1.1794765
-0.76908429
-0.34078948
0.090565061
0.49721772
0.84921241
1.4372795
1.1092268
0.6686178
0.16235655
-0.36254261
-0.86916488
-1.3440348
-1.7645105
-2.1328382
-2.4515637
-2.7236836
-2.9579723
-3.1561781
-3.3247275
-3.4644938
-3.5758501
-3.6608357
-3.7221054
-3.7645974
-3.7911624
-3.803385
-3.8026963
-3.7911919
-3.77079
-3.7410314
-3.702966
-3.6580985
-3.6063979
-3.5476615
-3.4837678
-3.4169664
-3.3474542
-3.2753235
-3.2005413
-3.1225137
-3.0422515
-2.9598095
-2.873939
-2.7856132
-2.6962039
-2.6056783
-2.5156099
-2.4211153
-2.3239905
-2.2253147
-2.1254833
-2.0240294
-1.9206926
-1.8156517
-1.7087059
-1.5996
-1.4883074
-1.3749124
-1.2585597
-1.1399029
-1.0182647
-0.89368928
-0.76614224
-0.63556174
-0.50210219
-0.36590924
-0.2278202
-0.088760459
0.049193923
0.18373748
0.31160204
0.42862981
0.52997375
0.61072172
0.66714162
0.69670185
0.70353395
0.69397693
0.67371429
0.7720269
0.80679641
0.83126521
0.83734356
0.81343267
0.75233607
0.65996162
0.54217684
0.40698474
0.26096482
0.10956595
-0.043425147
-0.19651803
-0.34645244
-0.49272386
-0.63474786
-0.77260397
-0.90645416
-1.0365162
-1.1637677
-1.2880383
-1.4092483
-1.5253922
-1.6401713
-1.7526915
-1.8627438
-1.9707218
-2.0770874
-2.1814169
-2.2845391
-2.3870569
-2.4886294
-2.5797838
-2.6760819
-2.7708744
-2.864909
-2.9588856
-3.0507888
-3.1375433
-3.2209206
-3.3045542
-3.3860127
-3.4641706
-3.5400576
-3.6141273
-3.687864
-3.7563926
-3.8153392
-3.8676395
-3.9146626
-3.9540048
-3.9835245
-4.0055765
-4.0185342
-4.0191298
-4.0066141
-3.9795178
-3.9342895
-3.8619756
-3.7612464
-3.6346528
-3.4801168
-3.2907375
-3.0620049
-2.7849207
-2.4567557
-2.0719347
-1.5959563
-1.034832
-0.42685181
0.2182862
0.86877307
1.4286802
1.8289654
2.5984291
2.3379746
1.7816376
1.0840077
0.21110443
-0.57602004
-1.2736479
-1.7444533
-1.5762743
-1.9966579
-2.1855667
-2.4592138
-2.595653
-2.8619245
-2.9688548
-3.1920787
-3.2465954
-3.4546362
-3.4835129
-3.6541615
-3.666717
-3.8145244
-3.8172623
-3.9455906
-3.9419786
-4.0560395
-4.0441677
-4.1395989
-4.1146155
-4.1842965
-4.1515525
-4.205479
-4.1722664
-4.211259
-4.1776731
-4.2061313
-4.1702062
-4.1911223
-4.1469303
-4.1667578
-4.117708
-4.1353096
-4.0877955
-4.0890568
-4.0441066
-4.0404046
-3.9899908
-3.9878369
-3.9351014
-3.9267728
-3.8764841
-3.8564003
-3.7995926
-3.7778263
-3.7184498
-3.6971003
-3.6406874
-3.6169953
-3.5602813
-3.5370424
-3.4799895
-3.4529603
-3.3962347
-3.3683279
-3.3131809
-3.283644
-3.2307882
-3.1971488
-3.1429795
-3.1055744
-3.0483257
-3.0069721
-2.949276
-2.9087538
-2.8522433
-2.8119674
-2.7561632
-2.717886
-2.6617232
-2.6465809
-2.5988153
-2.6174993
-2.633335
-2.5455561
-2.4475073
-2.3428356
-2.2356114
-2.1275595
-2.0177152
-1.9073753
-1.7933754
-1.6770561
-1.5593181
-1.4378698
-1.3192721
-1.1906864
-1.0582087
-0.92362615
-0.78453973
-0.64040249
-0.49070053
-0.33453982
-0.17316782
-0.0034159164
0.16813245
0.34056955
0.50944693
0.66888634
0.81006731
0.92007133
0.9879308
1.0019936
0.97713675
0.93107068
0.87719798