/*--------------------------------*- C++ -*----------------------------------*\
| =========                 |                                                 |
| \\      /  F ield         | OpenFOAM: The Open Source CFD Toolbox           |
|  \\    /   O peration     | Version:  v2012                                 |
|   \\  /    A nd           | Website:  www.openfoam.com                      |
|    \\/     M anipulation  |                                                 |
\*---------------------------------------------------------------------------*/
FoamFile
{
    version     2.0;
    format      ascii;
    class       volScalarField;
    location    "100";
    object      k;
}
// * * * * * * * * * * * * * * * * * * * * * * * * * * * * * * * * * * * * * //

dimensions      [0 2 -2 0 0 0 0];


internalField   nonuniform List<scalar> 
33454
(
0.12981552
0.12612159
0.12231976
0.11748131
0.11216991
0.10590919
0.10286909
0.09982296
0.09569965
0.09151398
0.088979329
0.086341727
0.083493245
0.080576443
0.077612111
0.074643457
0.071683842
0.068750338
0.06575329
0.062759593
0.059490758
0.056180374
0.05305237
0.049419473
0.051390116
0.067260209
0.06511676
0.062200998
0.059222046
0.056214303
0.055478186
0.054274052
0.051852718
0.049508435
0.048529938
0.047232311
0.045640923
0.043921404
0.042155063
0.040346187
0.038466871
0.03658859
0.034624185
0.032714228
0.030915293
0.028835732
0.030863931
0.04311194
0.041520512
0.039568522
0.037617521
0.035633423
0.034995672
0.034048587
0.032434004
0.030877462
0.030125381
0.029148989
0.028006819
0.026768764
0.025477221
0.024290722
0.023182289
0.021645627
0.021212614
0.024652354
0.024043237
0.024971917
0.031970524
0.053727028
0.054624327
0.052912592
0.050709949
0.0484493
0.046236829
0.044084146
0.041993679
0.039957879
0.037974985
0.036044054
0.034165946
0.032341716
0.030572635
0.028859923
0.18950753
0.19531979
0.20109197
0.20682918
0.21247251
0.2180472
0.22352574
0.22890775
0.23419377
0.23933419
0.24433401
0.24913174
0.25373388
0.25814473
0.2623536
0.26638913
0.2946829
0.29230059
0.28979139
0.2871337
0.28430917
0.28129907
0.27808994
0.27466876
0.27102972
0.26716874
0.26309018
0.25879847
0.25430724
0.24962814
0.24477997
0.23977736
0.23464087
0.22938547
0.2240312
0.21859174
0.21308524
0.2075233
0.20192161
0.19628967
0.19064061
0.18497928
0.17930321
0.17774516
0.18347987
0.18918521
0.1948812
0.20056028
0.20621209
0.21182493
0.21738605
0.22288155
0.22829642
0.23361457
0.23881915
0.24389286
0.24881841
0.25357868
0.25815742
0.26254043
0.2667097
0.27065783
0.27438215
0.27787954
0.28116005
0.28423352
0.28711584
0.28982389
0.2923771
0.29480507
0.2954358
0.29302084
0.29046815
0.28775664
0.28486625
0.28178042
0.27848494
0.27496856
0.2712189
0.26723731
0.26303091
0.25861158
0.25401869
0.24925586
0.24433457
0.23926977
0.23407739
0.22877457
0.22337822
0.21790452
0.21236837
0.20678403
0.20116464
0.19552214
0.18986686
0.18420612
0.17853266
0.17775103
0.18353823
0.18929789
0.195052
0.20078872
0.20650134
0.21217863
0.21780893
0.22337309
0.22885803
0.23424779
0.23952559
0.24466982
0.24966855
0.25449855
0.25916444
0.26366555
0.26792493
0.27195298
0.27576601
0.2793445
0.28269539
0.28582769
0.28875519
0.29149425
0.29406431
0.29649345
0.29820196
0.29579934
0.29324351
0.29051283
0.28758855
0.28445326
0.28109269
0.2775105
0.27368423
0.26961894
0.26531679
0.260789
0.2560879
0.2512162
0.24617315
0.24096653
0.23561881
0.23016071
0.22460839
0.21898011
0.21329528
0.20756836
0.20181222
0.19603772
0.19024653
0.18445451
0.17865421
0.17830907
0.18424086
0.19018183
0.19610968
0.2020108
0.20789174
0.21374138
0.21954718
0.22529223
0.23096165
0.23656051
0.24203835
0.2473675
0.25254259
0.25754809
0.26238186
0.26704246
0.27144911
0.27561196
0.27954518
0.28322708
0.28667025
0.28986076
0.292823
0.29557957
0.29815017
0.30056608
0.30384769
0.30142857
0.29883212
0.29603828
0.29302577
0.28978026
0.28628603
0.2825497
0.27854965
0.27429281
0.2697835
0.26503526
0.26010487
0.25499421
0.24970942
0.24426006
0.23867028
0.23297437
0.22719177
0.22133832
0.21542755
0.20947999
0.20350969
0.1975284
0.19154028
0.18556174
0.17958739
0.17952551
0.18566019
0.19181594
0.19796967
0.2041098
0.21023744
0.2163611
0.22249628
0.22853775
0.23448999
0.2403844
0.24616603
0.25180336
0.25728803
0.26260048
0.26773485
0.27268806
0.27737258
0.2817951
0.28597199
0.28988425
0.29351832
0.29689193
0.30003315
0.30292982
0.30560575
0.30809585
0.31350255
0.31091372
0.30811098
0.30507655
0.30179611
0.29826293
0.29446677
0.2904184
0.28609612
0.28150326
0.27664394
0.27153346
0.26623388
0.26074939
0.25508989
0.24926956
0.24332231
0.23727376
0.23115204
0.22497058
0.21874602
0.21250311
0.20625142
0.20000453
0.19376237
0.18753653
0.18132603
0.18161714
0.18803212
0.19449888
0.2009387
0.20737859
0.21382165
0.22025703
0.22667127
0.23304495
0.23939668
0.24567262
0.25184728
0.25790671
0.26381915
0.26955813
0.27511868
0.28049703
0.2855955
0.29041873
0.29497563
0.29927532
0.30332585
0.30711344
0.31064139
0.31391732
0.31695338
0.31976972
0.3263656
0.32322447
0.31986401
0.31627463
0.31244818
0.30838034
0.30407015
0.29952153
0.29472484
0.28968206
0.28438623
0.27884522
0.27311355
0.26719148
0.26109347
0.25483827
0.24846742
0.24204838
0.23557758
0.22906869
0.22252278
0.21594858
0.20937628
0.20282307
0.19629226
0.18979483
0.18333158
0.18178868
0.18837746
0.19498582
0.20163727
0.20832144
0.21503733
0.22178736
0.22857184
0.23535256
0.24206542
0.24872236
0.25535033
0.26183384
0.26816025
0.27430986
0.2802641
0.2860305
0.29154301
0.29682802
0.30188752
0.3067264
0.31136026
0.31579712
0.32004877
0.32409154
0.32794024
0.33161269
0.34131022
0.33712148
0.33282885
0.32843982
0.32396356
0.31939006
0.31469952
0.30987898
0.30492238
0.29983326
0.29459735
0.28918811
0.28357762
0.27775643
0.27174007
0.26551393
0.25911047
0.25255849
0.24590136
0.23918289
0.23242303
0.22567175
0.21891675
0.21219484
0.20549549
0.19885129
0.1922421
0.18567206
0.17914844
0.16715217
0.17352964
0.17997192
0.18649957
0.19307839
0.19970215
0.20635532
0.21302745
0.21971786
0.22636221
0.23297641
0.23958431
0.2460791
0.25246538
0.25871268
0.26497245
0.27124681
0.27705059
0.28257464
0.28790487
0.29319211
0.29839925
0.30347795
0.30846271
0.31343604
0.3184783
0.32359572
0.32874546
0.33392111
0.27233418
0.30449775
0.29975431
0.29560734
0.29106623
0.28590782
0.28067537
0.27626829
0.27208706
0.26749443
0.26218392
0.25620564
0.25216377
0.24753203
0.24098262
0.23305554
0.22721878
0.22178462
0.21623625
0.2105795
0.20482577
0.1990036
0.19313197
0.18725203
0.18135931
0.17548099
0.16961394
0.16378614
0.15798838
0.15222608
0.14651238
0.10609565
0.11079214
0.1155234
0.12029179
0.1250734
0.12985998
0.13463674
0.13939782
0.14414784
0.14885229
0.15354255
0.15824285
0.16284971
0.16731243
0.17175713
0.17598547
0.18574173
0.19332829
0.19765653
0.17317061
0.15810649
0.16785972
0.1625364
0.16716788
0.15867071
0.15709233
0.14602369
0.13728538
0.11802525
0.067278358
0.036974628
0.036564946
0.038016756
0.028364087
0.022473937
0.023504193
0.027317718
0.028115098
0.029800177
0.031424343
0.033096232
0.034555163
0.035733454
0.036233582
0.034608028
0.036767839
0.044850041
0.042988521
0.042357513
0.03712093
0.036044025
0.037952654
0.045249378
0.073683733
0.071581358
0.070972412
0.049616209
0.034032703
0.030547198
0.033301347
0.033832426
0.03612015
0.044782699
0.046206419
0.048915403
0.051125427
0.053061675
0.054844701
0.05636505
0.05761663
0.057933692
0.055224271
0.058574528
0.070544746
0.067432222
0.066328196
0.058528032
0.056962562
0.059910014
0.070335963
0.10963215
0.10410504
0.10453303
0.078491047
0.055623558
0.051212861
0.055766077
0.057070948
0.06083363
0.072974813
0.075231553
0.079249849
0.082529795
0.0854781
0.088338731
0.091048014
0.093736901
0.09616784
0.098350461
0.099385367
0.09664104
0.10193931
0.1169569
0.11395475
0.11396669
0.10639688
0.10808733
0.11309752
0.11889704
0.17004691
0.16574924
0.17312821
0.17796017
0.26758039
0.26373508
0.25969303
0.25545724
0.25103668
0.24643957
0.24167835
0.23676482
0.23171482
0.22654293
0.22127249
0.21591685
0.21048948
0.20499474
0.19944647
0.19385137
0.18820722
0.17113433
0.17118891
0.17164517
0.17208148
0.17228515
0.17246731
0.1728787
0.17297997
0.17284263
0.17284409
0.17306256
0.17327362
0.17344818
0.17384708
0.17422198
0.1747032
0.17510067
0.1753
0.17540657
0.17573492
0.17685129
0.18262391
0.18157951
0.18128366
0.18120465
0.18103034
0.18066027
0.1802132
0.17980577
0.1794473
0.1792678
0.17907048
0.17881961
0.17883236
0.17896602
0.17882862
0.17843104
0.17823048
0.1780389
0.17760171
0.17717751
0.17712013
0.17688839
0.17672031
0.1764339
0.17612527
0.17584847
0.17596186
0.1758173
0.18163016
0.18166534
0.18161869
0.18151964
0.18175541
0.18179453
0.18191142
0.18177779
0.18191346
0.18182351
0.18208822
0.18241981
0.18270684
0.18282533
0.18305204
0.18313282
0.18353208
0.18395056
0.18414144
0.1843688
0.18474495
0.18492454
0.18479299
0.1847541
0.18505167
0.18524635
0.1854242
0.18574832
0.18617809
0.18661866
0.18692076
0.18706624
0.18712074
0.18738874
0.18839535
0.19412412
0.19318053
0.19293865
0.19290596
0.19278433
0.19250929
0.19208601
0.19165453
0.19134419
0.19119464
0.1909791
0.19068694
0.19070006
0.19082045
0.19063348
0.19025711
0.19005218
0.1898342
0.18943817
0.18907114
0.18895719
0.18870582
0.18861175
0.18835444
0.18799994
0.18775512
0.18781424
0.18768784
0.18781808
0.18771144
0.18764178
0.18741053
0.18747457
0.18753378
0.18749063
0.18728487
0.18726682
0.18706685
0.18661812
0.18602685
0.18559251
0.18610977
0.1918594
0.19137548
0.1918438
0.19240249
0.19288156
0.19305873
0.19310572
0.19327353
0.19335588
0.19327347
0.1932469
0.19347485
0.19357624
0.19367527
0.19357021
0.19369544
0.19366219
0.19388668
0.19426899
0.19449623
0.19456245
0.19484618
0.1949854
0.19532127
0.19568831
0.19594802
0.1961211
0.1965054
0.19667481
0.19657385
0.19660359
0.19687787
0.19712746
0.19723346
0.19752149
0.19796721
0.19835992
0.19861576
0.19871544
0.19873061
0.1989505
0.19986164
0.20553921
0.204686
0.20448689
0.20448714
0.20440703
0.20417066
0.20379813
0.20335373
0.20310307
0.20298423
0.20272987
0.20245289
0.20243116
0.20249178
0.20233073
0.20197325
0.20177362
0.20152917
0.20118841
0.20086449
0.20069909
0.20040551
0.20034053
0.20011664
0.19975584
0.19953596
0.1995359
0.19941718
0.19948835
0.19940371
0.19926206
0.1990444
0.19902438
0.19909998
0.19900347
0.19883107
0.19880182
0.19859635
0.19811296
0.19756568
0.19711141
0.19757532
0.20322633
0.20280719
0.20324509
0.20377535
0.20424747
0.20450288
0.20450761
0.20468951
0.2047829
0.20472931
0.20479213
0.20500746
0.20518267
0.20526094
0.20521578
0.20533781
0.20536082
0.20559093
0.20592346
0.20614698
0.20623176
0.20651665
0.20669037
0.2070199
0.20730891
0.20755314
0.20777545
0.20810031
0.20825392
0.2082481
0.20825361
0.20854073
0.20877525
0.20893018
0.20915003
0.20957262
0.20992888
0.21014771
0.21021014
0.21019663
0.21037879
0.21120329
0.21678413
0.21601352
0.21584744
0.21587221
0.21582555
0.21562357
0.21528345
0.21490146
0.2146646
0.21450139
0.2142809
0.21401706
0.21397497
0.21395123
0.21380381
0.21351172
0.21326249
0.21301239
0.21274495
0.21244675
0.21226802
0.21199952
0.21189066
0.21165926
0.21133373
0.21112153
0.21107497
0.21095238
0.2109669
0.21089886
0.21068506
0.21047686
0.21037135
0.21040749
0.21031397
0.21014788
0.21011835
0.20985768
0.20940448
0.20886001
0.20841624
0.20881221
0.21429235
0.21395469
0.21439183
0.21497619
0.21542005
0.21566575
0.21571924
0.21587348
0.21595873
0.21594017
0.21609369
0.21628855
0.21654687
0.21659983
0.21662336
0.21674166
0.2168174
0.21700306
0.21731245
0.2175601
0.21769543
0.21794426
0.21813165
0.21838241
0.21863653
0.21889977
0.21918435
0.21943297
0.21956997
0.21962473
0.21970328
0.21993731
0.220147
0.22032022
0.22058944
0.22091632
0.22124162
0.22142651
0.22146015
0.22142616
0.22157978
0.22232407
0.22775328
0.22705987
0.22691816
0.22695956
0.22693794
0.22676739
0.22645409
0.22614944
0.22587865
0.22570229
0.22549764
0.22529373
0.22518082
0.22509993
0.22496846
0.22473221
0.2244429
0.22417144
0.22392387
0.22369225
0.2235445
0.2233027
0.22313837
0.22288136
0.22260464
0.22240052
0.22233924
0.22218069
0.22216016
0.22208039
0.22181862
0.22159662
0.22144134
0.22142502
0.22133731
0.22120491
0.22111677
0.22088984
0.22043051
0.2198563
0.21941817
0.21972536
0.22505709
0.2248008
0.2252586
0.22578983
0.22626969
0.22647127
0.22658761
0.22670887
0.22678877
0.22685068
0.22700061
0.22725332
0.22751335
0.22762427
0.22763351
0.22784326
0.22787982
0.22811622
0.22836152
0.22861659
0.22879967
0.22904903
0.22914156
0.22935905
0.22960108
0.22988834
0.23016358
0.2303975
0.23052465
0.23063623
0.23078619
0.23095046
0.23114962
0.23133558
0.23158907
0.23188092
0.23218535
0.23234544
0.23235477
0.23230819
0.23244128
0.23310914
0.23832308
0.2377042
0.23757962
0.23762907
0.23762896
0.23747796
0.23718203
0.23690365
0.23666124
0.23647413
0.23627444
0.2361226
0.23595994
0.23582932
0.23570525
0.23547313
0.23520569
0.23490941
0.2346728
0.23449527
0.23439612
0.23416646
0.23396958
0.23373879
0.23348556
0.23325694
0.23320602
0.23298416
0.23294559
0.2328153
0.23254555
0.23227851
0.23212
0.23203595
0.23195535
0.23185385
0.23170746
0.23150985
0.23103121
0.23052307
0.23007808
0.2303337
0.23546859
0.23523045
0.23565181
0.23614718
0.23660994
0.23681344
0.23699466
0.23706456
0.23715181
0.23726194
0.23741772
0.23770533
0.2379742
0.2381289
0.23820227
0.23843293
0.23849955
0.23871416
0.2389842
0.23918527
0.23939813
0.23958554
0.23967882
0.23984864
0.24007918
0.24037934
0.24064388
0.24087698
0.24099716
0.2411356
0.24130579
0.24145541
0.24165737
0.24183909
0.24207579
0.24234264
0.24263002
0.24277252
0.24276634
0.24271594
0.24283478
0.24342754
0.24835753
0.24781274
0.24770035
0.24774915
0.24776023
0.24762358
0.24734508
0.24709021
0.24685945
0.24668402
0.24647919
0.24633244
0.24615713
0.24601286
0.24589604
0.24565973
0.2453992
0.24509538
0.24486742
0.24469783
0.24461704
0.2444473
0.24423767
0.24405045
0.24380119
0.24358813
0.2435018
0.24326843
0.24316008
0.24298571
0.24271798
0.24242873
0.24226227
0.24214412
0.24202865
0.24197101
0.24179512
0.24158404
0.24114391
0.24065729
0.24026574
0.24049307
0.24534428
0.24516109
0.24553863
0.24600283
0.24643141
0.24663173
0.24679534
0.24685106
0.24697886
0.24711436
0.24730082
0.247581
0.24783367
0.24802796
0.24816691
0.24840283
0.24850407
0.24872426
0.24894625
0.24912112
0.2493146
0.24947985
0.24955258
0.24972079
0.24994221
0.25025201
0.25050727
0.25074595
0.25086292
0.25101012
0.25118869
0.25133173
0.25153892
0.25170855
0.25193225
0.25217423
0.25244533
0.25257409
0.25256118
0.25251658
0.25262447
0.2531411
0.25771973
0.25725089
0.25714895
0.25720292
0.25720069
0.25707946
0.25681362
0.25658623
0.25637006
0.25620619
0.25599653
0.25585781
0.25568061
0.25554251
0.25541234
0.25517024
0.25491874
0.25460772
0.25439384
0.25422498
0.2541603
0.25400785
0.25382082
0.25365003
0.25343799
0.2532311
0.25311506
0.2528833
0.25271553
0.2525052
0.25226143
0.25199831
0.25179124
0.25163861
0.25150425
0.25144555
0.25127652
0.25108368
0.25066932
0.25022618
0.24986939
0.25004992
0.25456103
0.25439638
0.25472841
0.25515373
0.25554978
0.25573903
0.25590796
0.25597709
0.25611586
0.25628471
0.25651431
0.25674974
0.25698605
0.25721357
0.25740323
0.25763067
0.25775632
0.25794954
0.25814521
0.25832389
0.25852612
0.25864903
0.25871382
0.25889023
0.25909455
0.25940338
0.25964456
0.2598957
0.26004154
0.26016383
0.26034004
0.26047186
0.26068658
0.26084235
0.26105466
0.26126612
0.26152709
0.26163997
0.26164145
0.26159483
0.26168181
0.26211913
0.26628816
0.26589872
0.26583844
0.26585961
0.26585955
0.26575642
0.26550417
0.26531018
0.26511543
0.26495351
0.26474773
0.26460866
0.26444346
0.26432462
0.26416476
0.26392023
0.26367898
0.26338825
0.26317789
0.26300854
0.26292794
0.26281478
0.26262879
0.26244106
0.26226331
0.26207133
0.26193472
0.26171703
0.2615101
0.2612823
0.26104121
0.26081828
0.26059747
0.26041294
0.26027495
0.26018463
0.26003032
0.25984101
0.25946916
0.25905797
0.25875571
0.25890655
0.26304063
0.26291985
0.26320271
0.26359103
0.26394521
0.26412655
0.26427124
0.26438381
0.26452823
0.2647154
0.26492118
0.26513812
0.26537621
0.2656035
0.26582179
0.26602533
0.26617147
0.26636807
0.26653792
0.26672126
0.26688832
0.26699927
0.26709307
0.26724822
0.26746545
0.26773497
0.26798055
0.26820892
0.26838646
0.26850213
0.26865426
0.26880262
0.26899704
0.26916686
0.26934138
0.26951817
0.26975425
0.26984758
0.26985858
0.26986427
0.26990163
0.27025369
0.27398099
0.27368582
0.27364895
0.27364197
0.27361071
0.27352661
0.27331849
0.27315588
0.27297647
0.27280735
0.27261625
0.27246745
0.27231666
0.2722031
0.27202248
0.27180064
0.27156332
0.27130409
0.2710936
0.27093657
0.2708471
0.27073619
0.2705722
0.27039246
0.27023166
0.27003395
0.26989262
0.26969549
0.26947861
0.26926019
0.26903651
0.26881229
0.26860686
0.26841745
0.2682714
0.26815441
0.2680248
0.26785412
0.2675136
0.26715297
0.26688936
0.26700051
0.27184167
0.27195543
0.27210529
0.27229442
0.27249968
0.27273596
0.27294988
0.27314924
0.27335944
0.27355079
0.27368432
0.27387994
0.2740338
0.27420888
0.2743736
0.27448164
0.27456425
0.27471893
0.274915
0.27517039
0.27539101
0.27561204
0.27578741
0.27590169
0.27604873
0.27620067
0.27638415
0.27655381
0.27674373
0.27689363
0.2770735
0.2771543
0.27720261
0.27720314
0.27724769
0.27749643
0.28078158
0.28057539
0.28053283
0.28053212
0.28048702
0.28040076
0.28024457
0.2800974
0.27991774
0.27974785
0.27957542
0.27941873
0.27927828
0.27915619
0.27898548
0.27877411
0.27856433
0.27832102
0.27813984
0.2813613
0.28153034
0.28175534
0.28196045
0.28215644
0.28231717
0.28245113
0.28259103
0.28274601
0.28291208
0.28307329
0.28323757
0.28338233
0.28351788
0.28361185
0.2836487
0.2836512
0.28368846
0.28386915
0.28675719
0.28660689
0.28657426
0.28657566
0.28653282
0.28644294
0.28632191
0.28617742
0.28602108
0.2858669
0.28570879
0.28555576
0.28542024
0.28528516
0.2851334
0.28495379
0.28475505
0.28454746
0.28440423
0.28757957
0.28777256
0.28793595
0.28807691
0.28821145
0.28833949
0.28849087
0.28863917
0.28878805
0.28893364
0.28908281
0.28919471
0.28927386
0.28932409
0.28931977
0.28934819
0.28947868
0.29203953
0.29193073
0.29190458
0.29190641
0.29185768
0.29178369
0.29167494
0.29153312
0.29139597
0.2912533
0.29111454
0.29096967
0.29084559
0.29071516
0.29058032
0.29042726
0.29025163
0.29278207
0.29294721
0.29309148
0.29322479
0.29334728
0.29346959
0.29360551
0.29373626
0.29387059
0.29400182
0.2941303
0.29423647
0.29430597
0.29435225
0.29435429
0.29438163
0.29447736
0.29464813
0.29219967
0.28961417
0.28687074
0.28394948
0.2808334
0.27750384
0.27394826
0.27016212
0.26615773
0.26193606
0.25750562
0.25289962
0.24812079
0.24318299
0.23809942
0.23288879
0.2275662
0.2221509
0.21665675
0.21110095
0.20549536
0.19985523
0.19419015
0.18851264
0.18282812
0.17712975
0.033825126
0.035983435
0.038216272
0.04051308
0.042884281
0.045323427
0.047836752
0.050414029
0.053058434
0.055776465
0.058532866
0.061289776
0.063932814
0.066046595
0.065389251
0.053557995
0.043818255
0.045463453
0.046735758
0.047282045
0.049114391
0.051179062
0.053274402
0.055340111
0.057337532
0.059192091
0.060717291
0.061536462
0.065179223
0.065937567
0.067070169
0.067495543
0.068104445
0.068462979
0.068804876
0.069074079
0.069035983
0.069228565
0.06900228
0.069211553
0.069305757
0.069513759
0.069270602
0.069509896
0.069797051
0.070075747
0.070043339
0.070263099
0.070165626
0.070289997
0.069710764
0.06988575
0.069829806
0.07002783
0.069918368
0.070238411
0.070792127
0.071135884
0.071206593
0.071578304
0.072274103
0.072746109
0.073260803
0.073101641
0.073666181
0.076850457
0.077744623
0.07865052
0.078913205
0.08035731
0.080499319
0.080734887
0.080697197
0.080983914
0.080927576
0.080979895
0.08086762
0.080840453
0.080894844
0.082096037
0.082380178
0.083832452
0.084054417
0.084837019
0.084904792
0.085206207
0.085098729
0.084893508
0.084760535
0.084824339
0.084806669
0.085378348
0.08534122
0.085282265
0.08506556
0.084562584
0.084331995
0.084298447
0.084714397
0.08799052
0.088520945
0.089385124
0.089196706
0.088021972
0.087660049
0.087410629
0.087209064
0.086973638
0.087040757
0.088294108
0.0885268
0.089179713
0.089353792
0.090281714
0.090479808
0.09109485
0.091455656
0.093287648
0.093721337
0.094244764
0.094700526
0.096250165
0.096771788
0.097360763
0.097753495
0.098573419
0.098945937
0.099197692
0.099062337
0.09645372
0.095313962
0.090887916
0.088172519
0.073567522
0.067996939
0.053974774
0.042517016
0.033927701
0.031079138
0.029497439
0.031987908
0.041237019
0.052173792
0.065535252
0.07142158
0.084920216
0.087872093
0.091979004
0.093317647
0.09589458
0.096039525
0.095863979
0.095476065
0.094761769
0.094289303
0.093747582
0.093179657
0.091809994
0.091336436
0.090858863
0.090326252
0.088537887
0.088206336
0.087567217
0.087444023
0.086511913
0.086375944
0.085714695
0.085541867
0.084330804
0.084331201
0.084446271
0.084717688
0.084837357
0.085288105
0.086238072
0.086502256
0.085595773
0.085111306
0.082198323
0.081855048
0.081792019
0.082102829
0.082447556
0.082745157
0.082687968
0.082792969
0.082163961
0.082258359
0.082116383
0.082331096
0.082426613
0.082613024
0.082204049
0.082202922
0.081404576
0.08121672
0.07975392
0.079511468
0.078357983
0.078389391
0.078343779
0.078536945
0.078390842
0.078526945
0.078185922
0.078301666
0.078023152
0.077939266
0.076477115
0.07621031
0.07510094
0.073258233
0.072243639
0.071915694
0.072013981
0.071597031
0.071164982
0.070483864
0.070120381
0.070031699
0.069700277
0.069184678
0.068925355
0.069013223
0.068782594
0.068799964
0.068697053
0.069221219
0.06911296
0.069181678
0.068982472
0.069010132
0.068748081
0.068459211
0.068249987
0.06850294
0.068334089
0.068251683
0.068072695
0.068274734
0.068085445
0.068097233
0.067833499
0.067482603
0.067107649
0.066511594
0.066102868
0.065051563
0.064257167
0.062877414
0.061104535
0.059115942
0.057091413
0.055010116
0.052896197
0.051005033
0.050206254
0.05112821
0.051144231
0.051627099
0.053380845
0.055417328
0.05752744
0.059743433
0.061803832
0.063657905
0.064663307
0.062894982
0.060968292
0.059009731
0.057007403
0.054984968
0.053257807
0.052688514
0.053804866
0.051779573
0.052551312
0.054240813
0.056618671
0.058821505
0.06106516
0.063152964
0.065050911
0.065700035
0.063958976
0.062043222
0.0600747
0.057948996
0.055580027
0.052871004
0.052941542
0.054017005
0.053692488
0.054499532
0.053884385
0.054375559
0.053591158
0.054415882
0.053441603
0.054136529
0.053263837
0.054445094
0.053584053
0.054438818
0.05357845
0.054388108
0.053399111
0.053913311
0.053060157
0.054262228
0.05338638
0.054295612
0.053596112
0.054990073
0.054220809
0.05522735
0.054512222
0.056109287
0.055310797
0.056337469
0.055227143
0.056508399
0.05551225
0.05688888
0.056096224
0.058324412
0.057300986
0.058455578
0.057273277
0.058616074
0.057326641
0.058518702
0.057240613
0.058446896
0.057157482
0.058760814
0.057987249
0.060045167
0.059207359
0.060760237
0.059826405
0.061513405
0.060232939
0.061310071
0.060139797
0.061397377
0.060273399
0.061787935
0.060731378
0.0621352
0.060692045
0.061630343
0.060290524
0.061526714
0.060593315
0.062991256
0.062376646
0.064366695
0.062999861
0.063601345
0.062146675
0.063314332
0.061961612
0.063011954
0.061976085
0.063966752
0.062946916
0.064341578
0.063410545
0.06512026
0.06414399
0.065648827
0.064998191
0.067463606
0.066971897
0.068170101
0.067552948
0.069284925
0.068815295
0.070213552
0.069685197
0.071103526
0.070251811
0.071197697
0.069757526
0.068677984
0.065743718
0.0639917
0.059928633
0.053300127
0.046065353
0.038124517
0.029436513
0.02352227
0.021553003
0.02048533
0.022217244
0.028418915
0.036719202
0.044467455
0.051311017
0.057613663
0.061330758
0.06316829
0.065877734
0.067106336
0.068272548
0.067610242
0.068253633
0.067064699
0.067455679
0.066322426
0.06661937
0.065064393
0.065467717
0.064479254
0.0647927
0.062587597
0.063089296
0.061800215
0.062559138
0.061073957
0.061827089
0.060660545
0.061489504
0.059702263
0.060537516
0.0596733
0.060827494
0.059854475
0.061123612
0.060682967
0.061808948
0.059998262
0.060445673
0.058353387
0.059138096
0.058095781
0.059222203
0.058471407
0.059693392
0.058469304
0.059299393
0.05800503
0.05886448
0.057816203
0.058780972
0.057900737
0.058911201
0.057356432
0.058062649
0.056807223
0.057440343
0.055686815
0.056278204
0.054975363
0.05607409
0.055079291
0.05617217
0.05518461
0.056292379
0.055174454
0.056173312
0.055227129
0.05603903
0.054027172
0.054586484
0.053386692
0.05422699
0.053179709
0.054166607
0.053362961
0.054056872
0.052636386
0.053224167
0.052363438
0.052992206
0.051758603
0.052324398
0.0514939
0.052128111
0.05100826
0.051737332
0.051424773
0.052225831
0.051589999
0.052315777
0.051647686
0.052388637
0.051388312
0.052139569
0.051597905
0.052441311
0.051730986
0.052330561
0.051964945
0.052473796
0.051759996
0.05204787
0.051024886
0.050488975
0.050482473
0.048559295
0.04832502
0.048343657
0.048676356
0.048859992
0.053686793
0.053557029
0.053167654
0.050080271
0.059488962
0.075983672
0.062153631
0.062876637
0.079197268
0.063701673
0.054232904
0.05428521
0.049845587
0.049551877
0.04967206
0.049798618
0.054311937
0.053423611
0.053424511
0.066010302
0.064907242
0.065496537
0.064540082
0.063427263
0.06034974
0.057583055
0.044151778
0.044951462
0.0468963
0.049085668
0.051264711
0.053375496
0.055448346
0.057310752
0.058684313
0.059550704
0.062211524
0.064539854
0.065851121
0.068063931
0.068420724
0.073489664
0.073663975
0.075481861
0.075553344
0.076535949
0.076578195
0.07721184
0.077232873
0.077408526
0.077406911
0.077347673
0.077357686
0.077822627
0.077837487
0.077912291
0.077936171
0.078629093
0.078663215
0.078982835
0.078999581
0.079189802
0.079176023
0.078694112
0.078674408
0.078746159
0.078754688
0.078914151
0.078954929
0.080039277
0.080092151
0.080540369
0.080602171
0.081854394
0.081956637
0.083423147
0.08356619
0.085917104
0.086039582
0.087024698
0.087133156
0.088841833
0.088918278
0.08921891
0.089237697
0.089553867
0.089557824
0.08948673
0.089474254
0.089439502
0.089497241
0.091072874
0.091215733
0.093041884
0.093153029
0.094003156
0.094042142
0.094233891
0.094218714
0.093800639
0.093771536
0.093768942
0.093785784
0.094328424
0.094327206
0.09403269
0.093944306
0.093017938
0.092926915
0.092762274
0.092979395
0.097960143
0.098212988
0.099006413
0.098916105
0.097153106
0.097041394
0.096455327
0.096386629
0.096039682
0.096106077
0.097656357
0.097762774
0.098717154
0.098836395
0.10001447
0.10010144
0.10082165
0.10099244
0.10337249
0.10355625
0.10430822
0.10448522
0.10670068
0.10689733
0.10774209
0.10789179
0.10935617
0.10951122
0.11005423
0.10998298
0.10709498
0.10667947
0.10105817
0.099879544
0.081942971
0.077465586
0.072326812
0.060211461
0.058393228
0.073991411
0.07884296
0.095400311
0.097463581
0.10258644
0.10329429
0.10606244
0.10617568
0.10578451
0.10549057
0.10431486
0.10403037
0.10331341
0.10295321
0.1010481
0.10073038
0.10008476
0.099743706
0.097635974
0.097345671
0.096735986
0.096564518
0.095515759
0.095315316
0.094522601
0.094313658
0.092925886
0.092831777
0.093165966
0.093265803
0.093731486
0.093936416
0.095474799
0.095587619
0.094786128
0.094366076
0.09014445
0.089782192
0.089910124
0.090040802
0.090800391
0.090924314
0.091141784
0.091136518
0.09061053
0.090588864
0.090596781
0.090648316
0.091003479
0.091015778
0.090784083
0.0907165
0.089943487
0.089750267
0.088108423
0.087864311
0.08647461
0.086386199
0.086448719
0.086472325
0.086514043
0.086504025
0.086223779
0.086196461
0.08594812
0.085811634
0.084240042
0.084042087
0.083153519
0.082887588
0.080834544
0.080651601
0.079433386
0.079255242
0.078128351
0.078016648
0.07763628
0.077542554
0.076576114
0.076504626
0.076376073
0.076370797
0.076281289
0.076285453
0.076741643
0.076766722
0.076607562
0.076574341
0.076311931
0.076251021
0.075635373
0.075594213
0.075570074
0.075543173
0.07514112
0.075119126
0.07518364
0.075180637
0.075018763
0.074974828
0.074381922
0.074302542
0.073380971
0.07325526
0.071595161
0.071291863
0.06662195
0.065869835
0.063985185
0.067923776
0.070212504
0.07063688
0.068553605
0.069858735
0.072160856
0.072343826
0.070183479
0.070915121
0.073220266
0.073346299
0.071172819
0.071621861
0.073920693
0.073994154
0.071810341
0.071868569
0.074151301
0.074161493
0.071979004
0.071837748
0.074114833
0.074146885
0.071974781
0.072179343
0.074494211
0.074531849
0.072315366
0.072173003
0.074518713
0.074577172
0.0723366
0.07274417
0.075140886
0.075226285
0.07294796
0.07302526
0.075441583
0.075484776
0.073174804
0.073174777
0.075610526
0.075563503
0.073214616
0.072709022
0.075137007
0.075157609
0.072833043
0.072857883
0.075276134
0.075273268
0.072959767
0.072937944
0.075376237
0.075484735
0.073180762
0.073871184
0.076360103
0.076488125
0.074127815
0.074319357
0.076829992
0.076982194
0.074607938
0.07544965
0.078021105
0.078269025
0.075851778
0.076666417
0.079315022
0.079143965
0.077114854
0.092583828
0.092263627
0.091362634
0.090972975
0.089885684
0.089627873
0.089173336
0.088968449
0.088178098
0.088018481
0.087912331
0.087843381
0.087584016
0.087500484
0.087856993
0.087872166
0.087701161
0.087616001
0.087447166
0.087304178
0.086698376
0.086595966
0.086682705
0.086619704
0.086309322
0.086233739
0.08612958
0.086075059
0.085834382
0.085723829
0.085120451
0.084964088
0.084028482
0.083846602
0.082423511
0.081975862
0.077763831
0.076657171
0.069049096
0.055275658
0.056929183
0.057482465
0.059087661
0.061533774
0.064066865
0.056425604
0.0545066
0.057059314
0.059041456
0.065603474
0.066936434
0.072073353
0.072034159
0.074738418
0.073812488
0.075866678
0.07479013
0.076370408
0.075119437
0.076555752
0.075281871
0.07676389
0.075284459
0.077133037
0.076169111
0.077720409
0.076650694
0.078525451
0.077360672
0.079260674
0.078050424
0.079616546
0.078065505
0.079152192
0.077475592
0.078570287
0.077104477
0.078677264
0.07749077
0.07996456
0.079127683
0.080721638
0.079526553
0.081755173
0.081236015
0.083917254
0.083783811
0.087483336
0.087370886
0.089435141
0.088504572
0.091281431
0.090830713
0.092011715
0.091003564
0.092228509
0.091926833
0.091638467
0.091911107
0.090443028
0.092523637
0.092897296
0.095614069
0.095716059
0.097848801
0.096910685
0.098394332
0.096862795
0.098119908
0.096161086
0.09716754
0.095800114
0.097502935
0.096600669
0.097951084
0.09615125
0.09677746
0.094629766
0.094876453
0.092948277
0.093207937
0.090532277
0.088892755
0.089515101