/*--------------------------------*- C++ -*----------------------------------*\
| =========                 |                                                 |
| \\      /  F ield         | OpenFOAM: The Open Source CFD Toolbox           |
|  \\    /   O peration     | Version:  v2012                                 |
|   \\  /    A nd           | Website:  www.openfoam.com                      |
|    \\/     M anipulation  |                                                 |
\*---------------------------------------------------------------------------*/
FoamFile
{
    version     2.0;
    format      ascii;
    class       volScalarField;
    location    "100";
    object      omega;
}
// * * * * * * * * * * * * * * * * * * * * * * * * * * * * * * * * * * * * * //

dimensions      [0 0 -1 0 0 0 0];


internalField   nonuniform List<scalar> 
33454
(
39.806021
39.426964
39.062817
38.915051
38.798957
38.565308
38.143403
37.78065
37.637712
37.455227
37.123108
36.843809
36.622261
36.43013
36.253037
36.087019
35.939737
35.81765
35.715437
35.607073
35.580311
35.555318
35.542684
35.501282
35.129702
33.867478
33.752711
33.76215
33.816315
33.81855
33.661483
33.529631
33.545386
33.546844
33.455719
33.378787
33.329965
33.292456
33.27369
33.264455
33.269594
33.268417
33.330417
33.405652
33.483984
33.594797
33.342121
32.165102
32.134684
32.203796
32.306525
32.387095
32.327313
32.28124
32.350188
32.410118
32.391089
32.381151
32.408834
32.455895
32.504654
32.550729
32.60267
32.731911
32.718946
32.279045
32.878543
37.400791
37.779773
34.303377
33.279821
32.660813
32.144069
31.644644
31.155473
30.676494
30.211753
29.763097
29.331434
28.916559
28.517664
28.133797
27.763975
27.407262
9.24772
9.177614
9.1142524
9.057446
9.0081038
8.9652806
8.9292541
8.8995978
8.8760631
8.8589545
8.8478135
8.8430334
8.8439691
8.8502299
8.861579
8.8773904
9.1818284
9.142179
9.1042273
9.0681521
9.0341535
9.0024692
8.973361
8.9471293
8.9240903
8.9045961
8.8889919
8.8776504
8.8709076
8.869112
8.8725518
8.8815183
8.8962203
8.9168651
8.9435648
8.9764325
9.0154829
9.060739
9.1121288
9.1695982
9.2330053
9.3022705
9.3774226
9.4456875
9.3657128
9.2921962
9.2246877
9.1632952
9.1081231
9.0592475
9.0167087
8.9805112
8.9506145
8.9269333
8.9093352
8.8976411
8.8916273
8.8910306
8.8955547
8.9048735
8.9186806
8.9366034
8.9582694
8.9833408
9.0114558
9.0423056
9.0755964
9.1110788
9.1485307
9.1877239
9.1986103
9.1596051
9.1223471
9.0870325
9.0538865
9.0231618
8.9951425
8.9701435
8.948542
8.930731
8.9170446
8.9078152
8.9030947
8.9032518
8.9085947
8.919385
8.935839
8.958122
8.9863487
9.0205862
9.0608559
9.1071307
9.159344
9.2173936
9.2811482
9.350479
9.4254702
9.5041989
9.4226694
9.3476793
9.2787396
9.2160097
9.1595417
9.1094013
9.0656137
9.0282394
8.9972016
8.9724026
8.9537017
8.9409388
8.9338294
8.9321724
8.9354531
8.9432844
8.9559484
8.9728043
8.9933594
9.0174123
9.0446045
9.0746102
9.1071243
9.1418733
9.1786103
9.2170921
9.2444398
9.2063117
9.1698665
9.1353211
9.1029165
9.0729278
9.0456548
9.0213202
9.0003678
8.9831629
8.9700765
8.9614727
8.957328
8.9580269
8.9640231
8.9757904
8.9935071
9.0172543
9.0471841
9.0833565
9.1257487
9.174331
9.2290342
9.2897636
9.3565092
9.4290394
9.5074339
9.5954209
9.5122212
9.4349058
9.3642096
9.3000626
9.2423006
9.1909908
9.1461508
9.1078294
9.0759569
9.0500654
9.0306233
9.0173452
9.0098116
9.007703
9.0105371
9.017901
9.0300658
9.0463828
9.0663767
9.0898349
9.1163487
9.1457138
9.1775147
9.2114337
9.2472128
9.284587
9.3420367
9.3054776
9.2704407
9.2371611
9.205909
9.1769731
9.1506782
9.127252
9.1071406
9.090706
9.0783134
9.0703244
9.0667119
9.0678985
9.0743299
9.0865049
9.1046314
9.1288019
9.1591499
9.1957741
9.2387354
9.28796
9.3433683
9.4048515
9.4723544
9.5456325
9.6247031
9.7580094
9.6749204
9.5976456
9.5269123
9.4626422
9.4048003
9.3530786
9.3070982
9.2685085
9.2366471
9.2106971
9.1911346
9.1776684
9.1698565
9.1673433
9.1696194
9.176254
9.1875311
9.2028352
9.2216759
9.2438204
9.2690234
9.2968397
9.3268722
9.3589381
9.3926971
9.4278337
9.5638443
9.5304263
9.498122
9.4672355
9.43809
9.4110057
9.3863278
9.3643049
9.3453699
9.3298849
9.3181948
9.3106369
9.3071534
9.3081674
9.3141735
9.3257224
9.3430162
9.366281
9.3956114
9.4311538
9.4729666
9.5209026
9.5749194
9.634877
9.7007616
9.7724011
9.8497532
10.078809
10.000211
9.9270597
9.8611458
9.8016016
9.7483289
9.7013657
9.6607724
9.6265623
9.5981868
9.5761655
9.5601912
9.5498565
9.5448463
9.5447056
9.5488328
9.5568326
9.569091
9.5850696
9.6043546
9.6265311
9.651229
9.6781365
9.7068357
9.7368938
9.7678831
9.7994006
10.233572
10.201093
10.167968
10.134836
10.102368
10.071222
10.041961
10.015081
9.9910562
9.9703101
9.9531652
9.9398071
9.9299183
9.9237082
9.9217479
9.9247664
9.9331096
9.9466633
9.9658535
9.9908718
10.021962
10.059403
10.102912
10.152316
10.207563
10.268477
10.334954
10.867952
10.809972
10.758176
10.712217
10.672268
10.638381
10.610485
10.588595
10.573013
10.564218
10.561434
10.563866
10.571858
10.584392
10.600544
10.619777
10.64255
10.670087
10.702452
10.739363
10.779986
10.823595
10.86962
10.917227
10.965106
11.011907
11.056475
12.79372
12.713404
12.625961
12.534062
12.439147
12.343326
12.249733
12.161448
12.07975
12.003786
11.934577
11.874926
11.825567
11.785198
11.748652
11.712643
11.677841
11.645983
11.618429
11.596066
11.579584
11.569077
11.564944
11.566934
11.575162
11.589179
11.609132
11.634969
11.666452
13.157027
13.154459
13.158375
13.168802
13.186473
13.211691
13.244825
13.28604
13.335261
13.392589
13.456946
13.526883
13.600868
13.675669
13.74709
13.792725
13.827003
13.909189
14.024641
14.164825
14.31607
14.482476
14.673843
14.887778
15.114778
15.348437
15.59102
15.849216
16.123166
27.053118
22.343579
21.815121
21.195741
20.625502
20.142992
19.692133
19.211821
18.739453
18.330846
18.022222
17.776152
17.448456
17.182724
17.103479
17.145585
17.047665
16.896093
16.735274
16.576755
16.424819
16.281253
16.147551
16.024451
15.912458
15.811208
15.720367
15.639069
15.566893
15.503307
15.447645
18.699132
18.804226
18.917151
19.03822
19.168233
19.307599
19.456746
19.615558
19.783276
19.958971
20.139813
20.323326
20.510369
20.699656
20.862187
20.942724
20.720061
20.677409
20.858159
22.973222
23.679598
22.640001
22.698734
22.092261
22.407384
22.293039
22.900854
23.375622
24.773925
29.458066
35.290701
31.989617
31.250163
32.139291
32.72894
32.592479
32.198816
32.128211
32.028336
31.945552
31.868545
31.821948
31.810792
31.861061
32.092094
31.941595
31.298022
31.552572
31.755703
32.282531
32.446492
32.319365
31.634513
29.491587
29.89228
30.175561
31.92144
33.188314
33.501295
33.266708
33.289822
33.142778
32.495998
32.525036
32.48867
32.480443
32.495503
32.529152
32.586924
32.665225
32.799421
33.117424
32.997658
32.321675
32.701576
32.9947
33.645777
33.901768
33.817318
32.991639
30.743649
31.473408
31.82812
33.719464
34.943796
35.330488
35.211441
35.31974
35.23673
34.531682
34.66869
34.724273
34.821027
34.950365
35.102177
35.276532
35.465546
35.68153
35.92508
36.238621
36.750749
36.748979
36.007629
36.698282
37.258517
38.305801
38.747501
38.811299
37.80646
34.17384
35.317675
35.451546
35.742348
8.842606
8.819274
8.8001713
8.7857045
8.7762446
8.7721514
8.7737388
8.7812927
8.7950341
8.8151434
8.8416481
8.8746094
8.9140405
8.9600221
9.0124882
9.0714178
9.1369214
9.5665508
9.5750229
9.5668476
9.5574803
9.5544216
9.5542579
9.5463342
9.5506933
9.5632731
9.5699151
9.5669146
9.5656757
9.5677646
9.5626491
9.5568074
9.5475776
9.5423514
9.541736
9.5404854
9.5260804
9.4789489
9.394833
9.4371961
9.4498082
9.4502824
9.4502554
9.4545523
9.4624008
9.4687467
9.4723616
9.4703692
9.4710891
9.4744078
9.4675581
9.4557415
9.4522424
9.4589667
9.4595075
9.4619751
9.4705208
9.4770505
9.4693473
9.470772
9.4679779
9.4696214
9.4713739
9.4710447
9.4556829
9.452993
9.3036182
9.3103447
9.3206834
9.3314121
9.3316262
9.338914
9.3459545
9.3617091
9.3650616
9.3792139
9.3802685
9.3783494
9.3771023
9.3811456
9.3799439
9.3865864
9.3813483
9.3742094
9.3719226
9.370874
9.3654129
9.3680409
9.3791671
9.3863838
9.3826301
9.3821783
9.3841819
9.38168
9.3753139
9.3680429
9.3655774
9.3662561
9.3664515
9.355442
9.3168301
9.2458664
9.2803766
9.2899021
9.289133
9.2879413
9.2897215
9.2961719
9.3020631
9.3039826
9.3013569
9.3021277
9.3049981
9.2986913
9.2884858
9.2857978
9.2906117
9.2909557
9.2936478
9.2994403
9.3033055
9.2977821
9.2992393
9.2947888
9.2949757
9.2970016
9.2951002
9.2822566
9.2782549
9.2633058
9.2557037
9.249251
9.2480918
9.2385569
9.2279667
9.2214347
9.2193408
9.2117615
9.2107355
9.219923
9.2322624
9.2415735
9.2181392
9.1445486
9.1655495
9.1558833
9.1448716
9.1356143
9.1372566
9.1439307
9.1472857
9.153024
9.1639721
9.1724671
9.174392
9.1801665
9.1881357
9.2019457
9.2063046
9.2181121
9.2207331
9.2186089
9.2193385
9.2242105
9.2224311
9.2272109
9.2245654
9.2201389
9.2168768
9.2172556
9.2129076
9.2161688
9.2253339
9.2305104
9.2286526
9.2274196
9.2308685
9.2296383
9.2239236
9.2185971
9.2173424
9.2189754
9.2202087
9.2120016
9.1807306
9.1227391
9.1504548
9.1574469
9.1558261
9.1538378
9.1546036
9.159191
9.1642764
9.1646
9.1616589
9.162597
9.1639927
9.1587694
9.1509788
9.1474964
9.1505757
9.1507684
9.1532669
9.1565721
9.1584768
9.1543926
9.1558573
9.1512598
9.1502539
9.1513308
9.1484197
9.137739
9.1329373
9.1203844
9.1119537
9.1069614
9.1041688
9.0967917
9.0862643
9.0806099
9.0770097
9.0701511
9.0690768
9.0777241
9.0879791
9.0967906
9.0778415
9.0184615
9.0350409
9.0270224
9.0176701
9.0099058
9.0101794
9.0171945
9.0209545
9.0268469
9.0366333
9.0432229
9.0465373
9.0510894
9.0596419
9.0712831
9.0761686
9.0861214
9.0889637
9.0888952
9.0901759
9.0941449
9.0933212
9.0972186
9.0956269
9.0939029
9.0916996
9.0912326
9.0893286
9.0929781
9.099318
9.1046144
9.1035135
9.1033161
9.1054754
9.1058144
9.1017056
9.0977557
9.0974237
9.099704
9.1016396
9.0957146
9.0707887
9.0259889
9.0478555
9.0528031
9.0506208
9.0481138
9.0480639
9.0514211
9.054299
9.0542674
9.0522157
9.051974
9.0520781
9.04776
9.0421618
9.0384101
9.0393054
9.0400328
9.041968
9.0429525
9.0435056
9.0397487
9.0398205
9.0365206
9.0351343
9.0346583
9.0313225
9.0220905
9.0170817
9.0063918
8.997701
8.993608
8.9897413
8.9838489
8.9746451
8.9686692
8.9642292
8.9581074
8.957562
8.9644188
8.9735034
8.981142
8.9663652
8.921843
8.9342954
8.9273663
8.9182385
8.9120744
8.913146
8.9185344
8.9234474
8.9296253
8.9382384
8.9434629
8.9478747
8.9515288
8.9603406
8.9700322
8.9752068
8.9836846
8.9875559
8.988686
8.9900266
8.9927992
8.9934328
8.9969995
8.9976127
8.9971871
8.9953868
8.9943767
8.9945747
8.9984481
9.0033319
9.0069082
9.0077236
9.008295
9.0101908
9.0097893
9.0082624
9.0054531
9.0058564
9.0085265
9.0108917
9.0067913
8.9873148
8.9556426
8.9725132
8.9758413
8.973351
8.970565
8.9698777
8.972204
8.9731477
8.9733482
8.9714515
8.9706652
8.9690814
8.9661206
8.9617462
8.9578504
8.9572878
8.9579548
8.9594914
8.9594836
8.9583941
8.9541558
8.9531103
8.9508544
8.9493812
8.9473977
8.9438788
8.9353201
8.9308031
8.9212944
8.9131776
8.9091465
8.9050041
8.8995457
8.8917798
8.8856419
8.8801635
8.8755986
8.8739921
8.8799291
8.8881202
8.8945561
8.8836638
8.852469
8.8616395
8.8554066
8.8485754
8.8428966
8.8450203
8.8490432
8.8547512
8.8609945
8.8678575
8.8735156
8.8774395
8.8818098
8.8892908
8.8986287
8.9024916
8.9111411
8.9142166
8.9168925
8.9186434
8.9206795
8.9218517
8.9268422
8.9283161
8.9287163
8.9272902
8.9272511
8.9280293
8.931916
8.9357319
8.9381697
8.9405681
8.9415523
8.9433079
8.9435948
8.9430734
8.9411794
8.942089
8.9449645
8.9475229
8.9448557
8.9300164
8.9110645
8.9237148
8.9257824
8.9232071
8.9203087
8.9192104
8.920699
8.920827
8.920256
8.9184396
8.9173362
8.9147165
8.9123605
8.9088101
8.9049695
8.9039976
8.9036182
8.9047491
8.9039826
8.9017571
8.897139
8.8953978
8.8935044
8.8911662
8.888523
8.8851632
8.8771593
8.8732006
8.8647468
8.8576679
8.8531936
8.8492084
8.8436308
8.8371865
8.8310665
8.8250533
8.8215271
8.8193163
8.8243264
8.8302625
8.8357599
8.8273326
8.8092823
8.8167162
8.8120823
8.8068215
8.802662
8.8047987
8.8078682
8.8142304
8.8201209
8.8260904
8.831718
8.8356388
8.8403346
8.846939
8.8545606
8.8585919
8.8660076
8.8696347
8.8721723
8.8750226
8.87679
8.8792846
8.883844
8.8862302
8.8873351
8.8865633
8.8872741
8.8884067
8.8921888
8.895632
8.8979791
8.900675
8.9018819
8.9038261
8.9045971
8.904814
8.9037069
8.9049771
8.9078425
8.9104009
8.9088414
8.8978936
8.8908876
8.9000321
8.9011264
8.8986331
8.895823
8.894423
8.8951734
8.8946374
8.8936825
8.8916216
8.8903163
8.8875558
8.8851877
8.8818175
8.8781158
8.8768482
8.8758254
8.876245
8.8748702
8.8724199
8.8678676
8.8651111
8.8631658
8.8601355
8.8571686
8.8535201
8.846727
8.8425697
8.8357306
8.8295002
8.8246783
8.8205536
8.815146
8.8093304
8.8039501
8.7976511
8.7944273
8.7923789
8.7956793
8.8003343
8.8040951
8.7975
8.7923657
8.7978097
8.7946184
8.7907497
8.7880641
8.7902663
8.793641
8.7997085
8.8048848
8.8103561
8.8154506
8.8198088
8.8248496
8.8306896
8.8368884
8.8410917
8.8473793
8.8509193
8.8542578
8.8574034
8.859677
8.8625217
8.8669954
8.869515
8.871156
8.8710652
8.8723722
8.8737907
8.8773692
8.8806982
8.8831119
8.8859166
8.8873323
8.8894806
8.8906176
8.8914478
8.8910204
8.8925548
8.8952688
8.89766
8.8969582
8.889215
8.8930431
8.8993363
8.8996808
8.8972402
8.8948204
8.8931782
8.8933171
8.8922173
8.8909105
8.8886993
8.8871697
8.8843423
8.8818493
8.8784298
8.8751203
8.8735577
8.8720208
8.8717549
8.8698859
8.867318
8.862942
8.8599366
8.8575359
8.8543975
8.8509608
8.8472942
8.8415133
8.8372335
8.8316249
8.8261076
8.8210398
8.8164297
8.8116475
8.8064782
8.8014809
8.7957288
8.7924274
8.7901421
8.7922329
8.7954046
8.7980086
8.7930842
8.7997351
8.8039971
8.801981
8.7993947
8.7979095
8.8001982
8.8034966
8.8088575
8.8136973
8.8185657
8.8230455
8.8278951
8.8329052
8.8380773
8.8432317
8.8474961
8.8528695
8.8565774
8.8601379
8.863141
8.8654422
8.8687413
8.8729127
8.8754613
8.8775474
8.878149
8.8799429
8.8815972
8.8846734
8.8881921
8.8907325
8.8935935
8.8952054
8.8974911
8.8989024
8.9002371
8.9003663
8.9021029
8.9044612
8.9067329
8.9067802
8.9016138
8.9149389
8.9189771
8.9185103
8.9165445
8.9142827
8.9124759
8.9120624
8.9105293
8.9088882
8.9066894
8.904856
8.9021235
8.8994356
8.8959802
8.8930992
8.8912041
8.8893173
8.8882632
8.8861484
8.8834659
8.8796272
8.8763116
8.8737996
8.8709313
8.8672995
8.8637184
8.8587607
8.854514
8.8497611
8.8447515
8.8399717
8.8351556
8.8306585
8.826072
8.8213661
8.8164786
8.8130717
8.810832
8.8117181
8.8138012
8.8152418
8.8115761
8.8285562
8.8315764
8.8305296
8.8290036
8.8285681
8.830833
8.8342261
8.8386956
8.8431662
8.8476019
8.852087
8.8567774
8.8613989
8.8661851
8.8706065
8.8748014
8.8793805
8.8827919
8.8863392
8.8891976
8.8918693
8.8951058
8.8986895
8.9015034
8.9036425
8.9050936
8.9070378
8.9091863
8.9118907
8.9152713
8.9180655
8.9206837
8.9227031
8.9248338
8.9266756
8.9283541
8.9290787
8.9309308
8.9329994
8.9347195
8.9354711
8.9323379
8.9536917
8.9559096
8.9551286
8.953412
8.951584
8.9497182
8.9486502
8.9468846
8.9450807
8.9429367
8.9408369
8.9382491
8.935472
8.9321903
8.9295147
8.927256
8.9251619
8.9234844
8.9212137
8.9184549
8.9149617
8.9118307
8.9091692
8.9063448
8.9029033
8.8996402
8.8953154
8.8912924
8.8870895
8.8824705
8.8779605
8.8735313
8.8692159
8.8649344
8.8606696
8.8564265
8.8530232
8.8507217
8.8507996
8.851789
8.8525036
8.8498852
8.8825595
8.8866204
8.890672
8.8947994
8.8989439
8.9031059
8.9074362
8.9119198
8.9159254
8.9197499
8.9238286
8.9269559
8.9302699
8.9330385
8.9356532
8.9386959
8.9420944
8.9448291
8.947247
8.949059
8.9513231
8.9536201
8.9563186
8.9594731
8.9622454
8.9647693
8.9669612
8.9690916
8.9708463
8.9726696
8.9740064
8.9758251
8.9774735
8.9791991
8.9799553
8.9784377
9.0063907
9.0073724
9.0065743
9.0049173
9.0032932
9.0015808
9.000067
8.9982772
8.9964267
8.9943175
8.992047
8.9895965
8.9868327
8.9838501
8.9811615
8.9787809
8.9764466
8.9744672
8.9719596
9.0022838
9.0048247
9.0069559
9.0092975
9.0117548
9.0144444
9.0172515
9.0199432
9.0223645
9.0246444
9.026777
9.0287075
9.0304737
9.0320957
9.0337004
9.0353042
9.0368713
9.0377153
9.0370883
9.0703282
9.0706424
9.0697832
9.0682781
9.0667878
9.0652127
9.0635586
9.0618329
9.0598912
9.0577652
9.05549
9.0531102
9.0504842
9.0477797
9.0451256
9.042623
9.0402829
9.0380478
9.0354368
9.076123
9.0784455
9.0809542
9.0835639
9.0861644
9.0887282
9.0910484
9.0933105
9.095401
9.0973501
9.0990156
9.100653
9.1022119
9.1035931
9.1050161
9.1058773
9.1057718
9.1432526
9.1431863
9.1423463
9.1410333
9.1397134
9.1382111
9.1366307
9.1349745
9.1330538
9.1310058
9.1287812
9.1265067
9.124037
9.1215246
9.118998
9.1165347
9.1141991
9.154282
9.1565846
9.1589855
9.1614075
9.1638406
9.1662057
9.1684288
9.1705937
9.1725957
9.1744636
9.1761152
9.1776355
9.179072
9.1803258
9.1815298
9.1823292
9.1825027
9.188119
9.1490866
9.111878
9.0766961
9.0437741
9.013375
8.985819
8.9614725
8.9406783
8.9237164
8.9109555
8.902746
8.8991961
8.9006881
8.9075159
8.9199592
8.9382106
8.9624537
8.9927743
9.0292597
9.0718983
9.1206878
9.1755264
9.236336
9.3029472
9.3752541
9.4533386
26.253838
26.587945
26.932118
27.287508
27.654647
28.034528
28.427608
28.835314
29.257263
29.691946
30.137781
30.593356
31.05838
31.602736
32.394776
33.246835
34.394984
29.399113
29.05615
29.05782
28.961721
28.874175
28.800874
28.746508
28.707201
28.688075
28.69418
28.739851
28.189287
28.106489
27.814993
27.746309
27.508963
27.44804
27.295232
27.242089
27.09177
27.052996
27.010239
26.979987
26.89895
26.870047
26.835407
26.803196
26.711039
26.675948
26.626745
26.600957
26.57799
26.568141
26.641208
26.63809
26.639449
26.618145
26.616538
26.590041
26.523716
26.500581
26.519558
26.498301
26.452765
26.425215
26.402343
26.441176
26.432251
26.317501
26.267821
26.334842
26.338827
26.288927
26.292276
26.315486
26.325763
26.330198
26.343187
26.385871
26.404286
26.447598
26.452907
26.396774
26.390099
26.341354
26.340162
26.328206
26.334754
26.329739
26.343174
26.40833
26.435353
26.505472
26.522585
26.526505
26.541856
26.594631
26.622909
26.708425
26.735542
26.792201
26.775888
26.589337
26.565181
26.523186
26.54687
26.68266
26.723838
26.815886
26.85153
26.958996
26.979246
26.952098
26.963166
27.012303
27.036287
27.099703
27.131366
27.210066
27.217335
27.14173
27.140607
27.226511
27.24726
27.307273
27.329845
27.455421
27.524281
27.874155
28.017537
28.520395
28.779166
29.903328
30.338001
31.766302
32.404094
35.518946
36.489432
39.017325
41.624175
43.533874
44.454135
44.388361
43.387434
41.38066
38.861356
36.421571
35.362094
32.437085
31.738574
30.400386
29.909038
28.836698
28.547872
28.078886
27.925625
27.595151
27.516491
27.399093
27.375632
27.317181
27.297698
27.218139
27.217656
27.290982
27.27695
27.209545
27.171477
27.112119
27.075284
27.030545
27.013268
27.043719
27.015941
26.921536
26.874784
26.793054
26.741157
26.622319
26.592184
26.641074
26.660932
26.831069
26.840017
26.791899
26.755777
26.683359
26.646905
26.60485
26.583334
26.586529
26.561552
26.49968
26.462856
26.408404
26.389046
26.401701
26.39096
26.412431
26.405419
26.451341
26.451364
26.508849
26.49756
26.459599
26.433015
26.399119
26.37951
26.380862
26.363879
26.348644
26.341274
26.396045
26.384222
26.343842
26.456993
26.415262
26.43032
26.404224
26.424153
26.450523
26.49692
26.515379
26.497195
26.518207
26.586572
26.61901
26.619113
26.630019
26.635673
26.645363
26.575617
26.581326
26.603938
26.627261
26.672865
26.707543
26.796247
26.828146
26.858844
26.888142
26.966681
26.998228
27.039107
27.080588
27.22287
27.276045
27.417637
27.482651
27.708473
27.783671
28.062269
28.154716
28.145545
28.16366
28.207136
28.262427
28.339047
28.430531
28.534565
28.570331
28.618782
28.344648
28.35476
28.279627
28.21148
28.14878
28.094367
28.057931
28.04577
27.77856
27.793844
27.828062
27.868977
27.926089
27.992518
28.066908
28.067158
28.128264
27.997128
28.003175
27.929257
27.862851
27.802462
27.750121
27.713202
27.697227
27.47887
27.496312
27.53159
27.574974
27.639331
27.724634
27.863364
27.807768
27.664118
27.648011
27.491057
27.510151
27.447995
27.495671
27.390352
27.451295
27.369067
27.428373
27.29198
27.351061
27.243798
27.306121
27.212797
27.291096
27.259733
27.353445
27.25993
27.342368
27.267017
27.346202
27.215614
27.291513
27.216949
27.291529
27.148097
27.213131
27.099803
27.194287
27.05642
27.162963
27.119055
27.227151
27.054956
27.156025
27.068425
27.175404
27.074656
27.195436
27.125335
27.256006
27.197459
27.324968
27.200681
27.285881
27.150154
27.240255
27.117777
27.205153
27.075053
27.20887
27.178043
27.326749
27.293749
27.428371
27.335967
27.454241
27.377486
27.529589
27.488923
27.632548
27.567968
27.678216
27.495986
27.576978
27.423573
27.56374
27.553243
27.716685
27.678507
27.844938
27.816497
27.950318
27.815613
27.947846
27.89405
28.041337
27.989242
28.146283
28.104575
28.21923
28.043272
28.132516
28.104107
28.227131
28.182895
28.294913
28.262723
28.415617
28.540634
28.810235
29.036541
29.457285
30.160836
30.888594
31.74327
32.649015
34.399047
35.819166
37.543927
39.391535
41.335587
41.817841
41.667498
41.162851
39.131278
37.378505
35.68833
34.299342
32.645544
31.778546
30.943144
30.236304
29.54659
29.143873
28.90275
28.649796
28.521444
28.397061
28.428372
28.333321
28.348061
28.230508
28.241224
28.167066
28.330928
28.244106
28.271848
28.127911
28.164956
28.034911
28.072378
27.953937
28.07244
27.954273
27.97026
27.821399
27.847368
27.703694
27.698284
27.564004
27.697577
27.629808
27.793121
27.70069
27.751102
27.620806
27.647438
27.510522
27.572846
27.474638
27.554549
27.437244
27.456567
27.332062
27.340686
27.203045
27.308906
27.244274
27.363145
27.294419
27.40875
27.336353
27.436947
27.31984
27.360305
27.243766
27.303022
27.200868
27.295989
27.21182
27.290017
27.208009
27.369322
27.278058
27.298638
27.205322
27.343104
27.268887
27.378785
27.330424
27.466279
27.40305
27.46416
27.394053
27.512869
27.442061
27.490664
27.400184
27.475693
27.406892
27.440933
27.36457
27.434659
27.381193
27.472782
27.42198
27.542897
27.495281
27.567594
27.5114
27.596143
27.55055
27.59616
27.580732
27.729923
27.753292
27.900266
27.987336
27.996855
28.085526
28.114528
28.121184
28.040487
28.007089
27.949031
32.010524
32.318842
33.381726
32.204644
30.725917
31.403785
30.978883
29.695391
30.63814
31.748449
27.783701
27.824033
27.862636
27.894406
27.874276
27.542932
27.684013
27.749246
27.042643
27.263056
27.359747
27.584132
27.780127
28.19891
28.538945
29.439693
29.393033
29.263318
29.137553
29.036716
28.957864
28.899584
28.866352
28.874948
28.904596
28.81613
28.796389
28.823499
28.804098
28.774471
28.118871
28.100334
27.73648
27.721949
27.409914
27.396674
27.173507
27.161733
26.947869
26.938964
26.845434
26.838687
26.7021
26.695482
26.610997
26.604191
26.46108
26.453885
26.368697
26.364631
26.315829
26.316843
26.380904
26.382052
26.37297
26.372466
26.346817
26.342262
26.239064
26.235903
26.235634
26.233571
26.159108
26.154237
26.082814
26.077093
25.982337
25.984356
26.091974
26.094738
26.05542
26.05537
26.085916
26.08777
26.094626
26.097429
26.151609
26.15602
26.199567
26.199234
26.126942
26.122967
26.066733
26.064742
26.05513
26.055149
26.066577
26.0709
26.154159
26.160853
26.243424
26.247839
26.261795
26.266182
26.338225
26.347402
26.464249
26.473762
26.55205
26.542628
26.273153
26.260159
26.232226
26.240205
26.412755
26.424995
26.550448
26.563103
26.68994
26.694223
26.661033
26.663438
26.698933
26.704769
26.771898
26.779541
26.863538
26.863957
26.779129
26.780274
26.886175
26.894046
26.961372
26.973348
27.155639
27.186606
27.620039
27.676664
28.339126
28.441527
29.826246
29.985366
31.763457
32.01771
35.680465
36.383956
37.351284
39.413964
39.202412
36.43673
35.641908
32.208687
31.751189
30.121198
29.840946
28.570705
28.396778
27.803865
27.70703
27.307851
27.257847
27.099147
27.08391
27.020135
27.008529
26.909739
26.911241
26.989643
26.990849
26.908334
26.895793
26.82517
26.813201
26.768269
26.7658
26.794682
26.786532
26.664992
26.644893
26.531116
26.50779
26.349166
26.335293
26.367206
26.386956
26.620754
26.636487
26.565798
26.549816
26.443607
26.427027
26.360673
26.353654
26.343007
26.336187
26.257678
26.245284
26.167034
26.158393
26.148827
26.149401
26.160735
26.163823
26.21503
26.221758
26.286439
26.287361
26.241903
26.233603
26.181142
26.175877
26.1681
26.164527
26.134389
26.134078
26.175702
26.17225
26.073383
26.072085
26.160893
26.168047
26.231665
26.24053
26.309915
26.313844
26.311499
26.317157
26.413974
26.422777
26.445285
26.449
26.458704
26.453835
26.389693
26.38779
26.432055
26.439105
26.515996
26.529202
26.660013
26.672591
26.745086
26.756762
26.878574
26.890376
26.970279
26.986624
27.182504
27.205309
27.408717
27.434962
27.727837
27.75662
28.101495
28.135975
28.762027
28.69187
28.674034
28.106532
28.093077
28.043732
28.037069
27.731859
27.718073
27.677266
27.673602
27.418841
27.401466
27.364835
27.367102
27.198084
27.176585
27.144939
27.15297
26.986619
26.960075
26.937719
26.953999
26.896271
26.864823
26.848574
26.870929
26.774281
26.734689
26.720169
26.750303
26.70119
26.656108
26.639415
26.674546
26.568218
26.515933
26.498996
26.540574
26.481733
26.427234
26.417233
26.462576
26.428557
26.372837
26.373305
26.422119
26.488191
26.434517
26.44394
26.493442
26.487764
26.431309
26.423543
26.470561
26.45839
26.402008
26.391657
26.440021
26.363466
26.300655
26.293223
26.346493
26.356236
26.294813
26.289222
26.341878
26.28658
26.222136
26.209493
26.264264
26.220292
26.151938
26.169159
26.20027
25.010071
25.020287
25.069465
25.090123
25.171818
25.183916
25.202977
25.216721
25.310882
25.325801
25.352756
25.363182
25.408139
25.409953
25.378936
25.382336
25.451603
25.469635
25.544843
25.572228
25.716565
25.743227
25.819816
25.845828
25.98892
26.017032
26.11751
26.15343
26.359951
26.405601
26.596465
26.644117
26.911927
26.958316
27.240774
27.296422
27.846445
27.944379
28.82702
29.715744
29.75135
29.83791
29.861704
29.803771
29.82789
30.394483
30.621538
30.558433
30.548379
29.774392
29.573197
29.008089
28.912791
28.573355
28.510301
28.210846
28.173495
27.948882
27.931676
27.703131
27.720022
27.568003
27.623924
27.433604
27.472671
27.317003
27.35965
27.168062
27.228577
27.061844
27.137879
27.017884
27.146414
27.108808
27.251165
27.178974
27.291001
27.171238
27.251279
27.048158
27.134606
27.054233
27.165087
27.017614
27.085539
26.925948
26.986086
26.787747
26.901239
26.897087
27.072285
26.927291
27.011112
26.969977
27.064008
27.007766
27.04593
27.112613
27.104202
27.244098
27.107173
27.104121
26.938893
26.995415
26.880176
26.986663
26.88981
27.02414
26.94266
27.140033
27.09379
27.263218
27.169128
27.264881
27.173662
27.357192
27.318902
27.515123
27.500763
27.684242
27.661386
27.716531
27.857282
27.793721
27.617332
27.607515
27.431297
27.449345
27.28903
27.364901
27.284193
27.359233
27.207232
27.233332
27.055434
27.125356
27.018426
27.093157
26.998875
27.097748
27.060739
27.204181
27.216254
27.331528
27.202567
27.204062
27.136849
27.099335
27.146752
27.061854
27.089068
27.019115
27.148517
26.989353
26.971943
26.86922
27.051016
27.002944
27.146915
27.092268
27.225377
27.126036
27.194124
27.12012
27.304736
27.232512
27.341288
27.245951
27.308303
27.178161
27.204207
27.088839
27.197268
27.131691
27.284498
27.23573
27.410858
27.379496
27.518858
27.489191
27.662377
27.614022
27.751285
27.739891
27.953305
27.978787
28.186477
28.226126
28.510979
28.584141
28.912619
29.019176
29.568772
29.786612
29.846302
29.6577
28.767299
29.413114
29.615795
29.075254
28.8984
28.085965
28.767537
28.95848
28.637863
28.46605
27.704861
28.372524
28.557242
28.283523
28.112035
27.37416
28.055469
28.242716
28.046316
27.866341
27.129352
27.8182
28.01697
27.8145
27.628765
26.891464
27.622886
27.825805
27.70111
27.505454
26.776105
27.542278
27.747878
27.584705
27.3889
26.614481
27.395656
27.612156
27.485393
27.292221
26.511323
27.301958
27.51435
27.348958
27.144545
26.348692
27.177849
27.394316
27.247265
27.046953
26.251049
27.0874
27.305802
27.205871
26.997897
26.194574
27.088862
27.320133
27.300237
27.085028
26.259595
27.178603
27.420005
27.363181
27.128016
26.24981
27.196629
27.454081
27.354682
27.115886
26.217559
27.158426
27.419031
27.242805
26.999361
26.099341
27.04996
27.312109
27.251407
27.003175
26.09523
27.077209
27.344377
27.219509
26.966915
26.012973
26.994365
27.268425
27.134567
26.884549
25.934016
26.908199
27.175461
27.003268
26.755081
25.829127
26.831163
27.101304
27.134783
26.882223
25.938626
27.003781
27.287467
27.166969
26.900123
25.896014
26.939841
27.230039
27.21233
26.934516
25.92711
27.003225
27.292693
27.251772
26.966094
25.929453
26.998918
27.285568
27.355923
27.057372
25.986929
27.068216
27.356493
27.479867
27.147452
26.02501
27.092908
27.378272
27.362313
27.056807
25.938141
26.96394
27.22973
27.263776
26.966014
25.872596
26.907659
27.175325
27.259615
26.954112
25.862249
26.916394
27.191664
27.290101
26.984331
25.87986
26.949383
27.226226
27.39532
27.076557
25.973671
27.083014
27.377281
27.52306
27.192397
26.056493
27.156982
27.455847
27.529287
27.209668
26.073069
27.167246
27.459443
27.610472
27.27329
26.152151
27.293234
27.602479
27.773089
27.424359
26.288512
27.485363
27.802962
27.985304
27.610692
26.391022
27.618761
28.030215
27.587196
26.485727
27.094083
27.366824
27.347072
27.271991
27.178734
27.086138
26.979719
26.868902
26.752086
26.677324
26.579848
26.718798
26.918979
27.189371
27.429638
27.43024
27.220017
26.98009
26.7835
26.817591
26.898758
26.981632
27.065693
27.136618
27.20479
27.252155
27.232259
26.937737
26.246224
27.115632
27.463508
27.49245
27.442333
27.366953
27.285639
27.181478
27.090784
27.006382
27.217506
27.271721
27.337131
27.405796
27.460249
27.510549
27.535792
27.48228
27.13288
26.416931
27.363453
27.753065
27.805578
27.771131
27.712754
27.646772
27.560181
27.488379
27.427364
27.685353
27.731466
27.77415
27.793118
27.72795
27.351629
26.58143
27.547516
27.959931
28.019168
27.98727
27.929568
27.862833
27.879252
27.931451
27.977499
27.996706
27.928029
27.528735
26.699631
27.653452
28.069047
28.121143
28.08104
28.013094
27.937855
27.921899
27.531434
26.66732
27.578867
27.983586
27.829945
27.449985
26.650984
27.586479
27.967033
42.528667
42.026907
41.699009
39.00244
36.345707
35.436685
32.200569
31.624217
30.122391
29.740726
28.562724
28.331452
27.793119
27.664269
27.2929
27.229744
27.089755
27.068123
27.003439
26.985984
26.896289
26.899193
26.971914
26.970854
26.893113
26.871725
26.804474