/*--------------------------------*- C++ -*----------------------------------*\
| =========                 |                                                 |
| \\      /  F ield         | OpenFOAM: The Open Source CFD Toolbox           |
|  \\    /   O peration     | Version:  v2012                                 |
|   \\  /    A nd           | Website:  www.openfoam.com                      |
|    \\/     M anipulation  |                                                 |
\*---------------------------------------------------------------------------*/
FoamFile
{
    version     2.0;
    format      ascii;
    class       volScalarField;
    location    "100";
    object      p;
}
// * * * * * * * * * * * * * * * * * * * * * * * * * * * * * * * * * * * * * //

dimensions      [0 2 -2 0 0 0 0];


internalField   nonuniform List<scalar> 
33454
(
-3.1235853
-3.0616144
-2.9651934
-2.986824
-2.9402735
-2.8168776
-2.7790663
-2.7567553
-2.7326258
-2.639516
-2.5902751
-2.5567908
-2.5335479
-2.4754513
-2.3868319
-2.3437708
-2.3081618
-2.2901279
-2.1976857
-2.1373067
-2.1140174
-2.0892595
-2.0704838
-2.0054642
-1.9212366
-1.8799847
-1.807144
-1.760659
-1.813056
-1.7005467
-1.623491
-1.5710944
-1.5332433
-1.5098661
-1.4591312
-1.3603945
-1.3015617
-1.2520601
-1.2089276
-1.1265014
-1.047394
-0.98832921
-0.95361993
-0.93827953
-0.84198757
-0.75976316
-0.69704199
-0.62929497
-0.52643249
-0.44901351
-0.41742526
-0.321441
-0.2335055
-0.16841685
-0.094440957
0.012068112
0.12105244
0.222329
0.3122476
0.44735951
0.59363205
0.72991608
0.84588447
0.98826956
1.1394127
1.2690018
1.3785487
1.896768
4.6190111
2.044024
1.3214382
1.1676297
0.96101219
0.76475828
0.63123762
0.53125673
0.44972843
0.38340374
0.32951444
0.28504038
0.24804817
0.21712665
0.19098375
0.16872606
-0.13956664
-0.15589998
-0.17499403
-0.19732552
-0.22342166
-0.25379313
-0.28890877
-0.32908322
-0.37440509
-0.42469187
-0.47948679
-0.53808666
-0.59956877
-0.66307225
-0.72763494
-0.79209144
-1.3596714
-1.2888344
-1.2125055
-1.1319468
-1.0484513
-0.96328209
-0.87771566
-0.79309613
-0.71044361
-0.63061249
-0.55453269
-0.48293198
-0.41636481
-0.35520864
-0.29966111
-0.24975648
-0.2053872
-0.16633134
-0.13227809
-0.10286027
-0.077672134
-0.056299237
-0.038323974
-0.023350142
-0.010997127
-0.00092263168
0.0071938978
0.0087034594
0.00081553327
-0.0090062442
-0.021082286
-0.03575811
-0.053418694
-0.074466956
-0.099331351
-0.12843877
-0.16221229
-0.20103748
-0.2452474
-0.29508575
-0.35068036
-0.41201331
-0.47889727
-0.55095513
-0.6276246
-0.70815698
-0.79161797
-0.87712141
-0.96362699
-1.0497832
-1.1342869
-1.2158617
-1.2932046
-1.3650441
-1.3768611
-1.3028578
-1.2233242
-1.1395624
-1.0528874
-0.96459554
-0.87604211
-0.78860048
-0.7033494
-0.62125249
-0.54328816
-0.47022449
-0.40263746
-0.34090808
-0.28520182
-0.23550028
-0.19162991
-0.15330091
-0.12013186
-0.09169613
-0.06753268
-0.047187277
-0.030208725
-0.016178861
-0.0047032094
0.0045705869
0.011962188
0.017187344
0.010605572
0.0022315832
-0.0082559156
-0.02121739
-0.037062184
-0.056232799
-0.079214878
-0.10650837
-0.13863664
-0.17609903
-0.2193595
-0.26879047
-0.32464552
-0.38701015
-0.45575861
-0.53050611
-0.61062944
-0.69529174
-0.78348303
-0.87415358
-0.96609797
-1.057912
-1.1481689
-1.2355523
-1.3186841
-1.3962324
-1.4238518
-1.3412282
-1.2529469
-1.1603819
-1.0649586
-0.96805877
-0.87120365
-0.77588047
-0.68342522
-0.59497234
-0.51168315
-0.43449505
-0.36409209
-0.30086531
-0.24487942
-0.19594078
-0.15366307
-0.11754572
-0.086999207
-0.061415045
-0.04018087
-0.022731816
-0.0085349538
0.0028849932
0.011954835
0.01904463
0.024475013
0.033728947
0.02978634
0.024367554
0.017157954
0.0077786496
-0.0042133877
-0.019332675
-0.038168418
-0.061372025
-0.08967239
-0.12383367
-0.1646177
-0.21271169
-0.26870104
-0.33296199
-0.4055275
-0.48597934
-0.57353007
-0.66708799
-0.76531852
-0.86685812
-0.9702394
-1.0738694
-1.1760913
-1.2754591
-1.3704903
-1.4597661
-1.5035831
-1.4061292
-1.3028016
-1.1950528
-1.0844136
-0.9724
-0.86082546
-0.75141017
-0.64579571
-0.54569349
-0.4526706
-0.36806738
-0.29283883
-0.22747077
-0.17177121
-0.12506713
-0.086472667
-0.055047028
-0.029791962
-0.0097416273
0.0059775203
0.018117261
0.027328419
0.034163607
0.039079541
0.042455476
0.044594467
0.056801555
0.056735947
0.055734278
0.0535142
0.049709177
0.043858608
0.035380925
0.023565575
0.0075582217
-0.013684674
-0.041386424
-0.076853251
-0.12136211
-0.17624251
-0.2426659
-0.321092
-0.41086142
-0.51075951
-0.61908242
-0.73382587
-0.85288393
-0.97439444
-1.0964376
-1.2170779
-1.3347152
-1.4477894
-1.5548487
-1.613401
-1.495373
-1.3711475
-1.2421632
-1.1099654
-0.97620556
-0.84289395
-0.71218368
-0.58630158
-0.46779269
-0.35925725
-0.26303551
-0.18077019
-0.11351949
-0.06034161
-0.01920163
0.011880941
0.034592372
0.050634
0.06154839
0.068563298
0.072627085
0.074497993
0.074769712
0.073887813
0.072188364
0.06991947
0.083904416
0.088704245
0.093368339
0.097702097
0.10142693
0.10413854
0.1052629
0.10403171
0.099439936
0.090078102
0.074006786
0.049025124
0.012986256
-0.037055541
-0.10468258
-0.19175282
-0.29623264
-0.41576104
-0.54700834
-0.68654723
-0.83121503
-0.97833742
-1.1255204
-1.2707729
-1.4124329
-1.5490223
-1.679179
-1.7526066
-1.6091059
-1.4589858
-1.3033686
-1.1435715
-0.98118362
-0.81807201
-0.65677562
-0.50040656
-0.35302052
-0.21921017
-0.10383387
-0.010441742
0.056633222
0.10120347
0.129633
0.14620009
0.15345684
0.15423165
0.15095603
0.14519251
0.13794306
0.12993946
0.12168864
0.11351092
0.10559411
0.098050805
0.11278271
0.12315515
0.13446544
0.14670775
0.15981982
0.17362865
0.18776085
0.20159666
0.21426742
0.2242167
0.22851592
0.22346325
0.20640879
0.17150169
0.10670675
0.0041434656
-0.12661659
-0.27977154
-0.44808571
-0.62544671
-0.80627734
-0.98761798
-1.1668383
-1.3423447
-1.5127881
-1.6771498
-1.8347161
-2.2472306
-2.0900041
-1.9248895
-1.7522144
-1.5728055
-1.3865579
-1.1942271
-0.99666706
-0.79440488
-0.59105803
-0.38760889
-0.19290242
-0.013896197
0.13912489
0.255757
0.31456742
0.33355637
0.33336786
0.32290728
0.3030696
0.27923633
0.2549736
0.23153481
0.20947005
0.18916715
0.17076891
0.1542237
0.13939935
0.12615305
0.13997008
0.15601368
0.17426899
0.19503293
0.21863671
0.24540723
0.27552628
0.30893672
0.34563572
0.3851016
0.42358746
0.45506018
0.47853359
0.48990833
0.44734971
0.3078316
0.1203966
-0.097376922
-0.32934787
-0.56642045
-0.79567561
-1.0195575
-1.235829
-1.4451159
-1.6467906
-1.840367
-2.0281807
-2.209427
-2.3835058
-2.8776512
-2.6843116
-2.5198558
-2.334299
-2.1330339
-1.9287471
-1.7194436
-1.5015203
-1.2746289
-1.0365289
-0.78811657
-0.52277676
-0.26284215
0.0081483732
0.27985199
0.52372837
0.71092664
0.70983612
0.65379307
0.59469502
0.53280327
0.46863518
0.40965445
0.35846029
0.31397392
0.27544109
0.24232836
0.21389025
0.18938302
0.16820283
0.14984786
0.15942356
0.17986545
0.20366465
0.23151122
0.26420666
0.30283895
0.34864094
0.4026927
0.46607849
0.5422857
0.63240747
0.72324006
0.81545482
0.95900919
1.0671882
0.82774857
0.48507431
0.13744537
-0.18922537
-0.32254801
-0.28092799
-0.080044566
0.095393582
0.31643738
0.49218156
0.75815769
0.95912132
1.281239
1.640119
1.8146222
3.0105415
2.0041868
1.4319778
1.1433982
1.1049625
1.0218973
1.0224479
0.8754259
0.73618566
0.5975823
0.46004466
0.33019321
0.22109279
0.12234484
0.054062616
-0.0096918956
-0.012840225
-0.13003214
-0.22114304
-0.29539615
-0.34751597
-0.35165839
-0.33016832
-0.28453905
-0.47018356
-0.61785409
-0.7557175
-0.75064761
-0.77404168
-0.81873182
-0.87658961
-0.90012225
-0.88650288
-0.95444649
-1.0222625
-1.096645
-1.1696956
-1.2324949
-1.2923802
-1.3562845
-1.429221
-1.4722554
-1.499166
-1.4884713
-1.5527302
-1.6171653
-1.6803634
-1.7293358
-1.7059617
-1.6895123
-1.6297266
-1.7450466
-1.8448516
-1.9626686
-1.9636004
-1.9964958
-2.0256234
-2.0511609
-2.0664409
-2.0575144
-2.1026229
-2.1591078
-2.2268005
-2.2722234
-2.3211301
-2.3689284
-2.4333638
-2.4890284
-2.5358463
-2.5795744
-2.6090205
-2.6502114
-2.6399143
-2.7015576
-2.7536987
-2.7933673
-2.8546576
-2.8174389
-2.777841
-2.7432444
-2.8266751
-2.926406
-3.0088103
-0.7811162
-0.73974347
-0.69728378
-0.65429275
-0.61136662
-0.56900982
-0.52756032
-0.48737562
-0.44877119
-0.41198481
-0.37719526
-0.34452141
-0.31402624
-0.28572598
-0.25959874
-0.23558754
-0.21361334
-0.048519133
-0.043636763
-0.038977298
-0.034538817
-0.030302654
-0.026283561
-0.022473685
-0.018871487
-0.015472433
-0.012288717
-0.0093291094
-0.0065813281
-0.0040656467
-0.0017725415
0.00028936028
0.0021064743
0.0036635074
0.0049324872
0.0059260598
0.0065979655
0.0070342696
-0.0010888532
-0.0015468344
-0.0022517913
-0.0032953125
-0.0046310206
-0.0062653672
-0.0081712143
-0.010325522
-0.01272187
-0.015350195
-0.018218459
-0.021303435
-0.024616414
-0.028149275
-0.031890364
-0.035842608
-0.040009084
-0.044395467
-0.048996617
-0.053823293
-0.058888016
-0.06417237
-0.069701105
-0.075468711
-0.081467574
-0.087699832
-0.094147945
-0.10077335
-0.16433849
-0.15769171
-0.15075423
-0.14360035
-0.13634259
-0.12905535
-0.12183477
-0.11472881
-0.10779539
-0.10107095
-0.094580392
-0.088352794
-0.082370823
-0.076646506
-0.071176202
-0.065948355
-0.060958349
-0.05620864
-0.051672755
-0.047358149
-0.043266221
-0.039391941
-0.035721981
-0.032279819
-0.029069236
-0.02608779
-0.023342145
-0.020839813
-0.018585407
-0.016593766
-0.014881912
-0.01348243
-0.012387414
-0.011649069
-0.011169864
-0.023529836
-0.024031476
-0.024806224
-0.025953505
-0.027424186
-0.029216549
-0.031301637
-0.033654985
-0.036265911
-0.039128281
-0.042232986
-0.045570532
-0.049139382
-0.052941225
-0.056950169
-0.061178266
-0.065634881
-0.070303423
-0.07519837
-0.080334736
-0.085720223
-0.091347245
-0.09725275
-0.10342449
-0.10986241
-0.1165825
-0.12356562
-0.13077719
-0.13819277
-0.14574398
-0.1533811
-0.16099975
-0.16851877
-0.17581959
-0.18281736
-0.18938434
-0.19540747
-0.20075903
-0.20527848
-0.20883302
-0.21137427
-0.21291649
-0.23486095
-0.23325037
-0.23059614
-0.22688611
-0.22216528
-0.21657227
-0.21027015
-0.20340615
-0.19609431
-0.18846587
-0.18062018
-0.17267364
-0.1647285
-0.15687927
-0.14919618
-0.14173277
-0.13453003
-0.12760545
-0.12098298
-0.11464637
-0.10858632
-0.10281075
-0.097295976
-0.092024576
-0.086998794
-0.082199127
-0.077612704
-0.073253165
-0.069115498
-0.065182387
-0.061482304
-0.058019959
-0.054797551
-0.051818262
-0.049093241
-0.046639533
-0.044461401
-0.042588078
-0.041047117
-0.039845784
-0.039034074
-0.038510631
-0.056493958
-0.05704041
-0.057891694
-0.059148713
-0.060764952
-0.062723729
-0.06499813
-0.067554353
-0.070396465
-0.073490761
-0.076835262
-0.080422293
-0.084253904
-0.088311053
-0.092573001
-0.097056246
-0.10176279
-0.10667879
-0.11182398
-0.11720638
-0.12283711
-0.12872791
-0.13491483
-0.14138229
-0.14815288
-0.15523426
-0.16261982
-0.17028338
-0.1781924
-0.186286
-0.19449199
-0.2027102
-0.21082936
-0.21873074
-0.22630361
-0.23341345
-0.23994045
-0.24572215
-0.25060533
-0.25444127
-0.25718627
-0.25884964
-0.28496392
-0.28326487
-0.28046364
-0.2765456
-0.27155157
-0.26563953
-0.25895707
-0.25167411
-0.24391602
-0.23581589
-0.22749832
-0.21907832
-0.21068511
-0.20241114
-0.1943443
-0.18653357
-0.17902459
-0.17182969
-0.16495943
-0.1583977
-0.15212628
-0.14614235
-0.14042663
-0.13495042
-0.12970578
-0.12468309
-0.11987197
-0.11527315
-0.11089263
-0.10671151
-0.10275694
-0.09904677
-0.095582955
-0.092369576
-0.089416559
-0.086754827
-0.084384904
-0.082339798
-0.080650009
-0.0793358
-0.07844441
-0.077875506
-0.10307395
-0.10366606
-0.1045998
-0.10597183
-0.10773697
-0.1098718
-0.11233919
-0.1151098
-0.11817301
-0.12150314
-0.12508767
-0.12891854
-0.13298994
-0.13728468
-0.14177549
-0.14647749
-0.15138287
-0.15649028
-0.1618126
-0.1673551
-0.17312821
-0.17916152
-0.18547987
-0.19208194
-0.19899499
-0.20623899
-0.2138072
-0.22168575
-0.22983447
-0.23820068
-0.24669347
-0.25521937
-0.26363839
-0.27183981
-0.27968776
-0.28705268
-0.29379716
-0.29976086
-0.30479458
-0.30873669
-0.31155307
-0.31326282
-0.34377018
-0.34207986
-0.33929678
-0.33539846
-0.33041445
-0.32449604
-0.31779667
-0.31046869
-0.30265113
-0.29447135
-0.28606739
-0.27755739
-0.26907505
-0.26072701
-0.25259395
-0.24474142
-0.23719521
-0.229979
-0.22308559
-0.21650096
-0.21019253
-0.20415162
-0.19835571
-0.19278055
-0.18740672
-0.18223228
-0.17725277
-0.17246277
-0.16787174
-0.16346936
-0.1592913
-0.15534427
-0.15164344
-0.14819715
-0.14502761
-0.14215049
-0.13958695
-0.13736294
-0.13552316
-0.13409375
-0.13311755
-0.13250309
-0.16656971
-0.16720659
-0.16822633
-0.16971319
-0.17162864
-0.17394193
-0.17660069
-0.1795811
-0.1828582
-0.18641389
-0.19022551
-0.19428156
-0.19856003
-0.20305391
-0.20773033
-0.21258979
-0.21762603
-0.22283917
-0.22823086
-0.23380341
-0.23958102
-0.24557209
-0.25181154
-0.25830904
-0.26510262
-0.27219954
-0.27962504
-0.2873387
-0.29533766
-0.30353659
-0.31187231
-0.32022147
-0.32846578
-0.33647297
-0.34411323
-0.35126473
-0.35778631
-0.36353992
-0.36836967
-0.37214779
-0.37483718
-0.37647209
-0.41131035
-0.40977151
-0.40724039
-0.40367495
-0.39911273
-0.39366101
-0.38746717
-0.3806581
-0.3733634
-0.36570098
-0.35779178
-0.34976954
-0.34174613
-0.3338466
-0.3261283
-0.31868032
-0.31149827
-0.30462158
-0.29802534
-0.29169137
-0.28559492
-0.27971058
-0.27400596
-0.26847896
-0.26310693
-0.25788499
-0.25281921
-0.24791104
-0.24316616
-0.23859426
-0.23422751
-0.23007362
-0.22615998
-0.22250006
-0.21912246
-0.21604361
-0.21329333
-0.21089509
-0.20890393
-0.20736096
-0.20629812
-0.20564003
-0.25002615
-0.25070454
-0.2518098
-0.25340668
-0.25546988
-0.2579481
-0.26078652
-0.26395858
-0.26743107
-0.27118413
-0.27518708
-0.27942524
-0.28386675
-0.28849593
-0.29328706
-0.29821862
-0.30328511
-0.30847794
-0.31378792
-0.31921964
-0.32478734
-0.33049759
-0.33637636
-0.34245303
-0.34874071
-0.35527844
-0.3620789
-0.36911238
-0.37638136
-0.38380503
-0.39132499
-0.3988262
-0.40619959
-0.41332089
-0.42007672
-0.42635975
-0.43205159
-0.43704701
-0.44121236
-0.44446268
-0.44676393
-0.44816511
-0.48686015
-0.48564606
-0.48365053
-0.4808272
-0.47719474
-0.47282284
-0.46781692
-0.46226407
-0.45625896
-0.44989826
-0.44328043
-0.43651809
-0.42971319
-0.42296452
-0.41633177
-0.40988215
-0.40361797
-0.39755538
-0.39169039
-0.3859788
-0.38041135
-0.37495408
-0.3695887
-0.36431073
-0.35911126
-0.35399056
-0.34896009
-0.3440358
-0.33922489
-0.33455948
-0.33006547
-0.32576042
-0.32168307
-0.31784884
-0.31429359
-0.31103786
-0.30811764
-0.30556672
-0.30343845
-0.3017921
-0.30064677
-0.29994956
-0.35551723
-0.35623089
-0.35741364
-0.35910262
-0.36128934
-0.36390593
-0.36689864
-0.37022574
-0.37384958
-0.3777486
-0.38188076
-0.38623029
-0.39074992
-0.39542134
-0.40022117
-0.40510232
-0.41005513
-0.41505362
-0.42008713
-0.42514477
-0.43023355
-0.43534718
-0.44050856
-0.44574133
-0.45105629
-0.45648766
-0.46204894
-0.46772478
-0.4735186
-0.47937178
-0.48523108
-0.49101813
-0.49664032
-0.50200602
-0.50702903
-0.51164052
-0.51576711
-0.51934235
-0.52229424
-0.52457624
-0.52618211
-0.52715764
-0.56874542
-0.56806172
-0.56693279
-0.56531068
-0.56319154
-0.56059064
-0.5575478
-0.55409972
-0.55029303
-0.54616771
-0.5417918
-0.53722724
-0.53255526
-0.52782851
-0.52309087
-0.51838657
-0.51371057
-0.50906903
-0.50444891
-0.49981841
-0.49517237
-0.490495
-0.4857643
-0.48099699
-0.47619165
-0.47137101
-0.46654576
-0.46175062
-0.45700228
-0.45235578
-0.44784031
-0.44347301
-0.43930907
-0.43536692
-0.43169265
-0.42831137
-0.42526255
-0.42259237
-0.42036071
-0.41863397
-0.41742096
-0.41669485
-0.48328645
-0.48401967
-0.48525631
-0.48701074
-0.48927353
-0.4919804
-0.49506532
-0.49847945
-0.50217964
-0.5061392
-0.51030469
-0.51465773
-0.51913459
-0.52371719
-0.52836821
-0.53302595
-0.53766883
-0.54225134
-0.54676042
-0.55116033
-0.55544634
-0.55958993
-0.56360602
-0.56750064
-0.5712761
-0.57496198
-0.57856751
-0.58209236
-0.58554994
-0.58890994
-0.59214651
-0.59523179
-0.5981046
-0.60073925
-0.60309016
-0.60514943
-0.60689585
-0.60833894
-0.60947274
-0.61032696
-0.61090726
-0.61125953
-0.65436375
-0.6543887
-0.65442698
-0.65444065
-0.6544062
-0.65426624
-0.65398172
-0.65351215
-0.65284565
-0.65195338
-0.65083944
-0.64949246
-0.64793968
-0.64618382
-0.6442314
-0.64209235
-0.63974758
-0.63718732
-0.63440504
-0.63138147
-0.62811673
-0.62460979
-0.62086439
-0.61691269
-0.61277635
-0.60849567
-0.60409756
-0.59963218
-0.59513404
-0.59065918
-0.58626008
-0.58196198
-0.57782828
-0.57388614
-0.57018792
-0.56676726
-0.56367121
-0.56094851
-0.55866919
-0.55690205
-0.555647
-0.55491327
-0.63101625
-0.63174519
-0.63301429
-0.63477441
-0.63705374
-0.639769
-0.64284686
-0.64624344
-0.6499064
-0.6537902
-0.65784875
-0.66204243
-0.6663131
-0.67062027
-0.67490755
-0.67911772
-0.6832013
-0.68710634
-0.69078712
-0.69420303
-0.69730701
-0.70007101
-0.70246814
-0.7044849
-0.70612389
-0.70738429
-0.70828138
-0.7088297
-0.70905653
-0.70897508
-0.70860642
-0.70799538
-0.70714886
-0.70610281
-0.70489813
-0.70359359
-0.70224375
-0.70092514
-0.69972806
-0.69874184
-0.69800506
-0.69755423
-0.74023194
-0.74114587
-0.74264064
-0.74469345
-0.74725208
-0.75018892
-0.75335969
-0.75663545
-0.75991314
-0.76310826
-0.76612973
-0.7689085
-0.77138625
-0.77348683
-0.77515701
-0.77636003
-0.77705497
-0.77722789
-0.77685859
-0.77596045
-0.77454481
-0.77263307
-0.77027166
-0.76748491
-0.76434823
-0.76090558
-0.75721779
-0.75333989
-0.7493364
-0.74526586
-0.74119124
-0.73716099
-0.7332351
-0.72945761
-0.72587642
-0.72254227
-0.71951559
-0.71683671
-0.71458488
-0.71284737
-0.71158077
-0.71086421
-0.79353017
-0.79422848
-0.79547304
-0.7971682
-0.79935649
-0.80196011
-0.80489622
-0.80811801
-0.8115584
-0.81517741
-0.81892085
-0.82273783
-0.82656241
-0.83034195
-0.83400494
-0.83748577
-0.8407158
-0.84362612
-0.84615328
-0.84822431
-0.84976187
-0.8507305
-0.85106162
-0.8507283
-0.84969847
-0.84795462
-0.84551327
-0.84239197
-0.83864801
-0.83434397
-0.82956007
-0.82440456
-0.81899204
-0.81344317
-0.80790169
-0.80249745
-0.79737824
-0.79272507
-0.78872149
-0.78553749
-0.78323892
-0.78183287
-0.85028098
-0.85791757
-0.86583924
-0.87386616
-0.88181061
-0.88949718
-0.89676002
-0.90344045
-0.90942369
-0.91461795
-0.91895307
-0.92240473
-0.92496364
-0.92665024
-0.92751163
-0.9275911
-0.92697452
-0.92572867
-0.92391835
-0.92163673
-0.91895791
-0.9159667
-0.91273276
-0.90933
-0.90583438
-0.90230567
-0.89881088
-0.89540821
-0.89215283
-0.88908657
-0.88627578
-0.88377962
-0.88167601
-0.88004362
-0.87883322
-0.87815992
-0.96372984
-0.9643636
-0.96551782
-0.96705512
-0.96903731
-0.97137431
-0.97400189
-0.97684847
-0.97985158
-0.98295445
-0.98610746
-0.98924442
-0.9923033
-0.99521374
-0.99789945
-1.0002818
-1.0022874
-1.0038169
-1.0047828
-1.0819248
-1.0819092
-1.081247
-1.0800279
-1.0783631
-1.076335
-1.0740237
-1.0715074
-1.0688596
-1.066145
-1.0634338
-1.0607769
-1.0582351
-1.055866
-1.0537519
-1.0519466
-1.0505453
-1.0494755
-1.0488968
-1.1323835
-1.1328911
-1.1338515
-1.1350795
-1.1366536
-1.1384841
-1.1405221
-1.1426775
-1.1448968
-1.1471173
-1.1492839
-1.1513267
-1.1531802
-1.1547676
-1.1560117
-1.1568292
-1.1571276
-1.1567958
-1.1557473
-1.2284978
-1.2292592
-1.2294306
-1.2291094
-1.2283823
-1.2273239
-1.2260137
-1.224516
-1.2228999
-1.2212228
-1.2195489
-1.2179295
-1.216455
-1.2151708
-1.2141613
-1.2133414
-1.2129235
-1.2892189
-1.2895242
-1.2901697
-1.2909134
-1.2918496
-1.292889
-1.293994
-1.2950823
-1.2961017
-1.2969895
-1.2976868
-1.2981268
-1.2982451
-1.2979645
-1.2972106
-1.2958982
-1.2939275
-1.3520149
-1.3553501
-1.357966
-1.3599578
-1.3614056
-1.3623847
-1.3629638
-1.3632092
-1.3631827
-1.3629436
-1.3625541
-1.3620652
-1.3615457
-1.3610293
-1.3606103
-1.3601663
-1.3600114
-1.3657331
-1.2938805
-1.2165176
-1.1349095
-1.0503631
-0.96415848
-0.87760068
-0.79204024
-0.70852048
-0.6279271
-0.55120657
-0.47909867
-0.41217303
-0.35080636
-0.29518521
-0.2453261
-0.20110128
-0.16226731
-0.12848952
-0.099381948
-0.074519097
-0.05347464
-0.03581872
-0.021148399
-0.009077461
0.00073995302
0.0086232517
0.17103351
0.1935346
0.21986797
0.25083565
0.28814785
0.33337358
0.38821577
0.4561118
0.54001814
0.64336342
0.78682339
1.0017368
1.2295318
1.4035088
2.2805743
4.2858385
1.5556581
1.4097384
1.1545932
0.97868172
0.79441876
0.63354018
0.4846262
0.34734963
0.22571344
0.10739039
-0.018019625
-0.085484447
-0.084099108
-0.084814922
-0.086021331
-0.09050657
-0.093055455
-0.09400118
-0.091514631
-0.090751939
-0.090044064
-0.09323346
-0.096082272
-0.10095733
-0.10439526
-0.10968729
-0.11396418
-0.12024284
-0.1222309
-0.12242241
-0.12147159
-0.12458291
-0.1338766
-0.1531517
-0.15344444
-0.14057674
-0.14181385
-0.15968971
-0.16796739
-0.16373138
-0.16141774
-0.16704601
-0.17123216
-0.17574902
-0.18003553
-0.18676589
-0.19625625
-0.19735364
-0.26870729
-0.28500938
-0.29729163
-0.30037039
-0.3084916
-0.31656204
-0.3228683
-0.32813797
-0.33518601
-0.34114616
-0.34693633
-0.35068405
-0.35546966
-0.36168538
-0.37084504
-0.38069079
-0.38881816
-0.39134629
-0.39747721
-0.41644288
-0.43086598
-0.42081067
-0.4125396
-0.41646525
-0.42263583
-0.42891911
-0.43564485
-0.44153938
-0.44791764
-0.45293713
-0.45884104
-0.46278183
-0.46685699
-0.46984492
-0.47373111
-0.47788282
-0.48488597
-0.49226335
-0.50237753
-0.51276907
-0.51831847
-0.5184113
-0.51934465
-0.52232908
-0.5299076
-0.53891784
-0.54926129
-0.55736067
-0.55689501
-0.55231099
-0.55965377
-0.56714314
-0.57694464
-0.5905389
-0.6020327
-0.60595573
-0.61336006
-0.61593555
-0.61741106
-0.61957578
-0.63204247
-0.63127959
-0.63345204
-0.64192551
-0.6630183
-0.67753003
-0.69188237
-0.69762046
-0.71019634
-0.72238037
-0.73531597
-0.75840464
-0.7697609
-0.79245071
-0.74362987
-0.69019979
-0.71005718
-0.68876413
-0.6788284
-0.66372276
-0.65739426
-0.64495606
-0.63087256
-0.62340831
-0.61072196
-0.60331724
-0.58505232
-0.5792291
-0.57834245
-0.57110319
-0.54765174
-0.53166974
-0.52328017
-0.52629508
-0.52656133
-0.5233976
-0.50630054
-0.49061064
-0.48600213
-0.49828095
-0.50675369
-0.4936575
-0.47431686
-0.46856743
-0.466396
-0.46478943
-0.46107585
-0.45468656
-0.44434578
-0.43519386
-0.42791142
-0.42370352
-0.41979516
-0.41586827
-0.41119259
-0.40864357
-0.40291917
-0.39560726
-0.38870361
-0.38368019
-0.3791633
-0.37706025
-0.37449544
-0.37310478
-0.37272915
-0.37404549
-0.37387702
-0.37268117
-0.35794637
-0.33931764
-0.3410589
-0.35207015
-0.33905719
-0.31574674
-0.30408447
-0.29958494
-0.29619497
-0.29108579
-0.28352915
-0.27777616
-0.2723658
-0.26806003
-0.2620442
-0.25789591
-0.25580811
-0.2437797
-0.22830932
-0.22538494
-0.22388764
-0.13305942
-0.14290118
-0.13319104
-0.12618514
-0.12204089
-0.11574588
-0.10659722
-0.099632835
-0.093604717
-0.097058692
-0.1037654
-0.10214646
-0.089480487
-0.088379019
-0.085634163
-0.075333344
-0.070058941
-0.06559624
-0.056893482
-0.049131167
-0.042293172
-0.038819785
-0.035769617
-0.035204201
-0.034128301
-0.034732859
-0.034189995
-0.035391979
-0.033113253
-0.028084295
-0.019715479
-0.01412034
-0.010450997
-0.010953622
-0.012233373
-0.01453717
-0.015154099
0.10626909
0.22778263
0.34703412
0.48705949
0.63456117
0.79850919
0.97954827
1.162149
1.4246075
1.1604184
0.97791627
0.79939879
0.63436321
0.48757627
0.3464635
0.22832338
0.10538745
0.10532695
0.22815336
0.34621012
0.48689454
0.63287665
0.79939975
0.97799382
1.1686715
1.4231639
1.1659618
0.97804359
0.7994595
0.62821126
0.48327159
0.34449197
0.22559551
0.10492193
0.1052456
0.22362745
0.34231617
0.4777268
0.61798564
0.78369363
0.92739609
0.88912637
0.87881393
0.87426594
0.87569388
0.86954546
0.86444943
0.85756034
0.85672328
0.86623148
0.87462706
0.87159912
0.86990544
0.86521668
0.86246203
0.85339332
0.8369237
0.81230809
0.78072919
0.77576293
0.79247308
0.80409009
0.81683053
0.82142461
0.82907444
0.82974238
0.82819201
0.81954509
0.80570526
0.78646557
0.7641057
0.74205783
0.72215253
0.72190293
0.75117609
0.76618325
0.7739211
0.77543364
0.77434054
0.76967798
0.76392971
0.75571735
0.74912952
0.74075255
0.7331714
0.72198531
0.70926044
0.6915108
0.66876108
0.63077113
0.5781678
0.5498002
0.53605983
0.544201
0.59520463
0.63066007
0.65012134
0.65772418
0.65891909
0.6587497
0.66027895
0.65864316
0.6559081
0.64969621
0.64350989
0.63604056
0.63013321
0.62502086
0.62345238
0.62050544
0.61961708
0.61449923
0.60862432
0.60174234
0.59647263
0.59013592
0.58559401
0.5796189
0.57262069
0.55726701
0.54623956
0.55597876
0.57006426
0.55686552
0.54270544
0.54076341
0.54460503
0.5405003
0.52614622
0.50594964
0.49533188
0.4829403
0.4775556
0.47157079
0.46454308
0.43965006
0.41737978
0.39951145
0.39295942
0.374482
0.35012211
0.32433251
0.29895691
0.27484318
0.23306546
0.31567592
0.38823311
0.33584663
0.40504543
0.44737278
0.47021717
0.49113576
0.50436882
0.52883417
0.54498411
0.55959987
0.56215424
0.58035749
0.59802282
0.61732843
0.62143477
0.62048642
0.61528513
0.61913756
0.63428715
0.65457706
0.66510638
0.67321415
0.66485961
0.66017425
0.67238095
0.69125938
0.69308762
0.69350799
0.69491021
0.7001508
0.7029695
0.70766081
0.70997988
0.71322216
0.71509758
0.71955095
0.72515684
0.7382052
0.74688705
0.75207786
0.7513994
0.75303444
0.75953574
0.76827605
0.7716698
0.77746433
0.78294417
0.78386037
0.78041013
0.77434213
0.75112591
0.70397631
0.62605039
0.62322305
0.6407921
0.66563749
0.73969463
0.78536723
0.81653526
0.83789767
0.84434884
0.85434474
0.86036922
0.86761287
0.87193251
0.87960915
0.8812619
0.88538278
0.89198857
0.89726341
0.89219715
0.8673192
0.81259052
0.81293232
0.85250571
0.886386
0.9204565
0.94677925
0.96348583
0.97559928
0.98175351
0.98102498
0.95938814
0.92622103
0.90335817
0.89606435
0.8548017
0.84550529
0.90201844
0.95063299
0.97156126
0.97680286
0.97175331
0.96757874
0.960035
0.9563436
0.96022552
0.97158876
0.97989965
0.98873981
0.98965318
0.98977314
0.98891408
0.99406866
0.9883734
0.98713234
0.9902019
1.162386
1.2936803
1.1231536
1.1360113
1.2901054
1.4614497
1.7219963
1.6764966
1.65439
4.3844925
2.3232889
4.3156163
4.3577949
2.3086118
4.3376413
1.7771907
1.5117009
1.2962892
1.1304615
1.1414438
1.3012405
1.1716629
1.1672089
1.1645327
1.1858124
1.1816219
1.1809518
1.1730745
1.1747395
1.165023
1.1686514
1.1627145
0.98254112
0.78936219
0.63225484
0.4805443
0.34872802
0.22264992
0.10999264
-0.021017686
-0.086225421
-0.16500821
-0.26285949
-0.36378481
-0.40877731
-0.40292286
-0.40302705
-0.40259616
-0.40313553
-0.40640637
-0.40852369
-0.41134498
-0.41367575
-0.4207304
-0.4233332
-0.42367415
-0.42272648
-0.42429697
-0.4248789
-0.42688628
-0.42910888
-0.43439479
-0.4371825
-0.44061264
-0.44499292
-0.45159207
-0.45619651
-0.46410576
-0.46883724
-0.46890033
-0.46848785
-0.48356443
-0.48704027
-0.48674902
-0.48673779
-0.49120628
-0.49535951
-0.50503076
-0.50856831
-0.51458571
-0.51793623
-0.52554912
-0.53024204
-0.53490833
-0.53883451
-0.54632448
-0.55031949
-0.55454143
-0.55695578
-0.56376277
-0.56848803
-0.57404744
-0.57865397
-0.58534506
-0.59104862
-0.59926004
-0.60526073
-0.61771369
-0.62434646
-0.63143451
-0.63173984
-0.63697647
-0.64743206
-0.65954728
-0.65815628
-0.6603025
-0.66545774
-0.6719372
-0.67717213
-0.68634327
-0.69040548
-0.69611561
-0.69945234
-0.71022201
-0.72034772
-0.7390896
-0.7510365
-0.76339847
-0.76993602
-0.77859087
-0.78228249
-0.79187023
-0.79685082
-0.80604889
-0.81243134
-0.82165346
-0.82711404
-0.83270411
-0.83868729
-0.85157561
-0.8610801
-0.85770927
-0.85369829
-0.86475014
-0.87232155
-0.88634109
-0.88933567
-0.89611324
-0.89627154
-0.91021368
-0.91645981
-0.93085862
-0.92708952
-0.93711689
-0.94424798
-0.96384339
-0.96782647
-0.98125879
-0.99573351
-1.0056894
-1.0231102
-1.0017671
-1.0839006
-1.0487968
-0.96901526
-0.96842506
-0.95402693
-0.93539025
-0.91325477
-0.90060179
-0.88738946
-0.89097792
-0.88789841
-0.88540409
-0.87216698
-0.86677098
-0.85549014
-0.85359051
-0.84695449
-0.84334327
-0.83156461
-0.82478126
-0.82261202
-0.82259845
-0.81851222
-0.8097121
-0.7980538
-0.7920367
-0.78563845
-0.77857282
-0.77221457
-0.76786707
-0.76369173
-0.75807436
-0.75384814
-0.74718999
-0.7387332
-0.72846192
-0.71678691
-0.70614637
-0.69967537
-0.69194678
-0.6865399
-0.68127571
-0.67214321
-0.66005879
-0.64791937
-0.63961561
-0.63352784
-0.63303615
-0.63426628
-0.63371075
-0.62214198
-0.61044168
-0.60278035
-0.59326888
-0.58624948
-0.58251804
-0.57862001
-0.57916241
-0.57481427
-0.57079279
-0.56749163
-0.56321752
-0.5536661
-0.54520731
-0.53672384
-0.53164678
-0.52468136
-0.51845345
-0.51108029
-0.5077124
-0.50305739
-0.495907
-0.48457061
-0.47410976
-0.47201209
-0.47121604
-0.46643163
-0.46206996
-0.45615671
-0.45384869
-0.45127779
-0.44891744
-0.44006066
-0.44076143
-0.45150947
-0.44389611
-0.42053503
-0.41413277
-0.41442196
-0.41206429
-0.40429745
-0.40018535
-0.39672108
-0.39519203
-0.39197676
-0.39088983
-0.38691973
-0.38261938
-0.37698298
-0.37455937
-0.37118184
-0.36957183
-0.36738398
-0.36831395
-0.36894422
-0.37003568
-0.36944259
-0.36891588
-0.3670939
-0.36596952
-0.26041722
-0.16620622
-0.16625947
-0.25788792
-0.25858744
-0.1658455
-0.16374757
-0.25976869
-0.26323322
-0.16376973
-0.16312686
-0.26614376
-0.26944083
-0.16328272
-0.16288292
-0.27221104
-0.27494218
-0.16479144
-0.16620369
-0.27521083
-0.27715634
-0.16972348
-0.172582
-0.27846341
-0.28197393
-0.17678785
-0.17817144
-0.28447677
-0.28874174
-0.17999843
-0.18108242
-0.29233994
-0.29749109
-0.18404956
-0.18654788
-0.30116435
-0.30503019
-0.19135397
-0.19599156
-0.30639693
-0.30963983
-0.20226015
-0.20849458
-0.30726655
-0.30400365
-0.21262121
-0.21309925
-0.30715802
-0.32091002
-0.21296465
-0.21477506
-0.32719888
-0.3225778
-0.2220985
-0.2273408
-0.32373186
-0.3366149
-0.23714168
-0.2425551
-0.34587487
-0.35015017
-0.24602706
-0.24978677
-0.35263021
-0.35666864
-0.25571175
-0.26073206
-0.35994932
-0.3654841
-0.26684676
-0.27205546
-0.37129789
-0.37194346
-0.26932553
-0.22932914
-0.2250163
-0.22300816
-0.21569727
-0.21365668
-0.20580665
-0.20431477
-0.19841735
-0.1971068
-0.18938384
-0.18778429
-0.18150924
-0.18073814
-0.17472488
-0.17377565
-0.16750752
-0.16493072
-0.1572748
-0.15563175
-0.14985003
-0.1489525
-0.14327402
-0.14311833
-0.13880477
-0.13870579
-0.13341683
-0.13318469
-0.12917205
-0.12939657
-0.12528935
-0.12620647
-0.12419181
-0.12527412
-0.12309485
-0.12476771
-0.12340607
-0.1246166
-0.12323146
-0.12378578
-0.16328053
-0.26656283
-0.36321619
-0.40469946
-0.50231375
-0.6397352
-0.72581699