/*--------------------------------*- C++ -*----------------------------------*\
| =========                 |                                                 |
| \\      /  F ield         | OpenFOAM: The Open Source CFD Toolbox           |
|  \\    /   O peration     | Version:  v2012                                 |
|   \\  /    A nd           | Website:  www.openfoam.com                      |
|    \\/     M anipulation  |                                                 |
\*---------------------------------------------------------------------------*/
FoamFile
{
    version     2.0;
    format      ascii;
    class       surfaceScalarField;
    location    "100";
    object      phi;
}
// * * * * * * * * * * * * * * * * * * * * * * * * * * * * * * * * * * * * * //

dimensions      [0 3 -1 0 0 0 0];
oriented        oriented;


internalField   nonuniform List<scalar> 
97295
(
0.0014019142
-2.3871813e-05
7.7861975e-06
0.0013070773
2.1278125e-05
7.3558693e-05
0.00084116148
0.00016862534
0.00029729053
0.00028666963
0.0004115571
0.00014293475
0.00014188407
4.8278135e-05
9.6507418e-05
0.00016360538
-2.6017641e-05
4.2963323e-06
0.0002103001
-2.9321062e-05
-1.737366e-05
0.00024489939
-1.9091341e-05
-1.5507947e-05
0.00017295036
7.8041386e-05
-6.0923541e-06
0.00018583163
-1.6264686e-06
-1.12548e-05
0.00021701376
-2.8938241e-05
-2.2438876e-06
0.0002409671
-2.0910117e-05
-3.0432253e-06
0.000255313
-1.3095486e-05
-1.2504166e-06
0.00026486507
-9.1219399e-06
-4.3012943e-07
0.00027173251
-7.0078304e-06
1.4039054e-07
0.00027665479
-5.7499057e-06
8.2763085e-07
0.00027928601
-4.558365e-06
1.9271416e-06
0.000279024
-3.1074371e-06
3.3694488e-06
0.00027217073
4.1630862e-07
6.436957e-06
0.00024517567
1.6091759e-05
1.0903305e-05
0.00014283892
8.5241643e-05
1.7095103e-05
0.00012550929
5.8328567e-06
1.149677e-05
0.00012774771
-1.4255715e-06
-8.1284227e-07
0.00024577023
-3.7918998e-05
-8.0103526e-05
0.00057678506
-0.00023564719
-9.5367645e-05
0.0010167508
-0.00027451969
-0.00016544605
0.00075063407
9.4009143e-05
0.00017210759
0.00026020699
0.00036756316
0.00012286391
0.00012974256
4.0162944e-05
9.0301495e-05
0.00015377391
-2.6378757e-05
2.3473976e-06
0.00020610736
-2.9541825e-05
-2.2791624e-05
0.00024501051
-2.0071151e-05
-1.8831995e-05
0.00017105188
7.6323308e-05
-2.3646795e-06
0.00018047596
-2.2057594e-06
-7.2183182e-06
0.00020933305
-2.9007938e-05
1.5084206e-07
0.00023247807
-2.0909414e-05
-2.2356022e-06
0.00024671858
-1.3264357e-05
-9.7614755e-07
0.00025591095
-9.18971e-06
-2.6612226e-09
0.00026184887
-6.788749e-06
8.5082503e-07
0.00026414814
-4.5588724e-06
2.2595978e-06
0.0002596549
-9.4940118e-07
5.4426503e-06
0.00023531662
1.4125377e-05
1.0212903e-05
0.00013719063
8.1522763e-05
1.6603227e-05
0.00012051471
5.3544078e-06
1.132151e-05
0.00012325918
-1.9756017e-06
-7.6886822e-07
0.00023786517
-3.756992e-05
-7.7036076e-05
0.00055791737
-0.00023026485
-8.9787342e-05
0.00098746823
-0.0002748675
-0.00015468336
0.00072368657
9.3008722e-05
0.00017077294
0.00025220668
0.00035253557
0.00011894432
0.00012571451
3.910846e-05
8.7383711e-05
0.00014828001
-2.4999326e-05
2.4338237e-06
0.00019746465
-2.7387714e-05
-2.1796922e-05
0.00023362258
-1.7829437e-05
-1.8328494e-05
0.00016306836
7.3220301e-05
-2.6660842e-06
0.00017156684
-1.7291797e-06
-6.7692955e-06
0.00019734817
-2.6610363e-05
8.2903403e-07
0.00021579779
-1.7931934e-05
-5.1769319e-07
0.00022345229
-9.7471192e-06
2.0926233e-06
0.00022083442
-4.0165616e-06
6.6344326e-06
0.00020646482
-1.2252887e-07
1.4492131e-05
0.00018703252
-3.6719075e-06
2.3104204e-05
0.00019380071
-7.185997e-06
4.1780872e-07
0.00027114875
3.3397199e-05
-0.00011074524
0.0004307238
-0.00011434811
-4.5226936e-05
0.00065800619
-0.0001330545
-9.4227899e-05
0.00070795307
5.5108177e-06
-5.5457689e-05
0.0010940428
4.8678449e-05
-0.00043476819
0.0026264385
-0.0012060704
-0.0003263253
0.004812292
-0.0011207849
-0.0010650687
0.005399126
-0.0002970061
-0.00028982792
0.005550756
-7.8592053e-05
-7.3037953e-05
0.0055896519
-2.030632e-05
-1.858951e-05
0.0056043175
-6.0039188e-06
-8.6616824e-06
0.0056158237
-3.4679508e-06
-8.038266e-06
0.0056276889
-3.5033945e-06
-8.3618294e-06
0.0056400637
-3.8149214e-06
-8.5598385e-06
0.0056515653
-3.5629007e-06
-7.9387302e-06
0.005661784
-3.217194e-06
-7.0014519e-06
0.0056704876
-2.7287097e-06
-5.9749035e-06
0.0056777635
-2.2429377e-06
-5.0329856e-06
0.0056838594
-1.8832029e-06
-4.2127315e-06
0.0056889643
-1.584851e-06
-3.52004e-06
-1.3246126e-06
-2.9585888e-06
-0.0060619596
-4.9630449e-06
1.0050588e-05
-1.2355847e-06
-0.0060663177
-5.7695326e-06
1.1673933e-05
-1.5462483e-06
-0.0060712636
-6.6825451e-06
1.3510651e-05
-1.8822018e-06
-0.0060768982
-7.7111872e-06
1.5589862e-05
-2.244156e-06
-0.0060833454
-8.8598119e-06
1.7931125e-05
-2.6241166e-06
-0.006090749
-1.0124185e-05
2.0545086e-05
-3.0172767e-06
-0.0060992581
-1.1480544e-05
2.340006e-05
-3.4104135e-06
-0.0061089897
-1.2881866e-05
2.6403327e-05
-3.7898274e-06
-0.0061199867
-1.4259183e-05
2.9394773e-05
-4.1385991e-06
-0.006132204
-1.5527774e-05
3.2175233e-05
-4.430198e-06
-0.0061455036
-1.6602287e-05
3.4543509e-05
-4.641587e-06
-0.0061596681
-1.7416829e-05
3.633917e-05
-4.7578068e-06
-0.0061744302
-1.7925486e-05
3.7460886e-05
-4.7733012e-06
-0.0061895111
-1.8107272e-05
3.7862847e-05
-4.6746965e-06
-0.0062046336
-1.7958072e-05
3.7551208e-05
-4.4706999e-06
-1.7491518e-05
3.6562795e-05
-4.1658952e-06
0.0060502848
1.8512256e-05
-4.0410714e-06
0.0060344602
1.9831292e-05
-4.0067815e-06
0.0060175449
2.0867859e-05
-3.9525223e-06
0.005999812
2.1619962e-05
-3.8870623e-06
0.005981532
2.2088272e-05
-3.8082682e-06
0.0059629708
2.2274659e-05
-3.7134987e-06
0.0059443912
2.21901e-05
-3.610409e-06
0.0059260462
2.1848637e-05
-3.5036843e-06
0.0059081707
2.1265906e-05
-3.3904316e-06
0.005890976
2.0467641e-05
-3.2728731e-06
0.0058746436
1.9486755e-05
-3.1543785e-06
0.0058593204
1.8357641e-05
-3.034416e-06
0.0058451152
1.7120555e-05
-2.9153922e-06
0.0058320967
1.5819597e-05
-2.8011028e-06
0.0058202948
1.448851e-05
-2.6865872e-06
0.0058097065
1.3157721e-05
-2.569479e-06
0.0058003031
1.1864385e-05
-2.4609958e-06
0.0057920289
1.063517e-05
-2.3608759e-06
0.0057848093
9.4809028e-06
-2.2613145e-06
0.0057785608
8.4123612e-06
-2.1639362e-06
0.0057731987
7.431795e-06
-2.0696239e-06
0.0057686334
6.5461609e-06
-1.9808576e-06
0.0057647731
5.7588801e-06
-1.898567e-06
0.0057615321
5.0612176e-06
-1.8202772e-06
0.0057588345
4.441644e-06
-1.7440506e-06
0.0057566076
3.8988106e-06
-1.6719051e-06
3.4257565e-06
-1.6011301e-06
-0.0060429881
6.9865305e-06
-1.715477e-06
-0.0060452532
7.949874e-06
-1.7860221e-06
-0.0060480026
9.0539197e-06
-1.8628259e-06
-0.0060513107
1.0316145e-05
-1.9468748e-06
-0.0060552757
1.1748204e-05
-2.024277e-06
-0.0060599891
1.3365531e-05
-2.106021e-06
-0.0060655297
1.5175649e-05
-2.2032146e-06
-0.0060719976
1.7185328e-05
-2.305031e-06
-0.0060795026
1.9387492e-05
-2.4016243e-06
-0.0060881358
2.1770394e-05
-2.5019749e-06
-0.0060979767
2.4312816e-05
-2.6076042e-06
-0.0061090785
2.6983879e-05
-2.7243657e-06
-0.0061214795
2.973521e-05
-2.8456789e-06
-0.0061351963
3.2499236e-05
-2.9627974e-06
-0.0061501974
3.5205261e-05
-3.0836523e-06
-0.006166407
3.7775408e-05
-3.2081846e-06
-0.0061837102
4.0123853e-05
-3.3338607e-06
-0.006201952
4.2168589e-05
-3.4591631e-06
-0.0062209341
4.3835234e-05
-3.5871846e-06
-0.0062404321
4.5057003e-05
-3.7103618e-06
-0.006260192
4.5779263e-05
-3.8292982e-06
-0.0062799428
4.5968619e-05
-3.9431605e-06
-0.0062994059
4.5597915e-05
-4.0465108e-06
-0.0063182957
4.4647289e-05
-4.1375667e-06
-0.0063363225
4.3110475e-05
-4.2158104e-06
-0.0063531982
4.0986342e-05
-4.2793781e-06
3.827879e-05
-4.3232738e-06
0.0067502134
6.0038232e-05
-4.8561094e-06
0.0067317703
6.4239273e-05
-4.8098676e-06
0.0067120946
6.7526794e-05
-4.7405904e-06
0.0066914976
6.9892647e-05
-4.6483466e-06
0.0066702947
7.1341141e-05
-4.5403673e-06
0.0066488023
7.1881969e-05
-4.420905e-06
0.0066273223
7.1546125e-05
-4.2868869e-06
0.0066061566
7.0369067e-05
-4.1463877e-06
0.0065855897
6.8412413e-05
-4.0102255e-06
0.0065658678
6.5759309e-05
-3.8688555e-06
0.0065472047
6.2508294e-05
-3.721374e-06
0.0065297724
5.8779132e-05
-3.5714141e-06
0.0065136994
5.4703163e-05
-3.4248394e-06
0.0064990598
5.0418831e-05
-3.2800207e-06
0.0064858835
4.6053409e-05
-3.1418719e-06
0.0064741416
4.172772e-05
-3.0019276e-06
0.0064637812
3.7537806e-05
-2.8646849e-06
0.0064547353
3.355647e-05
-2.7401396e-06
0.0064469171
2.9832537e-05
-2.6268386e-06
0.006440216
2.6404907e-05
-2.5184822e-06
0.0064345019
2.3292507e-05
-2.402773e-06
0.0064296653
2.049537e-05
-2.2932517e-06
0.0064256197
1.7996069e-05
-2.202247e-06
0.0064222657
1.57868e-05
-2.1166466e-06
0.0064194929
1.3850545e-05
-2.023853e-06
0.0064172206
1.2161271e-05
-1.9390916e-06
1.068974e-05
-1.8630174e-06
-0.0067359804
1.4378632e-05
-1.9503142e-06
-0.0067381456
1.6356702e-05
-2.0302177e-06
-0.0067408155
1.8637516e-05
-2.1170862e-06
-0.006744081
2.1261764e-05
-2.2093799e-06
-0.0067480467
2.4262755e-05
-2.3010499e-06
-0.0067528231
2.7670012e-05
-2.3981701e-06
-0.0067585218
3.1500539e-05
-2.5094005e-06
-0.0067652674
3.5777724e-05
-2.6271948e-06
-0.0067731971
4.0504938e-05
-2.7427457e-06
-0.0067824419
4.5664941e-05
-2.8636278e-06
-0.0067931153
5.1206933e-05
-2.9957614e-06
-0.0068053138
5.7064911e-05
-3.1386912e-06
-0.0068191088
6.3135489e-05
-3.2870428e-06
-0.006834541
6.9288488e-05
-3.4374986e-06
-0.0068515986
7.5353557e-05
-3.5927797e-06
-0.0068702088
8.1140865e-05
-3.7515059e-06
-0.0068902346
8.644858e-05
-3.9144831e-06
-0.0069114839
9.1088569e-05
-4.0799443e-06
-0.0069337166
9.4890982e-05
-4.2458402e-06
-0.0069566609
9.7710244e-05
-4.3968868e-06
-0.0069800091
9.9438481e-05
-4.5441486e-06
-0.0070034179
9.9991606e-05
-4.7008712e-06
-0.007026548
9.9315878e-05
-4.8446196e-06
-0.0070490554
9.7374822e-05
-4.9747762e-06
-0.0070705957
9.4150659e-05
-5.0835651e-06
-0.0070908246
8.9640886e-05
-5.1726999e-06
8.3858048e-05
-5.237869e-06
0.0072757629
0.00010955088
-5.4472381e-06
0.0072537718
0.00011697938
-5.3473787e-06
0.0072304103
0.00012273763
-5.2254348e-06
0.0072060613
0.00012680985
-5.0860595e-06
0.007181107
0.00012920079
-4.9306565e-06
0.0071559243
0.00012993416
-4.7597989e-06
0.0071308864
0.00012905957
-4.5832457e-06
0.0071063756
0.0001266458
-4.4247157e-06
0.0070827215
0.00012279386
-4.248779e-06
0.0070602314
0.00011765191
-4.0732528e-06
0.0070391722
0.00011140905
-3.9012738e-06
0.0070197503
0.00010429702
-3.7341959e-06
0.0070021027
9.6575013e-05
-3.5739048e-06
0.0069862892
8.852177e-05
-3.4197891e-06
0.0069722988
8.0396819e-05
-3.2709258e-06
0.006960064
7.2427133e-05
-3.1273811e-06
0.0069494819
6.4779923e-05
-2.9908819e-06
0.0069404234
5.7586795e-05
-2.8633695e-06
0.006932742
5.0930804e-05
-2.7444956e-06
0.0069262848
4.4865475e-05
-2.6305481e-06
0.0069209033
3.94011e-05
-2.5190051e-06
0.0069164543
3.4532177e-05
-2.4132358e-06
0.0069128071
3.0225704e-05
-2.3157388e-06
0.0069098415
2.6451018e-05
-2.2236647e-06
0.0069074538
2.3160857e-05
-2.1356366e-06
0.0069055509
2.0311498e-05
-2.0518734e-06
1.7850351e-05
-1.9722548e-06
-0.0069352938
2.0976129e-05
-1.9888711e-06
-0.0069367879
2.3873495e-05
-2.0679259e-06
-0.0069387205
2.72434e-05
-2.1498819e-06
-0.0069411833
3.1151002e-05
-2.2372317e-06
-0.0069442833
3.5655414e-05
-2.3296425e-06
-0.0069481447
4.0821563e-05
-2.427997e-06
-0.0069529107
4.6698995e-05
-2.5319409e-06
-0.0069587369
5.3332623e-05
-2.6408904e-06
-0.0069657892
6.0736998e-05
-2.7539137e-06
-0.0069742407
6.890987e-05
-2.8715955e-06
-0.006984264
7.7798434e-05
-2.9952225e-06
-0.006996022
8.7311834e-05
-3.12667e-06
-0.0070096563
9.7296389e-05
-3.2652678e-06
-0.0070252768
0.00010755489
-3.4126361e-06
-0.0070429395
0.00011780817
-3.5704477e-06
-0.0070626194
0.00012771582
-3.7388673e-06
-0.0070841909
0.00013689894
-3.918392e-06
-0.0071074453
0.00014501265
-4.1064109e-06
-0.0071320973
0.00015174724
-4.3013309e-06
-0.0071578098
0.00015685883
-4.5005852e-06
-0.0071842248
0.00016016127
-4.6867077e-06
-0.0072109327
0.0001615334
-4.8913235e-06
-0.0072375238
0.00016088485
-5.0929861e-06
-0.0072635792
0.00015814762
-5.282299e-06
-0.007288667
0.00015328157
-5.4562057e-06
-0.0073123466
0.000146273
-5.6139737e-06
0.00013713586
-5.7512646e-06
0.0072641649
0.00016676437
-6.1913332e-06
0.0072387674
0.0001776787
-6.0081872e-06
0.0072119619
0.00018589244
-5.8053823e-06
0.0071842822
0.00019141337
-5.5860595e-06
0.0071562368
0.00019428307
-5.3527605e-06
0.0071283031
0.00019458032
-5.11325e-06
0.0071009245
0.0001924076
-4.8677559e-06
0.007074533
0.00018789084
-4.6404912e-06
0.0070495167
0.00018117738
-4.4138122e-06
0.0070262248
0.0001724879
-4.1834098e-06
0.0070049458
0.00016214022
-3.9622087e-06
0.0069858595
0.00015055485
-3.75279e-06
0.0069690365
0.00013819273
-3.5615573e-06
0.0069544207
0.0001255645
-3.3937921e-06
0.0069418697
0.00011309626
-3.2488861e-06
0.0069312087
0.00010109303
-3.1202017e-06
0.006922261
8.9746265e-05
-3.0001422e-06
0.006914847
7.9209498e-05
-2.8855737e-06
0.0069087835
6.9574036e-05
-2.7735053e-06
0.0069038896
6.08901e-05
-2.6635835e-06
0.0068999924
5.3152204e-05
-2.5560053e-06
0.0068969315
4.6334578e-05
-2.4521546e-06
0.0068945616
4.0377318e-05
-2.3519723e-06
0.0068927577
3.5212429e-05
-2.2575205e-06
0.0068914124
3.0757161e-05
-2.1685359e-06
0.006890437
2.6934915e-05
-2.0859828e-06
2.3665413e-05
-2.0054237e-06
-0.0068327391
2.5857827e-05
-2.0328981e-06
-0.0068331108
2.9419508e-05
-2.1129044e-06
-0.006833765
3.3605936e-05
-2.1945674e-06
-0.0068347847
3.8514711e-05
-2.2825803e-06
-0.0068362716
4.4239158e-05
-2.3748711e-06
-0.0068383442
5.0877791e-05
-2.4706122e-06
-0.0068411392
5.8513956e-05
-2.5667502e-06
-0.0068448036
6.7217003e-05
-2.662551e-06
-0.0068494891
7.7014029e-05
-2.7545209e-06
-0.0068553461
8.7907603e-05
-2.8410732e-06
-0.0068625227
9.9845628e-05
-2.9227887e-06
-0.0068711709
0.0001127453
-3.0040384e-06
-0.006881476
0.00012649778
-3.096456e-06
-0.0068936995
0.00014101055
-3.2224922e-06
-0.0069081532
0.00015604877
-3.4024024e-06
-0.0069250934
0.00017113084
-3.6357795e-06
-0.0069446136
0.00018556229
-3.9018422e-06
-0.0069666455
0.00019869789
-4.1781324e-06
-0.0069909278
0.00020991048
-4.4507547e-06
-0.0070170887
0.0002187781
-4.7264029e-06
-0.0070447256
0.00022505399
-5.0094885e-06
-0.0070734123
0.00022856277
-5.295744e-06
-0.0071026659
0.0002291185
-5.5818341e-06
-0.0071319218
0.00022653894
-5.8695945e-06
-0.007160553
0.0002206765
-6.1528982e-06
-0.0071878858
0.00021143604
-6.4244854e-06
0.00019873289
-6.6776318e-06
0.0071098338
0.00023380217
-7.1936883e-06
0.0070800698
0.00024803982
-6.8398037e-06
0.007049404
0.00025781962
-6.4772982e-06
0.0070186491
0.00026339809
-6.1042792e-06
0.0069886007
0.00026490657
-5.7396916e-06
0.0069599797
0.00026258194
-5.3981602e-06
0.0069333099
0.00025679381
-5.0700123e-06
0.0069089589
0.00024786484
-4.7357488e-06
0.0068873178
0.00023593843
-4.3868129e-06
0.0068688261
0.00022121985
-4.0302971e-06
0.0068537235
0.00020432426
-3.6593264e-06
0.0068417964
0.00018635042
-3.2925306e-06
0.0068325228
0.00016830184
-2.9794674e-06
0.0068251685
0.00015114824
-2.7834022e-06
0.0068190895
0.00013528385
-2.7069891e-06
0.0068139243
0.00012060929
-2.6988777e-06
0.006809564
0.00010690983
-2.7038639e-06
0.0068059912
9.41742e-05
-2.6938141e-06
0.0068031904
8.2476719e-05
-2.6618845e-06
0.0068010957
7.1920207e-05
-2.6084966e-06
0.0067996668
6.2482755e-05
-2.5399461e-06
0.0067987826
5.422471e-05
-2.4626344e-06
0.006798333
4.7068752e-05
-2.3800062e-06
0.0067982173
4.0926402e-05
-2.2959969e-06
0.0067983689
3.5668537e-05
-2.2142011e-06
0.0067986792
3.1245465e-05
-2.1362343e-06
2.7487178e-05
-2.058652e-06
-0.0068028841
2.8525334e-05
-2.1208357e-06
-0.006801814
3.2369886e-05
-2.1945587e-06
-0.0068008151
3.6937681e-05
-2.2680004e-06
-0.0067998972
4.2350024e-05
-2.3415255e-06
-0.0067991391
4.8723376e-05
-2.4127047e-06
-0.0067986082
5.6169101e-05
-2.4752724e-06
-0.0067983585
6.4756012e-05
-2.5230273e-06
-0.0067983814
7.4490955e-05
-2.5478136e-06
-0.0067986474
8.5282203e-05
-2.539519e-06
-0.0067989642
9.6976065e-05
-2.4850334e-06
-0.006799056
0.00010937907
-2.3774295e-06
-0.0067986044
0.00012238341
-2.2257589e-06
-0.0067974344
0.00013619517
-2.0812475e-06
-0.006795964
0.00015173806
-2.0602617e-06
-0.0067953978
0.00017001014
-2.2745028e-06
-0.0067975512
0.00019122557
-2.7217523e-06
-0.006803968
0.00021400927
-3.2681939e-06
-0.0068154677
0.00023652541
-3.80583e-06
-0.0068316598
0.00025641896
-4.2884447e-06
-0.0068517994
0.00027271334
-4.70894e-06
-0.0068755843
0.00028565103
-5.0722876e-06
-0.0069029292
0.00029535382
-5.4269778e-06
-0.0069332324
0.0003010428
-5.8331085e-06
-0.00696538
0.00030185503
-6.3092688e-06
-0.0069983295
0.00029758035
-6.8112581e-06
-0.0070313199
0.00028832587
-7.2956421e-06
0.00027359146
-7.8047983e-06
0.0069424089
0.00032074623
-8.6671535e-06
0.006905369
0.00033316137
-7.7956202e-06
0.0068700045
0.00034006827
-7.123454e-06
0.0068363608
0.00034193386
-6.4351233e-06
0.0068059892
0.00033720639
-5.7919808e-06
0.0067812117
0.00032541187
-5.280517e-06
0.0067628769
0.0003089176
-4.9317777e-06
0.0067499396
0.00029032873
-4.6781063e-06
0.0067422206
0.00026844129
-4.3033002e-06
0.0067417072
0.00024070476
-3.6659716e-06
0.0067497868
0.00020875741
-2.8277261e-06
0.0067643363
0.00017867105
-1.9950191e-06
0.0067813864
0.0001543357
-1.3756133e-06
0.0067969468
0.00013734396
-1.1663446e-06
0.0068089787
0.00012549872
-1.3354131e-06
0.0068174172
0.00011562784
-1.6829469e-06
0.0068231666
0.00010564357
-2.0139416e-06
0.0068271621
9.5236483e-05
-2.2558843e-06
0.0068301444
8.4707102e-05
-2.4072309e-06
0.0068326254
7.4495256e-05
-2.4852182e-06
0.0068348994
6.4991421e-05
-2.5094149e-06
0.0068370944
5.6469656e-05
-2.4955583e-06
0.0068392429
4.9029842e-05
-2.4549828e-06
0.0068413331
4.2657722e-05
-2.3978975e-06
0.0068433425
3.7260519e-05
-2.3322816e-06
0.0068452522
3.2723325e-05
-2.2631451e-06
2.8920742e-05
-2.1927737e-06
-0.0069104728
2.8686128e-05
-2.3271879e-06
-0.0069076551
3.2302339e-05
-2.3966639e-06
-0.0069045641
3.6633473e-05
-2.4640506e-06
-0.0069011838
4.1802125e-05
-2.5246622e-06
-0.00689749
4.7906433e-05
-2.5703509e-06
-0.0068934284
5.4997847e-05
-2.5898331e-06
-0.0068888645
6.2999808e-05
-2.5722867e-06
-0.0068835068
7.1642117e-05
-2.504549e-06
-0.006876807
8.0377674e-05
-2.37041e-06
-0.0068678911
8.8470255e-05
-2.1496297e-06
-0.0068555124
9.5092337e-05
-1.8275138e-06
-0.0068379319
9.9463456e-05
-1.4161128e-06
-0.0068127732
0.00010132527
-9.8520118e-07
-0.0067784798
0.00010375403
-7.0346868e-07
-0.0067373836
0.00011402143
-7.8192881e-07
-0.0066973786
0.00014012645
-1.4603746e-06
-0.0066681681
0.00018245192
-2.9050565e-06
-0.0066551517
0.00023234826
-4.6598662e-06
-0.0066527248
0.00027145757
-5.4432479e-06
-0.0066545918
0.00029704945
-4.8537067e-06
-0.0066640471
0.00032257018
-4.1972761e-06
-0.0066860691
0.00035198431
-4.5503652e-06
-0.0067181896
0.00037470103
-5.3741511e-06
-0.0067544377
0.00038434117
-6.1592266e-06
-0.0067917864
0.00038443622
-7.0192779e-06
-0.0068325407
0.00038191813
-8.0024425e-06
0.00037758718
-9.6408202e-06
0.0068278609
0.00044008255
-5.133394e-05
0.0067583065
0.00045181439
-1.8323338e-05
0.0067020793
0.00044301141
-9.197043e-06
0.0066632259
0.00042769964
-6.9280283e-06
0.0066272917
0.00042604052
-5.6701327e-06
0.0065857882
0.00043091211
-5.0674875e-06
0.0065459684
0.00041887616
-4.3552677e-06
0.0065225938
0.00037732372
-1.9648527e-06
0.0065261384
0.00031964587
-6.2029174e-07
0.0065378087
0.00029123049
-5.8513216e-06
0.0065420045
0.00027953065
-1.2268929e-05
0.0065632424
0.00022159841
-1.0487979e-05
0.0066212229
0.00012879384
-4.322465e-06
0.0066982972
6.4600798e-05
-1.5486545e-06
0.0067695548
4.4805414e-05
-2.0415761e-06
0.0068218688
5.4173383e-05
-2.7333147e-06
0.0068568007
6.8918967e-05
-2.5256752e-06
0.0068811417
7.726087e-05
-2.138364e-06
0.0068989126
7.9380218e-05
-2.0587673e-06
0.0069122911
7.7281389e-05
-2.1896224e-06
0.0069226079
7.2401608e-05
-2.340812e-06
0.0069308944
6.5812548e-05
-2.4568906e-06
0.0069378146
5.8612852e-05
-2.5332687e-06
0.0069438023
5.1577911e-05
-2.5677634e-06
0.0069490809
4.5193949e-05
-2.5660948e-06
0.0069537687
3.9647791e-05
-2.5334389e-06
0.0069579392
3.4944413e-05
-2.4815098e-06
0.0069616485
3.1012736e-05
-2.4196138e-06
2.7738667e-05
-2.3526607e-06
-0.0069355194
2.6343523e-05
-2.5841638e-06
-0.0069309768
2.9131321e-05
-2.6612586e-06
-0.0069257865
3.2487633e-05
-2.7334744e-06
-0.0069198564
3.651229e-05
-2.7946262e-06
-0.0069130801
4.1248031e-05
-2.8304207e-06
-0.0069053145
4.6640681e-05
-2.8282916e-06
-0.0068963273
5.2408846e-05
-2.7832624e-06
-0.0068857522
5.7937556e-05
-2.7000904e-06
-0.0068729498
6.2204013e-05
-2.6048052e-06
-0.0068572412
6.412964e-05
-2.5567862e-06
-0.0068382491
6.320958e-05
-2.8215293e-06
-0.0068154092
5.8793853e-05
-4.3728897e-06
-0.00678313
4.5470837e-05
-8.8310265e-06
-0.0067271144
1.1860054e-05
-1.370224e-05
-0.0066286988
-4.2342441e-05
-1.1267832e-05
-0.0064995459
-6.1698835e-05
-2.8532439e-06
-0.0063979887
3.2588748e-05
-5.3520859e-06
-0.0063751383
0.00023545748
-3.6709433e-05
-0.0063865347
0.00034766305
-5.6736023e-05
-0.006296078
0.00021609314
-1.5319334e-05
-0.0062831824
0.0002886899
1.8060383e-05
-0.0063274454
0.00041142991
1.0156786e-05
-0.0063839622
0.00047515558
2.3735573e-07
-0.0064311068
0.00048146722
-3.4105266e-06
-0.0064474592
0.00044380399
-1.4110554e-06
-0.0064562012
0.00043418876
2.2528893e-06
-0.0065210328
0.00050184634
5.9966156e-06
-0.0066183275
0.00055376809
-4.6589925e-06
0.00053689183
-7.514117e-05
0.00044432964
-0.00029620847
0.0013504767
-0.00023208139
0.0058141199
0.00081157841
-0.00065466934
0.005822034
-0.00050594379
0.00098936857
4.555301e-05
0.0056540392
-0.00041843436
0.0010191711
0.00012102612
0.0056002396
-0.00047224293
0.00092044428
0.00010744455
0.0056599532
-0.00055408202
0.00084935873
7.9198534e-05
0.005875342
-0.00056787946
0.00086626255
-6.9967964e-05
0.0059980529
-0.00047457491
0.0009027058
-6.9374552e-05
0.0058759728
-0.00040010858
0.00090820996
8.9134329e-05
0.005795752
-0.00043062358
0.00082566923
9.6605004e-05
0.0057494596
-0.00050381515
0.00072702816
0.00011176929
0.0061098085
-0.00059904664
0.00033823808
0.0001165528
0.0059936021
0.00090717056
-0.00044330104
0.006036541
0.00025200054
-5.9481974e-05
0.0061934538
-0.00012874185
4.4177966e-06
0.0064734106
-0.0003160299
-2.5625716e-05
0.0065968961
-8.671623e-05
-7.911171e-05
0.0066353721
3.9115989e-05
-6.5731992e-05
0.0066458332
5.9560763e-05
-2.4550976e-05
0.0066611917
5.1337594e-05
-7.9022772e-06
0.0066783383
4.8789273e-05
-2.7262899e-06
0.0066942762
4.9611072e-05
-1.4193554e-06
0.0067081755
4.9435537e-05
-1.1308041e-06
0.0067201733
4.709834e-05
-1.1586039e-06
0.0067305441
4.3324094e-05
-1.2859971e-06
0.0067395313
3.9065534e-05
-1.412097e-06
0.0067473224
3.4957528e-05
-1.5006079e-06
0.006754063
3.1312972e-05
-1.5413016e-06
0.0067598894
2.8207668e-05
-1.5464314e-06
0.0067649354
2.5616554e-05
-1.531171e-06
2.3469291e-05
-1.5006784e-06
-0.0064357932
2.1292047e-05
-2.4181455e-06
-0.0064304273
2.2882348e-05
-2.6316708e-06
-0.006424151
2.4799093e-05
-2.8677184e-06
-0.006416806
2.7077958e-05
-3.1100275e-06
-0.0064082459
2.9725138e-05
-3.3277141e-06
-0.006398343
3.2669933e-05
-3.5072957e-06
-0.0063870615
3.5652485e-05
-3.6098359e-06
-0.0063744469
3.8143031e-05
-3.6593072e-06
-0.0063607301
3.9384897e-05
-3.666153e-06
-0.0063464941
3.9424347e-05
-4.049284e-06
-0.006332114
4.0324915e-05
-5.9157664e-06
-0.006318922
5.2464172e-05
-1.4318597e-05
-0.0063157127
0.00010345213
-4.7100589e-05
-0.0063122275
0.00021156534
-0.00017593461
-0.0059777358
0.00025356354
-0.00067477147
-0.0051384844
-0.00097490821
-2.927885e-05
-0.00015109421
-0.0050523078
-0.00070130484
0.00045652798
2.9858444e-05
-0.0050751267
-0.00046794277
0.00071691066
2.5851525e-05
-0.001612339
-0.00030696686
0.00084929346
-0.0025440987
-0.00055384513
0.0012259809
-0.0005879709
-0.0012065731
-0.0010437758
0.0012303992
-0.00018155844
-0.00012982674
0.0017669691
9.345622e-05
0.00021926729
0.0012342591
7.2297634e-05
-7.5303761e-06
0.0017499592
4.0372444e-05
0.00016083814
0.0012034653
-4.7686302e-05
-0.00010712463
0.0016969284
-8.5191816e-05
4.8256681e-05
0.0010445749
-0.00013985522
-0.00018269949
0.0011466153
-0.00010008081
-3.1238508e-05
0.00018875752
-0.00064154437
-0.0010727927
0.0026721949
-0.00011355043
-0.00089003847
-0.0010736208
0.0022659672
-0.00073097028
-0.00053997207
-0.00076391447
8.641876e-06
2.9813131e-05
-0.00026147535
-4.315922e-07
-0.00043430114
-0.00020076088
-7.8054908e-06
-0.00010107934
-5.2623201e-05
-9.9967318e-05
-9.9425266e-05
-2.2728333e-05
-5.1201832e-05
-1.4826235e-05
-0.00014981513
-2.0206418e-05
1.7740378e-05
-0.00017311457
5.3672363e-06
1.0746204e-05
-0.00020371142
1.4740745e-05
1.2184192e-05
-0.00021736853
1.8887338e-06
1.1645846e-05
-0.00021936731
-6.4216519e-06
4.403879e-06
-0.00021334302
-1.5654926e-05
-1.1648693e-07
-0.0001979937
-2.9341915e-05
-3.9393337e-06
-0.0001496622
-7.0129281e-05
-4.8125838e-06
-0.00014636508
-5.0263048e-06
-7.3964431e-05
8.1965473e-07
-0.00020516237
-4.9374138e-05
0.00018831983
-7.7477525e-06
-0.00016558823
-4.0356364e-05
-1.7047212e-05
-0.00012463301
-1.2188696e-05
-5.6154237e-05
-9.1346576e-05
-5.0357003e-05
-7.9287598e-06
-7.9010077e-05
2.677196e-05
0.0001990671
7.4458395e-05
-7.0336688e-05
3.4575065e-05
0.00018447172
-0.0013136937
-0.00015585695
0.0010551747
5.254088e-05
0.00029149836
-0.0012565359
0.00018955181
-0.00015370089
-0.00045491596
-0.00020295689
-0.00059068109
-0.00028284943
4.6934915e-05
-7.8463286e-05
-0.00023518162
-0.00018820597
-0.00012100439
-6.2325553e-05
-0.00012534167
-3.3232635e-05
-0.00012063686
-1.8073012e-05
1.1392597e-05
-0.00011679623
1.5137858e-06
-4.1683118e-05
6.4096473e-06
-0.0002589422
-1.3792594e-05
0.00020853651
2.2515163e-05
-0.00025340455
-3.1936622e-06
1.178139e-05
-0.00025705817
-2.302529e-06
5.0067463e-06
-0.00025540698
-7.2840242e-06
1.0739614e-06
-0.00025038984
-1.1382705e-05
-4.2317948e-07
-0.00024234322
-1.5861443e-05
-1.3748901e-06
-0.00023035686
-2.2524683e-05
-2.726029e-06
-0.0002110738
-3.4926008e-05
-5.2664684e-06
-0.0001577409
-7.6871881e-05
-5.4689542e-06
-0.00015464653
-5.3001359e-06
-7.9385208e-05
1.0619887e-06
-0.00021638693
-5.5839744e-05
0.00020061099
-7.7695193e-06
-0.0001736472
-4.5290464e-05
-1.7520421e-05
-0.00012969684
-1.2650937e-05
-6.0841248e-05
-9.4214231e-05
-5.356286e-05
-8.2985048e-06
-8.1802995e-05
2.7751708e-05
0.00020810105
7.7659117e-05
-7.5890233e-05
3.7264175e-05
0.00019316425
-0.0013456302
-0.00023363045
0.0011384089
4.7175943e-05
0.00031778559
-0.0012769134
-0.00013576328
0.00016105556
-0.00047206728
-0.00016082738
-0.00060383112
-0.00031470728
4.5057274e-05
-7.7434047e-05
-0.00024540609
-0.00019428442
-0.00012585047
-6.4739441e-05
-0.00012943188
-3.4337586e-05
-0.0001253845
-1.715045e-05
1.16775e-05
-0.00012103181
1.4801658e-06
-4.2308842e-05
6.5186717e-06
-0.00026923299
-1.1545684e-05
0.00021584188
2.2627949e-05
-0.00026479084
-7.9309255e-07
1.2442707e-05
-0.00027046353
2.1973352e-07
5.8692658e-06
-0.0002710903
-4.3973267e-06
1.9166622e-06
-0.00026870455
-7.3704681e-06
4.2635327e-07
-0.00026434204
-9.6715698e-06
-4.4084922e-07
-0.00025818817
-1.2144292e-05
-1.0174083e-06
-0.00024977188
-1.5815504e-05
-1.7227229e-06
-0.00023753533
-2.2126152e-05
-3.2058889e-06
-0.00021749855
-3.4498506e-05
-6.4483899e-06
-0.00016115369
-7.7408355e-05
-7.8747478e-06
-0.00015625945
-6.5207019e-06
-7.8417332e-05
1.9926408e-07
-0.00021760774
-5.4458852e-05
0.00020340561
-9.7563512e-06
-0.00017727352
-1.6568138e-05
-4.2857422e-05
-0.00013781365
-5.8468231e-05
-1.0312701e-05
-0.00010101396
-5.5086679e-05
-7.7306538e-06
-8.2746557e-05
3.0010732e-05
0.00024679117
8.2019372e-05
-4.5562529e-05
0.00020075728
3.6509745e-05
-0.0013257817
-0.00020049197
0.001104624
0.00031855545
5.7531633e-05
-0.0013440181
-4.7682387e-05
0.00023454418
-0.001391281
1.8084791e-05
5.0456235e-05
2.7741511e-06
1.4826191e-05
0.0058414577
6.4971634e-06
2.5059328e-06
0.005832118
6.6396419e-06
2.7000631e-06
0.0058225732
6.7112349e-06
2.8336224e-06
0.0058129493
6.7111253e-06
2.9127659e-06
0.0058033568
6.6566252e-06
2.935827e-06
0.0057938912
6.5559887e-06
2.9096472e-06
0.005784641
6.4091827e-06
2.8409727e-06
0.0057756875
6.2207604e-06
2.7328128e-06
0.0057670958
6.001566e-06
2.5901336e-06
0.0057589114
5.7655097e-06
2.4188678e-06
0.0057511667
5.5117876e-06
2.2329166e-06
0.0057438878
5.2409579e-06
2.0379521e-06
0.0057370879
4.9665085e-06
1.8333183e-06
0.0057307667
4.6990321e-06
1.622207e-06
0.0057249161
4.4352899e-06
1.4153201e-06
0.0057195248
4.1721772e-06
1.2191511e-06
3.9196212e-06
1.0315253e-06
3.4988098e-05
-0.007059579
4.3771497e-06
3.3407725e-05
-0.0070620544
4.3461365e-06
3.18311e-05
-0.0070646004
4.2946119e-06
3.02861e-05
-0.007067226
4.2368432e-06
2.8734941e-05
-0.0070698555
4.1737641e-06
2.7178702e-05
-0.0070725355
4.1162997e-06
2.5654825e-05
-0.0070753048
4.0654969e-06
2.4131727e-05
-0.0070781631
4.0269051e-06
2.2601131e-05
-0.0070813376
3.9964051e-06
2.1054391e-05
-0.0070854103
3.9774781e-06
1.9481855e-05
-0.0070917454
3.9717746e-06
1.787755e-05
-0.0071030903
3.9759506e-06
1.622833e-05
-0.0071239343
3.9968774e-06
1.4528696e-05
-0.0071594811
4.0314275e-06
1.2774152e-05
-0.0072112527
4.0770484e-06
1.0963355e-05
-0.0072679197
4.1298972e-06
9.0923249e-06
-0.0072930489
4.1802846e-06
7.1644311e-06
-0.0072199461
4.2030414e-06
5.213477e-06
-0.0069791707
4.1402897e-06
3.324527e-06
-0.0065694939
3.9509268e-06
-0.0061067152
3.6502889e-06
-3.4719172e-06
-0.0061090696
4.1544191e-06
-5.4363075e-06
-0.0065720277
4.4981277e-06
-7.462183e-06
-0.0069818613
4.7163887e-06
-9.4683547e-06
-0.0072227298
4.789893e-06
-1.1415099e-05
-0.0072958734
4.7711925e-06
-1.3300483e-05
-0.0072707534
4.7191043e-06
-1.5128915e-05
-0.0072140886
4.6643254e-06
-1.6900327e-05
-0.0071623239
4.6142721e-06
-1.8620605e-05
-0.0071267914
4.5773885e-06
-2.0295321e-05
-0.0071059709
4.5553299e-06
-2.1936998e-05
-0.0070946553
4.5515983e-06
-2.3550863e-05
-0.0070883537
4.5573384e-06
-2.5148232e-05
-0.0070843147
4.5744377e-06
-2.6740126e-05
-0.007081175
4.6037723e-06
-2.8334492e-05
-0.0070783532
4.6427802e-06
-2.994169e-05
-0.0070756212
4.6929154e-06
-3.1565766e-05
-0.0070729847
4.753214e-06
-3.322674e-05
-0.0070703807
4.81561e-06
-3.4862123e-05
-0.0070678419
4.8768751e-06
-3.6521712e-05
-0.0070653226