/*--------------------------------*- C++ -*----------------------------------*\
| =========                 |                                                 |
| \\      /  F ield         | OpenFOAM: The Open Source CFD Toolbox           |
|  \\    /   O peration     | Version:  v2012                                 |
|   \\  /    A nd           | Website:  www.openfoam.com                      |
|    \\/     M anipulation  |                                                 |
\*---------------------------------------------------------------------------*/
FoamFile
{
    version     2.0;
    format      ascii;
    class       volVectorField;
    location    "100";
    object      U;
}
// * * * * * * * * * * * * * * * * * * * * * * * * * * * * * * * * * * * * * //

dimensions      [0 1 -1 0 0 0 0];


internalField   nonuniform List<vector> 
33454
(
(5.6058777 -0.3972547 0.0040065649)
(5.5905356 -0.40637395 0.003025321)
(5.5808648 -0.41718805 0.0028524834)
(5.5629479 -0.42842158 0.00061816878)
(5.5439055 -0.44420353 0.0012880511)
(5.5302906 -0.45076093 -0.0011389858)
(5.5274761 -0.45325458 -0.00073337058)
(5.5255823 -0.45908369 -0.0007105632)
(5.5140818 -0.46671288 0.00024769773)
(5.500448 -0.47184592 0.0010787295)
(5.493294 -0.474404 0.00087645519)
(5.4891065 -0.47643189 0.000159076)
(5.4827313 -0.48205796 -0.00023550279)
(5.4704356 -0.48926775 0.0010354334)
(5.4567707 -0.49304402 0.00093193362)
(5.4478619 -0.49586526 8.6961387e-05)
(5.4427276 -0.49831433 -0.0011927927)
(5.4334879 -0.50539411 0.00022014559)
(5.4170923 -0.50985427 0.0009832046)
(5.4085681 -0.51194346 0.0002944532)
(5.3992978 -0.5149873 -0.0013433527)
(5.3930164 -0.51935097 -0.0024908023)
(5.3853119 -0.52543515 -0.0013052963)
(5.3699237 -0.53500331 -0.0001026746)
(5.3603853 -0.53294316 0.0030918403)
(5.3583938 -0.53258175 0.0025038364)
(5.3454803 -0.53423622 0.0017105464)
(5.3358419 -0.5374411 0.00039473827)
(5.3256807 -0.54884635 0.0018749645)
(5.3087826 -0.55449587 0.00024283963)
(5.2948462 -0.5555652 -0.00052628396)
(5.287106 -0.5549842 -0.00096850723)
(5.2780891 -0.55600465 -0.0020403134)
(5.2698553 -0.56000417 -0.0023550109)
(5.2570613 -0.56666491 -0.0003202858)
(5.2404195 -0.56916441 0.00028870053)
(5.2284899 -0.57047926 -0.00047253559)
(5.2195753 -0.57165744 -0.0012987375)
(5.2077487 -0.5758959 -0.0010320561)
(5.1923477 -0.57919357 3.2985494e-05)
(5.175717 -0.5805433 -0.00024926198)
(5.1652802 -0.58152354 -0.00083282512)
(5.1552368 -0.58357488 -0.0027414785)
(5.1426796 -0.59183789 -0.0011269101)
(5.1263752 -0.59624931 0.0005275059)
(5.1074478 -0.59976551 -0.00088908878)
(5.101046 -0.59618108 0.0010429711)
(5.0953317 -0.5955609 0.0011013732)
(5.0773086 -0.594038 0.0011501008)
(5.0543035 -0.59693712 -0.0010647655)
(5.0347471 -0.6028988 -0.00076777421)
(5.0163241 -0.60767963 -0.0015551871)
(4.9998454 -0.60911296 -0.002013308)
(4.9882714 -0.6093718 -0.001218042)
(4.9677146 -0.61309447 -0.00106886)
(4.9453738 -0.61718149 -0.0016531823)
(4.9226037 -0.61833813 -0.0012461424)
(4.9044271 -0.61775857 -0.0013827582)
(4.8825043 -0.62006054 4.3166165e-05)
(4.8551601 -0.6214145 -0.00049503367)
(4.8240936 -0.62135205 -0.0016433147)
(4.7973458 -0.61961212 -0.0017914855)
(4.7705973 -0.61725842 0.0018294267)
(4.7389351 -0.62048346 0.00092376835)
(4.7091176 -0.61842304 0.0075559104)
(4.6857309 -0.62300878 0.0076552897)
(4.6504755 -0.63489017 -0.015241406)
(4.4365431 -0.78403555 -0.031121477)
(4.1348564 -0.32456798 -0.0031929515)
(4.603232 -0.066443528 -0.031566682)
(4.7379134 -0.028363149 -0.026578325)
(4.7763357 -0.012108074 -0.020626932)
(4.8184468 0.00028274776 -0.015279347)
(4.8588727 0.0057338141 -0.011415372)
(4.8861871 0.0081887002 -0.0092909562)
(4.9064458 0.009682186 -0.0078372403)
(4.9228649 0.010504096 -0.0067852793)
(4.9360568 0.010874481 -0.0060251099)
(4.9466975 0.011012652 -0.0054528041)
(4.9553474 0.011013645 -0.0050289401)
(4.9624593 0.010939165 -0.0046872399)
(4.9682899 0.010837548 -0.0043723072)
(4.9731727 0.010729208 -0.0040835814)
(4.9772268 0.010624347 -0.0038319235)
(4.9962817 -0.00043696053 0.0056497723)
(4.9998161 -0.0005506936 0.0066112504)
(5.003887 -0.00067467119 0.0077065883)
(5.0085969 -0.00080819245 0.0089397611)
(5.0140365 -0.00094777825 0.0103019)
(5.0203099 -0.0010907744 0.011773656)
(5.0274955 -0.0012325406 0.013315585)
(5.0356548 -0.0013667362 0.014868801)
(5.0447924 -0.0014867768 0.016357535)
(5.054869 -0.0015847415 0.017701622)
(5.0657841 -0.0016544372 0.018824792)
(5.077396 -0.001690949 0.019665593)
(5.0895174 -0.0016909998 0.020181187)
(5.1019657 -0.0016540053 0.020347274)
(5.114521 -0.0015795069 0.020157582)
(5.1269772 -0.0014704242 0.019621318)
(5.2978635 -0.0071049545 0.0014710639)
(5.2845559 -0.0076117199 0.0014568749)
(5.2701802 -0.0080096289 0.001435577)
(5.2549691 -0.0082979194 0.001408639)
(5.2391589 -0.0084768861 0.0013771682)
(5.2229891 -0.0085480527 0.0013419071)
(5.2066914 -0.0085153439 0.00130358)
(5.1904818 -0.0083833793 0.0012629697)
(5.1745971 -0.0081591542 0.0012207224)
(5.1592149 -0.0078528955 0.0011773926)
(5.1445148 -0.0074763971 0.0011338447)
(5.130642 -0.0070435356 0.0010906416)
(5.1177074 -0.0065693743 0.0010480226)
(5.1057899 -0.0060694742 0.0010061043)
(5.0949314 -0.0055585632 0.00096515674)
(5.0851444 -0.0050500026 0.00092539633)
(5.0764108 -0.0045548795 0.00088701724)
(5.0686933 -0.0040822582 0.0008500745)
(5.0619327 -0.0036384021 0.00081467204)
(5.0560633 -0.0032278132 0.00078074395)
(5.051006 -0.0028524771 0.00074830344)
(5.0466853 -0.0025133999 0.00071726414)
(5.0430185 -0.002209645 0.00068762122)
(5.0399333 -0.0019400811 0.00065928486)
(5.0373532 -0.0017021815 0.00063222799)
(5.0352159 -0.0014938132 0.00060640086)
(5.0334566 -0.001311873 0.0005817302)
(5.0343035 -0.0039929614 0.00058804834)
(5.0360025 -0.0045445187 0.0006110655)
(5.0380745 -0.0051768494 0.0006352073)
(5.0405854 -0.0058995762 0.00066064864)
(5.0435983 -0.0067191613 0.00068741372)
(5.0471914 -0.0076435673 0.00071565306)
(5.0514385 -0.0086763263 0.00074551343)
(5.0564256 -0.0098204861 0.00077706192)
(5.062231 -0.011073089 0.00081046284)
(5.068938 -0.012428263 0.0008458629)
(5.0766165 -0.013872239 0.00088345327)
(5.0853305 -0.01538583 0.00092328211)
(5.0951216 -0.016941206 0.00096532696)
(5.106012 -0.018504385 0.0010095119)
(5.1179917 -0.020034309 0.0010556125)
(5.1310204 -0.021485614 0.0011033479)
(5.1450182 -0.022810481 0.0011524365)
(5.1598723 -0.023963085 0.0012024663)
(5.1754333 -0.024901249 0.0012524077)
(5.1915174 -0.025587504 0.0013017547)
(5.2079418 -0.025990869 0.001349461)
(5.224466 -0.026090317 0.0013946406)
(5.2408674 -0.025872099 0.0014365436)
(5.2569122 -0.025325217 0.0014745279)
(5.2723566 -0.024445723 0.0015077677)
(5.2869618 -0.023232862 0.0015350348)
(5.300493 -0.021688829 0.0015548032)
(5.3051705 -0.037415153 0.0016642199)
(5.2912165 -0.040055028 0.0016285119)
(5.2761797 -0.04212554 0.001585777)
(5.2602998 -0.043622061 0.0015382266)
(5.2438195 -0.044546968 0.0014861531)
(5.2269891 -0.044906837 0.0014302296)
(5.2100463 -0.044719071 0.0013709474)
(5.1932268 -0.04400549 0.0013081484)
(5.1767778 -0.042804173 0.0012432457)
(5.1608951 -0.041168281 0.0011794145)
(5.1457691 -0.039161121 0.0011186338)
(5.1315536 -0.036855171 0.0010616893)
(5.1183655 -0.034331053 0.0010082211)
(5.1062868 -0.031673478 0.00095794354)
(5.0953537 -0.028962206 0.0009109471)
(5.0855708 -0.026269853 0.00086765177)
(5.0769066 -0.023655311 0.0008279416)
(5.0693116 -0.021166681 0.00079150325)
(5.0627115 -0.018836271 0.00075812128)
(5.057029 -0.016687269 0.00072730188)
(5.0521727 -0.014728665 0.00069883005)
(5.0480589 -0.012964614 0.00067225189)
(5.0445969 -0.011388766 0.00064747353)
(5.0417097 -0.0099944303 0.00062413395)
(5.0393166 -0.0087671205 0.00060220054)
(5.0373538 -0.0076955532 0.00058138731)
(5.0357538 -0.0067622306 0.00056164909)
(5.0378455 -0.0095657065 0.0005308067)
(5.0392911 -0.010885028 0.00054652913)
(5.0410838 -0.01240451 0.00056309736)
(5.0432896 -0.014148803 0.00058064338)
(5.0459752 -0.016136346 0.00059949669)
(5.0492234 -0.018389188 0.00061978346)
(5.0531165 -0.020919439 0.00064195043)
(5.0577517 -0.023738465 0.00066637019)
(5.0632216 -0.026842644 0.00069366373)
(5.0696299 -0.030221744 0.00072424136)
(5.0770673 -0.033843991 0.00075885901)
(5.0856245 -0.037663953 0.00079815209)
(5.0953658 -0.041611463 0.0008427326)
(5.1063389 -0.045600412 0.00089288261)
(5.118551 -0.049521854 0.00094811881)
(5.1319735 -0.053255185 0.0010083929)
(5.1465229 -0.056672114 0.0010737098)
(5.1620764 -0.05965115 0.0011432918)
(5.1784648 -0.062082815 0.0012174488)
(5.1954857 -0.063875544 0.0012970183)
(5.2129309 -0.064957167 0.0013782121)
(5.2305405 -0.065272285 0.0014537813)
(5.2480545 -0.06478897 0.0015263641)
(5.2652312 -0.063484387 0.0015963188)
(5.2818109 -0.061349274 0.0016628218)
(5.2975433 -0.058381797 0.0017242926)
(5.3121811 -0.054589769 0.0017789172)
(5.3217166 -0.073340277 0.001871314)
(5.3060883 -0.078321575 0.0018019659)
(5.2893508 -0.082208156 0.001726495)
(5.2717608 -0.084989315 0.0016466025)
(5.2535784 -0.086663766 0.0015635767)
(5.2350776 -0.087240565 0.0014792882)
(5.2165078 -0.086745897 0.0013921794)
(5.1981633 -0.085221152 0.0012996026)
(5.1803145 -0.082732648 0.001212931)
(5.1631942 -0.079374408 0.0011318148)
(5.1470296 -0.075272249 0.0010557561)
(5.1320091 -0.070578595 0.00098520513)
(5.1182661 -0.065463348 0.00092076941)
(5.105886 -0.060109024 0.00086265999)
(5.0948844 -0.054686291 0.00081085514)
(5.0852343 -0.049346999 0.00076565478)
(5.0768625 -0.044207961 0.00072658627)
(5.0696799 -0.039361743 0.00069290212)
(5.0635725 -0.034865852 0.00066382151)
(5.0584279 -0.030757649 0.00063831336)
(5.0541259 -0.027045844 0.00061601751)
(5.0505604 -0.023729886 0.00059607538)
(5.0476258 -0.020790774 0.00057789113)
(5.0452328 -0.018207951 0.00056116477)
(5.0432962 -0.015949987 0.00054558172)
(5.0417465 -0.013989299 0.00053083758)
(5.0405185 -0.012292253 0.00051667924)
(5.0436692 -0.014809526 0.00053518395)
(5.0446129 -0.016856363 0.00055018464)
(5.0458432 -0.019231173 0.00056569964)
(5.0474233 -0.021977704 0.00058235652)
(5.049425 -0.025134961 0.00059989135)
(5.0519366 -0.028746871 0.00061896806)
(5.0550547 -0.032845696 0.0006398832)
(5.0588962 -0.03746265 0.00066318561)
(5.0635836 -0.04260724 0.0006895592)
(5.0692593 -0.048277496 0.00071931403)
(5.0760647 -0.054434555 0.0007535109)
(5.0841476 -0.061012115 0.00079319119)
(5.0936335 -0.067894886 0.00083876778)
(5.1046339 -0.074933114 0.00089100057)
(5.117209 -0.081923885 0.00094979336)
(5.1313631 -0.088632208 0.0010151556)
(5.1470067 -0.094804534 0.0010868684)
(5.1639888 -0.10021156 0.001164342)
(5.182091 -0.1046511 0.0012473281)
(5.2010535 -0.10796236 0.001336656)
(5.2206016 -0.11002511 0.0014321949)
(5.2404471 -0.11076645 0.0015227424)
(5.2602578 -0.11014114 0.0016110917)
(5.2797711 -0.10812422 0.0016989005)
(5.2986951 -0.10471063 0.0017852145)
(5.3167587 -0.09990628 0.0018674298)
(5.3336958 -0.093725883 0.001944484)
(5.3477655 -0.11582324 0.0020274265)
(5.3292108 -0.12319192 0.0019450411)
(5.3095093 -0.12889786 0.0018580794)
(5.2889356 -0.13292024 0.0017691308)
(5.267771 -0.13524451 0.0016803834)
(5.2463261 -0.13586854 0.0015916215)
(5.2248827 -0.13480715 0.0015021897)
(5.2038098 -0.13210221 0.0014088712)
(5.1834321 -0.12782973 0.0013184506)
(5.1640803 -0.12212827 0.0012353179)
(5.1460596 -0.11519662 0.0011585928)
(5.1296351 -0.10729741 0.0010878295)
(5.1149878 -0.098734226 0.0010227069)
(5.1022157 -0.089857872 0.00096348126)
(5.0912833 -0.080990923 0.00091025392)
(5.0820752 -0.072396326 0.00086279137)
(5.0744237 -0.064257356 0.00082067801)
(5.0681529 -0.056708606 0.00078355193)
(5.0630703 -0.049821604 0.00075034551)
(5.0589953 -0.043627809 0.00072040934)
(5.0557589 -0.038115745 0.00069338901)
(5.053218 -0.033259278 0.0006688167)
(5.051245 -0.029010529 0.00064607104)
(5.049735 -0.025319737 0.00062498147)
(5.048598 -0.022128049 0.00060505183)
(5.0477619 -0.019381847 0.00058643668)
(5.0471658 -0.017025902 0.00056835069)
(5.0508374 -0.01888222 0.00061033831)
(5.0510241 -0.021490722 0.00063084594)
(5.0513928 -0.02454834 0.00065255299)
(5.0519992 -0.028123565 0.00067596635)
(5.0529136 -0.032286383 0.0007007142)
(5.054226 -0.037115043 0.00072722632)
(5.0560472 -0.04268125 0.00075577494)
(5.0585153 -0.049057541 0.00078706151)
(5.0617944 -0.056294754 0.00082121644)
(5.0660851 -0.064429657 0.00085852184)
(5.0716162 -0.073448158 0.00089983443)
(5.0786386 -0.083283097 0.00094587659)
(5.0873961 -0.093784631 0.00099659824)
(5.0981387 -0.10474118 0.0010523074)
(5.1110721 -0.1158188 0.0011133244)
(5.1262841 -0.12657133 0.0011795485)
(5.1436554 -0.13650517 0.0012507627)
(5.1629572 -0.14522476 0.0013289556)
(5.1838557 -0.15239415 0.0014145683)
(5.205971 -0.15777969 0.0015045583)
(5.2288955 -0.1612353 0.001595348)
(5.2522593 -0.16268865 0.0016862573)
(5.2756565 -0.16211366 0.001778299)
(5.2987796 -0.15951805 0.0018716008)
(5.3213023 -0.15491839 0.0019655927)
(5.3429344 -0.14834099 0.0020592059)
(5.3633974 -0.13981269 0.002151307)
(5.379932 -0.16593261 0.0023401468)
(5.357286 -0.17558199 0.0022299871)
(5.3334496 -0.18300119 0.0021197603)
(5.3086993 -0.18815499 0.0020110353)
(5.2833273 -0.19099976 0.0019050383)
(5.2576669 -0.19149478 0.001802576)
(5.2320552 -0.18959607 0.0017038244)
(5.2069283 -0.1852925 0.0016093341)
(5.1827263 -0.1786338 0.0015187429)
(5.1599477 -0.16976129 0.0014322792)
(5.1390817 -0.15893313 0.0013519394)
(5.1205769 -0.14657381 0.0012786033)
(5.1047415 -0.13318649 0.0012094651)
(5.0917429 -0.11949148 0.0011452102)
(5.0813987 -0.10612007 0.0010857432)
(5.0733527 -0.093485323 0.0010305457)
(5.0672357 -0.081812374 0.00097948203)
(5.0627172 -0.071253597 0.00093286939)
(5.0594715 -0.061859704 0.00089053727)
(5.0572111 -0.053607843 0.00085172887)
(5.0557016 -0.046422097 0.00081626451)
(5.0547604 -0.0402145 0.00078382247)
(5.0542414 -0.034880649 0.00075393632)
(5.0540315 -0.030320396 0.00072624044)
(5.0540448 -0.026433209 0.00070040307)
(5.0542165 -0.023130014 0.00067625473)
(5.0544984 -0.020328189 0.00065354683)
(5.0579067 -0.021376119 0.00070169842)
(5.0571014 -0.024286325 0.00072651335)
(5.0563205 -0.027740138 0.00075322009)
(5.0556005 -0.031835547 0.0007819294)
(5.054995 -0.036682176 0.00081292724)
(5.0545809 -0.042407615 0.00084654896)
(5.0544663 -0.049146783 0.00088327965)
(5.0547975 -0.057046733 0.0009234619)
(5.05577 -0.066245278 0.00096744957)
(5.0576508 -0.076879874 0.0010151932)
(5.0607947 -0.089034387 0.0010673132)
(5.0656209 -0.10269772 0.001124172)
(5.0725669 -0.11772746 0.0011844688)
(5.0821727 -0.13392077 0.0012474929)
(5.0950543 -0.15078874 0.0013133832)
(5.1115752 -0.16741886 0.0013825338)
(5.1314527 -0.18270046 0.0014533173)
(5.1542405 -0.19602729 0.0015334177)
(5.1793063 -0.20686656 0.0016229988)
(5.2060076 -0.21495235 0.0017213863)
(5.2337224 -0.22017307 0.0018276267)
(5.2619178 -0.22254473 0.0019422673)
(5.2901458 -0.22214487 0.0020636677)
(5.3180374 -0.21906864 0.0021914072)
(5.345266 -0.21339193 0.0023244838)
(5.3715476 -0.20518353 0.0024616936)
(5.3966191 -0.19449037 0.002601707)
(5.4126222 -0.2256609 0.0029630212)
(5.3849199 -0.23734661 0.0027758766)
(5.3560018 -0.24632333 0.0025964222)
(5.3260933 -0.25253164 0.0024246019)
(5.2954509 -0.25587295 0.0022615076)
(5.2643742 -0.25622497 0.0021083774)
(5.2332426 -0.2534195 0.0019652357)
(5.2025273 -0.24729338 0.0018371229)
(5.1728249 -0.23767295 0.0017219723)
(5.1449488 -0.22459668 0.0016242646)
(5.1197516 -0.20829234 0.0015469894)
(5.0981577 -0.18942412 0.0014902002)
(5.0808732 -0.16865941 0.0014333637)
(5.0684295 -0.14783406 0.0013772119)
(5.0601003 -0.12832349 0.0013172531)
(5.0548198 -0.11063046 0.00125458)
(5.051815 -0.09484902 0.0011911241)
(5.0505263 -0.081087211 0.0011306735)
(5.0504181 -0.069277943 0.0010736642)
(5.0510608 -0.059239058 0.0010205711)
(5.0521635 -0.05074867 0.0009720657)
(5.0535303 -0.043601998 0.00092810678)
(5.0550238 -0.03760207 0.00088794864)
(5.0565526 -0.032577048 0.00085137837)
(5.0580589 -0.028369419 0.0008178678)
(5.0595074 -0.024848802 0.00078698821)
(5.0608793 -0.021901876 0.00075859926)
(5.063135 -0.022112238 0.00086541164)
(5.0611673 -0.024970843 0.0009010444)
(5.0590082 -0.02840956 0.00094054739)
(5.0566526 -0.03255484 0.00098420274)
(5.0541094 -0.037555587 0.0010325797)
(5.0514038 -0.043597194 0.0010857432)
(5.0486013 -0.050896773 0.0011445726)
(5.0458099 -0.059716858 0.0012095262)
(5.0432041 -0.070343429 0.001279547)
(5.0410713 -0.083122828 0.0013517716)
(5.0399074 -0.098403889 0.0014231297)
(5.0403839 -0.11639597 0.0014921599)
(5.0431818 -0.13701261 0.0015546664)
(5.0493623 -0.16048809 0.0016040616)
(5.0607817 -0.18633696 0.0016347438)
(5.0789813 -0.21254871 0.0016543472)
(5.1028672 -0.23579878 0.0016743633)
(5.1312321 -0.25557642 0.0017409394)
(5.1626693 -0.27110134 0.0018461389)
(5.1959942 -0.2822792 0.0019821164)
(5.2302345 -0.28921498 0.0021355783)
(5.2646889 -0.29236558 0.0023223368)
(5.298886 -0.29198316 0.0025225674)
(5.3324753 -0.28836173 0.0027371567)
(5.3652198 -0.28166884 0.0029631548)
(5.3969222 -0.27203675 0.0031978469)
(5.4274184 -0.25956719 0.003445072)
(5.5028666 -0.26094178 0.0052311185)
(5.4723819 -0.28019805 0.0047186186)
(5.4404588 -0.29636958 0.0043114959)
(5.4071502 -0.30964588 0.0039554513)
(5.3726345 -0.32003105 0.0036140939)
(5.3369989 -0.32734179 0.0032871063)
(5.3003599 -0.33141142 0.0029831051)
(5.2628079 -0.3320726 0.0026912486)
(5.224645 -0.32895765 0.002390698)
(5.1862493 -0.32155542 0.0021625207)
(5.1484574 -0.30886327 0.0019430936)
(5.1125301 -0.29056236 0.0018083389)
(5.0798732 -0.2664632 0.0017781176)
(5.0526315 -0.23754591 0.001863886)
(5.0331929 -0.20360978 0.0019599032)
(5.0237353 -0.17116883 0.002008051)
(5.0210618 -0.14335107 0.0019618626)
(5.0219119 -0.11959918 0.0018847894)
(5.0249097 -0.099516114 0.0017803915)
(5.0293219 -0.082916614 0.001670072)
(5.0342844 -0.069395382 0.0015580667)
(5.0392473 -0.058409017 0.0014511196)
(5.0439797 -0.049469405 0.0013552532)
(5.0483726 -0.042199046 0.0012707231)
(5.0523735 -0.036273311 0.0011965202)
(5.0559705 -0.031433482 0.0011306547)
(5.0591844 -0.027466504 0.001072365)
(5.0620432 -0.024208904 0.0010210923)
(5.0645874 -0.021521349 0.00097518604)
(5.0645648 -0.020985058 0.0012475135)
(5.0614583 -0.023353478 0.0013134169)
(5.0579049 -0.026233796 0.0013882645)
(5.0538279 -0.029761272 0.0014747092)
(5.0491563 -0.034098554 0.0015731298)
(5.0438106 -0.039466378 0.0016836902)
(5.037736 -0.046150585 0.0018054808)
(5.0309072 -0.054532082 0.001937994)
(5.0233328 -0.065091783 0.0020778902)
(5.0151105 -0.07848433 0.0022104433)
(5.006775 -0.095549239 0.0023087112)
(4.9992605 -0.11720929 0.0023597438)
(4.9933159 -0.14422765 0.0023713408)
(4.9903194 -0.17740367 0.0023318378)
(4.9955873 -0.21833825 0.0022079598)
(5.0165204 -0.26402992 0.0019521167)
(5.0491634 -0.30002787 0.0018426895)
(5.0879713 -0.32852974 0.0020648172)
(5.1302373 -0.34897172 0.0022881984)
(5.1738466 -0.36244676 0.0024598989)
(5.2174256 -0.37009062 0.0027421481)
(5.259686 -0.37288797 0.0031796762)
(5.3007783 -0.37189499 0.0035835753)
(5.3405839 -0.36740439 0.0040299388)
(5.3791911 -0.35963889 0.0045927785)
(5.4166079 -0.34868974 0.0051519368)
(5.4529343 -0.33488417 0.0056216925)
(5.4881104 -0.31849879 0.0061448567)
(5.5221801 -0.29932628 0.0066984873)
(5.5871335 -0.34519121 0.0065102838)
(5.5692634 -0.31871396 0.0068119595)
(5.5374636 -0.34095642 0.0083549511)
(5.5022074 -0.36028613 0.0080964539)
(5.4644049 -0.37734118 0.0073842663)
(5.4254755 -0.39253583 0.0066963509)
(5.3852236 -0.40537706 0.0058932593)
(5.3439959 -0.41444849 0.0050808712)
(5.3013291 -0.42028603 0.0043775499)
(5.2563394 -0.42271777 0.0034221729)
(5.2092121 -0.42124068 0.0023722353)
(5.1595637 -0.41855133 0.0015678989)
(5.1103759 -0.39946084 0.0013583208)
(5.0597982 -0.37387083 0.0013560162)
(5.0112293 -0.33872425 0.00077743945)
(4.9677683 -0.292786 0.00094982372)
(4.9439666 -0.22908225 0.0022462097)
(4.9464242 -0.17776825 0.0029150068)
(4.9580085 -0.14093417 0.0027279107)
(4.9714624 -0.11167804 0.0024436783)
(4.9853284 -0.088817293 0.002268215)
(4.9987238 -0.071637031 0.0021048994)
(5.010714 -0.058645549 0.0019092017)
(5.0210605 -0.048676872 0.0017387494)
(5.0299601 -0.040972772 0.0015955737)
(5.0375841 -0.034983954 0.0014738133)
(5.0440913 -0.030282058 0.0013677981)
(5.0496402 -0.026559918 0.0012776822)
(5.0543907 -0.023585888 0.0012000807)
(5.0584663 -0.021193336 0.001135684)
(5.0619893 -0.019247351 0.0010782713)
(5.0530844 -0.017053822 0.0019972832)
(5.0491834 -0.018503385 0.0021064064)
(5.0446008 -0.020272487 0.0022309026)
(5.0391823 -0.022456261 0.0023721025)
(5.0327611 -0.025173926 0.0025266301)
(5.0250989 -0.02860937 0.002686429)
(5.0159445 -0.033003827 0.0028366387)
(5.0050485 -0.038714354 0.0029701049)
(4.9921318 -0.0462724 0.0030477742)
(4.9766049 -0.056517292 0.003019652)
(4.9582993 -0.070793485 0.0027424168)
(4.9387895 -0.091059041 0.002133435)
(4.9179815 -0.12044602 0.0013831098)
(4.8923291 -0.16376011 0.00093648875)
(4.8738306 -0.22692585 0.00042364362)
(4.8975557 -0.33030856 -0.0029207781)
(4.9597137 -0.39066465 -0.0041713525)
(5.0227061 -0.4285686 -0.00070415109)
(5.0808755 -0.45329538 0.00064552364)
(5.1037066 -0.48809389 -0.00090079301)
(5.0862691 -0.49722168 0.0030462993)
(5.0540609 -0.4801536 0.002208093)
(5.0198283 -0.47524369 0.0044875921)
(4.9817031 -0.45156683 0.0010647955)
(4.94453 -0.44136947 0.0037927235)
(4.8991197 -0.40729781 0.00098646078)
(4.8589945 -0.3875765 0.0047988139)
(4.8003632 -0.29268545 0.010899748)
(4.7324971 -0.33086671 0.001906495)
(4.6636567 -0.28212163 -0.011987346)
(4.300453 -0.36307784 -0.026826134)
(4.5600394 -0.57949283 -0.0017730655)
(4.6814616 -0.55547585 -0.008068245)
(4.7286631 -0.60631583 -0.00059492456)
(4.7290754 -0.60892096 0.0038900402)
(4.7423601 -0.61394165 0.0014869402)
(4.7577297 -0.60031619 -0.00061480706)
(4.7806974 -0.60646864 -0.0029203617)
(4.8152631 -0.60391714 -0.0016605589)
(4.8443998 -0.60607052 -0.00034255952)
(4.8728877 -0.60744919 0.00024289913)
(4.8992053 -0.60735481 0.00087763624)
(4.9216593 -0.60696377 0.0011547123)
(4.9397471 -0.60992779 0.0016339201)
(4.9500608 -0.61286672 0.00052351587)
(4.964477 -0.60965358 0.00078382879)
(4.9789464 -0.60114999 0.00046395036)
(4.9972312 -0.60442114 -0.00056642976)
(5.0163439 -0.60188777 7.3278633e-05)
(5.0269013 -0.60442789 -0.0016085097)
(5.0355467 -0.60327484 -0.0013001279)
(5.0470452 -0.59628108 -0.0015076932)
(5.0434608 -0.59666373 8.7610605e-05)
(5.0649602 -0.56674203 -0.0012370905)
(5.0962855 -0.57234086 0.0011971579)
(5.1286583 -0.56873376 0.0010721745)
(5.1340138 -0.58629364 -0.0015069227)
(5.1244625 -0.5884097 -0.0024957574)
(5.1229245 -0.59542272 -0.0013320178)
(5.1347406 -0.59401917 -0.00074083589)
(5.143792 -0.59223086 -0.0016916184)
(5.1529921 -0.585853 -0.0017309029)
(5.1599877 -0.584928 -0.0012305829)
(5.1727834 -0.5807206 -0.0010787056)
(5.1883415 -0.57742239 -0.00010880577)
(5.2021679 -0.57526722 8.7698333e-05)
(5.2169152 -0.57178539 3.6273322e-06)
(5.2298565 -0.56702412 0.00013466238)
(5.2415273 -0.56497739 0.00059724076)
(5.2530197 -0.56381735 0.0010482596)
(5.2648311 -0.56273786 0.00091833319)
(5.2715412 -0.55878643 -0.00051930554)
(5.2785863 -0.55531096 -0.0002693583)
(5.2870661 -0.55091921 0.00097715591)
(5.2959295 -0.55030114 0.00028169067)
(5.3086163 -0.5489003 0.00075758787)
(5.3168145 -0.55058001 -0.00036329052)
(5.3244929 -0.54933014 0.00062877595)
(5.3317913 -0.5383394 1.5231018e-05)
(5.3280856 -0.54129633 0.00049359272)
(5.3353453 -0.52114437 0.00020836327)
(5.3548239 -0.51888195 0.0013889143)
(5.3777632 -0.51118599 0.0013445597)
(5.3854379 -0.52180878 -0.00072400331)
(5.3790386 -0.5257481 -0.00085170185)
(5.3797651 -0.52991317 -0.00052360725)
(5.3882599 -0.52496277 -0.00065566828)
(5.3928125 -0.52107119 -0.0015787495)
(5.3980628 -0.51818203 -0.00078950198)
(5.4048366 -0.5167853 -0.00067496916)
(5.4131141 -0.51351909 -0.00032443556)
(5.4255601 -0.50936636 0.00023571407)
(5.4371324 -0.50475522 0.00021229508)
(5.44794 -0.49717092 5.9945272e-05)
(5.456902 -0.49282897 0.00049066187)
(5.466311 -0.48990962 0.00076405134)
(5.4771431 -0.48662224 0.00092754606)
(5.4881261 -0.48010463 0.00088995467)
(5.4964863 -0.47376514 0.0014839068)
(5.5028912 -0.47121276 0.0021696365)
(5.5053706 -0.47062653 0.0021584979)
(5.5130044 -0.46824643 0.0019993274)
(5.5211663 -0.46041208 0.0024642248)
(5.5301604 -0.45852255 0.001570559)
(5.5390959 -0.45072911 0.0014706046)
(5.5430177 -0.4515433 0.00014368025)
(5.5465837 -0.44798659 0.0008326101)
(5.5578782 -0.43387846 0.00013009492)
(5.5530306 -0.44134263 0.00054871977)
(5.5501746 -0.4266292 0.0022138934)
(5.5661496 -0.4205332 0.0028451506)
(5.5856646 -0.40337907 0.0041256668)
(5.6021767 -0.38936818 0.0049659403)
(5.1125713 -0.00099660461 0.0024021)
(5.104522 -0.0010730113 0.0024531185)
(5.0962379 -0.0011258877 0.0024786108)
(5.0878333 -0.0011561485 0.0024803833)
(5.0794018 -0.0011653336 0.0024607947)
(5.0710456 -0.00115515 0.0024222385)
(5.0628445 -0.001127411 0.0023669638)
(5.0548703 -0.0010844895 0.0022977044)
(5.0471859 -0.0010288564 0.0022172102)
(5.0398392 -0.00096317116 0.0021281149)
(5.0328672 -0.00089008009 0.0020329477)
(5.0262948 -0.00081218729 0.0019340686)
(5.0201371 -0.00073173201 0.0018335397)
(5.0143986 -0.00065062674 0.0017329285)
(5.0090783 -0.00057055999 0.0016337032)
(5.0041657 -0.00049286085 0.0015369447)
(4.9996484 -0.00041870383 0.0014436519)
(5.0043164 -0.0014347889 0.025366588)
(5.0060689 -0.001424421 0.024250296)
(5.0078806 -0.0014104531 0.023126035)
(5.0097439 -0.001394034 0.022010171)
(5.0116461 -0.0013736818 0.020904228)
(5.0135787 -0.0013545987 0.019811941)
(5.0155189 -0.0013401848 0.018730103)
(5.017458 -0.0013284972 0.017651817)
(5.0193819 -0.0013174407 0.016570067)
(5.0212757 -0.0013107725 0.015481803)
(5.0231189 -0.0013088393 0.014377558)
(5.024895 -0.0013077092 0.013254982)
(5.0265886 -0.0013090369 0.012105019)
(5.028183 -0.0013128526 0.010920662)
(5.0296563 -0.001317119 0.0096954249)
(5.0309817 -0.0013239093 0.0084227011)
(5.0321175 -0.0013340183 0.0071017458)
(5.0330136 -0.0013454051 0.0057365745)
(5.0336072 -0.0013530591 0.004371128)
(5.0338621 -0.0013539952 0.0030322144)
(5.0337919 -0.0013354423 0.0017720784)
(5.0355433 -0.0015196618 0.0018462112)
(5.0356091 -0.0015398732 0.0031572947)
(5.0353535 -0.0015397592 0.0045493973)
(5.0347641 -0.0015323456 0.0059692208)
(5.0338789 -0.0015214472 0.007389939)
(5.0327561 -0.001511849 0.0087666684)
(5.0314476 -0.0015057529 0.010094029)
(5.029991 -0.0015013378 0.011371661)
(5.028415 -0.0014978436 0.012606706)
(5.0267426 -0.0014966406 0.01380703)
(5.0249902 -0.0014978528 0.014979476)
(5.0231721 -0.0014997608 0.01613259)
(5.0213026 -0.0015067544 0.017269028)
(5.0194042 -0.0015181734 0.018398944)
(5.0174931 -0.0015300576 0.0195266)
(5.0155804 -0.0015446868 0.020657299)
(5.013677 -0.0015645542 0.021800513)
(5.0118046 -0.0015849068 0.022958595)
(5.0099741 -0.0016018446 0.024128827)
(5.0081959 -0.001615807 0.025308662)
(5.0064815 -0.0016261368 0.026483418)
(5.0048493 -0.0016241109 0.027633607)
(5.0033078 -0.0016096461 0.028728903)
(5.0018766 -0.0015752641 0.029736996)
(5.0005603 -0.0015183154 0.03060104)
(4.9993644 -0.001439619 0.031267972)
(4.9982878 -0.0013430542 0.031682059)
(4.997341 -0.0012270841 0.031798391)
(4.9970509 -0.00059279788 0.024445205)
(4.9972649 -0.00067314538 0.026706674)
(4.9975353 -0.00077207853 0.028683048)
(4.9978812 -0.00088595733 0.030348447)
(4.9983039 -0.0010147222 0.031662033)
(4.9988308 -0.001150195 0.032610822)
(4.9994639 -0.0012894024 0.033174649)
(5.0002265 -0.0014220689 0.033369459)
(5.0011107 -0.0015449389 0.033208932)
(5.0021307 -0.0016475486 0.032741314)
(5.0032731 -0.0017298232 0.032013582)
(5.0045417 -0.0017905174 0.031085735)
(5.005928 -0.0018261847 0.030011769)
(5.0074296 -0.0018410295 0.028851634)
(5.0090214 -0.0018434036 0.027637945)
(5.0107002 -0.0018338348 0.026402615)
(5.0124441 -0.0018192843 0.025163944)
(5.0142436 -0.0018021419 0.023937889)
(5.0160851 -0.0017815077 0.022725306)
(5.0179592 -0.0017605972 0.021530344)
(5.0198443 -0.0017457756 0.020349748)
(5.0217282 -0.0017340249 0.019172193)
(5.0235999 -0.0017218723 0.01799263)
(5.0254442 -0.0017149281 0.016806971)
(5.0272378 -0.0017132024 0.015604677)
(5.0289685 -0.0017129233 0.014381723)
(5.0306184 -0.0017131767 0.013128981)
(5.0321743 -0.0017163415 0.011841085)
(5.0336104 -0.0017206596 0.010508893)
(5.0349036 -0.0017267253 0.0091257056)
(5.0360133 -0.0017359052 0.0076911805)
(5.036891 -0.0017465073 0.0062130525)
(5.0374752 -0.0017535276 0.0047358883)
(5.0377317 -0.0017527206 0.0032880936)
(5.0376718 -0.0017307751 0.0019237328)
(5.040243 -0.0019719891 0.0020048908)
(5.0402983 -0.0019961196 0.0034252785)
(5.0400411 -0.0019981927 0.0049316236)
(5.0394616 -0.0019913631 0.0064688306)
(5.0385957 -0.0019812279 0.0080074627)
(5.0375002 -0.0019724709 0.0095025073)
(5.0362254 -0.0019668287 0.010944789)
(5.0348077 -0.0019621332 0.012333387)
(5.0332726 -0.0019596158 0.01367597)
(5.0316454 -0.0019595691 0.014982381)
(5.0299406 -0.0019595656 0.016258055)
(5.0281727 -0.0019610218 0.01751159)
(5.0263536 -0.0019679818 0.018747642)
(5.0245078 -0.0019800684 0.019977556)
(5.0226514 -0.0019920174 0.021205924)
(5.0207941 -0.0020071825 0.022438111)
(5.0189483 -0.0020286887 0.023685944)
(5.0171339 -0.0020489302 0.024952572)
(5.0153641 -0.0020669176 0.026236104)
(5.01365 -0.0020813862 0.027534506)
(5.0120054 -0.0020904998 0.028833128)
(5.010446 -0.0020869829 0.030111498)
(5.0089816 -0.0020720164 0.031339788)
(5.0076343 -0.0020342026 0.032482141)
(5.0064103 -0.0019701269 0.033478757)
(5.0053148 -0.0018830949 0.034271406)
(5.0043494 -0.0017743385 0.034798818)
(5.0035232 -0.0016431181 0.035008921)
(5.0028269 -0.0015007513 0.034851172)
(5.0022602 -0.0013500835 0.034305247)
(5.0018077 -0.0012019212 0.033355842)
(5.0014562 -0.0010596011 0.032016126)
(5.0011879 -0.00093169789 0.030302927)
(5.0009884 -0.00081894278 0.028251211)
(5.0008481 -0.0007247901 0.025892055)
(5.0007546 -0.00064853156 0.023257415)
(5.0006887 -0.00059046525 0.020375877)
(5.0006313 -0.00054564757 0.017290373)
(5.0005529 -0.00050656336 0.014056786)
(5.0004242 -0.00046922203 0.010764185)
(5.0002246 -0.00043662279 0.0075221418)
(4.9999584 -0.00041789379 0.0044050935)
(5.0044569 -0.00049527561 0.004686996)