/*--------------------------------*- C++ -*----------------------------------*\
| =========                 |                                                 |
| \\      /  F ield         | OpenFOAM: The Open Source CFD Toolbox           |
|  \\    /   O peration     | Version:  v2012                                 |
|   \\  /    A nd           | Website:  www.openfoam.com                      |
|    \\/     M anipulation  |                                                 |
\*---------------------------------------------------------------------------*/
FoamFile
{
    version     2.0;
    format      ascii;
    class       volScalarField;
    location    "300";
    object      k;
}
// * * * * * * * * * * * * * * * * * * * * * * * * * * * * * * * * * * * * * //

dimensions      [0 2 -2 0 0 0 0];


internalField   nonuniform List<scalar> 
120951
(
0.37247124
0.37246352
0.37389307
0.37387453
0.37389665
0.37388763
0.37391778
0.37390612
0.3739217
0.37391612
0.37391835
0.37391621
0.37391564
0.37391521
0.3739152
0.37391523
0.37391527
0.37391529
0.37391529
0.37391527
0.37391522
0.3739152
0.3739152
0.37391564
0.37391621
0.37391835
0.37391612
0.3739217
0.37390613
0.37391778
0.37388764
0.37389666
0.37387453
0.37389307
0.37388159
0.37390767
0.37389533
0.37390979
0.37390499
0.3739073
0.3739056
0.37390513
0.37390478
0.37390478
0.37390481
0.37390486
0.3739049
0.37390493
0.37390495
0.37390497
0.37390499
0.373905
0.37390502
0.37390504
0.37390505
0.37390507
0.37390508
0.3739051
0.37390511
0.37390512
0.37390513
0.37390514
0.37390515
0.37390516
0.37390516
0.37390517
0.37390517
0.37390518
0.37390518
0.37390518
0.37390519
0.37390519
0.37390518
0.37390518
0.37390518
0.37390518
0.37390517
0.37390517
0.37390517
0.37390516
0.37390515
0.37390514
0.37390513
0.37390511
0.3739051
0.37390509
0.37390507
0.37390506
0.37390504
0.37390502
0.37390498
0.37390493
0.3739049
0.3739049
0.37390525
0.37390572
0.37390742
0.37390511
0.37390991
0.37389545
0.37390779
0.37388171
0.37389319
0.37387466
0.37389682
0.37388791
0.37391821
0.37390681
0.37392268
0.37391749
0.37392014
0.37391847
0.37391839
0.37391847
0.37391896
0.37391947
0.37391996
0.37392036
0.37392065
0.37392082
0.37392084
0.37392074
0.37392054
0.37392062
0.37392071
0.37392225
0.37391937
0.37392423
0.37390803
0.37391909
0.37388854
0.37389726
0.37387502
0.37389356
0.37388214
0.37390828
0.37389607
0.37391065
0.37390601
0.37390848
0.37390696
0.37390665
0.37390647
0.37390661
0.37390677
0.37390693
0.37390706
0.37390715
0.37390722
0.37390727
0.37390733
0.37390743
0.37390766
0.37390812
0.37390891
0.37391004
0.37391148
0.37391312
0.37391485
0.37391657
0.37391815
0.3739192
0.37391924
0.37391918
0.37391912
0.37391905
0.37391898
0.37391892
0.37391885
0.37391879
0.37391873
0.37391867
0.37391861
0.37391854
0.37391838
0.3739172
0.3739155
0.37391367
0.37391182
0.37391006
0.37390853
0.37390731
0.37390644
0.3739059
0.37390561
0.37390547
0.37390538
0.37390532
0.37390526
0.3739052
0.37390513
0.37390504
0.37390498
0.37390495
0.37390526
0.37390571
0.37390738
0.37390505
0.37390983
0.37389536
0.37390769
0.3738816
0.37245904
0.37247746
0.37247163
0.37248503
0.37248413
0.37248669
0.37248557
0.37248486
0.37248436
0.37248425
0.37248429
0.37248441
0.37248454
0.37248467
0.37248479
0.37248494
0.37248512
0.37248535
0.37248574
0.3724864
0.3724874
0.37248875
0.37249039
0.37249226
0.37249421
0.3724961
0.37249778
0.37249888
0.37249921
0.37249938
0.37249952
0.37249968
0.37249982
0.37249997
0.37250012
0.37250028
0.37250045
0.37250061
0.37250077
0.3725009
0.3725009
0.3725001
0.37249871
0.37249709
0.37249544
0.37249386
0.37249245
0.37249134
0.37249057
0.37249012
0.3724899
0.3724898
0.37248974
0.37248967
0.37248958
0.37248942
0.37248923
0.37248901
0.37248882
0.37248874
0.37248903
0.37248948
0.37249034
0.37248751
0.37248816
0.37247455
0.37248019
0.37246167
0.37246607
0.37244833
0.3709563
0.36934411
0.36768947
0.3659972
0.36432472
0.36268677
0.36110445
0.35959382
0.35817849
0.35689604
0.35580757
0.35501258
0.35465112
0.35485175
0.35553404
0.35689138
0.35915768
0.3627167
0.36802059
0.29214326
0.29318665
0.2942424
0.29531038
0.29639026
0.29748151
0.29858339
0.29969489
0.30081476
0.30194157
0.30307361
0.30420903
0.30534588
0.30648228
0.30761655
0.3087474
0.30987412
0.31099676
0.31211621
0.31323422
0.31435342
0.31547699
0.31660852
0.31775165
0.31890969
0.32008553
0.32128139
0.32249888
0.32373891
0.32500186
0.32628763
0.32759579
0.32892566
0.33027644
0.33164727
0.33303731
0.33444574
0.33587182
0.3373149
0.33877443
0.34024991
0.34174095
0.34324724
0.34476853
0.34630464
0.34785544
0.34942083
0.35100077
0.35259529
0.3542045
0.35582863
0.35746818
0.35912407
0.36079763
0.36248999
0.36420038
0.36592177
0.3676401
0.36932332
0.37094347
0.37093554
0.37094283
0.37094127
0.3709511
0.37095322
0.37095558
0.3709551
0.37095435
0.37095374
0.37095351
0.3709535
0.37095363
0.37095381
0.370954
0.37095421
0.37095443
0.3709547
0.37095504
0.37095555
0.37095636
0.37095752
0.37095903
0.37096085
0.37096288
0.37096497
0.37096696
0.3709687
0.37096982
0.3709703
0.37097059
0.37097084
0.37097108
0.37097134
0.3709716
0.37097186
0.37097214
0.37097244
0.37097272
0.370973
0.37097325
0.3709733
0.37097271
0.37097152
0.37097002
0.37096844
0.37096692
0.37096557
0.37096452
0.3709638
0.37096343
0.37096328
0.37096327
0.37096329
0.37096332
0.3709633
0.37096322
0.3709631
0.37096297
0.37096291
0.37096303
0.37096347
0.37096401
0.37096424
0.37096163
0.37095926
0.37094923
0.37095061
0.37094321
0.37095107
0.36934124
0.3676767
0.36598948
0.36431697
0.36268064
0.36109826
0.35958666
0.35816931
0.35688341
0.35578884
0.35498394
0.3546059
0.3547894
0.35545119
0.3567865
0.35908032
0.36277146
0.36887317
0.37125262
0.36534766
0.36085178
0.35775625
0.35572477
0.35446655
0.35379165
0.35355366
0.35381161
0.3545027
0.3555023
0.35671189
0.35806729
0.35952687
0.36106405
0.36266167
0.36430729
0.36598773
0.36768282
0.36936066
0.37097886
0.37249765
0.37251402
0.37251382
0.37251725
0.37251659
0.37251646
0.37251635
0.37251647
0.37251648
0.37251628
0.37251582
0.37251514
0.37251424
0.37251324
0.37251223
0.37251137
0.37251104
0.37251105
0.3725119
0.3725089
0.37250972
0.37249402
0.37249681
0.37247104
0.37246981
0.37244639
0.37095051
0.36933031
0.36766111
0.36594401
0.36423188
0.36253244
0.36085671
0.35920513
0.35757716
0.3559721
0.35438997
0.35283117
0.35129635
0.34978624
0.34830154
0.34684283
0.34541058
0.34400499
0.34262603
0.3412733
0.33994608
0.33864324
0.33736324
0.33610421
0.33486393
0.33363992
0.33242949
0.33122988
0.33003834
0.32885233
0.3288808
0.33006393
0.33125263
0.33244957
0.33365751
0.33487919
0.3361173
0.33737433
0.33865252
0.33995375
0.34127955
0.34263105
0.34400896
0.34541366
0.34684516
0.34830323
0.34978739
0.35129701
0.35283139
0.35438979
0.35597158
0.35757638
0.3592042
0.36085559
0.36253087
0.36422856
0.36594107
0.36765349
0.36933341
0.37095127
0.37095135
0.36933134
0.36764631
0.36593373
0.36422182
0.36252597
0.36085234
0.35920224
0.35757537
0.35597138
0.35439034
0.35283269
0.35129913
0.34979044
0.34830737
0.34685061
0.34542067
0.34401786
0.34264217
0.34129331
0.33997054
0.33867278
0.33739849
0.33614578
0.33491238
0.33369577
0.33249326
0.33130206
0.33011936
0.3289424
0.3290446
0.33021139
0.33138424
0.33256596
0.33375946
0.3349676
0.33619315
0.33743871
0.33870656
0.33999862
0.3413164
0.34266099
0.34403305
0.34543286
0.34686032
0.34831508
0.34979654
0.35130395
0.35283646
0.35439322
0.35597348
0.35757669
0.35920273
0.36085194
0.36252481
0.36422045
0.36593345
0.36764912
0.36933989
0.37096753
0.37097089
0.36934498
0.36765408
0.36593787
0.36422454
0.36252889
0.36085628
0.35920744
0.35758183
0.35597914
0.35439955
0.35284368
0.35131238
0.34980661
0.3483273
0.34687531
0.34545135
0.34405587
0.34268905
0.3413507
0.34004023
0.33875657
0.33749821
0.33626321
0.33504922
0.33385357
0.33267334
0.3315056
0.33034729
0.32919552
0.32940343
0.33053448
0.3316727
0.33282115
0.33398305
0.33516149
0.33635953
0.33757995
0.33882521
0.34009729
0.34139771
0.34272747
0.3440871
0.34547667
0.34689588
0.34834412
0.34982056
0.35132418
0.35285392
0.35440869
0.35598752
0.35758971
0.35921497
0.36086357
0.36253606
0.3642318
0.3659456
0.36766281
0.36935538
0.37098362
0.37098645
0.36935964
0.36766767
0.36595092
0.36423766
0.36254252
0.36087064
0.35922267
0.3575981
0.35599677
0.35441909
0.3528659
0.35133834
0.34983763
0.34836506
0.34692181
0.34550891
0.34412717
0.34277708
0.3414587
0.34017162
0.3389149
0.33768704
0.33648599
0.33530918
0.33415366
0.33301616
0.33189333
0.33078176
0.33110067
0.3321776
0.33326708
0.33437283
0.33549855
0.33664777
0.33782367
0.33902895
0.34026572
0.34153549
0.34283911
0.34417685
0.34554843
0.34695312
0.34838987
0.34985739
0.35135421
0.35287885
0.35442984
0.35600587
0.35760592
0.35922943
0.36087646
0.36254745
0.36424176
0.36595436
0.3676707
0.36936257
0.3709894
0.37098955
0.36936338
0.36767207
0.3659564
0.36424463
0.36255127
0.36088133
0.35923544
0.35761327
0.35601489
0.354441
0.35289285
0.35137198
0.34988012
0.34841907
0.34699061
0.34559638
0.34423778
0.34291585
0.34163114
0.3403836
0.33917247
0.33799627
0.3368528
0.33573913
0.3346518
0.33358691
0.33254037
0.33150801
0.33202843
0.33300357
0.3339949
0.33500712
0.33604494
0.33711275
0.33821443
0.33935319
0.34053136
0.34175043
0.34301096
0.34431275
0.34565487
0.34703585
0.34845385
0.34990677
0.35139241
0.35290858
0.3544532
0.35602445
0.35762084
0.35924145
0.36088607
0.36255494
0.36424735
0.36595831
0.36767333
0.36936411
0.37098985
0.37099055
0.3693653
0.36767508
0.36596074
0.36425058
0.3625591
0.36089135
0.35924811
0.35762928
0.35603527
0.35446722
0.35292693
0.35141659
0.34993871
0.34849599
0.34709118
0.34572697
0.34440582
0.34312977
0.34190025
0.34071787
0.33958229
0.33849204
0.33744458
0.3364363
0.33546274
0.33451874
0.33359878
0.3326973
0.33356402
0.33437038
0.33519766
0.33605263
0.33694211
0.33787236
0.33884876
0.33987554
0.34095555
0.34209021
0.34327958
0.34452249
0.34581679
0.34715964
0.34854774
0.34997761
0.35144575
0.35294883
0.35448376
0.35604789
0.35763905
0.35925578
0.36089744
0.36256397
0.36425446
0.36596381
0.36767746
0.36936707
0.37099182
0.37099334
0.36936917
0.36768021
0.36596732
0.36425887
0.36256947
0.36090435
0.35926455
0.35765037
0.35606273
0.35450347
0.35297524
0.3514813
0.35002545
0.34861191
0.34724516
0.34592978
0.34467022
0.34347046
0.34233366
0.34126178
0.34025524
0.33931256
0.33843036
0.33760339
0.33682479
0.33608648
0.33537973
0.33469586
0.3367084
0.33725974
0.33784557
0.33847762
0.33916696
0.33992303
0.34075291
0.34166105
0.34264913
0.34371617
0.34485908
0.34607319
0.34735289
0.3486921
0.35008472
0.3515249
0.35300726
0.35452704
0.35608018
0.35766343
0.35927445
0.36091197
0.36257542
0.36426355
0.36597101
0.36768308
0.36937133
0.37099489
0.37099631
0.36937335
0.36768582
0.36597464
0.36426831
0.36258166
0.36092024
0.35928553
0.35767844
0.35610072
0.35455531
0.35304627
0.35157868
0.35015861
0.34879301
0.34748964
0.34625676
0.34510282
0.34403584
0.34306263
0.3421879
0.34141317
0.34073582
0.34014908
0.33964231
0.3392016
0.33881124
0.3384554
0.34084469
0.34099499
0.34119404
0.34146375
0.34182583
0.34229752
0.34289054
0.34361048
0.34445594
0.34542027
0.34649361
0.34766442
0.34892076
0.35025121
0.35164535
0.35309402
0.3545894
0.35612501
0.35769576
0.35929792
0.36092914
0.3625881
0.36427299
0.36597805
0.36768829
0.36937509
0.37099747
0.37099831
0.36937645
0.36769037
0.36598115
0.36427755
0.36259475
0.3609388
0.35931189
0.35771589
0.3561539
0.35463067
0.3531527
0.35172829
0.35036769
0.34908318
0.34788902
0.34680127
0.34583699
0.34501278
0.34434242
0.34383382
0.34348603
0.34328317
0.34320253
0.34321739
0.34329811
0.34342056
0.34609501
0.34571698
0.3453948
0.34516352
0.3450539
0.34509439
0.34532302
0.3457546
0.34638705
0.34720279
0.34817868
0.34929016
0.35051443
0.35183156
0.35322488
0.35468077
0.3561884
0.35773944
0.35932779
0.3609494
0.36260171
0.36428202
0.36598395
0.36769207
0.36937743
0.37099881
0.37099904
0.36937808
0.36769345
0.36598655
0.36428653
0.36260915
0.36096122
0.35934605
0.35776709
0.35622961
0.35474146
0.35331345
0.35195983
0.35069894
0.34955381
0.34855252
0.34772771
0.34711381
0.34674003
0.34661537
0.34671546
0.34700887
0.34742504
0.3479596
0.34859389
0.34930506
0.3532597
0.35208021
0.35099485
0.35004013
0.34924806
0.34864338
0.34822878
0.34801193
0.34806504
0.34841156
0.34903362
0.34988828
0.35092968
0.35211807
0.35342132
0.35481446
0.35627853
0.35779944
0.35936705
0.36097451
0.36261727
0.36429126
0.36598911
0.36769469
0.36937857
0.37099913
0.37099933
0.36937907
0.36769593
0.36599174
0.36429628
0.36262613
0.36098935
0.35939094
0.3578368
0.35633583
0.35490109
0.35355105
0.35231111
0.35121554
0.35030921
0.3496479
0.34928963
0.34926511
0.34954999
0.35007067
0.3508585
0.35191726
0.35322986
0.35476228
0.35646947
0.3621787
0.35957287
0.35721554
0.35517204
0.35349084
0.35219192
0.35126252
0.35067329
0.35037242
0.35041795
0.35083193
0.35156464
0.35254289
0.35370432
0.35500188
0.35640151
0.35787898
0.35941743
0.36100545
0.3626355
0.36430139
0.36599428
0.36769701
0.36937944
0.37099946
0.37099928
0.36937915
0.36769734
0.36599608
0.3643059
0.36264461
0.36102202
0.35944564
0.35792503
0.35647465
0.35511612
0.35388108
0.35281503
0.35198193
0.35146635
0.35134509
0.35161451
0.35221103
0.35320915
0.3546752
0.35667865
0.3592542
0.36235857
0.36592285
0.36454079
0.36063266
0.35761796
0.35542753
0.35390727
0.35292691
0.35239091
0.3522049
0.35246723
0.35312502
0.35407862
0.35524131
0.35655317
0.35797326
0.35947417
0.36103783
0.36265235
0.36430867
0.36599591
0.36769544
0.36937624
0.37099592
0.3709924
0.36937163
0.36769124
0.36599328
0.36430908
0.36265795
0.36105187
0.35950156
0.35802145
0.35663374
0.35537263
0.35429003
0.35346404
0.35300316
0.35300504
0.35342681
0.35430338
0.35575971
0.35795819
0.36115277
0.36557858
0.36213479
0.35639021
0.35200585
0.34853157
0.34566514
0.34317646
0.34116286
0.33961886
0.33845996
0.3375899
0.33693162
0.336428
0.33603831
0.33573384
0.33549441
0.33530595
0.33515885
0.33504657
0.3349646
0.33490916
0.33487602
0.33486089
0.33485419
0.33484324
0.33482794
0.33480855
0.33478534
0.33475847
0.33472804
0.33469416
0.33465708
0.33461711
0.3345746
0.33452991
0.33448339
0.33443537
0.33438613
0.33433597
0.33428516
0.33423394
0.33418255
0.33413123
0.33408017
0.33402956
0.33397957
0.33393036
0.33388204
0.33383473
0.33378853
0.33374351
0.33369974
0.33365727
0.33361613
0.33357636
0.33353797
0.33350097
0.33346536
0.33343114
0.33339831
0.33336686
0.33333678
0.33330806
0.33328068
0.33325465
0.33322995
0.33320658
0.33318453
0.33316381
0.33314441
0.33312632
0.33310953
0.33309405
0.33307985
0.33306691
0.3330552
0.3330447
0.33303537
0.33302715
0.33302
0.33301382
0.33300851
0.33300392
0.33299993
0.33299641
0.3329933
0.33299067
0.33298864
0.33298737
0.33298682
0.33298677
0.33298692
0.33298703
0.33441288
0.33585224
0.33730522
0.3387719
0.34025239
0.34174677
0.34325511
0.3447775
0.34631402
0.34786475
0.34942978
0.35100921
0.35260316
0.35421181
0.35583544
0.35747455
0.35913003
0.36080345
0.36249613
0.36420834
0.36592971
0.36765313
0.36932631
0.37094879
0.3724458
0.37246353
0.37094351
0.36932343
0.36764035
0.36592223
0.36420114
0.36249116
0.36079933
0.35912641
0.35747127
0.35583255
0.35420933
0.35260105
0.35100743
0.34942829
0.34786348
0.34631295
0.34477659
0.34325434
0.34174612
0.34025185
0.33877146
0.33730487
0.33585197
0.33441269
0.33441238
0.33441223
0.33441254
0.33441356
0.3344153
0.33441758
0.33442023
0.33442319
0.3344265
0.33443028
0.33443467
0.33443979
0.33444575
0.33445262
0.33446045
0.33446928
0.33447915
0.33449009
0.33450213
0.33451529
0.33452959
0.33454506
0.33456169
0.33457951
0.33459852
0.33461874
0.33464018
0.33466284
0.33468673
0.33471187
0.33473827
0.33476594
0.33479489
0.33482514
0.33485669
0.33488955
0.33492372
0.33495919
0.33499595
0.33503398
0.33507326
0.33511374
0.33515536
0.33519806
0.33524177
0.33528638
0.33533178
0.33537784
0.33542441
0.33547132
0.33551837
0.33556538
0.33561212
0.33565835
0.33570383
0.33574829
0.33579146
0.33583301
0.33587262
0.33590994
0.3359446
0.3359763
0.33600479
0.33602996
0.33605172
0.33606997
0.33608444
0.33609487
0.3361013
0.33736045
0.33735435
0.33734451
0.33733097
0.337314
0.33729385
0.33727058
0.33724424
0.33721494
0.33718292
0.33714848
0.337112
0.3370738
0.33703421
0.33699351
0.33695196
0.33690982
0.3368673
0.33682462
0.33678198
0.33673955
0.33669752
0.33665603
0.33661521
0.33657518
0.33653603
0.33649785
0.33646071
0.33642466
0.33638974
0.33635599
0.33632344
0.33629208
0.33626193
0.336233
0.33620528
0.33617876
0.33615343
0.33612928
0.33610629
0.33608445
0.33606376
0.33604418
0.3360257
0.33600833
0.33599203
0.33597681
0.33596263
0.33594948
0.33593735
0.33592622
0.33591607
0.33590686
0.33589856
0.33589116
0.33588463
0.33587891
0.33587397
0.33586975
0.33586615
0.33586305
0.33586032
0.33585784
0.33585556
0.33585356
0.33585206
0.33585125
0.33585116
0.33585152
0.33730427
0.3373037
0.3373036
0.33730422
0.33730554
0.33730731
0.33730928
0.33731136
0.33731361
0.33731613
0.33731906
0.33732253
0.3373266
0.33733134
0.33733678
0.33734296
0.3373499
0.33735762
0.33736615
0.33737552
0.33738575
0.33739687
0.33740888
0.33742182
0.3374357
0.33745053
0.33746635
0.33748314
0.33750095
0.33751977
0.33753963
0.33756055
0.33758253
0.3376056
0.33762975
0.33765501
0.33768138
0.33770885
0.33773743
0.33776711
0.33779786
0.33782967
0.3378625
0.3378963
0.33793102
0.33796659
0.33800293
0.33803992
0.33807747
0.33811543
0.33815366
0.33819199
0.33823025
0.33826824
0.33830577
0.3383426
0.33837851
0.33841321
0.33844643
0.33847783
0.33850706
0.33853381
0.33855785
0.33857908
0.33859749
0.33861307
0.33862561
0.33863482
0.33864059
0.33994357
0.33993815
0.33992959
0.33991809
0.33990396
0.33988737
0.33986827
0.33984661
0.33982249
0.33979613
0.33976783
0.33973795
0.33970678
0.33967459
0.33964164
0.33960813
0.33957427
0.33954022
0.33950616
0.33947226
0.33943865
0.33940546
0.33937281
0.3393408
0.33930951
0.33927901
0.33924937
0.33922062
0.33919282
0.33916598
0.33914012
0.33911526
0.33909139
0.33906853
0.33904667
0.33902579
0.3390059
0.33898698
0.33896901
0.33895197
0.33893586
0.33892066
0.33890634
0.3388929
0.33888032
0.33886857
0.33885764
0.33884751
0.33883817
0.33882958
0.33882173
0.33881459
0.33880815
0.33880236
0.33879723
0.33879271
0.33878879
0.33878544
0.33878262
0.33878024
0.3387782
0.33877637
0.33877461
0.33877289
0.3387713
0.33877012
0.33876964
0.33876993
0.3387707
0.34025091
0.34024993
0.34024947
0.34024983
0.34025092
0.34025237
0.3402539
0.34025538
0.34025687
0.3402585
0.3402604
0.34026269
0.34026544
0.34026867
0.3402724
0.34027666
0.34028146
0.34028683
0.34029277
0.34029932
0.34030649
0.34031431
0.3403228
0.34033198
0.34034186
0.34035247
0.34036382
0.34037594
0.34038883
0.34040251
0.34041701
0.34043233
0.34044849
0.34046551
0.3404834
0.34050216
0.34052182
0.34054236
0.34056379
0.34058612
0.34060933
0.34063341
0.34065833
0.34068407
0.3407106
0.34073785
0.34076577
0.34079429
0.34082332
0.34085276
0.34088251
0.34091243
0.34094239
0.34097224
0.34100182
0.34103096
0.34105948
0.34108714
0.34111372
0.34113892
0.34116241
0.34118389
0.34120313
0.34122008
0.34123482
0.34124747
0.34125792
0.34126583
0.34127092
0.34262376
0.34261897
0.34261167
0.34260225
0.34259108
0.34257818
0.34256337
0.3425465
0.34252762
0.34250694
0.34248477
0.34246141
0.34243714
0.34241217
0.3423867
0.34236089
0.34233488
0.34230881
0.34228281
0.342257
0.34223148
0.34220636
0.34218171
0.3421576
0.34213411
0.34211127
0.34208913
0.34206773
0.34204708
0.34202719
0.34200809
0.34198978
0.34197226
0.34195551
0.34193954
0.34192434
0.3419099
0.34189621
0.34188325
0.34187101
0.34185947
0.34184862
0.34183844
0.34182892
0.34182004
0.34181177
0.34180411
0.34179704
0.34179053
0.34178456
0.34177912
0.34177419
0.34176974
0.34176577
0.34176225
0.34175916
0.34175651
0.34175427
0.34175242
0.34175091
0.34174962
0.34174843
0.34174718
0.34174581
0.34174445
0.34174342
0.34174314
0.34174378
0.34174498
0.34325298
0.34325154
0.34325074
0.34325094
0.34325195
0.34325326
0.3432545
0.34325556
0.34325651
0.3432575
0.34325869
0.34326017
0.34326199
0.34326416
0.34326671
0.34326961
0.34327289
0.34327657
0.34328065
0.34328514
0.34329008
0.34329547
0.34330134
0.34330769
0.34331456
0.34332195
0.34332989
0.34333838
0.34334744
0.3433571
0.34336736
0.34337823
0.34338973
0.34340188
0.34341468
0.34342815
0.3434423
0.34345711
0.34347261
0.3434888
0.34350567
0.34352321
0.34354141
0.34356026
0.34357972
0.34359977
0.34362036
0.34364144
0.34366294
0.34368481
0.34370697
0.3437293
0.34375172
0.34377412
0.34379639
0.34381839
0.34383999
0.34386103
0.34388131
0.3439006
0.34391858
0.34393497
0.34394955
0.34396228
0.34397337
0.34398313
0.34399157
0.34399831
0.34400283
0.34540848
0.34540416
0.34539792
0.34539039
0.345382
0.34537263
0.34536187
0.34534946
0.34533542
0.34531997
0.3453034
0.34528599
0.34526797
0.34524951
0.34523074
0.34521177
0.3451927
0.34517365
0.34515468
0.34513589
0.34511736
0.34509915
0.34508132
0.34506393
0.345047
0.34503059
0.34501472
0.3449994
0.34498465
0.34497048
0.34495689
0.34494389
0.34493148
0.34491965
0.34490839
0.3448977
0.34488757
0.34487799
0.34486894
0.34486041
0.3448524
0.34484488
0.34483785
0.34483129
0.34482518
0.34481951
0.34481426
0.34480943
0.34480499
0.34480092
0.34479722
0.34479386
0.34479083
0.34478813
0.34478573
0.34478364
0.34478186
0.34478039
0.34477921
0.34477829
0.34477754
0.3447768
0.3447759
0.34477475
0.34477347
0.34477246
0.3447723
0.34477328
0.34477498
0.34631105
0.34630905
0.3463079
0.34630803
0.34630907
0.34631036
0.34631143
0.34631219
0.34631275
0.3463133
0.346314
0.34631493
0.34631612
0.34631757
0.34631929
0.34632127
0.34632349
0.34632597
0.34632873
0.34633177
0.3463351
0.34633874
0.34634271
0.34634701
0.34635165
0.34635667
0.34636206
0.34636784
0.34637402
0.34638062
0.34638764
0.34639511
0.34640302
0.34641139
0.34642023
0.34642955
0.34643936
0.34644965
0.34646044
0.34647172
0.3464835
0.34649578
0.34650853
0.34652176
0.34653545
0.34654958
0.34656411
0.34657901
0.34659425
0.34660977
0.34662552
0.34664143
0.34665743
0.34667346
0.34668942
0.34670523
0.34672082
0.34673606
0.34675082
0.34676489
0.34677801
0.34678988
0.34680028
0.34680919
0.34681694
0.34682405
0.34683073
0.34683657
0.34684076
0.34829944
0.34829531
0.34828978
0.34828383
0.34827791
0.34827167
0.34826445
0.34825589
0.34824599
0.34823499
0.34822318
0.34821082
0.34819808
0.3481851
0.34817195
0.3481587
0.3481454
0.34813214
0.34811897
0.34810593
0.34809309
0.3480805
0.34806819
0.34805619
0.34804453
0.34803325
0.34802235
0.34801184
0.34800174
0.34799206
0.34798278
0.34797392
0.34796548
0.34795744
0.3479498
0.34794256
0.34793572
0.34792925
0.34792315
0.34791741
0.34791202
0.34790698
0.34790227
0.34789788
0.34789379
0.34789001
0.34788651
0.34788328
0.34788031
0.34787759
0.3478751
0.34787285
0.34787081
0.34786898
0.34786736
0.34786595
0.34786476
0.3478638
0.34786307
0.34786257
0.34786219
0.34786178
0.34786115
0.34786013
0.34785883
0.34785772
0.34785759
0.34785892
0.34786125
0.34942567
0.34942295
0.34942144
0.34942159
0.34942279
0.34942414
0.34942511
0.34942564
0.3494259
0.34942613
0.34942648
0.34942703
0.34942781
0.34942878
0.34942994
0.34943128
0.34943278
0.34943444
0.34943628
0.3494383
0.34944051
0.34944292
0.34944554
0.34944837
0.34945143
0.34945473
0.34945828
0.34946209
0.34946616
0.34947051
0.34947515
0.34948009
0.34948532
0.34949086
0.34949673
0.34950292
0.34950944
0.34951629
0.34952348
0.34953102
0.34953889
0.3495471
0.34955564
0.34956451
0.34957371
0.3495832
0.34959298
0.34960302
0.3496133
0.34962378
0.34963442
0.34964518
0.34965603
0.3496669
0.34967775
0.34968853
0.3496992
0.34970969
0.34971991
0.34972971
0.34973883
0.34974698
0.34975389
0.34975956
0.34976442
0.34976925
0.34977456
0.3497799
0.34978407
0.35129403
0.35128971
0.35128445
0.35127967
0.35127583
0.35127224
0.35126794
0.35126247
0.35125586
0.35124839
0.35124036
0.35123202
0.3512235
0.35121486
0.35120615
0.3511974
0.35118864
0.35117991
0.35117124
0.35116268
0.35115425
0.35114599
0.35113792
0.35113006
0.35112243
0.35111505
0.35110793
0.35110107
0.35109448
0.35108816
0.35108212
0.35107635
0.35107086
0.35106564
0.35106068
0.35105599
0.35105155
0.35104736
0.35104341
0.3510397
0.35103622
0.35103296
0.35102991
0.35102707
0.35102443
0.35102197
0.3510197
0.35101759
0.35101565
0.35101387
0.35101223
0.35101074
0.35100938
0.35100815
0.35100705
0.35100609
0.3510053
0.35100468
0.35100426
0.35100404
0.35100394
0.3510038
0.35100338
0.35100245
0.35100104
0.35099971
0.3509995
0.35100119
0.35100434
0.35259742
0.35259377
0.35259189
0.35259219
0.35259367
0.35259514
0.35259603
0.35259635
0.35259637
0.35259636
0.35259647
0.35259678
0.35259727
0.35259793
0.35259871
0.35259962
0.35260062
0.35260173
0.35260294
0.35260426
0.3526057
0.35260725
0.35260893
0.35261075
0.3526127
0.3526148
0.35261705
0.35261946
0.35262204
0.35262479
0.35262773
0.35263085
0.35263416
0.35263767
0.35264138
0.3526453
0.35264942
0.35265376
0.35265832
0.3526631
0.35266809
0.3526733
0.35267873
0.35268436
0.3526902
0.35269623
0.35270245
0.35270884
0.35271538
0.35272205
0.35272883
0.35273569
0.35274261
0.35274955
0.35275649
0.35276341
0.35277029
0.35277711
0.35278383
0.35279032
0.35279638
0.35280167
0.35280589
0.35280897
0.35281143
0.35281436
0.35281871
0.35282403
0.35282864
0.35438717
0.35438214
0.35437661
0.35437259
0.35437047
0.35436904
0.35436701
0.35436384
0.35435965
0.35435479
0.3543496
0.35434427
0.35433889
0.35433351
0.35432811
0.35432271
0.35431731
0.35431194
0.3543066
0.35430133
0.35429615
0.35429107
0.3542861
0.35428127
0.35427658
0.35427204
0.35426766
0.35426344
0.35425939
0.35425551
0.35425179
0.35424824
0.35424487
0.35424165
0.35423861
0.35423572
0.35423299
0.3542304
0.35422797
0.35422568
0.35422353
0.35422151
0.35421963
0.35421786
0.35421622
0.35421468
0.35421324
0.35421191
0.35421067
0.35420953
0.35420847
0.35420749
0.35420659
0.35420576
0.35420502
0.35420437
0.35420384
0.35420345
0.35420323
0.3542032
0.35420332
0.35420341
0.3542032
0.35420235
0.35420081
0.35419916
0.35419873
0.35420082
0.35420505
0.3558275
0.35582258
0.35582027
0.35582085
0.35582269
0.3558243
0.35582508
0.35582518
0.35582498
0.35582477
0.35582472
0.35582486
0.35582517
0.35582561
0.35582615
0.35582676
0.35582743
0.35582817
0.35582895
0.3558298
0.35583071
0.35583169
0.35583274
0.35583386
0.35583505
0.35583634
0.3558377
0.35583916
0.35584071
0.35584237
0.35584413
0.35584599
0.35584797
0.35585007
0.35585228
0.35585461
0.35585706
0.35585964
0.35586235
0.35586519
0.35586815
0.35587124
0.35587446
0.3558778
0.35588126
0.35588483
0.35588851
0.35589229
0.35589616
0.3559001
0.35590411
0.35590817
0.35591226
0.35591636
0.35592047
0.35592459
0.35592873
0.35593288
0.35593705
0.35594116
0.35594504
0.35594832
0.35595062
0.35595176
0.3559523
0.35595368
0.35595747
0.35596338
0.35596899
0.35757373
0.35756731
0.35756083
0.35755716
0.35755645
0.35755669
0.35755627
0.35755466
0.35755208
0.357549
0.35754577
0.35754256
0.35753942
0.35753632
0.35753326
0.3575302
0.35752716
0.35752413
0.35752113
0.35751815
0.35751523
0.35751235
0.35750954
0.35750681
0.35750416
0.35750158
0.35749909
0.3574967
0.35749439
0.35749218
0.35749007
0.35748804
0.35748611
0.35748427
0.35748253
0.35748087
0.3574793
0.35747781
0.3574764
0.35747508
0.35747382
0.35747264
0.35747153
0.35747049
0.35746951
0.35746859
0.35746772
0.35746691
0.35746614
0.35746542
0.35746475
0.35746412
0.35746352
0.35746297
0.35746247
0.35746203
0.35746166
0.35746142
0.35746133
0.35746145
0.35746174
0.35746206
0.35746209
0.35746139
0.35745974
0.35745771
0.35745696
0.35745951
0.35746526
0.35911918
0.35911243
0.35910959
0.35911055
0.35911275
0.3591144
0.35911498
0.3591148
0.35911435
0.35911398
0.35911382
0.35911385
0.35911405
0.35911435
0.35911471
0.35911513
0.35911557
0.35911605
0.35911656
0.35911709
0.35911765
0.35911825
0.35911888
0.35911954
0.35912024
0.35912098
0.35912176
0.35912259
0.35912347
0.3591244
0.35912538
0.35912642
0.35912752
0.35912867
0.35912988
0.35913115
0.3591325
0.3591339
0.35913538
0.35913692
0.35913852
0.35914019
0.35914193
0.35914373
0.35914559
0.35914751
0.35914948
0.3591515
0.35915357
0.35915568
0.35915781
0.35915997
0.35916215
0.35916433
0.35916652
0.35916874
0.35917099
0.35917332
0.35917575
0.35917827
0.35918073
0.35918277
0.35918389
0.35918375
0.35918286
0.35918298
0.35918662
0.3591939
0.3592014
0.36085254
0.36084348
0.36083522
0.36083154
0.36083199
0.3608334
0.36083393
0.36083314
0.36083146
0.36082947
0.3608275
0.36082569
0.36082401
0.36082242
0.36082089
0.36081938
0.36081787
0.36081637
0.36081488
0.36081341
0.36081195
0.36081052
0.36080911
0.36080774
0.36080641
0.36080511
0.36080385
0.36080264
0.36080147
0.36080034
0.36079926
0.36079823
0.36079723
0.36079628
0.36079538
0.36079452
0.36079369
0.36079291
0.36079216
0.36079146
0.36079078
0.36079014
0.36078954
0.36078896
0.36078841
0.36078789
0.36078739
0.36078691
0.36078645
0.36078601
0.3607856
0.3607852
0.36078481
0.36078445
0.36078411
0.36078381
0.36078356
0.36078341
0.36078341
0.36078362
0.36078406
0.36078463
0.36078499
0.36078458
0.36078299
0.36078065
0.36077944
0.36078255
0.36079046
0.36248017
0.36247113
0.36246787
0.36246945
0.3624719
0.3624734
0.36247358
0.36247304
0.36247235
0.36247184
0.36247159
0.36247157
0.36247168
0.36247189
0.36247214
0.36247241
0.36247271
0.36247301
0.36247333
0.36247365
0.36247399
0.36247434
0.3624747
0.36247507
0.36247545
0.36247585
0.36247626
0.3624767
0.36247715
0.36247763
0.36247812
0.36247864
0.36247918
0.36247975
0.36248034
0.36248096
0.3624816
0.36248227
0.36248297
0.3624837
0.36248446
0.36248524
0.36248605
0.3624869
0.36248776
0.36248864
0.36248955
0.36249048
0.36249142
0.36249237
0.36249334
0.36249432
0.3624953
0.36249627
0.36249726
0.36249827
0.36249934
0.36250051
0.36250185
0.36250339
0.36250505
0.36250649
0.36250711
0.36250634
0.36250451
0.36250345
0.3625071
0.36251637
0.36252745
0.36422469
0.36421122
0.36420143
0.36419806
0.36419991
0.36420207
0.36420301
0.36420246
0.36420115
0.36419973
0.36419851
0.36419754
0.36419676
0.36419608
0.36419546
0.36419487
0.36419428
0.36419369
0.36419309
0.36419251
0.36419192
0.36419135
0.36419077
0.36419021
0.36418966
0.36418913
0.3641886
0.36418809
0.3641876
0.36418711
0.36418665
0.3641862
0.36418577
0.36418536
0.36418495
0.36418456
0.36418419
0.36418383
0.36418349
0.36418315
0.36418283
0.36418252
0.36418222
0.36418193
0.36418165
0.36418137
0.3641811
0.36418083