/*--------------------------------*- C++ -*----------------------------------*\
| =========                 |                                                 |
| \\      /  F ield         | OpenFOAM: The Open Source CFD Toolbox           |
|  \\    /   O peration     | Version:  v2012                                 |
|   \\  /    A nd           | Website:  www.openfoam.com                      |
|    \\/     M anipulation  |                                                 |
\*---------------------------------------------------------------------------*/
FoamFile
{
    version     2.0;
    format      ascii;
    class       volScalarField;
    location    "300";
    object      omega;
}
// * * * * * * * * * * * * * * * * * * * * * * * * * * * * * * * * * * * * * //

dimensions      [0 0 -1 0 0 0 0];


internalField   nonuniform List<scalar> 
120951
(
11.115511
11.115291
11.150876
11.150364
11.150963
11.1507
11.151515
11.151178
11.151591
11.151432
11.151495
11.15144
11.151428
11.151419
11.15142
11.151421
11.151422
11.151423
11.151423
11.151422
11.151421
11.151419
11.151419
11.151428
11.15144
11.151495
11.151432
11.151591
11.151178
11.151516
11.1507
11.150963
11.150364
11.150876
11.150558
11.151277
11.150928
11.151313
11.151173
11.151236
11.151191
11.151181
11.151173
11.151173
11.151174
11.151175
11.151176
11.151177
11.151177
11.151178
11.151178
11.151178
11.151179
11.151179
11.151179
11.151179
11.15118
11.15118
11.15118
11.15118
11.15118
11.151181
11.151181
11.151181
11.151181
11.151181
11.151181
11.151181
11.151181
11.151181
11.151181
11.151181
11.151181
11.151181
11.151181
11.151181
11.151181
11.151181
11.151181
11.151181
11.151181
11.15118
11.15118
11.15118
11.15118
11.151179
11.151179
11.151179
11.151178
11.151178
11.151177
11.151176
11.151175
11.151174
11.151182
11.151193
11.151238
11.151175
11.151314
11.150929
11.151279
11.15056
11.150878
11.150366
11.150965
11.150704
11.151523
11.15119
11.151608
11.151456
11.151527
11.15148
11.151477
11.151476
11.151486
11.151496
11.151505
11.151512
11.151517
11.15152
11.15152
11.151517
11.151513
11.151516
11.151519
11.151563
11.151488
11.151634
11.151209
11.151536
11.150713
11.15097
11.150369
11.150881
11.150565
11.151285
11.150937
11.151325
11.151189
11.151255
11.151213
11.151205
11.151201
11.151204
11.151207
11.15121
11.151213
11.151215
11.151216
11.151217
11.151218
11.151217
11.151214
11.151207
11.151193
11.151171
11.15114
11.151102
11.151059
11.151014
11.15097
11.150939
11.150933
11.150932
11.15093
11.150929
11.150928
11.150927
11.150926
11.150925
11.150924
11.150924
11.150923
11.150922
11.150926
11.150955
11.150996
11.15104
11.151081
11.151117
11.151145
11.151165
11.151177
11.151183
11.151186
11.151186
11.151185
11.151184
11.151183
11.151182
11.15118
11.151178
11.151177
11.151176
11.151183
11.151193
11.151238
11.151174
11.151313
11.150928
11.151277
11.150559
11.115136
11.115725
11.115502
11.115883
11.115818
11.115888
11.115852
11.115836
11.115824
11.115822
11.115823
11.115826
11.115828
11.11583
11.115832
11.115834
11.115834
11.115825
11.115799
11.115739
11.115633
11.115473
11.115264
11.115017
11.114748
11.114474
11.114222
11.114051
11.114031
11.114029
11.114031
11.114033
11.114035
11.114037
11.11404
11.114042
11.114045
11.114047
11.11405
11.114056
11.114082
11.114259
11.114515
11.114793
11.115067
11.11532
11.115534
11.115697
11.115807
11.115871
11.1159
11.11591
11.115912
11.115911
11.115909
11.115906
11.115902
11.115897
11.115893
11.115891
11.115898
11.11591
11.115941
11.115866
11.115926
11.11554
11.11576
11.115169
11.115322
11.114744
11.077582
11.037223
10.995824
10.953233
10.910975
10.869267
10.828569
10.789118
10.751278
10.715627
10.683137
10.655457
10.635263
10.626865
10.638265
10.684255
10.791236
11.011232
11.445692
9.0478356
9.0755482
9.103508
9.1317132
9.1601585
9.1888352
9.2177312
9.2468303
9.2761117
9.3055524
9.3351239
9.3647962
9.3945377
9.424318
9.4541108
9.4838968
9.5136671
9.5434254
9.5731904
9.6029954
9.6328885
9.6629268
9.6931736
9.7236928
9.7545421
9.7857709
9.8174175
9.8495089
9.8820608
9.9150786
9.948561
9.9824999
10.016884
10.051699
10.086931
10.122565
10.158587
10.194986
10.231751
10.268872
10.306341
10.344153
10.382302
10.420784
10.459597
10.498739
10.538209
10.578007
10.618134
10.658592
10.699389
10.740535
10.782054
10.823978
10.866333
10.909102
10.952107
10.995009
11.037001
11.077411
11.077179
11.077498
11.077389
11.077684
11.077693
11.077753
11.07773
11.07771
11.077695
11.077691
11.077691
11.077693
11.077697
11.0777
11.077703
11.077705
11.077703
11.077685
11.077631
11.077514
11.077308
11.077001
11.076601
11.076131
11.075622
11.075111
11.074651
11.07435
11.074303
11.074298
11.0743
11.074304
11.074307
11.074311
11.074315
11.074319
11.074324
11.074328
11.074333
11.074347
11.074402
11.074714
11.075183
11.075701
11.076219
11.076698
11.077105
11.07742
11.077633
11.077757
11.077816
11.077839
11.077845
11.077846
11.077845
11.077842
11.077839
11.077835
11.077833
11.077834
11.077844
11.077859
11.077876
11.07781
11.077796
11.077496
11.077601
11.07728
11.07751
11.037246
10.995522
10.953073
10.910788
10.86912
10.828416
10.788946
10.75107
10.715365
10.682779
10.654942
10.634423
10.625458
10.635924
10.680687
10.789234
11.020588
11.546501
11.67421
11.201506
10.900827
10.733312
10.646708
10.607135
10.596274
10.60322
10.621472
10.647372
10.678357
10.712756
10.749547
10.788078
10.827941
10.868877
10.910689
10.953121
10.995724
11.037748
11.078176
11.116061
11.116506
11.116447
11.116533
11.116502
11.116496
11.116492
11.116495
11.116496
11.116494
11.116486
11.116475
11.116459
11.116441
11.116424
11.116408
11.116406
11.116411
11.116446
11.116368
11.116439
11.116007
11.116174
11.115412
11.115441
11.114722
11.07751
11.037044
10.995446
10.952511
10.909694
10.867106
10.825049
10.783519
10.742498
10.701963
10.66191
10.622344
10.583275
10.544715
10.506677
10.469173
10.432209
10.39579
10.359916
10.324581
10.289773
10.255474
10.221657
10.188291
10.155338
10.122754
10.090495
10.058511
10.026755
9.9951814
9.9956525
10.027176
10.058883
10.09082
10.123036
10.155579
10.188495
10.221826
10.255611
10.289882
10.324664
10.359977
10.395831
10.432234
10.469183
10.506676
10.544703
10.583253
10.622313
10.661873
10.701921
10.742456
10.783483
10.82502
10.867081
10.909634
10.952489
10.995292
11.037229
11.077593
11.077546
11.037154
10.995096
10.952294
10.909446
10.866932
10.824903
10.783391
10.742382
10.701863
10.661829
10.622284
10.58324
10.544708
10.506702
10.469233
10.432311
10.395942
10.360126
10.324859
10.290128
10.255917
10.222198
10.18894
10.156104
10.123647
10.091522
10.059682
10.028076
9.9966575
9.9983152
10.029566
10.061009
10.092692
10.124668
10.156985
10.189691
10.222832
10.256445
10.290563
10.325211
10.360409
10.396166
10.432486
10.469368
10.506804
10.544785
10.583297
10.622326
10.661858
10.701881
10.742391
10.783391
10.824895
10.866921
10.90945
10.952348
10.995251
11.037475
11.078075
11.078062
11.037526
10.995323
10.952426
10.909533
10.867011
10.824994
10.783498
10.742506
10.702002
10.661986
10.622465
10.583452
10.544962
10.507012
10.469617
10.432789
10.396535
10.360861
10.325763
10.291231
10.257247
10.223788
10.190819
10.1583
10.126187
10.094428
10.062972
10.031766
10.00076
10.004118
10.03479
10.06567
10.096813
10.128276
10.160111
10.192372
10.225106
10.258355
10.292152
10.326524
10.361487
10.397049
10.433211
10.469968
10.507307
10.545216
10.583675
10.622668
10.662176
10.702184
10.742683
10.783673
10.825167
10.867185
10.909714
10.952625
10.995556
11.037813
11.078417
11.078429
11.037863
10.995626
10.95271
10.909813
10.8673
10.825297
10.783815
10.742838
10.702353
10.662362
10.622878
10.583917
10.5455
10.50765
10.470387
10.433729
10.39769
10.362278
10.327496
10.293337
10.259786
10.226817
10.194395
10.162477
10.131013
10.099944
10.069214
10.038763
10.043851
10.073746
10.10394
10.134498
10.165483
10.196956
10.228973
10.261579
10.294811
10.328693
10.36324
10.398455
10.434334
10.470864
10.508026
10.545798
10.584156
10.623072
10.662524
10.70249
10.742956
10.783916
10.825382
10.867371
10.909871
10.952759
10.995675
11.03792
11.078497
11.078481
11.037914
10.995676
10.952769
10.909894
10.86741
10.825438
10.783989
10.743048
10.702607
10.662673
10.623263
10.584403
10.546121
10.508448
10.471415
10.435049
10.399374
10.364408
10.330162
10.296634
10.263812
10.231671
10.200173
10.169269
10.138898
10.108994
10.079484
10.050298
10.058475
10.08676
10.115396
10.144467
10.174052
10.204228
10.235061
10.266607
10.298905
10.331982
10.365846
10.400495
10.435912
10.472073
10.508945
10.546494
10.584682
10.623473
10.662832
10.702728
10.743141
10.78406
10.825491
10.867448
10.909919
10.952783
10.995681
11.037914
11.078477
11.078484
11.037927
10.995701
10.952812
10.909958
10.8675
10.825559
10.784146
10.743252
10.702871
10.663019
10.623723
10.585018
10.546945
10.509551
10.47288
10.436979
10.401888
10.367642
10.334264
10.301766
10.270139
10.239358
10.209381
10.180143
10.151569
10.12357
10.096052
10.068919
10.082395
10.108043
10.134115
10.160723
10.187983
10.215999
10.244864
10.27465
10.305406
10.337158
10.369908
10.403638
10.438313
10.473885
10.510301
10.547502
10.58543
10.624029
10.663248
10.703045
10.743386
10.784253
10.825644
10.86757
10.910015
10.952857
10.995737
11.037954
11.078505
11.078531
11.037989
10.995781
10.952912
10.910082
10.867652
10.825745
10.784379
10.743547
10.703254
10.663526
10.624403
10.585938
10.548193
10.511239
10.475148
10.439997
10.405859
10.372797
10.340865
10.310091
10.280479
10.252005
10.224609
10.198204
10.172677
10.147895
10.123716
10.1
10.144491
10.166164
10.188514
10.211725
10.235968
10.261393
10.288111
10.316193
10.345667
10.376519
10.408702
10.44214
10.476744
10.512415
10.549054
10.586564
10.624859
10.663859
10.703501
10.743732
10.784521
10.825857
10.867741
10.910155
10.952971
10.995828
11.038025
11.078557
11.078581
11.038058
10.995872
10.953027
10.910227
10.867834
10.825976
10.784679
10.743944
10.703791
10.66426
10.625417
10.587341
10.550132
10.513902
10.478777
10.44489
10.412377
10.381366
10.351965
10.324249
10.298248
10.273926
10.251189
10.229885
10.209811
10.190732
10.172408
10.224273
10.238905
10.254679
10.271917
10.290921
10.311915
10.335035
10.360328
10.387747
10.417174
10.448448
10.481383
10.515791
10.551489
10.588308
10.626102
10.664745
10.704133
10.744188
10.784853
10.826103
10.867926
10.910296
10.953079
10.99591
11.038086
11.0786
11.078613
11.038107
10.995942
10.953124
10.910361
10.86802
10.826238
10.785048
10.74447
10.704542
10.665335
10.62695
10.589519
10.553206
10.518207
10.484749
10.453087
10.423495
10.396245
10.371581
10.349687
10.330645
10.314332
10.300498
10.288814
10.278893
10.27037
10.334538
10.336008
10.339879
10.346572
10.356474
10.369847
10.386924
10.407682
10.431896
10.459177
10.489114
10.521304
10.555384
10.591038
10.628001
10.666056
10.705033
10.744801
10.78527
10.826384
10.868116
10.910423
10.953163
10.995966
11.038121
11.07862
11.078623
11.03813
10.995984
10.953198
10.910484
10.868218
10.826548
10.785526
10.745194
10.705626
10.66694
10.629304
10.592943
10.558147
10.525279
10.494787
10.467204
10.443139
10.423223
10.407938
10.397483
10.391962
10.391465
10.395792
10.404382
10.416566
10.544273
10.509233
10.480016
10.457564
10.442659
10.435721
10.436467
10.444249
10.458245
10.477815
10.502158
10.530364
10.561631
10.595316
10.630908
10.668016
10.70634
10.745662
10.785827
10.826737
10.868332
10.910551
10.953235
10.996002
11.038137
11.078624
11.07863
11.038148
10.996025
10.953277
10.910627
10.868463
10.826953
10.786176
10.746212
10.70719
10.669309
10.632859
10.598238
10.565985
10.536824
10.511706
10.491813
10.478342
10.472544
10.476106
10.490891
10.518238
10.558552
10.611408
10.676024
10.955584
10.824884
10.717768
10.633751
10.572563
10.532775
10.511368
10.504909
10.509997
10.523972
10.544949
10.571349
10.601774
10.635184
10.670829
10.708174
10.746841
10.786571
10.827195
10.868606
10.91071
10.953324
10.99605
11.038162
11.078638
11.078652
11.038172
10.996068
10.953362
10.910785
10.868747
10.827443
10.786991
10.747529
10.709273
10.672558
10.637878
10.605952
10.57782
10.555
10.539382
10.533269
10.540254
10.565316
10.614749
10.696497
10.817761
10.981636
11.191912
11.12606
10.892495
10.736274
10.640917
10.58763
10.562966
10.558198
10.567077
10.585449
10.610733
10.640892
10.674448
10.710444
10.748236
10.787401
10.827664
10.86885
10.910818
10.953352
10.996029
11.03811
11.078575
11.078548
11.038049
10.995961
10.953297
10.910799
10.868901
10.827835
10.78777
10.748921
10.711626
10.676419
10.644118
10.616002
10.594056
10.581008
10.580917
10.600699
10.650824
10.747916
10.921751
11.209052
10.961175
10.674767
10.507372
10.402929
10.334971
10.288067
10.254134
10.22948
10.211418
10.197967
10.187795
10.179992
10.173929
10.16917
10.165403
10.162413
10.160056
10.158241
10.156915
10.156028
10.155503
10.155264
10.15511
10.154882
10.154595
10.15426
10.15387
10.153415
10.152891
10.152298
10.151645
10.150941
10.150193
10.149409
10.148594
10.147754
10.146892
10.146013
10.145122
10.144223
10.14332
10.142418
10.141519
10.140626
10.139744
10.138875
10.13802
10.137182
10.136362
10.135563
10.134785
10.134028
10.133295
10.132585
10.131899
10.131237
10.130599
10.129986
10.129397
10.128833
10.128293
10.127777
10.127285
10.126818
10.126375
10.125956
10.125561
10.12519
10.124843
10.12452
10.124221
10.123946
10.123693
10.123464
10.123256
10.12307
10.122905
10.122761
10.122636
10.12253
10.122442
10.122368
10.122304
10.122244
10.122185
10.122125
10.122076
10.122053
10.122064
10.122101
10.12214
10.122163
10.15844
10.195024
10.23192
10.269128
10.306652
10.344492
10.38265
10.421128
10.459928
10.499052
10.538501
10.578278
10.618384
10.658824
10.699602
10.740732
10.782232
10.824142
10.866492
10.9093
10.952275
10.995318
11.036981
11.077484
11.114714
11.115291
11.077411
11.037003
10.995015
10.952118
10.909121
10.866362
10.82402
10.782113
10.740614
10.69949
10.65872
10.618289
10.578192
10.538424
10.498982
10.459866
10.421072
10.382599
10.344446
10.30661
10.269091
10.231887
10.194995
10.158413
10.158368
10.158325
10.158309
10.15833
10.158375
10.158429
10.15848
10.15853
10.158581
10.158641
10.158714
10.158801
10.158905
10.159026
10.159164
10.159321
10.159496
10.159691
10.159905
10.160139
10.160395
10.160671
10.160968
10.161287
10.161628
10.161991
10.162376
10.162783
10.163212
10.163663
10.164137
10.164633
10.165153
10.165694
10.166259
10.166847
10.167457
10.168089
10.168744
10.169421
10.170118
10.170836
10.171574
10.172329
10.173101
10.173888
10.174688
10.175499
10.176317
10.177141
10.177966
10.17879
10.179607
10.180416
10.18121
10.181986
10.182741
10.183468
10.184163
10.18482
10.18543
10.185984
10.186473
10.186897
10.187259
10.187573
10.187845
10.188066
10.188217
10.221584
10.221436
10.221223
10.220967
10.220677
10.220344
10.219956
10.219504
10.218993
10.21843
10.217825
10.217185
10.216518
10.215828
10.215118
10.214394
10.213659
10.212916
10.21217
10.211423
10.21068
10.209942
10.209213
10.208495
10.207789
10.207099
10.206424
10.205767
10.205128
10.204509
10.203909
10.20333
10.202771
10.202233
10.201716
10.20122
10.200745
10.200291
10.199857
10.199445
10.199053
10.198681
10.198329
10.197997
10.197685
10.197393
10.19712
10.196866
10.196631
10.196414
10.196216
10.196035
10.195871
10.195724
10.195592
10.195476
10.195375
10.195289
10.195218
10.195159
10.195111
10.19507
10.195029
10.194984
10.194935
10.194892
10.194875
10.194895
10.194944
10.23183
10.231775
10.231751
10.231767
10.231808
10.231853
10.231893
10.231926
10.231958
10.231996
10.232043
10.232101
10.232173
10.232256
10.232353
10.232463
10.232587
10.232724
10.232876
10.233043
10.233227
10.233426
10.233641
10.233873
10.234122
10.234389
10.234673
10.234975
10.235295
10.235633
10.23599
10.236365
10.236759
10.237172
10.237604
10.238055
10.238526
10.239015
10.239523
10.24005
10.240596
10.241159
10.241739
10.242335
10.242947
10.243573
10.244212
10.244861
10.245519
10.246183
10.246851
10.24752
10.248187
10.248849
10.249502
10.250143
10.250767
10.251373
10.251954
10.252505
10.253019
10.253486
10.253897
10.254249
10.254549
10.254813
10.255052
10.255256
10.255401
10.289701
10.289558
10.289362
10.289142
10.288905
10.288638
10.288324
10.287955
10.287534
10.287071
10.286574
10.286052
10.285509
10.28495
10.284378
10.283796
10.283208
10.282615
10.282021
10.28143
10.280842
10.280261
10.279689
10.279128
10.278578
10.278041
10.277518
10.277011
10.276519
10.276043
10.275584
10.275142
10.274718
10.27431
10.273919
10.273546
10.27319
10.272851
10.272528
10.272222
10.271933
10.271659
10.271402
10.27116
10.270934
10.270723
10.270526
10.270345
10.270177
10.270023
10.269883
10.269756
10.269641
10.269537
10.269446
10.269365
10.269296
10.269237
10.26919
10.269152
10.269123
10.269099
10.269072
10.269037
10.268994
10.268954
10.268939
10.268967
10.269028
10.30654
10.306472
10.306441
10.306456
10.306496
10.306537
10.306568
10.306589
10.306608
10.30663
10.306659
10.306697
10.306745
10.306803
10.306869
10.306945
10.307031
10.307127
10.307233
10.307351
10.307479
10.307619
10.307772
10.307937
10.308115
10.308306
10.30851
10.308728
10.30896
10.309206
10.309466
10.309741
10.310031
10.310336
10.310656
10.310991
10.311341
10.311707
10.312088
10.312484
10.312895
10.31332
10.31376
10.314213
10.31468
10.315158
10.315648
10.316147
10.316654
10.317168
10.317686
10.318207
10.318728
10.319246
10.319759
10.320264
10.320758
10.321239
10.321703
10.322145
10.322558
10.322933
10.323261
10.323536
10.323769
10.323978
10.324181
10.324368
10.324509
10.359843
10.359703
10.359524
10.359339
10.359158
10.358959
10.358721
10.358435
10.358105
10.35774
10.357351
10.356943
10.356522
10.35609
10.35565
10.355203
10.354752
10.3543
10.353848
10.353399
10.352954
10.352515
10.352085
10.351663
10.35125
10.350849
10.35046
10.350082
10.349717
10.349366
10.349027
10.348702
10.34839
10.348091
10.347806
10.347535
10.347276
10.347031
10.346798
10.346578
10.34637
10.346175
10.345992
10.34582
10.34566
10.345511
10.345373
10.345246
10.345129
10.345022
10.344925
10.344836
10.344757
10.344686
10.344623
10.344568
10.34452
10.344481
10.34445
10.344428
10.344412
10.344399
10.344382
10.344355
10.344315
10.344274
10.344259
10.344293
10.344368
10.382513
10.382431
10.382394
10.38241
10.382452
10.382491
10.382516
10.382529
10.382537
10.382548
10.382565
10.382589
10.382621
10.38266
10.382706
10.382758
10.382816
10.382882
10.382955
10.383036
10.383125
10.383222
10.383327
10.383442
10.383566
10.383699
10.383842
10.383995
10.384158
10.384332
10.384516
10.384712
10.384918
10.385135
10.385364
10.385605
10.385857
10.38612
10.386395
10.386682
10.386981
10.38729
10.387611
10.387942
10.388284
10.388635
10.388996
10.389364
10.389739
10.390119
10.390504
10.390892
10.39128
10.391668
10.392052
10.392432
10.392805
10.39317
10.393524
10.393862
10.39418
10.394467
10.394714
10.394916
10.395081
10.395236
10.395404
10.395576
10.395716
10.432133
10.431992
10.431825
10.431674
10.431545
10.431411
10.431244
10.431034
10.430787
10.430513
10.430221
10.429918
10.429606
10.429288
10.428964
10.428637
10.428308
10.427978
10.42765
10.427324
10.427001
10.426684
10.426373
10.426069
10.425773
10.425485
10.425206
10.424937
10.424677
10.424426
10.424185
10.423955
10.423734
10.423523
10.423322
10.423131
10.42295
10.422778
10.422615
10.422462
10.422318
10.422182
10.422055
10.421937
10.421827
10.421725
10.42163
10.421543
10.421463
10.42139
10.421323
10.421263
10.421209
10.421161
10.421118
10.42108
10.421048
10.421022
10.421003
10.420991
10.420984
10.42098
10.42097
10.420948
10.420909
10.420865
10.420848
10.420887
10.420976
10.45976
10.459663
10.459621
10.459641
10.459687
10.459726
10.459746
10.459752
10.459753
10.459757
10.459765
10.45978
10.459801
10.459828
10.459858
10.459894
10.459934
10.459978
10.460028
10.460082
10.460142
10.460208
10.460279
10.460357
10.460441
10.460531
10.460628
10.460733
10.460844
10.460963
10.461089
10.461223
10.461365
10.461515
10.461673
10.46184
10.462014
10.462197
10.462389
10.462588
10.462796
10.463013
10.463237
10.463469
10.463709
10.463956
10.46421
10.46447
10.464735
10.465004
10.465277
10.465552
10.465829
10.466105
10.46638
10.466652
10.46692
10.467183
10.46744
10.467688
10.467922
10.468132
10.468308
10.468443
10.468548
10.468651
10.468787
10.46895
10.469094
10.506595
10.506447
10.506286
10.506164
10.506084
10.506007
10.505901
10.505756
10.505579
10.505382
10.505173
10.504958
10.504738
10.504515
10.50429
10.504062
10.503833
10.503605
10.503377
10.503152
10.502929
10.50271
10.502496
10.502287
10.502083
10.501885
10.501694
10.50151
10.501332
10.501161
10.500997
10.50084
10.50069
10.500547
10.50041
10.500281
10.500158
10.500042
10.499933
10.49983
10.499733
10.499642
10.499557
10.499477
10.499404
10.499335
10.499272
10.499214
10.499161
10.499112
10.499067
10.499027
10.49899
10.498957
10.498928
10.498903
10.498881
10.498864
10.498852
10.498847
10.498847
10.498849
10.498845
10.498827
10.498788
10.498739
10.498716
10.49876
10.498866
10.538296
10.53818
10.538135
10.538161
10.538213
10.538252
10.538269
10.53827
10.538265
10.538263
10.538266
10.538275
10.538289
10.538306
10.538327
10.538351
10.538378
10.538408
10.538441
10.538477
10.538517
10.53856
10.538607
10.538659
10.538714
10.538773
10.538837
10.538906
10.538979
10.539058
10.539141
10.53923
10.539324
10.539423
10.539528
10.539638
10.539754
10.539876
10.540003
10.540136
10.540275
10.540419
10.54057
10.540725
10.540886
10.541051
10.541222
10.541396
10.541574
10.541756
10.54194
10.542125
10.542312
10.542499
10.542685
10.542869
10.543052
10.543233
10.543411
10.543584
10.543749
10.543897
10.544014
10.544094
10.544145
10.544204
10.544313
10.544473
10.544628
10.583181
10.583018
10.582857
10.582759
10.582721
10.582692
10.582636
10.582542
10.58242
10.582284
10.582141
10.581995
10.581849
10.581701
10.581553
10.581403
10.581253
10.581103
10.580954
10.580806
10.580661
10.580517
10.580377
10.580241
10.580108
10.579979
10.579854
10.579734
10.579618
10.579507
10.5794
10.579298
10.579201
10.579108
10.57902
10.578936
10.578856
10.578781
10.578711
10.578644
10.578581
10.578522
10.578467
10.578416
10.578369
10.578324
10.578283
10.578245
10.578211
10.578178
10.578149
10.578122
10.578098
10.578076
10.578056
10.578039
10.578025
10.578013
10.578007
10.578006
10.57801
10.578017
10.578019
10.578004
10.577964
10.577909
10.577878
10.577924
10.57805
10.618132
10.617996
10.617949
10.617985
10.618043
10.618083
10.618097
10.618093
10.618083
10.618077
10.618077
10.618082
10.618091
10.618103
10.618117
10.618133
10.618151
10.618171
10.618192
10.618216
10.618242
10.61827
10.6183
10.618332
10.618368
10.618405
10.618446
10.618489
10.618536
10.618585
10.618638
10.618694
10.618753
10.618816
10.618882
10.618952
10.619025
10.619102
10.619182
10.619267
10.619355
10.619446
10.619541
10.619639
10.619741
10.619846
10.619954
10.620065
10.620178
10.620293
10.62041
10.620527
10.620646
10.620765
10.620883
10.621001
10.621118
10.621235
10.621352
10.621468
10.621581
10.62168
10.621753
10.62179
10.621798
10.621817
10.621906
10.62207
10.622243
10.661802
10.661616
10.661447
10.661367
10.661365
10.661375
10.661355
10.661299
10.661217
10.661126
10.661032
10.660939
10.660847
10.660756
10.660664
10.660572
10.660481
10.660389
10.660297
10.660207
10.660118
10.66003
10.659944
10.65986
10.659779
10.6597
10.659624
10.65955
10.659479
10.659411
10.659345
10.659283
10.659223
10.659166
10.659112
10.659061
10.659012
10.658966
10.658922
10.658881
10.658842
10.658806
10.658772
10.658741
10.658711
10.658683
10.658658
10.658634
10.658612
10.658591
10.658572
10.658555
10.658539
10.658524
10.658511
10.658499
10.658489
10.658482
10.658479
10.65848
10.658488
10.658499
10.658506
10.658494
10.658454
10.658392
10.658351
10.658399
10.658546
10.699298
10.699139
10.699089
10.699137
10.699202
10.699242
10.699251
10.699242
10.699229
10.69922
10.699217
10.699219
10.699225
10.699233
10.699243
10.699254
10.699266
10.699279
10.699293
10.699308
10.699324
10.699341
10.69936
10.69938
10.699402
10.699425
10.699449
10.699475
10.699503
10.699533
10.699564
10.699597
10.699633
10.69967
10.699709
10.699751
10.699794
10.69984
10.699887
10.699937
10.699989
10.700043
10.700099
10.700157
10.700217
10.700279
10.700343
10.700408
10.700474
10.700542
10.700611
10.70068
10.70075
10.700819
10.700889
10.700958
10.701028
10.701099
10.701171
10.701246
10.701321
10.701387
10.70143
10.701436
10.701411
10.701397
10.701471
10.701647
10.701848
10.742378
10.742158
10.741974
10.741903
10.741932
10.741969
10.741974
10.741941
10.741887
10.741826
10.741766
10.74171
10.741657
10.741605
10.741553
10.741502
10.741451
10.741399
10.741348
10.741297
10.741247
10.741198
10.74115
10.741103
10.741057
10.741012
10.740969
10.740928
10.740888
10.740849
10.740812
10.740776
10.740742
10.74071
10.740679
10.74065
10.740622
10.740595
10.74057
10.740547
10.740524
10.740503
10.740483
10.740465
10.740447
10.740431
10.740416
10.740401
10.740387
10.740375
10.740363
10.740352
10.740341
10.740332
10.740323
10.740315
10.740308
10.740303
10.740302
10.740306
10.740316
10.74033
10.740342
10.740336
10.740297
10.74023
10.740176
10.740228
10.7404
10.781872
10.781686
10.781631
10.781691
10.781758
10.781796
10.781798
10.781783
10.781767
10.781756
10.781751
10.781752
10.781755
10.781761
10.781768
10.781775
10.781783
10.781791
10.7818
10.781809
10.781819
10.78183
10.781841
10.781853
10.781865
10.781878
10.781892
10.781907
10.781922
10.781939
10.781956
10.781975
10.781994
10.782014
10.782036
10.782058
10.782082
10.782106
10.782132
10.782159
10.782187
10.782216
10.782246
10.782277
10.782309
10.782342
10.782376
10.78241
10.782446
10.782482
10.782518
10.782554
10.782591
10.782628
10.782664
10.782701
10.782739
10.782778
10.782821
10.782868
10.782918
10.782964
10.78299
10.782978
10.782932
10.78289
10.782959
10.783154
10.783398
10.824927
10.824649
10.824442
10.824372
10.824427
10.824478
10.824495
10.824472
10.824432
10.82439
10.824352
10.824321
10.824293
10.824266
10.824241
10.824216
10.824191
10.824166
10.824141
10.824116
10.824091
10.824067
10.824043
10.82402
10.823997
10.823975
10.823953
10.823932
10.823912
10.823892
10.823874
10.823856
10.823838
10.823822
10.823806
10.823791
10.823776
10.823763
10.823749
10.823737
10.823725
10.823714
10.823703
10.823693
10.823683
10.823674
10.823665
10.823657
10.823649
10.823641
10.823634
10.823627
10.82362
10.823614
10.823608
10.823603
10.823598
10.823595
10.823595
10.8236
10.823612
10.823631
10.823649
10.823651
10.823617
10.823551
10.823484
10.823544
10.823745
10.866044
10.865833
10.865768
10.865844
10.865907
10.865938
10.86593
10.865908
10.865887
10.865875
10.865869
10.865869
10.865871
10.865875
10.865879
10.865884
10.865889
10.865895
10.8659
10.865906
10.865911
10.865917
10.865924
10.86593
10.865937
10.865944
10.865951
10.865959
10.865967
10.865975
10.865984
10.865993
10.866002
10.866012
10.866022
10.866033
10.866044
10.866056
10.866068
10.86608
10.866093
10.866107
10.866121
10.866135
10.86615
10.866165
10.86618
10.866196
10.866211
10.866227
10.866244
10.86626
10.866276
10.866292
10.866308
10.866325
10.866342
10.866362
10.866385
10.866415
10.866451
10.866488
10.866509
10.866491
10.866438
10.86637
10.866442
10.866656
10.866976
10.909515
10.909145
10.908939
10.908868
10.908955
10.909007
10.909027
10.909005
10.90897
10.908938
10.908914
10.908897
10.908884
10.908874
10.908864
10.908854
10.908845
10.908835
10.908825
10.908815
10.908806
10.908796
10.908787
10.908777
10.908768
10.908759
10.90875
10.908742
10.908733
10.908725
10.908717
10.90871
10.908702
10.908695
10.908688
10.908681
10.908675
10.908669
10.908663
10.908657
10.908651
10.908646
10.908641
10.908636
10.908631
10.908626
10.908622
10.908617
10.908612
10.908608
10.908604
10.9086
10.908596
10.908592
10.908588
10.908584
10.908581
10.908579
10.90858
10.908585
10.908598
10.90862
10.908646
10.908659
10.908632
10.908573
10.90848
10.908548
10.908751
10.951731
10.951569
10.951504
10.951623
10.951677
10.951705
10.951688
10.95166
10.951638
10.951625
10.95162
10.951619
10.95162
10.951623
10.951626
10.951629
10.951632
10.951635
10.951638
10.951642
10.951645
10.951648
10.951651
10.951655
10.951658
10.951661
10.951665
10.951668
10.951672
10.951675
10.951679
10.951683
10.951686
10.95169
10.951694
10.951699
10.951703
10.951707
10.951711
10.951716
10.951721
10.951726
10.951731
10.951736
10.951741
10.951746
10.951751
10.951756
10.951761
10.951766
10.951772
10.951777
10.951782
10.951787
10.951792
10.951797
10.951803
10.951811
10.951823
10.951842
10.951871
10.951904
10.951926
10.951902
10.951852
10.951736
10.951804
10.951967
10.952354
10.995144
10.994744
10.994676
10.994613
10.994772
10.994819
10.99485
10.994829
10.994799
10.994774
10.994759
10.994751
10.994746
10.994744
10.994741
10.994739
10.994737
10.994735
10.994733
10.994731
10.994729
10.994726
10.994724
10.994722
10.994719
10.994717
10.994714
10.994712
10.99471
10.994707
10.994705
10.994702
10.9947
10.994698
10.994695
10.994693
10.994691
10.994689
10.994686
10.994684
10.994682
10.99468
10.994678
10.994676
10.994673
10.994671
10.994669
10.994667
10.994664
10.994662
10.99466
10.994657
10.994655
10.994653
10.99465
10.994648
10.994646
10.994645
10.994646
10.99465
10.994662
10.994683
10.99471
10.994729
10.994695
10.994646
10.994485
10.994548
10.994615
11.036728
11.036826
11.036757
11.036976
11.037014
11.03706
11.03704
11.037016
11.036996
11.036987
11.036983
11.036983
11.036984
11.036986
11.036987
11.036989
11.036991
11.036993
11.036994
11.036996
11.036998
11.036999
11.037001
11.037002
11.037004
11.037005
11.037006
11.037008
11.037009
11.03701
11.037011
11.037013
11.037014
11.037015
11.037016
11.037017
11.037018
11.03702
11.03702
11.037022
11.037023
11.037024
11.037024
11.037025
11.037026
11.037027
11.037028
11.037029
11.037029
11.03703
11.03703
11.037031
11.037031
11.037032
11.037032
11.037032
11.037033
11.037035
11.03704
11.037051
11.037072
11.037098
11.037119
11.037074
11.037037
11.036818
11.036888
11.036791
11.037066
11.077437
11.077205
11.077523
11.077413
11.077708
11.077715
11.077773
11.077748
11.077727
11.077709
11.077702
11.0777
11.077699
11.0777
11.0777
11.077701
11.077701
11.077701
11.077702
11.077702
11.077702
11.077702
11.077702
11.077703
11.077702
11.077702
11.077702
11.077702
11.077701
11.077701
11.077701
11.077701
11.0777
11.0777
11.077699
11.077699
11.077698
11.077698
11.077697
11.077696
11.077696
11.077695
11.077694