/*--------------------------------*- C++ -*----------------------------------*\
| =========                 |                                                 |
| \\      /  F ield         | OpenFOAM: The Open Source CFD Toolbox           |
|  \\    /   O peration     | Version:  v2012                                 |
|   \\  /    A nd           | Website:  www.openfoam.com                      |
|    \\/     M anipulation  |                                                 |
\*---------------------------------------------------------------------------*/
FoamFile
{
    version     2.0;
    format      ascii;
    class       volScalarField;
    location    "200";
    object      k;
}
// * * * * * * * * * * * * * * * * * * * * * * * * * * * * * * * * * * * * * //

dimensions      [0 2 -2 0 0 0 0];


internalField   nonuniform List<scalar> 
49477
(
0.15517349
0.15287409
0.15062394
0.14842105
0.14626206
0.14414446
0.14206581
0.14002365
0.13801661
0.1360427
0.13409921
0.1321849
0.13029779
0.12843588
0.12659657
0.12477802
0.12297815
0.12119497
0.11942677
0.11767188
0.11592867
0.11419566
0.11247142
0.11075535
0.10904557
0.10734163
0.10564244
0.10394695
0.10225358
0.10056222
0.098871409
0.097181101
0.09548996
0.093797296
0.092102325
0.090404888
0.088704282
0.087001274
0.085298556
0.083594767
0.081909042
0.080229466
0.078602937
0.076971581
0.075399202
0.076364041
0.080602573
0.082737936
0.086548174
0.087852102
0.090780693
0.091846128
0.09449482
0.095419506
0.097386819
0.097533729
0.098855201
0.098558775
0.099471362
0.098935892
0.099886313
0.099520414
0.10041383
0.10001784
0.10095776
0.10090492
0.10207401
0.10230986
0.10372975
0.10409929
0.10546306
0.10532077
0.10604131
0.10446309
0.10283825
0.097811685
0.091818465
0.085720458
0.08028654
0.080224595
0.091411673
0.10877412
0.12192051
0.13160472
0.13648538
0.13964255
0.14029034
0.14086325
0.14021242
0.14012911
0.13922536
0.13910212
0.13899005
0.13992998
0.13975876
0.14003518
0.14065331
0.14156074
0.14236699
0.14293452
0.14333819
0.14348245
0.14357089
0.14348532
0.14328262
0.14308592
0.14287707
0.14252019
0.14194535
0.1412093
0.14021404
0.13908959
0.13825675
0.13792168
0.13834841
0.13706772
0.13636715
0.1360691
0.13582752
0.13570713
0.13550014
0.13544369
0.13538255
0.13524298
0.13497438
0.13496657
0.13477276
0.13468611
0.13464752
0.13473853
0.13491543
0.13501585
0.13498385
0.13512748
0.13521593
0.13540949
0.13546959
0.13559707
0.1357187
0.13580378
0.13576066
0.1359318
0.13594541
0.13612316
0.13612818
0.13631164
0.13638582
0.13660023
0.13662534
0.13683431
0.13685794
0.13707765
0.13718516
0.13760627
0.13799418
0.13836742
0.13862097
0.13918232
0.13957373
0.1402914
0.14089558
0.14189197
0.14302373
0.14441931
0.14398137
0.14465067
0.14537164
0.14698001
0.14793281
0.14930858
0.15005498
0.15133442
0.15179264
0.15281202
0.15285282
0.1529734
0.15155953
0.1496467
0.14521389
0.13901667
0.12891627
0.11620128
0.10052704
0.084855703
0.086669034
0.10141957
0.11624093
0.12850461
0.13829441
0.14436925
0.14852087
0.15086861
0.15196421
0.15194392
0.15160922
0.15072427
0.15014385
0.1490567
0.1480919
0.14719898
0.14592593
0.14438346
0.14345759
0.14305242
0.14206647
0.14269078
0.14354786
0.14490506
0.14636096
0.14740569
0.14830661
0.14926656
0.14988939
0.15066114
0.15109897
0.15098421
0.15009774
0.14778694
0.14380365
0.13765849
0.12842355
0.11621398
0.10257377
0.089129358
0.090973796
0.10351408
0.11696637
0.12876069
0.13784215
0.14366478
0.14733955
0.14955046
0.15049469
0.1504736
0.15001742
0.14918602
0.1485715
0.14751159
0.14642666
0.14535571
0.14425995
0.14278532
0.1416601
0.14096405
0.14046315
0.14118875
0.14217685
0.14358714
0.14474873
0.14582873
0.14673376
0.14770156
0.14847285
0.1492898
0.14978501
0.14970167
0.1491312
0.1470575
0.14333313
0.13750575
0.1289887
0.11742841
0.10466058
0.093158883
0.094708327
0.10581541
0.11837016
0.12919538
0.13759483
0.1435489
0.14682965
0.14879103
0.14941131
0.14924424
0.14878598
0.14785588
0.14707136
0.14626395
0.14520237
0.14414872
0.14308907
0.14158681
0.14036932
0.13962852
0.13937667
0.14015474
0.14120719
0.14256929
0.14353475
0.14461308
0.14589055
0.14688473
0.1474417
0.14820822
0.14869697
0.14873732
0.1482713
0.14646598
0.1434578
0.13786409
0.12943415
0.1187066
0.10665542
0.096297875
0.097487109
0.1073927
0.1191907
0.1297553
0.13782546
0.14325891
0.1462796
0.14796859
0.14859905
0.1483534
0.14773517
0.14718777
0.14645199
0.14552046
0.1443742
0.14337389
0.14233233
0.14079966
0.13951405
0.13871553
0.13864672
0.13945263
0.140489
0.1419123
0.14291903
0.1439707
0.14514037
0.14600857
0.14688797
0.14762528
0.1480977
0.14818622
0.14745158
0.14571296
0.14281377
0.13736784
0.12947778
0.11932386
0.10804688
0.099049388
0.10022188
0.10865765
0.1194437
0.12928233
0.13728799
0.14245851
0.14559924
0.1474688
0.14808586
0.14799834
0.14720044
0.1464862
0.14573967
0.1448284
0.14378093
0.14273156
0.14166678
0.14012459
0.13903164
0.13827618
0.13789821
0.13874042
0.13980169
0.14135578
0.14267382
0.14384153
0.14470977
0.14579576
0.14626757
0.14706242
0.14757378
0.14742356
0.14707357
0.14526935
0.14199325
0.13661839
0.12887568
0.1190614
0.1090707
0.10130411
0.10176847
0.10926308
0.11900331
0.12829651
0.13603295
0.1411489
0.14449992
0.14628835
0.14709992
0.14713321
0.14649758
0.14599858
0.14533335
0.1443637
0.14335268
0.14230828
0.14124122
0.13955146
0.1382112
0.13733845
0.13739176
0.13833058
0.13952504
0.14109847
0.14235961
0.14336378
0.14410321
0.14513712
0.14567556
0.14639142
0.14685165
0.14669587
0.14592668
0.14396965
0.14033432
0.13501771
0.12771649
0.11853594
0.10934267
0.10216156
0.10240898
0.10930679
0.11832928
0.12697336
0.13436433
0.13979187
0.14329408
0.14563014
0.14661725
0.14670456
0.14600619
0.14543231
0.14483209
0.14406132
0.14311861
0.14211329
0.14112415
0.1394813
0.13802417
0.13705559
0.13717918
0.13818147
0.13945489
0.14098897
0.14215291
0.14317369
0.14404468
0.14500534
0.14537666
0.14603003
0.14638378
0.14597459
0.14500143
0.142729
0.13925185
0.1339212
0.12656955
0.11793668
0.109276
0.1025157
0.10259338
0.10918919
0.11776077
0.12637369
0.13358828
0.13895291
0.14237221
0.14457609
0.14575944
0.1461519
0.14569611
0.1452661
0.1446714
0.14379893
0.14282188
0.14189781
0.14090105
0.13926751
0.13780472
0.13682887
0.13692581
0.13787337
0.13905722
0.14054631
0.14171899
0.14267631
0.14339817
0.14442167
0.14497881
0.14568501
0.14604461
0.14557767
0.14425086
0.14207419
0.13871911
0.13325447
0.12641188
0.11805661
0.10940322
0.10283503
0.10318261
0.10953302
0.11808461
0.12620931
0.13325775
0.13854706
0.14199603
0.14449919
0.14560075
0.14576637
0.14518498
0.14462544
0.14396149
0.14310389
0.14226015
0.14126239
0.14017509
0.13874523
0.13743783
0.13655417
0.13659659
0.13747445
0.13863321
0.14020646
0.14110081
0.14226485
0.14296596
0.14396179
0.14441461
0.14514231
0.1455615
0.14525603
0.14424374
0.14186317
0.13840963
0.13317378
0.12620035
0.11807152
0.10983621
0.10336271
0.10360636
0.10994263
0.11821469
0.12627028
0.1332457
0.13818704
0.14158381
0.14385229
0.14505101
0.14527288
0.14473257
0.14422727
0.14368951
0.14287674
0.14200715
0.14105388
0.14004423
0.13859077
0.13716795
0.13628011
0.13642102
0.1373498
0.13862863
0.14017968
0.14112506
0.14222397
0.14288417
0.14376119
0.14407364
0.14477556
0.14512381
0.14477226
0.14383746
0.14178981
0.13803851
0.13303707
0.12636288
0.11848215
0.11030015
0.10377198
0.10444099
0.11074915
0.11877331
0.12639923
0.13308101
0.13824242
0.14172046
0.14370488
0.14475438
0.1450352
0.14447839
0.14394572
0.14349935
0.14286651
0.14201436
0.14101237
0.1400348
0.13857157
0.13705988
0.13611831
0.13624995
0.13722707
0.13857827
0.1401288
0.14100595
0.14205483
0.14280952
0.14360329
0.14388095
0.14459482
0.14509583
0.1447638
0.14358904
0.14165116
0.13852736
0.1336535
0.12673755
0.11912261
0.11124154
0.10483704
0.10574878
0.11183062
0.11950653
0.12729632
0.13387529
0.13871819
0.14190986
0.14391829
0.14489635
0.14501279
0.14432146
0.14377122
0.14326713
0.14257076
0.14176303
0.14088991
0.1399035
0.13843544
0.1369043
0.13594495
0.1361438
0.13707271
0.1383432
0.13989895
0.14081173
0.14177612
0.1423988
0.14332346
0.14377339
0.14448787
0.14488391
0.14468852
0.14380677
0.14198895
0.13902091
0.13425126
0.12787754
0.12048447
0.11258822
0.10640364
0.10747059
0.11349558
0.1211137
0.12844445
0.13476028
0.13936957
0.14242406
0.14412694
0.14490842
0.14495969
0.14441432
0.14390204
0.14322007
0.14240445
0.14166017
0.14082415
0.13975384
0.13818171
0.13680919
0.13602601
0.13583145
0.13665004
0.13794496
0.1394481
0.14062674
0.1415269
0.14230492
0.14308449
0.14385678
0.14425207
0.14500792
0.14497968
0.14403406
0.14229633
0.13942522
0.13487015
0.12866732
0.1213783
0.11410391
0.10818646
0.10839608
0.11420935
0.12163106
0.12877613
0.13491432
0.13924829
0.14207896
0.1438742
0.14470256
0.14478226
0.14430065
0.14392513
0.14316769
0.14229212
0.14153669
0.14055832
0.13936015
0.13776593
0.1364214
0.13564794
0.1357034
0.13654841
0.13773243
0.13926846
0.14043994
0.14138579
0.1422454
0.14297856
0.14383419
0.1441965
0.14472077
0.14459099
0.14377179
0.14219273
0.13906742
0.13456157
0.12850989
0.12137298
0.1143055
0.10860523
0.10747875
0.1132297
0.12056993
0.12774048
0.13382703
0.1383858
0.14148275
0.14336941
0.14438186
0.1446167
0.14423561
0.14392359
0.14313292
0.14230118
0.14138873
0.14056477
0.1393307
0.13760489
0.13625606
0.13540148
0.13541947
0.13629401
0.13741379
0.13888496
0.14021373
0.14104214
0.1420047
0.14270633
0.14367073
0.1438814
0.14431865
0.14396839
0.14277063
0.14060028
0.13730965
0.13264946
0.12629939
0.11887095
0.11151919
0.10555445
0.10138272
0.10780339
0.11576688
0.12385472
0.13066443
0.13586512
0.13945273
0.14196286
0.14347611
0.14402512
0.14377604
0.1434346
0.14272864
0.141968
0.14100872
0.14009028
0.13895213
0.13728635
0.13598585
0.13514412
0.13534624
0.13618838
0.13720465
0.13858659
0.13976049
0.14069185
0.14184217
0.14248539
0.14314869
0.14343576
0.14370764
0.14299846
0.14119671
0.13821943
0.13399721
0.12801547
0.12065468
0.11198093
0.10347034
0.096064976
0.090122026
0.09805508
0.10743536
0.11693846
0.12545772
0.13198251
0.13694346
0.14038753
0.142585
0.14353852
0.14326502
0.14287014
0.14235087
0.14164937
0.14081934
0.13989745
0.13879537
0.13726642
0.13610117
0.13527092
0.13502914
0.13591133
0.13708548
0.13854353
0.13992058
0.14083104
0.14144274
0.14220434
0.14253171
0.14299194
0.14325265
0.14222841
0.13972528
0.13617186
0.13080209
0.12412525
0.11455418
0.10409333
0.093567198
0.084625675
0.085163984
0.094090426
0.10475826
0.11554294
0.12462415
0.13145393
0.13637283
0.13961766
0.14184037
0.14280003
0.14262852
0.14240705
0.14206242
0.14134864
0.14050231
0.13965223
0.13861045
0.13702789
0.13566074
0.13480326
0.13490735
0.1357225
0.1368573
0.13831675
0.13971903
0.14065057
0.14122631
0.14190937
0.14220549
0.14267884
0.14287489
0.14201706
0.14007468
0.13741116
0.13325957
0.12760969
0.1200799
0.11149184
0.10272943
0.095640594
0.11062622
0.11492162
0.12053374
0.12660841
0.13209618
0.13633887
0.13919212
0.1412051
0.14238266
0.1429323
0.14257753
0.14216036
0.14168144
0.14114403
0.14042337
0.13941703
0.1384024
0.13689674
0.13563864
0.13487256
0.1351934
0.1359585
0.13696483
0.13822847
0.13945268
0.14044505
0.14117994
0.14190508
0.1421683
0.1426497
0.14308628
0.14283539
0.14206875
0.14101171
0.13912251
0.13637856
0.13287023
0.12924462
0.12561806
0.12283977
0.13176125
0.1331071
0.13507976
0.13756428
0.13978101
0.14135625
0.14223965
0.14268242
0.14286727
0.14295398
0.14253734
0.14226795
0.14178271
0.14106608
0.14030775
0.13944248
0.13850573
0.13702287
0.13579931
0.1350583
0.13547752
0.1361893
0.13713473
0.13843908
0.13955895
0.14032127
0.14094263
0.14173002
0.14219512
0.14264407
0.14308068
0.14311512
0.14297823
0.14297808
0.14239847
0.14168323
0.14048901
0.13911841
0.13765835
0.1365401
0.13933667
0.13977034
0.14061908
0.14165041
0.14242275
0.14291668
0.14311508
0.14292695
0.14287034
0.14282339
0.14242122
0.14213369
0.14162769
0.14096137
0.14027449
0.13954197
0.13848654
0.13720851
0.13622785
0.13559564
0.13559856
0.13638192
0.1374906
0.13865579
0.13955057
0.14038909
0.14088867
0.14154876
0.14192397
0.14235729
0.14285771
0.14297061
0.14279668
0.14307817
0.14301459
0.14277231
0.14199668
0.14131398
0.14055312
0.14011128
0.14039316
0.14057221
0.14118103
0.14188178
0.14247857
0.14280295
0.14282063
0.14263602
0.14264207
0.14249945
0.14198552
0.14161562
0.14132936
0.14085893
0.14029351
0.13962159
0.13872789
0.13752945
0.13627438
0.13552899
0.13584193
0.13667406
0.13783896
0.13901884
0.13974637
0.14054066
0.14097983
0.14154687
0.14164792
0.14212687
0.14258945
0.14273422
0.14254941
0.14268579
0.14253122
0.14233523
0.1415712
0.14097094
0.14028356
0.13995342
0.13968554
0.13989322
0.14061838
0.14146474
0.1420814
0.14235201
0.14255485
0.14265944
0.1427669
0.14252003
0.14204778
0.14193039
0.14162831
0.14123195
0.14062765
0.13996496
0.13914823
0.13793914
0.13666559
0.1358698
0.13625243
0.13715416
0.13838475
0.13955167
0.14021521
0.14090864
0.14153985
0.1418092
0.14228404
0.14227886
0.14273677
0.14289666
0.14275824
0.14274601
0.14226661
0.14194459
0.14120034
0.14045699
0.13964435
0.13915511
0.13899436
0.13935285
0.14010275
0.14106423
0.14182402
0.14225631
0.14267219
0.14274091
0.14277381
0.1427149
0.14250158
0.1423871
0.14217749
0.14192316
0.14118494
0.14064773
0.13972176
0.13850628
0.13721496
0.13640491
0.13701693
0.13778686
0.13879847
0.13993099
0.14095175
0.14150633
0.1421581
0.14243971
0.14265019
0.14280068
0.14317316
0.14323493
0.14301283
0.14300459
0.14244372
0.1420201
0.14112564
0.14028797
0.1395825
0.13901716
0.14137862
0.14127553
0.14395761
0.14674151
0.149589
0.15246635
0.15536887
0.15830579
0.16125145
0.16419637
0.16714108
0.17009426
0.17305103
0.17600554
0.17896078
0.18189272
0.18482445
0.18774331
0.19064859
0.19356214
0.19645614
0.19932311
0.20216194
0.20497261
0.20774893
0.21048053
0.21316673
0.21580949
0.21839841
0.22093227
0.22341142
0.22581012
0.22813999
0.23041494
0.23262386
0.234762
0.23683073
0.23883315
0.24076719
0.24263825
0.2444397
0.24617685
0.24786171
0.25260316
0.25099363
0.24933715
0.24762947
0.2458676
0.24404789
0.24216839
0.24022635
0.23822104
0.2361507
0.23401589
0.23181593
0.22955266
0.22722636
0.22484001
0.22239479
0.21989465
0.21734114
0.21473913
0.21209075
0.20940138
0.20667338
0.20391233
0.20112059
0.19830368
0.19546358
0.19260503
0.18972993
0.18684307
0.18394629
0.18104413
0.17813813
0.17523203
0.1723258
0.16942111
0.16651636
0.16361027
0.16070939
0.15781005
0.15494982
0.15211474
0.14935696
0.14669636
0.14627982
0.14896815
0.15175062
0.15459341
0.15747376
0.16037911
0.16329358
0.16621064
0.16912933
0.17204791
0.17496908
0.17788812
0.1808069
0.18372269
0.18663266
0.18953316
0.19242097
0.19529214
0.19814372
0.2009718
0.20377492
0.20654768
0.20928774
0.21198957
0.21465081
0.21726615
0.21983336
0.22234739
0.22480593
0.22720612
0.22954555
0.23182227
0.23403497
0.23618271
0.23826521
0.24028271
0.24223616
0.24412694
0.24595709
0.2477291
0.24944606
0.25111132
0.25273022
0.25430904
0.25475911
0.25319333
0.25158488
0.24992974
0.2482239
0.24646382
0.24464639
0.24276908
0.24082978
0.23882695
0.23675935
0.23462664
0.23242896
0.2301672
0.22784233
0.22545615
0.22301119
0.22051034
0.21795638
0.21535419
0.2127056
0.21001593
0.2072872
0.20452502
0.20173148
0.19891208
0.19606542
0.1931967
0.1903095
0.18740838
0.18449694
0.18157937
0.17865871
0.17573698
0.17281059
0.16987965
0.16694857
0.16402079
0.16109516
0.15818099
0.15528946
0.15244276
0.14965711
0.14697358
0.14772716
0.15043787
0.1532426
0.15610433
0.1590099
0.16193568
0.16486939
0.16780349
0.17073769
0.17367175
0.17660283
0.17953344
0.18246578
0.18539391
0.18831877
0.191232
0.19413342
0.19702079
0.19987581
0.20269885
0.20549466
0.20825713
0.21098508
0.21367198
0.21631667
0.21891292
0.22145986
0.22395181
0.22638742
0.22876386
0.23107808
0.23332756
0.23551273
0.23763166
0.23968569
0.2416742
0.2435993
0.24546255
0.24726637
0.24901346
0.25070701
0.25235013
0.25394773
0.25550676
0.25660279
0.25505812
0.25347294
0.251845
0.25016775
0.24843679
0.24664893
0.24480293
0.24289577
0.24092596
0.23889
0.23678872
0.23462022
0.23238652
0.23008708
0.22772672
0.22530665
0.22283007
0.22029628
0.21771099
0.21507492
0.21239418
0.20967017
0.2069098
0.20411402
0.20128913
0.19843803
0.19557462
0.1926913
0.18980086
0.1868946
0.18398708
0.18106904
0.17815483
0.1752303
0.17229681
0.16935948
0.16642053
0.16348053
0.16054904
0.15764154
0.15479187
0.15200315
0.14931912
0.15028656
0.1530106
0.15582286
0.15869241
0.16160362
0.16454225
0.16750417
0.1704648
0.17342236
0.17638305
0.17932149
0.1822504
0.18517612
0.18809494
0.19100677
0.19390653
0.19680054
0.19968957
0.20255788
0.20539982
0.20821657
0.21099677
0.21374192
0.21644293
0.21909659
0.22170167
0.22424069
0.22671798
0.22913708
0.23149878
0.23380614
0.23604756
0.23822183
0.24033014
0.24236483
0.24433112
0.24623407
0.24807711
0.24986617
0.25159586
0.25327273
0.25490397
0.25648979
0.25803762
0.25985389
0.2582987
0.25670408
0.25506853
0.25338508
0.25164894
0.24985715
0.24800761
0.24609635
0.244122
0.24208166
0.23997493
0.23780151
0.23556092
0.23325341
0.23088346
0.22845062
0.22595877
0.22340873
0.22080428
0.21814825
0.21544696
0.2127038
0.20993224
0.20712222
0.2042868
0.20141424
0.19851414
0.19559607
0.19266573
0.18972486
0.18677677
0.18382115
0.18086241
0.17790015
0.17493664
0.17197266
0.16900786
0.16604341
0.16308739
0.16015185
0.15725836
0.15442354
0.15168297
0.15244873
0.15525156
0.15814706
0.16109399
0.16408315
0.16706991
0.17005525
0.17303944
0.17602438
0.17901787
0.18202353
0.18502674
0.18803619
0.1910201
0.19399014
0.19694594
0.19988762
0.20281862
0.20572193
0.20859133
0.2114301
0.21423257
0.21699755
0.21971807
0.22239217
0.22502012
0.22760335
0.23012987
0.23259881
0.23500224
0.23734235
0.23960726
0.24180277
0.24393476
0.24600562
0.24801091
0.24995563
0.25183326
0.25365084
0.25541278
0.25712351
0.25878805
0.26041159
0.2619975
0.26445493
0.26283284
0.26117085
0.2594652
0.25771201
0.2559082
0.25404977
0.25213696
0.25016313
0.2481301
0.24603001
0.24386414
0.2416338
0.23934412
0.23698389
0.2345573
0.23206841
0.22952764
0.22692498
0.22426669
0.22155853
0.21880515
0.2160066
0.21317
0.21029588
0.20739027
0.20445578
0.20150102
0.19853132
0.19555763
0.19257005
0.18957971
0.18657499
0.1835715
0.1805554
0.17753167
0.17450463
0.1714772
0.16844787
0.16542309
0.16241474
0.15944646
0.156539
0.1537451
0.15422765
0.15708316
0.16004122
0.16305678
0.16611119
0.16918357
0.17226235
0.1753382
0.17841076
0.18148613
0.18453818
0.18758051
0.19061961
0.19365094
0.19668712
0.1997096
0.20271472
0.20570768
0.20869024
0.21164455
0.21457062
0.21746215
0.2203021
0.2230928
0.22583728
0.22853832
0.23118398
0.23376882
0.23629637
0.23876754
0.24117551
0.24351817
0.24579691
0.24801537
0.25016923
0.25225827
0.25429027
0.25626779
0.25819128
0.26006081
0.2618797
0.26365185
0.2653785
0.26706884
0.26968189
0.26790851
0.26609857
0.26424782
0.2623533
0.26041156
0.25841986
0.25637936
0.25428299
0.25212861
0.24991359
0.24763823
0.24530206
0.24290479
0.24045384
0.23794525
0.23537754
0.2327513
0.23007085
0.22734037
0.22456188
0.22173979
0.21887654
0.21598425
0.21305277
0.21009497
0.20710035
0.20407584
0.2010305
0.19798034
0.19491635
0.19185174
0.18877559
0.18569287
0.18260578
0.17951431
0.1764227
0.17333076
0.17023908
0.16715361
0.16408894
0.16106657
0.15810862
0.15526777
0.15532852
0.15821801
0.16121654
0.16425487
0.16732816
0.17041948
0.173519
0.17661716
0.17972346
0.1828475
0.18595753
0.18906645
0.19218497
0.1953012
0.19841152
0.20150912
0.20459126
0.20765719
0.21068446
0.21367789
0.21664256
0.21957365
0.2224702
0.22532565
0.22813823
0.23090332
0.23362067
0.23628637
0.2389049
0.24147859
0.24399999
0.24646565
0.24887501
0.25122818
0.25351998
0.25575342
0.25793391
0.2600633
0.26214503
0.26418047
0.26617471
0.2681315
0.27005167
0.27194102
0.27346117
0.27144249
0.26939645
0.26732067
0.26521179
0.26306737
0.26088363
0.25865884
0.25638941
0.25407399
0.25171031
0.24930144
0.2468417
0.24433522
0.24177519
0.23917085
0.23652178
0.23382727
0.23108252
0.22828849
0.22544954
0.22257073
0.21965332
0.21670322
0.21372118
0.21071225
0.20767748
0.20461981
0.20154203
0.19844917
0.19534325
0.19222953
0.18910994
0.18599038
0.18286978
0.17975142
0.17663502
0.17352196
0.17041234
0.16732351
0.16425702
0.161244
0.15829236
0.15544964
0.15401749
0.15686022
0.15980002
0.16280449
0.16586422
0.16896239
0.1720736
0.17518495
0.17829585
0.18140672
0.18451653
0.18762623
0.19073776
0.1938429
0.19694047
0.200026
0.20309744
0.2061517
0.20918454
0.21219525
0.21518481
0.21814423
0.22107492
0.22396975
0.22682661
0.22964692
0.23241492
0.23513808
0.23782109
0.24046841
0.24307329
0.24563348
0.24815599
0.25064289
0.25308973
0.255497
0.25786824
0.26020298
0.26250533
0.26477683
0.2670205
0.26923899
0.27143527
0.27361441
0.2716855
0.26934204
0.26698973
0.26462618
0.26224848
0.25985429
0.25744108
0.25500979
0.25255384
0.25007401
0.24756399
0.24502357
0.24245368
0.23985431
0.23722382
0.23456186
0.23186719
0.22914054
0.22638055
0.22358685
0.22076017
0.21790258
0.21501593
0.21211117
0.20918147
0.20623587
0.20326533
0.20027038
0.19725995
0.19423707
0.19120372
0.18816506
0.18512333
0.18209102
0.17905305
0.17600593
0.17295366
0.16989615
0.16683598
0.16379463
0.16078346
0.15782381
0.15493108
0.15212604
0.14765512
0.1504127
0.153254
0.15615944
0.15911186
0.16208646
0.16506762
0.16804193
0.17100993
0.17397765
0.17692678
0.17986804
0.18280671
0.1857395
0.1886664
0.19158272
0.19449402
0.19740741
0.20029568
0.2031651
0.20602456
0.20887439
0.21170596
0.21451453
0.2172998
0.22006104
0.22279621
0.22550667
0.22819763
0.23085694
0.23349235
0.23610682
0.23870255
0.24128303
0.24385102
0.24640505
0.24894741
0.25147945
0.25400479
0.25652385
0.25903953
0.26155416
0.26407015
0.26659267
0.25721599
0.25454806
0.25189766
0.249263
0.24664164
0.24403162
0.24143059
0.23883976
0.23625369
0.23367259
0.23108993
0.22850379
0.22591307
0.22331671
0.22071268
0.21810412
0.21548429
0.21285607
0.21021217
0.20755057
0.20487231
0.20217922
0.19947019
0.19674762
0.19401249
0.19126675
0.18851104
0.18575514
0.18299691
0.18023468
0.17746379
0.17468174
0.17189291
0.16909955
0.16630209
0.16350992
0.16071039
0.15790844
0.1550966
0.1522912
0.14950321
0.14676731
0.14409295
0.14148917
0.13118264
0.13363361
0.13612168
0.13867064
0.1412697
0.14389027
0.1465142
0.1491368
0.15174358
0.15434716
0.1569567
0.15956091
0.16216155
0.16476097
0.16734432
0.16992203
0.17249822
0.17507631
0.17765758
0.18023366
0.18280379
0.1853653
0.18791938
0.1904643
0.19300154
0.1955353
0.19805677
0.20057473
0.20309695
0.20562551
0.2081586
0.21069465
0.21323592
0.21578692
0.21834261
0.22091048
0.22349776
0.22610726
0.22873838
0.23139164
0.23406952
0.23677399
0.239507
0.2422756
0.22183752
0.2190739
0.21635045
0.21366538
0.21101687
0.20840302
0.20582282
0.20327849
0.20076292
0.19827339
0.19580856
0.19336489
0.19094098
0.18853454
0.18614363
0.18377119
0.18141022
0.17905726
0.17671168
0.17437099
0.17203372
0.16969839
0.16736251
0.16502613
0.16268839
0.16035481
0.15802237
0.15569077
0.15335769
0.15101927
0.14867896
0.14634192
0.14400254
0.14166474
0.139322
0.13697205
0.13461743
0.13225681
0.12989249
0.1275403
0.12521505
0.12295309
0.12076104
0.11859123
0.10241207
0.10435458
0.10627069
0.1082625
0.11032337
0.11240788
0.11449937
0.11659095
0.11868864
0.12078136
0.12287028
0.12495776
0.12705112
0.12914043
0.13122935
0.1333191
0.13541105
0.13750906
0.13961581
0.14172419
0.14383475
0.14595117
0.14806352
0.15017996
0.15230448
0.1544384
0.15658405
0.15874306
0.16091731
0.16310986
0.16532284
0.16755776
0.16982257
0.17211255
0.17443063
0.17678519
0.17917254
0.18159599
0.18406194
0.1865732
0.18912724
0.19172641
0.19437289
0.19706851
0.24376382
0.24209955
0.24038303
0.23861326
0.23678533
0.23489923
0.23295031
0.23094002
0.22886383
0.22672312
0.2245184
0.22225455
0.21992888
0.21754752
0.21510807
0.21261838
0.21008015
0.20749723
0.20486852
0.20220354
0.1995003
0.19676839
0.19400573
0.19122206
0.18841502
0.18559432
0.1827574
0.17991386
0.17706078
0.17420731
0.17134994
0.16849673
0.16564216
0.16278879
0.15993521
0.15708428
0.15423824
0.1513981
0.1485969
0.1458205
0.14314019
0.14055754
0.13933409
0.13863991
0.13836475
0.13810886
0.13799453
0.13777575
0.13770862
0.13763847
0.13750513
0.13724499
0.13724199
0.13706114
0.13696042
0.13693877
0.13700844
0.137184
0.13729583
0.13727784
0.13741321
0.13751751
0.13770371
0.13777482
0.13789342
0.13800461
0.1380967
0.13806313
0.13823191
0.13825456
0.13842953
0.13844293
0.13862007
0.13870396
0.13891078
0.13894015
0.13914619
0.1391775
0.1393951
0.13950949
0.13992538
0.14030931
0.14069323
0.14095629
0.14151298
0.14192025
0.14262216
0.14323661
0.14420102
0.14532507
0.14802495
0.14692702
0.14599172
0.14537707
0.14468856
0.14427382
0.14371601
0.14343966
0.14303438
0.14266276
0.14225561
0.1421308
0.14191757
0.14187514
0.14167438
0.14163787
0.14144246
0.14134473
0.14117783
0.14115238
0.1409829
0.14094742
0.14078362
0.14080417
0.14069643
0.14060192
0.14050507
0.14041166
0.14023356
0.14011046
0.13998832
0.13998688
0.13985237
0.13968875
0.13964548
0.13964731
0.13976753
0.13993142
0.1399319
0.14018104
0.14029818
0.14038382
0.14047175
0.14068326
0.14080217
0.14104478
0.14131839
0.141998
0.14473862
0.14408283
0.14381777
0.14358156
0.14346718
0.14325659
0.1431604
0.14305334
0.14294199
0.14270532
0.14270504
0.14256333
0.14241654
0.14243894
0.14245376
0.14262283
0.14276276
0.14278725
0.14288947
0.14303342
0.14320104
0.1433006
0.14341596
0.1434765
0.14359761
0.14359206
0.1437476
0.1437993
0.14395996
0.14400074
0.14415269
0.14426931
0.14444876
0.14449526
0.14468843
0.14474461
0.1449505
0.14508828
0.14548621
0.14585928
0.14627147
0.14656042
0.14711667
0.14753677
0.14821215
0.14882755
0.1497374
0.15082664
0.15366674
0.15259594
0.15171
0.1510934
0.15042738
0.15000449
0.14944699
0.1491525
0.14874758
0.14835816
0.14796528
0.14781729
0.14761671
0.14754926
0.14736096
0.14730624
0.14713921
0.14700654
0.14686969
0.14681532
0.14666169
0.14659557
0.14644629
0.14644278
0.14631319
0.14628737
0.14612724
0.14603576
0.14588439
0.14571474
0.14562975
0.14558754
0.14543355
0.14526441
0.14528268
0.14522906
0.14540308
0.14552456
0.14552199
0.14575163
0.14587891
0.14598852
0.14607439
0.14629568
0.14639743
0.14663982
0.14688993
0.14755432
0.15036792
0.14972397
0.1494723
0.14923692
0.14913033
0.14891076
0.14882456
0.14871143
0.14859126
0.14837153
0.14837373
0.1482769
0.14808916
0.14814376
0.14812782
0.14827215
0.14844224
0.14850527
0.14856809
0.1487454
0.1489047
0.14899969
0.14917246
0.14920277
0.14932337
0.14933623
0.14947508
0.14956023
0.14970196
0.14977486
0.14988977
0.15004065
0.15019367
0.15026124
0.15044162
0.1505236
0.15071512
0.15087625
0.15125999
0.15166775
0.15206209
0.15236536
0.15292217
0.1533507
0.15400483
0.15462866
0.15548901
0.15655734
0.15945758
0.15840206
0.1575679
0.15693601
0.15629295
0.15586058
0.15530147
0.15499056
0.15461593
0.15418215
0.15380387
0.15363386
0.15344785
0.15335535
0.15317867
0.1531013
0.15296714
0.15279297
0.15269905
0.15260955
0.15247726
0.15237593
0.15224379
0.15222649
0.15211471
0.15207915
0.15190874
0.15179719
0.15160971
0.15143796
0.15140645
0.15131978
0.15112745
0.15101213
0.1510244
0.15096894
0.1511754
0.15124062
0.15123826
0.15144981
0.15154938
0.15167305
0.15177065
0.15197908
0.15209275
0.15232127
0.15257797
0.15321896
0.15606348
0.15544181
0.15517798
0.15495737
0.15483327
0.15461839
0.15453309
0.15441157
0.15431939
0.15411701
0.1541135
0.15406205
0.15385789
0.1539085
0.15391163
0.15400862
0.15420872
0.15429949
0.15434237
0.15450447
0.15469636
0.15483
0.15499186
0.15504138
0.15514104
0.15516384
0.155287
0.1554077
0.15552666
0.15563686
0.15570448
0.155885
0.15601973
0.15610838
0.1562798
0.15638439
0.15656278
0.15674296
0.15711258
0.15755471
0.15792719
0.15824978
0.15880796
0.15924672
0.15987328
0.16051962
0.1613233
0.16238189
0.16529561
0.16424869
0.16347555
0.16281555
0.16220725
0.16176379
0.16120508
0.16087089
0.16048605
0.16004833
0.159694
0.15949825
0.15933362
0.15921132
0.15905072
0.15894485
0.15879659
0.15862317
0.15858787
0.15844897
0.15835176
0.15820438
0.15809647
0.15806262
0.15797365
0.15791416
0.15775935
0.15760365
0.15740412
0.15725895
0.15718678
0.15711245
0.15692048
0.15683003
0.15678954
0.15675142
0.15694122
0.15699239
0.15700229
0.15720043
0.15729803
0.15740526
0.15745734
0.15769327
0.15783051
0.15803735
0.15831416
0.15892567
0.16179118
0.16117393
0.16091736
0.16069097
0.16056093
0.16031617
0.16027873
0.16019101
0.16008214
0.15989645
0.15987479
0.15982776
0.15965442
0.15969237
0.15973541
0.15984218
0.16002375
0.16008331
0.16018529
0.16031402
0.16051643
0.1606983
0.16084341
0.16091543
0.16100838
0.16102123
0.16114602
0.16128921
0.16139434
0.1615321
0.16157187
0.1617292
0.16189597
0.16198475
0.16216777
0.16227449
0.16245835
0.16263593
0.16301029
0.16343587
0.16382067
0.16416965
0.16472464
0.16517698
0.16575949
0.16643725
0.16717669
0.16822717
0.17114706
0.17010568
0.16941155
0.16870933
0.16815156
0.16769268
0.16714159
0.16678111
0.16642247
0.16599203
0.16558113
0.16543532
0.16521954
0.16514123
0.16492256
0.16486749
0.16469674
0.16453613
0.16448513
0.16435619
0.16423056
0.16410364
0.1639503
0.16397067
0.16386931
0.16377891
0.16365256
0.16344355
0.16325495
0.16313515
0.16299858
0.16293811
0.16277435
0.16264579
0.16261657
0.16257101
0.16273516
0.16276569
0.16279728
0.1629698
0.16309895
0.16315903
0.16319803
0.16344003
0.16355225
0.16380985
0.16403282
0.16468075
0.16754535
0.1669104
0.1666942
0.16643749
0.16632702
0.16608572
0.16604101
0.16599323
0.16586185
0.16570923
0.165663
0.16564982
0.16549811
0.16556373
0.16558786
0.16572523
0.16586466
0.16594262
0.16608013
0.16620728
0.16637788
0.16659718
0.16673988
0.16681275
0.16692593
0.16690524
0.16705598
0.16719587
0.16731051
0.16744242
0.16750987
0.1676518
0.16783056
0.16788487
0.16811018
0.16818993
0.16840754
0.16855056
0.16896273
0.16939316
0.16974591
0.17012331
0.17066558
0.17113263
0.17165982
0.1723721
0.17305726
0.17408605
0.17701195
0.17601357
0.17532336
0.1746121
0.17412558
0.1736441
0.17311138
0.17271535
0.17235823
0.17193414
0.17152983
0.17138618
0.17117103
0.17108566
0.17085736
0.17079913
0.17060989
0.17049547
0.17039471
0.17026585
0.17017851
0.17001536
0.16987206
0.16988767
0.16975908
0.16971759
0.16953466
0.16931966
0.16917056
0.16902851
0.1689017
0.16881051
0.16868389
0.16853681
0.16849813