/*--------------------------------*- C++ -*----------------------------------*\
| =========                 |                                                 |
| \\      /  F ield         | OpenFOAM: The Open Source CFD Toolbox           |
|  \\    /   O peration     | Version:  v2012                                 |
|   \\  /    A nd           | Website:  www.openfoam.com                      |
|    \\/     M anipulation  |                                                 |
\*---------------------------------------------------------------------------*/
FoamFile
{
    version     2.0;
    format      ascii;
    class       volScalarField;
    location    "200";
    object      omega;
}
// * * * * * * * * * * * * * * * * * * * * * * * * * * * * * * * * * * * * * //

dimensions      [0 0 -1 0 0 0 0];


internalField   nonuniform List<scalar> 
49477
(
23.998013
23.631346
23.277842
22.936758
22.607412
22.289183
21.981498
21.683827
21.39568
21.116607
20.846186
20.58403
20.329777
20.083089
19.84365
19.611169
19.385374
19.166012
18.952844
18.745647
18.54421
18.348335
18.157833
17.972528
17.792254
17.616849
17.446163
17.280056
17.118393
16.961044
16.807883
16.658778
16.513585
16.372102
16.234052
16.098912
15.96621
15.83491
15.70619
15.578392
15.458131
15.341051
15.235326
15.137644
15.055702
14.911837
14.586308
14.315744
13.974303
13.643318
13.253863
12.882876
12.5408
12.257939
12.01471
11.830447
11.668806
11.559569
11.45609
11.39889
11.32983
11.302198
11.257681
11.250598
11.218902
11.216284
11.189675
11.192498
11.178968
11.207469
11.240257
11.341199
11.476264
11.719819
12.059739
12.588097
13.361244
14.45495
15.711624
16.283784
15.597336
14.270982
12.827519
11.452632
10.108076
9.0483192
8.3234412
7.8579589
7.5820254
7.416393
7.3358999
7.2871159
7.2622136
7.234987
7.2342494
7.2319077
7.2220086
7.2058432
7.1895631
7.1763601
7.1650961
7.1573751
7.150469
7.1469624
7.1442459
7.141272
7.1379684
7.1374285
7.1404903
7.146261
7.1581034
7.1712498
7.1810498
7.181273
7.1700876
7.1951874
7.2098139
7.2139036
7.2193095
7.2211281
7.2272526
7.2293316
7.2325052
7.2379896
7.2481557
7.2522073
7.2613895
7.2701265
7.276093
7.2804485
7.2818291
7.2840858
7.2903225
7.2932294
7.296637
7.2976088
7.3008882
7.3020493
7.3039379
7.3053988
7.3106364
7.3102333
7.3136751
7.3137266
7.3178287
7.3182796
7.3206335
7.3202701
7.3248432
7.3239961
7.3281559
7.3277018
7.3306581
7.3256366
7.3216755
7.3186078
7.3190471
7.3123753
7.3106144
7.3014197
7.2933414
7.2778801
7.2574226
7.2328433
7.2451825
7.2429928
7.2501787
7.2475061
7.2674736
7.2867056
7.3312611
7.3808401
7.4694135
7.5779951
7.7456379
7.9674888
8.2838921
8.7005825
9.2559826
9.9705614
10.836121
11.8766
13.0059
14.196777
14.057024
12.939575
11.828512
10.818065
9.957264
9.2565923
8.706646
8.2883463
7.9763431
7.7532756
7.592659
7.4821636
7.3971192
7.3438046
7.305837
7.2765512
7.2642564
7.2664312
7.2638064
7.2591345
7.2760982
7.2750203
7.2787798
7.2797351
7.2877204
7.3128912
7.3516745
7.4063309
7.4907258
7.6020003
7.7597161
7.9829781
8.2908851
8.7063043
9.2493525
9.9396503
10.787461
11.778019
12.837086
13.862156
13.661043
12.717912
11.706546
10.742683
9.9111651
9.2334545
8.6987075
8.2879093
7.9824194
7.7618478
7.6060094
7.4961469
7.4121346
7.3590093
7.3246487
7.3012199
7.2860718
7.2884128
7.2921474
7.2953341
7.2995287
7.2955651
7.2950522
7.2925995
7.3058445
7.3287268
7.366226
7.4201638
7.5006452
7.6094676
7.7636996
7.9837277
8.2817273
8.686145
9.2126399
9.8758304
10.685508
11.615108
12.57353
13.428831
13.168154
12.400126
11.502535
10.613894
9.8301738
9.1824569
8.6692158
8.2720504
7.9774543
7.7634514
7.6093876
7.503216
7.4243188
7.3678362
7.3337893
7.3106701
7.2962396
7.3007489
7.3077085
7.3124896
7.3096692
7.3040044
7.3012473
7.2989239
7.3161429
7.3385703
7.3680629
7.4199123
7.5028321
7.6106376
7.7629508
7.9754499
8.2624971
8.6504421
9.1497808
9.7770355
10.530588
11.372118
12.199654
12.870078
12.557039
11.97835
11.229689
10.440815
9.7213581
9.115662
8.6293138
8.2506364
7.965496
7.7595259
7.612637
7.5013798
7.4224469
7.3686299
7.3361427
7.311871
7.2973609
7.3034549
7.3129301
7.3197091
7.3137533
7.3070853
7.3042486
7.2998472
7.3154112
7.3378693
7.3691364
7.4237482
7.4999452
7.6071371
7.7553926
7.9607747
8.2424608
8.6123611
9.0832222
9.6667076
10.349789
11.079817
11.748032
12.255677
11.989102
11.525748
10.924015
10.25631
9.6114516
9.0523124
8.5929442
8.2294111
7.9535593
7.7492303
7.6070192
7.4999688
7.4221523
7.3684758
7.3352281
7.3128739
7.3006292
7.308096
7.3121995
7.3172961
7.3206554
7.313364
7.3105659
7.3022335
7.3089755
7.3276961
7.3648546
7.4138095
7.4977549
7.6031728
7.7500558
7.9556519
8.2228895
8.5791656
9.0257896
9.5611388
10.161042
10.771449
11.326142
11.762902
11.578944
11.156092
10.630897
10.066859
9.5104529
9.0062407
8.5737907
8.2251738
7.9535522
7.7512822
7.6071982
7.4955427
7.4176441
7.3665995
7.3332494
7.3120167
7.2993581
7.3102366
7.3211314
7.3299252
7.3220418
7.3117952
7.3048403
7.2967461
7.3057286
7.3277847
7.3672097
7.4162356
7.4955364
7.602079
7.749944
7.954781
8.2249376
8.5693102
8.9871149
9.4620288
9.9780305
10.510531
11.01672
11.430965
11.314394
10.90548
10.410346
9.9022625
9.414204
8.966117
8.5694189
8.2252076
7.950732
7.7453096
7.6027701
7.494084
7.4158759
7.360641
7.3269195
7.3052113
7.290297
7.2996236
7.3145462
7.3261968
7.3174577
7.3052867
7.295496
7.2883496
7.2988179
7.3201926
7.3547738
7.4044594
7.4881153
7.5951503
7.7449794
7.9558594
8.2292059
8.5681017
8.9495316
9.372928
9.838935
10.332522
10.81872
11.224775
11.156274
10.75284
10.271868
9.7895517
9.3420182
8.9346408
8.5627969
8.2280434
7.951199
7.7405955
7.5941138
7.4827323
7.4048747
7.3533569
7.3213114
7.2984738
7.2852107
7.2950021
7.3105656
7.3226365
7.3140157
7.3030971
7.2953023
7.2883386
7.2977462
7.3191939
7.3569327
7.4047676
7.4823572
7.5864931
7.7331141
7.9428627
8.2216196
8.5534944
8.9201211
9.3208456
9.7529183
10.223114
10.700638
11.102079
11.060228
10.664154
10.191419
9.7299381
9.3009869
8.9054688
8.5401849
8.2034227
7.9322739
7.7290323
7.5880196
7.4819972
7.4071463
7.3565445
7.3221215
7.3027586
7.2927779
7.2987576
7.309704
7.3189757
7.3131995
7.3042764
7.2975195
7.2869055
7.3011599
7.3164586
7.3540192
7.400126
7.4788167
7.5797379
7.7226398
7.9266025
8.1947834
8.5277654
8.8916831
9.2847281
9.7110952
10.170667
10.636215
11.032408
11.011613
10.61913
10.153565
9.6951784
9.2690382
8.8803972
8.5181343
8.1894794
7.9191714
7.7179734
7.5788024
7.4746579
7.398959
7.3489261
7.3165621
7.2966337
7.2856421
7.2927667
7.3071645
7.316776
7.3081972
7.2978304
7.2878184
7.2786575
7.2904886
7.3067624
7.3435209
7.3910533
7.4714025
7.5697485
7.7115107
7.9135341
8.1779002
8.5011315
8.8698131
9.2595805
9.682796
10.138728
10.60247
10.99858
10.979682
10.588843
10.127934
9.6743816
9.2496119
8.8567105
8.4921783
8.1705605
7.9054367
7.7053651
7.5694705
7.4678171
7.3915774
7.3384093
7.3068061
7.2887254
7.2769795
7.2842084
7.3010067
7.3121157
7.3042712
7.2925744
7.2803847
7.2711433
7.2847599
7.3021187
7.3356955
7.3847977
7.4653886
7.56351
7.6992689
7.8983717
8.1665495
8.4879974
8.8473678
9.2374374
9.6666189
10.120548
10.579272
10.971763
10.959977
10.575567
10.120554
9.6639151
9.2386789
8.8472508
8.4845936
8.1595939
7.8958212
7.6999432
7.5675494
7.4656792
7.3899497
7.3376558
7.3037678
7.282932
7.2722224
7.2795668
7.2972393
7.3089475
7.2989834
7.2882126
7.2778532
7.2692154
7.2819744
7.3014399
7.3396133
7.3869653
7.4654857
7.5660247
7.7081265
7.9074892
8.1719457
8.4964355
8.8576828
9.2503797
9.6742426
10.125182
10.581095
10.965354
10.980626
10.603526
10.154501
9.70514
9.2815902
8.8874373
8.519714
8.1914175
7.922664
7.7200804
7.5758455
7.4663656
7.3906851
7.3401489
7.3020598
7.2780136
7.2687133
7.2784405
7.2916541
7.2986927
7.2984057
7.2909438
7.2797067
7.2719645
7.2795046
7.3028051
7.3436444
7.3981226
7.4761864
7.5938738
7.7434088
7.9563201
8.2394038
8.5779898
8.9500915
9.3472203
9.7701572
10.217727
10.658767
11.02999
11.126704
10.762169
10.324371
9.8808165
9.457697
9.0571507
8.6749512
8.3198401
8.0198681
7.788244
7.6186221
7.4903178
7.4041856
7.3464008
7.3029757
7.2799154
7.2707169
7.2792738
7.2918047
7.2984087
7.2918349
7.2834192
7.2752659
7.2677795
7.2791355
7.3059057
7.3510317
7.4187067
7.5136975
7.6569501
7.8464366
8.1059152
8.4371671
8.8155398
9.2194098
9.6319949
10.057383
10.497831
10.923489
11.276845
11.519848
11.177801
10.760719
10.322813
9.8891824
9.4579742
9.0267575
8.6054086
8.2285093
7.9279319
7.7055098
7.5402507
7.4300835
7.3560685
7.3072986
7.2737797
7.2621712
7.2731453
7.2848863
7.294035
7.2880104
7.2786936
7.2730491
7.2690421
7.2784801
7.3149927
7.3680994
7.4543579
7.5762977
7.7690879
8.0277098
8.382108
8.8222046
9.301904
9.7804195
10.248278
10.705026
11.147107
11.550583
11.875976
12.410094
12.101064
11.700673
11.233385
10.723104
10.185778
9.6335676
9.0768805
8.558789
8.1381825
7.8307088
7.6124374
7.4676183
7.3728395
7.3151006
7.2785329
7.2615577
7.2702026
7.2805019
7.2889633
7.2778607
7.2696309
7.2666643
7.265202
7.2809708
7.3189932
7.3767674
7.4825152
7.6437058
7.8901734
8.2416377
8.731536
9.3361521
9.9868274
10.647441
11.30276
11.921868
12.461957
12.886015
13.190453
14.273217
13.930062
13.412535
12.717284
11.916124
11.097583
10.304825
9.5557029
8.871401
8.3189214
7.9288018
7.6622276
7.4871552
7.3771794
7.3099306
7.2718978
7.2544945
7.2596296
7.2671676
7.2752803
7.275841
7.2665171
7.2584639
7.2539522
7.2641751
7.3013404
7.3718407
7.4817585
7.6643827
7.9407629
8.3515572
8.9417516
9.6819066
10.508603
11.417611
12.396016
13.400943
14.310471
15.010348
15.481558
15.999502
15.440205
14.627414
13.611975
12.528053
11.477883
10.520991
9.6652885
8.9134017
8.3225045
7.9148297
7.6404151
7.4631704
7.3567897
7.2955575
7.2595826
7.2432007
7.2516989
7.2649157
7.274371
7.2664972
7.2577469
7.2493876
7.2416018
7.2462821
7.2763546
7.3373175
7.4345789
7.597636
7.8450839
8.2207902
8.7705541
9.4836158
10.310873
11.234686
12.223758
13.21337
14.121731
14.848266
15.341155
14.073132
13.703416
13.139497
12.414761
11.595169
10.738147
9.9064678
9.1567631
8.5344894
8.0658037
7.7477147
7.5355706
7.3989448
7.3129239
7.2632366
7.2405151
7.2289771
7.2395528
7.2520424
7.2603364
7.2468139
7.2377791
7.2305531
7.2236763
7.2263501
7.2435183
7.2828883
7.3488368
7.4642134
7.6332475
7.8837038
8.2500391
8.7447748
9.3587566
10.056381
10.772812
11.440672
12.012463
12.430425
12.687599
11.342001
11.141374
10.816312
10.37439
9.8509486
9.2972753
8.7759316
8.3296324
7.9738924
7.7062813
7.5211719
7.3908212
7.306191
7.2561288
7.2275347
7.2137313
7.2085124
7.2229907
7.2376098
7.2471575
7.2319215
7.2228486
7.2144917
7.2022099
7.2004641
7.2104089
7.232542
7.2666608
7.3279845
7.4186908
7.5478954
7.732659
7.9761267
8.2746598
8.6240665
8.996907
9.3573922
9.6688853
9.8962236
10.033345
8.9965497
8.9046161
8.7641248
8.5728983
8.3485443
8.1148616
7.894514
7.7052984
7.5481561
7.4251939
7.3396296
7.2755528
7.234711
7.2103127
7.1971098
7.1905829
7.1953273
7.2098361
7.2198374
7.2269622
7.2250993
7.2134352
7.1989239
7.1855815
7.182186
7.1829729
7.1942201
7.2085904
7.2374613
7.2769898
7.3289582
7.4062519
7.5093195
7.6240903
7.7578458
7.898754
8.0362895
8.151508
8.2359001
8.2903306
7.8427417
7.8105858
7.7594219
7.689089
7.6064427
7.5217852
7.4427317
7.3749384
7.314224
7.2674295
7.2372174
7.2127891
7.1921102
7.1807171
7.1748518
7.1726797
7.1782104
7.1944978
7.2145132
7.2261056
7.216963
7.202905
7.1857984
7.1692976
7.165792
7.1632599
7.1688232
7.1733325
7.1908106
7.2023336
7.2194065
7.2468429
7.2861779
7.3250523
7.3725659
7.4209797
7.4750114
7.5180641
7.5522712
7.5740717
7.4159725
7.4025359
7.377541
7.3453109
7.3123601
7.2828855
7.2544493
7.2283225
7.2050461
7.1911627
7.1841306
7.1702822
7.1622876
7.1575361
7.1579192
7.159544
7.1662349
7.183135
7.2038804
7.2176586
7.2092525
7.1936
7.1746204
7.1589049
7.1552546
7.1517954
7.149063
7.1542552
7.1553628
7.1678091
7.1701692
7.1783587
7.1942024
7.2088617
7.231959
7.2510137
7.276217
7.2980055
7.3180321
7.3324319
7.2845942
7.2758811
7.2609742
7.2391749
7.2193942
7.2042756
7.1879065
7.1779566
7.1688357
7.1621207
7.1575954
7.151154
7.1453854
7.1407382
7.1467832
7.1474235
7.1578404
7.1741871
7.1953552
7.2088755
7.1969702
7.184829
7.1721529
7.1584458
7.1455657
7.1439873
7.1391175
7.1413756
7.1460222
7.1499069
7.1497672
7.1542628
7.1656538
7.1715916
7.1877823
7.1993689
7.2190123
7.2357813
7.2474132
7.2585408
7.250414
7.2557561
7.2492219
7.2447424
7.2426499
7.2425406
7.2439976
7.2464279
7.2499332
7.2545138
7.260197
7.266988
7.2749609
7.2841457
7.2944953
7.3061436
7.3188707
7.3327311
7.347656
7.3635307
7.3804383
7.3983478
7.4172143
7.4369881
7.4576347
7.4791219
7.5013984
7.524415
7.5481426
7.5725335
7.5975421
7.6231617
7.6493258
7.6759865
7.7031284
7.7307252
7.75875
7.7871803
7.8159968
7.8451799
7.8747197
7.9046005
7.9348093
8.0186031
7.9869102
7.9555156
7.9244291
7.8936621
7.8632281
7.8331422
7.8034219
7.7740867
7.7451589
7.7166625
7.6886249
7.6610744
7.6340429
7.6075627
7.5816697
7.556399
7.53179
7.5078789
7.4847071
7.4623108
7.4407314
7.4200037
7.4001678
7.3812558
7.3633057
7.3463472
7.3304153
7.3155343
7.301734
7.2890304
7.2774422
7.2669658
7.2575935
7.2492722
7.2419638
7.2355704
7.2302639
7.2259019
7.2234788
7.2224786
7.2245551
7.2280945
7.2401975
7.2355815
7.2331459
7.233273
7.2353188
7.2389952
7.2438155
7.2496854
7.2565498
7.2644642
7.2734613
7.2835969
7.2948661
7.3072677
7.3207881
7.3354074
7.3510996
7.3678363
7.3855838
7.4043089
7.4239703
7.4445368
7.465967
7.4882266
7.511273
7.5350702
7.559576
7.5847548
7.6105666
7.6369744
7.6639428
7.6914381
7.7194282
7.7478834
7.7767764
7.8060826
7.8357785
7.8658447
7.8962631
7.9270183
7.958096
7.9894845
8.0211736
8.053154
8.0588558
8.0268562
7.9951486
7.9637412
7.9326425
7.9018634
7.8714177
7.8413201
7.811587
7.7822371
7.7532936
7.7247791
7.6967203
7.6691458
7.6420868
7.6155759
7.5896474
7.5643373
7.5396834
7.5157207
7.4924898
7.4700263
7.4483722
7.4275615
7.4076353
7.3886248
7.3705802
7.3535345
7.337522
7.3225715
7.3087091
7.2959536
7.2843185
7.2738115
7.2644526
7.2562549
7.2491366
7.2430399
7.2379896
7.2341034
7.2317397
7.2313729
7.2334393
7.2377277
7.2450874
7.2405395
7.238352
7.2387033
7.241116
7.2450798
7.250225
7.2564214
7.2636526
7.2719595
7.2813958
7.2919613
7.3036513
7.3164733
7.3303969
7.3454264
7.3615213
7.3786333
7.3968087
7.4159616
7.4360283
7.4569766
7.4787629
7.5013533
7.5247039
7.5487797
7.5735385
7.5989456
7.6249614
7.6515503
7.6786792
7.7063161
7.7344295
7.7629919
7.7919766
7.821362
7.8511257
7.8812493
7.9117174
7.9425159
7.9736322
8.0050563
8.03678
8.068795
8.0843769
8.0523558
8.0206265
7.9891945
7.958068
7.9272561
7.8967698
7.8666209
7.8368243
7.8073964
7.7783579
7.7497297
7.7215372
7.6938062
7.6665671
7.6398479
7.6136819
7.5881024
7.5631501
7.5388593
7.5152726
7.4924256
7.4703623
7.4491169
7.428734
7.4092471
7.3906936
7.3730619
7.3564273
7.3407808
7.3262011
7.3126564
7.3002251
7.2888519
7.2786218
7.2695369
7.2615308
7.2545517
7.2486076
7.2438071
7.240496
7.2390568
7.2400321
7.2432085
7.2636732
7.2604006
7.2595275
7.261114
7.2647141
7.2697211
7.2757425
7.2828208
7.2909438
7.3000952
7.3104959
7.3220257
7.3346433
7.34834
7.363087
7.3788668
7.3956121
7.4132897
7.4319278
7.4514966
7.4719497
7.4932664
7.5153952
7.5383085
7.5619623
7.5863081
7.6113354
7.6369814
7.6632001
7.689953
7.7172056
7.7449423
7.7731342
7.801753
7.8307816
7.8601929
7.8899661
7.9200848
7.9505348
7.981309
8.0123958
8.0437869
8.0754772
8.1074611
8.1407576
8.1088815
8.0772997
8.046015
8.0150319
7.9843567
7.9539971
7.923962
7.8942631
7.8649139
7.8359317
7.8073357
7.7791472
7.7513912
7.7240947
7.6972837
7.6709909
7.6452482
7.6200931
7.5955626
7.5716959
7.5485277
7.5260958
7.5044087
7.4835367
7.4634928
7.4443599
7.4261745
7.4089502
7.3927105
7.3774859
7.363299
7.3501795
7.3381342
7.3271728
7.3172753
7.3083998
7.3005062
7.2935976
7.2877907
7.2834325
7.2810175
7.2809974
7.2833456
7.328143
7.3256713
7.3256857
7.3282241
7.3327354
7.3389239
7.3462588
7.3545602
7.3638114
7.3740025
7.3851847
7.397463
7.4107834
7.4252827
7.440834
7.4573949
7.4749233
7.4933532
7.5127115
7.5329497
7.5540108
7.5758593
7.5984516
7.6217543
7.6457255
7.6703197
7.6954982
7.7212415
7.747515
7.7742891
7.801528
7.8292123
7.8573081
7.8857879
7.9146322
7.9438268
7.9733561
8.0032096
8.0333759
8.0638467
8.0946162
8.1256806
8.1570383
8.1886888
8.2585893
8.2273129
8.1963159
8.1655963
8.1351532
8.1049879
8.0751032
8.0455046
8.0161992
7.9871965
7.9585093
7.9301528
7.902144
7.8745008
7.8472515
7.8204238
7.7940451
7.7681378
7.7427453
7.7179041
7.6936475
7.6700116
7.6470391
7.6247657
7.6032353
7.5824854
7.5625586
7.543484
7.5252887
7.5079645
7.4915867
7.4761517
7.461743
7.4483232
7.4359712
7.42468
7.4143918
7.4050542
7.3966815
7.3894029
7.3835749
7.379693
7.3781943
7.3789556
7.4681135
7.467774
7.4699277
7.4745665
7.4812034
7.4893034
7.4984954
7.5086744
7.5198192
7.5319214
7.545158
7.5594212
7.5746723
7.5908961
7.6080119
7.6260614
7.6450023
7.6647698
7.685324
7.7066681
7.7287551
7.7515425
7.7750133
7.799102
7.8237588
7.8489381
7.8746147
7.9007499
7.9273066
7.954253
7.9815649
8.0092153
8.0371803
8.0654414
8.0939824
8.1227889
8.1518525
8.1811663
8.2107243
8.2405228
8.270561
8.3008409
8.3313638
8.3621405
8.5173445
8.4870735
8.4569977
8.4271085
8.3974004
8.3678693
8.3385135
8.3093373
8.2803379
8.25152
8.2228923
8.1944676
8.1662607
8.1382903
8.1105807
8.0831542
8.0560383
8.0292646
8.0028676
7.9768828
7.951347
7.9262981
7.9017768
7.8778137
7.8544633
7.831757
7.8097576
7.7885124
7.7680529
7.7483844
7.7295726
7.7116219
7.6946027
7.6785469
7.6634596
7.6493412
7.6361511
7.6238528
7.6124528
7.6020854
7.5930995
7.5860276
7.581334
7.5789582
7.7486464
7.7530666
7.7599847
7.7695422
7.7810765
7.7939829
7.8078724
7.8226191
7.8381691
7.8545347
7.8718896
7.8901644
7.9093178
7.9293618
7.950266
7.9719989
7.9945137
8.0177607
8.0417182
8.0663133
8.0914909
8.117206
8.143413
8.1700692
8.1971316
8.2245597
8.252316
8.2803636
8.308675
8.3372224
8.365971
8.3948897
8.4239576
8.4531562
8.482456
8.5118497
8.5413342
8.5709023
8.6005541
8.6302887
8.6601152
8.6900402
8.7200647
8.7502094
9.0977887
9.0667587
9.0357313
9.0046963
8.9736435
8.9425689
8.9114677
8.8803429
8.849195
8.8180329
8.7868674
8.7557266
8.7246154
8.6935654
8.6625829
8.6317131
8.6009809
8.5704154
8.5400413
8.5098937
8.4800197
8.4504648
8.421274
8.3924964
8.3641787
8.3363703
8.3091222
8.282488
8.2565151
8.2312512
8.2067431
8.1830325
8.1601577
8.1381413
8.1170057
8.0967439
8.077322
8.058695
8.0408657
8.0239162
8.0082865
7.9945263
7.9832299
7.9744078
8.2948804
8.3079763
8.3238054
8.3422616
8.3626983
8.3844499
8.4071436
8.4306471
8.4549559
8.4801143
8.5061569
8.533083
8.5608731
8.5894967
8.6189088
8.649066
8.6799155
8.7114069
8.74349
8.7761119
8.8092239
8.842768
8.8766979
8.9109528
8.9454829
8.9802564
9.0151847
9.0502499
9.0854269
9.1207021
9.1560149
9.1913321
9.2266524
9.2619559
9.2971961
9.3323541
9.3674208
9.4023742
9.4372137
9.4719301
9.506524
9.5409976
9.5753561
9.6096332
10.351989
10.310269
10.268408
10.2264
10.184238
10.141928
10.099475
10.056916
10.014233
9.9714629
9.9285952
9.8856552
9.8426821
9.7997097
9.756767
9.713887
9.671099
9.6284421
9.585952
9.5436725
9.5016442
9.4599156
9.418533
9.377573
9.3370586
9.2970556
9.2575857
9.218697
9.180454
9.1429087
9.1061099
9.0701034
9.034929
9.000616
8.9671766
8.9346117
8.9028847
8.8719445
8.8417806
8.8125139
8.784608
8.7588304
8.7359362
8.7163276
9.2778279
9.3049821
9.336093
9.3706017
9.4075116
9.4458987
9.4852539
9.5254263
9.5664476
9.6083983
9.6513063
9.6951884
9.7400357
9.7858229
9.8325198
9.8800802
9.9284857
9.9777311
10.027676
10.078304
10.129614
10.18157
10.234091
10.287124
10.340624
10.394554
10.448856
10.503498
10.55848
10.613662
10.669077
10.724707
10.78053
10.836541
10.892726
10.949023
11.00541
11.061863
11.118372
11.174911
11.231477
11.288064
11.34467
11.401348
12.831378
12.749013
12.667307
12.586237
12.505779
12.425925
12.346668
12.268056
12.190048
12.11268
12.03591
11.95974
11.884199
11.809307
11.735079
11.661588
11.588805
11.516787
11.445503
11.374966
11.305217
11.236291
11.168214
11.101025
11.034752
10.969432
10.905096
10.841819
10.779612
10.718491
10.658464
10.599539
10.541758
10.485138
10.429675
10.375343
10.322036
10.269643
10.218087
10.167501
10.118417
10.071867
10.029254
9.9923073
10.874451
10.922422
10.978452
11.038752
11.101602
11.166028
11.231526
11.297978
11.365458
11.434152
11.504229
11.575756
11.64878
11.723333
11.79934
11.876838
11.955832
12.036339
12.118359
12.201843
12.286774
12.373135
12.460926
12.550112
12.6407
12.732726
12.826078
12.920835
13.017057
13.114752
13.213886
13.314426
13.416395
13.519852
13.624704
13.731058
13.839006
13.948587
14.059792
14.17265
14.287224
14.403578
14.521788
14.642006
16.712019
16.551215
16.393657
16.239186
16.087666
15.938977
15.793023
15.649771
15.509081
15.370866
15.235077
15.10165
14.970538
14.841696
14.715086
14.590721
14.46852
14.348432
14.230445
14.114533
14.000673
13.888847
13.779034
13.67122
13.565394
13.461574
13.359732
13.259849
13.161901
13.065858
12.971729
12.87952
12.789188
12.700698
12.613938
12.528735
12.444848
12.362038
12.280204
12.199526
12.120466
12.043651
11.970641
11.906374
13.069565
13.147603
13.237185
13.330033
13.425054
13.522059
13.620389
13.719716
13.820116
13.921966
14.025637
14.131399
14.239409
14.349756
14.462485
14.577632
14.695221
14.815293
14.937875
15.062977
15.190622
15.320861
15.453659
15.589076
15.727147
15.867895
16.01135
16.157537
16.306487
16.458233
16.6128
16.770218
16.930563
17.093801
17.259975
17.429174
17.601365
17.7766
17.954945
18.136443
18.321079
18.508896
18.699935
18.894224
7.8679524
7.8369639
7.8062835
7.7759248
7.7459053
7.7162424
7.6869595
7.6580785
7.629629
7.6016401
7.5741439
7.5471703
7.5207601
7.4949457
7.4697735
7.4452775
7.4215006
7.3984841
7.376281
7.3549215
7.3344615
7.3149276
7.2963761
7.2788277
7.2623375
7.2469186
7.2326237
7.2194563
7.2074649
7.1966414
7.1870254
7.1785865
7.1713436
7.1652408
7.1602391
7.1562107
7.1533461
7.1514656
7.151568
7.1531339
7.1575568
7.1633498
7.1871721
7.2006988
7.2048414
7.2100069
7.2120801
7.2180866
7.2204676
7.2238088
7.2291712
7.2388884
7.2430505
7.2517079
7.260674
7.2662094
7.271041
7.2726559
7.2748305
7.2806668
7.2838956
7.2869772
7.2882654
7.2912804
7.292617
7.294772
7.2961561
7.3010521
7.3009242
7.3040543
7.3043851
7.3081447
7.3089414
7.3110291
7.3110276
7.3153517
7.3147732
7.3186368
7.3184313
7.3211473
7.3165903
7.3128915
7.3098883
7.3101525
7.3038835
7.3019927
7.2932766
7.2856324
7.2709462
7.2519422
7.2466178
7.264327
7.2779122
7.2852415
7.2933365
7.2952896
7.3012021
7.3011809
7.3041961
7.3074929
7.3115219
7.3090599
7.3089918
7.3054465
7.3057341
7.3016836
7.3012977
7.2994877
7.2983082
7.2949227
7.2942828
7.2914906
7.2913146
7.2867785
7.2855722
7.2830803
7.2814235
7.2787978
7.2772392
7.2744299
7.270855
7.2654486
7.2634892
7.2614416
7.2561873
7.2510334
7.2418636
7.2337733
7.2294781
7.2202537
7.2151835
7.2115458
7.2087949
7.2030469
7.2007397
7.1959517
7.1917631
7.1790299
7.1733402
7.1854093
7.1894407
7.1940705
7.1963916
7.2020484
7.2049382
7.208912
7.2138927
7.2226349
7.2270932
7.234583
7.2440086
7.2487743
7.2544083
7.2565715
7.2586298
7.2636046
7.2675661
7.2701339
7.2719597
7.2745074
7.2758666
7.278861
7.2799679
7.2841589
7.2846569
7.2870972
7.2880747
7.2910712
7.2926654
7.2941593
7.2949554
7.2987186
7.298727
7.3019525
7.3023174
7.3045301
7.301016
7.2978657
7.2950913
7.2948831
7.2893642
7.2873537
7.2799185
7.2727944
7.2603054
7.2434204
7.2429111
7.2587376
7.2702133
7.2771013
7.2839549
7.2859418
7.2911357
7.2914528
7.2938536
7.2969997
7.3001084
7.2980378
7.2974608
7.2944544
7.2942483
7.2906823
7.289623
7.2883152
7.2863813
7.2836851
7.2824487
7.28027
7.2795387
7.2755545
7.2744583
7.2710798
7.2702268
7.2675774
7.2654571
7.2631207
7.258935
7.2542229
7.2522283
7.2498192
7.2438422
7.2394643
7.2298892
7.2228695
7.2183155
7.2099331
7.2047644
7.2007712
7.1979786
7.192262
7.1900337
7.1854165
7.1816339
7.1699854
7.1690653
7.1799674
7.1837332
7.1880995
7.190485
7.1960494
7.1989267
7.2029437
7.2079881
7.2159813
7.2206817
7.2272264
7.2367019
7.241164
7.2469434
7.2498615
7.2518225
7.2562858
7.2606986
7.2630997
7.2651796
7.2677296
7.2685886
7.2717968
7.273126
7.2769015
7.277904
7.2797855
7.2813303
7.2836868
7.2860047
7.2871353
7.288446
7.2917738
7.2922059
7.2949681
7.2957943
7.2976986
7.2950298
7.2918884
7.2898894
7.2894261
7.2846058
7.2826126
7.2763803
7.2696644
7.2592094
7.2441772
7.2471918
7.2612024
7.27068
7.2771815
7.2828351
7.2847753
7.2892641
7.2898172
7.2913617
7.2945143
7.2968589
7.2949985
7.2940368
7.2913979
7.2908579
7.2876515
7.2860905
7.2851339
7.282552
7.2804269
7.2786784
7.2769782
7.2758187
7.2721323
7.2706361
7.2675629
7.2665293
7.2642107
7.2623502
7.2597295
7.2550621
7.2508384
7.2489629
7.2455912
7.2399471
7.235447
7.2260215
7.2199717
7.2151649
7.2075068
7.2027202
7.1986102
7.1955722
7.1902481
7.1877654
7.1835894
7.1799114
7.1696116
7.1715721
7.1811451
7.1847319
7.1887004
7.191294
7.1966029
7.1995085
7.2034982
7.2082417
7.2155366
7.2205122
7.2263394
7.2354063
7.2400282
7.2454181
7.2490334
7.2510453
7.2553122
7.2596623
7.2625134
7.2644796
7.2665182
7.2678003
7.2706589
7.2723537
7.2759396
7.2772717
7.2787815
7.2807556
7.2826408
7.2854915
7.2865237
7.2880677
7.291152
7.2918121
7.2943202
7.2954315
7.2972381
7.2952364
7.2923232
7.2909942
7.2903164
7.286222
7.2843092
7.2792755
7.2729339
7.264447
7.2512548
7.2565063
7.2687326
7.2763427
7.2824482
7.2869038
7.2887414
7.2924737
7.2932305
7.2944979
7.2970419
7.2986632
7.2969448
7.2956469
7.2933028
7.2924855
7.2895553
7.2881565
7.2868959
7.2838032
7.2821757
7.279932
7.2786432
7.2770991
7.2736579
7.2718295
7.2690782
7.2676387
7.2657859
7.2637907
7.2606727
7.2567329
7.2522281
7.2499487
7.246246
7.2412675
7.236474
7.2278661
7.2221074
7.2170021
7.210009
7.2052032
7.2014347
7.1988135
7.1934043
7.1907082
7.1869916
7.1834595
7.1745008
7.1784981
7.1870865
7.1902095
7.1940376
7.196622
7.201934
7.2045294
7.2080466
7.212958
7.2195702
7.2248464
7.2304836
7.2386411
7.2434591
7.2484413
7.251972
7.254557
7.2592004
7.2627944
7.2661051
7.2682184
7.2698965
7.2714992
7.2741283
7.2759229
7.2795738
7.2809604
7.282403
7.2845525
7.2863055
7.2891874
7.2907408
7.2919833
7.2951381
7.2957444
7.2982963
7.2994125
7.3014108
7.299783
7.2976486
7.2966001
7.2957351
7.2924135
7.2906024
7.2867545
7.2808724
7.2740945
7.2626469
7.2699563
7.2805379
7.2864852
7.2921557
7.2955084
7.2972277
7.3001669
7.3010803
7.3016966
7.3036281
7.3053213
7.3030036
7.3021077
7.2993078
7.298951
7.2955102
7.2942446
7.29264
7.2899539
7.2880368
7.2860698
7.2843979
7.2832068
7.2793161
7.277569
7.2750922
7.2732737
7.2717256
7.2693739
7.2659785
7.2626812
7.2580849
7.255168
7.2517972
7.246694
7.2419499
7.2341039
7.2286986
7.2233128
7.2170474
7.2119868
7.2087502
7.2060278
7.2009338
7.1985078
7.1945387
7.1918514
7.1834527
7.1898755
7.1976591
7.2002566
7.2040064
7.2064745
7.2113361
7.214232
7.2173935
7.2223861
7.2282595
7.2337854
7.2389992
7.2464831
7.2510615
7.2561787
7.2595446
7.2627895
7.2671895
7.270576
7.273864
7.2764712
7.2781106
7.2797673
7.2824453
7.2841379
7.2878911
7.289242
7.2908354
7.2929446
7.294907
7.2973504
7.2991985
7.3004712
7.3038226
7.3042829
7.3069798
7.3080098
7.3102911
7.3089173
7.3072297
7.3068083
7.3058106
7.3032905
7.3016551
7.2987838
7.2934958
7.2879666
7.2782576
7.2878111
7.2965775
7.3017989
7.3066072
7.3089966
7.3105764
7.3127148
7.3137599
7.3140807
7.3154734
7.316505
7.3142698
7.3130982
7.3105102
7.3099374
7.3066823
7.3054171
7.3032972
7.3012049
7.2991335
7.2967967
7.295315
7.2938146
7.2902094
7.2885743
7.2856602
7.2843014
7.2824386
7.2796124
7.2764429
7.2729234
7.2686365
7.2652358
7.2618583
7.2569346
7.2523119
7.2452075
7.2400718
7.2344883
7.2289478
7.2241186
7.2209278
7.2178756
7.2132459
7.2107317
7.2072099
7.20468
7.1973928
7.2062647
7.2129469
7.2154431
7.2187102
7.2213042
7.2256687
7.2288904
7.2320727
7.2367853
7.2419957
7.2476258
7.2526646
7.2594288
7.2641073
7.268827
7.2722036
7.2755777
7.2798922
7.2834081
7.2866113
7.289487
7.2915983
7.2930172
7.2958124
7.2975564
7.301001
7.302681
7.3042378
7.3064432
7.3086155
7.310707
7.3127677
7.3141749
7.3173177
7.3180357
7.3204864
7.3218308
7.3239834
7.323308
7.3221715
7.3219833
7.320874
7.3191548
7.3177971
7.3155083
7.3113098
7.3063883
7.2984375
7.3103099
7.3174047
7.3219296
7.3256284
7.3279178
7.3289699
7.3303237
7.331413
7.3315206
7.3323805
7.3327392
7.3306423
7.3291562
7.3268102
7.3259774
7.3229127
7.3213411
7.3193869
7.3173692
7.3149853
7.313044
7.3112986
7.3094704
7.3061546
7.3043142
7.3016301
7.3002028
7.2978008
7.294916
7.2916825
7.288179
7.2838584
7.2804496
7.2770845
7.2723512
7.2677882
7.2613888
7.2564151
7.2507212
7.2458232
7.2412752
7.2380763
7.2347249
7.2305978
7.2279533
7.2249099
7.2224656
7.2162459
7.2275559
7.2332242
7.2356433
7.238445
7.2411646
7.2450247
7.2485126
7.2516956
7.2561199
7.260869
7.2663029
7.2713444
7.2774241
7.2820872
7.2866654
7.2902084
7.2934388
7.2977473
7.3012455
7.3045061
7.307395
7.3100414
7.3115337
7.3140816
7.3160411
7.3192012
7.3210205
7.3229699
7.3249669
7.3274225
7.3292281
7.331326
7.3329317
7.3358965
7.3368694
7.3390909
7.3407407
7.3427541
7.3427099
7.3419767
7.3420953
7.3410409
7.3400393
7.3392574
7.3369785
7.3338186
7.3295999
7.3232563
7.3374068
7.3429941
7.3469406
7.349549
7.3518075
7.3522961
7.352984
7.3539841
7.3537101
7.3542544
7.354025
7.3520694
7.3502866
7.3481586
7.3470708
7.3441757
7.342557
7.3402659
7.3387193
7.3361668
7.3341933
7.3320036
7.3302122
7.3271672
7.3251164
7.3226389
7.3210263
7.3182629
7.3153924
7.312124
7.3086179
7.3042617
7.301282
7.2974917
7.2931304
7.2883303
7.2825447
7.277434
7.2723097
7.2676253
7.2633368
7.2601396
7.2565815
7.2529455
7.2501772
7.2475877
7.2452075
7.239965
7.2536477
7.2583929
7.260755
7.2631146
7.2659566
7.2693663
7.272978
7.2761648
7.2802246
7.284942
7.2897918
7.2949485
7.3004643
7.305376
7.3096631
7.3134824
7.3165031
7.3207633
7.3242647
7.3275123
7.3304231
7.3332794
7.3350374
7.3373836
7.3395608
7.3424564
7.344261
7.3466773
7.3485922
7.3511358
7.3526811
7.3549004
7.3566509
7.3594704
7.3606943
7.3627104
7.3646448
7.3665182
7.3670309
7.3666793
7.3669825
7.3662664
7.3657803
7.3655194
7.3633114
7.3612046
7.3575424
7.3525989
7.3689291
7.3731926
7.3765368
7.3782052
7.3803202
7.3804703
7.3807203
7.3811657
7.3808447
7.3809753
7.3802352
7.3784027
7.3763675
7.3744206
7.3730832
7.3703169
7.3684489
7.3662885
7.3646549
7.3621642
7.3602914