/*--------------------------------*- C++ -*----------------------------------*\
| =========                 |                                                 |
| \\      /  F ield         | OpenFOAM: The Open Source CFD Toolbox           |
|  \\    /   O peration     | Version:  v2012                                 |
|   \\  /    A nd           | Website:  www.openfoam.com                      |
|    \\/     M anipulation  |                                                 |
\*---------------------------------------------------------------------------*/
FoamFile
{
    version     2.0;
    format      ascii;
    class       surfaceScalarField;
    location    "200";
    object      phi;
}
// * * * * * * * * * * * * * * * * * * * * * * * * * * * * * * * * * * * * * //

dimensions      [0 3 -1 0 0 0 0];
oriented        oriented;


internalField   nonuniform List<scalar> 
144070
(
0.0038757515
1.1463087e-06
-3.3645869e-06
0.0038777213
1.1737421e-06
-3.1435344e-06
0.0038794767
1.1964821e-06
-2.951863e-06
0.0038810477
1.2166045e-06
-2.7875506e-06
0.0038824595
1.232351e-06
-2.6442255e-06
0.0038837307
1.2452475e-06
-2.5164121e-06
0.0038848771
1.2584844e-06
-2.4049236e-06
0.0038859142
1.2707564e-06
-2.3077892e-06
0.0038868554
1.2797251e-06
-2.2209235e-06
0.0038877127
1.2849176e-06
-2.1422557e-06
0.0038884947
1.2911608e-06
-2.0731937e-06
0.0038892074
1.299556e-06
-2.01219e-06
0.0038898564
1.3060037e-06
-1.9550547e-06
0.0038904506
1.3087074e-06
-1.9028717e-06
0.0038910009
1.3094723e-06
-1.8597478e-06
0.0038915124
1.3115018e-06
-1.8230536e-06
0.003891984
1.3154657e-06
-1.7870299e-06
0.0038924151
1.3210365e-06
-1.7521737e-06
0.00389281
1.3244827e-06
-1.7194068e-06
0.0038931724
1.3241639e-06
-1.686504e-06
0.0038935043
1.3248514e-06
-1.6567807e-06
0.0038938065
1.329757e-06
-1.6319724e-06
0.0038940808
1.3351156e-06
-1.6093684e-06
0.0038943301
1.335273e-06
-1.5845563e-06
0.0038945574
1.335651e-06
-1.5629684e-06
0.0038947648
1.338717e-06
-1.546185e-06
0.0038949528
1.3407672e-06
-1.5286882e-06
0.0038951214
1.3425131e-06
-1.5111325e-06
0.0038952716
1.3450897e-06
-1.4953297e-06
0.0038954055
1.3475551e-06
-1.4814176e-06
0.0038955217
1.3534601e-06
-1.4696522e-06
0.0038956049
1.3728918e-06
-1.4561625e-06
0.0038956181
1.4229838e-06
-1.4361468e-06
0.0038955124
1.5337497e-06
-1.4280664e-06
0.0038951651
1.7698009e-06
-1.4224763e-06
0.0038946947
2.097847e-06
-1.6274642e-06
0.0038941059
2.5789152e-06
-1.9901125e-06
0.0038952081
2.5628977e-06
-3.6651166e-06
0.0038963557
3.2198837e-06
-4.3673987e-06
0.0039025892
1.9346011e-06
-8.1681903e-06
0.0039093658
2.324316e-06
-9.1008572e-06
0.0039250257
8.0491802e-08
-1.5740402e-05
0.0039563527
-5.6864214e-06
-2.5640595e-05
0.003974884
1.516963e-06
-2.0048297e-05
6.9214356e-05
5.6097944e-05
9.9325349e-06
-5.7012152e-05
-0.0041032106
0.00015132355
-9.0022961e-05
-0.0042493481
2.9409128e-05
-0.00010298288
-0.0044519733
9.2318743e-05
-0.00010757732
-0.0045224205
5.9265255e-06
-0.00010973955
-0.0045664653
1.1221393e-05
-0.00010802556
-0.0045179873
-9.6995653e-06
-0.00010521285
-0.004464437
-5.3928277e-06
-0.00010184088
-0.0044073008
-1.6608465e-06
-9.951158e-05
-0.0043668121
3.8242885e-06
-9.7989685e-05
-0.0043406856
7.0333909e-06
-9.7152141e-05
-0.0043257206
8.9844273e-06
-9.6704276e-05
-0.0043168826
1.0042571e-05
-9.6473411e-05
-0.004311068
1.0675718e-05
-9.6343704e-05
-0.0043065033
1.1167537e-05
-9.6271447e-05
-0.0043024146
1.1660322e-05
-9.6234387e-05
-0.0042984968
1.2230248e-05
-9.623412e-05
-0.0042947305
1.2920708e-05
-9.6272152e-05
-0.0042910107
1.3781392e-05
-9.6362818e-05
-0.0042874021
1.4855364e-05
-9.6516121e-05
-0.0042839173
1.6243302e-05
-9.675175e-05
-0.0042805886
1.8038757e-05
-9.7081401e-05
-0.0042774129
2.0335396e-05
-9.7516758e-05
-0.004274357
2.3230916e-05
-9.8056559e-05
-0.0042713787
2.6819826e-05
-9.869358e-05
-0.0042683689
3.1165818e-05
-9.9378663e-05
-0.0042651211
3.6274942e-05
-0.00010006189
-0.0042613186
4.2059823e-05
-0.00010063937
-0.0042564804
4.8355906e-05
-0.00010102502
-0.004249975
5.4857876e-05
-0.00010104883
-0.0042408373
6.1096033e-05
-0.00010052529
-0.0042275571
6.6211998e-05
-9.90562e-05
-0.004207648
6.8829739e-05
-9.6095227e-05
-0.0041775556
6.6996009e-05
-9.1067438e-05
-0.0041351573
5.9953596e-05
-8.505964e-05
-0.0040926302
4.9964539e-05
-8.183114e-05
-0.0040890042
4.0518343e-05
-8.2252645e-05
-0.0041199634
3.3987093e-05
-8.4790689e-05
-0.0041659013
3.1738753e-05
-8.8001533e-05
-0.0042122604
2.9551095e-05
-9.146992e-05
-0.0042597478
2.9222021e-05
-9.5200356e-05
-0.004312975
5.0585879e-06
-9.9496348e-05
-0.0043766882
7.2003408e-06
-0.00010290272
-0.004433099
-8.023807e-05
-0.00010498054
-0.0044821641
-2.0852356e-05
-0.00010310536
-0.0044390771
-0.00014269243
-9.8717328e-05
-0.0043695525
-5.9613404e-06
-8.6136471e-05
-0.0041703388
-6.609683e-05
-5.3820995e-05
-0.004026842
5.7019098e-05
-0.0039011665
3.3270614e-06
3.0064245e-05
-0.004093734
0.00012267645
5.1921138e-05
-0.0043681934
2.6719828e-05
8.6013673e-05
-0.0047057651
8.5908844e-05
0.00010514169
-0.0049363535
2.1957245e-05
0.00010993243
-0.005106112
2.4107643e-05
0.00010715551
-0.0051664013
6.0560714e-06
0.00010507923
-0.0051886636
4.2713164e-06
0.00010409818
-0.0051850349
4.5380544e-06
0.00010391469
-0.0051774875
6.5358229e-06
0.00010396633
-0.0051721367
8.3770179e-06
0.00010411902
-0.0051713648
8.163377e-06
0.00010436961
-0.0051752074
5.5725171e-06
0.00010484248
-0.0051812732
-1.3564771e-05
0.00010608776
-0.0051835141
-1.2773287e-05
0.00010838619
-0.005160019
-7.8166716e-05
0.00011132069
-0.0050987165
-2.070236e-05
0.00010660834
-0.0049283237
-0.00011812089
8.7499379e-05
-0.0046974494
-5.2764551e-07
5.3362707e-05
-0.0043600337
-5.555946e-05
3.1443618e-05
-0.0040858097
6.7308897e-05
-0.0038934785
8.7718366e-06
-5.5214171e-05
-0.0040190522
0.00014690312
-8.765575e-05
-0.0041626054
2.7221064e-05
-0.0001005203
-0.0043621777
8.8837735e-05
-0.00010525248
-0.0044330138
4.2019681e-06
-0.0001076067
-0.0044785643
9.6297869e-06
-0.0001061494
-0.0044339004
-1.057952e-05
-0.00010358617
-0.0043845391
-5.9432101e-06
-0.00010043772
-0.0043318961
-1.8293032e-06
-9.8279388e-05
-0.0042958359
4.0149603e-06
-9.6880858e-05
-0.0042741673
7.5822189e-06
-9.611919e-05
-0.0042637666
9.8339373e-06
-9.5709051e-05
-0.0042596954
1.1086709e-05
-9.5476437e-05
-0.0042588531
1.1764145e-05
-9.5312826e-05
-0.0042594501
1.2107262e-05
-9.517311e-05
-0.0042606441
1.2256331e-05
-9.5042896e-05
-0.0042621263
1.2223528e-05
-9.4919289e-05
-0.0042637283
1.2020002e-05
-9.4804472e-05
-0.0042653901
1.1691275e-05
-9.4710422e-05
-0.0042671505
1.1271526e-05
-9.4646025e-05
-0.0042689957
1.0769005e-05
-9.461001e-05
-0.0042708853
1.0207584e-05
-9.4599086e-05
-0.0042728295
9.5917071e-06
-9.4614193e-05
-0.0042748019
8.9585661e-06
-9.4654203e-05
-0.0042768301
8.3629784e-06
-9.4716669e-05
-0.0042789264
7.7961996e-06
-9.4792879e-05
-0.0042810323
7.2476782e-06
-9.4875819e-05
-0.0042831413
6.7202108e-06
-9.4964016e-05
-0.0042852625
6.2413323e-06
-9.505771e-05
-0.0042874107
5.8144667e-06
-9.5151232e-05
-0.0042895634
5.4193422e-06
-9.5239078e-05
-0.0042916877
5.0395048e-06
-9.5320326e-05
-0.0042937843
4.7039927e-06
-9.5397028e-05
-0.0042958528
4.442673e-06
-9.5474421e-05
-0.0042979692
4.374628e-06
-9.556208e-05
-0.0043002151
4.7615863e-06
-9.5681198e-05
-0.0043029279
6.0517169e-06
-9.588394e-05
-0.0043069448
8.588714e-06
-9.6283919e-05
-0.0043140717
1.3368772e-05
-9.7058183e-05
-0.0043274372
1.6353744e-05
-9.8495139e-05
-0.0043520473
1.9838693e-05
-0.00010071577
-0.0043910717
-1.8949426e-06
-0.0001039526
-0.0044467485
2.3633107e-06
-0.00010660396
-0.0044989035
-8.4800179e-05
-0.00010814212
-0.0045460698
-2.3445398e-05
-0.00010582578
-0.004501331
-0.0001461736
-0.00010109618
-0.004430544
-6.9239219e-06
-8.8123464e-05
-0.004228585
-6.7421411e-05
-5.5222866e-05
-0.004083159
5.7271149e-05
-0.0039557014
2.2273719e-06
3.0917589e-05
-0.0041514865
0.0001226953
5.3116426e-05
-0.0044308613
2.4720958e-05
8.773876e-05
-0.0047749735
8.4255955e-05
0.00010715564
-0.0050113825
1.8850747e-05
0.00011198419
-0.0051868926
2.0700933e-05
0.0001090888
-0.0052518778
2.1904073e-06
0.0001068786
-0.0052787406
4.1130888e-07
0.0001057756
-0.0052795497
8.9558757e-07
0.00010548994
-0.0052764981
3.2917767e-06
0.00010545713
-0.0052756622
5.7005629e-06
0.00010554835
-0.0052793734
6.1289867e-06
0.0001057683
-0.0052874472
4.2131504e-06
0.00010624726
-0.005297315
-1.4605092e-05
0.00010755537
-0.0053026008
-1.3058383e-05
0.00010998825
-0.0052806458
-7.9360935e-05
0.0001131289
-0.005218829
-2.0107327e-05
0.00010849971
-0.0050439901
-0.00011957412
8.9184626e-05
-0.0048058918
5.496954e-07
5.4550465e-05
-0.0044578128
3.2425127e-05
-0.0041740692
-7.2284213e-05
7.2087441e-05
-0.0043348513
-2.9691504e-05
0.00013850246
-0.0046834698
3.743728e-06
0.00020383716
-0.0050313308
3.5841869e-05
0.00024376516
-0.0052903491
2.9396428e-05
0.00025555547
-0.0054424701
1.9697279e-05
0.00025423354
-0.0055115672
6.7582342e-06
0.00025083979
-0.0055313015
-1.9238368e-08
0.00024858783
-0.0055304141
-2.7877513e-06
0.0002473146
-0.0055223963
-3.459743e-06
0.00024667065
-0.0055152758
-4.030687e-06
0.00024645789
-0.0055114714
-6.7089521e-06
0.00024668482
-0.0055111361
-1.3314342e-05
0.00024752913
-0.0055121478
-2.5962919e-05
0.00024933522
-0.0055067946
-3.5266235e-05
0.00025225758
-0.0054820148
-4.1184109e-05
0.00025309767
-0.0054096457
-8.6064453e-06
0.00024089992
-0.0052566407
2.553313e-05
0.00020077058
-0.0049993904
6.904435e-05
0.00013542721
-0.0046554406
6.9025974e-05
-0.0043114192
-0.0001127815
0.00014877013
-0.0045240698
-6.5751547e-05
0.00021962728
-0.0049249421
9.4727632e-07
0.00030322026
-0.0053003839
4.1883607e-05
0.00035513022
-0.0055663486
4.7776191e-05
0.00037353858
-0.0057148858
3.457486e-05
0.00037487263
-0.0057813592
1.9887809e-05
0.00037203563
-0.0058044005
1.0277602e-05
0.00036956793
-0.0058093398
5.6801805e-06
0.00036815125
-0.0058091919
3.5887372e-06
0.00036767346
-0.0058100535
1.3578532e-06
0.00036798666
-0.0058139913
-3.3522304e-06
0.00036909155
-0.005820848
-1.3165699e-05
0.00037114825
-0.0058282476
-2.8177074e-05
0.00037428146
-0.0058297615
-4.1826241e-05
0.0003778202
-0.0058119448
-3.6426438e-05
0.00037719805
-0.0057488992
4.0362619e-06
0.00035941289
-0.0056013502
7.0163074e-05
0.00030787647
-0.0053335877
0.00011622621
0.0002243849
-0.0049540697
0.00015363315
-0.0045483861
-0.00012975271
0.00014928851
-0.0047250531
-7.3945709e-05
0.00025128234
-0.0051527653
4.1198536e-06
0.00033307277
-0.0055481548
4.96971e-05
0.00038201897
-0.00581882
5.3131245e-05
0.00039916837
-0.0059617486
3.5232754e-05
0.00039970711
-0.0060192132
1.6635445e-05
0.00039560504
-0.0060333579
4.9083116e-06
0.00039165736
-0.006029991
-7.9437779e-07
0.00038897284
-0.0060219814
-3.5803513e-06
0.00038754581
-0.0060149902
-6.2954979e-06
0.00038719621
-0.0060109996
-1.1872894e-05
0.0003879196
-0.0060101667
-2.3373136e-05
0.00038987427
-0.0060108296
-4.1604188e-05
0.00039304395
-0.006007664
-5.8999396e-05
0.00039630098
-0.0059882325
-5.5021558e-05
0.00039487156
-0.0059272895
-8.9591704e-06
0.0003768763
-0.0057833507
6.9644077e-05
0.00032730347
-0.0055145116
0.00012637433
0.0002451954
-0.0051232528
0.00014313783
-0.0047003477
-0.00012793559
0.00013556428
-0.0047918185
-6.372285e-05
0.0002063165
-0.0052151258
1.9864713e-05
0.00026956553
-0.0056061907
6.5470938e-05
0.00030570949
-0.0058724204
6.5789555e-05
0.00031803481
-0.0060125499
4.4824362e-05
0.0003179668
-0.0060697469
2.4396648e-05
0.00031428895
-0.0060862352
1.2014145e-05
0.00031088035
-0.0060875436
6.2012135e-06
0.00030879418
-0.0060859662
3.4895297e-06
0.00030799742
-0.0060864606
7.0828749e-07
0.00030832297
-0.0060904074
-5.233584e-06
0.00030978158
-0.0060976526
-1.7859922e-05
0.00031257538
-0.0061065003
-3.8686898e-05
0.00031677313
-0.0061116384
-6.0201093e-05
0.00032135544
-0.0061003455
-6.0475032e-05
0.00032243827
-0.0060465409
-1.5377589e-05
0.00031116988
-0.0059073627
6.7700718e-05
0.000275947
-0.0056392898
0.00013107364
0.00021331748
-0.0052441475
0.00014291751
-0.0048161719
-0.00012886908
8.5436841e-05
-0.0048307184
-6.1070703e-05
0.00014606308
-0.0052517311
2.2829059e-05
0.00018528518
-0.0056411563
6.5567298e-05
0.00020490087
-0.0059053818
6.2403056e-05
0.00020954589
-0.0060419205
3.9063415e-05
0.00020692677
-0.00609356
1.757916e-05
0.00020251447
-0.0061030985
4.9478403e-06
0.0001987616
-0.0060968114
-7.865191e-07
0.00019631428
-0.0060874107
-3.3224016e-06
0.00019506278
-0.0060800168
-5.7876006e-06
0.00019477604
-0.0060761749
-1.1386262e-05
0.00019543613
-0.0060760373
-2.3759375e-05
0.00019722705
-0.006078376
-4.4825061e-05
0.0002002099
-0.0060784176
-6.7590463e-05
0.00020368752
-0.0060638735
-7.0134619e-05
0.00020519192
-0.0060090131
-2.6874075e-05
0.00019930232
-0.0058716434
5.7502924e-05
0.00017849414
-0.0056092949
0.00012604285
0.0001383669
-0.0052238636
7.7247429e-05
-0.0048073473
-0.00012212127
4.1612032e-05
-0.0047743082
-5.2119544e-05
7.6151691e-05
-0.0051867412
3.0697118e-05
9.8347172e-05
-0.0055677604
7.1099966e-05
0.00010803535
-0.005826972
6.6610355e-05
0.00010958849
-0.0059622276
4.3274064e-05
0.000107562
-0.0060154508
2.2461072e-05
0.00010481249
-0.0060287694
1.0527075e-05
0.00010264173
-0.0060279516
5.3068616e-06
0.00010140127
-0.0060251861
3.1302351e-06
0.00010099096
-0.0060250939
8.8394442e-07
0.00010125828
-0.0060287991
-4.4803239e-06
0.00010222751
-0.0060361506
-1.6683259e-05
0.00010410647
-0.0060457086
-3.7925392e-05
0.00010705556
-0.0060525117
-6.1846188e-05
0.00011078641
-0.0060439573
-6.6966547e-05
0.00011402792
-0.0059937444
-2.7089407e-05
0.00011388243
-0.005859168
5.527856e-05
0.00010559713
-0.0055980359
0.00012462762
8.4515721e-05
-0.005213104
5.0651247e-05
-0.0047963322
-0.00011965854
2.2492856e-05
-0.0047418105
-5.0423169e-05
4.3653777e-05
-0.0051595065
2.965969e-05
5.3299554e-05
-0.005542735
6.6941074e-05
5.5322752e-05
-0.0058019604
6.049839e-05
5.3404414e-05
-0.0059351181
3.6517909e-05
5.0304523e-05
-0.0059844215
1.5760023e-05
4.7406076e-05
-0.0059925658
4.060241e-06
4.5244499e-05
-0.0059857342
-9.5227929e-07
4.3877676e-05
-0.0059763399
-2.9573863e-06
4.3139832e-05
-0.0059691823
-4.8897112e-06
4.2864134e-05
-0.0059656204
-9.7498166e-06
4.3022575e-05
-0.0059658102
-2.117076e-05
4.3719825e-05
-0.0059687018
-4.1491327e-05
4.5053727e-05
-0.0059698283
-6.488387e-05
4.6895357e-05
-0.0059571877
-7.0695255e-05
4.8671265e-05
-0.0059051056
-3.2890923e-05
4.904187e-05
-0.0057714358
4.7618107e-05
4.5463286e-05
-0.0055141928
0.00011743657
3.4573783e-05
-0.0051348146
1.2664241e-05
-0.0047213215
-0.00011341927
4.182801e-07
-0.0046726513
-4.4426887e-05
1.1652915e-05
-0.0050877548
3.403935e-05
1.6674801e-05
-0.0054671121
6.9966884e-05
1.765599e-05
-0.0057235057
6.3351102e-05
1.6866333e-05
-0.0058562475
4.0067836e-05
1.5658419e-05
-0.0059077017
2.0200166e-05
1.461174e-05
-0.0059200849
9.1893782e-06
1.3933883e-05
-0.0059189433
4.5913012e-06
1.3650689e-05
-0.0059160991
2.8220057e-06
1.3690988e-05
-0.0059158885
9.7459016e-07
1.3996745e-05
-0.0059193052
-3.7845021e-06
1.4598537e-05
-0.0059261956
-1.5083741e-05
1.5620639e-05
-0.0059352547
-3.5394597e-05
1.7207428e-05
-0.0059418169
-5.9267465e-05
1.9407632e-05
-0.0059336596
-6.6512857e-05
2.2054627e-05
-0.0058847428
-3.1105011e-05
2.4514565e-05
-0.0057523369
4.6950159e-05
2.5196588e-05
-0.0054938898
0.00011540785
2.1484429e-05
-0.0051107418
1.1032452e-05
-0.0046915858
-0.00011254733
6.9353671e-06
-0.0046531159
-4.4917949e-05
1.1745029e-05
-0.005074281
3.1745673e-05
1.2534629e-05
-0.0054581677
6.60437e-05
1.0899179e-05
-0.0057166223
5.8403454e-05
8.4830366e-06
-0.0058488782
3.4678505e-05
6.2621648e-06
-0.0058978265
1.4687704e-05
4.5158344e-06
-0.0059062545
3.6469503e-06
3.2619324e-06
-0.0059000826
-9.6524914e-07
2.4173501e-06
-0.0058913989
-2.7162318e-06
1.8664112e-06
-0.0058847838
-4.4131386e-06
1.5177417e-06
-0.0058815058
-8.8554009e-06
1.3386579e-06
-0.0058817208
-1.9598077e-05
1.3513552e-06
-0.0058844685
-3.9138441e-05
1.5962936e-06
-0.0058854993
-6.2271761e-05
2.0796933e-06
-0.0058731185
-6.9282644e-05
2.7457766e-06
-0.0058218793
-3.446516e-05
3.3825182e-06
-0.0056894792
4.2603077e-05
3.2776553e-06
-0.0054331631
0.00011073709
1.150834e-06
-0.0050530176
-4.4333205e-06
-0.004635766
-0.00010919891
-5.1689867e-06
-0.0046124137
-4.1720066e-05
-2.9549852e-06
-0.0050307346
3.4519114e-05
-2.1984931e-06
-0.0054116249
6.8777808e-05
-2.3142704e-06
-0.0056681722
6.1623566e-05
-2.683405e-06
-0.0058005558
3.8624675e-05
-2.972068e-06
-0.0058517968
1.9290818e-05
-3.1127585e-06
-0.0058642683
8.7001144e-06
-3.1029399e-06
-0.0058633557
4.3346311e-06
-2.9529051e-06
-0.0058606771
2.6551469e-06
-2.6786433e-06
-0.0058604387
9.4847957e-07
-2.2787157e-06
-0.005863577
-3.5938287e-06
-1.720468e-06
-0.0058699417
-1.4493333e-05
-9.3369498e-07
-0.0058782834
-3.4289057e-05
1.7563925e-07
-0.0058840597
-5.7886248e-05
1.6944804e-06
-0.0058752699
-6.5673971e-05
3.6528153e-06
-0.0058260649
-3.193998e-05
5.8995001e-06
-0.0056936283
4.388834e-05
7.8116732e-06
-0.0054348495
0.00011087389
8.3958485e-06
-0.0050502513
6.9289701e-06
-0.0046281394
-0.00010996944
7.8438054e-06
-0.0046129599
-4.3413719e-05
7.7814706e-06
-0.0050353686
3.1954217e-05
6.5691712e-06
-0.0054203603
6.5427529e-05
4.5720308e-06
-0.0056794533
5.7600955e-05
2.4210274e-06
-0.0058121631
3.408954e-05
5.6697446e-07
-0.0058616799
1.4398027e-05
-8.8165553e-07
-0.0058708221
3.5639948e-06
-1.9654422e-06
-0.0058653865
-9.5429727e-07
-2.7672095e-06
-0.0058573361
-2.6571223e-06
-3.3664435e-06
-0.0058511884
-4.3322468e-06
-3.8222577e-06
-0.0058481876
-8.666851e-06
-4.168037e-06
-0.005848487
-1.9179608e-05
-4.4177507e-06
-0.0058511515
-3.8394697e-05
-4.5701014e-06
-0.0058519971
-6.1294836e-05
-4.6175674e-06
-0.0058394492
-6.847668e-05
-4.5454316e-06
-0.0057881545
-3.4463687e-05
-4.3604534e-06
-0.0056557092
4.1333494e-05
-4.2029208e-06
-0.0053989604
0.0001083891
-4.319449e-06
-0.0050176572
-4.9619985e-06
-0.0045989346
-0.00010797634
-4.693754e-06
-0.0045914875
-4.1154605e-05
-4.7695013e-06
-0.0050101709
3.442434e-05
-4.9439123e-06
-0.0053915821
6.8341024e-05
-5.113125e-06
-0.0056483995
6.1173892e-05
-5.20202e-06
-0.0057808627
3.8340969e-05
-5.1630948e-06
-0.0058321723
1.9192878e-05
-5.0152815e-06
-0.0058447394
8.7198846e-06
-4.7788005e-06
-0.0058438962
4.3970858e-06
-4.4591599e-06
-0.0058411949
2.7171474e-06
-4.0510552e-06
-0.005840806
1.0077832e-06
-3.5342826e-06
-0.0058436643
-3.5074719e-06
-2.8756328e-06
-0.0058496223
-1.4318787e-05
-2.0214681e-06
-0.005857433
-3.3964728e-05
-8.9857588e-07
-0.0058625881
-5.7429458e-05
5.7085717e-07
-0.0058531455
-6.5262133e-05
2.4244136e-06
-0.0058033442
-3.1910934e-05
4.561073e-06
-0.0056703959
4.320484e-05
6.601701e-06
-0.0054111118
0.00010950172
8.0831445e-06
-0.0050260094
8.8125708e-06
-0.00460373
-0.00010925663
9.5708589e-06
-0.0045974903
-4.3121592e-05
8.6098365e-06
-0.0050195149
3.1839211e-05
7.0234931e-06
-0.0054045514
6.5117822e-05
4.9424543e-06
-0.0056639218
5.727937e-05
2.7682954e-06
-0.0057970488
3.3833107e-05
8.6106416e-07
-0.0058470828
1.4202211e-05
-6.7257913e-07
-0.0058567688
3.3933961e-06
-1.8658254e-06
-0.0058518455
-1.1278321e-06
-2.7925425e-06
-0.0058442385
-2.8440294e-06
-3.5214396e-06
-0.0058384516
-4.5264511e-06
-4.1043773e-06
-0.0058357339
-8.8409334e-06
-4.5748158e-06
-0.0058362329
-1.9288602e-05
-4.9543228e-06
-0.005839013
-3.8393628e-05
-5.2506367e-06
-0.0058399129
-6.1177898e-05
-5.4589014e-06
-0.0058273887
-6.8318668e-05
-5.5555665e-06
-0.0057761189
-3.4431701e-05
-5.5089362e-06
-0.0056437046
4.1046157e-05
-5.3267259e-06
-0.0053869422
0.00010775247
-5.0171614e-06
-0.0050056138
-4.6530205e-06
-0.0045871184
-0.0001076062
-4.8030374e-06
-0.0045841256
-4.0950861e-05
-5.273019e-06
-0.0050023838
3.4482525e-05
-5.6523558e-06
-0.0053835404
6.8367891e-05
-5.8542809e-06
-0.0056401732
6.1259407e-05
-5.8831436e-06
-0.0057724856
3.851881e-05
-5.7496706e-06
-0.0058236715
1.9451145e-05
-5.4949018e-06
-0.005836115
9.0281617e-06
-5.1450192e-06
-0.0058351214
4.7264651e-06
-4.7057131e-06
-0.0058322315
3.0476552e-06
-4.1692034e-06
-0.0058316065
1.3292886e-06
-3.5136919e-06
-0.005834179
-3.1975057e-06
-2.7053265e-06
-0.0058398044
-1.401106e-05
-1.6939854e-06
-0.0058472363
-3.3641871e-05
-4.1459415e-07
-0.0058519664
-5.7087534e-05
1.2029252e-06
-0.0058420767
-6.4941003e-05
3.1887389e-06
-0.0057918543
-3.1723808e-05
5.4289721e-06
-0.0056585982
4.3117519e-05
7.5535393e-06
-0.0053992172
0.00010913339
9.1715675e-06
-0.0050143226
1.0172776e-05
-0.0045925969
-0.00010908112
1.0714117e-05
-0.004588235
-4.3178392e-05
9.7437028e-06
-0.0050096743
3.1545448e-05
8.1278508e-06
-0.0053943889
6.4693074e-05
5.9690787e-06
-0.0056537394
5.6811231e-05
3.6481707e-06
-0.0057870855
3.3355004e-05
1.5575159e-06
-0.0058374613
1.3717211e-05
-1.5812204e-07
-0.0058475235
2.8984063e-06
-1.5360913e-06
-0.0058429645
-1.6291602e-06
-2.626724e-06
-0.0058356955
-3.3416663e-06
-3.5234725e-06
-0.0058302259
-5.0067074e-06
-4.2757538e-06
-0.0058277999
-9.2861306e-06
-4.8851597e-06
-0.0058285622
-1.9676929e-05
-5.3883406e-06
-0.005831577
-3.8702263e-05
-5.7925618e-06
-0.0058326823
-6.1395903e-05
-6.0904901e-06
-0.0058203451
-6.8466046e-05
-6.2522099e-06
-0.0057692709
-3.4567265e-05
-6.2293047e-06
-0.0056370901
4.0849086e-05
-6.0054699e-06
-0.0053806253
0.00010748596
-5.5833659e-06
-0.0049996823
-5.0723604e-06
-0.004581665
-0.00010736952
-5.3339622e-06
-0.0045793808
-4.0734006e-05
-5.8007428e-06
-0.0049971582
3.4681019e-05
-6.3147988e-06
-0.0053778727
6.8602757e-05
-6.6428679e-06
-0.0056341491
6.1580186e-05
-6.6656536e-06
-0.0057661802
3.8943106e-05
-6.4633215e-06
-0.0058171257
1.9970506e-05
-6.1213032e-06
-0.0058293435
9.6238851e-06
-5.661298e-06
-0.0058281167
5.3791922e-06
-5.0884827e-06
-0.0058249734
3.7397922e-06
-4.3970995e-06
-0.0058240743
2.0434486e-06
-3.5691237e-06
-0.0058263558
-2.476908e-06
-2.5731318e-06
-0.0058316739
-1.3296695e-05
-1.3595158e-06
-0.0058387839
-3.2942659e-05
1.3278083e-07
-0.0058431871
-5.6417248e-05
1.9616318e-06
-0.0058329738
-6.4342213e-05
4.1443202e-06
-0.0057824703
-3.1280142e-05
6.5540643e-06
-0.0056490615
4.3316792e-05
8.7534563e-06
-0.0053897678
0.00010909363
1.041756e-05
-0.005005253
1.133892e-05
-0.0045841014
-0.00010917194
1.1878158e-05
-0.0045800964
-4.3542115e-05
1.1005654e-05
-0.0050009623
3.0902205e-05
9.4294214e-06
-0.0053852642
6.3856544e-05
7.1850869e-06
-0.0056444762
5.5875804e-05
4.681348e-06
-0.0057779184
3.2377064e-05
2.373511e-06
-0.0058285261
1.2724229e-05
4.0699925e-07
-0.0058388734
1.9108407e-06
-1.2358004e-06
-0.0058346161
-2.5919062e-06
-2.5908782e-06
-0.0058276519
-4.2584093e-06
-3.7019772e-06
-0.0058224755
-5.8562724e-06
-4.6329828e-06
-0.0058203338
-1.0050011e-05
-5.4128002e-06
-0.0058213705
-2.0337181e-05
-6.0588814e-06
-0.0058246466
-3.9243333e-05
-6.5782084e-06
-0.0058260027
-6.1812234e-05
-6.9468647e-06
-0.005813914
-6.877666e-05
-7.1562565e-06
-0.0057631054
-3.4820705e-05
-7.1364114e-06
-0.0056312374
4.0606067e-05
-6.7876978e-06
-0.0053751687
0.00010725365
-6.3087416e-06
-0.0049946971
-5.802279e-06
-0.0045771527
-0.00010712256
-6.2336575e-06
-0.0045748998
-4.0459786e-05
-6.7947517e-06
-0.004992208
3.4984678e-05
-7.3377422e-06
-0.0053724394
6.8984468e-05
-7.709601e-06
-0.0056282993
6.20892e-05
-7.7114457e-06
-0.0057599999
3.9602608e-05
-7.4805424e-06
-0.0058106667
2.0779324e-05
-7.0711873e-06
-0.0058226226
1.0570095e-05
-6.49171e-06
-0.0058211328
6.4470479e-06
-5.7671944e-06
-0.0058177207
4.9105397e-06
-4.8909012e-06
-0.0058165459
3.2945814e-06
-3.8459013e-06
-0.0058185485
-1.1727852e-06
-2.6023785e-06
-0.0058235887
-1.1969334e-05
-1.1133658e-06
-0.0058304216
-3.1624416e-05
6.753669e-07
-0.0058345496
-5.5150112e-05
2.8222809e-06
-0.0058240879
-6.3199566e-05
5.2971646e-06
-0.0057733969
-3.0375458e-05
7.9156872e-06
-0.0056399412
4.3882662e-05
1.0215776e-05
-0.0053808222
0.00010932479
1.1786073e-05
-0.0049967368
1.2613275e-05
-0.0045761788
-0.00010957656
1.3520903e-05
-0.004572346
-4.4366107e-05
1.2729472e-05
-0.0049926117
2.9666269e-05
1.1162097e-05
-0.0053764577
6.2331451e-05
8.7825158e-06
-0.0056354607
5.4198348e-05
6.0118967e-06
-0.0057689046
3.06442e-05
3.3450585e-06
-0.0058196508
1.0998793e-05
9.9448577e-07
-0.0058302054
2.3940465e-07
-9.8932153e-07
-0.0058261926
-4.1697541e-06
-2.65433e-06
-0.0058194852
-5.7109117e-06
-4.048802e-06
-0.005814578
-7.1600039e-06
-5.2196488e-06
-0.0058127135
-1.1188086e-05
-6.1985284e-06
-0.0058140287
-2.1297995e-05
-7.0027679e-06
-0.0058175795
-4.0019957e-05
-7.6404871e-06
-0.0058192059
-6.2409452e-05
-8.0868831e-06
-0.0058073869
-6.9222758e-05
-8.3342317e-06
-0.0057568625
-3.5170317e-05
-8.3275037e-06
-0.0056253299
4.0297692e-05
-7.925913e-06
-0.0053696741
0.00010698137
-7.3289157e-06
-0.0049896869
-6.7056698e-06
-0.0045726183
-0.00010683284
-7.2223388e-06
-0.0045703133
-4.0125384e-05
-7.9066941e-06
-0.0049871462
3.5371395e-05
-8.5664003e-06
-0.0053668912
6.9485278e-05
-9.0117026e-06
-0.0056223398
6.2764952e-05
-9.0360789e-06
-0.005753708
4.0487896e-05
-8.7813561e-06
-0.0058040891
2.1886211e-05
-8.2908405e-06
-0.005815773
1.1899321e-05
-7.5865814e-06
-0.0058140095
7.9932731e-06
-6.70503e-06
-0.0058103191
6.6615966e-06
-5.6197895e-06
-0.0058088636
5.2280733e-06
-4.3125398e-06
-0.0058105885
9.078039e-07
-2.7479576e-06
-0.0058153638
-9.7895854e-06
-8.7860246e-07
-0.0058219518
-2.9405868e-05
1.3404978e-06
-0.0058258637
-5.2979076e-05
3.9312914e-06
-0.0058152303
-6.1205278e-05
6.8355682e-06
-0.0057644519
-2.8726836e-05
9.8156995e-06
-0.0056310433
4.5034572e-05
1.2313679e-05
-0.0053721775
0.00010995617
1.3976227e-05
-0.0049886008
1.4713392e-05
-0.0045686601
-0.00011049381
1.6153889e-05
-0.0045651005
-4.5924934e-05
1.5443983e-05
-0.0049847246
2.7518744e-05
1.3707961e-05
-0.0053680195
5.9782661e-05
1.102393e-05
-0.0056267057
5.1461107e-05
7.7688255e-06
-0.0057600423
2.7883199e-05
4.5322065e-06
-0.0058108305
8.3232445e-06
1.6196689e-06
-0.0058215279
-2.2745446e-06
-8.8604196e-07
-0.0058177104
-6.4675718e-06
-2.99413e-06
-0.0058112376
-7.75785e-06
-4.7476375e-06
-0.0058065942
-8.9380084e-06
-6.1991761e-06
-0.0058050098
-1.2692445e-05
-7.3885929e-06
-0.0058066084
-2.2532867e-05
-8.3384452e-06
-0.0058104403
-4.0995115e-05
-9.0820234e-06
-0.005812341
-6.314515e-05
-9.5875447e-06
-0.0058007927
-6.9762048e-05
-9.8335854e-06
-0.0057505513
-3.5581138e-05
-9.7744011e-06
-0.0056193497
3.9949007e-05
-9.2696095e-06
-0.0053641085
0.00010668288
-8.5363778e-06
-0.0049846099
-7.7870326e-06
-0.0045680131
-0.0001065386
-8.3887472e-06
-0.0045657268
-3.9778043e-05
-9.2180265e-06
-0.0049820783
3.5786105e-05
-1.0039312e-05
-0.0053613323
7.0036884e-05
-1.0619828e-05
-0.0056163648
6.3528295e-05
-1.073357e-05
-0.0057473979
4.1515782e-05
-1.0517362e-05
-0.0057974962
2.3208634e-05
-1.0031903e-05
-0.0058089091
1.3536649e-05
-9.2819453e-06
-0.0058068664
9.9620413e-06
-8.2788893e-06
-0.0058028873
8.9683461e-06
-6.9944465e-06
-0.0058011412
7.8634848e-06
-5.3962514e-06
-0.0058025825
3.8430573e-06
-3.4370845e-06
-0.0058070907
-6.609817e-06
-1.0567264e-06
-0.0058134447
-2.6072867e-05
1.7912859e-06
-0.0058171741
-4.962913e-05
5.1088971e-06
-0.0058064292
-5.8037881e-05
8.7934042e-06
-0.0057556531
-2.6004191e-05
1.2460158e-05
-0.005622417
4.7070808e-05
1.5427516e-05
-0.0053639438
0.00011121365
1.7288575e-05
-0.004980976
1.799756e-05
-0.0045617127
-0.00011213023
2.0340709e-05
-0.0045584003
-4.8490081e-05
1.9596072e-05
-0.0049773036
2.417332e-05
1.7517027e-05
-0.0053599224
5.5967884e-05
1.4129153e-05
-0.0056181366
4.7493975e-05
9.9200321e-06
-0.0057512388
2.400556e-05
5.6804099e-06
-0.0058019806
4.6933651e-06
1.8718614e-06
-0.0058127638
-5.5623647e-06
-1.3729978e-06
-0.0058091257
-9.3637193e-06
-4.0533156e-06
-0.0058028945
-1.024392e-05
-6.2258343e-06
-0.0057985277
-1.1018705e-05
-7.9645461e-06
-0.0057972377
-1.4389182e-05
-9.3287265e-06
-0.0057991424
-2.3875792e-05
-1.03637e-05
-0.0058032793
-4.2017637e-05
-1.1111588e-05
-0.0058054729
-6.3889225e-05
-1.1568031e-05
-0.0057942062
-7.0288823e-05
-1.1732388e-05
-0.0057442578
-3.5971187e-05
-1.1544715e-05
-0.0056133964
3.962304e-05
-1.0871235e-05
-0.0053585734
0.0001064049
-9.9472659e-06
-0.0049795658
-9.0233241e-06
-0.0045634577
-0.00010629051
-9.6912459e-06
-0.0045611934
-3.9498919e-05
-1.0714656e-05
-0.0049770693
3.6114189e-05
-1.1754299e-05
-0.0053558371
7.0488992e-05
-1.2537216e-05
-0.0056104506
6.4189009e-05
-1.2818908e-05
-0.0057411381
4.2453078e-05
-1.2730126e-05
-0.0057909301
2.4475396e-05
-1.2330399e-05
-0.0058020434
1.5179243e-05
-1.1614429e-05
-0.0057996882
1.2025677e-05
-1.0577097e-05
-0.0057953816
1.1493772e-05
-9.160477e-06
-0.0057933034
1.0876952e-05
-7.3004289e-06
-0.0057944217
7.3440068e-06
-4.9165788e-06
-0.0057986283
-2.6576281e-06
-1.9164247e-06
-0.0058047196
-2.1757884e-05
1.774755e-06
-0.0058082532
-4.5120697e-05
6.1766806e-06
-0.005797427
-5.3616589e-05
1.1107117e-05
-0.005746728
-2.2051505e-05
1.6036515e-05
-0.0056137832
5.0172499e-05
2.0018367e-05
-0.0053558554
0.00011324667
2.2426361e-05
-0.0049736506
2.3266389e-05
-0.0045551718
-0.00011452915
2.6839744e-05
-0.004551857
-5.2064352e-05
2.5800635e-05
-0.0049698713
1.9713588e-05
2.2880761e-05
-0.0053516322
5.1087814e-05
1.8096697e-05
-0.0056092277
4.263605e-05
1.2259236e-05
-0.0057420048
1.94749e-05
6.5112478e-06
-0.0057926779
6.572128e-07
1.4576632e-06
-0.0058035807
-9.0351953e-06
-2.7171593e-06
-0.0058001895
-1.2263209e-05
-6.0388007e-06
-0.0057942764
-1.2598012e-05
-8.6132158e-06
-0.0057902647
-1.2879076e-05
-1.056306e-05
-0.0057893473
-1.5818541e-05
-1.1995249e-05
-0.005791622
-2.493493e-05
-1.2999148e-05
-0.0057961138
-4.2764425e-05
-1.3646916e-05
-0.0057986387
-6.438458e-05
-1.3973787e-05
-0.0057876849
-7.0605387e-05
-1.3975734e-05
-0.0057380525
-3.6193693e-05
-1.3580028e-05
-0.0056075412
3.9419834e-05
-1.2670701e-05
-0.0053531369
0.00010620468
-1.1505336e-05
-0.0049746107
-1.0380572e-05
-0.0045589628
-0.00010616053
-1.1059911e-05
-0.0045567797
-3.9405001e-05
-1.2293014e-05
-0.0049721926
3.618249e-05
-1.3594171e-05
-0.0053504796
7.060078e-05
-1.4644372e-05
-0.0056046772
6.4426486e-05
-1.5174072e-05
-0.0057350146
4.2886818e-05
-1.5300634e-05
-0.0057844865
2.5169437e-05
-1.5095783e-05
-0.005795274
1.6199505e-05
-1.4554239e-05
-0.0057925665
1.3447706e-05
-1.3629067e-05
-0.0057878688
1.3400158e-05
-1.2229222e-05
-0.0057853665
1.334452e-05