/*--------------------------------*- C++ -*----------------------------------*\
| =========                 |                                                 |
| \\      /  F ield         | OpenFOAM: The Open Source CFD Toolbox           |
|  \\    /   O peration     | Version:  v2012                                 |
|   \\  /    A nd           | Website:  www.openfoam.com                      |
|    \\/     M anipulation  |                                                 |
\*---------------------------------------------------------------------------*/
FoamFile
{
    version     2.0;
    format      ascii;
    class       volScalarField;
    location    "0";
    object      p;
}
// * * * * * * * * * * * * * * * * * * * * * * * * * * * * * * * * * * * * * //

dimensions      [0 2 -2 0 0 0 0];


internalField   nonuniform List<scalar> 
196035
(
-0.3388914
-0.34889869
-0.33612741
-0.29964876
-0.30717168
-0.31113738
-0.33226071
-0.34169839
-0.3583975
-0.35855224
-0.35148679
-0.34153511
-0.33270215
-0.32800884
-0.32774246
-0.33206132
-0.34082881
-0.3516331
-0.35369976
-0.35275329
-0.33772709
-0.32810966
-0.30585846
-0.30172483
-0.29362168
-0.33166971
-0.3742188
-0.47057248
-0.5146888
-0.57382343
-0.59660602
-0.60678682
-0.6036524
-0.59626876
-0.59189505
-0.5867399
-0.57775765
-0.5663307
-0.55308571
-0.53851909
-0.52305391
-0.50696017
-0.49047481
-0.47374071
-0.45687114
-0.43991948
-0.42294946
-0.40602779
-0.38918639
-0.37244567
-0.35585625
-0.33946769
-0.3233731
-0.30766615
-0.29240226
-0.27763913
-0.26344969
-0.24981889
-0.23666725
-0.22377643
-0.21070963
-0.19683549
-0.18116091
-0.16307584
-0.14439306
-0.12944711
-0.1166617
-0.097612676
-0.07685393
-0.013169265
0.040974331
0.14766456
0.19343148
0.23275728
0.22421845
0.21851227
0.19445838
0.18371752
0.17078822
0.16713623
0.16470117
0.16307232
0.15916002
0.15167359
0.13978689
0.12174193
0.098834132
0.075325957
0.05743862
0.046447322
0.051327833
0.052162376
0.067785866
0.071811379
0.081388063
0.050456291
0.015811863
-0.08995441
-0.14815307
-0.2036043
-0.212941
-0.221433
-0.22987847
-0.24239994
-0.25603384
-0.26719864
-0.27629718
-0.28506897
-0.29452241
-0.30503073
-0.31657954
-0.32909363
-0.34245557
-0.35650076
-0.37103522
-0.3858341
-0.40082452
-0.4159003
-0.43095876
-0.44593409
-0.46077565
-0.47542083
-0.48981965
-0.50393461
-0.51774532
-0.53121276
-0.54426688
-0.55684488
-0.56886847
-0.58016341
-0.59042588
-0.59917872
-0.60567392
-0.60847863
-0.60927044
-0.61296943
-0.61422917
-0.60240269
-0.57846865
-0.51862195
-0.47370982
-0.37767621
-0.38349358
-0.48050771
-0.53933628
-0.61122946
-0.64685069
-0.6638511
-0.66357964
-0.65870935
-0.65410423
-0.64781549
-0.63910042
-0.62885567
-0.61754928
-0.6054818
-0.5928411
-0.57973132
-0.5662
-0.55227983
-0.53801187
-0.52342645
-0.50853933
-0.49338215
-0.47800469
-0.46247087
-0.44683781
-0.43117353
-0.41558242
-0.40018749
-0.38508884
-0.37048589
-0.35657348
-0.34353555
-0.33153412
-0.32070859
-0.3111442
-0.30267111
-0.29472826
-0.28608205
-0.27594547
-0.26468726
-0.25298721
-0.23836191
-0.2146566
-0.14676399
-0.087129133
0.015453027
0.048532536
0.081461654
0.046148575
0.055134671
0.13423321
0.19342888
0.21870493
0.22053635
0.21595348
0.2224124
0.27727504
0.43577815
0.74629221
1.1650424
1.4959829
1.4207443
2.4099669
3.8451934
5.7740644
7.7254161
7.2580232
6.0822732
4.5014336
3.7791026
2.9542379
2.2032237
1.562117
1.3646308
1.1322041
0.90223654
0.33004822
-0.57472492
-1.04224
-1.1136202
-1.7448038
-1.6806045
-1.2924635
-0.83095657
-0.4057887
-0.57743816
-0.77715821
-0.87310489
-0.91514646
-0.88679949
-0.99567214
-0.9602917
-0.72370758
-0.75008347
-1.4560415
-3.390206
-4.4462848
-3.760191
-3.6178685
-3.4656534
-2.9308005
-2.3380247
-2.2152133
-2.2740837
-2.4017743
-2.5416992
-2.6188792
-2.6363196
-2.6590212
-2.7028203
-2.7381916
-2.7361558
-2.74312
-2.7766961
-2.7897528
-2.7751211
-2.7698917
-2.7970949
-2.8223069
-2.7919391
-2.780686
-2.8097672
-2.8226991
-2.7994281
-2.777557
-2.7984373
-2.8157799
-2.7802828
-2.761324
-2.7878477
-2.7866712
-2.7526915
-2.741248
-2.7434116
-2.73587
-2.7084483
-2.6830357
-2.6784937
-2.6722643
-2.6318527
-2.5873238
-2.5739424
-2.5497414
-2.4745367
-2.3995238
-2.3508668
-2.269605
-2.128637
-1.9740681
-1.9245802
-1.9930166
-2.2272754
-2.4734715
-2.7734577
-2.58874
-2.8322798
-3.0269573
-3.1866057
-4.1082845
-4.0312972
-2.953088
-1.4603736
-1.3229547
-1.5952653
-1.7375495
-1.3204403
-1.8788757
-1.7491423
-1.4772243
-1.6418161
-1.7136715
-1.76688
-1.7599713
-1.6772034
-1.5673275
-1.440551
-1.4219075
-1.5852179
-1.9394275
-2.2576609
-2.4186867
-2.0966702
-2.144032
-2.4369288
-3.5810517
-3.6422405
-2.5764524
-1.3710338
-1.6490632
-1.5285607
-0.5788605
-0.79622788
-0.83755622
-0.85994683
-0.87481443
-0.8369819
-0.86411175
-1.0100348
-1.2103842
-1.3885832
-1.5610089
-1.365544
-1.7700691
-2.9621957
-2.95046
-1.9773597
-1.0963661
-1.2763926
-1.0546521
-0.15407666
-0.31935838
-0.37451459
-0.41365315
-0.4201738
-0.39479674
-0.34705284
-0.19676668
-0.54306111
-1.3569248
-1.7667415
-2.6077123
-0.87072124
-1.0354113
-2.1575217
-1.6125993
-0.58517593
-0.22873226
-0.236692
0.033712108
0.7692268
0.75433591
0.79432516
0.72468287
0.50740457
0.38900219
1.1466361
2.0092339
1.9509869
1.2947707
0.70360508
0.27286891
-0.073869403
0.14137612
-0.039766027
-0.22282683
-0.2693335
-0.25088434
-0.21125851
-0.17795169
-0.16367401
-0.15907148
-0.16012711
-0.16431214
-0.1682738
-0.17032993
-0.17081046
-0.17015101
-0.16864649
-0.16648019
-0.16380866
-0.16075769
-0.15742487
-0.15388382
-0.1501893
-0.1463821
-0.1424923
-0.13854071
-0.13454119
-0.13050361
-0.1264349
-0.1223384
-0.11821447
-0.11406241
-0.10988108
-0.10566817
-0.10142105
-0.097135906
-0.092801862
-0.088406884
-0.083950605
-0.079428853
-0.074824117
-0.07013269
-0.065289137
-0.060226104
-0.054898894
-0.049174832
-0.042810207
-0.035337956
-0.025878737
-0.01284878
0.0063606879
0.035071433
0.075061564
0.12236587
0.17028587
0.21306572
0.22364931
0.18763321
0.12201957
0.068028905
0.052122929
0.025306759
0.011966165
0.013391324
-0.0093421306
-0.01295034
-0.026829342
-0.024516485
-0.02343002
-0.021018453
-0.019362439
-0.018685412
-0.018414886
-0.018149493
-0.017892769
-0.017645648
-0.017397837
-0.017164997
-0.016968684
-0.016808238
-0.016680067
-0.016577126
-0.01649797
-0.016435861
-0.016387711
-0.016353029
-0.016332129
-0.016324107
-0.01633064
-0.01635367
-0.01640641
-0.016468376
-0.016560374
-0.016684875
-0.016845303
-0.017045066
-0.017258962
-0.017480469
-0.01770861
-0.017941064
-0.018178298
-0.018840287
-0.020530767
-0.022941084
-0.024000291
-0.026281782
-0.012357271
-0.0087129921
0.014059284
0.012624416
0.025974608
0.016417532
0.026506341
0.017823856
0.027355482
0.018574901
0.020097337
0.019529931
0.021503478
0.022704752
0.023315248
0.023316745
0.022718046
0.021523733
0.01955535
0.020126637
0.01860768
0.027392326
0.01786379
0.026550044
0.016464938
0.026029488
0.012670498
0.01409971
-0.0086763763
-0.012320213
-0.026246896
-0.023962036
-0.022900559
-0.020488886
-0.018796837
-0.018133978
-0.017895434
-0.017661907
-0.017432583
-0.017209426
-0.016994745
-0.016796968
-0.01663482
-0.016508447
-0.016412406
-0.016344326
-0.016305466
-0.016281454
-0.016274097
-0.016281487
-0.01630012
-0.016331997
-0.01637896
-0.016441437
-0.016520629
-0.016621634
-0.016749657
-0.016909582
-0.017105527
-0.017337609
-0.017585314
-0.017832671
-0.018089369
-0.018354613
-0.018624763
-0.019301408
-0.020958437
-0.023370974
-0.024459201
-0.026775012
-0.012893087
-0.0092853645
0.013453654
0.012037174
0.02539514
0.015814498
0.02587
0.017199842
0.026707038
0.017940153
0.019453591
0.0188873
0.020853695
0.02204534
0.022643362
0.022636673
0.022031413
0.020832287
0.018856526
0.019416597
0.017893838
0.026653907
0.017140008
0.025803239
0.015741933
0.0150876
0.029183092
0.033604658
0.038721872
0.034045429
0.032733924
0.03215308
0.033352592
0.034520867
0.035113365
0.035122748
0.034536781
0.033374836
0.03218561
0.032774596
0.034093349
0.038776606
0.033664959
0.029246868
0.01515507
0.01598686
0.02866765
0.037341423
0.039896348
0.036673053
0.033876015
0.03267804
0.033126237
0.03420723
0.0347649
0.034754164
0.034190815
0.03310501
0.032646115
0.033836009
0.036624715
0.039842851
0.037283515
0.028607339
0.015924522
0.00065206451
0.016663486
0.026183399
0.027809796
0.025170569
0.021886229
0.020373138
0.020204383
0.021124878
0.021634651
0.021643416
0.021141152
0.020224342
0.020403054
0.021925103
0.025216577
0.027861765
0.026238908
0.016722005
0.00071155123
-0.0060747501
0.0048320831
0.011851783
0.012232512
0.0085188802
0.00437548
0.0024713065
0.0025519132
0.0034147951
0.0038696931
0.0038619274
0.0033992159
0.0025302527
0.0024403321
0.0043356709
0.0084710985
0.012179365
0.011796001
0.0047748576
-0.0061325474
-0.01864238
-0.0069194002
-0.00041491824
-0.00069610345
-0.0045585536
-0.0088282324
-0.010791302
-0.010595861
-0.0097698208
-0.0093396832
-0.0093322636
-0.0097545054
-0.010573687
-0.010760547
-0.0087894002
-0.0045161455
-0.00064351894
-0.0003592604
-0.0068629063
-0.018586259
-0.020513376
-0.012883556
-0.0068866872
-0.0058274905
-0.009360475
-0.013620319
-0.015496901
-0.015152183
-0.014337153
-0.013927695
-0.01393498
-0.014352637
-0.015174809
-0.015528247
-0.01366093
-0.0094091825
-0.0058809571
-0.0069434921
-0.012941041
-0.020571046
-0.019185191
-0.014002101
-0.0061391165
-0.00474848
-0.0082060414
-0.01217262
-0.013866473
-0.013402692
-0.012670595
-0.012304933
-0.012297598
-0.012654746
-0.013379507
-0.013835323
-0.012132258
-0.0081573983
-0.0046947974
-0.0060818613
-0.01394473
-0.019126422
-0.015107925
-0.0074353122
-0.00088924769
-0.001735165
-0.0057215841
-0.0096475817
-0.011238535
-0.010760194
-0.010101658
-0.0097830572
-0.009790351
-0.010118014
-0.010784149
-0.011270075
-0.0096883566
-0.0057707313
-0.0017889995
-0.00094642938
-0.007493823
-0.015167496
-0.012469532
-0.0025107927
0.0019237289
0.00034970495
-0.0037854033
-0.0077222175
-0.0092618328
-0.0088013579
-0.0081853195
-0.0078840876
-0.0078782984
-0.0081693277
-0.0087772563
-0.0092302347
-0.0076813336
-0.003736101
0.00040369627
0.0019811157
-0.0024512437
-0.012409001
-0.01171523
-0.0017688729
0.0029597635
0.0015046562
-0.0027188391
-0.006661803
-0.0082329777
-0.0077975556
-0.0072112067
-0.0069326852
-0.0069366206
-0.0072263583
-0.0078214949
-0.0082642042
-0.0067024766
-0.0027687117
0.0014502745
0.0029024027
-0.0018282114
-0.011775054
-0.011382161
-0.0014770522
0.0032853539
0.0018492176
-0.0020238258
-0.0056949676
-0.0073375142
-0.006916583
-0.0063302631
-0.0060495657
-0.0060463722
-0.0063158958
-0.0068931393
-0.0073064878
-0.0056541025
-0.0019694997
0.0019036052
0.0033427521
-0.001417844
-0.011322522
-0.010844365
-0.00100086
0.003820045
0.0025057812
-0.0014169163
-0.0048945264
-0.0065163965
-0.0060979347
-0.0055228888
-0.0052968566
-0.0053004802
-0.0055366263
-0.0061206863
-0.006547244
-0.0049348325
-0.0014665561
0.002451962
0.0037626814
-0.0010600736
-0.010904045
-0.010488398
-0.00060663208
0.0042772773
0.0030422684
-0.00090226161
-0.004320995
-0.005883859
-0.0054515241
-0.0048717722
-0.0046814172
-0.0046777139
-0.0048585439
-0.0054292924
-0.0058533211
-0.0042809973
-0.00085344365
0.0030959342
0.0043348772
-0.00054733476
-0.010428679
-0.01007699
-0.00014393749
0.0047852673
0.0035447521
-0.00036005635
-0.0037977455
-0.005326644
-0.0048958952
-0.004323464
-0.0041464918
-0.0041502776
-0.0043363131
-0.0049176981
-0.0053568324
-0.0038374314
-0.00040850199
0.0034909664
0.0047275084
-0.00020334415
-0.010137018
-0.0098317908
0.00013483245
0.0050946953
0.0037945528
-2.5904452e-05
-0.0034820914
-0.0049544613
-0.0045036459
-0.0039160519
-0.0037172516
-0.00371336
-0.0039034267
-0.0044822303
-0.0049246564
-0.0034428052
2.2410671e-05
0.0038483097
0.0051520921
0.00019331443
-0.0097722452
-0.0095112491
0.00044814578
0.0054415068
0.0040798055
0.00029704646
-0.0032997989
-0.004637354
-0.00416683
-0.0035780447
-0.0033716826
-0.0033756508
-0.0035904226
-0.0041879871
-0.0046667714
-0.0033381834
0.00024900421
0.0040261736
0.0053855696
0.00039728616
-0.0095699474
-0.0093499732
0.00064051811
0.00561752
0.0042078235
0.00045585059
-0.0032438009
-0.0044515814
-0.0039459856
-0.0033388113
-0.0031100039
-0.0031059857
-0.0033265711
-0.0039250845
-0.0044223679
-0.0032057613
0.00050340304
0.0042607957
0.0056741775
0.00069813316
-0.0092913993
-0.0091196706
0.00087744949
0.0058554284
0.0044042896
0.00066331595
-0.0031322437
-0.0042572711
-0.0037383391
-0.0031317856
-0.0029001913
-0.0029042515
-0.003143945
-0.0037590214
-0.0042860192
-0.0031698562
0.00061607498
0.0043517453
0.0057990595
0.00081995865
-0.0091776165
-0.0090414856
0.00096015509
0.0059409606
0.0044658921
0.00074153243
-0.0031108073
-0.0041575821
-0.0036137539
-0.0029924532
-0.0027448308
-0.0027407614
-0.0029804256
-0.0035932265
-0.0041289472
-0.0030734461
0.00078840283
0.0045179068
0.0059966787
0.0010170127
-0.0089841382
-0.0088776196
0.0011264296
0.0061073089
0.0046076407
0.00088610667
-0.0030277718
-0.0040292449
-0.0034803788
-0.0028627544
-0.0026173327
-0.0026214007
-0.002874689
-0.0035007264
-0.0040577442
-0.0030651796
0.00083951622
0.004556003
0.0060521943
0.0010694127
-0.0089351864
-0.0088506668
0.0011559754
0.0061385311
0.0046261543
0.0009149453
-0.0030325042
-0.0039808345
-0.0034132714
-0.0027835831
-0.0025263404
-0.0025222909
-0.0027717347
-0.0033930521
-0.0039525675
-0.0029953492
0.0009614369
0.0046775824
0.0061938091
0.0012121041
-0.0087942492
-0.0087300517
0.0012783445
0.0062606199
0.0047306376
0.0010179537
-0.0029761533
-0.0038953261
-0.0033267327
-0.0027024729
-0.0024502894
-0.0024543057
-0.0027142517
-0.0033468543
-0.0039233754
-0.0030126893
0.00097180551
0.0046792247
0.0062047585
0.0012226248
-0.0087857602
-0.0087372024
0.001272966
0.0062561971
0.0047181378
0.0010123546
-0.0030068185
-0.0038831101
-0.0032984541
-0.0026634133
-0.0024017117
-0.0023977324
-0.0026516575
-0.0032784272
-0.0038552353
-0.00297041
0.0010579399
0.0047686196
0.0063105676
0.0013277758
-0.0086823361
-0.0086498399
0.0013617176
0.0063446984
0.0047922959
0.0010827385
-0.002979317
-0.0038306703
-0.0032460968
-0.0026172227
-0.0023624132
-0.0023663738
-0.0026290729
-0.0032661742
-0.0038584388
-0.0030153972
0.0010376943
0.004742921
0.0062926098
0.0013086345
-0.0087025303
-0.0086828689
0.0013286942
0.0063115713
0.0047529387
0.0010487781
-0.0030370224
-0.0038482776
-0.0032490789
-0.0026103532
-0.0023473357
-0.0023433324
-0.0025981622
-0.0032287233
-0.0038202467
-0.003000349
0.0010938084
0.0048019871
0.0063638792
0.0013809238
-0.0086321529
-0.0086270733
0.0013863942
0.006368434
0.0047972342
0.0010920691
-0.0030229196
-0.0038223095
-0.0032261465
-0.0025944768
-0.0023405886
-0.0023448025
-0.0026074949
-0.0032469901
-0.0038499442
-0.0030549768
0.0010478803
0.0047481674
0.0063150461
0.0013338241
-0.0086777802
-0.0086877314
0.0013235335
0.0063031744
0.0047272866
0.0010337033
-0.0030743951
-0.0038656906
-0.0032620099
-0.0026228543
-0.0023604418
-0.0023558491
-0.0026083451
-0.0032406603
-0.0038393525
-0.0030451014
0.0010766084
0.0047761922
0.0063572907
0.0013770268
-0.0086363726
-0.0086627475
0.0013503219
0.006328261
0.0047376501
0.0010446153
-0.0030807438
-0.0038710754
-0.0032725956
-0.002641334
-0.0023905728
-0.0023941238
-0.0026534725
-0.0032919425
-0.0038965462
-0.0031100158
0.0010032908
0.0046906797
0.0062772294
0.0012976737
-0.0087146213
-0.008764057
0.0012515534
0.0062319982
0.0046405681
0.00095252036
-0.0031670256
-0.0039471251
-0.0033418253
-0.0027046507
-0.0024506494
-0.0024466235
-0.002691156
-0.0033216295
-0.0039219685
-0.0031389883
0.00099292522
0.0046867755
0.0062791226
0.0013031747
-0.0087071267
-0.0087795137
0.0012302372
0.0062060574
0.0046320278
0.000919672
-0.0032150028
-0.0039994566
-0.0034015998
-0.0027734568
-0.0025342154
-0.0025384074
-0.0027873007
-0.0034220554
-0.0040250902
-0.0032445577
0.00087860526
0.004585874
0.0061570843
0.0011789611
-0.0088335858
-0.0089322244
0.0010768346
0.0060531592
0.0045104131
0.00078503729
-0.0032888557
-0.0041235689
-0.0035329717
-0.0029034413
-0.0026630226
-0.0026587591
-0.0028897814
-0.0035126958
-0.0040973132
-0.0032546995
0.00082646878
0.0045555295
0.0061003186
0.001126712
-0.0088805396
-0.0090178422
0.00098597557
0.005957161
0.0044502312
0.00070315546
-0.0032863042
-0.0042267796
-0.0036645561
-0.0030499543
-0.0028307381
-0.0028350413
-0.0030630985
-0.0036842904
-0.0042527484
-0.0033206981
0.00066215368
0.0044059134
0.0059097072
0.00093663001
-0.0090673225
-0.0092500276
0.00074592978
0.005715993
0.0042642325
0.00049582008
-0.0033620462
-0.0044276002
-0.003889838
-0.0032798712
-0.0030683434
-0.0030640328
-0.0032675156
-0.0038708662
-0.0044021667
-0.0033284167
0.00053612936
0.0043084555
0.0057629997
0.00079520567
-0.009199792
-0.0094324608
0.0005359817
0.0055035558
0.004117715
0.00030896365
-0.0033905798
-0.0046418835
-0.0041496029
-0.0035597069
-0.0033750988
-0.0033791852
-0.0035711244
-0.0041677271
-0.0046666834
-0.0034232859
0.00026949918
0.0040737799
0.0054569406
0.00049410258
-0.0094806061
-0.0097524586
0.00019349206
0.0051249831
0.0038183023
-4.3464496e-05
-0.0035402814
-0.0049987521
-0.0045413796
-0.0039574696
-0.0037827959
-0.0037792496
-0.0039470059
-0.0045240034
-0.0049745898
-0.0035081239
-4.6007043e-06
0.0038613985
0.0051711043
0.00024064697
-0.0097040887
-0.010030618
-0.0001325568
0.0047589278
0.0035121193
-0.00043995076
-0.0038743712
-0.0054491539
-0.0050206898
-0.0044495903
-0.0042814196
-0.004284394
-0.0044594385
-0.0050375948
-0.0054727964
-0.0039056659
-0.00047825703
0.0034700368
0.0047136944
-0.00017931294
-0.010077974
-0.010466079
-0.00060125513
0.004233569
0.0029203965
-0.00099845128
-0.0044700905
-0.0060953415
-0.0056697242
-0.0050883623
-0.004868121
-0.004865616
-0.0050786925
-0.0056530008
-0.0060720791
-0.0044393338
-0.00096059866
0.0029618519
0.0042779172
-0.00055536978
-0.010419602
-0.010867487
-0.00093523413
0.0038397868
0.0024002744
-0.0014696268
-0.0051597845
-0.0068198535
-0.00640605
-0.0058278542
-0.0055588002
-0.0055602468
-0.0058374773
-0.006422841
-0.0068426822
-0.0051900568
-0.0015069925
0.0023594097
0.0037961411
-0.00098023411
-0.010912929
-0.011268381
-0.0012920598
0.0034585266
0.0020110918
-0.002220806
-0.0061607753
-0.0077302121
-0.0072883519
-0.0066934239
-0.0064050031
-0.0064033742
-0.0066834615
-0.0072714028
-0.0077075085
-0.006130874
-0.0021843829
0.0020510118
0.0035008411
-0.001248083
-0.011224453
-0.011922699
-0.0019348155
0.0025043205
0.00093042154
-0.0032100333
-0.0071593666
-0.0087055977
-0.0082503188
-0.0076401184
-0.0073473778
-0.0073494668
-0.0076504913
-0.0082671961
-0.00872826
-0.0071889473
-0.0032456935
0.00089146631
0.0024628568
-0.0019778085
-0.011966336
-0.014659749
-0.0069661153
-0.00040250421
-0.0012407446
-0.0052253535
-0.0091558638
-0.010744207
-0.010257143
-0.0095891889
-0.0092605989
-0.0092578299
-0.0095782543
-0.010240134
-0.010721651
-0.009126741
-0.0051904141
-0.0012026357
-0.00036201446
-0.0069248481
-0.014617833
-0.018633513
-0.013433701
-0.0055624437
-0.0041569243
-0.0076253937
-0.011608541
-0.013312727
-0.01285427
-0.012126394
-0.011767109
-0.011771458
-0.012137932
-0.012871147
-0.013335017
-0.011637065
-0.0076595239
-0.0041943445
-0.0056024423
-0.013473369
-0.018674076
-0.020040943
-0.01237932
-0.0063716466
-0.0053077858
-0.008839522
-0.013108493
-0.014980059
-0.014632913
-0.013813843
-0.013396395
-0.013390666
-0.013801789
-0.01461608
-0.014957502
-0.013079906
-0.0088052263
-0.0052709748
-0.0063325768
-0.012340168
-0.020001955
-0.01803947
-0.0062947145
0.00022422918
-5.3009898e-05
-0.0038912272
-0.0082316641
-0.01019868
-0.010005139
-0.0091755124
-0.008749781
-0.0087560137
-0.0091880276
-0.010022036
-0.010221078
-0.0082595746
-0.0039280242
-8.960836e-05
0.00018616253
-0.0063330282
-0.01807648
-0.0055324192
0.0053962309
0.012434398
0.012822304
0.0091018078
0.0049440998
0.0030374671
0.0031247895
0.0039963678
0.0044601739
0.0044662387
0.0040094965
0.0031419294
0.0030605898
0.0049724555
0.009135434
0.012858627
0.0124724
0.0054349593
-0.0054942425
0.0013221397
0.017361636
0.026905404
0.0285289
0.025860577
0.022550588
0.021021838
0.0208486
0.02177928
0.022282975
0.022278666
0.021765768
0.020832163
0.02099891
0.022522465
0.02582871
0.028493273
0.026867666
0.01732247
0.0012833484
0.016587571
0.029293625
0.037998058
0.040562809
0.037329536
0.034524248
0.033322668
0.033762501
0.034849881
0.035418964
0.035419707
0.034863341
0.03378092
0.033347665
0.034553836
0.037363658
0.040599973
0.038037604
0.029334082
0.016628559
0.015806647
0.029940098
0.034381209
0.039508291
0.034816566
0.033490777
0.032895244
0.034076042
0.035238652
0.035823967
0.035822986
0.035224744
0.034056092
0.032869191
0.033460018
0.034782212
0.039470177
0.034340265
0.029897447
0.015761917
0.058911521
0.036214009
0.06332048
0.11140684
0.17003441
0.20367316
0.19960315
0.16851616
0.12616313
0.083482216
0.046520666
0.019372022
0.0010635387
-0.011175267
-0.019964822
-0.026907158
-0.032824053
-0.038140587
-0.043088854
-0.047804541
-0.052372781
-0.05684879
-0.061280158
-0.065696656
-0.070106083
-0.074522367
-0.078965172
-0.08345066
-0.087988162
-0.092582479
-0.097248681
-0.10200388
-0.10684902
-0.11178743
-0.11683567
-0.12200372
-0.12729559
-0.13272122
-0.13829463
-0.14402968
-0.14993874
-0.15604054
-0.16236912
-0.16897054
-0.17590285
-0.18324741
-0.19112268
-0.19969907
-0.20920334
-0.21993936
-0.23230214
-0.24678351
-0.26397946
-0.28457597
-0.30931143
-0.33892424
-0.37409135
-0.41536296
-0.46310329
-0.517445
-0.57825952
-0.6451499
-0.71747249
-0.79438038
-0.87488357
-0.95796943
-1.0426062
-1.1277145
-1.2123127
-1.2955222
-1.3765358
-1.454607
-1.5290274
-1.5991062
-1.6641539
-1.7233345
-1.7756468
-1.8201718
-1.8559453
-1.8814594
-1.89536
-1.8966518
-1.8840733
-1.8565072
-1.8133488
-1.7547249
-1.6817122
-1.5964473
-1.5020635
-1.402333
-1.3013338
-1.2030845
-1.1108736
-1.0269218
-0.95242449
-0.88767242
-0.83226976
-0.78537614
-0.74591981
-0.71276523
-0.68482141
-0.66103437
-0.64030456
-0.62159305
-0.6036727
-0.58486003
-0.56291409
-0.53506632
-0.49777639
-0.45152379
-0.40768532
-0.37864531
-0.37204378
-0.39728795
-0.42153848
-0.39239838
-0.42775639
-0.48755998
-0.56428325
-0.63347262
-0.68398457
-0.71025804
-0.7187671
-0.71643341
-0.70754128
-0.69637289
-0.68449957
-0.67210142
-0.65929937
-0.64614432
-0.63264688
-0.61880054
-0.60459432
-0.59001702
-0.57507438
-0.55978359
-0.54416512
-0.52824975
-0.5120874
-0.49574155
-0.47928681
-0.46280442
-0.44639565
-0.43019264
-0.4143497
-0.39901688
-0.38438033
-0.37064908
-0.35805638
-0.34684577
-0.33720138
-0.32919893
-0.32267474
-0.3172685
-0.31181274
-0.30279606
-0.28446924
-0.25071077
-0.19764759
-0.12551048
-0.05379452
0.0059399611
0.044817938
0.061293994
0.11345043
0.16955007
0.19709336
0.20634355
0.21194948
0.23390647
0.30704536
0.46693772
0.7317002
1.109306
1.7528342
2.5297081
2.4735363
3.011149
4.1566868
6.9211684
6.2085652
5.6588085
5.5840069
5.6863514
6.2878984
6.5254647
7.3140144
8.2965913
8.1428084
7.5201592
8.7116455
7.2818906
5.6899444
6.1568521
5.8699675
5.4245659
4.4740474
3.8820647
2.9751644
2.3949046
1.5609994
1.826939
1.1499234
0.93793191
0.46581738
-1.2868216
-2.8059611
-1.1921759
-0.96900944
-0.57331864
0.097899858
0.6154683
0.961698
1.1576221
1.5376698
2.3747188
2.6218863
3.5719134
5.000825
5.573797
7.8589851
7.2499515
8.0413316
7.7345239
6.3135636
5.5274729
5.5545316
3.9891733
2.9916749
2.3272667
1.5852346
1.0550797
0.73559902
0.4536451
-0.039505362
-0.32030613
-0.55131196
-0.81621512
-1.3187911
-1.5469743
-1.4737781
-1.1585709
-0.80813721
0.26053753
-0.59015887
-0.6756134
-0.60103482
-0.71841402
-0.72848539
-0.81344365
-0.58831097
1.0977073
-0.50858799
-0.4657571
-1.1567242
-2.8420387
-5.2663859
-4.2599428
-3.9689012
-3.8664632
-3.7164388
-3.3784766
-1.8064097
-1.0725217
-0.51793988
-0.48765638
-1.1124665
-1.0283986
-1.0354117
-1.1045953
-0.5111364
-0.33064986
-0.94172801
-1.2258224
-1.0122112
-1.2007715
-1.1404795
-0.62864483
-0.91809799
-1.0132292
-1.088947
-1.0895653
-1.2100956
-1.1421375
-0.71492234
-1.105283
-1.3752545
-1.8323055
-2.4137172
-2.4604792
-2.6204717
-3.5243634
-2.8342376
-2.9606201
-2.7261449
-2.3266384
-2.2580531
-2.2931176
-2.4354832
-2.5525764
-2.6212293
-2.638631
-2.6612977
-2.703685
-2.7389598
-2.7350411
-2.7400745
-2.7753242
-2.7924366
-2.7722727
-2.7660637
-2.7985182
-2.8228965
-2.7905302
-2.7774828
-2.8100059
-2.8279723
-2.7979068
-2.7729403
-2.7991982
-2.8191911
-2.7801404
-2.7583699
-2.7874723
-2.7896806
-2.7515206
-2.7366629
-2.7438411
-2.7394741
-2.7062812
-2.6785496
-2.6792273
-2.673859
-2.630257
-2.5877648
-2.576923
-2.5537113
-2.4798831
-2.4049744
-2.3549702
-2.2750557
-2.1461147
-2.0152235
-2.0000261
-2.2319736
-2.4381245
-2.6576814
-2.6560303
-2.3812053
-2.1020658
-2.0747291
-2.1775
-2.2920839
-2.3689102
-2.418566
-2.4867527
-2.5568799
-2.5816495
-2.5894439
-2.628316
-2.6737761
-2.6784328
-2.6731469
-2.7035142
-2.7408799
-2.7441352
-2.7325096
-2.7504713
-2.7892686
-2.7875327
-2.7582735
-2.7791494
-2.8210852
-2.8007076
-2.7673955
-2.7965847
-2.8332975
-2.8110657
-2.7750996
-2.7875165
-2.8213311
-2.8021852
-2.7622997
-2.768249
-2.7926367
-2.7745708
-2.7376093
-2.7334862
-2.7387032
-2.7045672
-2.6618135
-2.6443364
-2.6285707
-2.563727
-2.4306114
-2.3398749
-2.4762489
-2.5890721
-2.7475031
-2.5889983
-2.7599185
-3.322429
-2.2215602
-2.4829356
-1.8765541
-2.7687085
-2.4954501
-2.8293112
-2.6883293
-2.3837087
-2.4659017
-2.4674608
-2.5845555
-2.6505873
-2.6518041
-2.6676579
-2.7014526
-2.7316849
-2.7338734
-2.7414792
-2.7706608
-2.7852471
-2.7704338
-2.7667215
-2.7992849
-2.8146498
-2.7896837
-2.7830311
-2.8078129
-2.8273996
-2.8009634
-2.771663
-2.7971789
-2.8157529
-2.7811219
-2.7639653
-2.7851597
-2.7816616
-2.7510986
-2.7378893
-2.7401977
-2.732755
-2.7037023
-2.6751202
-2.67281
-2.6653914
-2.6287343
-2.5947301
-2.5827308
-2.5569278
-2.4972013
-2.4374001
-2.3881017
-2.3215338
-2.2370362
-2.204769
-2.3005818
-2.4515373
-2.5050095
-2.5200888
-2.6336483
-2.9020642
-3.0076781
-3.1949345
-3.8465456
-3.8700281
-3.7857704
-3.400048
-3.5649614
-3.1933826
-3.4418069
-3.21648
-3.4209575
-3.3518763
-3.4651622
-3.3719226
-3.3990553
-3.4028118
-3.4757958
-3.4981778
-3.5702712
-3.3935707
-3.4241916
-3.3760589
-2.4268866
-2.487582
-2.92849
-3.4102213
-3.336904
-3.4384302
-3.4104235
-3.467625
-3.4604957
-3.4916662
-3.5085302
-3.5355804
-3.4924427
-3.4455631
-3.4882135
-3.5051867
-3.5767522
-3.4212267
-3.4554064
-3.438185
-2.5301692
-2.5893099
-3.0074163
-3.6080078
-3.5978238
-3.6719121
-3.6843049
-3.735869
-3.7729244
-3.8043419
-3.7685906
-3.5040258
-3.5054456
-3.5468324
-2.6330789
-2.6190994
-3.0327799
-3.6592875
-3.6620197
-3.7263338
-3.7366273
-3.7437335
-3.8161076
-3.688169
-3.6381953
-3.5638846
-2.7213074
-2.7826837
-3.2086854
-3.8933389
-3.926483
-3.9423705
-3.9945081
-3.9024545
-3.8501101
-3.7825933
-2.8769587
-2.984899
-3.3986844
-3.7248709
-3.8604764
-3.8719613
-2.9970672
-3.2815537
-3.7064057
-3.9481246
-4.0404597
-4.0388392
-3.1868988
-3.1381458
-3.4912277
-4.0103568
-3.1952626
-3.1497338
-3.7182045
-4.5736758
-4.3824823
-4.4804773
-3.9512556
-2.8934659
-2.7715224
-2.7465847
-2.7709036
-2.9119585
-2.9862995
-3.2493382
-3.3547728
-3.3060942
-3.2022927
-3.1851321
-3.1685911
-3.1742213
-3.220475
-3.2645086
-3.2899039
-3.3077056
-3.3149193
-3.216166
-3.2018715
-3.572809
-3.7660581
-4.0413373
-4.5127653
-4.5754076
-3.6524731
-3.5977109
-2.9148993
-1.705907
-2.1182146
-2.0010246
-2.2536857
-2.7021775
-2.5303358
-2.2640886
-2.0155304
-2.1045486
-1.9590647
-1.4949374
-1.0033265
-0.40510132
0.17559708
1.0494358
2.4696033
3.6417823
4.8256443
5.1027169
5.0859868
4.3927211
4.1818386
4.2250743
4.554902
4.9899641
4.9001297
5.4156197
5.2012795
4.5697324
3.3424338
2.7253061
1.2987852
0.85329188
0.53372746
-0.44794905
-0.74695355
-1.2640756
-1.9308002
-2.0595354
-1.9824644
-2.1134864
-2.3886156
-2.6772529
-2.5304517
-2.1451786
-2.1529599
-2.0985358
-2.3236994
-3.1208811
-3.4707371
-4.1106146
-4.1684424
-3.8198288
-3.4428452
-3.3308958
-3.2870313
-3.3314961
-3.3318006
-3.3151544
-3.2999493
-3.2642345
-3.2244837
-3.2166307
-3.2083194
-3.1979625
-3.2091204
-3.2326922
-3.3642624
-3.519258
-3.2287089
-3.0496548
-2.6242588
-2.8572674
-2.8686715
-3.2630539
-4.072948
-4.1653116
-3.76052
-3.8795966
-3.1203678
-3.2121012
-3.5672945
-3.8954764
-3.176823
-3.2291541
-3.4820912
-3.7617562
-3.282715
-3.1793984
-3.1025005
-2.9078426
-3.2226792
-3.5723997
-3.1200306
-2.9363913
-2.7991855
-2.87744
-3.3424111
-3.4981691
-3.0402872
-3.0601304
-3.0743029
-3.0118761
-3.001711
-3.0247234
-2.6815912
-2.7196943
-3.1412292
-3.2843101
-2.8663612
-2.9121515
-2.9651122
-2.8835516
-2.8522982
-2.82911
-2.798738
-2.853174
-2.5330868
-2.7026314
-3.177914
-3.4060413
-2.8658229
-2.710979
-2.8798557
-2.9711109
-2.9433686
-2.8935315
-2.8351281
-2.8035034
-2.7662171
-2.7893619
-2.4935012
-2.5931493
-3.088618
-3.3618007
-2.9407922
-2.8700535
-2.9542059
-2.8680601
-2.7806414
-2.6455901
-2.672887
-2.7437893
-2.7088548
-2.677475
-2.6386276
-2.624332
-2.5682275
-2.5773931
-2.5379572
-2.655059
-2.4120584
-2.518996
-3.0064911
-3.3073886
-2.9148019
-2.8464539
-2.9529061
-2.8953337
-2.8499504
-2.7170565
-2.6156186
-2.6120408
-2.6998364
-2.600007
-2.63208
-2.4717557
-2.6147656
-2.4389364
-2.6777512
-2.5546859
-2.794297
-2.9110456
-2.916522
-3.3747408
-3.9358819
-4.2316444
-5.1989581
-4.5982566
-6.030088
-3.4293954
-3.256646
-2.3524643
-2.8064977
-2.9662108
-2.8783044
-2.6280537
-2.6274515
-1.6863016
-2.1683103
-2.0078618
-1.9851835
-2.0458014
-2.1693312
-2.2887908
-2.3538439
-2.3923521
-2.4690141
-2.554517
-2.5759503
-2.5798181
-2.6270653
-2.6817387
-2.6819639
-2.6728841
-2.7043878
-2.7475365
-2.7460287
-2.7306703
-2.7508198
-2.7941769
-2.7874206
-2.7563353
-2.7795306
-2.8218799
-2.8009209
-2.7721112
-2.7946036
-2.8290937
-2.8104365
-2.7737437
-2.7906254
-2.8284826
-2.7997557
-2.7625346
-2.773129
-2.7998741
-2.7753105
-2.7351668
-2.7328906
-2.7445625
-2.7012242
-2.6478686
-2.6324959
-2.6291197
-2.5624716
-2.4602989
-2.323032
-2.2172372
-2.3589062
-2.8616083
-3.1744963
-3.5664876
-3.2524348
-3.2658274
-3.4602556
-3.0499585
-2.8994564
-2.7447132
-2.2887591
-1.6770366
-1.287056
-0.96183613
-0.70526798
-0.40042937
0.19742737
0.95974614
1.7213429
1.9062119
1.7007523
2.0034366
1.7615422
1.3154513
0.92374706
0.6381125
0.45045445
0.33408919
0.27169754
0.24197236
0.22667109
0.21436527