/*--------------------------------*- C++ -*----------------------------------*\
| =========                 |                                                 |
| \\      /  F ield         | OpenFOAM: The Open Source CFD Toolbox           |
|  \\    /   O peration     | Version:  v2012                                 |
|   \\  /    A nd           | Website:  www.openfoam.com                      |
|    \\/     M anipulation  |                                                 |
\*---------------------------------------------------------------------------*/
FoamFile
{
    version     2.0;
    format      ascii;
    class       surfaceScalarField;
    location    "174";
    object      phi;
}
// * * * * * * * * * * * * * * * * * * * * * * * * * * * * * * * * * * * * * //

dimensions      [0 3 -1 0 0 0 0];
oriented        oriented;


internalField   nonuniform List<scalar> 
56627
(
0.0065414341
3.1912585e-06
-1.1762436e-05
0.0065492909
2.8877034e-06
-1.0744482e-05
0.0065560549
2.8707004e-06
-9.6346876e-06
0.0065618065
2.9111076e-06
-8.6627101e-06
0.0065666618
2.9726182e-06
-7.8279274e-06
0.0065707719
3.0286353e-06
-7.1387508e-06
0.0065742729
3.0724374e-06
-6.5734233e-06
0.0065772755
3.1027264e-06
-6.1052802e-06
0.0065798673
3.1260853e-06
-5.7179646e-06
0.0065821219
3.1424384e-06
-5.3969769e-06
0.0065840975
3.150233e-06
-5.1258295e-06
0.0065858364
3.1523457e-06
-4.8912827e-06
0.0065873759
3.1514704e-06
-4.6910161e-06
0.0065887474
3.1467663e-06
-4.5182128e-06
0.0065899748
3.1398003e-06
-4.3671907e-06
0.0065910756
3.1317979e-06
-4.2325775e-06
0.0065920662
3.1191825e-06
-4.1098366e-06
0.0065929659
3.1039281e-06
-4.0036436e-06
0.0065937865
3.0882255e-06
-3.9088107e-06
0.0065945388
3.0709242e-06
-3.8232311e-06
0.006595235
3.0527713e-06
-3.7489709e-06
0.0065958786
3.0381955e-06
-3.681798e-06
0.0065964576
3.0368115e-06
-3.6157543e-06
0.0065970101
3.0364166e-06
-3.5889018e-06
0.0065975434
3.0686279e-06
-3.6019273e-06
0.0065987065
2.8664164e-06
-4.0295247e-06
0.0066009284
2.5660664e-06
-4.7880217e-06
0.0066083293
4.6707543e-07
-7.8679197e-06
0.0066171162
1.9744502e-07
-8.9843673e-06
0.0066383392
-5.3853667e-06
-1.5837672e-05
0.0066646459
-7.7793004e-06
-1.8527373e-05
0.0067212502
-2.1974238e-05
-3.4630035e-05
0.00682243
-5.7857155e-05
-4.3322707e-05
0.0069099011
-5.1207618e-05
-3.6263408e-05
0.0001060728
9.6789955e-05
6.8458274e-06
-0.00013773601
-0.0071382558
0.00024269901
-0.00022083715
-0.0075061196
5.7204349e-05
-0.000256591
-0.0079946212
0.00016755892
-0.00027429576
-0.008318378
4.0435665e-05
-0.00028851027
-0.0085617288
4.4209959e-05
-0.00029528238
-0.008631093
1.0290013e-05
-0.0002974573
-0.0086441506
8.5532779e-06
-0.0002961809
-0.0086187742
1.0083469e-05
-0.00029480797
-0.0085906376
1.4596848e-05
-0.0002937539
-0.0085674547
1.8038531e-05
-0.00029324798
-0.008550477
2.1230602e-05
-0.00029317035
-0.0085371288
2.4548061e-05
-0.00029345815
-0.0085255415
2.8575303e-05
-0.00029408209
-0.008514615
3.3805482e-05
-0.00029504935
-0.0085038932
4.0660322e-05
-0.00029636992
-0.008493214
4.9540507e-05
-0.00029798351
-0.0084821404
6.0582879e-05
-0.00029975224
-0.0084699738
7.3766847e-05
-0.00030141815
-0.0084553702
8.8783629e-05
-0.00030255088
-0.0084361253
0.00010471681
-0.00030251841
-0.008409056
0.00011979026
-0.0003002587
-0.0083700772
0.00013062875
-0.00029412685
-0.0083159579
0.00013196062
-0.00028280631
-0.0082529996
0.00012203577
-0.00026975628
-0.008215135
0.00010094465
-0.00026264462
-0.0082373453
7.5472672e-05
-0.00026343942
-0.0083081664
2.2328575e-05
-0.00026892169
-0.0083859538
1.0179786e-05
-0.0002717648
-0.0084127782
-0.00012644818
-0.00026902538
-0.0083691217
-2.8335585e-05
-0.00025783088
-0.0081440355
-0.00021838283
-0.00024222465
-0.0078333109
5.6508485e-06
-0.00020849195
-0.0073573941
-9.8068259e-05
-0.00012781757
-0.006997924
0.00010139661
-0.006774628
1.0858393e-05
-8.675093e-05
-0.0070377631
0.00023218369
-0.00013506012
-0.0074752409
6.6560261e-05
-0.00014038207
-0.0080392796
0.00017307161
-0.00014232008
-0.0084559827
6.1613064e-05
-0.00015070509
-0.0087764341
5.9477338e-05
-0.00015924575
-0.0089172928
1.8862042e-05
-0.0001632014
-0.0089814798
-2.2643727e-05
-0.00016232157
-0.0089803453
-2.7412931e-05
-0.00015664291
-0.0089139611
-0.00014295851
-0.00014654756
-0.008771271
-4.1878879e-05
-0.00013695299
-0.0084495025
-0.00021344899
-0.00013425821
-0.0080320228
1.4307927e-06
-0.00012878094
-0.0074677818
-9.5250526e-05
-8.0547762e-05
-0.0070302507
0.00010387485
-0.0067671161
6.8299231e-06
-0.00013449104
-0.0069915319
0.0002383989
-0.00021629909
-0.0073538851
5.7717532e-05
-0.00025202984
-0.0078360098
0.00016769658
-0.00027022794
-0.0081584877
4.5221986e-05
-0.00028497903
-0.0084039302
5.1462109e-05
-0.00029224828
-0.0084802827
2.0597499e-05
-0.00029474643
-0.0085026346
2.1040779e-05
-0.00029356272
-0.0084883268
2.4059835e-05
-0.00029199814
-0.0084722824
2.9086917e-05
-0.0002904822
-0.0084620599
3.186725e-05
-0.00028927906
-0.0084588419
3.2999967e-05
-0.00028831353
-0.0084600153
3.2687136e-05
-0.00028756042
-0.0084636528
3.1359836e-05
-0.00028701803
-0.0084685235
2.937934e-05
-0.00028670106
-0.0084740281
2.7058052e-05
-0.00028660798
-0.0084798976
2.4614679e-05
-0.00028671084
-0.0084859776
2.2176812e-05
-0.00028696842
-0.0084921679
1.9844158e-05
-0.0002873385
-0.0084984091
1.772566e-05
-0.00028777963
-0.0085046927
1.5949029e-05
-0.00028825776
-0.0085111407
1.4692941e-05
-0.00028876157
-0.0085178728
1.4254847e-05
-0.00028930808
-0.0085254259
1.476485e-05
-0.00028996682
-0.0085349513
1.6830786e-05
-0.00029084272
-0.0085483198
1.6229306e-05
-0.00029209032
-0.0085681193
1.2510574e-05
-0.00029349651
-0.0085931061
-2.3284692e-05
-0.00029465441
-0.0086155758
-2.1664037e-05
-0.00029221495
-0.0085999975
-0.00015070914
-0.00028505552
-0.0085286113
-4.358743e-05
-0.00027041931
-0.0082843036
-0.00023143026
-0.00025232132
-0.0079603716
4.4864498e-08
-0.00021646275
-0.0074728884
-0.00010220046
-0.00013359628
-0.0071059742
9.9737515e-05
-0.0068784464
4.5143218e-06
-8.5458045e-05
-0.0071466448
0.00022630428
-0.00013474337
-0.0075931286
5.5338975e-05
-0.00014063147
-0.0081698512
0.00016184765
-0.00014350441
-0.008598896
4.7680937e-05
-0.00015321487
-0.0089320252
4.5888768e-05
-0.00016317033
-0.0090838576
5.9263921e-06
-0.00016836231
-0.0091582817
-3.41399e-05
-0.00016837947
-0.0091659578
-3.6192074e-05
-0.00016316426
-0.0091059115
-0.00015137464
-0.00015303502
-0.0089658743
-4.5374528e-05
-0.00014295165
-0.008639885
-0.00021881435
-0.00013955937
-0.0082128472
1.87641e-06
-0.00013301906
-0.0076331441
-8.2826558e-05
-0.0071819191
-0.00018796072
-9.6765484e-05
-0.0075309471
-0.00010241491
-0.00014865274
-0.0081362692
-4.0292537e-05
-0.00015160466
-0.008758243
3.5753481e-05
-0.0001479411
-0.0092377271
3.1098137e-05
-0.00015481906
-0.0095351077
2.0234376e-05
-0.00016432508
-0.0096846503
-6.2002444e-06
-0.00016958132
-0.0097375898
-3.2385561e-05
-0.0001696963
-0.009729563
-4.2985182e-05
-0.00016475645
-0.0096614932
-4.7084228e-05
-0.00015579279
-0.0094995922
2.9594507e-05
-0.00014975365
-0.0091944832
9.3021798e-05
-0.00015449273
-0.0087130458
0.00018052699
-0.00015281823
-0.0080942443
-0.00010238779
-0.007494387
-0.00029870498
6.2451761e-06
-0.0080151555
-0.00022313057
-5.3138995e-05
-0.0087787871
-8.9894166e-05
-3.880517e-05
-0.0095106827
7.3265845e-06
-2.0358843e-05
-0.01004525
4.0207677e-05
-1.6348993e-05
-0.010359952
3.0414982e-05
-1.9693453e-05
-0.010516738
6.4949025e-06
-2.2219059e-05
-0.01058213
-1.7833049e-05
-2.1832208e-05
-0.010590693
-2.7908665e-05
-1.8435646e-05
-0.010541457
4.5037079e-06
-1.3957322e-05
-0.010397909
0.00010109615
-1.6515004e-05
-0.010091479
0.00023322081
-3.3261336e-05
-0.0095588271
0.00030661662
-4.5794045e-05
-0.0088231744
1.552773e-05
-0.0080532895
-0.00035779115
5.8929955e-05
-0.0085689291
-0.00027462489
6.6729145e-05
-0.0094461013
-0.00011787318
9.5635755e-05
-0.010273597
-3.1344449e-06
0.00012146099
-0.010854557
3.4456863e-05
0.00013057682
-0.011173748
2.2251622e-05
0.00012988016
-0.011315032
-6.4566628e-06
0.00012774642
-0.011360793
-3.4909747e-05
0.00012706486
-0.011351868
-4.6756436e-05
0.00012772614
-0.011289252
-8.6086123e-06
0.00012665911
-0.011134166
0.00010681769
0.00011544171
-0.010806428
0.0002647014
8.7298073e-05
-0.010223682
0.00035006201
5.6146492e-05
-0.0094003684
4.6450721e-05
-0.0085298263
-0.0003720722
9.7562475e-05
-0.0089046946
-0.00027617607
0.00010404517
-0.0098225633
-0.00010431837
0.00013833653
-0.010691681
1.8162744e-05
0.00016524281
-0.01130261
5.5480571e-05
0.00017707415
-0.011641105
3.9359194e-05
0.00017952083
-0.011797488
6.1679847e-06
0.00017963795
-0.011859096
-2.7124751e-05
0.00018056309
-0.011868065
-4.3715349e-05
0.00018241946
-0.011823391
-7.081971e-06
0.00018227205
-0.011680831
0.00011461178
0.00017311957
-0.011350791
0.00028533026
0.0001490883
-0.010741466
0.00037915975
0.00011742963
-0.0098680426
0.00011304004
-0.008943592
-0.00039136292
7.9013586e-05
-0.0091546051
-0.00028879813
0.00010688511
-0.010086279
-0.0001104198
0.00012994517
-0.010971184
1.38749e-05
0.0001450386
-0.011590836
4.9130739e-05
0.00014996379
-0.011926932
2.9954946e-05
0.00014906641
-0.01207164
-5.8377414e-06
0.00014697968
-0.012116699
-4.1484265e-05
0.00014584985
-0.012107972
-6.0091535e-05
0.00014554189
-0.01204645
-2.4033266e-05
0.0001436833
-0.011888374
0.00010113781
0.00013558347
-0.01154421
0.0002806382
0.00011715081
-0.010923152
0.00038507398
9.1155975e-05
-0.010042458
6.1233796e-05
-0.009117066
-0.00039132063
3.6656047e-05
-0.0092035531
-0.00028202072
5.3543355e-05
-0.010124507
-9.9580251e-05
6.9028694e-05
-0.011002937
2.5870504e-05
7.8738906e-05
-0.011624377
6.1101771e-05
8.2713179e-05
-0.011969643
4.1710581e-05
8.358796e-05
-0.012128093
5.585853e-06
8.3978972e-05
-0.012189347
-3.0770221e-05
8.5319077e-05
-0.012197655
-5.0804285e-05
8.7751274e-05
-0.012152036
-1.6474876e-05
9.0082394e-05
-0.012006199
0.00010801034
8.9736087e-05
-0.011668441
0.00028932262
8.3742494e-05
-0.011048183
0.0003969099
7.1385351e-05
-0.010165715
5.6564086e-05
-0.0092388663
-0.0003970898
2.9867633e-05
-0.009248331
-0.00028740744
4.1180554e-05
-0.01017357
-0.00010601762
4.5414417e-05
-0.01105213
1.7302699e-05
4.5239606e-05
-0.011670058
5.0750629e-05
4.2580652e-05
-0.012007217
3.0550448e-05
3.9266942e-05
-0.012153161
-5.5583603e-06
3.6569712e-05
-0.012199123
-4.1350974e-05
3.4982984e-05
-0.012191335
-6.0837528e-05
3.4360593e-05
-0.012130748
-2.6380893e-05
3.3976001e-05
-0.011973098
9.8024978e-05
3.255835e-05
-0.011629089
0.00028061586
2.8700284e-05
-0.011010239
0.00039195636
2.1237294e-05
-0.010135543
7.9507484e-06
-0.009215816
-0.00039003411
-5.2473699e-06
-0.0092004764
-0.00027820708
1.5990499e-06
-0.010119606
-9.6433719e-05
4.8444535e-06
-0.010991881
2.6741104e-05
6.0454459e-06
-0.011608286
6.0569943e-05
6.4395631e-06
-0.011950541
4.1173651e-05
6.897278e-06
-0.012107001
5.8232171e-06
7.8992442e-06
-0.012166752
-2.9872998e-05
9.7800911e-06
-0.012173977
-5.0070378e-05
1.268081e-05
-0.012127753
-1.7390524e-05
1.6476832e-05
-0.011982025
0.00010451927
2.0627904e-05
-0.011645908
0.00028492175
2.3741408e-05
-0.011030122
0.0003950085
2.3761372e-05
-0.010154129
1.8762425e-05
-0.0092298537
-0.00039308327
1.5194539e-05
-0.0092039982
-0.00028330692
1.6681499e-05
-0.010128949
-0.00010394799
1.4505901e-05
-0.011003854
1.6872413e-05
1.0216482e-05
-0.011618391
4.9032522e-05
5.5032322e-06
-0.011953829
2.8884987e-05
1.43851e-06
-0.012099477
-6.467582e-06
-1.6950648e-06
-0.01214603
-4.1433132e-05
-3.921674e-06
-0.012139389
-6.0661634e-05
-5.3708214e-06
-0.012080435
-2.7158805e-05
-6.1915561e-06
-0.011925059
9.5190367e-05
-6.5321603e-06
-0.011584231
0.00027620798
-6.8356696e-06
-0.010969414
0.00038795305
-7.9296571e-06
-0.010098128
-1.1096166e-05
-0.0091779995
-0.00038637575
-1.301621e-05
-0.009159374
-0.00027480401
-1.2266215e-05
-0.010079675
-9.4240973e-05
-1.2187791e-05
-0.010950423
2.7740712e-05
-1.2081561e-05
-0.011564276
6.1195293e-05
-1.1503048e-05
-0.011904102
4.2188866e-05
-1.0263041e-05
-0.012058625
7.5417651e-06
-8.3584253e-06
-0.012116874
-2.754766e-05
-5.7258979e-06
-0.01212293
-4.7631674e-05
-2.2526375e-06
-0.012075944
-1.5784562e-05
2.120813e-06
-0.011930137
0.00010430138
7.1711704e-06
-0.011594932
0.00028277766
1.1960748e-05
-0.01098098
0.00039198593
1.514922e-05
-0.010106642
1.5893045e-05
-0.0091817956
-0.00039165969
1.7875997e-05
-0.0091643737
-0.00028312428
1.6160832e-05
-0.010088682
-0.00010540948
1.2456194e-05
-0.010962485
1.4135793e-05
7.2949705e-06
-0.011576134
4.5779509e-05
1.8280113e-06
-0.011911367
2.5765114e-05
-3.0124053e-06
-0.012057495
-9.0980151e-06
-6.9665489e-06
-0.012104981
-4.3451175e-05
-1.0076808e-05
-0.01209951
-6.2186135e-05
-1.2435903e-05
-0.012041893
-2.859184e-05
-1.4066579e-05
-0.011888065
9.3335289e-05
-1.4904067e-05
-0.011548993
0.00027372173
-1.4999899e-05
-0.010935872
0.00038520212
-1.4573935e-05
-0.010065686
-1.415507e-05
-0.0091457259
-0.00038424319
-1.5367401e-05
-0.0091356551
-0.00027271672
-1.6399846e-05
-0.010054949
-9.230542e-05
-1.7114677e-05
-0.010924442
2.9761001e-05
-1.7015036e-05
-0.011536857
6.3624624e-05
-1.5963334e-05
-0.011875252
4.5227797e-05
-1.397601e-05
-0.012028452
1.1199421e-05
-1.1147672e-05
-0.012085468
-2.3419874e-05
-7.4741952e-06
-0.012090362
-4.3339988e-05
-2.8844198e-06
-0.012042353
-1.1851201e-05
2.6241238e-06
-0.01189584
0.00010721577
8.7010949e-06
-0.011560477
0.00028418545
1.43215e-05
-0.010947052
0.00039197419
1.8372821e-05
-0.010073826
2.0500862e-05
-0.0091503382
-0.00039287547
2.3715754e-05
-0.0091380141
-0.00028596806
2.1412971e-05
-0.010060635
-0.00010980064
1.6991956e-05
-0.010933257
8.7916872e-06
1.0709317e-05
-0.011546475
4.0171035e-05
3.7655591e-06
-0.011881988
2.0411122e-05
-2.6381486e-06
-0.012028893
-1.3884113e-05
-8.0310791e-06
-0.012077421
-4.7503731e-05
-1.2362274e-05
-0.0120731
-6.5471332e-05
-1.5687392e-05
-0.012016677
-3.1229804e-05
-1.8008487e-05
-0.011864097
9.1103641e-05
-1.9222482e-05
-0.011526372
0.00027167705
-1.9286342e-05
-0.010914698
0.00038336329
-1.8335749e-05
-0.010045996
-1.6945158e-05
-0.0091274774
-0.00038250038
-1.8901947e-05
-0.0091201568
-0.0002705727
-2.0429392e-05
-0.010037864
-8.9753027e-05
-2.1611822e-05
-0.010905722
3.2943717e-05
-2.1824989e-05
-0.011516616
6.7667461e-05
-2.0510538e-05
-0.011853646
5.0246325e-05
-1.7886245e-05
-0.012005594
1.7163831e-05
-1.4041556e-05
-0.012061414
-1.6679418e-05
-8.9593117e-06
-0.012065159
-3.6169429e-05
-2.5810932e-06
-0.012016121
-4.8360812e-06
4.9872845e-06
-0.011868834
0.00011327078
1.3125682e-05
-0.011533174
0.00028853361
2.037042e-05
-0.010920166
0.00039437656
2.5487467e-05
-0.01004817
2.792037e-05
-0.0091264147
-0.00039652529
3.3203698e-05
-0.0091150621
-0.00029195678
3.0621207e-05
-0.010035957
-0.00011770827
2.4694767e-05
-0.010907292
-6.9174402e-08
1.5897295e-05
-0.011520061
3.1330853e-05
6.1715099e-06
-0.011855855
1.2273543e-05
-2.8541637e-06
-0.01200352
-2.0908103e-05
-1.0396501e-05
-0.012053081
-5.3331889e-05
-1.630465e-05
-0.012049927
-7.0081684e-05
-2.0697626e-05
-0.011994731
-3.4783095e-05
-2.3597036e-05
-0.011843441
8.8341725e-05
-2.4920892e-05
-0.011507143
0.00026946196
-2.4521982e-05
-0.010897072
0.00038164889
-2.2875961e-05
-0.010030089
-2.104766e-05
-0.0091131866
-0.00038087022
-2.3609496e-05
-0.0091063768
-0.00026842051
-2.5781511e-05
-0.010022475
-8.7003206e-05
-2.7811265e-05
-0.010888555
3.6573028e-05
-2.8517523e-05
-0.011497761
7.2505141e-05
-2.7312003e-05
-0.01183329
5.6533422e-05
-2.4301399e-05
-0.011983883
2.4954185e-05
-1.9476886e-05
-0.012038412
-7.4131755e-06
-1.2676044e-05
-0.012040925
-2.5825523e-05
-3.7598603e-06
-0.011990791
5.8215697e-06
7.1054375e-06
-0.011842707
0.00012307105
1.8962241e-05
-0.01150677
0.00029624184
2.9710471e-05
-0.010894275
0.00039932028
3.6915933e-05
-0.01002365
3.9996069e-05
-0.0091037076
-0.0004026589
4.8676132e-05
-0.0090918676
-0.00030121859
4.4537214e-05
-0.010010772
-0.00012909572
3.5402788e-05
-0.010880615
-1.205357e-05
2.2157027e-05
-0.011492849
2.0090958e-05
7.5814287e-06
-0.011829016
2.5602598e-06
-5.4527946e-06
-0.011977648
-2.8842606e-05
-1.582236e-05
-0.012028482
-5.9431824e-05
-2.3451611e-05
-0.012026722
-7.4588105e-05
-2.8626669e-05
-0.011972953
-3.8036683e-05
-3.1629639e-05
-0.011823125
8.5940731e-05
-3.2553612e-05
-0.011488403
0.00026759363
-3.1574719e-05
-0.010880074
0.00038023136
-2.9202434e-05
-0.010014907
-2.6452534e-05
-0.0090996314
-0.00037981026
-2.9053508e-05
-0.0090929312
-0.0002671258
-3.223698e-05
-0.01000738
-8.5390908e-05
-3.5301018e-05
-0.010871638
3.8841459e-05
-3.6838364e-05
-0.011479087
7.5888807e-05
-3.6384636e-05
-0.011812959
6.1479856e-05
-3.3576337e-05
-0.011961921
3.1826204e-05
-2.8234888e-05
-0.01201477
1.5794269e-06
-1.9945162e-05
-0.012015558
-1.4832188e-05
-8.1554203e-06
-0.011963748
1.8116914e-05
7.3248409e-06
-0.011814262
0.0001352274
2.5207049e-05
-0.011477589
0.00030644651
4.1935107e-05
-0.010865466
0.00040626312
5.3771137e-05
-0.0099964623
5.931192e-05
-0.0090787861
-0.00040964285
7.1663249e-05
-0.009063049
-0.00031124198
6.4060137e-05
-0.0099793166
-0.00014058625
4.8741271e-05
-0.010847549
-2.3011034e-05
2.7652718e-05
-0.011459941
1.1069663e-05
5.9589161e-06
-0.011797712
-4.0478536e-06
-1.2044068e-05
-0.011948652
-3.3172581e-05
-2.514717e-05
-0.012001938
-6.2004792e-05
-3.3874752e-05
-0.012002484
-7.5900985e-05
-3.9055754e-05
-0.011950793
-3.8620405e-05
-4.1403247e-05
-0.01180284
8.5611422e-05
-4.124876e-05
-0.011469887
0.00026720324
-3.9033717e-05
-0.010863347
0.00037974544
-3.5337754e-05
-0.010000004
-3.1663024e-05
-0.0090863612
-0.00038008883
-3.3896158e-05
-0.0090800306
-0.00026794903
-3.7900726e-05
-0.0099928863
-8.6818319e-05
-4.2219707e-05
-0.010855312
3.7037266e-05
-4.5327036e-05
-0.011460907
7.4136461e-05
-4.6202186e-05
-0.011792851
6.0331553e-05
-4.451033e-05
-0.011939617
3.1976884e-05
-3.9759758e-05
-0.01198983
3.6997525e-06
-3.105416e-05
-0.011987427
-1.0116215e-05
-1.712956e-05
-0.011931886
2.5388128e-05
3.1972413e-06
-0.011778452
0.00014390326
2.9020674e-05
-0.011438468
0.00031450138
5.5427249e-05
-0.01082495
0.00041196955
7.546855e-05
-0.0099571715
8.5753055e-05
-0.0090424399
-0.00041211708
0.00010016079
-0.0090138535
-0.00031470822
8.6201228e-05
-0.009927119
-0.00014344535
6.0659991e-05
-0.010795303
-2.3494479e-05
2.8610936e-05
-0.011411572
1.3492689e-05
-1.0763129e-06
-0.011755648
6.1449227e-07
-2.3066551e-05
-0.011913181
-2.7377657e-05
-3.7168964e-05
-0.011972082
-5.5953634e-05
-4.5319328e-05
-0.01197699
-7.0296248e-05
-4.9303242e-05
-0.011928604
-3.391773e-05
-5.0228747e-05
-0.0117832
8.9123725e-05
-4.8606925e-05
-0.011452342
0.00026944286
-4.4820243e-05
-0.01084771
0.00038088642
-3.9910998e-05
-0.0099861886
-3.5462085e-05
-0.0090741009
-0.00038212782
-3.6116045e-05
-0.009068871
-0.00027162415
-4.0998026e-05
-0.0099802303
-9.2456163e-05
-4.6378917e-05
-0.01084087
2.931717e-05
-5.0689112e-05
-0.011444559
6.4378177e-05
-5.2929584e-05
-0.011774323
4.8731407e-05
-5.2766438e-05
-0.011918269
1.8989424e-05
-4.9671948e-05
-0.011964546
-9.7805023e-06
-4.244844e-05
-0.011956494
-2.2725364e-05
-2.8938006e-05
-0.011892984
1.5053752e-05
-6.3480866e-06
-0.011729214
0.00013643449
2.6176067e-05
-0.011378227
0.00030927225
6.3375117e-05
-0.010756507
0.00040812496
9.475391e-05
-0.00988608
0.00011312631
-0.0089735085
-0.00039717977
0.00012139013
-0.0089190645
-0.00029503286
9.870921e-05
-0.0098331441
-0.00012026601
6.2646029e-05
-0.010709351
1.6387163e-06
2.2225285e-05
-0.01134045
3.8585885e-05
-1.1282165e-05
-0.011701458
2.3858518e-05
-3.3278549e-05
-0.011873293
-7.109002e-06
-4.5694591e-05
-0.011942256
-3.9083301e-05
-5.1938442e-05
-0.011953717
-5.6801748e-05
-5.431714e-05
-0.011909564
-2.358765e-05
-5.3994208e-05
-0.011766997
9.6560503e-05
-5.1432408e-05
-0.011438229
0.0002743443
-4.6863994e-05
-0.010835411
0.00038374551
-4.1141896e-05
-0.0099756175
-3.5701724e-05
-0.0090649544
-0.0003856519
-3.4409682e-05
-0.0090634794
-0.00027737366
-4.0789224e-05
-0.0099734368
-0.00010102044
-4.6825638e-05
-0.01083242
1.7366149e-05
-5.1363743e-05
-0.011434508
4.844631e-05
-5.3832186e-05
-0.011762517
2.8154094e-05
-5.4166067e-05
-0.011904042
-6.8858566e-06
-5.200009e-05
-0.011946522
-4.1381536e-05
-4.6307719e-05
-0.011932223
-5.9829869e-05
-3.4894014e-05
-0.011858368
-2.6073273e-05
-1.4266988e-05
-0.011678579
9.4314108e-05
1.8040723e-05
-0.011306479
0.0002703452
5.8346796e-05
-0.010663192
0.00037731021
9.5695134e-05
-0.0097772521
0.00012058874
-0.0088579966
-0.00035427806
0.00010837117
-0.0088219498
-0.00024183813
8.4158553e-05
-0.0097457501
-6.5045239e-05
4.990247e-05
-0.010639424
5.2591171e-05
1.3378432e-05
-0.011291173
8.1977757e-05
-1.5939987e-05
-0.011669921
5.9053495e-05
-3.4995999e-05
-0.011853849
2.0659274e-05
-4.5927302e-05
-0.011930032
-1.7591311e-05
-5.1731976e-05
-0.011945611
-4.0468151e-05
-5.4301681e-05
-0.011903842
-1.141997e-05
-5.4475932e-05
-0.011762741
0.00010539232
-5.2463957e-05
-0.01143506
0.00028051683
-4.8079508e-05
-0.010833442
0.00038780711
-4.146546e-05
-0.0099752343
-3.3083633e-05
-0.0090661925
-0.0003902253
-3.492204e-05
-0.0090745397
-0.00028371736
-4.6408837e-05
-0.0099822807
-0.00010936849
-5.4525727e-05
-0.010839864
6.4241624e-06
-5.9211807e-05
-0.011441492
3.3972393e-05
-6.0774142e-05
-0.011769476
9.060218e-06
-5.981022e-05
-0.01191097
-3.1698593e-05
-5.6439365e-05
-0.011953234
-7.2999264e-05
-5.0121983e-05
-0.011938451
-9.9041578e-05
-3.9376729e-05
-0.011863644
-7.2393067e-05
-2.1961608e-05
-0.011681861
4.4111909e-05
3.4297086e-06
-0.011305627
0.00022275153
3.4123833e-05
-0.010656033
0.00034017991
6.299004e-05
-0.0097639902
8.5036406e-05
-0.0088417306
-0.0003395295
5.298398e-05
-0.008907608
-0.00021904804
3.0466564e-05
-0.0098231182
-3.7368487e-05
5.4297826e-06
-0.010705839
8.0880727e-05
-2.0490088e-05
-0.011344486
0.00010785485
-4.2373672e-05
-0.011710985
8.1104904e-05
-5.8009268e-05
-0.011885876
3.8557871e-05
-6.8339359e-05
-0.011956494
-3.5757585e-06
-7.5063695e-05
-0.011968818
-2.9648082e-05
-7.9204951e-05
-0.011924994
-2.7591569e-06
-8.0758277e-05
-0.011782318
0.00011286946
-7.8800937e-05
-0.011453262
0.00028703507
-7.2205851e-05
-0.010850784
0.00039288348
-6.0670409e-05
-0.0099932111
-4.3455575e-05
-0.0090874623
-0.00039507478
-6.6912439e-05
-0.0090941653
-0.00029020327
-8.6998625e-05
-0.0099996199
-0.00011582973
-0.00010565622
-0.01085874
4.7365753e-07
-0.00011729318
-0.011463089
2.7591239e-05
-0.00012119962
-0.011793772
1.2346905e-06
-0.00011974101
-0.011938092
-4.1237211e-05
-0.00011522963
-0.011984039
-8.3643016e-05
-0.00010856171
-0.01197494
-0.00010924143
-9.9140117e-05
-0.011909494
-7.9688695e-05
-8.5290634e-05
-0.011742617
4.2239689e-05
-6.5412581e-05
-0.01138707
0.00022691071
-4.0125342e-05
-0.010760054
0.00034765112
-1.3516951e-05
-0.0098863466
8.3595141e-06
-0.0089763542
-0.00035546213
-2.8685283e-05
-0.0090056792
-0.00023741895
-6.0863517e-05
-0.0099132298
-5.1719761e-05
-9.3497677e-05
-0.010782713
7.3328875e-05
-0.00012242411
-0.011401792
0.00010583023
-0.00014228114
-0.01174847
8.2127826e-05
-0.00015453013
-0.011908226
4.069477e-05
-0.00016261738
-0.011968809
-1.3626474e-06
-0.0001687195
-0.01197474
-2.725533e-05
-0.00017309417
-0.011926709
7.0391209e-07
-0.00017372751
-0.011780998
0.00011788662
-0.00016617883
-0.011449046
0.00029182769
-0.00014659743
-0.010842562
0.00039443333
-0.00011834391
-0.0099804739
-8.608857e-05
-0.0090745824
-0.00038797373
-0.00011681359
-0.0089829364
-0.00029019578
-0.00012532132
-0.0098925628
-0.00011916254
-0.00016107213
-0.010756296
-2.1075601e-06
-0.00018849292
-0.011362094
2.7055364e-05
-0.00019949962
-0.01169305
2.6061872e-06
-0.00019957634
-0.011838998
-3.7990443e-05
-0.00019557958
-0.011888576
-7.7551045e-05
-0.00019042544
-0.011885307
-9.8863935e-05
-0.0001840648
-0.011828831
-6.3942813e-05
-0.00017375799
-0.011675279
6.1962985e-05
-0.00015363466
-0.011336613
0.00024487432
-0.00011996403
-0.010724521
0.0003567268
-8.1905151e-05
-0.0098573158
-7.4023606e-05
-0.0089471414
-0.00034965883
-3.0954768e-05
-0.0087535936
-0.00024782649
-4.1293617e-05
-0.0096556189
-7.3016092e-05
-7.4591661e-05
-0.010509042
5.0560648e-05
-0.00010697184
-0.011107336
8.7641857e-05
-0.00012383186
-0.011436139
6.9962263e-05
-0.00013057241
-0.011584194
3.396892e-05
-0.00013463017
-0.011637747
-3.230615e-06
-0.00013865042
-0.011639051
-2.4443474e-05
-0.000142576
-0.011588307
6.5291176e-06
-0.00014346387
-0.011443455
0.00012130681
-0.00013306284
-0.011117916
0.00028504477
-0.00010476904
-0.010522268
0.00037460293
-7.2677202e-05
-0.0096703544
-6.1581934e-05
-0.0087686288
-0.00035214517
-1.7483644e-05
-0.0083957885
-0.00027258146
3.9936493e-05
-0.0092506263
-0.00012216903
2.4857389e-05
-0.010057244
-1.3804048e-05
6.3094017e-06
-0.010625163
1.8649351e-05
2.8227707e-06
-0.010940403
2.4264492e-06
7.4736731e-06
-0.011084571
-2.9255883e-05
1.2243622e-05
-0.011137234
-5.9904348e-05
1.5114024e-05
-0.011137222
-7.2615782e-05
1.5999091e-05
-0.011084372
-3.4314282e-05
1.6628653e-05
-0.010939712
8.2141205e-05
2.4432469e-05
-0.010623798
0.00024231642
4.5574732e-05
-0.010055207
0.00033224988
6.1315569e-05
-0.0092480355
3.3931323e-06
-0.0083929101
-0.0002846894
0.00010642417
-0.0078903328
-0.00020567282
0.0001557282
-0.0086401021
-7.0655287e-05
0.0001563784
-0.0093568464
2.7501692e-05
0.00014989575
-0.0098772675
6.0708214e-05
0.00015343836
-0.010179463
5.0435095e-05
0.00015974346
-0.01032499
2.4654891e-05
0.00016237217
-0.010379981
-1.8961611e-06
0.00016054998
-0.010379272
-1.5390718e-05
0.00015435985
-0.010323006
1.2561537e-05
0.00014478456
-0.010176506
0.00010363715
0.00013862456
-0.0098736486
0.00023034394
0.00014356649
-0.0093529248
0.00030075647
0.00014252369
-0.0086362667
9.3510956e-05
-0.0078867733
-0.00018382926
-0.007372949
-0.00010127552
-0.0079612987
-4.2691805e-05
-0.008566823
2.8731099e-05
-0.0090355969
2.094008e-05
-0.0093295193
7.2045786e-06
-0.0094816955
-2.1099177e-05
-0.0095413637
-4.8548909e-05
-0.0095424033
-5.9420334e-05
-0.0094846813
-6.2624499e-05
-0.0093341218
1.4904846e-05
-0.0090414128
8.0460328e-05
-0.0085733239
0.00017026438
-0.007967953
-0.007379445
0.00014907529
0.0001180403
-0.00022921416
-0.00017031552
-0.0072470309
-0.006818079
4.1751845e-05
-7.2521516e-05
-0.0067027587
4.8891644e-05
-7.1981756e-05
-9.2230227e-05
-0.0066468711
2.8324664e-05
-4.3222125e-05
-4.0990149e-05
-0.0066220358
1.4599694e-05
-2.3959332e-05
-1.547561e-05
-0.0066097788
1.2447091e-05
-1.770029e-05
-7.003869e-06
-0.0066025433
7.0065121e-06
-1.4282794e-05
4.0774703e-08
-0.0066000868
6.7647572e-06
-1.2294651e-05
3.073477e-06
-0.0065996805
4.7075719e-06
-1.0438695e-05
5.3247897e-06
-0.0066005575
4.429601e-06
-9.390199e-06
5.8376171e-06
-0.0066016152
4.2598873e-06
-9.0387646e-06
5.8365593e-06
-0.0066025528
4.332685e-06
-9.0409076e-06
5.6458189e-06
-0.0066033079
4.3778168e-06
-9.1473654e-06
5.5246448e-06
-0.0066039543
4.4226782e-06
-9.2513215e-06
5.4750875e-06
-0.0066045544
4.4459122e-06
-9.3245069e-06
5.4786263e-06
-0.0066051529
4.457072e-06
-9.36378e-06
5.5052195e-06
-0.0066057728
4.4592086e-06
-9.3755508e-06
5.5362941e-06
-0.0066064246
4.4519337e-06
-9.3657445e-06
5.5655268e-06
-0.0066071182
4.4357209e-06
-9.3328367e-06
5.590756e-06
-0.0066078557
4.4039109e-06
-9.2720594e-06
5.6056453e-06
-0.0066086471
4.3576377e-06
-9.1788526e-06
5.6125743e-06
-0.0066095007
4.2925715e-06
-9.0488073e-06
5.6099224e-06
-0.0066104223
4.2045102e-06
-8.8753265e-06
5.5923622e-06
-0.0066114254
4.0927161e-06
-8.6519054e-06
5.5623119e-06
-0.0066125194
3.9498774e-06
-8.3695152e-06
5.5135862e-06
-0.0066137223
3.7728165e-06
-8.016543e-06
5.4466822e-06
-0.0066150531
3.5533406e-06
-7.5802657e-06
5.3576783e-06
-0.0066165337
3.2850116e-06
-7.0468921e-06
5.2424685e-06
-0.0066181845
2.9582571e-06
-6.40271e-06
5.0953195e-06
-0.0066200388
2.5660602e-06
-5.6298476e-06
4.9181176e-06
-0.0066221347
2.1023826e-06
-4.7139373e-06
4.7073798e-06
-0.0066244939
1.5524042e-06
-3.6428914e-06
4.4497465e-06
9.0005202e-07
-2.3902082e-06
4.144621e-06
0.0065680431
6.2178424e-06
-2.5256827e-06
0.0065652287
5.2318328e-06
-2.4173899e-06
0.0065631386
4.399903e-06
-2.3097827e-06
0.0065616417
3.7042202e-06
-2.207375e-06
0.0065606303
3.1247881e-06
-2.1133974e-06
0.0065600064
2.6482413e-06
-2.0242796e-06
0.0065596913
2.2514181e-06
-1.9363539e-06
0.0065596152
1.9286579e-06
-1.8525599e-06
0.0065597153
1.6880519e-06
-1.7881271e-06
0.006559957
1.4809508e-06
-1.722634e-06
0.0065603038
1.3053029e-06
-1.6521471e-06
0.0065607263
1.1607952e-06
-1.5832686e-06
0.0065612048
1.0472363e-06
-1.5258008e-06
0.0065617202
9.5469925e-07
-1.4701144e-06
0.0065622578
8.7725742e-07
-1.4148572e-06
0.0065628118
8.1624546e-07
-1.3701643e-06
0.006563373
7.690591e-07
-1.3302707e-06
0.0065639238
7.3208294e-07
-1.2829339e-06
0.0065644585
7.0318978e-07
-1.2378231e-06
0.0065649894
6.7779307e-07
-1.2087633e-06
0.006565518
6.5564524e-07
-1.1841915e-06
0.0065660293
6.3966825e-07
-1.1509704e-06
0.0065665033
6.3149407e-07
-1.105486e-06
0.0065669768
5.9275624e-07
-1.0663203e-06
0.0065674533
5.2607118e-07
-1.0024843e-06
0.0065685781
6.0613381e-08
-1.1854468e-06
0.0065707753
-7.2064122e-07
-1.4765982e-06
0.0065781414
-3.7959396e-06
-3.5700926e-06
0.0065868967
-4.921985e-06
-3.8333959e-06
0.0066080381
-1.1759922e-05
-9.3814168e-06
0.0066342485
-1.4543214e-05
-1.1667255e-05
0.0066906248
-3.0666034e-05
-2.5710209e-05
0.0067913648
-5.3959856e-05
-4.6780124e-05
-4.7439227e-05
-3.9642367e-05
-0.0069954145
-8.1545361e-05
-0.00011712418
-0.0068967856
-8.187695e-05
-7.0711805e-05
-0.0068499096
-4.6707436e-05
-3.0834606e-05
-0.0068293138
-2.2628815e-05
-1.2510148e-05
-0.0068195496
-1.418818e-05
-7.3359386e-06
-0.0068134117
-8.9937165e-06
-2.0662047e-06
-0.0068112577
-5.2683244e-06
-6.8154363e-07
-0.0068103855
-1.906199e-06
3.1329129e-07
-0.0068105019
1.162702e-07
6.0782181e-08
-0.0068106552
1.006956e-06
-3.2763377e-07
-0.0068106295
1.2935486e-06
-7.2643409e-07
-0.006810374
1.3532608e-06
-9.7731949e-07
-0.0068099683
1.3585502e-06
-1.1245672e-06
-0.0068094769
1.3687561e-06
-1.2045056e-06
-0.0068089453
1.3993001e-06
-1.2531336e-06
-0.0068083902
1.4434275e-06
-1.2952546e-06
-0.0068078165
1.4984938e-06
-1.3401143e-06
-0.0068072374
1.573511e-06
-1.3836015e-06
-0.0068066652
1.6710497e-06
-1.4269967e-06
-0.0068061047
1.7927276e-06
-1.4759857e-06
-0.0068055624
1.9446563e-06