/*--------------------------------*- C++ -*----------------------------------*\
| =========                 |                                                 |
| \\      /  F ield         | OpenFOAM: The Open Source CFD Toolbox           |
|  \\    /   O peration     | Version:  v2012                                 |
|   \\  /    A nd           | Website:  www.openfoam.com                      |
|    \\/     M anipulation  |                                                 |
\*---------------------------------------------------------------------------*/
FoamFile
{
    version     2.0;
    format      ascii;
    class       volVectorField;
    location    "174";
    object      U;
}
// * * * * * * * * * * * * * * * * * * * * * * * * * * * * * * * * * * * * * //

dimensions      [0 1 -1 0 0 0 0];


internalField   nonuniform List<vector> 
19664
(
(5.0168956 -0.0033201983 -0.0013906104)
(5.0240425 -0.0029287652 -0.0012789401)
(5.0299134 -0.0026175663 -0.0011885569)
(5.0347663 -0.0023669383 -0.0011232503)
(5.0388186 -0.002162681 -0.0010774272)
(5.0422318 -0.0019951645 -0.0010447932)
(5.045128 -0.0018564147 -0.00102095)
(5.0476041 -0.0017404768 -0.0010031439)
(5.0497364 -0.0016428187 -0.000989478)
(5.0515853 -0.0015599256 -0.00097858556)
(5.0531987 -0.0014889773 -0.00096960821)
(5.0546155 -0.0014277448 -0.00096193966)
(5.0558664 -0.0013745031 -0.00095510978)
(5.0569773 -0.0013279289 -0.00094879493)
(5.0579692 -0.0012867499 -0.0009428557)
(5.0588592 -0.0012500138 -0.00093720424)
(5.0596601 -0.0012171976 -0.00093154402)
(5.0603851 -0.0011876903 -0.00092571773)
(5.0610455 -0.0011603367 -0.00092010729)
(5.0616463 -0.0011350555 -0.00091482101)
(5.0621922 -0.0011137321 -0.00090900333)
(5.0626975 -0.0010958979 -0.00090243861)
(5.0631711 -0.0010785826 -0.00089598415)
(5.0636099 -0.0010614542 -0.00089027571)
(5.0640157 -0.001044754 -0.00088482681)
(5.0643931 -0.0010277525 -0.00087946521)
(5.0647421 -0.0010104737 -0.00087390471)
(5.0650678 -0.00099380946 -0.00086724018)
(5.0653808 -0.0009809091 -0.00086187246)
(5.0656729 -0.00096464324 -0.00085390821)
(5.065957 -0.00095806344 -0.00085393175)
(5.0662052 -0.00094326224 -0.00084635548)
(5.0664633 -0.00094732273 -0.0008525782)
(5.066647 -0.00094963972 -0.00085225555)
(5.0669501 -0.00093802776 -0.00083413523)
(5.0665906 -0.00093568438 -0.0025713607)
(5.0655511 -0.00084558627 -0.0043245999)
(5.0638709 -0.00070178272 -0.0059304385)
(5.0615263 -0.0005492687 -0.0073024199)
(5.058576 -0.0004184874 -0.0083822227)
(5.0550231 -0.00032394709 -0.0092241952)
(5.0509996 -0.00026956707 -0.0099017901)
(5.0465404 -0.00025187255 -0.010518952)
(5.0417104 -0.00026648047 -0.011156015)
(5.0365276 -0.0003140619 -0.011899207)
(5.0310382 -0.00039703083 -0.012833631)
(5.0252899 -0.00052571132 -0.014059745)
(5.0193263 -0.00071186946 -0.015714993)
(5.0132039 -0.00096745374 -0.017963621)
(5.0069971 -0.0013047603 -0.02100757)
(5.0007154 -0.0017285953 -0.025065219)
(4.9941962 -0.0022348291 -0.0303807)
(4.9870328 -0.002793232 -0.037136602)
(4.9784346 -0.0033531112 -0.045418242)
(4.9670997 -0.00382621 -0.055115386)
(4.951105 -0.0040771695 -0.065814712)
(4.9279581 -0.0038639022 -0.076629589)
(4.8955127 -0.0027623963 -0.085748906)
(4.8568768 -0.00031341795 -0.090006243)
(4.8305327 0.0028781996 -0.085175365)
(4.8355821 0.0050117662 -0.0721867)
(4.8654992 0.0054458181 -0.055719041)
(4.900396 0.0047117117 -0.040918431)
(4.9270478 0.0036986122 -0.02948411)
(4.9444817 0.0028361765 -0.020979474)
(4.9550552 0.0022282615 -0.014729912)
(4.9612595 0.0017884114 -0.010006317)
(4.9647348 0.0015141671 -0.0063970196)
(4.9665582 0.0013148705 -0.0035203433)
(4.9673842 0.0011847335 -0.0011006273)
(4.9673028 0.0036460107 -0.0010876022)
(4.9672222 0.0061206207 -0.0010026732)
(4.9671008 0.0084757301 -0.00082905174)
(4.966923 0.01048057 -0.00059699359)
(4.966645 0.0118696 -0.0003239654)
(4.9662444 0.012543416 -4.7444322e-05)
(4.9657218 0.012487456 0.00020384441)
(4.9650991 0.011796744 0.00041348787)
(4.9644277 0.01060973 0.00057393996)
(4.9637596 0.0090703442 0.0006873604)
(4.9631639 0.0073458919 0.00076234296)
(4.9626726 0.0055569844 0.0008006408)
(4.9623175 0.0038343031 0.00082183136)
(4.9620805 0.0022240825 0.00081844994)
(4.961953 0.0007205891 0.00080192521)
(4.9621409 0.00075267074 0.0025165708)
(4.9625183 0.00078718671 0.0043740915)
(4.9631139 0.00081275199 0.0064449396)
(4.9639759 0.00084226127 0.0087295643)
(4.9651023 0.00085268757 0.011152345)
(4.9665021 0.00084337735 0.013652798)
(4.9681431 0.00079806596 0.016087856)
(4.970021 0.00071026412 0.018340005)
(4.9721258 0.00057712917 0.020271155)
(4.9744618 0.00040364367 0.021755514)
(4.9770276 0.00020228265 0.022694409)
(4.9798184 -7.5226196e-06 0.023033012)
(4.9828207 -0.00020449002 0.022777049)
(4.9860119 -0.00037014792 0.021987604)
(4.989365 -0.00049175166 0.020776647)
(4.9928495 -0.00056501582 0.019274828)
(4.996434 -0.0005928187 0.017618781)
(5.0000909 -0.00058282549 0.015925213)
(5.0037923 -0.00054593473 0.01428562)
(5.0075104 -0.000492882 0.012757135)
(5.0112171 -0.00043321037 0.0113714)
(5.0148861 -0.0003738469 0.010134446)
(5.0184887 -0.00031934004 0.0090388106)
(5.0219952 -0.00027217783 0.0080663525)
(5.0253728 -0.0002335979 0.007194965)
(5.0285882 -0.00020385657 0.0064006007)
(5.0316059 -0.00018270969 0.0056594174)
(5.0343896 -0.00016962797 0.0049491199)
(5.0368844 -0.00016389909 0.0042542085)
(5.0390522 -0.00016415096 0.0035590292)
(5.0408143 -0.00017014365 0.002869958)
(5.0421688 -0.00017636641 0.0021854217)
(5.0430922 -0.00018647226 0.0015260207)
(5.0436491 -0.00019053112 0.00089992937)
(5.0438837 -0.0001941155 0.00029349283)
(5.0445429 -0.00058735868 0.00029773111)
(5.045905 -0.0010014367 0.00030094524)
(5.0481026 -0.00144938 0.00029629074)
(5.0511681 -0.001937709 0.00029306291)
(5.0549663 -0.0024601077 0.0002857832)
(5.0592699 -0.0030141276 0.00027519882)
(5.0636983 -0.0035769406 0.00025749299)
(5.0679046 -0.0041236156 0.00022701245)
(5.0714817 -0.004605537 0.0001764739)
(5.0740379 -0.00494744 9.3500298e-05)
(5.0751321 -0.005034897 -3.7326453e-05)
(5.0745499 -0.0047551871 -0.00020980641)
(5.0724032 -0.0039714123 -0.00044228382)
(5.0693978 -0.0026753245 -0.00068137333)
(5.0688943 -0.0026325356 -0.0020566082)
(5.0717752 -0.0038906945 -0.0013131502)
(5.0738754 -0.0046414974 -0.00061255333)
(5.0744597 -0.0049076475 -7.9122376e-05)
(5.0733887 -0.0048122197 0.00029575411)
(5.070895 -0.0044812042 0.00053965986)
(5.0673723 -0.0040123521 0.00069077118)
(5.0632293 -0.0034824575 0.00078158713)
(5.0588526 -0.0029353481 0.00083468341)
(5.0546093 -0.0023984268 0.0008649186)
(5.0508445 -0.0018891976 0.00088205925)
(5.0478141 -0.0014149796 0.00089152266)
(5.0456369 -0.00097777968 0.00089935228)
(5.0442865 -0.00057237154 0.00090229134)
(5.0437032 -0.00055112431 0.0015290211)
(5.0450213 -0.00094065336 0.0015211612)
(5.0471585 -0.0013613079 0.0015073046)
(5.0501458 -0.0018159317 0.00148827)
(5.0538612 -0.0023011024 0.0014572418)
(5.0580412 -0.0028081145 0.0014033038)
(5.062346 -0.0033200732 0.0013104397)
(5.0664088 -0.0038107001 0.0011545969)
(5.0698432 -0.0042367875 0.00089758203)
(5.0722456 -0.0045263308 0.00048479059)
(5.0732272 -0.0045872734 -0.0001437911)
(5.0725771 -0.0043031515 -0.0010505912)
(5.0704776 -0.0035713036 -0.0022168843)
(5.0677026 -0.0023863547 -0.0034526286)
(5.0658635 -0.0020146522 -0.0047693239)
(5.0685221 -0.0030835155 -0.0031138844)
(5.0706271 -0.0037894859 -0.0015189891)
(5.0713685 -0.0041068603 -0.00025328653)
(5.0705143 -0.0041065349 0.00063442886)
(5.0682407 -0.0038870065 0.0012248275)
(5.0649277 -0.0035303715 0.0015988479)
(5.0609769 -0.0031023521 0.0018312625)
(5.0567712 -0.0026431147 0.0019740048)
(5.0526783 -0.002179223 0.0020608845)
(5.0490347 -0.0017271647 0.0021132062)
(5.0461085 -0.0012983265 0.002146741)
(5.0440225 -0.00089795166 0.0021699941)
(5.0427457 -0.00052537166 0.0021846872)
(5.0413704 -0.00050499918 0.0028592403)
(5.0426035 -0.00086019086 0.002834448)
(5.0446275 -0.0012393766 0.0027957543)
(5.0474746 -0.0016399718 0.0027392921)
(5.0510197 -0.0020535392 0.0026538484)
(5.054997 -0.0024670642 0.0025212108)
(5.0590695 -0.0028626361 0.0023141854)
(5.0628747 -0.0032152722 0.0019914822)
(5.0660313 -0.003487106 0.0014884646)
(5.0681461 -0.0036227043 0.00071611619)
(5.0688583 -0.0035516229 -0.000425213)
(5.0680225 -0.0032001733 -0.0020151437)
(5.0659282 -0.0025341798 -0.0039685164)
(5.063391 -0.0016100799 -0.0059433283)
(5.060319 -0.0012528209 -0.0069227809)
(5.0627341 -0.0020325385 -0.0047428941)
(5.0648013 -0.002650216 -0.0025192287)
(5.0657192 -0.0030275932 -0.00065768196)
(5.0651589 -0.003167962 0.00071840986)
(5.0632263 -0.0031167673 0.0016729028)
(5.060256 -0.0029297767 0.0023141596)
(5.0566297 -0.0026532707 0.0027416107)
(5.0527199 -0.0023202313 0.003027294)
(5.0488869 -0.0019549396 0.0032207134)
(5.0454631 -0.0015759384 0.0033515036)
(5.0427129 -0.0011989648 0.003440762)
(5.0407611 -0.00083513456 0.0035011829)
(5.0395782 -0.00049052498 0.0035398665)
(5.0373943 -0.00049043941 0.0042206905)
(5.0385277 -0.00083357163 0.0041630435)
(5.0403986 -0.0011924437 0.0040736997)
(5.0430376 -0.0015574461 0.0039422301)
(5.0463201 -0.0019138017 0.0037533845)
(5.0499863 -0.0022430816 0.003485411)
(5.0537074 -0.0025253997 0.0031058515)
(5.0571313 -0.0027379973 0.0025629615)
(5.0598934 -0.0028515901 0.0017774679)
(5.061628 -0.0028293115 0.000645697)
(5.0620317 -0.0026297997 -0.00094027897)
(5.0610341 -0.0022301942 -0.0030234464)
(5.0589976 -0.0016528665 -0.0054364479)
(5.0566887 -0.00098784841 -0.0077285727)
(5.0525856 -0.00083223832 -0.008412814)
(5.0547938 -0.0014266164 -0.0060741197)
(5.0568066 -0.0019835713 -0.0035321818)
(5.0578871 -0.0024084525 -0.0012686972)
(5.0576476 -0.0026601303 0.00050767904)
(5.056122 -0.0027430583 0.0018125758)
(5.0535832 -0.0026860552 0.0027479552)
(5.0503803 -0.0025191289 0.0034185255)
(5.0468646 -0.0022682687 0.0039040224)
(5.0433829 -0.0019556584 0.0042601763)
(5.0402557 -0.0016034443 0.0045177124)
(5.037739 -0.0012332326 0.0047002594)
(5.0359547 -0.00086397017 0.0048238657)
(5.0348749 -0.00050839924 0.0049033459)
(5.0320689 -0.0005487409 0.0056004844)
(5.0330939 -0.00093308384 0.0054971524)
(5.034787 -0.0013315431 0.0053343248)
(5.0371744 -0.0017280953 0.0050939252)
(5.0401354 -0.002099253 0.0047569499)
(5.0434216 -0.0024188748 0.00430111)
(5.0467188 -0.0026617924 0.003694956)
(5.0496906 -0.0028041025 0.0028857291)
(5.0519964 -0.0028214671 0.0017918533)
(5.0533057 -0.0026880675 0.0003124377)
(5.0533733 -0.0023846887 -0.0016437141)
(5.0522016 -0.0019220206 -0.0040633916)
(5.0502005 -0.0013544265 -0.0066980933)
(5.0480674 -0.0007794454 -0.0090539467)
(5.0432004 -0.00082358645 -0.0097172951)
(5.045279 -0.001432936 -0.0073583897)
(5.0472903 -0.0020471071 -0.0046456795)
(5.0485654 -0.0025692543 -0.0020786613)
(5.0486759 -0.0029301127 6.0753527e-05)
(5.0475872 -0.0031071429 0.001726706)
(5.0455192 -0.0031136641 0.0029939148)
(5.0427857 -0.0029732007 0.0039596277)
(5.0397139 -0.0027127586 0.0047004676)
(5.0366321 -0.0023585079 0.0052694979)
(5.0338441 -0.0019422926 0.005694201)
(5.0315915 -0.0014949923 0.0059984757)
(5.0299927 -0.0010459218 0.0062029338)
(5.0290251 -0.00061399649 0.0063304438)
(5.0257827 -0.00070648111 0.0071153308)
(5.0266917 -0.0012064446 0.0069648165)
(5.0281931 -0.001730019 0.006717454)
(5.0303068 -0.0022552866 0.0063451012)
(5.0329169 -0.0027471461 0.0058232746)
(5.03579 -0.0031665277 0.0051287299)
(5.0386312 -0.0034755448 0.0042333211)
(5.0411243 -0.0036389039 0.0030901147)
(5.0429522 -0.0036259307 0.0016243927)
(5.0438187 -0.0034095627 -0.00025037098)
(5.043525 -0.0029806478 -0.0025911983)
(5.0421353 -0.002371874 -0.0053175496)
(5.0400799 -0.0016645849 -0.0081153797)
(5.0380129 -0.00096374714 -0.010482317)
(5.0325537 -0.0012123243 -0.011427044)
(5.0346579 -0.0020751182 -0.0090291931)
(5.036782 -0.0029273792 -0.0061223625)
(5.0383054 -0.0036562832 -0.0032065533)
(5.0387856 -0.0041648032 -0.00062669062)
(5.0381419 -0.0044122303 0.0014963803)
(5.0365534 -0.0044092694 0.0031964578)
(5.034302 -0.0041896925 0.0045482931)
(5.0316925 -0.0037972895 0.0056181847)
(5.029031 -0.0032749036 0.0064528627)
(5.0266016 -0.0026738135 0.0070782884)
(5.0246299 -0.0020400038 0.0075207379)
(5.0232274 -0.0014167885 0.007809579)
(5.0223779 -0.00082690276 0.0079805001)
(5.0188439 -0.00097486347 0.0089515507)
(5.0196334 -0.0016764795 0.0087653905)
(5.0209351 -0.0024267373 0.0084393504)
(5.0227633 -0.0032012796 0.0079284333)
(5.0250097 -0.0039518797 0.0071946639)
(5.0274584 -0.0046199928 0.0062076239)
(5.0298358 -0.0051432346 0.0049375617)
(5.0318474 -0.0054591599 0.0033416522)
(5.0331985 -0.0055108203 0.0013579622)
(5.0336201 -0.0052478868 -0.001072396)
(5.0329459 -0.0046494673 -0.0039526209)
(5.0312694 -0.0037616957 -0.0071178057)
(5.0290275 -0.0026983707 -0.010185961)
(5.0268558 -0.0015948852 -0.012647957)
(5.0209669 -0.0021454173 -0.014267987)
(5.0232522 -0.0035924262 -0.011678371)
(5.0256351 -0.0049429018 -0.0083676239)
(5.0274838 -0.006028884 -0.0048596713)
(5.028356 -0.0067166226 -0.0015834425)
(5.0281553 -0.0069642575 0.0012373796)
(5.0270388 -0.0068169279 0.0035675123)
(5.0252661 -0.006346048 0.0054519081)
(5.0231206 -0.0056387554 0.0069450298)
(5.0208864 -0.0047725782 0.0080937755)
(5.0188248 -0.0038317373 0.0089340203)
(5.0171425 -0.0028819784 0.0095057627)
(5.0159424 -0.0019799777 0.0098598719)
(5.0152137 -0.0011462416 0.010052607)
(5.0115163 -0.0013338311 0.011305147)
(5.0121834 -0.0023147834 0.011118608)
(5.0132802 -0.0033911519 0.01075229)
(5.0148146 -0.0045456229 0.01013469)
(5.016688 -0.005721423 0.0091981477)
(5.0187047 -0.006838322 0.0078863092)
(5.0206154 -0.0077981895 0.006148182)
(5.0221486 -0.0084912532 0.0039297286)
(5.0230314 -0.0088020405 0.0011752498)
(5.0230118 -0.0086138928 -0.002142223)
(5.021938 -0.0078499333 -0.0059471794)
(5.0199058 -0.0065305263 -0.0099409662)
(5.0173566 -0.0048105663 -0.013621581)
(5.0149428 -0.0029036104 -0.016433143)
(5.0088144 -0.0038949373 -0.019326273)
(5.0113806 -0.006397775 -0.01615368)
(5.0140885 -0.0085718296 -0.011910915)
(5.0163032 -0.010143199 -0.0072276643)
(5.0175804 -0.010946971 -0.0027138164)
(5.0178244 -0.011004352 0.0012367529)
(5.0171818 -0.010442584 0.0045037043)
(5.0158967 -0.0094411796 0.0070999898)
(5.0142293 -0.0081634023 0.0090923181)
(5.0124377 -0.0067414345 0.010555313)
(5.0107581 -0.0052982929 0.01156504)
(5.0093758 -0.0039168983 0.012201373)
(5.0083846 -0.0026563185 0.012557291)
(5.0077809 -0.001522733 0.012718643)
(5.0040329 -0.0016924478 0.014291477)
(5.0045712 -0.0029673603 0.014177996)
(5.0054529 -0.004407195 0.013865606)
(5.006677 -0.0060161515 0.013247521)
(5.0081522 -0.0077458508 0.012204481)
(5.0097034 -0.009506788 0.010620054)
(5.0111081 -0.011167795 0.0083806055)
(5.0121228 -0.012557523 0.0053759544)
(5.0125009 -0.013469356 0.0015094398)
(5.0120135 -0.013648998 -0.003236817)
(5.0105204 -0.012872882 -0.0086888098)
(5.0081233 -0.011057081 -0.014333299)
(5.0052619 -0.0083649919 -0.019399834)
(5.0025996 -0.0051433292 -0.023136122)
(4.9960988 -0.0066173234 -0.028050044)
(4.9988456 -0.010659849 -0.023475094)
(5.0018421 -0.013892306 -0.017226263)
(5.0044378 -0.015885486 -0.010269038)
(5.0061942 -0.016521542 -0.0036088441)
(5.0069846 -0.015978772 0.0020998027)
(5.0069281 -0.014616562 0.0066372887)
(5.0062329 -0.012763342 0.010055742)
(5.0051287 -0.010690756 0.012506795)
(5.0038452 -0.0085839766 0.014156959)
(5.0025918 -0.0065883486 0.015176672)
(5.0015364 -0.0047788319 0.015723628)
(5.0007697 -0.0031950655 0.015955021)
(5.0003003 -0.001812553 0.015991946)
(4.9966104 -0.0018502615 0.017765034)
(4.9970069 -0.0032781406 0.017831855)
(4.9976508 -0.0049407665 0.017726901)
(4.9985234 -0.0068782446 0.017306365)
(4.9995298 -0.0090771031 0.016384127)
(5.0005027 -0.011476485 0.014748101)
(5.0012412 -0.013949918 0.012159608)
(5.0015271 -0.016290273 0.0083646738)
(5.001146 -0.018194203 0.0031207758)
(4.999919 -0.019231584 -0.0036964393)
(4.9977733 -0.018896737 -0.011862085)
(4.9948822 -0.016843306 -0.020539667)
(4.9917168 -0.013123836 -0.028422881)
(4.9889139 -0.0082303006 -0.034208214)
(4.9802737 -0.0098227042 -0.04163917)
(4.9831773 -0.015487535 -0.034186321)
(4.9866562 -0.019541252 -0.024142735)
(4.990068 -0.021443616 -0.013285308)
(4.9928805 -0.021288978 -0.0033411646)
(4.9948018 -0.01963434 0.0046794444)
(4.9958265 -0.01715217 0.010594167)
(4.9960986 -0.014364154 0.014667163)
(4.9958241 -0.011590518 0.017278796)
(4.9952205 -0.0090199004 0.018798135)
(4.9944952 -0.0067417837 0.019538767)
(4.9938236 -0.004791646 0.019768387)
(4.9933118 -0.0031542071 0.01970836)
(4.9929914 -0.0017702034 0.01951435)
(4.9894708 -0.0015468043 0.021117224)
(4.9897125 -0.0027748701 0.0214582)
(4.9900866 -0.004253584 0.021710388)
(4.9905409 -0.0060531413 0.021713603)
(4.9909477 -0.0082188442 0.021229148)
(4.991109 -0.010761201 0.01994504)
(4.9907891 -0.013637455 0.017463324)
(4.9897424 -0.016710292 0.013284099)
(4.9877461 -0.019700762 0.0068386181)
(4.9846832 -0.022043564 -0.0023697262)
(4.9806877 -0.022896377 -0.014295584)
(4.9762699 -0.021417801 -0.027756575)
(4.9721372 -0.017314688 -0.040552964)
(4.9689487 -0.011127113 -0.050190349)
(4.9531733 -0.011743549 -0.059414429)
(4.9570885 -0.017973977 -0.047050857)
(4.9625937 -0.02169182 -0.030990034)
(4.9689059 -0.02240019 -0.014586438)
(4.974948 -0.020688686 -0.00064698197)
(4.9798376 -0.017756292 0.0095509327)
(4.9832639 -0.014509538 0.01625587)
(4.9853535 -0.011466124 0.020305554)
(4.9864118 -0.0088029134 0.022495142)
(4.9867638 -0.0065708425 0.023449428)
(4.9867051 -0.0047476386 0.023623484)
(4.9864779 -0.0032853875 0.023360809)
(4.9862437 -0.0021191249 0.022911319)
(4.9860819 -0.0011712609 0.022424448)
(4.9828574 -0.00065685076 0.02329608)
(4.9829449 -0.0012098779 0.023904281)
(4.9830451 -0.0019206023 0.024530866)
(4.9830496 -0.0028564479 0.025030621)
(4.9827531 -0.0040886783 0.025167098)
(4.9818472 -0.0056917119 0.024592389)
(4.9799364 -0.007735937 0.022817144)
(4.9765468 -0.010265301 0.019135747)
(4.9711772 -0.013244952 0.012545002)
(4.9635662 -0.016342916 0.0017958678)
(4.9542162 -0.018684135 -0.013850465)
(4.9445961 -0.019015658 -0.033263941)
(4.936421 -0.016393737 -0.052943741)
(4.9307978 -0.010974008 -0.068464893)
(4.9003217 -0.0076817518 -0.075680341)
(4.9094856 -0.010996095 -0.056899959)
(4.9224456 -0.01193081 -0.033863018)
(4.9372761 -0.010735497 -0.012148617)
(4.9512938 -0.0084262681 0.0044756643)
(4.9623866 -0.0060322645 0.015193327)
(4.9700406 -0.0040718693 0.021323411)
(4.9748377 -0.002634902 0.024493047)
(4.9776031 -0.0016299797 0.025844768)
(4.9790321 -0.00095357596 0.026090549)
(4.979648 -0.00052191436 0.02571598)
(4.9798381 -0.00026080043 0.025042485)
(4.9798522 -0.00011618602 0.024296797)
(4.9798268 -4.2119435e-05 0.023604557)
(4.9770159 0.00061342697 0.023284429)
(4.9769977 0.0010540295 0.024001298)
(4.9769026 0.0015238187 0.024789908)
(4.9765737 0.0020107974 0.025526939)
(4.975724 0.0024886734 0.026009445)
(4.973903 0.002915491 0.02593446)
(4.9704658 0.0032322985 0.024859792)
(4.9645053 0.0033605645 0.022105429)
(4.9548149 0.0031716774 0.016541167)
(4.9403214 0.0025374546 0.0063686986)
(4.9212396 0.0014458436 -0.010161855)
(4.8999757 0.00021322051 -0.032762122)
(4.880261 -0.00062399298 -0.057651106)
(4.8653274 -0.00075427255 -0.078578152)
(4.842007 0.0080482759 -0.074315045)
(4.8614119 0.012061219 -0.054271428)
(4.8861886 0.014378259 -0.030545263)
(4.9118083 0.014919299 -0.0091884983)
(4.933873 0.01408457 0.006269878)
(4.9500994 0.012506319 0.015756568)
(4.9607386 0.010713735 0.020994513)
(4.9672167 0.0089544524 0.023640172)
(4.9709412 0.0073101514 0.024723673)
(4.9729318 0.0058040521 0.024843597)
(4.9738817 0.0044466079 0.024427022)
(4.9742705 0.0032400493 0.023747273)
(4.9744018 0.0021792552 0.02300853)
(4.9744403 0.001244136 0.022324133)
(4.9721048 0.0017879515 0.020785627)
(4.9720702 0.003147037 0.021384789)
(4.9719485 0.0047075995 0.022004505)
(4.9715834 0.0065121267 0.022521892)
(4.9706812 0.0085825794 0.022738029)
(4.9687863 0.010936807 0.022374782)
(4.9652391 0.013586284 0.021041753)
(4.9591006 0.016528691 0.018186798)
(4.9490823 0.019693457 0.012967285)
(4.9338539 0.022741696 0.0041246929)
(4.9130098 0.024825208 -0.0095515499)
(4.8885121 0.024609799 -0.027818838)
(4.8646746 0.021032543 -0.047537577)
(4.8461147 0.014114692 -0.063726962)
(4.8727478 0.015599954 -0.050189562)
(4.8862633 0.02354019 -0.038946689)
(4.9040721 0.028025288 -0.024509276)
(4.9227475 0.028683029 -0.010306394)
(4.9389586 0.026720865 0.0011812014)
(4.9510785 0.023516214 0.0092729579)
(4.9592671 0.01998295 0.014484837)
(4.9643816 0.016566414 0.017605713)
(4.9673545 0.013411138 0.019276468)
(4.9689311 0.010557572 0.019953645)
(4.969656 0.0080243253 0.020012948)
(4.969928 0.0058033433 0.019710625)
(4.97 0.0038801557 0.019258216)
(4.9700109 0.0022031748 0.018774283)
(4.968152 0.0024756124 0.016438473)
(4.9681793 0.0043521906 0.016794454)
(4.9681803 0.0064911121 0.017077284)
(4.9680478 0.0089323668 0.017157825)
(4.9675766 0.01167037 0.01684431)
(4.9664516 0.014672187 0.0158927)
(4.9642572 0.017869517 0.013990346)
(4.960482 0.021134872 0.010770951)
(4.9545526 0.024234184 0.0058223634)
(4.9460683 0.026660998 -0.0012415958)
(4.9351996 0.027570521 -0.010417072)
(4.9231977 0.025948352 -0.020815292)
(4.912235 0.021176595 -0.030616345)
(4.9043029 0.013726422 -0.037718255)
(4.9289374 0.010943726 -0.027706282)
(4.9331245 0.017298509 -0.023372567)
(4.9392045 0.021919927 -0.016953918)
(4.9461851 0.024232874 -0.0096065547)
(4.952799 0.02438243 -0.0026048294)
(4.9581649 0.022966426 0.0032113515)
(4.9620172 0.020623422 0.0075898999)
(4.964481 0.017841036 0.010640198)
(4.9658676 0.014913507 0.012592893)
(4.9665128 0.012019895 0.013690889)
(4.9667054 0.009291647 0.014188961)
(4.9666854 0.006797001 0.014283152)
(4.9666016 0.0045788624 0.014154662)
(4.9665322 0.0026123012 0.013916315)
(4.9651583 0.0026395106 0.011352871)
(4.9652699 0.0046099327 0.011494172)
(4.96543 0.0068077324 0.011511191)
(4.9655931 0.0092335461 0.011301863)
(4.9656532 0.011819225 0.010723333)
(4.9654413 0.014454531 0.009614865)
(4.9647558 0.016980901 0.0078003815)
(4.9633897 0.019180796 0.0051249152)
(4.9611744 0.020769451 0.0014960438)
(4.9580921 0.021348025 -0.0030464667)
(4.9543829 0.020479884 -0.0081812546)
(4.9505839 0.017902355 -0.013239265)
(4.9473919 0.013728657 -0.017392955)
(4.9452877 0.0085103884 -0.020033085)
(4.9553845 0.0067027415 -0.014207955)
(4.9563972 0.010961655 -0.012588992)
(4.957982 0.01460257 -0.0099139438)
(4.9598964 0.017164112 -0.0065021882)
(4.9617865 0.018407975 -0.0028635661)
(4.9633401 0.018405721 0.00051550007)
(4.9643987 0.017412162 0.003342432)
(4.9649514 0.01573229 0.0055180792)
(4.9650936 0.013623732 0.0070643077)
(4.9649649 0.011290272 0.008060299)
(4.9646998 0.0089150106 0.0086287857)
(4.9644205 0.0066224099 0.0088813714)
(4.9641953 0.0045094729 0.0089346804)
(4.9640492 0.0025922071 0.0088652637)
(4.9632081 0.0025051583 0.0065447772)
(4.9633854 0.0043444658 0.0065689879)
(4.9636609 0.0063494081 0.0064898464)
(4.9640273 0.0084856318 0.0062481578)
(4.9644385 0.010647217 0.005763432)
(4.9648096 0.012693079 0.0049553155)
(4.9650415 0.014449045 0.0037510673)
(4.9650403 0.015716016 0.0021091523)
(4.9647379 0.016288436 4.6114926e-05)
(4.9641396 0.015944508 -0.0023352093)
(4.9633356 0.014544507 -0.0048086362)
(4.9624896 0.012131452 -0.0070486416)
(4.9617859 0.0089650431 -0.0087465793)
(4.9613468 0.0054247641 -0.0097401587)
(4.9647157 0.0045741987 -0.0062570842)
(4.9648491 0.0076074587 -0.0056675683)
(4.9650798 0.010399254 -0.0046338728)
(4.9653365 0.012640953 -0.0032422762)
(4.9655261 0.014073838 -0.0016674126)
(4.9655651 0.014606439 -0.00011387575)
(4.965412 0.014301243 0.0012657352)
(4.9650734 0.013318197 0.0023888608)
(4.9646027 0.011834794 0.0032320378)
(4.964077 0.010019545 0.0038122784)
(4.9635683 0.0080494038 0.0041733411)
(4.9631425 0.0060588993 0.0043635945)
(4.9628279 0.0041653062 0.0044389122)
(4.9626257 0.0024092938 0.0044369071)
(4.9622631 0.0023174656 0.0025455235)
(4.9624864 0.0039966597 0.0025397721)
(4.9628281 0.0057948262 0.002489507)
(4.9632933 0.0076631102 0.0023697028)
(4.9638595 0.0094882142 0.0021506927)
(4.9644778 0.011132733 0.0018054175)
(4.9650839 0.012434083 0.0013133854)
(4.9656153 0.013230524 0.00066622518)
(4.9660214 0.013373729 -0.00011538454)
(4.9662841 0.012748297 -0.0009799426)
(4.9664195 0.01133057 -0.0018426075)
(4.9664658 0.0092378483 -0.0025928639)
(4.9664814 0.0067084344 -0.0031421102)
(4.9665 0.0040126309 -0.0034527797)
(4.9669121 0.0040025135 -0.0034891542)
(4.9669611 0.00131097 -0.0036072919)
(4.9671845 0.00130226 -0.0036433066)
(4.9674983 0.0013039446 -0.0036870832)
(4.9677818 0.0013167235 -0.0037380773)
(4.9680967 0.0013328021 -0.0037874301)
(4.968409 0.0013527194 -0.0038365877)
(4.9687367 0.0013724022 -0.0038843239)
(4.9690654 0.0013919051 -0.0039299451)
(4.9694057 0.0014105965 -0.0039731627)
(4.969753 0.0014282351 -0.0040128999)
(4.9701139 0.0014449735 -0.0040486814)
(4.9704874 0.0014605338 -0.0040798167)
(4.9708771 0.0014752769 -0.0041057285)
(4.9712843 0.0014887541 -0.0041253217)
(4.9717117 0.0015008332 -0.0041378526)
(4.9721616 0.0015113932 -0.0041422142)
(4.9726372 0.0015200523 -0.0041371248)
(4.9731416 0.0015268003 -0.0041212276)
(4.9736791 0.001531103 -0.0040927246)
(4.9742537 0.0015327501 -0.0040498716)
(4.9748713 0.0015312043 -0.0039902016)
(4.9755374 0.0015260099 -0.003910958)
(4.9762595 0.0015167211 -0.0038087512)
(4.977046 0.0015024911 -0.0036794379)
(4.9779076 0.0014827476 -0.0035177445)
(4.9788576 0.001456291 -0.0033171981)
(4.9799117 0.0014220485 -0.0030700295)
(4.9810908 0.0013789088 -0.0027663423)
(4.9824211 0.0013253255 -0.0023937263)
(4.9839361 0.0012597865 -0.0019370211)
(4.9856813 0.0011803771 -0.0013772721)
(4.9877125 0.0010850402 -0.00069229785)
(5.0428056 -0.0017439992 0.00077160783)
(5.0403399 -0.0014688589 0.00073489228)
(5.0384854 -0.0012370972 0.00070024165)
(5.0371356 -0.0010434708 0.00066756825)
(5.0361925 -0.00088191816 0.00063671155)
(5.0355835 -0.00074845882 0.00060773732)
(5.0352317 -0.00063541544 0.00057997631)
(5.0350992 -0.00054327566 0.00055468473)
(5.0351191 -0.00048244916 0.00053553487)
(5.0352555 -0.00042292714 0.00051322541)
(5.0354871 -0.00037299484 0.00049199433)
(5.0357877 -0.00033230966 0.00047228881)
(5.0361381 -0.00029951078 0.00045403282)
(5.0365232 -0.00027311768 0.00043713182)
(5.0369307 -0.00025187841 0.00042148415)
(5.037351 -0.00023483794 0.00040701094)
(5.0377767 -0.00022112508 0.00039365816)
(5.0382028 -0.00021013112 0.00038132588)
(5.0386243 -0.00020150881 0.00036998207)
(5.0390382 -0.00019478429 0.00035958397)
(5.0394423 -0.00018960576 0.00035008024)
(5.0398349 -0.00018568939 0.00034143553)
(5.0402154 -0.00018281438 0.00033359807)
(5.0405826 -0.00018077914 0.00032655376)
(5.040938 -0.0001794552 0.00032024356)
(5.0412799 -0.00017867794 0.0003146226)
(5.0416131 -0.00017850095 0.00030960819)
(5.0419328 -0.00017878293 0.00030487527)
(5.0422486 -0.00017991819 0.00030103948)
(5.0425465 -0.00018110699 0.00029628158)
(5.0428439 -0.00018427037 0.00029470101)
(5.0431045 -0.00018532217 0.00029090469)
(5.0433807 -0.00019012144 0.00029361693)
(5.043569 -0.00019021482 0.00029350434)
(5.0442222 -0.00057533375 0.00029140213)
(5.0440192 -0.0005706284 0.00028749933)
(5.0437355 -0.0005623693 0.00028541429)
(5.0434688 -0.00055821821 0.00028668265)
(5.0431697 -0.00055351953 0.00028944901)
(5.042871 -0.00055096026 0.00029373534)
(5.042556 -0.00054894247 0.00029835819)
(5.0422372 -0.00054836607 0.00030320809)
(5.0419057 -0.00054897944 0.00030843484)
(5.0415656 -0.00055129303 0.00031410098)
(5.0412124 -0.00055541171 0.00032040321)
(5.0408478 -0.00056176242 0.0003273823)
(5.04047 -0.00057073129 0.0003351295)
(5.0400802 -0.00058287789 0.00034367201)
(5.0396787 -0.00059886211 0.00035306928)
(5.039267 -0.00061952487 0.00036336086)
(5.0388473 -0.00064593096 0.00037459859)
(5.038422 -0.00067946896 0.00038683264)
(5.0379959 -0.00072133684 0.00040010522)
(5.0375739 -0.00077332453 0.00041448755)
(5.0371629 -0.00083797728 0.00043003857)
(5.0367721 -0.00091806393 0.00044682272)
(5.0364133 -0.0010169877 0.00046491751)
(5.0361012 -0.0011387313 0.00048438276)
(5.0358536 -0.0012876195 0.00050527266)
(5.0356956 -0.0014684647 0.00052764291)
(5.0356598 -0.0016805716 0.00055040318)
(5.0357733 -0.0019525404 0.00057541985)
(5.0360879 -0.0022903609 0.00060284429)
(5.0366553 -0.002698162 0.00063219638)
(5.037547 -0.0031922486 0.00066366231)
(5.0388386 -0.0037857088 0.00069721347)
(5.0406264 -0.0044965294 0.00073298174)
(5.0430183 -0.005341313 0.00077113676)
(5.0437734 -0.0091410802 0.00077763781)
(5.0415141 -0.0076894297 0.00073756414)
(5.0398432 -0.0064704239 0.00070035539)
(5.0386516 -0.0054542938 0.00066571917)
(5.0378445 -0.0046109697 0.00063345162)
(5.0373448 -0.0039159189 0.00060344198)
(5.0370851 -0.0033449549 0.0005755755)
(5.0370125 -0.0028807689 0.00054966913)
(5.0370847 -0.002513407 0.00052589324)
(5.0372712 -0.0022056486 0.00050342386)
(5.0375401 -0.0019516124 0.00048232875)
(5.0378674 -0.001745016 0.00046267384)
(5.0382363 -0.0015777255 0.00044444412)
(5.0386331 -0.0014423919 0.00042756335)
(5.0390466 -0.001333052 0.00041194057)
(5.0394684 -0.0012448806 0.00039749924)
(5.0398923 -0.0011739004 0.00038416755)
(5.0403126 -0.0011172536 0.00037190215)
(5.0407262 -0.0010724388 0.00036064022)
(5.0411305 -0.0010372238 0.00035033083)
(5.0415239 -0.0010098516 0.00034091629)
(5.0419051 -0.00098892148 0.00033235604)
(5.0422741 -0.00097330381 0.00032458566)
(5.0426299 -0.00096208579 0.00031756987)
(5.0429742 -0.00095456044 0.00031120229)
(5.043306 -0.00095010461 0.00030542749)
(5.0436293 -0.00094837171 0.00029999811)
(5.043941 -0.00094879927 0.00029484029)
(5.0442492 -0.00095145408 0.00028959005)
(5.0445438 -0.00095570554 0.00028518526)
(5.044838 -0.00096226111 0.00028194422)
(5.0451067 -0.00096953871 0.00028119577)
(5.0453908 -0.0009809969 0.00028352897)
(5.0456087 -0.00098847238 0.00028917054)
(5.0478358 -0.0014361406 0.00028629797)
(5.0476186 -0.0014261837 0.00028072488)
(5.0473449 -0.0014129007 0.00027850971)
(5.0470852 -0.0014040115 0.00027938538)
(5.046805 -0.0013968001 0.00028289181)
(5.0465247 -0.0013921879 0.00028757253)
(5.0462327 -0.001389816 0.00029317524)
(5.0459373 -0.00139034 0.00029861918)