/*--------------------------------*- C++ -*----------------------------------*\
| =========                 |                                                 |
| \\      /  F ield         | OpenFOAM: The Open Source CFD Toolbox           |
|  \\    /   O peration     | Version:  v2012                                 |
|   \\  /    A nd           | Website:  www.openfoam.com                      |
|    \\/     M anipulation  |                                                 |
\*---------------------------------------------------------------------------*/
FoamFile
{
    version     2.0;
    format      ascii;
    class       surfaceScalarField;
    location    "206";
    object      phi;
}
// * * * * * * * * * * * * * * * * * * * * * * * * * * * * * * * * * * * * * //

dimensions      [0 3 -1 0 0 0 0];
oriented        oriented;


internalField   nonuniform List<scalar> 
96731
(
1.4701699e-05
-0.0062487664
-1.0000317e-05
-4.9195075e-05
-3.5993529e-06
0.0062968595
-0.0059770024
2.3199184e-05
0.0059720668
-3.5618195e-06
7.2020091e-05
1.0920465e-05
-1.7409589e-05
-7.7713715e-05
0.0057031134
4.7875892e-06
1.4036526e-05
0.0059530915
-0.00018453563
1.7443154e-05
0.0062016312
-3.3182183e-05
3.1925955e-06
0.0065531069
-0.00012326269
-6.4487062e-06
0.006674142
-1.3578963e-05
-1.0775028e-05
0.0067701552
-2.1336515e-05
-1.2893594e-05
0.0067152384
4.4772342e-06
-1.521097e-05
0.0066659088
3.3641091e-07
-1.6850035e-05
0.0066217656
-3.8539564e-06
-1.6846899e-05
0.0066217837
2.1917078e-05
-1.5199845e-05
0.0066659163
1.4110308e-05
-1.2871954e-05
0.0067152535
0.00012372922
-1.0743289e-05
0.0067701874
3.3566998e-05
-6.4056989e-06
0.0066741913
0.00018483212
3.2475885e-06
0.0065531661
-4.584049e-06
1.750537e-05
0.0062016955
7.781903e-05
1.4095048e-05
0.0059531572
-7.1976503e-05
0.0057031862
1.0995513e-05
0.0059770855
-1.7524933e-05
-0.0001715973
0.0062717952
-3.2696022e-05
-2.7779904e-05
0.0066702645
-6.216697e-05
-0.00011762632
0.0068442043
-7.8656976e-05
-1.3732907e-05
0.006978715
-8.4089592e-05
-1.8932387e-05
0.0069513262
-8.4066137e-05
1.0829329e-05
0.0069096455
-8.4844e-05
1.005497e-05
0.0068495873
-8.5988463e-05
8.6614909e-06
0.0068070075
-8.7069644e-05
4.1791146e-06
0.0067800131
-8.7755662e-05
1.6294462e-06
0.0067664095
-8.8152284e-05
1.1583778e-07
0.006760153
-8.8343686e-05
-5.5726824e-07
0.0067576459
-8.8430799e-05
-8.0011119e-07
0.006756744
-8.846728e-05
-8.8552123e-07
0.0067564567
-8.8485053e-05
-8.9794183e-07
0.0067563813
-8.8498371e-05
-9.1300336e-07
0.0067564065
-8.8507926e-05
-9.5414303e-07
0.0067564326
-8.8514044e-05
-9.6246778e-07
0.0067564269
-8.8523167e-05
-9.6020606e-07
0.0067564413
-8.8535705e-05
-9.617682e-07
0.0067564464
-8.854774e-05
-9.808429e-07
0.0067564498
-8.8559371e-05
-9.7295783e-07
0.0067564667
-8.857262e-05
-9.4047371e-07
0.0067564721
-8.8587118e-05
-9.3429873e-07
0.0067565034
-8.8602089e-05
-9.429109e-07
0.0067565124
-8.8616425e-05
-9.3242723e-07
0.0067565217
-8.8631682e-05
-9.7134233e-07
0.0067566012
-8.8645675e-05
-1.1533948e-06
0.0067569104
-8.8652798e-05
-1.7625565e-06
0.0067578343
-8.8639994e-05
-3.2044711e-06
0.0067603599
-8.8577237e-05
-5.6718426e-06
0.006766633
-8.8410141e-05
-1.0060975e-05
0.006780253
-8.8037617e-05
-1.1349762e-05
0.0068072637
-8.7375375e-05
-1.2006658e-05
0.0068498583
-8.6317819e-05
1.7884576e-05
0.0069099307
-8.5196157e-05
1.2824456e-05
0.0069516257
-8.4439899e-05
0.00011686004
0.0069790318
-8.4480679e-05
2.7162785e-05
0.0068445252
-7.9059805e-05
0.00017113121
0.0066705867
-6.2570427e-05
-1.1307852e-05
0.0062721007
-3.3090349e-05
7.1816342e-05
0.0059773808
-1.7906857e-05
-7.8186783e-05
0.0057034455
3.8647938e-06
0.0059533653
1.4258419e-05
-0.00018592028
0.0062019104
1.7679136e-05
-3.5042811e-05
0.0065533789
3.4384495e-06
-0.00012559373
0.0066743869
-6.2000336e-06
-1.6333333e-05
0.0067703314
-1.052456e-05
-2.4454587e-05
0.0067153272
-1.2638372e-05
1.0692219e-06
0.0066658923
-1.4952132e-05
-3.2822283e-06
0.0066216387
-1.658105e-05
-7.4766004e-06
0.0066214809
-1.6566095e-05
1.8387398e-05
0.0066654767
-1.4907236e-05
1.0787437e-05
0.0067146524
-1.2570819e-05
0.00012072474
0.0067694206
-1.0434453e-05
3.1013461e-05
0.0066732611
-6.104277e-06
0.00018280233
0.0065521303
3.5385049e-06
-5.9893253e-06
0.0062005408
1.779847e-05
7.7082991e-05
0.0059519234
1.4421964e-05
-7.1594994e-05
0.0057018413
1.1703172e-05
0.0059758769
-1.6815655e-05
-0.0001705534
0.0062705953
-3.1999882e-05
-2.6422474e-05
0.0066690687
-6.1460974e-05
-0.00011594228
0.0068429778
-7.7934826e-05
-1.1741231e-05
0.006977506
-8.3363528e-05
-1.6653383e-05
0.0069501649
-8.3349168e-05
1.3352264e-05
0.0069085629
-8.4144212e-05
1.2777041e-05
0.0068485898
-8.531171e-05
1.1537508e-05
0.0068060901
-8.6418125e-05
7.1670653e-06
0.0067791671
-8.7129995e-05
4.69297e-06
0.0067656277
-8.7551331e-05
3.2263661e-06
0.0067594279
-8.7766063e-05
2.5772812e-06
0.0067569701
-8.7875588e-05
2.3388408e-06
0.0067561139
-8.7934727e-05
2.2711247e-06
0.0067558524
-8.7971202e-05
2.20846e-06
0.0067558389
-8.7996056e-05
2.1557367e-06
0.0067558745
-8.8019517e-05
2.0949128e-06
0.0067559074
-8.8042232e-05
2.0292392e-06
0.0067559344
-8.8062204e-05
1.9665489e-06
0.0067559568
-8.8081461e-05
1.9176615e-06
0.0067559707
-8.8101477e-05
1.8750719e-06
0.0067559903
-8.8119228e-05
1.8212984e-06
0.006756017
-8.8134007e-05
1.7563611e-06
0.006756035
-8.8148491e-05
1.6920974e-06
0.0067560479
-8.8163425e-05
1.6328575e-06
0.0067560652
-8.8178293e-05
1.5685006e-06
0.0067560873
-8.8191027e-05
1.4594591e-06
0.0067561662
-8.8201215e-05
1.187388e-06
0.0067564642
-8.8204623e-05
4.8797428e-07
0.0067573858
-8.8186938e-05
-1.0553382e-06
0.0067599175
-8.8117638e-05
-3.6352907e-06
0.0067661955
-8.794273e-05
-8.1477529e-06
0.0067798214
-8.7560546e-05
-9.5745884e-06
0.0068068394
-8.6886568e-05
-1.03922e-05
0.0068494426
-8.5815322e-05
1.931333e-05
0.006909523
-8.4680196e-05
1.4046173e-05
0.0069512232
-8.3911725e-05
0.00011786567
0.0069786296
-8.3945021e-05
2.7946941e-05
0.0068441343
-7.8520922e-05
0.0001717086
0.0066701961
-6.2039662e-05
0.0062717184
-3.2575174e-05
-2.5228712e-05
0.0063613164
-4.1170021e-05
-1.6043275e-05
0.0067314504
-7.0439789e-05
-5.0378338e-05
0.0069656383
-8.7168969e-05
-3.0516419e-05
0.0070511988
-9.2431103e-05
-2.5890788e-05
0.0070394853
-9.2887729e-05
-1.2130133e-05
0.0069880132
-9.2250911e-05
-6.2413431e-06
0.0069357458
-9.2192e-05
-3.5134318e-06
0.0068962966
-9.2185135e-05
-3.3975633e-06
0.0068720541
-9.2348549e-05
-3.8318626e-06
0.0068591206
-9.2490735e-05
-4.3434266e-06
0.0068530162
-9.258713e-05
-4.7297681e-06
0.0068503964
-9.2624242e-05
-5.0006885e-06
0.0068493604
-9.2625222e-05
-5.207218e-06
0.0068489761
-9.2603343e-05
-5.3887445e-06
0.0068488353
-9.2566439e-05
-5.5710339e-06
0.0068487716
-9.2524135e-05
-5.7669163e-06
0.0068487244
-9.2480666e-05
-5.9675558e-06
0.0068486687
-9.2433086e-05
-6.1565904e-06
0.0068485886
-9.2382536e-05
-6.2266662e-06
0.0068483899
-9.2329553e-05
-6.406083e-06
0.0068484214
-9.2271315e-05
-6.704013e-06
0.0068484635
-9.2208676e-05
-6.8969004e-06
0.0068482703
-9.2143015e-05
-7.0772584e-06
0.0068481598
-9.2072127e-05
-7.242175e-06
0.0068480359
-9.1996489e-05
-7.3890531e-06
0.0068479026
-9.1916854e-05
-7.4292249e-06
0.0068477199
-9.1827341e-05
-7.5781913e-06
0.0068479838
-9.1720893e-05
-7.7900359e-06
0.006848771
-9.1588984e-05
-8.0558318e-06
0.0068511114
-9.1417741e-05
-8.1531879e-06
0.0068569106
-9.1185589e-05
-7.5889427e-06
0.0068695098
-9.0906945e-05
-4.2786499e-06
0.0068933864
-9.0606676e-05
2.3494637e-06
0.0069324399
-9.0478182e-05
1.7023522e-05
0.0069842934
-9.0404561e-05
2.2736176e-05
0.0070353685
-9.0916216e-05
4.3833691e-05
0.0070467652
-9.0356715e-05
1.0818697e-05
0.0069610292
-8.5036407e-05
2.1345142e-05
0.0067268609
-6.8318567e-05
-2.5799158e-05
0.006356845
-3.9105378e-05
-4.899891e-06
0.0059676697
-1.2691999e-05
0.0056985914
-1.6499747e-06
0.0056782449
1.2225815e-05
8.1206673e-06
0.0056742244
2.3692448e-06
1.6512368e-06
0.0056692789
1.0423827e-06
3.9031692e-06
0.0056606655
1.6431772e-06
6.9701777e-06
0.0056542178
-8.0852618e-07
7.2562839e-06
0.0056484161
-2.1589172e-06
7.9605724e-06
0.0056409961
-1.7609637e-06
9.1810017e-06
0.0056064518
1.3247259e-05
2.1297069e-05
0.0054552581
7.6118239e-05
7.5075362e-05
0.0048631804
0.00030304418
0.00028903356
0.0028225405
0.0010405497
0.0010000902
0.0011970476
0.00051984797
0.0011056449
0.00066203587
0.0004020472
0.00013296454
0.00068932751
2.9198724e-05
-5.6490366e-05
0.00066213471
-8.1358406e-06
3.5328643e-05
0.0003069977
0.00019879935
0.00015633766
0.0001007741
0.00010184911
0.00010437448
6.7552023e-05
5.7289727e-05
-2.4067646e-05
6.2785296e-05
9.7534488e-06
-4.986722e-06
0.00012298644
-1.1649403e-05
-4.8551744e-05
0.00013753935
2.0574558e-06
-1.6610364e-05
0.00019857206
-2.4845853e-06
-5.8548123e-05
0.00017359596
-4.4763001e-06
2.9452401e-05
0.00016677195
4.5657621e-06
2.2582462e-06
0.00024746584
-1.2433398e-06
-7.9450548e-05
0.00023545021
-1.7552897e-07
1.219116e-05
0.00020228647
-8.848762e-06
4.2012499e-05
0.000187821
5.1331228e-06
9.3323456e-06
0.00026824763
-2.448837e-06
-7.7977796e-05
0.00024473909
-9.5716073e-07
2.4465709e-05
0.00021006349
2.6677265e-07
3.4408824e-05
0.00016545631
8.2630675e-06
3.6344117e-05
0.00013144427
2.8840948e-05
5.1710904e-06
0.00019271209
4.6052433e-06
-6.5873071e-05
0.00032191019
-8.5078117e-05
-4.4119982e-05
0.00034076777
-7.8906756e-05
6.0049177e-05
0.00015477314
0.0001311768
5.4817833e-05
0.00012586284
1.8438949e-05
1.0471352e-05
0.00010478634
4.0855466e-06
1.699095e-05
9.2390613e-05
-4.9759824e-06
1.737171e-05
0.00018960728
-6.747547e-05
-2.9741195e-05
0.00053751025
-6.6429575e-05
-0.0002814734
0.00045058448
-1.8111815e-05
0.00010503759
0.00019458063
3.7855114e-05
0.00021814874
9.6915328e-05
5.7465269e-05
4.0200031e-05
0.00010296459
6.3581788e-06
-1.2407439e-05
0.00019080533
-1.3163449e-05
-7.4677297e-05
0.00024563699
-3.8216995e-05
-1.6614657e-05
0.00027272194
-2.5316781e-05
-1.7681771e-06
0.00028455192
-1.2013194e-05
1.8321886e-07
0.00028774146
-6.2746363e-06
3.0850958e-06
0.0002874254
-3.6395315e-06
3.9555939e-06
0.00028495305
-2.1847312e-06
4.657079e-06
0.00028170783
-1.4249344e-06
4.6701517e-06
0.00027823196
-1.1839797e-06
4.6598476e-06
0.00027434878
-8.7679925e-07
4.7599851e-06
0.00027037887
-8.2804015e-07
4.7979487e-06
0.00026540656
-6.0485017e-07
5.5771634e-06
0.00025908238
-4.2743685e-07
6.751618e-06
0.00024954859
1.4855703e-07
9.3852287e-06
0.00023370185
1.776714e-06
1.4070029e-05
0.00020660284
5.5365573e-06
2.1562445e-05
0.0001697647
1.0449703e-05
2.6388438e-05
0.00013792418
3.0130784e-05
1.70974e-06
0.00020584636
5.2668827e-06
-7.3189068e-05
0.00035771055
-7.4153175e-05
-7.7711008e-05
0.00042748065
-9.2773396e-06
-6.0492766e-05
0.00043443773
1.2806863e-05
-1.9763939e-05
0.00038980043
5.5307583e-05
-1.0670283e-05
0.00018424497
4.9465817e-05
0.00015608964
0.00017107093
-1.9949163e-06
1.5168961e-05
0.0001833434
-2.373999e-07
-1.2035073e-05
0.00018279462
6.5633221e-07
-1.075478e-07
0.00016837386
1.6415251e-06
1.277923e-05
0.00018623859
-1.7080209e-06
-1.6156707e-05
0.00038796982
-4.7658572e-05
-0.00015407266
0.00039400839
-2.8060477e-05
2.2021908e-05
0.0003440211
-5.0394087e-06
5.5026697e-05
0.00019925718
6.9313309e-05
7.5450616e-05
0.00013421367
7.0893768e-05
-5.8502658e-06
0.00016636408
-1.8155325e-06
-3.0334876e-05
0.00020316648
-2.5457706e-05
-1.1344698e-05
0.00022998198
-2.0422398e-05
-6.3930934e-06
0.0002455791
-1.2859356e-05
-2.7377726e-06
0.00025438084
-7.7870768e-06
-1.0146629e-06
0.00025979294
-4.8668722e-06
-5.452263e-07
0.00026392721
-3.719878e-06
-4.1439109e-07
0.0002670146
-2.7407984e-06
-3.4659038e-07
0.0002696296
-2.2527301e-06
-3.6227025e-07
0.00027254637
-2.4891322e-06
-4.2763624e-07
0.00027523588
-2.3390712e-06
-3.5044271e-07
0.00027780934
-2.2092381e-06
-3.6422212e-07
0.0002808534
-2.620896e-06
-4.2316167e-07
0.00028374914
-2.5635217e-06
-3.3221362e-07
0.00028635526
-2.3201149e-06
-2.8601371e-07
0.00028921489
-2.5056684e-06
-3.5395805e-07
0.00029147195
-2.2144801e-06
-4.2579538e-08
0.00029243057
-1.4188296e-06
4.6021316e-07
0.0002918475
-5.6541611e-07
1.1484791e-06
0.0002881172
8.3141835e-07
2.8988887e-06
0.00027874572
2.757112e-06
6.6143634e-06
0.00026215922
3.0504668e-06
1.3536035e-05
0.00025186388
-8.7965235e-06
1.909186e-05
0.00029281776
-1.6520489e-05
-2.4433391e-05
0.00066490195
-0.00012315049
-0.0002489337
0.0012173165
-0.00028890322
-0.00026351137
-0.000105707
-5.8900819e-05
-0.0061787212
2.3484487e-05
-4.9166458e-05
9.2927534e-06
-0.0061635415
2.2172389e-05
-4.6307794e-05
8.9556276e-06
-0.0061497669
2.052703e-05
-4.2784807e-05
8.4832256e-06
-0.0061374736
1.8711364e-05
-3.8928828e-05
7.9242017e-06
-0.0061266382
1.6844999e-05
-3.4992488e-05
7.3120279e-06
-0.0061171701
1.5013299e-05
-3.1153258e-05
6.6718938e-06
-0.0061089521
1.3279943e-05
-2.7530343e-05
6.0324019e-06
-0.0061018564
1.168337e-05
-2.4194054e-05
5.4150098e-06
-0.0060957408
1.0235491e-05
-2.1175851e-05
4.8246782e-06
-0.0060904559
8.9372702e-06
-1.8483215e-05
4.2610643e-06
-0.0060858519
7.7926825e-06
-1.6115769e-05
3.7191571e-06
-0.0060817599
6.809102e-06
-1.4077572e-05
3.176418e-06
-0.0060779636
6.0003864e-06
-1.2392029e-05
2.5953564e-06
-0.0060741988
5.4174837e-06
-1.1104648e-05
1.9223444e-06
-0.0060702015
5.0541102e-06
-1.0256057e-05
1.2046429e-06
-0.0060659141
4.9292318e-06
-9.8235398e-06
6.0691578e-07
-0.0060615847
4.3741393e-06
-9.7450428e-06
1.0415578e-06
-0.0060580298
4.5819746e-06
-9.9705725e-06
1.8336071e-06
-0.006053216
3.0144734e-06
-9.5553677e-06
1.7270995e-06
-0.006037389
3.284517e-06
-8.8098274e-06
-1.0301623e-05
-0.0060065269
1.1351431e-06
-2.3671416e-06
-2.9630097e-05
1.1641123e-05
-9.8991944e-06
-3.6202092e-05
2.350146e-06
0.0064411113
-7.0503981e-05
-1.1866933e-05
0.0068416929
-9.6025366e-05
-2.3885999e-05
0.007086062
-0.00010840465
-2.7963738e-05
0.0071668846
-0.00011160801
-2.4595551e-05
0.0071475051
-0.00011138797
-1.8933684e-05
0.0070929153
-0.00011056392
-1.3546127e-05
0.007040321
-0.00010996284
-1.0289397e-05
0.0070025973
-0.00010955742
-8.8461489e-06
0.0069799525
-0.00010934173
-8.5117285e-06
0.0069680225
-0.00010923637
-8.6769764e-06
0.0069623583
-0.00010917684
-9.0226928e-06
0.0069598665
-0.00010912446
-9.4042198e-06
0.0069588088
-0.0001090669
-9.6629098e-06
0.0069582357
-0.00010900096
-1.0017356e-05
0.0069581159
-0.00010892611
-1.0368492e-05
0.0069579675
-0.00010884467
-1.0725018e-05
0.006957839
-0.00010875799
-1.1086043e-05
0.006957695
-0.00010866532
-1.1446622e-05
0.0069575149
-0.00010856578
-1.1910237e-05
0.0069573134
-0.00010845987
-1.226423e-05
0.0069571241
-0.00010834869
-1.2512154e-05
0.0069569402
-0.00010822887
-1.286691e-05
0.0069567228
-0.0001080978
-1.3210995e-05
0.0069564613
-0.00010795734
-1.3531408e-05
0.0069561639
-0.00010780759
-1.3820536e-05
0.0069558381
-0.00010764636
-1.416955e-05
0.0069555418
-0.00010747289
-1.4334877e-05
0.006955436
-0.0001072869
-1.4353887e-05
0.0069558765
-0.00010708656
-1.4056975e-05
0.0069576891
-0.00010687458
-1.3086397e-05
0.006962606
-0.00010666598
-1.0790596e-05
0.0069737152
-0.00010650123
-6.4188065e-06
0.006995461
-0.0001064463
3.9266321e-07
0.0070322104
-0.00010658199
7.8222675e-06
0.0070837806
-0.00010691689
1.3302736e-05
0.0071373741
-0.00010748606
1.1623088e-05
0.0071559391
-0.00010749428
2.1609836e-06
0.0070746723
-0.00010418102
-9.4909108e-06
0.0068303694
-9.1856645e-05
-1.6333913e-05
0.0064302124
-6.6524382e-05
0.0059959988
-3.2437214e-05
0.0060175069
4.6443238e-06
-2.3783227e-05
0.0060205906
2.2308524e-07
-2.2643911e-06
0.0060100908
3.3222458e-07
1.1810802e-05
0.0059967975
-1.1067556e-06
1.3591501e-05
0.0059836498
-3.482591e-06
1.4471351e-05
0.0059674753
-3.4057028e-06
1.7819295e-05
0.005934922
1.3318827e-05
3.2481656e-05
0.005844382
8.185753e-05
8.480076e-05
0.0055846534
0.00026949578
0.00029327703
0.0022849619
0.0024428201
0.00046935205
0.0014280691
0.00014367208
0.0013129563
0.0013481815
0.00018043485
0.0010584633
0.001347594
0.00022637597
0.00098895831
-0.0023297775
0.0012948781
0.0011389654
0.00067992596
-0.0027076274
0.001115112
0.00014056664
-0.00010953361
0.00097018517
0.00013774717
1.7706278e-05
0.00085862297
-5.5836647e-05
-3.8086479e-06
0.0011237593
-0.00011328605
2.5695893e-05
0.0011536894
-0.0001247306
0.0002599307
0.0011197198
-4.0998393e-05
0.00063436377
2.7614133e-05
0.0006969865
-3.3424004e-05
0.00080226564
-0.0001466348
3.3219826e-05
0.00024787169
9.6470339e-05
0.00034584124
0.00031088172
0.00017480886
0.00010435618
7.0555763e-05
6.2337316e-06
0.00012464952
5.9148659e-05
-1.5223049e-05
5.6511491e-05
7.0119675e-06
6.2377927e-05
3.8870126e-06
0.00014341531
-3.0923245e-05
-6.1763541e-05
0.00014530421
2.5046187e-06
-2.3360618e-06
0.00022049744
2.6327582e-06
-8.0310573e-05
0.00020054781
-1.293204e-05
2.8405364e-05
0.00017589898
3.6787675e-06
2.5535829e-05
0.00026703327
6.8526443e-06
-9.923027e-05
0.00027468259
-2.897308e-05
2.1148224e-05
0.00022447304
1.9171658e-06
3.9443622e-05
0.00019052211
8.4625009e-06
3.0621554e-05
0.00028443547
5.8696689e-06
-0.00010223186
0.00029191824
-3.2565973e-05
2.4126036e-05
0.00025690737
-4.04833e-06
3.9325976e-05
0.00019852262
3.3849187e-05
3.2798632e-05
0.00015404934
4.6017713e-05
2.7296514e-05
0.0001939106
-3.5256019e-05
0.00015597437
-4.7141889e-05
0.00015245306
-6.3524583e-05
-1.1860861e-05
-0.00014182139
5.2097556e-05
0.00041887273
-0.00017669584
-0.00027102434
1.3432216e-05
5.2246151e-05
-0.0003046518
1.7568309e-05
6.2076868e-05
-0.00032984524
1.358221e-05
4.5460412e-05
-0.00037726932
1.2630596e-05
3.0745152e-05
-0.00035316171
-0.00012329231
6.661873e-05
-0.00026486831
0.00013235449
-0.00021477821
-0.00031518432
-1.9034598e-05
7.7813101e-05
-0.00036104817
-1.5545458e-07
4.7936472e-05
-0.00034258061
-0.00011953664
7.2095998e-05
-0.00025165697
0.00012938221
-0.0002134532
-0.00029911177
-7.0784024e-06
5.8211971e-05
-0.00028802028
-0.00011032246
8.6298922e-05
-0.00020866613
0.00010533513
-0.00018205652
-0.0002189471
-1.2217297e-05
2.5002887e-05
5.7446326e-05
-0.00018266715
-8.8545568e-05
9.5644831e-05
0.00024194123
-0.00019159417
-3.7747754e-05
3.5413942e-05
-5.2844407e-05
-3.3367349e-05
9.4196487e-06
-4.9196839e-05
2.0294361e-06
-0.00010040029
1.7794811e-05
7.1606722e-05
2.0418401e-05
-0.00010673944
2.2374642e-05
-2.6222607e-05
1.0187121e-05
5.2187667e-05
-0.00030029264
-2.7484264e-05
0.00016884979
0.00019497381
8.2470623e-05
-0.00039805474
0.00017279797
-1.1591864e-05
8.5245137e-05
1.5586828e-06
0.00011976185
8.2773177e-05
1.0480224e-05
4.0073632e-05
2.1724579e-05
3.8769777e-05
2.0347517e-05
1.5939307e-05
3.7868079e-06
-5.0540392e-05
3.5806169e-05
3.5859266e-05
-7.7752599e-07
0.00012405445
-6.7574174e-05
4.4455018e-05
8.7325171e-05
2.8080426e-05
8.6739526e-05
7.8405489e-05
-2.5045166e-05
0.0002461117
7.0351762e-05
8.2286121e-05
0.00012345047
5.1291424e-06
3.5245969e-05
0.00010375381
-2.6455022e-05
0.00033005711
3.7359369e-05
-0.0001402122
0.00027770093
-1.2024598e-05
5.7302377e-05
8.7269162e-05
0.0001447965
-9.7388442e-06
5.5374113e-05
0.00012635916
-2.9244426e-05
0.0003948048
3.9409313e-05
-0.00016305845
0.0003633395
-1.0771841e-05
4.2081685e-05
0.00028352637
-2.062567e-05
8.1404197e-05
9.1321143e-05
0.00014932103
-9.7876507e-06
5.2671845e-05
0.00013455826
-3.417494e-05
0.00040988336
4.1282153e-05
-0.00016728622
0.0004036268
-1.8153117e-06
2.0702464e-05
0.00036725004
-6.9639609e-07
5.0655367e-05
0.00031852613
5.7086813e-06
6.0583543e-05
0.00025889368
-1.621913e-06
7.4686571e-05
0.00040065648
-0.00025185878
0.00016219354
-7.1621759e-06
0.00045327747
7.1930496e-05
-0.0001173893
2.8742747e-05
0.00035086358
3.2104232e-05
0.00015268306
7.2364911e-06
0.00016989325
1.2287564e-06
0.00013794645
1.2855768e-05
2.3176581e-05
0.00012252717
1.04433e-05
5.9813755e-05
-4.7620585e-06
-0.00029415836
3.0724084e-05
0.00029373253
2.9515502e-05
1.6641809e-05
5.2919172e-05
0.00039399113
4.058485e-05
3.5343293e-05
0.00033444555
2.804237e-05
6.2227295e-05
-5.9798573e-05
0.00048655209
0.00030913484
-0.0004014428
0.00050352043
-0.00033601604
0.00044059836
0.00039974785
7.0416793e-05
-0.00015631788
0.00021751557
-7.1146231e-05
0.00024732055
0.00030227916
-0.00027147914
0.00025895557
0.00034112519
-0.00031067926
6.0892186e-05
4.8724729e-05
-0.00010414404
-5.3718255e-05
-0.00043933509
-1.9256386e-05
0.00030717562
4.7271812e-05
-0.00046696548
-3.8322383e-06
5.9505e-05
-0.00045918004
1.294007e-05
1.9859333e-05
-0.00015970284
5.2800037e-05
-0.00019034018
-0.00016193706
-0.00030275656
-5.3311695e-07
5.3842622e-05
8.9744218e-05
-0.00037343556
-5.5570632e-06
7.4614154e-05
-0.00042181753
-2.5096994e-06
5.6600345e-05
-0.00046960586
1.5218295e-05
3.187364e-05
-0.00041293655
-0.00013286919
7.4384575e-05
-0.00027294543
0.00015144691
-0.00025015589
-0.00034022808
-2.1250261e-05
7.8745265e-05
-0.00042174069
1.9323914e-06
5.8954546e-05
-0.00039527169
-0.00013010186
9.2861018e-05
-0.00026374886
0.00015018776
-0.00024230128
-0.00034734388
1.5159836e-06
7.2340191e-05
-0.00034047249
-0.00012055395
0.00010165796
-0.00021893359
0.00013635764
-0.00022053717
-0.00025631554
2.9025397e-06
3.9608556e-05
5.0992295e-05
-0.00014157718
-0.00014435296
9.8492354e-05
0.00026300529
-0.00016615239
-3.2043033e-05
-4.3166609e-05
-3.3284054e-05
-1.7364825e-05
1.2610986e-06
9.0957581e-05
-0.00011582037
7.4979635e-06
5.3314523e-05
-5.5235508e-06
-0.0002431416
9.04863e-05
0.00015501183
5.0957994e-05
-0.00095236599
0.00010783519
0.0003178895
0.00039073438
-2.1989548e-05
-0.001150697
-4.4851469e-05
1.2950819e-05
0.00023023165
4.7970992e-05
-3.2511726e-05
-1.2466897e-05
0.0010041932
1.6862791e-05
0.00035746474
0.00039630196
0.00016519204
-2.280683e-05
-6.7884481e-05
-0.0012727233
0.00042755455
0.00039735731
0.00033447349
-1.9134224e-05
0.0001559521
0.00033891707
6.9466972e-06
-8.6379685e-05
-1.4017656e-05
0.00015971972
0.00031883591
-9.0670566e-05
-0.00039300163
-1.2318541e-05
0.00015437464
-0.00010251644
0.00031248211
-0.00036603942
1.8090385e-06
-0.00015003374
3.8322283e-05
0.00016678763
-6.920376e-05
-7.792339e-05
0.00011326305
1.0918988e-05
-4.4449612e-05
-0.00037838624
0.00019524354
-4.4814428e-05
-0.00081353166
0.00011353496
0.00026555689
0.00021239123
-0.00074142358
-4.2075824e-05
5.2963808e-06
-0.00063980353
-0.00011165204
-4.6458371e-05
-0.00067380491
0.00016696592
9.9536463e-05
0.0003323035
-0.0021344536
0.00090414362
0.00022029258
0.0011095539
-0.0055489718
0.00038717602
0.0025433467
0.0014840857
-0.0057742451
0.00023665041
0.00027765645
-0.0058689901
9.9416337e-05
7.0403974e-05
-0.0059040464
4.0006196e-05
1.6347219e-05
-0.0059212101
2.3367491e-05
2.9771899e-06
-0.0059345158
1.8998467e-05
2.2678128e-06
-0.0059475274
1.589352e-05
4.3744026e-06
-0.0059581927
1.1857203e-05
5.7782674e-06
-0.0059566408
6.0929493e-06
-3.7417493e-06
-0.0059407004
3.6777387e-06
-1.7966866e-05
-0.0059238609
8.2637098e-06
-1.6982578e-05
1.5086558e-05
1.1325985e-05
-3.7103485e-05
0.0062496745
3.0563128e-06
-2.3174746e-05
0.0065510845
-1.288295e-05
-5.2898615e-05
0.0067260723
-2.3087309e-05
-2.6225921e-05
0.0067699181
-2.7170218e-05
-1.7339631e-05
0.0067345054
-2.8739223e-05
-3.2358757e-08
0.0066775857
-2.9416337e-05
1.061543e-05
0.0066408657
-3.0032667e-05
2.0847878e-05
0.0066414937
-3.008745e-05
3.7181361e-05
0.0066791409
-2.9582105e-05
4.4469721e-05
0.006737055
-2.9016164e-05
6.8938242e-05
0.0067734293
-2.7566447e-05
3.6478894e-05
0.0067304211
-2.3574875e-05
4.7292071e-05
0.0065559995
-1.3433739e-05
-8.1907945e-06
0.0062549331
2.4601917e-06
5.164592e-06
0.0059293406
1.066937e-05
0.0057044022
4.2078827e-06
0.0056915436
1.77638e-06
1.1082234e-05
0.0056990575
-8.2167197e-06
7.0283518e-07
0.0057093665
-9.5754153e-06
-7.3365261e-07
0.0057190952
-1.0031605e-05
3.0298826e-07
0.0057317917
-1.2184619e-05
-5.1188227e-07
0.0057442926
-1.2961522e-05
4.605446e-07
0.0057579774
-1.4350131e-05
6.6535735e-07
0.0057721387
-1.547906e-05
1.3177377e-06
0.0057872568
-1.6876886e-05
1.7587932e-06
0.0058037022
-1.8467536e-05
2.0221627e-06
0.0058217378
-2.0142373e-05
2.1067845e-06
0.0058414063
-2.1741357e-05
2.0728205e-06
0.0058625993
-2.3136895e-05
1.943885e-06
0.00588508
-2.4227903e-05
1.7472816e-06
0.0059085157
-2.492669e-05
1.4909728e-06
0.005932507
-2.5159214e-05
1.1679288e-06
0.0059566021
-2.4893798e-05
7.986885e-07
0.0059803094
-2.4107645e-05
4.0029492e-07
0.0060031399
-2.2797716e-05
-3.2741821e-08
0.006024629
-2.0988596e-05
-5.0055699e-07
0.0060443566
-1.8749601e-05
-9.7792865e-07
0.0060619656
-1.6168546e-05
-1.4404903e-06
0.0060771651
-1.3315735e-05
-1.8837216e-06
0.0060897355
-1.0261948e-05
-2.3084713e-06
0.0060995173
-7.0890181e-06
-2.6928128e-06
0.0061064257
-3.8807956e-06
-3.0276121e-06
0.0061103932
-6.4536423e-07
-3.3221528e-06
0.006111477
2.5010545e-06
-3.5848147e-06
0.0061099482
5.2754351e-06
-3.7466356e-06
0.0061058332
8.0103456e-06
-3.8953145e-06
0.0060992509
1.0586048e-05
-4.0038338e-06
0.0060903795
1.2957154e-05
-4.0857011e-06
0.0060794321
1.5083865e-05
-4.1364426e-06
1.6951995e-05
-4.1567003e-06
-0.0063841535
3.5093677e-05
-4.4509951e-06
-0.00639589
3.1256217e-05
-4.4358304e-06
-0.0064054265
2.6887205e-05
-4.3935307e-06
-0.006412543
2.2019097e-05
-4.3165517e-06
-0.0064170295
1.6704084e-05
-4.2072507e-06
-0.0064187128
1.1012078e-05
-4.0533209e-06
-0.0064174871
5.118582e-06
-3.8433064e-06
-0.006413326
-1.2210641e-06
-3.5853265e-06
-0.0064060773
-7.8405159e-06
-3.2890072e-06
-0.0063957313
-1.4492658e-05
-2.9424209e-06
-0.0063823918
-2.1069785e-05
-2.5316495e-06
-0.0063662246
-2.7410182e-05
-2.0727564e-06
-0.0063474381
-3.3359377e-05
-1.5956226e-06
-0.0063263452
-3.8743216e-05
-1.0992773e-06
-0.0063033566
-4.3398824e-05
-5.7843329e-07
-0.0062789302
-4.7160593e-05
-6.347184e-08
-0.0062535509
-4.9906281e-05
4.1935452e-07
-0.0062277512
-5.1564029e-05
8.7050904e-07
-0.0062020857
-5.2108135e-05
1.283407e-06
-0.0061770604
-5.1593583e-05
1.6415924e-06
-0.0061530986
-5.0110715e-05
1.9210102e-06
-0.0061305484
-4.7809578e-05
2.1224925e-06
-0.0061096666
-4.4869733e-05
2.2465744e-06
-0.0060905576
-4.1510223e-05
2.258887e-06
-0.0060731806
-3.7983435e-05
2.1388871e-06
-0.0060573583
-3.4564499e-05
1.8653111e-06
-0.0060428499
-3.1502167e-05
1.5146817e-06
-0.0060295532
-2.8950196e-05
1.3033351e-06
-0.0060177325
-2.6910052e-05
2.1278369e-06
-0.0060080113
-2.5250357e-05
3.3446052e-06
-0.0059988962
-2.3138698e-05
3.9919654e-06
-0.0059813012
-2.1469181e-05
-5.7012175e-06
-0.0059537452
-1.6104786e-05
-1.9667937e-05
-4.4452624e-06
-1.8183017e-05
0.0063099857
-1.9480539e-05
-4.001732e-05
0.0063560308
-2.6740968e-05
-3.5408925e-05
0.0063755932
-3.253485e-05
-8.4967024e-06
0.0063825049
-3.6317987e-05
6.2675762e-06
0.006389886
-3.9192616e-05
6.5611225e-06
0.0064009522
-4.1632085e-05
3.6557988e-06
0.0064144159
-4.4604526e-05
2.1906321e-06
0.006429528
-4.8618114e-05
2.0039026e-06
0.0064462656
-5.3563597e-05
2.2615098e-06
0.0064648262
-5.9082867e-05
2.5387669e-06
0.0064853816
-6.4761468e-05
2.6958486e-06
0.0065079741
-7.0174005e-05
2.7118194e-06
0.0065324925
-7.4922644e-05
2.5946837e-06
0.006558665
-7.8653014e-05
2.3697542e-06
0.006586094
-8.1065057e-05
2.0425243e-06
0.0066142844
-8.1918942e-05
1.6203946e-06
0.0066426559
-8.1062538e-05
1.1270112e-06
0.0066705744
-7.8412377e-05
5.875315e-07
0.0066974134
-7.4026552e-05
2.6999689e-08
0.0067226207
-6.8045857e-05
-5.6025918e-07
0.0067456863
-6.0667264e-05
-1.1415924e-06
0.0067661531
-5.2128033e-05
-1.6981365e-06
0.006783693
-4.2703142e-05
-2.2469038e-06
0.0067980885
-3.2689394e-05
-2.775857e-06
0.00680919
-2.2340244e-05
-3.2539685e-06
0.0068169168
-1.1909229e-05
-3.6580925e-06
0.0068213098
-1.6127794e-06
-4.0012653e-06
0.0068224536
8.2724962e-06
-4.2976958e-06
0.0068204201
1.7581243e-05
-4.5356953e-06
0.0068153496
2.6484913e-05
-4.7103239e-06
0.0068074299
3.4776155e-05
-4.8373811e-06
0.0067968901
4.2354879e-05
-4.9278038e-06
0.0067839705
4.9153002e-05
-4.9772282e-06
5.5118882e-05
-4.9954293e-06
-0.0071278278
7.7114836e-05
-5.4160152e-06
-0.0071421287
6.8871136e-05
-5.4172324e-06
-0.0071538656
5.9475159e-05
-5.3834227e-06
-0.0071627775
4.8996409e-05
-5.3083112e-06
-0.0071686273
3.7525015e-05
-5.1903311e-06
-0.007171207
2.5182267e-05
-5.0213175e-06
-0.0071703391
1.2194974e-05
-4.7903316e-06
-0.0071659036
-1.5510859e-06
-4.4972607e-06
-0.007157823
-1.5844705e-05
-4.1450706e-06
-0.0071460416
-3.0397632e-05
-3.7239937e-06
-0.0071305949
-4.4904951e-05
-3.2312175e-06
-0.0071116006
-5.9012258e-05
-2.6851008e-06
-0.0070892929
-7.233484e-05
-2.100966e-06
-0.0070640317
-8.4455812e-05
-1.4726364e-06
-0.0070363035
-9.4972539e-05
-8.0150706e-07
-0.0070066704
-0.00010351805
-1.4163816e-07
-0.006975798
-0.00010979716
5.1240066e-07
-0.006944414
-0.00011358513
1.1385897e-06
-0.0069132736
-0.00011479377
1.7344682e-06
-0.0068830666
-0.00011351737
2.2453467e-06
-0.0068543953
-0.00010997277
2.6484351e-06
-0.0068277288
-0.00010451627
2.9271135e-06
-0.0068033611
-9.7606125e-05
3.0643717e-06
-0.0067814112
-8.9763877e-05
3.0525564e-06
-0.0067618222
-8.1555256e-05
2.8833918e-06
-0.006744407
-7.3570583e-05
2.5917761e-06
-0.0067290048
-6.6380526e-05
2.3601865e-06
-0.0067158776
-6.0435062e-05
2.7033146e-06
-0.0067063507
-5.5768978e-05
4.6100309e-06
-0.0067022886
-5.1616164e-05
8.3614105e-06
-0.0067000105
-4.6791731e-05
8.195654e-06
-0.0066818649
-4.1188191e-05
-9.4922356e-06
-0.0066280874
-3.6388238e-05
-4.4130251e-05
-3.5571579e-05
-5.5996847e-05
0.0068047522
-4.633029e-05
-6.3572384e-05
0.00685873
-4.3048941e-05
-4.7317054e-05
0.0068740415
-4.6891228e-05
-9.6085011e-06
0.006872431
-5.4079951e-05
8.898758e-06
0.006873314
-6.1346002e-05
8.8468184e-06
0.0068807831
-6.8081859e-05
4.8437549e-06
0.0068927963
-7.5314827e-05
2.8666219e-06
0.0069077405
-8.3882176e-05
2.5574235e-06
0.0069251871
-9.3856147e-05
2.8390158e-06
0.0069452477
-0.00010477894
3.1630126e-06
0.0069681265
-0.00011598075
3.3380912e-06
0.0069939092
-0.00012671862
3.3298316e-06
0.0070224825
-0.00013623624
3.1465903e-06
0.0070535214
-0.00014380517
2.7934994e-06
0.0070864659
-0.00014875662
2.2947469e-06
0.0071205763
-0.0001505766
1.6724326e-06
0.0071550104
-0.00014897556
9.5633198e-07
0.0071888626
-0.00014386605
2.1670977e-07
0.0072212737
-0.00013539049
-5.3863493e-07
0.0072514785
-0.00012388217
-1.2951614e-06
0.0072788386
-0.00010978178
-2.0341623e-06
0.0073028303
-9.3615629e-05
-2.7109329e-06
0.0073230776
-7.5939499e-05
-3.3200666e-06
0.0073393535
-5.732021e-05