/*--------------------------------*- C++ -*----------------------------------*\
| =========                 |                                                 |
| \\      /  F ield         | OpenFOAM: The Open Source CFD Toolbox           |
|  \\    /   O peration     | Version:  v2012                                 |
|   \\  /    A nd           | Website:  www.openfoam.com                      |
|    \\/     M anipulation  |                                                 |
\*---------------------------------------------------------------------------*/
FoamFile
{
    version     2.0;
    format      ascii;
    class       volVectorField;
    location    "206";
    object      U;
}
// * * * * * * * * * * * * * * * * * * * * * * * * * * * * * * * * * * * * * //

dimensions      [0 1 -1 0 0 0 0];


internalField   nonuniform List<vector> 
33368
(
(5.0001198 0.00024071043 -0.00053335214)
(5.0001224 8.3169423e-05 -0.00054004625)
(5.0000168 2.7031428e-05 -0.00017776606)
(5.0000249 2.6776021e-05 -6.1657917e-05)
(5.0000244 7.8036494e-05 -6.0031562e-05)
(5.0000237 0.00013031607 -6.1392376e-05)
(5.0000237 0.00017944732 -5.8133819e-05)
(5.0000243 0.00022696783 -5.7602262e-05)
(5.0000251 0.00026446427 -5.4311796e-05)
(5.0000269 0.00029468804 -5.1788555e-05)
(5.0000279 0.0003133666 -4.9416933e-05)
(5.0000291 0.00032213234 -4.736719e-05)
(5.0000298 0.00032034221 -4.5619469e-05)
(5.0000309 0.00030823355 -4.3393832e-05)
(5.000032 0.00028666361 -4.1447683e-05)
(5.0000334 0.00025476446 -3.8341405e-05)
(5.0000349 0.0002165724 -3.7149236e-05)
(5.0000349 0.0001705582 -3.5279138e-05)
(5.0000362 0.00012409551 -3.5892625e-05)
(5.000035 7.5791205e-05 -3.6107527e-05)
(5.000039 2.634748e-05 -3.691613e-05)
(5.0000338 2.5666683e-05 -0.00010688427)
(5.0000358 2.4859082e-05 -0.00017744433)
(5.0000351 2.4705478e-05 -0.00024900194)
(5.0000361 2.6445704e-05 -0.00032523631)
(5.0000354 2.8167119e-05 -0.00039708812)
(5.0000346 3.1842282e-05 -0.00046810064)
(5.0000343 3.4478211e-05 -0.00053288656)
(5.0000343 3.754704e-05 -0.0005932788)
(5.0000349 4.0135472e-05 -0.00064804944)
(5.0000358 4.2889327e-05 -0.00069769641)
(5.0000369 4.5856767e-05 -0.00074218309)
(5.000038 4.9153581e-05 -0.00078172713)
(5.0000393 5.2734033e-05 -0.00081648112)
(5.0000407 5.6568098e-05 -0.00084666773)
(5.0000422 6.062632e-05 -0.00087254611)
(5.0000439 6.4893455e-05 -0.00089440029)
(5.0000459 6.936751e-05 -0.00091252332)
(5.000048 7.4051111e-05 -0.00092719268)
(5.0000503 7.8947903e-05 -0.0009386493)
(5.0000527 8.4070122e-05 -0.00094708573)
(5.0000553 8.9428308e-05 -0.0009526277)
(5.0000581 9.5027664e-05 -0.00095532842)
(5.000061 0.00010087581 -0.00095516442)
(5.000064 0.00010697446 -0.00095203762)
(5.0000671 0.00011332388 -0.00094577793)
(5.0000703 0.00011991666 -0.00093614867)
(5.0000736 0.00012673358 -0.00092285984)
(5.0000769 0.00013375597 -0.00090558555)
(5.0000803 0.00014094074 -0.00088397049)
(5.0000837 0.00014821848 -0.00085763665)
(5.000087 0.00015551346 -0.00082621772)
(5.0000904 0.00016273411 -0.00078937583)
(5.0000937 0.00016977153 -0.0007468321)
(5.0000969 0.00017655611 -0.00069820359)
(5.0000998 0.00018318825 -0.00064343914)
(5.0001017 0.00018968307 -0.00058178504)
(5.0001038 0.00019692951 -0.0005148958)
(5.0001044 0.00020248976 -0.00044006705)
(5.0001073 0.00021173644 -0.00036356577)
(5.0001081 0.00021170393 -0.00027983658)
(5.0001114 0.00022211744 -0.00020037543)
(5.0001125 0.00021883057 -0.00012107299)
(5.0001089 0.00022492695 -4.3077966e-05)
(5.0000788 0.00064810235 -4.5089332e-05)
(5.0000862 0.0010745008 -5.9085554e-05)
(5.0000774 0.0015009315 -6.1705161e-05)
(5.0000739 0.001948195 -6.566062e-05)
(5.00006 0.0023548469 -6.5079833e-05)
(5.0000399 0.0027397337 -6.2380597e-05)
(5.0000176 0.0030604931 -6.8187827e-05)
(4.9999925 0.0033167453 -7.7348103e-05)
(4.9999704 0.0034856618 -9.2017493e-05)
(4.9999359 0.0035472257 -0.00010275429)
(4.999896 0.0034907384 -0.00011421096)
(4.9998445 0.0032713087 -0.00011240426)
(4.9997964 0.0029235346 -0.00011987286)
(4.9997615 0.0023920881 -0.00012435051)
(4.9997219 0.0017843673 -0.00013837716)
(4.9997185 0.0010901603 -0.00015900551)
(4.9997043 0.00037444493 -0.00016758602)
(4.9997355 0.00036152017 -0.00048619989)
(4.9997304 0.00035374454 -0.00079544085)
(4.9997486 0.00033295504 -0.0010933145)
(4.999757 0.00032868676 -0.0013873594)
(4.9997795 0.00031240541 -0.0016354974)
(4.9998012 0.00030696428 -0.0018511498)
(4.9998214 0.00029236566 -0.0020158524)
(4.9998397 0.00027885478 -0.0021418009)
(4.9998549 0.00026212247 -0.0022299322)
(4.9998685 0.00024544552 -0.0022871895)
(4.9998808 0.00022919443 -0.0023179571)
(4.9998922 0.00021395127 -0.0023269528)
(4.9999027 0.00019962962 -0.002318112)
(4.9999121 0.00018618869 -0.0022950191)
(4.9999206 0.0001735642 -0.0022608031)
(4.9999282 0.00016171058 -0.0022181765)
(4.999935 0.00015061191 -0.002169439)
(4.999941 0.00014023608 -0.0021164913)
(4.9999463 0.00013053911 -0.002060881)
(4.9999511 0.00012149053 -0.0020038281)
(4.9999554 0.00011305135 -0.0019462411)
(4.9999594 0.0001051808 -0.0018887286)
(4.999963 9.7841552e-05 -0.0018316061)
(4.9999664 9.0987353e-05 -0.0017749135)
(4.9999696 8.4567784e-05 -0.0017184116)
(4.9999728 7.8552862e-05 -0.0016616289)
(4.999976 7.2908208e-05 -0.0016038836)
(4.9999792 6.7596272e-05 -0.0015443381)
(4.9999824 6.2591536e-05 -0.0014820433)
(4.9999857 5.7851803e-05 -0.0014160183)
(4.9999889 5.3322495e-05 -0.0013453171)
(4.9999921 4.8957395e-05 -0.0012690701)
(4.9999952 4.4657654e-05 -0.001186624)
(4.9999978 4.0542783e-05 -0.0010971969)
(5.0000006 3.6916019e-05 -0.001000519)
(5.0000055 3.4482306e-05 -0.00089565318)
(5.0000095 3.2609698e-05 -0.00078472707)
(5.0000141 3.2570857e-05 -0.00066426664)
(5.000017 3.2628274e-05 -0.0005432835)
(5.0000175 3.1024544e-05 -0.00041533399)
(5.0000189 3.0874999e-05 -0.0002955677)
(5.0001182 9.0609373e-05 -0.00089961675)
(5.0001087 9.6111271e-05 -0.0012750574)
(5.0000991 0.00010239974 -0.0016582872)
(5.0000833 0.00010573933 -0.002035903)
(5.0000647 0.00010800823 -0.0023985349)
(5.0000429 0.000112857 -0.0027392959)
(5.0000198 0.00011977485 -0.0030573404)
(4.9999961 0.00012933938 -0.0033522221)
(4.999972 0.00014069896 -0.003624759)
(4.9999475 0.00015297129 -0.0038765756)
(4.9999228 0.0001660308 -0.0041091928)
(4.9998982 0.00017985817 -0.0043248675)
(4.999874 0.00019449292 -0.0045262267)
(4.9998503 0.00021002069 -0.0047161904)
(4.999827 0.00022652071 -0.0048977913)
(4.9998039 0.00024406639 -0.0050739514)
(4.9997807 0.00026275951 -0.0052472561)
(4.999757 0.00028271846 -0.0054198024)
(4.9997323 0.00030406088 -0.0055930467)
(4.9997059 0.00032692465 -0.0057677031)
(4.9996773 0.0003514311 -0.0059436807)
(4.9996459 0.00037769236 -0.0061200097)
(4.9996109 0.00040586084 -0.0062948258)
(4.9995719 0.00043607108 -0.006465376)
(4.999528 0.00046842347 -0.0066279459)
(4.9994786 0.00050302887 -0.0067778168)
(4.9994231 0.00053998629 -0.0069091776)
(4.9993607 0.00057931979 -0.0070150194)
(4.9992909 0.00062104569 -0.007087039)
(4.999213 0.00066518013 -0.0071156313)
(4.9991266 0.00071162967 -0.007089868)
(4.9990314 0.0007600989 -0.0069975319)
(4.9989271 0.00080930229 -0.0068250413)
(4.9988135 0.00085754992 -0.0065576098)
(4.9986909 0.00090052751 -0.0061788382)
(4.9985609 0.00094146227 -0.0056728312)
(4.9984311 0.00097286057 -0.0050282218)
(4.9983025 0.0010143545 -0.0042508016)
(4.998203 0.0010466293 -0.0033681501)
(4.9981058 0.0010891583 -0.0024258781)
(4.9980485 0.0011200486 -0.0014767135)
(4.9979561 0.0011321476 -0.00050401319)
(4.9939142 0.0020257167 -0.00089941435)
(4.9869683 0.0030221942 -0.0013179227)
(4.9763463 0.0043089718 -0.0018404819)
(4.9611388 0.0058648383 -0.0024390448)
(4.9401997 0.007923268 -0.0031843949)
(4.9124111 0.010693045 -0.0041600136)
(4.8757771 0.014594366 -0.0055159856)
(4.8282327 0.020352891 -0.0075524086)
(4.7666385 0.029526904 -0.010901482)
(4.6877592 0.04448117 -0.015619527)
(4.58056 0.081924567 -0.028608505)
(4.4328148 0.090193136 -0.04710065)
(4.2568545 0.083424968 -0.040572557)
(4.0178026 0.094083251 -0.040518782)
(3.730385 0.13307417 -0.053481478)
(3.2159853 0.2788714 -0.10263485)
(2.2847298 0.22013398 -0.2693766)
(1.4610365 0.70949894 -0.49083523)
(1.7258085 1.4851216 -0.25491541)
(2.7278232 2.1859049 -0.073568579)
(3.1954697 2.4426808 -0.034383229)
(3.8047102 2.3658486 -0.037281793)
(4.1115247 2.3346874 -0.018534608)
(4.4107815 2.2128185 -0.0018213957)
(4.6735623 1.9960033 0.00085488659)
(4.8042011 1.9202682 0.010174327)
(4.9623506 1.8107431 0.016975197)
(5.07336 1.6759995 0.014040799)
(5.1858845 1.5425888 0.0090381202)
(5.2528896 1.4850208 0.011527363)
(5.3339773 1.4054756 0.013999874)
(5.3923085 1.3169832 0.01325018)
(5.4274543 1.2360503 0.0073023682)
(5.4717926 1.179539 0.0035670159)
(5.4972635 1.1417593 0.0011181362)
(5.534415 1.1034607 0.0082857233)
(5.572423 1.0449712 0.013289759)
(5.5944648 1.0051033 0.0091867623)
(5.6204516 0.95220683 0.0083086774)
(5.6356973 0.91880431 0.0029261928)
(5.6502739 0.87457419 0.0088595835)
(5.6675279 0.86200723 0.012315633)
(5.6992119 0.82341131 0.019862061)
(5.7242399 0.77550104 0.019297746)
(5.7344176 0.74267084 0.017016789)
(5.7401326 0.68976283 0.013619412)
(5.7491371 0.67537629 0.004770619)
(5.7626452 0.64555744 0.0084330615)
(5.776962 0.61843782 0.0078956932)
(5.7913811 0.57329924 0.0094667683)
(5.7990104 0.5438829 0.0070009523)
(5.8102028 0.49970057 0.009418133)
(5.8176079 0.46789526 0.0079873393)
(5.8271236 0.42861084 0.0075053022)
(5.831875 0.39385188 0.0075844047)
(5.8382107 0.3612333 0.0063151219)
(5.8425708 0.32560177 0.0069687963)
(5.84629 0.29812823 0.005543951)
(5.8493949 0.26516697 0.0063273989)
(5.8500255 0.23949106 0.0053363553)
(5.8530841 0.21360143 0.0056046911)
(5.8499413 0.18298138 0.0048074152)
(5.8533458 0.17093843 0.004929409)
(5.8548139 0.1335171 0.0057328909)
(5.8487843 0.12011247 0.0028420152)
(5.8499215 0.11804914 0.0021298421)
(5.8510396 0.10126863 0.0031785489)
(5.8474897 0.082716244 0.0029440207)
(5.8484556 0.067649974 0.0041630716)
(5.8466302 0.044553706 0.0058176843)
(5.8379678 0.025587006 0.0036753073)
(5.8385156 0.016633302 0.0020593187)
(5.8388398 -0.001881839 0.0028745424)
(5.8315526 -0.020533813 0.0022118038)
(5.826903 -0.029645846 0.00087010581)
(5.8274912 -0.037349649 0.0031037609)
(5.823806 -0.056102134 0.003310301)
(5.8180538 -0.06893343 0.0022944195)
(5.8161054 -0.081672158 0.0011563086)
(5.8132599 -0.096213725 0.0025298375)
(5.8051763 -0.1130708 0.0052183855)
(5.7975496 -0.11908473 0.0042057811)
(5.7998681 -0.12563843 0.0031394751)
(5.7944791 -0.14891263 0.0035815591)
(5.7809465 -0.15886768 0.0023699158)
(5.7815222 -0.16658746 0.0022027336)
(5.7750942 -0.18895003 0.0031205437)
(5.7622537 -0.1979653 0.0021535442)
(5.7611489 -0.20710643 0.0021685594)
(5.7535494 -0.22730641 0.0026217608)
(5.7405613 -0.23638536 0.0016268575)
(5.7389635 -0.2440525 0.0017314064)
(5.7309956 -0.26287011 0.0023019482)
(5.7159019 -0.27200856 0.0013618112)
(5.7147347 -0.27683184 0.001191917)
(5.7081602 -0.29475046 0.00253975)
(5.6920145 -0.30523456 0.001280323)
(5.6883857 -0.30896672 0.00040318481)
(5.6821628 -0.32304774 0.0024910874)
(5.6693265 -0.33400323 0.0017497465)
(5.6607879 -0.34001493 0.000400403)
(5.6551888 -0.34806685 0.00096467361)
(5.6446252 -0.36176795 0.0019939827)
(5.6333644 -0.36768957 0.00090436298)
(5.6277572 -0.37178573 0.00062596703)
(5.6160905 -0.38223759 0.0036192129)
(5.6009418 -0.38965676 0.0040360864)
(5.1026836 0.0033799745 -0.026849044)
(5.0890165 0.0032630143 -0.025310347)
(5.0765634 0.0030937517 -0.023375269)
(5.0654431 0.0028890335 -0.021239638)
(5.0556587 0.0026637157 -0.019057051)
(5.0471407 0.0024297708 -0.016935318)
(5.0397773 0.0021963487 -0.014942608)
(5.033439 0.0019700035 -0.013115593)
(5.0279942 0.0017550893 -0.01146813)
(5.0233192 0.0015541891 -0.0099987935)
(5.0193031 0.0013685338 -0.0086967955)
(5.0158501 0.0011983627 -0.0075462797)
(5.0128793 0.0010431885 -0.0065292287)
(5.0103239 0.00090200548 -0.0056273079)
(5.0081297 0.00077346783 -0.0048229799)
(5.0062535 0.00065621777 -0.0041003903)
(5.0046628 0.00054916168 -0.0034458688)
(5.003335 0.00045194508 -0.0028490548)
(5.0022548 0.00036363455 -0.0023012415)
(5.0014123 0.000284018 -0.0018000953)
(5.0007925 0.00021077363 -0.0013404168)
(5.0003717 0.00014400493 -0.00092363195)
(5.0003524 0.00015594717 -0.0015494355)
(5.0003256 0.00016804676 -0.0022013283)
(5.0002906 0.0001792544 -0.0028634234)
(5.0002446 0.00018634879 -0.0035163024)
(5.0001906 0.00019225665 -0.0041420328)
(5.0001283 0.00020145171 -0.0047307247)
(5.0000609 0.0002142393 -0.005279018)
(4.9999899 0.0002308285 -0.0057873211)
(4.9999161 0.00025030258 -0.0062568043)
(4.999841 0.00027178307 -0.0066899506)
(4.9997655 0.00029482945 -0.0070897388)
(4.9996904 0.00031937886 -0.0074601199)
(4.9996166 0.00034546314 -0.0078057343)
(4.9995443 0.0003731852 -0.0081317503)
(4.9994732 0.00040264247 -0.0084435474)
(4.9994029 0.00043395449 -0.0087462757)
(4.9993324 0.00046730156 -0.0090445134)
(4.9992602 0.0005029012 -0.0093419634)
(4.9991848 0.00054098058 -0.009641203)
(4.9991046 0.00058178851 -0.0099435176)
(4.9990175 0.0006255399 -0.01024875)
(4.9989217 0.00067245757 -0.010555275)
(4.9988152 0.00072282706 -0.010859928)
(4.9986961 0.00077688981 -0.011157954)
(4.9985623 0.00083485277 -0.011442999)
(4.9984118 0.00089691605 -0.011706962)
(4.9982424 0.00096325242 -0.011939868)
(4.9980519 0.0010339088 -0.012129618)
(4.9978385 0.0011089009 -0.012261935)
(4.9976003 0.0011881425 -0.012320172)
(4.9973357 0.0012713049 -0.012285329)
(4.9970438 0.001357559 -0.01213598)
(4.9967243 0.0014449763 -0.011848235)
(4.9963779 0.0015305346 -0.011395655)
(4.996008 0.0016099636 -0.010749583)
(4.9956204 0.001683311 -0.0098807933)
(4.9952313 0.0017494561 -0.0087702838)
(4.9948564 0.0018188565 -0.0074221405)
(4.9945332 0.0018830208 -0.005885947)
(4.9942582 0.0019421676 -0.0042334553)
(4.9940621 0.0019933385 -0.0025612357)
(4.987224 0.0030340571 -0.0038113984)
(4.9767842 0.0043226816 -0.0053277447)
(4.9618361 0.0059320235 -0.0071905022)
(4.9413277 0.0080254278 -0.0095585874)
(4.9140176 0.010864079 -0.012639572)
(4.87789 0.014874236 -0.016751379)
(4.8304737 0.020796889 -0.022448342)
(4.7671611 0.030252639 -0.030857997)
(4.6817752 0.047534378 -0.04289246)
(4.537676 0.10626157 -0.057197005)
(4.3801325 0.10580644 -0.052153554)
(4.3854824 0.10284533 -0.084344017)
(4.4110552 0.08112663 -0.13825575)
(4.4423101 0.073472672 -0.14046631)
(4.4070457 0.075257641 -0.16968298)
(4.330541 0.07614372 -0.1872119)
(4.2678406 0.087364136 -0.17288783)
(4.2101158 0.10417343 -0.12623656)
(4.1775813 0.11424312 -0.093289826)
(4.1411517 0.081217791 -0.096376665)
(3.9952459 0.089565053 -0.09557539)
(3.7921014 0.12392876 -0.11855937)
(3.1213418 0.24277884 -0.20577057)
(2.1310645 0.3260222 -0.24589113)
(1.616593 0.92167984 -0.533234)
(1.5465235 0.99169199 -0.43004688)
(1.9436853 1.5413228 -0.29039235)
(2.7196215 2.0716825 -0.28360529)
(3.2342246 2.4118437 -0.23515227)
(3.7920613 2.4047657 -0.14518728)
(4.102244 2.3831822 -0.072632096)
(4.4168521 2.2672809 -0.015560673)
(4.6554805 2.0420999 -0.010965376)
(4.7725979 1.9697952 0.0051335233)
(4.9564952 1.8543094 0.020011116)
(5.0752335 1.7001008 0.024650694)
(5.1682846 1.5687456 0.018470068)
(5.2322605 1.5115701 0.026978779)
(5.3209356 1.4338132 0.032731542)
(5.3943738 1.3368246 0.033520934)
(5.4408895 1.2328852 0.025604642)
(5.4732317 1.1899268 0.020809304)
(5.4946214 1.1622714 0.026367284)
(5.5136222 1.1335981 0.026126161)
(5.5542925 1.098708 0.029387083)
(5.4807996 1.1995045 0.041490279)
(5.4433509 1.2678993 0.0446454)
(5.3929043 1.3661394 0.048697639)
(5.3113272 1.4703021 0.042253859)
(5.221355 1.5466434 0.041192892)
(5.1823291 1.6081239 0.045865361)
(5.0557659 1.7818375 0.038870571)
(4.9208962 1.9113257 0.020308905)
(4.7295011 2.0201624 0.0053152934)
(4.6526959 2.0912297 0.001020034)
(4.3172995 2.3562407 -0.032653467)
(3.9883533 2.3855662 -0.081573071)
(3.7261154 2.3149118 -0.20477025)
(3.1170901 2.2837849 -0.36731045)
(2.4131774 1.7024656 -0.51556117)
(2.3849892 1.7364913 -0.75134179)
(1.4467026 0.80604502 -1.1322061)
(1.7418439 0.19439776 -0.99096983)
(1.9133818 0.20044496 -0.87481287)
(2.3671209 0.21934422 -0.75522697)
(2.8597793 0.11931799 -0.59510933)
(3.0080447 0.12771444 -0.51327346)
(2.8754513 0.1583207 -0.56896917)
(2.5522389 0.20159252 -0.77560558)
(1.9451256 0.095918578 -1.0354125)
(1.4636229 0.29397617 -1.173706)
(1.6168071 0.98714712 -1.0336123)
(1.5538337 0.65436928 -1.0808559)
(2.1208435 1.6300798 -0.83398923)
(2.5345366 2.0504234 -0.47569678)
(3.0479245 2.3094706 -0.37757838)
(3.3500878 2.6081467 -0.2959795)
(3.779102 2.4213873 -0.088710752)
(4.0501448 2.4363469 -0.19202959)
(4.3440605 2.4060885 -0.099847872)
(4.5172034 2.3391448 -0.059255117)
(4.6773205 2.0755114 0.0064841361)
(4.8080043 2.0394285 -0.021410918)
(4.912832 1.9583707 0.0059515462)
(5.0613499 1.8293707 0.033111531)
(5.1367182 1.7263845 0.037606384)
(5.2022593 1.5862257 0.047266228)
(5.2659705 1.5595192 0.04468044)
(5.3157443 1.4922902 0.05054808)
(5.3882497 1.4040386 0.058045017)
(5.4486315 1.307594 0.056342271)
(5.4915914 1.2200519 0.049175274)
(5.550208 1.1263811 0.054910897)
(5.5672616 1.0836384 0.050947503)
(5.5705862 1.0574586 0.032998344)
(5.5790996 1.0276512 0.030809623)
(5.5981291 1.0038118 0.024936054)
(5.6214331 0.96817732 0.02685593)
(5.6384083 0.92859862 0.018069457)
(5.6437357 0.90228939 0.019566361)
(5.6331699 0.92322013 0.04022355)
(5.6056738 0.99643779 0.037173722)
(5.60604 1.0234365 0.04947523)
(5.6323634 0.95488599 0.04586805)
(5.6716466 0.90539177 0.043606842)
(5.6615384 0.88613567 0.03534026)
(5.7067686 0.82984358 0.029042711)
(5.7315499 0.78838637 0.026552975)
(5.7257164 0.81924062 0.040259301)
(5.7128605 0.85307457 0.053005041)
(5.6840948 0.89167806 0.051535036)
(5.6733415 0.91536382 0.051727561)
(5.6468749 0.97997304 0.060539766)
(5.6138889 1.0426161 0.064080406)
(5.5967344 1.0870798 0.061047786)
(5.5402778 1.1771741 0.061237769)
(5.5085215 1.254674 0.065723023)
(5.4634508 1.3493035 0.072451624)
(5.3939754 1.4538955 0.070508747)
(5.3179315 1.5362974 0.067895467)
(5.2797044 1.6001741 0.066150903)
(5.1490727 1.7810231 0.054661758)
(5.0412545 1.9194164 0.039550603)
(4.8816786 2.038662 0.010474812)
(4.8098876 2.1148009 -0.0034010349)
(4.4841957 2.423937 -0.037071317)
(4.2156024 2.4926688 -0.08587677)
(3.9479393 2.4313467 -0.24733915)
(3.2720415 2.4585903 -0.3224276)
(2.6455361 2.0204363 -0.64739637)
(2.3536703 1.5273839 -1.070443)
(1.6758713 0.78799166 -1.3864881)
(1.5638823 0.27322256 -1.2973474)
(1.8966653 0.089357672 -1.1223215)
(1.9195689 0.26297818 -1.2167576)
(2.051094 0.30081356 -1.0853617)
(2.9925507 0.23193584 -0.68331908)
(3.6055446 0.18117274 -0.31770916)
(3.965479 0.12072933 -0.2199793)
(3.9107916 0.1344589 -0.1873448)
(3.3643065 0.22027534 -0.3719582)
(3.7431921 0.52714393 -0.29246478)
(3.5785675 0.94590091 -0.334197)
(3.4914006 1.0378408 -0.20094699)
(3.3912574 1.1239207 -0.15911018)
(3.3293789 1.2705247 -0.073559886)
(3.2351087 1.3956867 -0.074414155)
(3.4117972 0.99811629 -0.020624769)
(3.4803306 0.65278794 -0.043849417)
(3.9392113 0.34259532 -0.035814277)
(4.1261863 0.1957969 -0.040549539)
(4.2566472 0.13160926 -0.039047442)
(4.3654269 0.15414488 -0.040567221)
(4.4087799 0.214896 -0.034815592)
(4.5634537 0.19125877 -0.037235408)
(4.6968022 0.12302442 -0.016908853)
(4.7774242 0.084384914 -0.010748898)
(4.8366636 0.059594723 -0.0075010057)
(4.8820273 0.043266181 -0.0054498698)
(4.9166082 0.031767741 -0.0040829261)
(4.9429178 0.02345351 -0.0031063689)
(4.9627461 0.017278135 -0.0023615315)
(4.977257 0.01257385 -0.0017588106)
(4.9874293 0.0088675786 -0.0012551838)
(4.9941187 0.0058800464 -0.00083944037)
(4.9980347 0.0033498297 -0.00048114671)
(4.9981941 0.0054749609 -0.00042641775)
(4.9984483 0.0073969462 -0.00037726995)
(4.998726 0.0089733901 -0.00034393878)
(4.9990343 0.010083645 -0.00031957652)
(4.999331 0.010716423 -0.00031228996)
(4.9995997 0.010894338 -0.00029299375)
(4.9998317 0.010691757 -0.00027092509)
(5.0000255 0.010169892 -0.00024447899)
(5.0001859 0.0093875156 -0.00022723888)
(5.0003128 0.0083941488 -0.0002208805)
(5.0004113 0.0072348119 -0.00022575095)
(5.0004901 0.0059602944 -0.00021955601)
(5.0005361 0.0046211758 -0.00019731142)
(5.0005835 0.003278889 -0.00017013934)
(5.0006054 0.0019734023 -0.00013900072)
(5.00069 0.00066816133 -0.0001258475)
(5.0019926 0.0011504659 -0.00020294994)
(5.0041895 0.0016464021 -0.00028322987)
(5.0074421 0.0022187874 -0.00037000249)
(5.0118916 0.0028083034 -0.00045473237)
(5.0176611 0.0034525003 -0.00054562477)
(5.0247886 0.0041248018 -0.00062633677)
(5.0333547 0.0048318275 -0.00069719954)
(5.0434166 0.0055605244 -0.00074963341)
(5.0550463 0.0062973469 -0.0007824212)
(5.0682898 0.0070242823 -0.00079265041)
(5.0831521 0.0077176502 -0.00078397085)
(5.0995843 0.0083495373 -0.00075367176)
(5.117472 0.0088890202 -0.00070012975)
(5.1366273 0.0093041224 -0.00062328608)
(5.1567867 0.0095654626 -0.00052516992)
(5.1776264 0.0096496928 -0.00040767823)
(5.1987509 0.0095479534 -0.00027373852)
(5.2197888 0.009246281 -0.00012547)
(5.240238 0.0087426384 3.4871708e-05)
(5.2597256 0.0080468565 0.00020522246)
(5.2778435 0.007190779 0.00038046965)
(5.294245 0.0062006117 0.00055346365)
(5.3086554 0.0051056201 0.00071857726)
(5.3208371 0.0039379448 0.00087202948)
(5.3306496 0.0027230985 0.0010110429)
(5.3379474 0.0014889963 0.0011341047)
(5.3427421 0.00022601541 0.0012413841)
(5.3448853 -0.0010463747 0.0013329385)
(5.3446233 -0.0019895147 0.0013871618)
(5.3421836 -0.0030454422 0.0014393685)
(5.3374589 -0.0040464912 0.001478099)
(5.3306458 -0.004964167 0.0015028804)
(5.3219294 -0.0057847899 0.0015156563)
(5.3114914 -0.0065032659 0.0015183685)
(5.3142157 -0.019865681 0.0016070202)
(5.3248718 -0.017681262 0.001610024)
(5.3337924 -0.015194512 0.0016032703)
(5.34079 -0.012425426 0.0015844888)
(5.3456899 -0.0094087941 0.0015528619)
(5.3482978 -0.0061793215 0.0015056139)
(5.3484894 -0.0028393698 0.0014397157)
(5.3463101 0.00076489203 0.0013519206)
(5.3415513 0.0045432072 0.0012414354)
(5.3342231 0.0083160528 0.0011108061)
(5.324326 0.012036039 0.00096051078)
(5.3119865 0.015613353 0.00079245983)
(5.2973512 0.018965578 0.00061071176)
(5.2806568 0.022000002 0.00042114028)
(5.2621943 0.024627225 0.00022997245)
(5.2423187 0.026745587 4.0681977e-05)
(5.22145 0.02828991 -0.00014230438)
(5.1999725 0.029222202 -0.00031354374)
(5.1784238 0.02952972 -0.00046630648)
(5.1571853 0.029243821 -0.00059706928)
(5.1366785 0.028418334 -0.00070401972)
(5.11724 0.027128661 -0.0007852771)
(5.0991392 0.025459629 -0.00083994629)
(5.0825626 0.023509944 -0.00086815716)
(5.0676184 0.021374681 -0.00087359581)
(5.0543474 0.019139724 -0.00086045557)
(5.0427346 0.01687613 -0.00082430004)
(5.0327256 0.014637985 -0.00076517578)
(5.0242452 0.012465406 -0.00068889235)
(5.0172129 0.010389145 -0.00060364176)
(5.0115504 0.0084267143 -0.00051416351)
(5.007183 0.0066028454 -0.00042450224)
(5.0040037 0.004916951 -0.00033091948)
(5.0018651 0.0033833292 -0.00023413045)
(5.0017809 0.0056605282 -0.0002867985)
(5.0038369 0.0082777969 -0.00040413367)
(5.0069114 0.011154783 -0.00051213683)
(5.0111527 0.014283592 -0.00061106959)
(5.0166723 0.017643145 -0.00070597073)
(5.0235607 0.021206639 -0.000795677)
(5.0319121 0.024942448 -0.00087484435)
(5.0418296 0.028806878 -0.00093699225)
(5.053413 0.032734378 -0.00097800457)
(5.0667415 0.036629278 -0.00099711092)
(5.0818508 0.040374247 -0.00099232485)
(5.0987159 0.043814927 -0.00095796561)
(5.1172359 0.046777795 -0.00089010352)
(5.1372259 0.049085928 -0.00078980293)
(5.1584025 0.050570719 -0.00065661869)
(5.1804009 0.05109511 -0.00049276891)
(5.2027527 0.050570153 -0.00030185777)
(5.2250522 0.048943022 -8.7306368e-05)
(5.2467018 0.04624368 0.00013992178)
(5.2672817 0.042549616 0.00036877864)
(5.2863506 0.037983916 0.00058914958)
(5.3035316 0.032695659 0.00079681782)
(5.3185232 0.026849166 0.00098794551)
(5.3311069 0.020629043 0.0011630219)
(5.341134 0.014184709 0.0013168882)
(5.3485089 0.00767315 0.0014463043)
(5.3532443 0.0012198664 0.0015510082)
(5.3553655 -0.0049762797 0.0016319074)
(5.3549774 -0.010782126 0.0016891403)
(5.352107 -0.016352396 0.0017266606)
(5.3469127 -0.021549782 0.0017483324)
(5.3395767 -0.026305006 0.0017562083)
(5.3302802 -0.030569499 0.0017506179)
(5.3192224 -0.034312693 0.0017333484)
(5.3268498 -0.050154955 0.0018708612)
(5.3385582 -0.044761651 0.0019070826)
(5.3484716 -0.038610673 0.0019312874)
(5.3563796 -0.03174285 0.0019410234)
(5.3620892 -0.024217131 0.0019342211)
(5.365413 -0.016119477 0.0019089992)
(5.3661735 -0.0076168586 0.0018625937)
(5.3642904 0.0013856933 0.001792315)
(5.35967 0.010744039 0.0016953784)
(5.352271 0.020241731 0.0015706546)
(5.3420743 0.029683993 0.0014202693)
(5.3291435 0.03883723 0.0012482452)
(5.3135971 0.047454788 0.0010537134)
(5.2956648 0.055274461 0.00083248858)
(5.2756551 0.062046463 0.00058503508)
(5.2539627 0.067541879 0.00031181924)
(5.2310584 0.071571473 2.9857393e-05)
(5.2074397 0.073999817 -0.00024211308)
(5.1837596 0.074775435 -0.0004830174)
(5.1605127 0.073966649 -0.00069138683)
(5.13823 0.071706841 -0.00086280076)
(5.117326 0.06821092 -0.00099473426)
(5.0981088 0.063741926 -0.0010852799)
(5.0807681 0.058577716 -0.0011335189)
(5.0653903 0.052986783 -0.0011432828)
(5.0519694 0.047203684 -0.0011207859)
(5.0404315 0.041415176 -0.0010720903)
(5.0306583 0.035756903 -0.0010004321)
(5.0225119 0.030317633 -0.00091080863)
(5.015854 0.02515689 -0.00081035992)
(5.010561 0.020315409 -0.00070476133)
(5.0065206 0.015826531 -0.00059389807)
(5.0036062 0.011717856 -0.00047260667)
(5.0016624 0.0079953295 -0.00033872506)
(5.0015045 0.010317443 -0.0003747721)
(5.0032711 0.015148625 -0.00052093751)
(5.0059391 0.020504349 -0.00065569203)
(5.009671 0.026385682 -0.00078063588)
(5.0146141 0.032768077 -0.00090063494)
(5.020913 0.039618242 -0.0010157666)
(5.0287322 0.046893636 -0.0011196577)
(5.0382595 0.054526112 -0.0012043496)
(5.0496912 0.062399182 -0.001263724)
(5.0632077 0.070329418 -0.0012920313)
(5.0789428 0.078066799 -0.0012806612)
(5.0969537 0.085276391 -0.0012212849)
(5.1171823 0.091564456 -0.0011087532)
(5.1394364 0.096514923 -0.000945563)
(5.1633669 0.099732924 -0.00073517083)
(5.1884756 0.10090238 -0.00048108285)
(5.2141265 0.09983574 -0.00018966771)
(5.2396909 0.096460287 0.00013536894)
(5.264427 0.0908591 0.00046705353)
(5.2877299 0.08324431 0.00077922239)
(5.3090859 0.07390085 0.0010553325)
(5.3280685 0.063172815 0.0012949296)
(5.3443637 0.051419322 0.001498067)
(5.3577606 0.039002742 0.0016679799)
(5.3681609 0.026262974 0.0018093603)
(5.3755353 0.013504726 0.0019226184)
(5.3799195 0.00098695658 0.0020081438)
(5.381387 -0.011065141 0.0020674519)
(5.38005 -0.022450729 0.0021012592)
(5.3760338 -0.033231529 0.0021118904)
(5.3695501 -0.043215193 0.0021029077)
(5.3607967 -0.052304824 0.0020771864)
(5.3499808 -0.060431634 0.0020373444)
(5.3373268 -0.06754591 0.001985818)
(5.3505708 -0.086582958 0.00207952)
(5.364482 -0.077710492 0.0021401073)
(5.3765051 -0.067554247 0.0021896473)
(5.3863995 -0.056169088 0.0022257105)
(5.3939413 -0.043629753 0.0022458156)
(5.3989058 -0.030057296 0.0022465475)
(5.4010562 -0.015601201 0.0022234785)
(5.4002088 -0.00029387063 0.0021750618)
(5.3962164 0.0156478 0.0020999171)
(5.3889551 0.031965059 0.0019965879)
(5.3783484 0.048341163 0.0018600431)
(5.3643896 0.064400932 0.0016872998)
(5.347163 0.079717066 0.0014764378)
(5.3268361 0.093808899 0.0012216973)
(5.3037176 0.10617936 0.00091546623)
(5.278253 0.1163289 0.00056135609)
(5.2510205 0.12383632 0.00018471707)
(5.2227712 0.12837248 -0.00018803508)
(5.1943809 0.12979636 -0.00052967572)
(5.166671 0.12816658 -0.00083273364)
(5.1404443 0.12374181 -0.0010826592)
(5.1163333 0.11698096 -0.0012704433)
(5.0947528 0.10846715 -0.0013939295)
(5.0758928 0.098792676 -0.0014513916)
(5.059758 0.088513251 -0.001452314)
(5.0462089 0.078088888 -0.0014090193)
(5.0350156 0.067862738 -0.0013329602)
(5.025904 0.058064425 -0.0012295)
(5.0185952 0.048827295 -0.0011064998)
(5.0128342 0.040218222 -0.00097279462)
(5.0084026 0.032270995 -0.00083571424)
(5.0051138 0.025005698 -0.00069557805)
(5.0027941 0.0184327 -0.00054762655)
(5.0012751 0.012534941 -0.00039003127)
(5.0009784 0.01455055 -0.00038973145)
(5.0021617 0.021431169 -0.00055973412)
(5.0040063 0.029148451 -0.00072422516)
(5.0066857 0.037747283 -0.00088396106)
(5.0104009 0.047244797 -0.0010440976)
(5.0153893 0.057650628 -0.0012042625)
(5.0219363 0.068960989 -0.0013541549)
(5.0303821 0.081126349 -0.0014850647)
(5.041116 0.094009311 -0.0015874751)
(5.0545444 0.10733765 -0.0016507718)
(5.071042 0.12067587 -0.0016673105)
(5.0908839 0.1334056 -0.0016215781)
(5.1141629 0.14474843 -0.0014960039)
(5.1407073 0.15382105 -0.0012894179)
(5.1700037 0.15977452 -0.0010006653)
(5.2012147 0.16197 -0.0006420932)
(5.2332666 0.16006461 -0.00023718125)
(5.2650645 0.15404046 0.00018940218)
(5.2955267 0.14415955 0.00061449821)
(5.3237439 0.13092783 0.0010107824)
(5.3490561 0.11496871 0.0013584881)
(5.3710124 0.096979547 0.0016415179)
(5.3893311 0.077609291 0.0018665494)
(5.403862 0.057456542 0.0020436907)
(5.4145792 0.037051737 0.0021783853)
(5.4215562 0.016851518 0.0022755668)
(5.424935 -0.0027736075 0.0023424354)
(5.4249047 -0.021529991 0.0023814146)
(5.4216698 -0.03919756 0.0023949642)
(5.4154726 -0.055653875 0.0023845063)
(5.4065658 -0.070820061 0.0023549139)
(5.3952235 -0.084540987 0.0023105113)
(5.3816867 -0.096745498 0.002253444)
(5.3662095 -0.10738256 0.0021860519)
(5.3836896 -0.13015516 0.0023433007)
(5.4010334 -0.11777135 0.0024219311)
(5.4163918 -0.10352326 0.0024910835)
(5.4295003 -0.087449815 0.0025488179)
(5.4400739 -0.069647532 0.0025930023)
(5.4478319 -0.05020447 0.002618921)
(5.4524653 -0.029222332 0.0026202892)
(5.4536864 -0.0068394555 0.0025943477)
(5.4512149 0.016722717 0.0025372853)
(5.4447812 0.041145424 0.0024458457)
(5.4341512 0.066018843 0.0023103391)
(5.4191554 0.090810318 0.0021238966)
(5.39973 0.11487528 0.0018771937)
(5.3759469 0.13745896 0.0015561874)
(5.3480326 0.15773384 0.0011605413)
(5.3164604 0.174785 0.00070495259)
(5.2819562 0.18769726 0.00021084067)
(5.2455833 0.1956904 -0.00029665706)
(5.2087315 0.19827469 -0.00078914158)
(5.1728863 0.19535536 -0.0012254605)
(5.1395528 0.18736944 -0.0015722686)
(5.109889 0.17526554 -0.001809834)