/*--------------------------------*- C++ -*----------------------------------*\
| =========                 |                                                 |
| \\      /  F ield         | OpenFOAM: The Open Source CFD Toolbox           |
|  \\    /   O peration     | Version:  v2012                                 |
|   \\  /    A nd           | Website:  www.openfoam.com                      |
|    \\/     M anipulation  |                                                 |
\*---------------------------------------------------------------------------*/
FoamFile
{
    version     2.0;
    format      ascii;
    class       volScalarField;
    location    "100";
    object      k;
}
// * * * * * * * * * * * * * * * * * * * * * * * * * * * * * * * * * * * * * //

dimensions      [0 2 -2 0 0 0 0];


internalField   nonuniform List<scalar> 
33282
(
0.027199737
0.025604272
0.024069058
0.022595084
0.021183252
0.019834325
0.018548975
0.017327742
0.016170939
0.015078646
0.014050637
0.013086272
0.012184175
0.011342596
0.010559589
0.0098330237
0.0091606073
0.0085399092
0.0079683917
0.0074434371
0.0069623782
0.0065225288
0.0061212127
0.0057557873
0.0054236647
0.0051223327
0.00484937
0.0046024585
0.0043793922
0.0041780773
0.0039965399
0.0038329098
0.0036854675
0.0035525929
0.003433226
0.0033259049
0.0032310049
0.0031465135
0.0030735667
0.0030091277
0.0029529279
0.0030550285
0.003213417
0.0035544801
0.0032166916
0.0031837991
0.003233357
0.0032002038
0.0032234989
0.0032174524
0.0032293578
0.0032118999
0.0032715866
0.003212293
0.0032261686
0.0032284607
0.0035638052
0.0032660873
0.0031902264
0.0031655967
0.003171032
0.0031733938
0.0031787511
0.0031949087
0.0032268518
0.0032549251
0.0032979181
0.0033210027
0.0034013626
0.0037416487
0.0052941016
0.0062696599
0.0065879871
0.0051436673
0.0062603204
0.012899295
0.0087341772
0.014540135
0.0090672132
0.015192689
0.0092129115
0.01523466
0.0077993711
0.0075647517
0.01494651
0.0076907101
0.0063155262
0.0061898032
0.0059880847
0.0060452313
0.0061039169
0.0062433945
0.0061039831
0.0064148201
0.0061777518
0.0064858305
0.0060169498
0.0062988403
0.0060344958
0.0077784563
0.016391396
0.0078900473
0.0062862225
0.0062124097
0.0062672382
0.0062494697
0.0063123579
0.0062439431
0.0063454306
0.0063337833
0.0062803721
0.0062566682
0.0063035787
0.0063975282
0.0063201094
0.0061200384
0.0063761375
0.0061610769
0.0062826701
0.0061952126
0.0062831377
0.0064996597
0.0063365059
0.0061412574
0.006254207
0.0066167706
0.006552755
0.0064602075
0.0066308878
0.0065834468
0.0064072181
0.0063783586
0.0065714578
0.0065600932
0.0064466503
0.0065540102
0.0066368735
0.0065742176
0.0066523862
0.0066972217
0.0067800709
0.0073624603
0.0092121904
0.017616579
0.01061649
0.017501541
0.0095278478
0.015678379
0.0094170589
0.015392333
0.0090929216
0.015006359
0.0088716466
0.01471103
0.0085375062
0.014064388
0.0072003803
0.0089451853
0.0036553825
0.0034667166
0.0032367169
0.0052757924
0.0063401106
0.0097627161
0.0093492067
0.0112444
0.0093209223
0.013227713
0.0096046128
0.012432713
0.010084333
0.013296112
0.010047675
0.012382484
0.017349125
0.016588117
0.015856964
0.015409321
0.01378278
0.012225023
0.012218463
0.01122616
0.012549166
0.011140662
0.012910995
0.010520764
0.0099252995
0.010861035
0.010572223
0.007468759
0.005500184
0.0036922447
0.003629794
0.0052051922
0.0079356719
0.010372183
0.0090324084
0.0091493279
0.0099182221
0.010328449
0.0098330263
0.0098968956
0.01013999
0.010320233
0.010864351
0.011502648
0.012800438
0.012723322
0.012760188
0.011438844
0.011017269
0.010528773
0.010561708
0.010487864
0.01079439
0.0095745851
0.010788357
0.0096803078
0.0092372194
0.0096543441
0.0088817586
0.0068820372
0.0051002912
0.003652283
0.0033760614
0.0050993869
0.0071004645
0.0086967066
0.0089940118
0.0085233147
0.010049553
0.010519741
0.0085123212
0.0098465674
0.0096343814
0.0097346568
0.009973244
0.0098573668
0.011059345
0.012178948
0.011228778
0.0090000908
0.0086886437
0.009621743
0.0097646833
0.010178955
0.009743505
0.0084822756
0.012308624
0.010827718
0.010355909
0.0085791125
0.0090218055
0.0067013663
0.0050583477
0.0036796615
0.0035442114
0.0052457301
0.0069357577
0.0091883113
0.00867538
0.010111083
0.010828147
0.01214375
0.0096817664
0.0098113375
0.0089888035
0.0087309851
0.0092902794
0.0088846064
0.010362042
0.012582492
0.011569329
0.0098959549
0.0090910577
0.009416139
0.010839337
0.010737121
0.008853515
0.0084754204
0.011160191
0.010120834
0.0087259458
0.0085589713
0.0086516447
0.008060598
0.0051760549
0.0035826191
0.0037591256
0.0052652934
0.0064848981
0.0076762078
0.0088432875
0.0083330734
0.0085040139
0.010383007
0.0083767439
0.0088446009
0.010112328
0.0091470233
0.0096624853
0.0090847743
0.010029027
0.01096804
0.011850535
0.0093145266
0.0094792138
0.0095653115
0.0095620319
0.0094775407
0.0098524391
0.0089147269
0.010731829
0.0090547974
0.0086157546
0.0087353683
0.009357435
0.0074612011
0.0049764489
0.0037968332
0.0036545694
0.005051554
0.0077312274
0.0097157949
0.0086883163
0.008744718
0.0095174244
0.010343586
0.0093643762
0.010003835
0.010023673
0.0092774891
0.009537308
0.0091402794
0.010329828
0.012556847
0.010874694
0.0098736083
0.0096629967
0.0095317286
0.010396242
0.010384667
0.0093017372
0.0088335123
0.010376957
0.0087621043
0.009341545
0.0098196516
0.010751657
0.0085171843
0.0063972044
0.0041997661
0.0035995746
0.0057033694
0.008065523
0.010310959
0.0088030369
0.0088097766
0.0092162395
0.010022966
0.0089687994
0.0097406714
0.0098650419
0.0097985391
0.0094095692
0.0089529136
0.0099375219
0.011231517
0.012387408
0.0095125789
0.0087926469
0.0091884447
0.010255814
0.010406714
0.01082992
0.0095324286
0.012002381
0.011168134
0.010652002
0.009897247
0.0094666152
0.0079120286
0.0060232167
0.0039947802
0.0035658869
0.0050338183
0.0065124207
0.0078766835
0.0090128566
0.0096642145
0.0099405377
0.010103108
0.009044025
0.010378676
0.010194135
0.009712455
0.0098800594
0.0091981881
0.010827112
0.012559471
0.01132028
0.0092311504
0.0094504038
0.010787594
0.010726903
0.0097211527
0.0092743596
0.0092631131
0.010069808
0.0091444212
0.0090002259
0.0090853217
0.0088189762
0.0078739212
0.0055227772
0.0036280901
0.0038860895
0.0055317896
0.007221531
0.0085847301
0.0078570525
0.0085210246
0.009618232
0.010400104
0.0091396299
0.0085039573
0.010022264
0.010359334
0.0099425248
0.0095998236
0.010681541
0.012316762
0.013119893
0.010976554
0.011086575
0.0099569874
0.010487256
0.0098517169
0.0091138499
0.0092091127
0.010867503
0.010113107
0.0091619195
0.0089887831
0.0090905031
0.0072423727
0.0055487052
0.0036512791
0.0038127224
0.005877411
0.0074795321
0.0089936607
0.008579522
0.0090462029
0.0088993242
0.0093583606
0.0092650122
0.0085561995
0.0096715315
0.0098751447
0.0098579023
0.01057197
0.0095924512
0.011143941
0.010887853
0.0095487271
0.0096997047
0.0099210047
0.0099710895
0.010584056
0.010164353
0.0088773715
0.010009442
0.0099343348
0.010189066
0.0095098883
0.0085267778
0.0074921227
0.0056325764
0.003684438
0.003707491
0.0054659473
0.0068116884
0.0078534113
0.0088690441
0.0087103305
0.0097100166
0.0097947671
0.0087833679
0.010176178
0.010029949
0.0099626032
0.010058241
0.0094857068
0.010335523
0.010852098
0.01257212
0.010855708
0.010468045
0.009750832
0.010241371
0.010613689
0.010511892
0.0096541916
0.009870854
0.0085594076
0.0085274467
0.0092205163
0.0093251406
0.0077754194
0.0063010725
0.0039730413
0.0041092021
0.0065359264
0.0079902391
0.0088328499
0.0082560214
0.0084098609
0.010181206
0.010782716
0.0085584972
0.0099123302
0.0098231928
0.010169903
0.0089699929
0.0091897048
0.0096882711
0.011015013
0.011089177
0.0089689014
0.0082813777
0.0098698158
0.010267961
0.011157119
0.010351872
0.0094819343
0.010942148
0.0095938326
0.0095772556
0.0091662336
0.0086937894
0.00811754
0.0064664274
0.0042899885
0.004223181
0.0061854288
0.0077324495
0.0081420469
0.0083142415
0.0090832669
0.0091344148
0.0099931366
0.0085267469
0.0091561412
0.0088926464
0.009119494
0.0091535055
0.0080581629
0.0097418011
0.011078374
0.0096169862
0.008496836
0.0075275108
0.0084341364
0.0091121256
0.0084317284
0.0085174482
0.0083697834
0.0093171233
0.0083445678
0.0076534371
0.0072822055
0.0072391001
0.0070444617
0.0056972599
0.0041583162
0.0039052187
0.0050374859
0.005507374
0.0061935367
0.0078919638
0.0081088141
0.008309665
0.0088854877
0.0073301217
0.0082928232
0.0095287582
0.009581745
0.0092232534
0.007851517
0.010407107
0.011393113
0.009675857
0.0086719465
0.0077654264
0.0086044873
0.0093497098
0.0095447475
0.0087885034
0.0083358083
0.0094032143
0.0081199875
0.0074599501
0.0061698012
0.0053725395
0.0047257523
0.004453958
0.0038275019
0.0039256536
0.0044230774
0.0045303408
0.0046767919
0.0055273472
0.0069049438
0.008615512
0.0097744993
0.0082657256
0.0089700508
0.0089528369
0.0092682705
0.0093548038
0.0080168661
0.010553912
0.01127466
0.01257416
0.0098645853
0.00868488
0.0096748422
0.01049957
0.0093985328
0.0087423116
0.0085011435
0.0091074708
0.0076558201
0.0063988493
0.0053489379
0.0045029898
0.0048890012
0.0056801237
0.0052942873
0.0059672999
0.0050377343
0.0048036218
0.0046515932
0.0051222309
0.0062813293
0.0084899667
0.0098958983
0.0080833839
0.0088843611
0.010135752
0.010693988
0.0084609847
0.0080760296
0.010260033
0.011081885
0.011043781
0.0091654415
0.0078787329
0.0094447476
0.01063961
0.010531566
0.0093823624
0.0083548868
0.0097495964
0.0081110877
0.0077073287
0.0067095337
0.0061666446
0.0054897359
0.0047693831
0.0052451914
0.0054099311
0.0062483232
0.0071670265
0.0079279981
0.0083621118
0.0084019315
0.0085255568
0.010068397
0.008238933
0.0089554385
0.010129501
0.0096723038
0.0082497996
0.0081058039
0.0103676
0.011509619
0.011391819
0.0090273549
0.0079345271
0.0087212374
0.0094712298
0.0092023401
0.0080889047
0.0087595711
0.0098500339
0.0085310289
0.0080890641
0.0087618746
0.0091758316
0.0087365301
0.008274385
0.0074398638
0.0099462992
0.0081382469
0.0097399414
0.0099605678
0.0085859884
0.0079258875
0.0089555034
0.0097365933
0.0080631759
0.0086796488
0.0099810525
0.0093946891
0.0088136655
0.0082045275
0.010501619
0.011710116
0.010327455
0.0092350857
0.0085801397
0.0093965302
0.0096406319
0.010359819
0.0094029287
0.009716746
0.0099457168
0.0092829291
0.0087308314
0.0092979874
0.009782936
0.0096532041
0.0092545512
0.0084785467
0.010675634
0.0093913349
0.0088308829
0.008520418
0.0092465331
0.0091367839
0.0090976414
0.0094081399
0.0089008117
0.0095651407
0.010613946
0.0098899117
0.0090869667
0.0084982358
0.010388567
0.01065039
0.010619116
0.0099428342
0.0093370136
0.0095792792
0.010719692
0.010953759
0.010319744
0.0088209924
0.0089485258
0.0088912793
0.0085736288
0.0086793008
0.0091911173
0.0092506339
0.0094274868
0.0094247363
0.010223106
0.0093175656
0.010672774
0.010336308
0.0093196
0.0088486298
0.0093499264
0.010244759
0.0094590891
0.010337501
0.010225478
0.010032901
0.0088355639
0.0084954298
0.010196895
0.010297009
0.010331029
0.0093941327
0.0091749135
0.010253742
0.010584287
0.011345382
0.011293005
0.010256418
0.010777364
0.010257892
0.010207676
0.010498747
0.011359941
0.010580683
0.010666258
0.010174445
0.010487389
0.010410721
0.010375647
0.011314146
0.0094065283
0.0093134388
0.010146131
0.010723255
0.010527053
0.011259268
0.010547225
0.010560935
0.0098960141
0.0085708423
0.0094938575
0.0098527874
0.008943792
0.0087033493
0.010588186
0.0093080847
0.011301671
0.010431825
0.011104207
0.0090137117
0.0101207
0.0092093727
0.010108774
0.0093239057
0.011017325
0.010111753
0.011086278
0.010974231
0.012157217
0.0088049968
0.0099279474
0.011216262
0.012684444
0.014327671
0.016150464
0.018157958
0.020354175
0.02273869
0.025312944
0.028080869
0.031029943
0.034164077
0.037484402
0.040987042
0.04466191
0.048496992
0.052487796
0.056634137
0.060903877
0.065310374
0.069864071
0.07451593
0.07928453
0.08418122
0.089155321
0.094234046
0.099392445
0.10463815
0.1099753
0.11537785
0.12084946
0.12634732
0.13190993
0.13751484
0.14317944
0.14887574
0.15461686
0.16040463
0.16621846
0.17205139
0.17784194
0.18368175
0.17351529
0.16788928
0.16228535
0.15671153
0.15117289
0.14567658
0.1402268
0.13483014
0.12949085
0.12421518
0.11900759
0.11387426
0.10881997
0.10385086
0.098972077
0.094189771
0.089509356
0.084936962
0.080478104
0.076138709
0.071924123
0.067839786
0.063890507
0.060080876
0.056414751
0.052895481
0.04952557
0.046306798
0.043240006
0.040325177
0.037561373
0.03494599
0.03247624
0.030148686
0.027962107
0.025911909
0.024002874
0.022224326
0.020555812
0.019022207
0.011882328
0.013379691
0.015062815
0.016910723
0.018930804
0.021124388
0.023492581
0.026035562
0.028749723
0.031631448
0.034676473
0.037880125
0.041237257
0.044742767
0.048391342
0.052177669
0.056096475
0.060142593
0.064310962
0.068596681
0.072994953
0.077501107
0.082110506
0.086818582
0.091620805
0.096512749
0.10148997
0.10654816
0.11168296
0.11689003
0.12216485
0.12750283
0.13289929
0.13834993
0.14384964
0.149394
0.15498149
0.16060252
0.16625593
0.17199763
0.17277049
0.16715057
0.16156412
0.15601447
0.15050633
0.14504128
0.1396257
0.13426453
0.12896309
0.123727
0.11856416
0.11347982
0.10847883
0.1035641
0.098741069
0.094014484
0.089389217
0.084870509
0.080464447
0.076175931
0.072009545
0.067968535
0.064057748
0.060280895
0.056641207
0.053141583
0.049784316
0.046570851
0.043502153
0.040578226
0.037798211
0.035160105
0.032661209
0.030298508
0.028069531
0.025974777
0.024014638
0.022192476
0.020509926
0.018947782
0.010565366
0.011905881
0.013447392
0.015162605
0.017059053
0.019142273
0.021416744
0.023883903
0.026542083
0.029387835
0.03241662
0.035623191
0.03900193
0.042545278
0.0462465
0.050100788
0.054092914
0.058218693
0.062483781
0.06684853
0.07132803
0.075919335
0.080628576
0.0854559
0.090368907
0.095364756
0.10045811
0.10559372
0.11079843
0.11607596
0.12143961
0.12689223
0.13239472
0.13794234
0.14355322
0.14916157
0.15479935
0.16046944
0.16617085
0.17196281
0.17275837
0.16701966
0.16131219
0.15563954
0.15000773
0.14441788
0.13887702
0.13339121
0.12796505
0.12260591
0.11732101
0.11211589
0.10699432
0.10195989
0.097018747
0.092176795
0.087439632
0.082813999
0.078306689
0.073923701
0.069670218
0.065551224
0.061572098
0.057737736
0.054052393
0.050519757
0.047142643
0.04392327
0.040868944
0.037973003
0.035230773
0.032641981
0.030201744
0.027903571
0.025742319
0.023721933
0.021853431
0.020123593
0.018522544
0.017040733
0.010529605
0.011842457
0.013340476
0.015017487
0.016875022
0.018915334
0.02113627
0.023546792
0.02614575
0.028930847
0.031903687
0.035056301
0.038381406
0.041881612
0.045529346
0.049333128
0.053285601
0.05738112
0.061628701
0.065995879
0.07048519
0.07509218
0.079811113
0.084638515
0.089564881
0.094586365
0.099723343
0.10492979
0.11021072
0.11556667
0.12099296
0.12648671
0.1320397
0.13764833
0.14333918
0.14906373
0.1548231
0.16061968
0.16645149
0.17237736
0.17352739
0.16763396
0.16177859
0.15596771
0.15020701
0.14449803
0.13885136
0.13327202
0.1277647
0.12233169
0.11698104
0.11171658
0.10654451
0.10146711
0.096492004
0.091624573
0.086869486
0.08223184
0.077718193
0.073333587
0.069083676
0.064972412
0.061005075
0.057185821
0.053518173
0.050004815
0.046647985
0.04344893
0.04041428
0.037537251
0.034813095
0.032241361
0.029817463
0.027535493
0.025390821
0.023386752
0.021530214
0.01980715
0.018206377
0.016727277
0.010249485
0.011555025
0.013023658
0.014667749
0.016492267
0.018493351
0.0206787
0.023056543
0.025616139
0.028361084
0.031292873
0.034409361
0.037704054
0.041166981
0.044793714
0.048588032
0.052520008
0.056596326
0.060828524
0.065188
0.069676798
0.074287949
0.079027602
0.083911135
0.088872721
0.093929079
0.099107631
0.10436647
0.10970997
0.11513554
0.12065592
0.12629597
0.13196423
0.13768756
0.14350564
0.14936839
0.15527808
0.16123411
0.16725534
0.17340054
0.17503342
0.1689265
0.16287101
0.15687317
0.15094004
0.14507045
0.13927177
0.13355138
0.12791153
0.12235626
0.116893
0.11152647
0.10626105
0.10109978
0.096048709
0.091114308
0.086301315
0.081614526
0.077060107
0.072642429
0.068366138
0.064235446
0.060253961
0.056426045
0.052754662
0.049241917
0.045889795
0.042699191
0.039675921
0.036813016
0.034105833
0.031554014
0.029153366
0.026898229
0.024783691
0.022811901
0.020986862
0.019298451
0.017739468
0.016306249
0.010017766
0.011311726
0.012765364
0.014386268
0.016182329
0.01815454
0.020308808
0.022649668
0.025175515
0.027889314
0.030797263
0.03387775
0.03713707
0.04057193
0.044179032
0.047951393
0.051884197
0.055986097
0.060228056
0.064612962
0.069136235
0.073792092
0.078576353
0.083485781
0.088509168
0.093656487
0.09894779
0.10430352
0.10975166
0.11529395
0.12092778
0.12665119
0.13245384
0.13835188
0.14437103
0.15041316
0.15651343
0.16267471
0.16889801
0.17524202
0.17680404
0.17047636
0.16421322
0.15801998
0.15190175
0.1458579
0.13989542
0.13402266
0.12824482
0.12256366
0.1169858
0.1115157
0.10615736
0.10091291
0.095787912
0.090788763
0.085920373
0.081186512
0.076592675
0.072143372
0.067842413
0.063693954
0.059712849
0.055896063
0.052242919
0.048751606
0.045415498
0.042241478
0.039229152
0.036377147
0.033684417
0.031148549
0.028765767
0.026530836
0.024438193
0.0224874
0.020681398
0.01900806
0.017458267
0.016026499
0.0096261186
0.010845204
0.012221773
0.01376891
0.015491429
0.017390159
0.019471965
0.021742653
0.024190876
0.0268235
0.029641392
0.032644479
0.035831195
0.039199538
0.042750212
0.046480434
0.050381696
0.054441624
0.058657734
0.063036717
0.067542354
0.072186568
0.076979878
0.081923606
0.086985444
0.092164474
0.097475421
0.10286411
0.10835781
0.11395905
0.11968226
0.12553175
0.13146593
0.1374861
0.14360942
0.14976988
0.15600157
0.16230373
0.16869767
0.17524279
0.17258203
0.16621462
0.15992712
0.15372515
0.14761469
0.14159696
0.13570243
0.12990638
0.12419877
0.11859382
0.11309984
0.10772018
0.10246091
0.097325284
0.092317378
0.087442555
0.082704483
0.078106662
0.073654119
0.069349975
0.065197018
0.061197514
0.057354276
0.053669098
0.050151673
0.046798392
0.043607149
0.040575917
0.037702527
0.034984252
0.032413995
0.029993357
0.027718751
0.025584781
0.023578757
0.021703103
0.019964579
0.018350491
0.016848859
0.015431275
0.0080837217
0.0090926614
0.01023796
0.011527761
0.012970395
0.014570346
0.01633559
0.018271445
0.020377313
0.022656603
0.025114519
0.027753257
0.030570157
0.033564505
0.036732971
0.040072826
0.04358294
0.047251705
0.051077521
0.055066921
0.059186127
0.063449604
0.067854922
0.072399229
0.077079095
0.081890469
0.086841011
0.091928727
0.0971335
0.10244937
0.10787257
0.11340284
0.11902619
0.12474145
0.13056713
0.13644456
0.14240491
0.1484481
0.15457619
0.1608377
0.1407806
0.13520602
0.1297059
0.12428563
0.11895041
0.11370481
0.10857202
0.10354709
0.098623796
0.093793415
0.089069708
0.084457903
0.079961619
0.075586174
0.071337035
0.067217986
0.063232716
0.059384042
0.055674755
0.052107146
0.048682898
0.045403328
0.042269779
0.039282773
0.036442408
0.033748248
0.031199338
0.028794109
0.026532976
0.024410663
0.022422867
0.020567323
0.018840387
0.017237142
0.015749319
0.01437387
0.013113496
0.011963791
0.010921028
0.0099439723
0.0039201025
0.0042369631
0.0046108826
0.0050485457
0.0055576358
0.0061435942
0.0068162837
0.0075821028
0.0084445698
0.009412851
0.010496182
0.011703143
0.013041012
0.014515341
0.01613236
0.017898719
0.01981355
0.021881485
0.02410722
0.026495525
0.029034659
0.031726496
0.034573498
0.037578641
0.040720335
0.043999359
0.047417909
0.050979565
0.054651934
0.05843965
0.062345494
0.066366794
0.070479555
0.074680499
0.078974487
0.083325168
0.087747171
0.092232028
0.09679047
0.10143624
0.1824361
0.17679236
0.17114479
0.16550379
0.15987747
0.1542748
0.14870349
0.14317617
0.13769554
0.13227314
0.12691463
0.1216259
0.11640984
0.11127387
0.10622369
0.10126558
0.096406447
0.091653063
0.087012119
0.08249024
0.078094807
0.073831583
0.069705715
0.065721814
0.061883169
0.058193451
0.054655085
0.051269725
0.048038418
0.044961174
0.04203707
0.039264348
0.036640386
0.034161724
0.031823443
0.029620756
0.027548514
0.025603929
0.023781507
0.022084675
0.020503112
0.019014168
0.01764761
0.0088027579
0.0071239802
0.0070524839
0.0071044994
0.0070889306
0.0071530507
0.0070766056
0.0071891574
0.0071725389
0.007115913
0.007087518
0.0071419391
0.007243431
0.0071581639
0.0069296797
0.0072166351
0.0069748177
0.0071113422
0.0070170149
0.0071166501
0.0073586197
0.0071779851
0.0069547758
0.0070847467
0.0074925248
0.0074256983
0.0073212184
0.0075139243
0.0074588783
0.007262315
0.007227573
0.0074469812
0.0074338762
0.0073088465
0.0074286976
0.0075282797
0.0074545876
0.0075611064
0.0076023323
0.0077078592
0.0083607915
0.010320498
0.011677565
0.0095118624
0.0087758377
0.0086497695
0.0086066634
0.0084768911
0.0085588034
0.0084418187
0.0083087486
0.0084459672
0.0084599388
0.0082140888
0.0082548465
0.0084731589
0.0085356256
0.0083197597
0.0084359033
0.0085059064
0.0080502548
0.0079019107
0.0081547836
0.0083535583
0.0080850733
0.0079726399
0.008072348
0.0079214709
0.0081905973
0.0078723002
0.0081306898
0.0082241184
0.008115659
0.0080534295
0.0080864226
0.0081466918
0.0081695706
0.0080450066
0.0081309188
0.0080577688
0.008075964
0.0080152513
0.008096677
0.0099489171
0.011235067
0.0092172226
0.0091215378
0.0091948437
0.0091706779
0.0092571421
0.0091615913
0.0092986906
0.0092688876
0.0092053829
0.0091661363
0.0092374709
0.0093515084
0.0092501306
0.0089611578
0.0093102302
0.009014124
0.0091788488
0.0090754509
0.0092002315
0.0094963601
0.0092798061
0.0089956928
0.0091634741
0.0096704115
0.0095965683
0.0094688407
0.0097079088
0.0096374702
0.0093976183
0.0093503452
0.0096232134
0.0096070056
0.0094595641
0.0096060909
0.0097413623
0.0096514055
0.0098037353
0.0098514952
0.010000164
0.010826334
0.013192726
0.014869021
0.012314264
0.011394262
0.01122399
0.011167017
0.010989325
0.011088113
0.010933505
0.010772725
0.010930194
0.010948874
0.010648911
0.010701748
0.010963927
0.011041331
0.010778642
0.010919208
0.010994518
0.010435805
0.01024952
0.010564073
0.010799732
0.01047487
0.010335838
0.010442753
0.010265045
0.010586166
0.010208465
0.010527281
0.010637982
0.010518221
0.010438041
0.010484242
0.010550665
0.010585924
0.010437821
0.010541279
0.010443153
0.010472578
0.010385354
0.010496225
0.012670631
0.014264036
0.011945887
0.011820018
0.011923245
0.011885485
0.011997006
0.011887227
0.012045055
0.012002141
0.01193504
0.011881667
0.011970709
0.012094563
0.011975776
0.011626527
0.012031663
0.011686564
0.011876736
0.011767162
0.011921513
0.012275274
0.012020512
0.011675467
0.011881027
0.012491724
0.012415551
0.012262523
0.012549051
0.012465605
0.012180081
0.012122182
0.012449476
0.012428508
0.012260685
0.012435587
0.012609978
0.012502974
0.012708671
0.012775782
0.012971313
0.01398657
0.016719336
0.018749145
0.015844171
0.014736348
0.014513431
0.014436643
0.014201402
0.01431574
0.014118066
0.013932913
0.014104937
0.014131364
0.013776027
0.013841548
0.014145216
0.014237295
0.013928252
0.014094045
0.014169499
0.013506519
0.013279453
0.013658007
0.013931055
0.013545516
0.01337905
0.013487445
0.013286187
0.013652769
0.013223404
0.013601465
0.013729081
0.013602903
0.013501347
0.01356556
0.013630196
0.013680939
0.013513623
0.013630886
0.013503717
0.01355212
0.013429908
0.01357405
0.016028193
0.017963299
0.015389012
0.015227368
0.015368616
0.015309151
0.015453129
0.015328338
0.015503873
0.015445643
0.015384423
0.01530907
0.01542314
0.015552271
0.015414277
0.01500687
0.015458423
0.015072472
0.015284385
0.015179198
0.015357654
0.015774909
0.01548443
0.015073278
0.015321328
0.016035053
0.015961237
0.015784713
0.016114132
0.01601296
0.015693257
0.015621384
0.01600186
0.015969506
0.015796725
0.01599141
0.016212173
0.016093207
0.016359566
0.016449521
0.016699872
0.017897086
0.020962587
0.023359172
0.020157532
0.018871471
0.018591104
0.018484004
0.018186985
0.018306209
0.018062678
0.017857396
0.018031516
0.018071687
0.017664562
0.017740666
0.018078008
0.018187175
0.017841438
0.018022264
0.018099646
0.017333492
0.017063175
0.017504229
0.017810613
0.01736497
0.017174752
0.017274381
0.017053719
0.01745596
0.016985142
0.017421311
0.01756677
0.017436579
0.017311583
0.017397054
0.01745154
0.017521947
0.017341293
0.017468419
0.017309981
0.017381227
0.017222949
0.017398038
0.020077153
0.022367348
0.019604795
0.019415316
0.01959337
0.019511386
0.019684075
0.019557603
0.019740966
0.019656412
0.019610654
0.019514239
0.019650227
0.01977803
0.019627437
0.019164916
0.019651356
0.019233578
0.019462876
0.019371785
0.019572821
0.020045604
0.019725818
0.019255274
0.019549862
0.020365792
0.020284771
0.020098522
0.0204614
0.02034445
0.019991744
0.019910952
0.020343548
0.020294493
0.020121451
0.020335869
0.020604083
0.020482861
0.020814554
0.020941035
0.02125284
0.022622295
0.025943493
0.028708952
0.025293908
0.023849005
0.023505184
0.023356502
0.022985679
0.023107225
0.022814945
0.022593957
0.022761388
0.022815453
0.022366503
0.02244762
0.022814619
0.022937163
0.022559157
0.02274912
0.022834126
0.021971361
0.02165726
0.022153523
0.022484608
0.021985714
0.02176845
0.021854452
0.02161558
0.022045404
0.021544729
0.02203672
0.022191398
0.022068115
0.021920023
0.022029245
0.022062553
0.022161067
0.02197406
0.022103641
0.021916937
0.022007316
0.021810229
0.022011096
0.02484112
0.027492742
0.024620943
0.024412299
0.024627149
0.024530211
0.02472918
0.024598392
0.02478879
0.024674018
0.024655385
0.024537265
0.024693021
0.024815482
0.024653053
0.024134711
0.024644821
0.024207134
0.024453278
0.024374704
0.024606466
0.025131671
0.024788716
0.024267122
0.024602265
0.025509955
0.025420633
0.025229364
0.025619452
0.025491603
0.025113563
0.025035021
0.025495239
0.025435646
0.025276843
0.025507181
0.025820058
0.025701908
0.02611116
0.026286725
0.026661044
0.028176911
0.031661226
0.03478816
0.031259586
0.029680951
0.029281384
0.029071677
0.028620032
0.028739529
0.028405453
0.028163544
0.028315718
0.028379594
0.027912668
0.027986321
0.028378161
0.0285047
0.028099734
0.028295653
0.028385738
0.027444511
0.027086986
0.027629642
0.027983624
0.027428222
0.027184722
0.027252261
0.026998923
0.027445708
0.026929187
0.027468406
0.027634858
0.027517827
0.02735822
0.027481945
0.027488895
0.02761815
0.027433661
0.02755431
0.027349237
0.027446599
0.027219498
0.027426872
0.030328653
0.033339113
0.030434813
0.030227707
0.03047168
0.030370071
0.030585144
0.030472742
0.03065066
0.030507905
0.030515677
0.030385124
0.030549221
0.030657319
0.03048806
0.02993093
0.030450057
0.029997099
0.030256494
0.030200155
0.030457747
0.031037033
0.030676829
0.030116665
0.030497258
0.031464479
0.031376977
0.03117296
0.031595256
0.031471248
0.031068633
0.030998843
0.031470629
0.031401599
0.031260059
0.031510835
0.031867186
0.03174631
0.032243196
0.032487149
0.032910705
0.034540751
0.038095923
0.041567608
0.038016509
0.036350693
0.035900928
0.03561876
0.035077658
0.035196054
0.034825333
0.034559267
0.034696248
0.034761284
0.034289996
0.034352541
0.034763377
0.034883135
0.03445002
0.034656561
0.034745419
0.033747697
0.033356235
0.033925992
0.034287809
0.033687303
0.033417222
0.033465067
0.033201063
0.033656484
0.033139015
0.033710372
0.033877146
0.033779562
0.033619102
0.033749126
0.033734135
0.033883466
0.033713074
0.033814798
0.033590257
0.033695509
0.033434517
0.033636971
0.036530167
0.039887424
0.037035155
0.036841769
0.037119834
0.03701173
0.037244909
0.037157185
0.037319926
0.037153421
0.037184362
0.037055515
0.037211459
0.037292385
0.037131807
0.03655237
0.037062053
0.036609952
0.036875949
0.036841063
0.037119424
0.037739678
0.037372169
0.036808477
0.037202936
0.038227976
0.038136603
0.037935873
0.038369162
0.038256589
0.037840013
0.037779805
0.038253725
0.038185852
0.038062557
0.038343242
0.038728143
0.038610722
0.039198568
0.039513661
0.039993947
0.041678809
0.045211506
0.049005763
0.045520966
0.043820487
0.04332018
0.042970597
0.042339599
0.042447366
0.04205461
0.041757465
0.041867724
0.041932037
0.041461676
0.041518441
0.041929537
0.042041811
0.041601568
0.041803837
0.041886679
0.040850348
0.040448155
0.041008079
0.041368828
0.040741658
0.040453001
0.040470508
0.040212742
0.040649456
0.040159855
0.040734542
0.040904241
0.040831985
0.040683341
0.040808489
0.040763679
0.04094481
0.040783366
0.040863574
0.040614085
0.040733074
0.040429024
0.040617044
0.043421895
0.047106867
0.04437913
0.044196177
0.044531275
0.044397234
0.044667116
0.044594714
0.044754895
0.044560925
0.044618417
0.044502215
0.044638237
0.044693262
0.044525127
0.043951518
0.044425311
0.044000177
0.044252785
0.044250136
0.044549684
0.045178892
0.04483288
0.044280612
0.044685208
0.04572762
0.045655234
0.045450411
0.045900673
0.045781942
0.045384434
0.045333133
0.045793629
0.04573764
0.045640185
0.045958224
0.046350598
0.046258057
0.046929686
0.047317714
0.047833707
0.049533493
0.052961658
0.057052561
0.053708323
0.052030336
0.051481177
0.051072558
0.050363833
0.050431224
0.050030796
0.049706812
0.049792963
0.04983156
0.049371838
0.049433573
0.049813961
0.049931684
0.049475112
0.04968665
0.049742516
0.048702832
0.048301592
0.048823726
0.049173898
0.048539057
0.04822463
0.048217402
0.047964084
0.048375503
0.047918601
0.048488692
0.048655391
0.048626076
0.048487153
0.048609576
0.048536577
0.048746032
0.048590359
0.048651921
0.04836189
0.048511286
0.048144065
0.048317935
0.050956824
0.054958288
0.052426993
0.052276939
0.052665987
0.05251234
0.052808697
0.052764178
0.05290906
0.052690034
0.052772891
0.052644773
0.052788846
0.052785792
0.052627376
0.052064879
0.052502829
0.05210722
0.052357373
0.052381998
0.052706455
0.053331305
0.052990318
0.052493628
0.052899176
0.053926084
0.053889495
0.053681046
0.054134708
0.054031777
0.053657532
0.053588437
0.054047451
0.054028058
0.053947669
0.05427845
0.054690149
0.054650465
0.055387842
0.055815027
0.056391866
0.058035167
0.061293515
0.065653269
0.062504987
0.060908169
0.060318573
0.059849018
0.059099501
0.059105919
0.058697149
0.058335705
0.05842435
0.058419947
0.057958908
0.058028696
0.05838845
0.058492845
0.058040663
0.058236637
0.058265545
0.057238534
0.056845033
0.057313204
0.057643003
0.05701717
0.056692532
0.056646119
0.056396946
0.056787658
0.056355287
0.056922296
0.057073357
0.057097056
0.056971543
0.057081494
0.057012046
0.057216905
0.057097299
0.057110821
0.056806888
0.056967294
0.05655297
0.056678171
0.059096672
0.063362349
0.061076591
0.060978365
0.061419603
0.061251835
0.06156677
0.061582595
0.061678626