/*--------------------------------*- C++ -*----------------------------------*\
| =========                 |                                                 |
| \\      /  F ield         | OpenFOAM: The Open Source CFD Toolbox           |
|  \\    /   O peration     | Version:  v2012                                 |
|   \\  /    A nd           | Website:  www.openfoam.com                      |
|    \\/     M anipulation  |                                                 |
\*---------------------------------------------------------------------------*/
FoamFile
{
    version     2.0;
    format      ascii;
    class       surfaceScalarField;
    location    "100";
    object      phi;
}
// * * * * * * * * * * * * * * * * * * * * * * * * * * * * * * * * * * * * * //

dimensions      [0 3 -1 0 0 0 0];
oriented        oriented;


internalField   nonuniform List<scalar> 
96413
(
0.0056968375
-1.0869662e-06
-2.5030316e-06
0.0056998464
-8.7361926e-07
-2.1352608e-06
0.0057023661
-6.992448e-07
-1.820475e-06
0.0057044697
-5.5407605e-07
-1.5495403e-06
0.00570622
-4.4045814e-07
-1.3097666e-06
0.0057076639
-3.5935885e-07
-1.0845544e-06
0.0057088437
-3.0637402e-07
-8.7343086e-07
0.0057098013
-2.8422111e-07
-6.7340655e-07
0.0057105646
-2.9236822e-07
-4.7094866e-07
0.005711154
-3.2443942e-07
-2.6495059e-07
0.0057115971
-3.8567822e-07
-5.7451759e-08
0.0057119264
-4.8339975e-07
1.5417774e-07
0.0057121553
-6.0304e-07
3.7410005e-07
0.0057122905
-7.4353611e-07
6.083091e-07
0.0057123431
-9.1203319e-07
8.5943676e-07
0.0057123295
-1.1087992e-06
1.1224713e-06
0.0057122611
-1.33071e-06
1.3990801e-06
0.0057121433
-1.5752128e-06
1.6930296e-06
0.0057119847
-1.836643e-06
1.9952438e-06
0.0057117972
-2.1199332e-06
2.3074014e-06
0.0057115912
-2.43234e-06
2.6383219e-06
0.0057113699
-2.7675141e-06
2.9888069e-06
0.0057111381
-3.1125065e-06
3.3443506e-06
0.005710905
-3.4715211e-06
3.7046196e-06
0.0057106778
-3.8539731e-06
4.0811442e-06
0.0057104598
-4.2539457e-06
4.4719759e-06
0.0057102498
-4.662227e-06
4.8722433e-06
0.0057100287
-5.0698598e-06
5.290951e-06
0.0057097369
-5.4621657e-06
5.7539675e-06
0.0057092444
-5.8111453e-06
6.3035987e-06
0.0057082688
-6.0490873e-06
7.024736e-06
0.0057064802
-6.1734042e-06
7.9620025e-06
0.0057034683
-6.1452174e-06
9.1570823e-06
0.0057000578
-6.6175702e-06
1.0028122e-05
0.0056948513
-6.2808693e-06
1.1487342e-05
0.0056913001
-7.7725799e-06
1.1323787e-05
0.0056854622
-7.0311327e-06
1.2869038e-05
0.0056814997
-8.8662277e-06
1.2828654e-05
0.0056963569
-1.9006157e-05
4.1489541e-06
0.0056970509
-1.2396142e-05
1.1702182e-05
6.3110307e-05
8.628858e-05
-1.6391873e-05
1.4051654e-05
-0.0059520404
0.00017853313
1.9425867e-05
-0.0062491139
3.907685e-05
5.7556455e-05
-0.0066447876
0.00013770346
6.9155808e-05
-0.0068196741
2.9339904e-05
8.8012514e-05
-0.0069534877
4.4310445e-05
7.3921043e-05
-0.0069228334
3.0629901e-05
6.8405584e-05
-0.0068585992
2.6074778e-05
9.0567382e-05
-0.0068000779
2.8679081e-05
8.4860522e-05
-0.006752926
2.4114949e-05
9.5788408e-05
-0.0067251193
3.1543221e-05
8.2090277e-05
-0.006704465
4.9240402e-05
7.0997781e-05
-0.0067017356
3.6995029e-05
9.9641869e-05
-0.0067000093
4.8476182e-05
7.5377548e-05
-0.0066979141
4.4360757e-05
9.0788846e-05
-0.0066925801
3.6440075e-05
9.4031185e-05
-0.0066915324
5.0968353e-05
7.2023386e-05
-0.006684506
4.4581367e-05
9.2657097e-05
-0.0066820251
4.3636183e-05
8.7176384e-05
-0.0066806973
4.1370225e-05
8.838963e-05
-0.0066812202
4.2936301e-05
8.416364e-05
-0.0066884161
4.4389227e-05
8.4175368e-05
-0.0066842442
4.6829925e-05
8.3001085e-05
-0.0066726658
5.1703415e-05
8.0767535e-05
-0.0066671543
6.1569506e-05
7.6019923e-05
-0.0066641764
7.6876474e-05
7.0680725e-05
-0.0066638797
0.00010164373
6.1307808e-05
-0.0066673766
0.00013380612
5.3752641e-05
-0.0066620376
0.00016858753
5.0720804e-05
-0.0066609586
0.00018389882
6.9888301e-05
-0.0066590146
0.000154567
0.000114499
-0.0066563062
9.8031654e-05
0.00014266313
-0.0066748323
5.8007595e-05
0.00012941358
-0.0067199661
3.9455934e-05
0.00010593446
-0.0067634759
2.9850503e-05
9.5511295e-05
-0.0068066829
-5.91591e-06
9.0449525e-05
-0.0068643516
-4.8746852e-06
8.7603336e-05
-0.0069032893
-0.00011076201
8.6352117e-05
-0.0069282851
-2.3553679e-05
8.0161897e-05
-0.0067927284
-0.00016765397
6.3256667e-05
-0.0066185514
1.2450793e-05
3.3605635e-05
-0.0062218152
-7.0669359e-05
1.8346877e-05
-0.0059285782
7.80473e-05
-0.0056560629
-2.7998799e-06
-1.4664771e-05
-0.0059042518
0.00018574926
-1.7863773e-05
-0.0061511015
3.6208381e-05
-3.5352158e-06
-0.0064997393
0.00012591089
6.223904e-06
-0.0066193778
1.7367495e-05
1.0638509e-05
-0.0067138937
2.5182414e-05
1.2838561e-05
-0.0066585264
-4.2066626e-07
1.5253811e-05
-0.0066086139
3.5695647e-06
1.6971944e-05
-0.0065638035
7.510072e-06
1.7058476e-05
-0.0065627914
-1.8332523e-05
1.5526674e-05
-0.0066054651
-1.0996778e-05
1.3314614e-05
-0.0066533804
-0.0001200502
1.1285176e-05
-0.0067068486
-3.1268754e-05
7.0528016e-06
-0.0066108868
-0.00018161516
-2.4553754e-06
-0.0064901524
5.3632744e-06
-1.6527308e-05
-0.0061412018
-7.6702055e-05
-1.322676e-05
-0.0058939631
7.1824882e-05
-0.0056452931
-9.5875069e-06
1.6834292e-05
-0.0059176779
0.0001719714
3.1801938e-05
-0.0062107499
3.0265094e-05
6.1018291e-05
-0.0066065552
0.00011997625
7.7389012e-05
-0.0067800977
1.7753988e-05
8.2784329e-05
-0.0069148077
2.3630986e-05
8.2763399e-05
-0.0068892866
-5.1471822e-06
8.3545531e-05
-0.0068497983
-3.6756802e-06
8.4722665e-05
-0.0067922453
-1.6247228e-06
8.5852861e-05
-0.0067522314
3.4347464e-06
8.6617844e-05
-0.0067278283
6.4947075e-06
8.7116126e-05
-0.0067169131
8.4254535e-06
8.7435138e-05
-0.006713396
9.4083026e-06
8.7656707e-05
-0.0067137541
9.8424755e-06
8.7841738e-05
-0.0067158069
9.9722198e-06
8.8002545e-05
-0.0067186304
9.9414795e-06
8.8168012e-05
-0.0067217584
9.7952775e-06
8.8295592e-05
-0.0067250397
9.55915e-06
8.8433772e-05
-0.0067284142
9.240214e-06
8.8529709e-05
-0.0067318669
8.8686917e-06
8.8624186e-05
-0.0067354261
8.4898745e-06
8.8681841e-05
-0.0067389776
8.0924371e-06
8.8741947e-05
-0.0067425289
7.7317396e-06
8.8747576e-05
-0.0067461805
7.3463302e-06
8.8798863e-05
-0.0067498129
6.9783438e-06
8.8832805e-05
-0.0067533946
6.6150681e-06
8.887025e-05
-0.0067568784
6.2670095e-06
8.8893322e-05
-0.0067603951
5.9747138e-06
8.8916287e-05
-0.006763883
5.8541674e-06
8.8946663e-05
-0.0067675726
6.1677671e-06
8.8943583e-05
-0.0067717771
7.2893138e-06
8.8932781e-05
-0.0067775319
9.452623e-06
8.8774447e-05
-0.0067868919
1.3549536e-05
8.8431345e-05
-0.0068035205
1.4537428e-05
8.7779091e-05
-0.006833423
1.4869306e-05
8.6761847e-05
-0.006878847
-1.5508403e-05
8.5657375e-05
-0.0069416112
-1.0811959e-05
8.4950165e-05
-0.0069857353
-0.0001158618
8.5064093e-05
-0.0070151725
-2.6204717e-05
7.968139e-05
-0.0068814536
-0.0001714984
6.3096721e-05
-0.006707503
1.1521115e-05
3.3405095e-05
-0.0063070458
-7.2240944e-05
1.7933646e-05
-0.0060100241
7.8385215e-05
-0.0057332906
-4.1531423e-06
-1.4491414e-05
-0.0059869385
0.00018690199
-1.8014596e-05
-0.0062397647
3.5153899e-05
-3.7630372e-06
-0.0065977769
0.0001266163
5.9171849e-06
-0.0067252901
1.6607089e-05
1.0237383e-05
-0.0068290136
2.5061277e-05
1.239578e-05
-0.0067815866
-5.0511359e-07
1.4676975e-05
-0.0067404362
4.2892459e-06
1.63846e-05
-0.0067053092
9.0695108e-06
1.6235217e-05
-0.0067149274
-1.6533255e-05
1.4656108e-05
-0.0067698617
-7.991807e-06
1.2086574e-05
-0.0068291983
-0.00011913023
1.0089294e-05
-0.0068932727
-2.6753752e-05
5.5786483e-06
-0.0067997731
-0.00018141155
-2.4845196e-06
-0.0066736782
1.2096612e-05
-1.7850354e-05
-0.0062942694
2.4808442e-06
-0.0059876545
6.5385543e-05
4.0607426e-05
-0.0062807328
0.00017894721
5.555581e-05
-0.0067064651
0.00019311498
9.9052479e-05
-0.0070257122
0.00019007553
0.0001261118
-0.0071884163
0.00011789662
0.00013855635
-0.0072264941
6.7177976e-05
0.00014278683
-0.007188975
2.3408233e-05
0.00014548947
-0.0071263094
-4.7738286e-06
0.00014661363
-0.0070809877
-3.2980151e-05
0.00014674902
-0.0070710911
-7.6654399e-05
0.00014516452
-0.007095836
-0.00012686366
0.00014261086
-0.0071397031
-0.00019793319
0.00013764599
-0.0071601705
-0.00020004905
0.00012500293
-0.0071105149
-0.00018483649
9.56441e-05
-0.0069446104
-7.1503408e-05
5.3178677e-05
-0.0066456076
2.0259118e-05
-0.0062852396
0.00014169113
0.00012092602
-0.0066884782
0.00027426504
0.00017408865
-0.007112933
0.00033297063
0.0002432839
-0.0074253678
0.00029604598
0.00028731642
-0.0075787473
0.00020858623
0.00030494188
-0.0076124853
0.00012117812
0.00030945637
-0.0075843543
5.510225e-05
0.00030990918
-0.0075418195
5.2357085e-06
0.00031002128
-0.0075183928
-4.4646348e-05
0.00030996529
-0.0075288757
-0.00011101172
0.00031073267
-0.0075737394
-0.00019935497
0.00031035105
-0.007636289
-0.0002881859
0.00030712155
-0.007682724
-0.00032600338
0.00028965848
-0.0076618598
-0.00026642481
0.00024790515
-0.0075130591
-0.00013184751
0.00017769025
-0.0071808628
0.00013893399
-0.0066883692
0.00020646638
0.00016746985
-0.0070346285
0.0003691825
0.0002531443
-0.0075496316
0.0004315312
0.00033124042
-0.0078820447
0.00037090353
0.00037338364
-0.0080158116
0.00025165823
0.00038743793
-0.0080213059
0.00013852175
0.00038600948
-0.0079663883
5.5633454e-05
0.00038222725
-0.0079007377
-5.4960814e-06
0.00037897344
-0.0078545308
-6.6333498e-05
0.00037897182
-0.0078437386
-0.00014856205
0.00038109083
-0.0078676553
-0.00025990168
0.00038451205
-0.0079126212
-0.00037659736
0.00038416616
-0.0079483176
-0.00043456559
0.00036943215
-0.0079286342
-0.00037178122
0.00032476778
-0.0077902729
-0.00020989593
0.00024696611
-0.0074791991
0.00014936177
-0.0070383402
0.00025157466
0.00015913655
-0.0072498215
0.00042967334
0.00023564001
-0.0076809022
0.00049106304
0.00030022974
-0.0079779374
0.00041735979
0.00033301347
-0.0081023856
0.00028248872
0.00034038125
-0.0081126433
0.00015832421
0.000336279
-0.0080718409
6.9511346e-05
0.00032998053
-0.0080242847
5.6430639e-06
0.00032636824
-0.007999457
-5.8545255e-05
0.00032626547
-0.0080102517
-0.00014804014
0.00033086734
-0.00805759
-0.00027396175
0.00033735244
-0.0081259478
-0.00041114584
0.00034317976
-0.0081859624
-0.00048701019
0.00033645476
-0.0081899634
-0.00042489169
0.00030606766
-0.0080707632
-0.00024432436
0.00024230224
-0.0077525465
0.0001769355
-0.0072486978
0.00026797124
0.00012471396
-0.0073232511
0.00044971697
0.00018284096
-0.0078162639
0.0005072961
0.00022004675
-0.0081225148
0.00042231188
0.00023516928
-0.0082324534
0.00027748835
0.00023480679
-0.0082227508
0.00014767817
0.00022722564
-0.0081592975
5.7753413e-05
0.00022046674
-0.0080890343
-5.2264825e-06
0.00021605556
-0.0080409171
-6.7691606e-05
0.00021621238
-0.0080303827
-0.000156776
0.00021992306
-0.0080563059
-0.0002844154
0.00022661475
-0.0081061624
-0.00042645656
0.00023270173
-0.0081503665
-0.00050812269
0.00023186549
-0.0081457354
-0.00044955935
0.00021376151
-0.0080306908
-0.00026575672
0.0001714133
-0.0077472533
0.00010396839
-0.0073315956
0.00026761318
6.1390859e-05
-0.0073264875
0.00045085799
0.0001005873
-0.0077340001
0.00050590819
0.00012387648
-0.0080094241
0.00042066752
0.00013131157
-0.008119181
0.00027743655
0.00012892262
-0.0081202795
0.00015097776
0.00012329527
-0.0080732745
6.4468463e-05
0.00011791513
-0.0080215671
5.0374926e-06
0.00011504488
-0.0079947045
-5.480781e-05
0.00011478575
-0.0080048824
-0.00014200952
0.00011808759
-0.008053128
-0.00027020938
0.0001232105
-0.0081244432
-0.00041555478
0.00012991743
-0.0081899155
-0.0005028908
0.00013334355
-0.0082030867
-0.00044736481
0.00012899368
-0.0080986834
-0.00025942171
0.00010979915
-0.0078036524
8.2117574e-05
-0.0073246573
0.00025819769
3.9704674e-05
-0.0072700296
0.00044414358
5.4656459e-05
-0.007755239
0.00049597497
6.3835755e-05
-0.0080462057
0.00040679464
6.2688203e-05
-0.0081478226
0.00026220708
5.8900105e-05
-0.0081327637
0.0001364867
5.4044932e-05
-0.0080661276
5.2274472e-05
5.0946264e-05
-0.0079944183
-4.5732178e-06
4.8853476e-05
-0.0079462433
-6.1067201e-05
4.9191214e-05
-0.007936405
-0.00014469782
5.1031354e-05
-0.0079641482
-0.0002688174
5.4635488e-05
-0.0080170232
-0.00041137643
5.8655542e-05
-0.0080656391
-0.00049855082
6.1578234e-05
-0.0080667827
-0.0004472082
5.9625754e-05
-0.0079598045
-0.00026691443
4.8568795e-05
-0.0076869341
2.4423703e-05
-0.0072787291
0.00026642211
5.9027532e-06
-0.0072269273
0.00044354333
1.8135386e-05
-0.0076369773
0.00049181941
2.2930731e-05
-0.0079094832
0.00040350304
2.2917622e-05
-0.0080153836
0.00026193273
2.0714445e-05
-0.00801294
0.00013995644
1.8326985e-05
-0.0079632135
5.8669828e-05
1.6210589e-05
-0.0079100757
4.4021813e-06
1.5214295e-05
-0.007882166
-5.0286527e-05
1.4935993e-05
-0.0078914541
-0.00013225227
1.615648e-05
-0.0079391252
-0.00025618828
1.7915167e-05
-0.0080106039
-0.00040046078
2.1249143e-05
-0.0080775359
-0.00049230179
2.5146477e-05
-0.0080933393
-0.00044562269
2.8832525e-05
-0.0079924849
-0.00027055346
2.8910992e-05
-0.0077033207
2.3442995e-05
-0.007223117
0.00025768499
2.3036518e-05
-0.0071944804
0.00043677121
1.223453e-05
-0.0076629254
0.00048431118
9.8316404e-06
-0.0079497234
0.00039398213
6.3320774e-06
-0.0080503632
0.00025144382
3.7344598e-06
-0.0080350714
0.00012946096
1.761738e-06
-0.0079685479
4.9147821e-05
1.0832891e-06
-0.0078978077
-4.1253325e-06
4.6486787e-07
-0.0078506602
-5.7018877e-05
7.0558939e-07
-0.0078417804
-0.00013681538
1.1631123e-06
-0.0078698369
-0.00025730308
2.2845769e-06
-0.007923323
-0.00039807175
3.504961e-06
-0.0079733085
-0.00048695499
4.8115106e-06
-0.0079761336
-0.00044073103
5.2014587e-06
-0.0078703803
-0.00026604761
3.3094088e-06
-0.0075968396
-2.6260356e-06
-0.0071839693
0.00026583033
-5.2506241e-06
-0.0071555685
0.00043897857
-2.879688e-06
-0.0075697539
0.00048406944
-2.2380877e-06
-0.0078442156
0.0003950243
-2.5651747e-06
-0.0079503
0.00025484416
-3.22236e-06
-0.0079473691
0.00013523959
-3.7410774e-06
-0.0078974341
5.626882e-05
-4.2959027e-06
-0.0078438064
4.0859716e-06
-4.4403758e-06
-0.0078154112
-4.847855e-05
-4.6092684e-06
-0.0078239979
-0.0001280142
-4.2699462e-06
-0.007870538
-0.00024935025
-3.9932728e-06
-0.0079405671
-0.00039183755
-2.5652878e-06
-0.0080065703
-0.00048360612
-1.4707456e-07
-0.0080210321
-0.00043996552
4.3293641e-06
-0.0079193492
-0.0002682286
1.0095767e-05
-0.0076302226
2.743393e-05
-0.0071526022
0.00026215808
2.5698357e-05
-0.0071211915
0.00043784214
6.8457278e-06
-0.0076072948
0.00048209316
2.1807848e-06
-0.0078989437
0.00039080525
-2.4399547e-06
-0.008001694
0.00024877737
-4.48156e-06
-0.0079879072
0.00012792841
-5.6982498e-06
-0.0079226015
4.8711514e-05
-5.7719348e-06
-0.0078532907
-3.6121558e-06
-6.0007023e-06
-0.0078072295
-5.5550803e-05
-5.8951454e-06
-0.007799193
-0.00013425271
-5.889045e-06
-0.0078279488
-0.00025349279
-5.622799e-06
-0.0078815672
-0.00039337631
-5.4916651e-06
-0.0079314747
-0.00048245238
-5.2256466e-06
-0.0079343395
-0.00043793613
-5.0468849e-06
-0.0078279352
-0.00026567132
-5.1651342e-06
-0.0075528022
-5.8944702e-06
-0.0071381943
0.00026559009
-6.0009576e-06
-0.0071283359
0.00043740841
-5.9817727e-06
-0.0075427461
0.00048167894
-6.0680723e-06
-0.007817817
0.00039265902
-6.1626125e-06
-0.0079243449
0.0002530292
-6.2474674e-06
-0.0079214453
0.00013407697
-6.2123235e-06
-0.0078715562
5.5631873e-05
-6.3578987e-06
-0.0078178539
3.8967609e-06
-6.3104478e-06
-0.0077888938
-4.8075367e-05
-6.4620326e-06
-0.0077963205
-0.00012681377
-6.3173492e-06
-0.0078417432
-0.00024680315
-6.569776e-06
-0.0079104128
-0.00038761928
-5.6278862e-06
-0.0079748543
-0.00047676239
-4.8329255e-06
-0.0079872854
-0.00042969779
-1.1716586e-06
-0.0078838804
-0.00025067157
1.0749679e-06
-0.0075938077
2.5144787e-05
-0.0071182105
0.00027307284
2.9067068e-05
-0.0070929132
0.00044000983
7.9621929e-06
-0.0075777412
0.00048305546
4.2491683e-07
-0.0078723544
0.00039094796
-3.5563824e-06
-0.0079776995
0.00024894793
-5.0383634e-06
-0.0079655007
0.00012804301
-6.0657612e-06
-0.0079013242
4.891354e-05
-6.1286676e-06
-0.0078331927
-3.3843105e-06
-6.3348626e-06
-0.0077883075
-5.5252471e-05
-6.3139233e-06
-0.0077812956
-0.00013374748
-6.4534813e-06
-0.0078105454
-0.00025259131
-6.4576486e-06
-0.0078644374
-0.00039212135
-6.5594063e-06
-0.0079144635
-0.00048109896
-6.5755848e-06
-0.0079174519
-0.0004369534
-6.5175984e-06
-0.0078110367
-0.00026540984
-6.3329469e-06
-0.0075360421
-6.0837029e-06
-0.0071218573
0.00026528552
-6.255274e-06
-0.0071173075
0.0004366674
-6.6061975e-06
-0.0075310797
0.00048076585
-6.8677092e-06
-0.0078057957
0.00039187652
-6.931171e-06
-0.0079120413
0.00025250652
-6.8678835e-06
-0.0079088909
0.00013378812
-6.7127222e-06
-0.0078586798
5.5455413e-05
-6.6334441e-06
-0.0078044932
3.7210368e-06
-6.4271078e-06
-0.007774939
-4.8289112e-05
-6.4533085e-06
-0.0077815727
-0.00012703203
-6.2323619e-06
-0.0078258223
-0.00024705575
-6.2273431e-06
-0.0078932029
-0.00038771501
-5.4748704e-06
-0.0079563654
-0.00047731823
-4.5440782e-06
-0.0079677752
-0.00043052082
-2.0909786e-06
-0.0078631368
-0.00025267013
3.0800257e-06
-0.0075718473
2.9551101e-05
-0.0070995137
0.00027041176
2.6433939e-05
-0.0070673069
0.00043960172
7.5122179e-06
-0.007553954
0.00048178451
6.4815525e-07
-0.0078534776
0.00038995282
-3.0919716e-06
-0.0079599301
0.00024827683
-4.6843621e-06
-0.0079491021
0.00012767806
-5.7174869e-06
-0.0078862412
4.8709587e-05
-6.0617651e-06
-0.0078193209
-3.4793941e-06
-6.3686865e-06
-0.0077753217
-5.5236187e-05
-6.4992228e-06
-0.0077690135
-0.00013361766
-6.7607004e-06
-0.007798928
-0.00025230004
-6.9506472e-06
-0.0078534265
-0.00039161506
-7.1566795e-06
-0.0079037484
-0.00048048183
-7.2648174e-06
-0.0079069938
-0.00043644223
-7.1768467e-06
-0.0078010653
-0.00026516593
-6.7777152e-06
-0.0075265597
-6.4226651e-06
-0.0071131298
0.0002650827
-6.7699367e-06
-0.0071095318
0.0004362716
-7.1344001e-06
-0.0075226133
0.00048026309
-7.5149079e-06
-0.007796665
0.00039142104
-7.582169e-06
-0.007902288
0.00025217527
-7.445338e-06
-0.0078987482
0.00013357623
-7.2270029e-06
-0.0078482321
5.526724e-05
-6.9435927e-06
-0.0077936107
3.593068e-06
-6.687189e-06
-0.0077632644
-4.859345e-05
-6.3583956e-06
-0.0077691067
-0.00012752573
-5.9287351e-06
-0.0078126301
-0.0002480686
-5.208534e-06
-0.0078791017
-0.00038983828
-3.7794085e-06
-0.007941492
-0.00048209985
-1.1580097e-06
-0.0079521182
-0.00044074345
4.0160114e-06
-0.0078453611
-0.00027345457
1.3857017e-05
-0.0075444241
2.2553571e-05
-0.0070565855
0.00024955222
2.2101358e-05
-0.0070780505
0.00042894402
7.035533e-06
-0.0075486211
0.00047575388
1.3511322e-06
-0.0078393442
0.00038644232
-2.1057558e-06
-0.0079442803
0.00024612432
-4.0649471e-06
-0.0079339117
0.00012639286
-5.3104769e-06
-0.0078720085
4.7870164e-05
-6.0812825e-06
-0.0078060428
-4.0722051e-06
-6.4989337e-06
-0.0077630464
-5.5595458e-05
-6.9426752e-06
-0.0077575772
-0.00013374377
-7.216277e-06
-0.0077881986
-0.00025219601
-7.5638715e-06
-0.0078430098
-0.00039131096
-7.7881303e-06
-0.0078938504
-0.00048006604
-7.9431748e-06
-0.0078977783
-0.00043608859
-7.8556218e-06
-0.0077922813
-0.0002649821
-7.4839947e-06
-0.0075184071
-7.121132e-06
-0.0071056003
0.00026486109
-7.4863478e-06
-0.0071020934
0.00043586422
-7.8414466e-06
-0.0075145425
0.00047981151
-8.1936953e-06
-0.0077879427
0.00039112778
-8.3262783e-06
-0.0078931128
0.00025210856
-8.1605818e-06
-0.0078890434
0.00013374089
-7.9259474e-06
-0.0078379046
5.5613471e-05
-7.468074e-06
-0.007782801
4.0090049e-06
-7.1309125e-06
-0.007751998
-4.8093535e-05
-6.4488417e-06
-0.0077571994
-0.00012688272
-5.9515129e-06
-0.00779973
-0.00024727984
-4.7145998e-06
-0.0078651989
-0.00038851077
-3.4284362e-06
-0.0079268922
-0.00048002303
-8.6854848e-07
-0.007937351
-0.00043689455
2.5515607e-06
-0.0078317329
-0.00026713464
9.605954e-06
-0.0075380047
2.3554156e-05
-0.0070642497
0.00026156588
2.5193215e-05
-0.0070641114
0.00043193855
1.1527926e-05
-0.0075328781
0.00047553417
3.2352746e-06
-0.0078244605
0.00038503837
-3.9780683e-07
-0.0079296718
0.00024463772
-3.3399488e-06
-0.0079194469
0.00012503301
-4.6570659e-06
-0.007858417
4.6712014e-05
-6.1189159e-06
-0.0077933979
-4.9791313e-06
-6.6770316e-06
-0.0077512796
-5.6292162e-05
-7.4970782e-06
-0.0077463708
-0.00013414518
-7.8677828e-06
-0.0077774323
-0.00025229566
-8.3764756e-06
-0.0078327528
-0.00039112694
-8.6035832e-06
-0.0078841001
-0.00047973085
-8.7788297e-06
-0.0078884244
-0.00043576631
-8.6206944e-06
-0.0077836438
-0.00026477933
-8.2783188e-06
-0.007510502
-7.8969323e-06
-0.0070982878
0.00026463266
-8.4102993e-06
-0.0070944214
0.00043550852
-8.8198688e-06
-0.0075062849
0.00047946693
-9.0612628e-06
-0.0077792391
0.00039090961
-9.2378552e-06
-0.007883842
0.0002521601
-9.0806206e-06
-0.0078792122
0.00013409391
-8.892711e-06
-0.0078275694
5.6275055e-05
-8.3056343e-06
-0.0077719544
5.0009116e-06
-7.9345422e-06
-0.0077407315
-4.6702708e-05
-6.934635e-06
-0.0077453768
-0.00012504951
-6.3018078e-06
-0.0077871954
-0.00024484417
-4.4148227e-06
-0.0078519201
-0.00038549188
-2.9709195e-06
-0.0079126457
-0.00047661503
7.4814234e-07
-0.0079228397
-0.00043352764
4.4059259e-06
-0.0078176466
-0.00026291565
1.3178395e-05
-0.0075264877
2.6534272e-05
-0.0070592551
0.00025838253
2.7897282e-05
-0.0070583539
0.00042876541
1.4906454e-05
-0.007521098
0.000472095
5.3169511e-06
-0.0078108215
0.00038166851
1.3616139e-06
-0.007915616
0.00024179228
-3.1916033e-06
-0.0079055846
0.00012278293
-4.7891454e-06
-0.0078452861
4.5077093e-05
-7.0244664e-06
-0.0077808802
-6.1449108e-06
-7.6386365e-06
-0.0077394756
-5.7029981e-05
-8.6870543e-06
-0.0077351312
-0.00013453405
-8.9652528e-06
-0.0077666992
-0.00025237708
-9.5475514e-06
-0.0078225763
-0.00039092371
-9.6689546e-06
-0.0078743577
-0.00047932112
-9.7808964e-06
-0.0078791548
-0.00043533257
-9.5380174e-06
-0.0077747424
-0.00026453052
-9.1358748e-06
-0.0075020167
-8.7008453e-06
-0.0070904742
0.00026435626
-9.0722534e-06
-0.0070867856
0.00043503678
-9.5511087e-06
-0.0074980156
0.0004789942
-9.9983839e-06
-0.0077703598
0.00039065613
-1.0331587e-05
-0.0078746115
0.00025221811
-1.0310857e-05
-0.0078696549
0.0001344697
-1.0287462e-05
-0.0078176271
5.7091198e-05
-9.7598679e-06
-0.0077614888
6.4047976e-06
-9.6121042e-06
-0.0077295789
-4.4616439e-05
-8.519953e-06
-0.0077335975
-0.00012203519
-7.9816687e-06
-0.0077745758
-0.00024075855
-5.3698926e-06
-0.0078387644
-0.00038049403
-3.516093e-06
-0.0078989806
-0.00047095135
1.9496166e-06
-0.0079091412
-0.00042790453
6.3305123e-06
-0.0078045682
-0.00025803552
1.6738099e-05
-0.0075158853
2.9353717e-05
-0.0070547719
0.00025481393
3.3099128e-05
-0.0070508983
0.00042285553
2.0501975e-05
-0.0075115858
0.00046561384
7.7164177e-06
-0.007798787
0.00037576157
2.1432086e-06
-0.0079027275
0.00023704786
-4.622427e-06
-0.0078921724
0.00011942453
-6.8576474e-06
-0.0078322217
4.280899e-05
-9.5984053e-06
-0.0077684431
-7.5497692e-06
-9.9642866e-06
-0.0077279253
-5.777324e-05
-1.0898918e-05
-0.007724237
-0.00013478922
-1.0777992e-05
-0.0077564048
-0.00025231463
-1.1109919e-05
-0.00781272
-0.00039058972
-1.0987981e-05
-0.0078649063
-0.00047882473
-1.0958308e-05
-0.0078701114
-0.00043485057
-1.052906e-05
-0.0077661832
-0.00026422512
-9.998503e-06
-0.0074940245
-9.465745e-06
-0.0070830131
0.00026398866
-9.8968982e-06
-0.0070792617
0.00043446239
-1.0501885e-05
-0.0074899593
0.00047837398
-1.1013497e-05
-0.0077619365
0.00039013252
-1.1514724e-05
-0.0078656238
0.00025193679
-1.1664413e-05
-0.0078603193
0.00013452085
-1.1965101e-05
-0.0078078684
5.7686929e-05
-1.1895771e-05
-0.0077513686
7.7623655e-06
-1.2433163e-05
-0.0077188896
-4.2061448e-05
-1.1878715e-05
-0.0077222676
-0.00011787097
-1.1951628e-05
-0.0077624141
-0.00023431987
-9.4066878e-06
-0.0078258615
-0.00037170053
-6.9425847e-06
-0.0078855074
-0.00046044006
1.2967089e-06
-0.007896231
-0.0004172055
8.5009899e-06
-0.0077929299
-0.00025041732
2.551696e-05
-0.0075075877
3.9080679e-05
-0.0070487518
0.0002435089
4.7376968e-05
-0.0070474041
0.00040875745
3.1992042e-05
-0.0075036167
0.00045255395
8.6427371e-06
-0.0077869303
0.00036586565
-1.5180705e-06
-0.0078892641
0.00023052318
-1.1077986e-05
-0.0078786565
0.00011577798
-1.3541633e-05
-0.0078194584
4.1038445e-05
-1.5271109e-05
-0.0077565179
-8.1610076e-06
-1.4384516e-05
-0.0077168387
-5.7772134e-05
-1.4270828e-05
-0.0077137631
-0.0001343935
-1.3211548e-05
-0.0077464404
-0.00025163458
-1.2914842e-05
-0.0078032009
-0.0003897219
-1.2310059e-05
-0.0078558266
-0.00047792694
-1.1995291e-05
-0.0078613402
-0.00043409027
-1.1365083e-05
-0.0077577534
-0.00026375542
-1.0775711e-05
-0.007485986
-1.0137249e-05
-0.0070755219
0.0002634247
-1.0270575e-05
-0.007072016
0.00043354673
-1.0928542e-05
-0.007482199
0.00047722833
-1.160755e-05
-0.0077536991
0.00038892154
-1.2382079e-05
-0.0078570998
0.0002507824
-1.2885432e-05
-0.0078514269
0.00013345042
-1.3739917e-05
-0.0077985603
5.6802175e-05
-1.4416143e-05
-0.0077416475
7.1768464e-06
-1.6111672e-05
-0.0077086322
-4.1797531e-05
-1.7070552e-05
-0.0077113691
-0.00011603554
-1.9054095e-05
-0.0077505773
-0.00022950817
-1.882983e-05
-0.0078127871
-0.00036261677
-1.7343212e-05
-0.0078711853
-0.00044619065
-7.3797497e-06
-0.0078808571
-0.00039951692
5.5503899e-06
-0.0077789934
-0.00023609752
4.0073601e-05
-0.0074986856
5.7777702e-05
-0.0070473358
0.00022354715
7.1701527e-05
-0.0070479735
0.00038890714
4.6150347e-05
-0.0074902215
0.00044233919
-4.3994942e-06
-0.00776373
0.00036547912
-1.96986e-05
-0.0078690111
0.00023349322
-2.4187519e-05
-0.0078634343
0.00011930152
-2.3276099e-05
-0.0078066291
4.4314087e-05
-2.1925822e-05
-0.0077452018
-5.3020326e-06
-1.8997127e-05
-0.0077063612
-5.5330738e-05
-1.7438711e-05
-0.0077038835
-0.00013229634
-1.5182474e-05
-0.0077370904
-0.00024984698
-1.4193559e-05
-0.0077940818
-0.00038813863
-1.3173616e-05
-0.0078471113
-0.00047657647
-1.257542e-05
-0.0078529308
-0.00043305118
-1.1700375e-05
-0.0077497203
-0.0002631163
-1.0956547e-05
-0.0074783103
-1.0283267e-05
-0.0070684054
0.0002627418
-1.0020265e-05
-0.0070652831
0.00043244634
-1.0678289e-05
-0.0074749846
0.00047575351
-1.1559652e-05
-0.0077460442
0.00038708949
-1.2491362e-05
-0.007849082
0.00024854217
-1.3124414e-05
-0.0078431704
0.0001305603
-1.4176885e-05
-0.0077900394
5.2926612e-05
-1.5228753e-05
-0.007732879
1.6748518e-06
-1.7498286e-05
-0.007699381
-4.9781299e-05
-1.8959066e-05
-0.0077016674
-0.0001279561
-2.1621645e-05
-0.0077401368
-0.00024646052
-2.3169088e-05
-0.007800359
-0.00038104424
-2.7852623e-05
-0.0078527305
-0.00045083561
-3.7732715e-05
-0.0078436322
-0.00037671208
-3.623266e-05
-0.0077185072
-0.00020173635
4.1569599e-05
-0.0074614904
9.9364308e-05
-0.0070390748
0.00019798115
0.00012580324
-0.0070103285
0.00039283877
1.1389895e-05
-0.0073814027
0.00046899996
-7.148374e-05
-0.0076387878
0.00039509376
-5.0209121e-05
-0.0077974166
0.0002584153
-2.8012772e-05
-0.0078391023
0.00013570907
-1.8733887e-05
-0.007794892
5.5094374e-05
-1.8755257e-05
-0.0077358081
1.7278248e-06
-1.698849e-05
-0.0076977358
-5.0602882e-05
-1.6401591e-05
-0.007695587
-0.00012895911
-1.4469908e-05
-0.0077291678
-0.000247333
-1.3657986e-05
-0.0077863758
-0.00038616307
-1.2689413e-05
-0.0078394953
-0.00047503332
-1.2135691e-05
-0.0078455607
-0.00043191353
-1.123496e-05
-0.0077426878
-0.00026239827
-1.0347994e-05
-0.0074717135
-9.6445326e-06
-0.0070622398
0.00026203834
-9.0255743e-06
-0.0070603912
0.0004313868
-9.9358074e-06
-0.0074696822
0.00047434098
-1.0850028e-05
-0.0077402647
0.00038528289
-1.1657631e-05
-0.0078428971
0.00024626806
-1.2074181e-05
-0.0078366396
0.00012760757
-1.2846186e-05
-0.0077833222
4.9037356e-05
-1.3429141e-05
-0.0077260712
-3.6298701e-06
-1.4948642e-05
-0.0076922959
-5.6750516e-05
-1.5144818e-05
-0.0076941934
-0.00013686612
-1.6337462e-05
-0.0077317881
-0.00025731714
-1.6291742e-05
-0.0077899157
-0.00039706512
-2.535147e-05
-0.0078311631
-0.00048662119
-4.713285e-05
-0.0077849421
-0.00044814724
-7.0139961e-05
-0.0076294741
-0.00025116406
-2.381183e-05
-0.0073475312
0.00011554488
-0.0069878696
0.00032380445
7.4386903e-05
-0.0069868624
0.00049279175
-2.6559311e-05
-0.0074095501
0.00050672026
-4.2625652e-05
-0.0077029217
0.00040126606
-3.042554e-05
-0.0078240923
0.00025749324
-2.0135493e-05
-0.0078353601
0.00013765399
-1.4864351e-05
-0.0077877097
5.8052213e-05
-1.4607003e-05
-0.0077293224
5.0022857e-06
-1.3569496e-05
-0.0076920459
-4.7821068e-05
-1.3516291e-05
-0.0076904235
-0.00012663802
-1.2381902e-05
-0.0077243226
-0.0002455291
-1.2112948e-05
-0.0077817719
-0.00038474002
-1.1664379e-05
-0.0078354467
-0.00047394332
-1.1512899e-05
-0.0078419956
-0.00043104955
-1.0876542e-05
-0.0077396577
-0.00026171557
-9.8286238e-06
-0.0074692862
-8.2764619e-06
-0.0070602036
0.00026141221
-7.9766937e-06
-0.0070640697
0.00043093689
-1.1075959e-05
-0.0074728637
0.00047390461
-1.254156e-05
-0.0077425853
0.00038457747
-1.2924597e-05
-0.0078443664
0.00024513543
-1.2614516e-05
-0.0078375455
0.0001259336
-1.250148e-05
-0.0077835455
4.6836006e-05
-1.228179e-05
-0.0077258287
-6.3610087e-06
-1.2864363e-05
-0.0076916414
-5.9778943e-05
-1.2736795e-05
-0.0076932787
-0.00014011165
-1.3451383e-05
-0.0077309092
-0.00026144814
-1.3466202e-05
-0.0077907047
-0.0004070065
-1.5469757e-05
-0.007844692
-0.00051100966
-1.7516176e-05
-0.0078482484
-0.00049416902
-1.8760278e-05
-0.0077393098
-0.00034527482
-9.0058754e-06
-0.0074530136
4.0515526e-05
-0.007022673
0.00031505659
2.5155776e-05
-0.0070733348
0.00047262493
-2.4075249e-06
-0.0074906683
0.00050333928
-1.2856099e-05
-0.007762844
0.00040654807
-1.6565042e-05
-0.0078639392
0.00026243856
-1.6838269e-05
-0.007855748
0.00014082363
-1.6112961e-05
-0.0077993662
6.0286617e-05
-1.6065536e-05
-0.0077384189
6.6938345e-06
-1.553427e-05
-0.0077003843
-4.6671651e-05
-1.5800516e-05
-0.0076988253
-0.00012608709
-1.5859838e-05
-0.00773333
-0.00024568519
-1.6822694e-05
-0.0077914419
-0.00038544225
-1.7822558e-05
-0.0078458294
-0.00047478305
-1.8860942e-05
-0.0078531453
-0.00043138006
-1.866913e-05
-0.0077518779
-0.00026120443
-1.6076242e-05
-0.0074830271
-9.5432876e-06
-0.0070750919
0.00026108458
-1.6847894e-05
-0.0070978819
0.00043255412
-2.9499038e-05
-0.0075040747
0.00047695019
-3.4858783e-05
-0.007771424
0.00038776816
-3.529128e-05
-0.0078719084
0.00024751466
-3.3290265e-05
-0.0078644344
0.00012712122
-3.0959773e-05
-0.0078096843
4.7006628e-05
-2.8872602e-05
-0.0077511449
-6.8845805e-06
-2.7986605e-05
-0.0077161819
-6.1011378e-05