/*--------------------------------*- C++ -*----------------------------------*\
| =========                 |                                                 |
| \\      /  F ield         | OpenFOAM: The Open Source CFD Toolbox           |
|  \\    /   O peration     | Version:  v2012                                 |
|   \\  /    A nd           | Website:  www.openfoam.com                      |
|    \\/     M anipulation  |                                                 |
\*---------------------------------------------------------------------------*/
FoamFile
{
    version     2.0;
    format      ascii;
    class       volVectorField;
    location    "100";
    object      U;
}
// * * * * * * * * * * * * * * * * * * * * * * * * * * * * * * * * * * * * * //

dimensions      [0 1 -1 0 0 0 0];


internalField   nonuniform List<vector> 
33282
(
(4.9806569 0.010532315 -0.0036143433)
(4.9834975 0.010455565 -0.0034299947)
(4.9859074 0.010401504 -0.0032658721)
(4.9879106 0.010374456 -0.0031197518)
(4.989582 0.010377309 -0.0029858116)
(4.9909702 0.010411997 -0.0028610843)
(4.9921105 0.010478612 -0.0027440685)
(4.9930377 0.010577785 -0.0026311114)
(4.9937856 0.010710972 -0.0025203624)
(4.9943696 0.010875782 -0.0024123913)
(4.9948102 0.011069249 -0.0023072865)
(4.9951459 0.011296015 -0.002197655)
(4.9953874 0.011558176 -0.0020839923)
(4.9955421 0.011854508 -0.0019673903)
(4.9956214 0.01218295 -0.0018473564)
(4.9956368 0.012541567 -0.0017236948)
(4.9955982 0.012929305 -0.0015958062)
(4.9955139 0.013344748 -0.0014629219)
(4.9953919 0.013785943 -0.0013244156)
(4.9952395 0.014251121 -0.0011803528)
(4.9950641 0.014738137 -0.0010303672)
(4.9948729 0.015244795 -0.00087414336)
(4.9946733 0.015768277 -0.00071155821)
(4.9944719 0.016305788 -0.00054280803)
(4.9942739 0.016854335 -0.00036765484)
(4.9940838 0.017411148 -0.00018575432)
(4.9939054 0.017973538 2.6613846e-06)
(4.9937425 0.018538772 0.00019667733)
(4.9935995 0.019104046 0.00039528381)
(4.9934805 0.01966655 0.00059774538)
(4.9933925 0.020223938 0.00080293328)
(4.9933347 0.020771361 0.0010129103)
(4.9933221 0.021307955 0.0012243733)
(4.9933161 0.02181896 0.0014496674)
(4.9933918 0.022332532 0.0016538596)
(4.9933996 0.022779244 0.0019007541)
(4.9935778 0.023292112 0.0020590967)
(4.9936629 0.023651926 0.0023157244)
(4.9939641 0.024107824 0.0024746405)
(4.9942566 0.024369836 0.0027413036)
(4.994834 0.024855777 0.0030783219)
(4.9792588 -0.0021535567 0.013661824)
(4.9819507 -0.016759771 -0.0034886124)
(4.9811764 -0.0077958282 -0.011431913)
(4.9821186 -0.012409096 -0.011629048)
(4.9822873 -0.0007384125 -0.029958534)
(4.979533 -0.01030851 -0.0021745089)
(4.9629452 -0.020004922 -0.04956334)
(4.9639897 -0.00018276132 -0.034047622)
(4.9605055 0.0037922049 -0.039086027)
(4.9597775 0.0088204247 -0.036360695)
(4.9544403 -0.0076636502 -0.021485816)
(4.9570128 -0.015552146 -0.046060027)
(4.9579977 0.0056408784 -0.053799558)
(4.9571229 -0.011197431 -0.02061293)
(4.9533736 -0.0052971119 -0.076052023)
(4.9530506 -0.0032334601 -0.012443334)
(4.9474168 -0.013046056 -0.060263386)
(4.9457849 0.00097602009 -0.041299392)
(4.9448008 -0.0027255694 -0.047628078)
(4.9452807 -0.0016023755 -0.039377977)
(4.9509781 -0.0050919901 -0.043034633)
(4.9478749 -0.0049244031 -0.042589923)
(4.9393783 -0.0050935013 -0.045880346)
(4.9350594 -0.006004113 -0.047567574)
(4.9326435 -0.0092433496 -0.055444927)
(4.9323108 -0.014222484 -0.067302773)
(4.9349137 -0.019873102 -0.085935239)
(4.9309865 -0.015852887 -0.11675047)
(4.9304665 -0.0079446541 -0.14983956)
(4.9289092 0.0051662909 -0.18567318)
(4.9254962 0.0082185698 -0.1792112)
(4.9345804 0.020545734 -0.12439249)
(4.9570246 0.024089589 -0.061468996)
(4.9683928 0.011212221 -0.035633919)
(4.9689105 0.0049002535 -0.022048969)
(4.9672759 0.0028994169 -0.014934465)
(4.9654685 0.0019277345 -0.0098260049)
(4.9638091 0.0013822585 -0.0067609968)
(4.9623189 0.0010462694 -0.0044336533)
(4.9611289 0.00082492428 -0.0029106717)
(4.9600579 0.00062362225 -0.0017465636)
(4.959333 0.00050313363 -0.00098343577)
(4.9586015 0.00044330565 -0.00027752698)
(4.958838 0.0014291265 -0.00030586481)
(4.9591494 0.0023171786 -0.00023402677)
(4.9591845 0.0029530739 -0.00013965437)
(4.9588867 0.0034274201 -5.1407047e-05)
(4.9583657 0.0036559661 -1.935994e-07)
(4.9576848 0.0038571337 5.086587e-05)
(4.9569362 0.0038788729 0.00010768895)
(4.9561429 0.003826414 0.00014982957)
(4.9553682 0.0036603446 0.00019112222)
(4.9545706 0.0034205962 0.00024126351)
(4.953853 0.0030609721 0.00028777826)
(4.9531441 0.0026296225 0.00033221658)
(4.9525061 0.0021350161 0.00036428097)
(4.9518393 0.0015955132 0.00039579773)
(4.9511396 0.0010545552 0.00041815188)
(4.9501579 0.00044612132 0.00036061406)
(4.9490832 0.00013131298 0.00026573056)
(4.9501566 0.00023346737 0.0009627467)
(4.9512157 0.00025575835 0.0017913194)
(4.952134 0.00021075121 0.002585817)
(4.953073 0.00017998121 0.0033920261)
(4.9541229 0.00018043738 0.0041646316)
(4.9552943 0.00020283321 0.0049564439)
(4.9566191 0.00022699306 0.0057516711)
(4.9580717 0.00023275215 0.0065324102)
(4.9596992 0.00022244679 0.0072807474)
(4.9614531 0.00020455985 0.0079713)
(4.9633707 0.00016677892 0.0085948071)
(4.9653689 0.00012910576 0.0091038544)
(4.967488 8.3409128e-05 0.0095134109)
(4.9696773 4.2456228e-05 0.0097826304)
(4.9719983 4.8248124e-07 0.0099461086)
(4.9743615 -4.4483031e-05 0.0099570888)
(4.9768147 -7.2801789e-05 0.0098679702)
(4.9793047 -0.0001009058 0.0096723667)
(4.9818719 -0.00012699474 0.0093961374)
(4.9845067 -0.00014656677 0.0090550863)
(4.9871479 -0.00015693286 0.0086733153)
(4.9897701 -0.0001495858 0.0082707423)
(4.9924717 -0.00011705202 0.0078663183)
(4.9951766 -0.00011763202 0.0075159753)
(4.9978277 -0.00012432746 0.007107445)
(5.000408 -0.00011318298 0.0067613234)
(5.0030081 -0.00010591361 0.0063688347)
(5.0055436 -0.0001016799 0.0060500125)
(5.0080675 -0.00010164501 0.0056848198)
(5.010517 -8.0176547e-05 0.0053793844)
(5.0129119 -9.3284549e-05 0.0050284664)
(5.0151939 -9.4683781e-05 0.0046804107)
(5.0173868 -0.00010812574 0.0043299534)
(5.0194586 -9.6978141e-05 0.0039782379)
(5.0214124 -0.00011041083 0.0036040212)
(5.023194 -0.00011488443 0.003207336)
(5.0248128 -0.00013326813 0.0027802744)
(5.026191 -0.00016173026 0.0023101875)
(5.0272784 -0.00020025565 0.0017423158)
(5.0279663 -0.00021840669 0.0011660198)
(5.0281376 -0.00024673652 0.00059911641)
(5.0275653 -0.00011398861 0.00013072362)
(5.0264027 2.6956575e-05 2.3092906e-05)
(5.0284214 -0.00049527782 0.00014151014)
(5.0307161 -0.00072225138 0.00016067434)
(5.0340698 -0.0015044491 0.00013600988)
(5.0382878 -0.0016807637 0.00011987251)
(5.0435031 -0.0026934743 0.00016808161)
(5.0494337 -0.0026664426 0.00019396143)
(5.0560317 -0.0039460575 0.00027646403)
(5.0631607 -0.0036596982 0.00026955381)
(5.070552 -0.0052753463 0.00040401668)
(5.0781354 -0.004801446 0.00038541962)
(5.0851359 -0.0066851905 0.00067857844)
(5.0911843 -0.0060055778 0.00078441893)
(5.0944204 -0.0078998082 0.0015858116)
(5.0918797 -0.0069756039 0.0011189057)
(5.073852 -0.0060572719 0.0029810889)
(5.0281431 -0.0087866261 -0.0098406958)
(5.0246912 -0.0045754479 -0.021941926)
(5.0768067 -0.0066132614 -0.0030820885)
(5.0932754 -0.0065166451 -0.0027484744)
(5.0942847 -0.0084337907 -0.00015267989)
(5.0906898 -0.0066788075 0.00048257581)
(5.0846857 -0.0074600446 0.00087079261)
(5.077692 -0.0053624909 0.0007906764)
(5.0702366 -0.0057907465 0.00089725841)
(5.0630099 -0.00409659 0.00072483657)
(5.0558666 -0.0043509098 0.00075141315)
(5.0494591 -0.0030624274 0.00068147941)
(5.0436026 -0.003008047 0.0007027598)
(5.0386023 -0.0019548451 0.00066970864)
(5.0343084 -0.0016405221 0.00061949797)
(5.0312328 -0.00089557508 0.00049786257)
(5.0291673 -0.00069154283 0.00039182011)
(5.0293919 -0.0009321124 0.00075463124)
(5.0313544 -0.0012073577 0.00082003139)
(5.0342407 -0.0019577039 0.00098403399)
(5.0382627 -0.0022226336 0.0010887721)
(5.0432178 -0.0032303037 0.0011497891)
(5.0489422 -0.0033210237 0.0011576784)
(5.05532 -0.0046036274 0.0013423442)
(5.0623108 -0.0043739296 0.0013787349)
(5.0695252 -0.0060768363 0.0018253814)
(5.0768768 -0.0056266237 0.001859739)
(5.0839817 -0.0077070241 0.0024458396)
(5.0902528 -0.006965 0.0020684161)
(5.0941274 -0.0088470101 0.0024677139)
(5.0939127 -0.0078659291 0.00032690964)
(5.078895 -0.0097554571 0.00094817729)
(5.0280704 -0.0080896769 -0.016047583)
(5.024919 -0.00046203769 -0.017141991)
(5.0775925 -0.0050801531 -0.0026830087)
(5.0932297 -0.003605747 -0.0010629082)
(5.0937293 -0.0068204572 0.0016962234)
(5.089386 -0.005367575 0.0019533774)
(5.0829254 -0.0071177832 0.0026349421)
(5.0758386 -0.0051922948 0.0022445987)
(5.0683963 -0.0060883522 0.0023162926)
(5.0612552 -0.0043441809 0.0018650117)
(5.0543871 -0.0047338643 0.0018447741)
(5.0480817 -0.0034148211 0.0016738385)
(5.0424609 -0.00339861 0.0016746123)
(5.0376082 -0.0023504514 0.0015583343)
(5.0337586 -0.0021215851 0.0014509953)
(5.0309509 -0.0012923714 0.0012577772)
(5.0290733 -0.0009696122 0.0012242251)
(5.0283331 -0.00096325094 0.0017618791)
(5.0301961 -0.0013130623 0.0017519012)
(5.0329238 -0.0021621409 0.0019021994)
(5.0366702 -0.0023784734 0.0020226591)
(5.041316 -0.0033939067 0.0021730437)
(5.046744 -0.0033815763 0.0021748018)
(5.0528932 -0.0047228846 0.0024185415)
(5.0597511 -0.0043236977 0.002483692)
(5.066751 -0.0060903749 0.0030045901)
(5.0740737 -0.0051916288 0.0029153543)
(5.0811331 -0.0071801129 0.0033225597)
(5.0875115 -0.0056683604 0.0024758747)
(5.0919101 -0.0076681691 0.0022048969)
(5.0917004 -0.0052049471 -0.00034718127)
(5.0762914 -0.0081153983 -0.0015771508)
(5.0257189 -0.0042588213 -0.015241478)
(5.0199962 0.0075163377 -0.015886201)
(5.0727611 -0.0032174802 -0.0029567123)
(5.0894585 -0.0013998159 0.00039824969)
(5.0898078 -0.0058790976 0.002695402)
(5.0852792 -0.0039148618 0.0029497524)
(5.0787733 -0.0062450571 0.0037569296)
(5.0717963 -0.0042185734 0.0033578003)
(5.064644 -0.0056544603 0.0034845012)
(5.0578227 -0.003880514 0.0029941869)
(5.0510668 -0.0045104412 0.0029281316)
(5.0451253 -0.0031486598 0.002692037)
(5.0398584 -0.0032223686 0.0026591756)
(5.0354035 -0.0022554566 0.0024788015)
(5.0317638 -0.0020894295 0.002380899)
(5.0289293 -0.001215546 0.0022606772)
(5.0271563 -0.00087655472 0.0023013166)
(5.0258189 -0.00079686894 0.0028105263)
(5.027592 -0.0011008185 0.0027912558)
(5.0303044 -0.0019834316 0.0028650987)
(5.0338406 -0.0021755271 0.0029162653)
(5.0381548 -0.0031748228 0.0031089343)
(5.0431346 -0.0030630288 0.003181958)
(5.0488446 -0.0044034024 0.0034034727)
(5.0554616 -0.0037736036 0.0034565534)
(5.0620664 -0.0054491807 0.0038021691)
(5.0688931 -0.0041724197 0.00365524)
(5.0756265 -0.0062134708 0.0037804019)
(5.0819534 -0.0044497919 0.0028402879)
(5.0866302 -0.0069524608 0.0013081521)
(5.0865608 -0.0042215628 -0.0021281882)
(5.0720162 -0.0071477728 -0.010601069)
(5.0228005 -0.0071989036 -0.019708899)
(5.0159912 -0.0081943515 -0.014777086)
(5.0695487 -0.0069315516 0.00096867036)
(5.0832332 -0.0037944299 0.001576559)
(5.0831451 -0.0065318933 0.0038741111)
(5.0785358 -0.0038943155 0.0041163667)
(5.0723485 -0.0058430155 0.0046315235)
(5.0657829 -0.0036695496 0.0041345798)
(5.0591137 -0.0051197425 0.0042369665)
(5.0526762 -0.0033638124 0.0038246706)
(5.0464414 -0.0041542003 0.0038165146)
(5.0409653 -0.0028442905 0.0036043716)
(5.0360767 -0.0030771702 0.0035761505)
(5.0318765 -0.002051347 0.0034054735)
(5.0284734 -0.0018694876 0.0033658381)
(5.0257224 -0.0010201702 0.0032658894)
(5.0239973 -0.00074902629 0.0032382343)
(5.0223265 -0.00074225836 0.0036567422)
(5.0239546 -0.00099367158 0.0037249386)
(5.0264734 -0.0018389029 0.003824307)
(5.0297674 -0.0019813577 0.0038535776)
(5.0337671 -0.0029976384 0.0039765977)
(5.0383167 -0.0027200408 0.0039762899)
(5.0436924 -0.0040581258 0.0041978621)
(5.0497816 -0.003230149 0.004217229)
(5.0558981 -0.0050046464 0.0045572072)
(5.0623567 -0.0033645991 0.0044261802)
(5.0687685 -0.005464995 0.0046948167)
(5.0748732 -0.0027966111 0.0039483507)
(5.0793259 -0.0046676929 0.0026196914)
(5.079269 0.00022367734 -0.00078205493)
(5.0668072 -0.0013689276 -0.0045549707)
(5.0180094 0.0086733822 -0.0083010898)
(5.0260626 -0.0075618968 -0.018238738)
(5.0649085 -0.0082469434 -0.0075353975)
(5.0751385 -0.0039210629 -0.0014662843)
(5.0748921 -0.0062168139 0.0019498886)
(5.0707954 -0.0032930821 0.0037643018)
(5.0649227 -0.0055102122 0.0045873982)
(5.0587552 -0.0031275139 0.0045257875)
(5.0524372 -0.0048244082 0.0046995073)
(5.04655 -0.0029525465 0.0044878925)
(5.0407016 -0.0038596101 0.0045078631)
(5.0357138 -0.0024825463 0.0043097172)
(5.0313502 -0.0027737739 0.0043201353)
(5.0274755 -0.0018178666 0.0042506989)
(5.0243395 -0.0017171213 0.0042312133)
(5.0218868 -0.00093232903 0.004126565)
(5.0203002 -0.00070995778 0.0040478787)
(5.0182365 -0.00071293351 0.0044267038)
(5.0197701 -0.00091029664 0.004513093)
(5.0221014 -0.0017083996 0.0045944276)
(5.025125 -0.0017682764 0.0046158716)
(5.0287846 -0.0027525317 0.0046971401)
(5.0329941 -0.0024605742 0.0047210828)
(5.0376605 -0.0038451735 0.004930815)
(5.0431218 -0.0029401699 0.0049245197)
(5.0488308 -0.0047877431 0.0051777156)
(5.0549487 -0.0030850842 0.0051034423)
(5.0609239 -0.0053276986 0.0054824197)
(5.0666876 -0.0027186826 0.0049775441)
(5.0703696 -0.00490966 0.0043882865)
(5.0701717 -0.00077433351 0.0020925793)
(5.0591574 -0.0018508383 -0.00046804193)
(5.0147707 0.0059491873 -0.023364593)
(5.0023103 -0.0022953899 -0.031293555)
(5.0528481 -0.00337964 -0.014630143)
(5.0652495 -0.00079577743 -0.0045106519)
(5.0658555 -0.0043355721 0.0008888016)
(5.0623476 -0.0019927259 0.0035815564)
(5.0568118 -0.0047175817 0.0047096831)
(5.0510642 -0.0024414714 0.0049427867)
(5.0451065 -0.0043713829 0.0051511436)
(5.0397356 -0.0024930547 0.0050983121)
(5.0346506 -0.0035742108 0.0051523829)
(5.0301708 -0.002275395 0.0050030153)
(5.0261505 -0.0026727521 0.005014449)
(5.0226369 -0.0017239694 0.0049645308)
(5.0197085 -0.0016791264 0.0049518936)
(5.0173751 -0.00090560676 0.004856135)
(5.0158802 -0.00071415318 0.0047441079)
(5.013691 -0.00074153775 0.00511028)
(5.0150896 -0.00094873518 0.0052126917)
(5.0171984 -0.0017539513 0.0052852865)
(5.0200215 -0.0017919213 0.0052796631)
(5.0233514 -0.0027642631 0.0053006101)
(5.0272277 -0.00240176 0.0052556849)
(5.031502 -0.0037428073 0.0054225919)
(5.0363704 -0.0027516807 0.005403749)
(5.0413357 -0.0046479761 0.0055560187)
(5.0469772 -0.0030886369 0.0054282997)
(5.0524625 -0.0054843047 0.0057134779)
(5.0575872 -0.0036848046 0.0049594675)
(5.0603592 -0.0067714294 0.0043891014)
(5.0595588 -0.0061553702 0.0015983041)
(5.0483789 -0.011596387 0.0021272172)
(5.0047931 -0.014754861 -0.020439723)
(4.9897711 0.01531825 -0.02984212)
(5.0392914 -0.00011044047 -0.0046099578)
(5.0536801 0.0029334342 0.0004361432)
(5.055897 -0.0027317271 0.0041485941)
(5.0532346 -0.00042724967 0.0048577916)
(5.0481541 -0.0040315478 0.0057734101)
(5.0429028 -0.0018903749 0.0056331997)
(5.0375491 -0.0041402758 0.0057875445)
(5.0328426 -0.002311384 0.0056665232)
(5.0282311 -0.0035976508 0.0057077434)
(5.0241638 -0.0022436399 0.0055898862)
(5.020482 -0.0026629228 0.0056309455)
(5.0173023 -0.0017142387 0.0056258336)
(5.0146341 -0.0016723104 0.0056429019)
(5.0125944 -0.00088682208 0.0055749986)
(5.0111936 -0.00070835038 0.0054746182)
(5.0087895 -0.00072122628 0.0057928922)
(5.0100877 -0.00087702192 0.0058992995)
(5.0119998 -0.0016718365 0.0059660997)
(5.0145415 -0.0017335945 0.005922462)
(5.0175644 -0.0027353511 0.0058674509)
(5.021066 -0.0023786646 0.0057967206)
(5.0248713 -0.0037344018 0.0057658457)
(5.0292589 -0.002640469 0.0056041899)
(5.0337178 -0.0044384335 0.0055327102)
(5.0386983 -0.0026827646 0.0052550594)
(5.0435199 -0.0048750056 0.0049238812)
(5.048017 -0.0025955648 0.0039172801)
(5.0502614 -0.0056862785 0.0019708512)
(5.0487283 -0.0036961404 -0.0015735807)
(5.0366175 -0.010335219 -0.010924768)
(4.9949471 -0.011388254 -0.027574965)
(4.9728925 0.010763981 -0.030373461)
(5.024358 0.0013764142 0.0048644838)
(5.0424346 0.0028560657 0.0052419028)
(5.0454675 -0.0028286494 0.0060145477)
(5.0435903 -0.00058742058 0.0057643523)
(5.0392629 -0.0041512201 0.0061865431)
(5.0346899 -0.0020030229 0.0059803873)
(5.0298515 -0.0042520778 0.0061651003)
(5.0256091 -0.0023835313 0.0060483749)
(5.0214884 -0.0036482302 0.0061919141)
(5.0179143 -0.0023124914 0.0061884413)
(5.0145259 -0.0027224827 0.0062876977)
(5.0115879 -0.0017319363 0.0063370141)
(5.0092288 -0.0016999489 0.006350492)
(5.0073621 -0.00090817254 0.0062286968)
(5.0061237 -0.00073764855 0.0061073755)
(5.0036752 -0.00076751215 0.0064387339)
(5.0048356 -0.00095676987 0.0065340549)
(5.0064969 -0.0017634193 0.0066159923)
(5.008688 -0.001775529 0.0065727044)
(5.0114307 -0.0027596622 0.0064531404)
(5.0146673 -0.0023418907 0.0063001208)
(5.0181298 -0.003697868 0.0060724682)
(5.0219543 -0.0024595987 0.0058396396)
(5.0258937 -0.004342663 0.0054841136)
(5.0304599 -0.0020560345 0.0049948045)
(5.0347826 -0.004161951 0.0040534991)
(5.038887 -0.00055878906 0.0025006989)
(5.0406402 -0.002326119 -0.00058299595)
(5.0374021 0.0038051994 -0.006588144)
(5.0180279 0.0034865321 -0.019291736)
(4.9658808 0.014725872 -0.021571751)
(4.9802385 -0.015172174 -0.022288951)
(5.0214521 -0.010753932 -0.0066485438)
(5.033802 -0.0037001118 -0.00071965127)
(5.0356609 -0.0059300083 0.0026673876)
(5.034023 -0.0026140379 0.0042755729)
(5.0302237 -0.0053056475 0.005323931)
(5.0262066 -0.0028214716 0.0057839831)
(5.0219733 -0.0048491493 0.0061359356)
(5.0182795 -0.0028439116 0.0063861634)
(5.0146536 -0.0039907469 0.0065567648)
(5.011346 -0.002524435 0.0067244971)
(5.0083522 -0.0029134087 0.0068400447)
(5.0058611 -0.0018481961 0.0069376601)
(5.0037054 -0.0018289373 0.0069911038)
(5.0020506 -0.0010039861 0.0069242672)
(5.0009169 -0.00080059369 0.0068081907)
(4.9984543 -0.0008037512 0.0071388609)
(4.9994931 -0.0010244311 0.0072234855)
(5.0009324 -0.0018198172 0.0072775454)
(5.002918 -0.0018960755 0.0072488453)
(5.0053184 -0.0029573017 0.0070812416)
(5.0081059 -0.0026062511 0.0069101767)
(5.0111999 -0.0040616903 0.0065604862)
(5.0147005 -0.002870718 0.0062892725)
(5.0182219 -0.0047340021 0.0057173309)
(5.0221764 -0.0024374898 0.0052353854)
(5.0259109 -0.0045687457 0.0041831379)
(5.0296136 -0.0007720876 0.0029511145)
(5.0312943 -0.0032616096 0.0011034785)
(5.0287487 0.0024527185 -0.0017003217)
(5.0142517 -0.0012548648 -0.0065211097)
(4.970972 0.0079014311 -0.020798138)
(4.9708764 0.0018555073 -0.025327294)
(5.0109281 -0.0052226829 -0.011662782)
(5.024135 -0.0021067894 -0.0030062842)
(5.0263788 -0.0062465718 0.00042214926)
(5.0248407 -0.0035750137 0.0031722614)
(5.0215251 -0.0063060846 0.0043270783)
(5.0180666 -0.0039475898 0.0056009434)
(5.0143706 -0.0057366878 0.0060851049)
(5.0110484 -0.0036784027 0.0067652302)
(5.0077296 -0.0045937216 0.0070441343)
(5.0048087 -0.0029903613 0.0074043612)
(5.0021747 -0.003226379 0.0075399803)
(4.9999448 -0.0020674441 0.0076859212)
(4.9981663 -0.0020028382 0.007670092)
(4.9967919 -0.0011048704 0.0076358226)
(4.9957639 -0.00083673326 0.0075449033)
(4.993038 -0.00083389084 0.0079514473)
(4.9939869 -0.0011012697 0.008049158)
(4.9953371 -0.0019797624 0.008030459)
(4.9970474 -0.0021117033 0.0080365548)
(4.9990779 -0.00320613 0.0079111799)
(5.0015028 -0.003052332 0.0077876082)
(5.0042073 -0.0045973147 0.0073490182)
(5.007406 -0.0037102619 0.0070299795)
(5.0105612 -0.0057429219 0.0061955647)
(5.0140937 -0.0038850259 0.0055770464)
(5.0173954 -0.0061361218 0.0040901714)
(5.0205603 -0.0029692828 0.0027811445)
(5.0220795 -0.0053724934 0.00020499004)
(5.0197712 -0.00019560084 -0.0029954196)
(5.0067003 -0.0034802329 -0.010250112)
(4.9675598 0.0029489946 -0.024039636)
(4.9670121 -0.0011625628 -0.027644807)
(5.0030399 -0.007465133 -0.014424387)
(5.0153516 -0.0044172395 -0.0049664768)
(5.0174275 -0.0087894608 -0.001479063)
(5.0160209 -0.006047886 0.0026130243)
(5.0130965 -0.0083842479 0.0039551232)
(5.0099774 -0.0056704884 0.0059833668)
(5.006699 -0.0069281859 0.0065991436)
(5.0037505 -0.0046180959 0.0076008542)
(5.0007907 -0.0051719385 0.0078721876)
(4.9982969 -0.0034551152 0.0083574235)
(4.9959875 -0.0035023162 0.0084082828)
(4.9940672 -0.0022849059 0.0085187563)
(4.9924484 -0.0020591445 0.0084735927)
(4.9911439 -0.0011553641 0.0084622405)
(4.9902602 -0.00087825051 0.0083555756)
(4.9876709 -0.00084343631 0.0087350438)
(4.9884902 -0.0011171288 0.0088446057)
(4.9896334 -0.0019858697 0.0088980956)
(4.9911933 -0.0022590764 0.0089977194)
(4.9930087 -0.0034464298 0.0089525352)
(4.9951475 -0.0035014432 0.0089488635)
(4.9974482 -0.0051561859 0.0085232724)
(5.0001768 -0.0048115554 0.008338107)
(5.0029113 -0.0071703089 0.0073741722)
(5.0059377 -0.0062130034 0.0067839637)
(5.008951 -0.0090400684 0.0046428806)
(5.0118597 -0.0069451656 0.003085223)
(5.0133528 -0.0094968149 -0.00096406798)
(5.0113579 -0.0051407401 -0.0047317497)
(4.9996239 -0.0077549997 -0.013583052)
(4.9644885 -0.0012304754 -0.026766055)
(4.9616616 -0.0029932849 -0.030685219)
(4.9967603 -0.011664604 -0.018104227)
(5.0076384 -0.01009231 -0.0068538583)
(5.0092585 -0.01383281 -0.0025617377)
(5.0075056 -0.010857244 0.0032009057)
(5.0047361 -0.011697528 0.0050474334)
(5.0019601 -0.0082472021 0.007760595)
(4.999221 -0.0084418332 0.0082331547)
(4.9967088 -0.0056753083 0.0092783165)
(4.994157 -0.0056319448 0.0092678506)
(4.9920042 -0.0037786936 0.0096379726)
(4.9899867 -0.0036385756 0.009518626)
(4.9883381 -0.0023726741 0.0095366819)
(4.9869445 -0.0020459885 0.0093479522)
(4.9858193 -0.0011458934 0.0092464248)
(4.9849952 -0.00083303977 0.0091050461)
(4.9823477 -0.00076225229 0.0094846768)
(4.9831114 -0.0010326839 0.0096726525)
(4.9842203 -0.0018724498 0.0098291606)
(4.9855069 -0.0022084801 0.010078027)
(4.9870894 -0.0033584123 0.010153561)
(4.9889218 -0.0036347217 0.010415687)
(4.9909256 -0.0054227319 0.010362761)
(4.9932699 -0.0057932544 0.010674509)
(4.9955738 -0.0087149086 0.010001937)
(4.9980969 -0.0093068281 0.0096993372)
(5.000686 -0.013354763 0.0073016277)
(5.0033035 -0.013942312 0.0050269738)
(5.0051737 -0.017742746 -0.0013527007)
(5.0039599 -0.015180141 -0.0073285197)
(4.9941523 -0.016536495 -0.020728065)
(4.9601454 -0.0060173309 -0.034165622)
(4.9589778 -0.011215635 -0.042003188)
(4.9913901 -0.02381293 -0.027208732)
(5.0000891 -0.02308528 -0.008087735)
(5.0007179 -0.023828704 -0.00092166536)
(4.9988798 -0.018176095 0.0074920311)
(4.9965585 -0.015830842 0.0097475877)
(4.9942546 -0.01058228 0.0121639)
(4.9920343 -0.0092817242 0.011848947)
(4.9899299 -0.0059842332 0.012199908)
(4.9877296 -0.0054583537 0.011388628)
(4.9859249 -0.0035119601 0.011231875)
(4.9842318 -0.0031893271 0.010743477)
(4.9827888 -0.0020178755 0.010564264)
(4.9815319 -0.001714008 0.010224371)
(4.9804648 -0.00093288155 0.0099770192)
(4.9797106 -0.0006958065 0.0097437748)
(4.9772469 -0.00055649844 0.0099807776)
(4.9779506 -0.00070791607 0.010252225)
(4.9789275 -0.0013384633 0.010563728)
(4.980102 -0.0015569911 0.01103637)
(4.9814341 -0.0025403396 0.011388104)
(4.9829627 -0.002835938 0.012126415)
(4.9846352 -0.0045139298 0.012699641)
(4.9866146 -0.0051909244 0.013996986)
(4.9884839 -0.008272284 0.014591891)
(4.9904345 -0.010119056 0.015722803)
(4.9922717 -0.015604864 0.014776086)
(4.994127 -0.019904308 0.012387895)
(4.9953686 -0.027434109 0.0037065961)
(4.9950883 -0.030488737 -0.0076826478)
(4.9880603 -0.032815822 -0.032957845)
(4.9587905 -0.015730843 -0.050430545)
(4.9591326 -0.026933983 -0.062496647)
(4.9824203 -0.044260769 -0.04276534)
(4.9853457 -0.037498551 -0.0024073825)
(4.9877813 -0.025893133 0.0094802349)
(4.9890455 -0.015263906 0.018754333)
(4.9883198 -0.012245554 0.019266526)
(4.986915 -0.0072300269 0.01911162)
(4.9852169 -0.0063628841 0.016743403)
(4.9835054 -0.0036522711 0.015560894)
(4.9816693 -0.0033615433 0.013591272)
(4.9800696 -0.0019786318 0.012709625)
(4.9786612 -0.0019113169 0.011759795)
(4.9774217 -0.0011124598 0.011299387)
(4.976332 -0.0010254285 0.010730673)
(4.9753236 -0.0005170982 0.010334787)
(4.9746743 -0.00043690047 0.010045777)
(4.972393 -0.00026107616 0.01004622)
(4.9730243 -0.00023771637 0.010349678)
(4.9738843 -0.00054933392 0.010767734)
(4.9749031 -0.0004788241 0.011404089)
(4.9760832 -0.00093395861 0.01195937)
(4.9774299 -0.00075762188 0.013019094)
(4.978895 -0.0014562005 0.014183711)
(4.9805513 -0.0011340656 0.016469695)
(4.9821111 -0.002072557 0.0181625)
(4.9836427 -0.0012559567 0.020946695)
(4.9841852 -0.0017573867 0.022910975)
(4.9819996 -0.00092597972 0.02462385)
(4.9710992 -0.009223538 0.026019527)
(4.9567644 -0.034269406 0.010290635)
(4.9635956 -0.065630787 -0.044355335)
(4.9530121 -0.044515933 -0.077750522)
(4.9333364 -0.057860799 -0.11600532)
(4.9124638 -0.055128042 -0.03380645)
(4.9059797 -0.0066087504 0.05625156)
(4.9408239 0.0046357276 0.041710918)
(4.972561 0.014024069 0.025669276)
(4.9804613 0.0065551984 0.019109991)
(4.9806361 0.0050613489 0.018684744)
(4.9793897 0.0016388842 0.016783971)
(4.9778969 0.0015066706 0.015819389)
(4.9763073 0.00020897952 0.013758874)
(4.9748684 0.000450906 0.012769234)
(4.9735169 -9.5361776e-05 0.011741133)
(4.9724187 9.0092604e-05 0.011211591)
(4.9714432 -0.00015874349 0.010577223)
(4.9705363 2.858259e-06 0.010147427)
(4.9699504 -0.00010474512 0.0098630075)
(4.9678459 6.8199816e-05 0.0095909512)
(4.9683976 0.00027816053 0.009849595)
(4.9691625 0.00030010963 0.010237652)
(4.9700711 0.00067126027 0.010835924)
(4.9710862 0.0007675707 0.011288887)
(4.9723462 0.0014302713 0.012212885)
(4.97375 0.0016873911 0.012965875)
(4.9752487 0.002905362 0.014607794)
(4.9765341 0.0038344858 0.014745576)
(4.977496 0.0059746286 0.015856507)
(4.9766065 0.0080521483 0.015117159)
(4.9669994 0.01058347 0.024794229)
(4.9324697 0.012938451 0.048962315)
(4.8998951 0.018693515 0.074637878)
(4.8906295 0.023717992 0.012913572)
(4.9182886 -0.036383714 -0.12904003)
(4.9175729 0.041628826 -0.095639102)
(4.9280407 0.07550902 0.032764693)
(4.9440165 0.043043307 0.053362396)
(4.956475 0.019010688 0.035812636)
(4.9685793 0.010310235 0.020952242)
(4.9737564 0.0083457382 0.014703599)
(4.9744563 0.0071365969 0.014443985)
(4.973761 0.005134064 0.013563026)
(4.9726485 0.004170505 0.013357948)
(4.9712111 0.0027190755 0.012010146)
(4.9698824 0.0022400399 0.011404708)
(4.9687858 0.001403993 0.010643915)
(4.9678672 0.0011365483 0.010262341)
(4.9669967 0.00063576107 0.009729124)
(4.9661751 0.00050484527 0.0093756169)
(4.9656604 0.0002113744 0.0091569924)
(4.9636822 0.00035682208 0.0086457609)
(4.9642075 0.00072538038 0.0088295113)
(4.9649376 0.0010022049 0.0091234656)
(4.9656954 0.0015754421 0.0095660237)
(4.9665871 0.0020445752 0.009831793)
(4.9676047 0.0029211106 0.010410696)
(4.9688528 0.003716153 0.010772331)
(4.9701834 0.0051607045 0.011773305)
(4.9712805 0.0067044327 0.01167638)
(4.9721813 0.0086255612 0.012390117)
(4.9722977 0.01110891 0.012108757)
(4.9712963 0.014045025 0.014728076)
(4.9683425 0.023884943 0.017984408)
(4.96314 0.042504257 0.023599321)
(4.951984 0.073859311 0.016580121)
(4.9378007 0.079565155 -0.048214588)
(4.962157 0.05169781 -0.029903104)
(4.9680083 0.044462213 -0.0033931478)
(4.970383 0.028555823 0.0053128345)
(4.9707941 0.020283924 0.0085577467)
(4.970939 0.013985497 0.0091702263)
(4.9705978 0.011121311 0.0093241024)
(4.9699042 0.0087887471 0.009953978)
(4.968861 0.0069741517 0.009855045)
(4.9678169 0.0055354809 0.009998438)
(4.9665893 0.0041413326 0.0094208242)
(4.9654374 0.0033040563 0.0092728259)
(4.9644981 0.0023980339 0.0089151371)
(4.9637254 0.0018436691 0.0087324363)
(4.9629341 0.001204303 0.008381079)
(4.9621762 0.00086076269 0.0081599787)
(4.9616648 0.00045623083 0.0080097602)
(4.9600018 0.00054356921 0.0073340365)
(4.9604771 0.0009922609 0.007456333)
(4.9611162 0.0014249206 0.0076153182)
(4.961783 0.0020669862 0.00785991)
(4.9625942 0.002710246 0.0079634588)
(4.9634729 0.0035918983 0.0081702738)
(4.9645465 0.004510726 0.0081443691)
(4.9656168 0.0057211484 0.0084675742)
(4.9667055 0.0071536008 0.0081291939)
(4.9677454 0.0086861759 0.0079802818)
(4.9686815 0.010918536 0.0068338144)
(4.9693236 0.013100063 0.0059286942)
(4.9697083 0.01678745 0.0038922598)
(4.9700154 0.020136351 2.5738588e-05)
(4.9698717 0.023903663 -0.0067504533)
(4.9692971 0.02341717 -0.022483135)
(4.9689069 0.013021874 -0.015450739)
(4.9688405 0.015234602 -0.0066403213)
(4.9686563 0.01441423 -0.0017634695)
(4.9682365 0.013233304 0.0015060557)
(4.9676692 0.011192328 0.0033156985)
(4.9668074 0.0096929645 0.0046933371)
(4.9657043 0.0080440167 0.0059103703)
(4.9646434 0.0067391749 0.0064832814)
(4.9636724 0.0055453535 0.0068793909)
(4.9625809 0.0044626685 0.0068416232)
(4.9615462 0.0036266119 0.0069958173)
(4.9607381 0.002790826 0.0069396896)
(4.9600005 0.0021345074 0.006927396)
(4.9593604 0.0015016445 0.0067668741)
(4.9586696 0.0010392871 0.0066610617)
(4.9582555 0.00058796162 0.0065934931)
(4.9569011 0.00062553841 0.0058342984)
(4.9573061 0.0010907518 0.005879224)
(4.9578429 0.0015789662 0.0059373077)
(4.9584364 0.0021838673 0.0060141397)
(4.9591231 0.0028432666 0.0059704299)
(4.9599062 0.0036109077 0.0059500703)
(4.9608645 0.0044037191 0.0057228784)
(4.9618174 0.0052876052 0.0056474403)
(4.9628127 0.0063049086 0.0051779609)
(4.9638075 0.0072922279 0.0045583922)
(4.9648908 0.0084175087 0.0033732247)
(4.9657612 0.0091997059 0.0021191254)
(4.9664139 0.010163226 0.00040169535)
(4.9668507 0.010452186 -0.0021480496)
(4.9670854 0.010182367 -0.0054731561)
(4.9672318 0.008029693 -0.010763526)
(4.9654617 0.0053551994 -0.0076241845)
(4.9653938 0.0071809072 -0.0044624553)
(4.9651742 0.0078116374 -0.0021101989)
(4.9647095 0.0080200992 -0.0001644964)
(4.9640254 0.0076218894 0.0012187097)
(4.963158 0.007231202 0.0023495363)
(4.9621684 0.0065125673 0.0033166049)
(4.9611902 0.005750314 0.0039787043)
(4.9602847 0.0049096876 0.0044459599)
(4.9593315 0.0041608236 0.0046405774)
(4.958375 0.0034519385 0.0049013496)
(4.957632 0.0027529363 0.0049943022)
(4.9570145 0.0021399002 0.0050943971)
(4.9564657 0.0015601305 0.0050726813)
(4.9558754 0.0010709022 0.0050395387)
(4.9555189 0.00062923005 0.0050267001)
(4.9544323 0.00062808366 0.0042226573)
(4.9548268 0.0010570795 0.0042279786)
(4.9552792 0.0015426699 0.0042254903)
(4.9558443 0.0021095895 0.0042126753)
(4.9564141 0.0026929392 0.0040874363)
(4.9571271 0.0033182142 0.0039624276)