/*--------------------------------*- C++ -*----------------------------------*\
| =========                 |                                                 |
| \\      /  F ield         | OpenFOAM: The Open Source CFD Toolbox           |
|  \\    /   O peration     | Version:  v2012                                 |
|   \\  /    A nd           | Website:  www.openfoam.com                      |
|    \\/     M anipulation  |                                                 |
\*---------------------------------------------------------------------------*/
FoamFile
{
    version     2.0;
    format      ascii;
    class       volScalarField;
    location    "200";
    object      k;
}
// * * * * * * * * * * * * * * * * * * * * * * * * * * * * * * * * * * * * * //

dimensions      [0 2 -2 0 0 0 0];


internalField   nonuniform List<scalar> 
33282
(
0.18960532
0.18671527
0.18390208
0.18116179
0.1784908
0.17588571
0.17334337
0.17086087
0.16843537
0.16606426
0.16374505
0.16147538
0.15925297
0.15707558
0.15494111
0.15284752
0.15079277
0.1487749
0.14679204
0.14484237
0.14292405
0.14103522
0.13917415
0.13733912
0.13552835
0.13374008
0.13197259
0.13022411
0.12849347
0.12677822
0.12507624
0.12338481
0.12170165
0.12002564
0.11836287
0.11670605
0.11508515
0.11347202
0.11192065
0.11037064
0.1089521
0.10848488
0.11089385
0.11463061
0.11652617
0.11875366
0.12151218
0.12440197
0.12767266
0.13093979
0.13417818
0.13679457
0.13963276
0.14163001
0.14328688
0.14460296
0.14635718
0.14624548
0.14672694
0.14698962
0.14777893
0.14834585
0.14941039
0.15012811
0.14941934
0.14803499
0.14548262
0.14099194
0.13489501
0.12779803
0.12408385
0.12552304
0.13764014
0.15246557
0.16625868
0.17656642
0.18221505
0.1855022
0.18638558
0.18673284
0.18610788
0.18579454
0.18520079
0.18555752
0.18508301
0.18464549
0.18423812
0.18391563
0.18341005
0.18300346
0.18256616
0.18225924
0.1819961
0.18187478
0.18179161
0.18161241
0.18148574
0.18125549
0.18122083
0.18137744
0.18194041
0.18128706
0.18116457
0.18131143
0.18160792
0.18188616
0.18203459
0.18218175
0.18232731
0.1824661
0.18260796
0.18273787
0.18290999
0.18312508
0.18321944
0.18333813
0.18349302
0.18368693
0.1839446
0.18417935
0.18440702
0.18466945
0.1848405
0.18507563
0.18524965
0.18544067
0.18557447
0.1857004
0.18584344
0.18599111
0.18612222
0.18631199
0.18651511
0.18669366
0.18690423
0.18716194
0.18740715
0.18763681
0.18786309
0.18814014
0.18825788
0.18850914
0.1888992
0.18963972
0.18922173
0.18953165
0.18972231
0.19055196
0.19106397
0.19197054
0.1923172
0.19266966
0.19190806
0.19023837
0.18638915
0.1800847
0.17019776
0.15617916
0.13904722
0.12126649
0.12106076
0.13906977
0.15571405
0.16960785
0.17934884
0.18592588
0.18953714
0.1914983
0.19197775
0.19184923
0.19118594
0.1905361
0.18977534
0.18926901
0.18890251
0.18884096
0.18849994
0.18859996
0.18891154
0.1893973
0.1900988
0.19078664
0.19149551
0.19168727
0.19121636
0.18933598
0.18563112
0.17920798
0.16939864
0.15596265
0.13978041
0.12285094
0.12522042
0.14102164
0.15646077
0.16952158
0.17899839
0.1853761
0.18900468
0.19086154
0.19133619
0.19101895
0.19033922
0.18956522
0.18898096
0.18848411
0.18832024
0.1881913
0.18809509
0.18814081
0.18833171
0.1887047
0.18930817
0.19001341
0.19090366
0.19107814
0.19079807
0.18897783
0.18537612
0.17919808
0.16988297
0.15728019
0.1422312
0.12693158
0.1286569
0.14362259
0.15823713
0.1704433
0.17952029
0.18540571
0.18899334
0.19058118
0.19078502
0.19058488
0.18963938
0.18888913
0.18824593
0.18792046
0.18773486
0.18767869
0.18740448
0.18735336
0.18764348
0.1881277
0.1886166
0.18951774
0.19036814
0.19061668
0.19055828
0.18904307
0.18571473
0.1798464
0.17122867
0.15939256
0.14531324
0.13113696
0.1333904
0.14698561
0.16040086
0.17192841
0.18020963
0.18585165
0.18899209
0.19050751
0.19050319
0.19012431
0.18914888
0.18830711
0.18780792
0.18742511
0.18712059
0.18725891
0.18701277
0.18700054
0.18724234
0.18758941
0.1882783
0.18908602
0.18986939
0.19025803
0.19033989
0.18903915
0.1860595
0.18062916
0.17253829
0.1616175
0.1485669
0.13575145
0.138122
0.15012017
0.16250647
0.17307749
0.18105188
0.18619028
0.18891136
0.19023453
0.19009299
0.18964244
0.18875438
0.1878397
0.18720784
0.18692814
0.18667055
0.18668636
0.18647338
0.18644321
0.18674141
0.18705918
0.18772471
0.18847199
0.18939271
0.18992491
0.19016135
0.18890247
0.18618631
0.18133202
0.17386014
0.16370068
0.15187062
0.14083698
0.14319283
0.15349979
0.16458299
0.17429783
0.18131175
0.1861944
0.18896499
0.19005679
0.18987633
0.18915923
0.18847694
0.18768439
0.18706293
0.18665178
0.18631443
0.18640624
0.1861878
0.18620612
0.18644446
0.18672752
0.187454
0.18824848
0.18907246
0.18969992
0.18987453
0.18876402
0.18626793
0.18152343
0.17465079
0.16550468
0.15519589
0.14561869
0.14737431
0.15646155
0.16608987
0.17483583
0.18143339
0.18621083
0.18872829
0.18975469
0.18961437
0.18900914
0.18806929
0.18713199
0.18652417
0.18622425
0.18593544
0.18592679
0.18585396
0.18585278
0.18604973
0.18637732
0.18704669
0.18787753
0.18883059
0.18948895
0.1896908
0.18865882
0.18606305
0.1814724
0.17491241
0.16646004
0.15727621
0.14843498
0.14936865
0.15782765
0.16655348
0.17486999
0.18137668
0.1859815
0.18861091
0.18950889
0.18910989
0.18854152
0.18766646
0.18684017
0.1863106
0.18593031
0.18572889
0.18566507
0.18552045
0.18550282
0.1858441
0.18630343
0.18691506
0.18754306
0.18833166
0.18895655
0.18933205
0.18835883
0.18597065
0.18151114
0.17502299
0.16703532
0.15846342
0.15062883
0.15090036
0.15854064
0.1671145
0.1751754
0.18143213
0.18591224
0.1883627
0.18923719
0.1888991
0.18813569
0.18752566
0.18685357
0.18613245
0.18576857
0.18539003
0.18548084
0.1853648
0.18537863
0.18571911
0.18617782
0.18672492
0.18741849
0.18820366
0.188687
0.1889483
0.18815615
0.18581534
0.1817261
0.17552482
0.16773528
0.15931641
0.15150896
0.15192866
0.15977646
0.16803012
0.17582652
0.18177379
0.18584099
0.18814656
0.18883635
0.18852025
0.18802243
0.187163
0.18650799
0.18584524
0.18550158
0.1851486
0.18510872
0.1850164
0.18508407
0.18539457
0.18578354
0.18642358
0.1872762
0.18806703
0.1885386
0.18902878
0.18830782
0.18622021
0.18220265
0.1761667
0.16853051
0.16023239
0.15246448
0.15289291
0.16072734
0.16885696
0.17648561
0.18236611
0.18612974
0.18821482
0.18885183
0.18848833
0.18795225
0.18702668
0.18616933
0.18558684
0.18506806
0.18483537
0.18471226
0.18461898
0.18467841
0.18498831
0.18543135
0.18602034
0.18684929
0.18789755
0.18858407
0.18889157
0.18816563
0.18629224
0.18247274
0.17682247
0.1694264
0.16143537
0.15406585
0.15459931
0.16187545
0.16951304
0.17686825
0.18254922
0.18633392
0.18816891
0.18894595
0.1884364
0.187779
0.18669787
0.18586065
0.18510749
0.18464513
0.18430795
0.1842141
0.18397584
0.18395937
0.1843606
0.1849713
0.18552467
0.18666033
0.18768244
0.18840398
0.18873921
0.18798692
0.18598769
0.1820201
0.17640427
0.16903677
0.16147147
0.15412954
0.15258165
0.16010431
0.16768427
0.17518131
0.18090938
0.18515345
0.1872378
0.18805367
0.18783157
0.18720521
0.18617068
0.18516685
0.18456799
0.18413583
0.18373326
0.1838228
0.18353107
0.18354364
0.18383229
0.18429504
0.18502358
0.18576409
0.18665696
0.18734682
0.18737456
0.18633361
0.18383215
0.17922181
0.17316797
0.16541703
0.15751065
0.14993513
0.1455765
0.15374188
0.16212728
0.17039221
0.17710425
0.18216391
0.18503802
0.18630467
0.1864929
0.18622109
0.18549761
0.18484437
0.18403634
0.18358227
0.18329768
0.18328812
0.18318517
0.18319821
0.18338458
0.18377765
0.18442192
0.18506041
0.1857565
0.18598276
0.18556384
0.18380968
0.18030747
0.17457752
0.16708916
0.15817598
0.14895756
0.14010703
0.13354134
0.14358907
0.15405577
0.16394955
0.17199847
0.178373
0.18236866
0.18463035
0.18535545
0.18514659
0.1845934
0.1841496
0.18353336
0.18321049
0.1830893
0.1830519
0.18304664
0.18297648
0.18306355
0.18335741
0.18381041
0.18429512
0.18481008
0.18476065
0.18375877
0.18146421
0.17713822
0.17065285
0.16202378
0.15182791
0.14059689
0.13005325
0.13192573
0.14182545
0.15273605
0.16267138
0.1707787
0.17705973
0.18121271
0.18337349
0.18435274
0.18438877
0.18394906
0.18352042
0.18297302
0.18274924
0.18267862
0.18269498
0.18246923
0.18235844
0.18251112
0.18276701
0.18309182
0.18374081
0.18406346
0.18389342
0.18335068
0.18150621
0.17839521
0.17335035
0.16644851
0.15840921
0.14950983
0.14190604
0.15538744
0.16031237
0.16617377
0.17182775
0.17658043
0.18014497
0.18206755
0.18331972
0.18372377
0.18363705
0.1831827
0.18263714
0.18233601
0.18229143
0.18216851
0.18240766
0.18223123
0.18205236
0.18202739
0.18204862
0.18242408
0.1827062
0.18309826
0.18349241
0.1833874
0.18280848
0.18153454
0.17956914
0.1769882
0.17378565
0.17036785
0.16766268
0.17677328
0.17784835
0.17945905
0.18094195
0.18188255
0.18264712
0.18320855
0.1832044
0.18318968
0.18290527
0.18251728
0.18223877
0.18178481
0.18180191
0.1818462
0.18203629
0.18193917
0.1817701
0.18166979
0.18162779
0.18187187
0.1821159
0.18248482
0.18291811
0.18310943
0.18343546
0.18346828
0.18327752
0.18308269
0.1827836
0.18242324
0.18210563
0.18496025
0.18459892
0.18420442
0.18391212
0.18370097
0.18365112
0.1832231
0.18283782
0.18264494
0.18237811
0.18191081
0.18174039
0.18142727
0.18152734
0.18163611
0.18175643
0.18172901
0.1815855
0.18151938
0.181436
0.18162634
0.18183732
0.18218018
0.18230945
0.18267743
0.18304324
0.1834975
0.18375857
0.18430695
0.18478752
0.18517441
0.18583513
0.18591345
0.18524115
0.18485186
0.18423225
0.18364317
0.1832809
0.18276347
0.18245379
0.18204503
0.181882
0.18151586
0.18139966
0.18120844
0.18128153
0.18126947
0.18133648
0.18107842
0.18096317
0.18107056
0.18123758
0.1812979
0.18147722
0.18177639
0.18194771
0.18223071
0.18261942
0.18306245
0.1834639
0.1841626
0.18466951
0.18510917
0.1856023
0.18512352
0.18474346
0.18426245
0.18389385
0.1832006
0.18278924
0.18230349
0.181978
0.18178009
0.1815597
0.18143696
0.18126866
0.18113268
0.18087742
0.18081539
0.18098797
0.18107757
0.1810004
0.18099089
0.18123371
0.18128913
0.18155626
0.18157734
0.18168508
0.18204686
0.18234832
0.18281919
0.18322049
0.18381588
0.18413779
0.18451544
0.18482796
0.18676476
0.18713131
0.18943985
0.19182674
0.19424559
0.19666226
0.19906455
0.20142727
0.20374535
0.2060062
0.20820641
0.2103516
0.21242829
0.21444068
0.21639753
0.21830114
0.22014852
0.22193917
0.22367462
0.22536006
0.22699266
0.22857887
0.23012579
0.23163263
0.23310559
0.23454993
0.23596656
0.23736105
0.23873666
0.24009689
0.24144579
0.24278575
0.24411964
0.24544983
0.24677929
0.24811011
0.24944431
0.25078352
0.25212929
0.25348294
0.25484554
0.256218
0.25760101
0.25899522
0.25771701
0.25632594
0.25494531
0.25357436
0.25221214
0.25085748
0.24950897
0.24816503
0.24682373
0.24548303
0.24414048
0.24279355
0.24143926
0.2400746
0.23869609
0.23730033
0.23588343
0.2344418
0.23297133
0.23146848
0.22992915
0.22835005
0.22672729
0.22505815
0.22333928
0.22156876
0.21974384
0.21786353
0.21592575
0.21393028
0.21187582
0.20976296
0.20759122
0.20536236
0.2030848
0.20076171
0.19842968
0.19608303
0.19377098
0.19151873
0.19114006
0.19343799
0.19579473
0.19817225
0.20054369
0.2028947
0.20520339
0.20746098
0.20966186
0.21180421
0.21388757
0.21591234
0.21787751
0.21978459
0.2216348
0.22342989
0.22517188
0.2268632
0.22850663
0.23010531
0.2316627
0.23318255
0.2346686
0.23612462
0.23755445
0.23896191
0.24035077
0.24172468
0.24308708
0.24444122
0.24579006
0.24713629
0.24848234
0.24983043
0.25118252
0.25254027
0.2539052
0.25527853
0.25666128
0.25805437
0.25879008
0.25739363
0.25600728
0.25463016
0.25326121
0.25189911
0.25054232
0.24918912
0.24783755
0.24648533
0.24513014
0.24376926
0.24239972
0.24101801
0.23962072
0.23820418
0.23676468
0.2352984
0.23380208
0.23227199
0.23070433
0.22909428
0.22743907
0.22573532
0.22398031
0.22217152
0.22030724
0.21838499
0.21640414
0.21436369
0.21226497
0.2101066
0.20788946
0.20561484
0.20328796
0.20092025
0.19853094
0.19613922
0.19376832
0.19146847
0.19168205
0.19401465
0.19641408
0.19884631
0.20127836
0.20368872
0.20605704
0.20837155
0.21062804
0.21282476
0.2149615
0.21703898
0.21905584
0.22101469
0.22291499
0.22475893
0.22654751
0.22828286
0.22996888
0.23160502
0.23319635
0.23474895
0.23626783
0.23775699
0.23921817
0.24065492
0.24207142
0.2434701
0.24485504
0.24623026
0.24759911
0.24896439
0.25032814
0.25169261
0.25305993
0.25443171
0.25580966
0.25719525
0.25858963
0.25999384
0.26171855
0.26029896
0.25888856
0.25748634
0.25609111
0.25470139
0.25331559
0.25193186
0.25054806
0.24916198
0.24777113
0.24637274
0.24496364
0.24354018
0.24209918
0.24063705
0.23914996
0.23763459
0.23608754
0.23450516
0.23288328
0.23121728
0.22950464
0.22774214
0.22592676
0.22405647
0.22212856
0.2201421
0.2181025
0.2160007
0.21383717
0.21161461
0.20933332
0.20699508
0.20460391
0.20217131
0.19972835
0.1972854
0.19486649
0.19252166
0.19306063
0.1954534
0.19792007
0.20042059
0.20292265
0.2054105
0.20784366
0.21021903
0.21253694
0.21479801
0.21700739
0.21916635
0.22126547
0.22330903
0.2252864
0.22720379
0.22906606
0.23087612
0.23263946
0.23435578
0.2360265
0.23765694
0.23925067
0.24081138
0.24234241
0.24384782
0.24533231
0.24679822
0.24824837
0.24968665
0.25111611
0.25253956
0.25395954
0.25537843
0.25679856
0.25822161
0.25964915
0.26108277
0.26252375
0.26397332
0.26670157
0.26520058
0.26370732
0.26222069
0.26073941
0.25926194
0.25778675
0.25631196
0.25483548
0.25335482
0.25186768
0.25037123
0.24886265
0.24733831
0.24579556
0.24423091
0.24264057
0.24102067
0.23936855
0.23768048
0.23595346
0.23418274
0.23236704
0.23050336
0.22858914
0.22662063
0.22459616
0.22251382
0.22037969
0.21818537
0.21593346
0.21362668
0.21126476
0.2088478
0.20638161
0.20387641
0.20136438
0.19885648
0.19637652
0.19397733
0.19433104
0.19675556
0.19926552
0.20181767
0.2043828
0.20692368
0.20942795
0.21189858
0.21430752
0.21665781
0.21896026
0.22121717
0.2234197
0.22556897
0.22766321
0.22970578
0.23169062
0.2336236
0.23551293
0.23735833
0.23916056
0.240925
0.24265634
0.24435926
0.24603174
0.24767813
0.24930427
0.25091219
0.25250432
0.25408451
0.25565588
0.25722144
0.25878207
0.26034052
0.26189937
0.26346015
0.26502429
0.2665934
0.26816883
0.26975197
0.2728593
0.27115814
0.26946489
0.26777852
0.26609786
0.26442139
0.2627477
0.26107519
0.25940189
0.25772578
0.25604474
0.25435637
0.25265804
0.25094655
0.24921932
0.24747353
0.24570597
0.24391357
0.24209375
0.24024309
0.23835854
0.23643675
0.23447507
0.23247182
0.23042452
0.22833039
0.22618824
0.22399699
0.22176175
0.21947267
0.21713047
0.21473894
0.21229829
0.20980936
0.20728018
0.20472237
0.20216614
0.19962344
0.19711799
0.19470059
0.1939391
0.19637102
0.198902
0.20146275
0.20403976
0.20661356
0.20916147
0.21167112
0.21413682
0.21656214
0.21895207
0.22128732
0.22357433
0.2258173
0.22801637
0.23017357
0.23229016
0.23437255
0.23641865
0.23843006
0.24040964
0.24236062
0.24428584
0.24618824
0.24807048
0.24993643
0.25178971
0.25362954
0.25545955
0.25728312
0.25910266
0.26092035
0.26273813
0.26455818
0.2663824
0.26821113
0.27004604
0.27188863
0.27373995
0.27560154
0.27736419
0.27530153
0.27325226
0.27121556
0.2691905
0.26717577
0.2651704
0.26317326
0.26118303
0.25919785
0.25721624
0.25523628
0.2532558
0.25127196
0.2492827
0.24728588
0.24527914
0.24325924
0.24122409
0.23917108
0.23709717
0.23499971
0.23288038
0.23073497
0.22856064
0.22635238
0.22410761
0.22182733
0.21951053
0.21715535
0.21476212
0.2123319
0.20986386
0.20735651
0.20481502
0.20225279
0.19969297
0.19715865
0.19467279
0.19227468
0.18840674
0.19078639
0.19325087
0.19575502
0.19828378
0.20081732
0.20333844
0.20584029
0.20829771
0.21071873
0.21310838
0.21546841
0.21779898
0.22010264
0.22238449
0.22464708
0.22688815
0.22910889
0.23131098
0.23349875
0.23566837
0.2378251
0.23997481
0.24212078
0.24426225
0.24640148
0.24854194
0.25068336
0.2528289
0.25498152
0.25714391
0.25931809
0.26150415
0.26370368
0.26591837
0.26814811
0.27039427
0.27265819
0.27494101
0.2772448
0.27399275
0.27143038
0.26889597
0.26638891
0.26390856
0.26145372
0.25902485
0.25661936
0.25423546
0.25187235
0.24952925
0.24720454
0.24489685
0.24260404
0.24032466
0.23805698
0.23579872
0.2335476
0.23130205
0.22905947
0.22681698
0.22457135
0.22232083
0.22006305
0.2178
0.2155275
0.21324374
0.21094616
0.20863218
0.2062978
0.20393976
0.20155839
0.1991513
0.19671505
0.19425642
0.19178884
0.18933598
0.18691707
0.18453976
0.18219852
0.17217093
0.1743855
0.17665744
0.17897028
0.18131723
0.18368116
0.18604069
0.18838261
0.19070363
0.19300769
0.1953018
0.19759042
0.19987061
0.20214507
0.20441568
0.20668444
0.20895394
0.21122534
0.21350047
0.21578368
0.21807072
0.22036793
0.22267914
0.22500678
0.22735299
0.22971966
0.2321106
0.23452796
0.23697086
0.2394409
0.24193963
0.24446862
0.24702886
0.24962174
0.25224976
0.25491089
0.25760727
0.26034062
0.26311174
0.26592527
0.2515616
0.2485719
0.24563246
0.24274241
0.23990076
0.23710597
0.23435987
0.23165915
0.22900046
0.22638068
0.2238003
0.22125827
0.2187528
0.21628228
0.21384619
0.21144276
0.20907014
0.2067258
0.2044082
0.20211524
0.19984412
0.19759218
0.19535809
0.19313959
0.19093447
0.18874009
0.18655457
0.1843755
0.18220501
0.1800353
0.17786268
0.17568528
0.17349991
0.1713023
0.16909604
0.16689255
0.16471176
0.16257657
0.16049833
0.15838716
0.14073176
0.14256547
0.14445042
0.14638941
0.14836927
0.15036919
0.15238248
0.15440495
0.15641903
0.15843005
0.16044763
0.16247649
0.16451485
0.16656434
0.16862668
0.1707073
0.17279982
0.17491095
0.17704791
0.17921667
0.18140586
0.18362178
0.18587134
0.18816025
0.19047803
0.19283059
0.19522462
0.19766588
0.20014365
0.20266444
0.20523465
0.20785714
0.21052865
0.21325053
0.21602783
0.21885463
0.22173719
0.22467808
0.22768202
0.23076032
0.25471238
0.25329549
0.25188977
0.25049488
0.2491103
0.24773539
0.24636933
0.24501116
0.24365964
0.24231344
0.24097087
0.23963005
0.23828866
0.23694425
0.23559402
0.23423502
0.23286389
0.23147712
0.23007117
0.22864233
0.22718737
0.22570247
0.22418375
0.22262756
0.22102911
0.21938521
0.21769241
0.21594833
0.21415048
0.21229746
0.21038755
0.20842032
0.20639474
0.20431101
0.20216919
0.1999695
0.19771348
0.19541121
0.19306853
0.19072075
0.18836516
0.18604988
0.18381001
0.18319303
0.18308518
0.18325758
0.18352517
0.18380604
0.1839449
0.18409064
0.1842479
0.18438318
0.184543
0.18467875
0.18485222
0.18506551
0.18517249
0.18529041
0.1854601
0.18564432
0.18591616
0.18614946
0.18637171
0.18662056
0.18679392
0.18702269
0.18720381
0.18738661
0.18753204
0.18765937
0.18780389
0.18794497
0.18808335
0.1882641
0.1884799
0.18865865
0.18886543
0.18911075
0.18936538
0.18958674
0.1898155
0.19007169
0.19020919
0.1904281
0.19081421
0.19310857
0.19273313
0.19253732
0.192389
0.19215687
0.19193381
0.19171101
0.19146056
0.19122699
0.19102434
0.19083491
0.19061881
0.19044681
0.19030184
0.19016565
0.19001724
0.18987899
0.18973328
0.18955947
0.18936794
0.18914928
0.18897109
0.18874093
0.18852194
0.18828079
0.18800654
0.18783207
0.18764618
0.18752727
0.18740249
0.18719318
0.18701752
0.18686502
0.18669836
0.18656596
0.18639388
0.18624755
0.18610244
0.18582503
0.18557134
0.18538162
0.18549001
0.18783896
0.18774488
0.18794548
0.1881913
0.18845634
0.18861983
0.18877086
0.18895804
0.18909103
0.18925752
0.18942464
0.18960661
0.18980812
0.18995613
0.1900809
0.19028047
0.19044723
0.19071652
0.19096721
0.19118043
0.19139068
0.19157822
0.19178742
0.19198931
0.19216095
0.19229552
0.1924461
0.19259932
0.1927351
0.19288464
0.19304909
0.19325808
0.19345619
0.19365989
0.19388497
0.19412327
0.19434833
0.19456103
0.1947681
0.1949268
0.19510977
0.19547304
0.19784726
0.1975115
0.1973274
0.19717463
0.19697535
0.19677109
0.1965531
0.19632798
0.19610093
0.19590765
0.19570033
0.19549915
0.1953322
0.1951875
0.1950435
0.19488509
0.19473242
0.194599
0.19443069
0.19423711
0.19402198
0.193834
0.19364216
0.19342501
0.19317365
0.19291034
0.19274094
0.19253707
0.1923991
0.19223718
0.19203274
0.19185391
0.19167134
0.19150599
0.19135993
0.19116545
0.19100274
0.19083748
0.19056911
0.19033094
0.19012771
0.19022112
0.19259283
0.19251484
0.1927148
0.19294795
0.1932181
0.19338499
0.19356278
0.19376022
0.19392163
0.19408571
0.1942862
0.1944597
0.19466736
0.19484295
0.19499558
0.19520174
0.19537606
0.19563436
0.19587851
0.19610858
0.19628415
0.19646649
0.19669144
0.19687174
0.19703358
0.19717003
0.19731931
0.1974853
0.19764362
0.19777632
0.19795121
0.19814333
0.1983615
0.19853699
0.19877199
0.1989821
0.19918776
0.19938765
0.19957892
0.19972781
0.19991735
0.20022589
0.20257342
0.20228939
0.20210211
0.20195732
0.20178546
0.20158816
0.20139405
0.2011829
0.20095344
0.20078102
0.20055999
0.20037058
0.20020216
0.20006615
0.19990287
0.19973227
0.19959423
0.19944695
0.19928816
0.19911467
0.19889564
0.19871949
0.19854304
0.19831584
0.19807256
0.19781995
0.19763862
0.19743269
0.19726451
0.19708155
0.19687115
0.19668792
0.19648287
0.19631494
0.19613629
0.19593017
0.19575226
0.19557684
0.19531587
0.19508109
0.19489225
0.19495988
0.19728688
0.19723534
0.19741248
0.19764726
0.19789504
0.19808264
0.19825496
0.1984703
0.19866809
0.19884004
0.19904709
0.19924528
0.19946612
0.19964654
0.19982704
0.20003366
0.20022167
0.20047168
0.20071889
0.20093656
0.20111586
0.20128571
0.20149624
0.2016639
0.20181792
0.20198148
0.20210845
0.20227961
0.20243993
0.20258651
0.20274682
0.20293231
0.20315127
0.20332741
0.20354914
0.20376595
0.20395421
0.20414636
0.20429901
0.20443523
0.20461562
0.20488666
0.20714071
0.20688976
0.20671586
0.20658587
0.20644441
0.20626398
0.2060743
0.20585707
0.20563878
0.20546777
0.20525898
0.205068
0.20490958
0.20476005
0.20460379
0.20443976
0.20430923
0.20414139
0.20398868
0.20382334
0.20361384
0.20344993
0.20327493
0.20306793
0.20281624
0.20257116
0.20237412
0.20216822
0.20197456
0.20178832
0.20155822
0.20135011
0.20113476
0.20095817
0.20075118
0.2005345
0.20035504
0.20016149
0.19992913
0.19970386
0.19953152
0.19957648
0.20180163
0.20176954
0.20193084
0.20215539
0.20237251
0.20257068
0.20276032
0.20297576
0.20318636
0.20336966
0.20359206
0.20381099
0.20404918
0.20424439
0.2044532
0.20465701
0.20486207
0.20510135
0.20536094
0.20555579
0.20572253
0.20588341
0.2060894
0.20625858
0.20641452
0.20657991
0.20671356
0.20687229
0.20702191
0.20717472
0.20732714
0.20753079
0.20772554
0.20789017
0.20810199
0.20832061
0.2085141
0.20868238
0.20881095
0.20893896
0.20910724
0.20934605
0.21148546
0.21126594
0.21111009
0.21098251
0.21086609
0.21070386
0.21050611
0.21028782
0.21008847
0.20992411
0.20973507
0.20953229
0.20938248
0.20922575
0.20907938
0.20892721
0.20878822
0.20862827
0.20846846
0.20830437
0.20810365
0.20794288
0.2077832
0.20758766
0.20733144
0.20709379
0.20687943
0.20667249
0.20646203
0.20625693
0.20601226
0.20577714
0.20555309
0.20535768
0.20514143
0.20492214
0.20473552
0.20453119
0.20432371
0.20409881
0.20394864
0.20397542
0.20608379
0.20607237
0.20621465
0.20643713
0.2066379
0.20684516
0.2070245
0.20725002
0.20746963
0.20768073
0.20790783
0.20815846
0.20841446
0.20862371
0.20883221
0.20904217
0.20926676
0.20950308
0.20975314
0.20995303
0.21011053
0.21026692
0.21045777
0.21061784
0.21078332
0.2109358
0.21108133
0.21122724
0.2113689
0.2115331
0.21168366
0.2118807
0.21206113
0.21222946
0.21241813
0.21263147
0.21283355
0.21299191
0.21310049
0.21322555
0.2133703
0.21357301
0.21559496
0.21541225
0.21527368
0.21515633
0.21504888
0.21489368
0.21469571
0.21448686
0.21430387
0.21413709
0.21396377
0.21377481
0.21362245
0.21345686
0.21331455
0.21316785
0.21302118
0.21287216
0.21271088
0.2125477
0.21236857
0.21221629
0.21205474
0.21185475
0.21160656
0.21137183
0.21114529
0.21093092
0.21071804
0.21050263
0.21023785
0.20997713
0.20974339
0.20952266
0.20929958
0.20907389
0.20888944
0.2086839
0.20848386
0.20826959
0.20813058
0.20813912
0.21012905
0.21012743
0.21026477
0.21046992
0.21067023
0.21087369
0.21106419
0.21128822
0.21151571
0.21174672
0.21198411
0.21225537
0.21252727
0.21275019
0.21296693
0.21318814
0.21341289
0.21364761
0.21389194
0.21409228
0.21426013
0.21440973
0.21457575
0.21474559
0.21489927
0.21504585
0.21518915
0.21534205
0.21548861
0.21565146
0.21580509
0.21598715
0.21615153
0.21631763
0.21649268
0.2166996
0.21688895
0.21704247
0.21715165
0.21726002
0.21739211
0.21756282
0.21946707
0.21931302
0.21919083
0.21908827
0.21897622
0.21882497
0.21864428
0.21844318
0.21827261
0.21811082
0.2179503
0.21777496
0.21761757
0.21745846
0.21730773
0.21715376
0.21701101
0.2168704
0.2167142
0.21654601
0.21638959
0.21624232
0.21606821
0.21586926
0.21563376
0.21539841
0.21517705
0.21494766
0.21472789
0.21449314
0.21421385
0.21393677
0.21369257
0.21345523
0.21321836
0.21299577
0.21279851
0.21259783
0.2123956
0.21220117
0.2120648
0.21206656
0.21394142
0.21394423
0.21408071
0.21426399
0.21446865
0.21466587
0.21487101
0.21509416
0.21533662
0.21558243
0.21583604
0.21611568
0.21639914
0.21664865
0.2168737
0.21710979
0.21732928
0.21756344
0.21779022
0.21798435
0.21816453
0.21830963
0.21846264
0.2186235
0.21878352
0.21891778
0.21906436
0.21921361
0.21936924
0.21952353
0.21968387
0.21985471
0.22000965
0.22017062
0.22033954
0.22053269
0.22070192
0.22085162
0.22096537
0.22106475
0.22117607
0.22131922
0.22311149
0.22298208
0.22287671
0.22278486
0.22267022
0.22252229
0.22236252
0.2221781
0.22201045
0.22184913
0.22169925
0.22153388
0.22137023
0.22121672
0.22105961
0.22091086
0.22076476
0.22063313
0.22047305
0.22031476
0.22016876
0.22002189
0.21984118
0.21965121
0.21942862
0.21919936
0.21897735
0.21873909
0.21850567
0.21825021
0.21795968
0.21767824
0.21741487
0.21716023
0.21691303
0.21668555
0.21647657
0.21627905
0.21607573
0.21589967
0.2157673
0.21576527
0.21753023
0.21753536
0.21766174
0.21783318
0.21803276
0.21823271
0.21844316
0.21867721
0.21892849
0.21919161
0.21946554
0.21974725
0.22004335
0.2203044
0.22054621
0.22078547
0.22101116
0.22123521
0.22145267
0.22163986
0.2218183
0.22196986
0.2221096
0.22226555
0.22242337
0.22255358
0.22269831
0.22284875
0.22300466
0.22315926
0.22332693
0.2234857
0.22363197
0.22379432
0.22396145
0.22413539
0.22428692
0.22443367
0.22454961
0.22463337
0.22473422
0.22485462
0.22654326
0.22643502
0.2263409
0.22625885
0.22614761
0.22600125
0.22585481
0.22568752
0.22552783
0.22536375
0.22521777
0.22506183
0.22489703
0.22474103
0.22458437
0.22443232
0.22429161
0.22416008
0.22400735
0.22385339
0.22371187
0.22356278
0.2233874
0.22319964
0.22298903
0.22276725
0.22253701
0.22229767
0.22204707
0.22178093
0.22148319
0.22119589
0.22091827
0.22064483
0.22039276
0.22015167
0.21994076
0.21973733
0.21954261
0.2193745
0.2192545
0.21924703
0.22091131
0.22092521
0.22104188
0.22120523
0.22139656
0.22160138
0.22181343
0.22205992
0.22231199
0.22259485
0.22287392
0.22316828
0.22346625
0.22373726
0.22399685
0.22423544
0.22447046
0.22469107
0.22489613
0.22508408
0.22525412
0.22540164
0.22554486
0.22569863
0.22584465
0.2259794
0.22611716
0.22626971
0.22642986
0.22658438
0.22674502
0.22690082
0.22704765
0.22721155
0.22736217
0.22752618
0.22766857
0.22781265
0.22791733
0.2279992
0.22808731
0.22818702
0.22978283
0.22969344
0.2296111
0.22953122
0.22942728
0.22928796
0.22914992
0.22899103
0.22884369
0.22868267
0.22853548
0.22837883
0.22821952
0.22806648
0.2279064
0.22775313
0.22761588
0.22748009
0.22733687
0.22718663
0.22704159
0.22689447
0.22672769
0.22654174
0.22633964
0.22612005
0.22588344
0.22564318
0.22537795
0.22510284
0.22480174
0.2245056
0.22422066
0.22393335
0.22367653
0.22342708
0.22321174
0.22300523
0.22281791
0.22265865
0.22254582
0.22252847
0.2240985
0.22412152
0.22423092
0.22438672
0.22456943
0.2247777
0.2249967
0.2252483
0.22550982
0.22580066
0.22609163
0.22638928
0.22669339
0.22697237
0.2272415
0.22748486
0.22772137
0.22794153
0.22813988
0.22832373
0.22849063
0.22863596
0.22878268
0.22892806
0.22906979
0.22920709
0.22934283
0.22949757
0.22965659
0.22980888
0.22996607
0.23012436
0.23027234
0.2304302
0.23057503
0.23072886
0.23086304
0.23099744
0.23110119
0.23117963
0.23125693
0.23133957
0.23285617
0.23278118
0.23270813
0.232631
0.23252714
0.23239775
0.23226676
0.23211787
0.231975
0.23182059
0.23167205
0.23151412
0.23135752
0.23120598
0.23104769
0.23089321
0.23075747
0.23062008
0.23047743
0.2303347
0.23019046
0.23004498
0.229878
0.22969623
0.22950093
0.22928186
0.22904642
0.22879784
0.22852652
0.22824234
0.22793667
0.22763577
0.22733869
0.22704522
0.22677923
0.22652636
0.22630431
0.22609622
0.22591873
0.22576577
0.22566029
0.22563225
0.22712844
0.22716418
0.22726683
0.22741661
0.22758945
0.22779549
0.2280194
0.22827326
0.22854294
0.22883874
0.22914162
0.22944573
0.22975246
0.23004268
0.23031658
0.23056994
0.230806
0.23102166
0.23121548
0.23139581
0.23156051
0.23170708
0.23184893
0.23199045
0.23213275
0.23227106
0.23240817
0.23256122
0.2327179
0.23286894
0.23302479
0.23318262
0.23333093
0.23348227
0.23362321
0.23376786
0.23389579
0.23402076
0.23412482
0.23420079
0.23427061
0.23434064
0.23579326
0.23572874
0.23566153
0.235585
0.23548217
0.23536154
0.23523611
0.23509543
0.23495598
0.23480773
0.23465947
0.23450235
0.2343485
0.23419663
0.23404108
0.23388966
0.23375081
0.23361134
0.23346957
0.23332891
0.2331879
0.23304191
0.23287926
0.2327021
0.23250767
0.23229297
0.23205802
0.23179976
0.23152235
0.23122781
0.23091984
0.2306113
0.23030474
0.23000745
0.22973435
0.22948017
0.22925452
0.22905049
0.22888052
0.22873509
0.22863448
0.22859556
0.23003435
0.23007591
0.23017483
0.23031576
0.23048348
0.23068549
0.23091221
0.23116656
0.2314424
0.23174107
0.2320497
0.23236368
0.23267274
0.23297115
0.23325092
0.23351465
0.2337489
0.2339636
0.23415868
0.23433195
0.2344931
0.23463865
0.23477851
0.23491845
0.2350602
0.23520099
0.23534155
0.23549141
0.23564554
0.23579927
0.23595176
0.2361071
0.23625472
0.23640043
0.23653845
0.2366758
0.23679891
0.23691572
0.23701656
0.23709449
0.23715998
0.23722105
0.23862525
0.23856799
0.23850401
0.23842489
0.23832654
0.23821223
0.2380907
0.23795663
0.23781941
0.23767624
0.23752885
0.23737521
0.23722289
0.23706991
0.23691726
0.23676793
0.23662571
0.2364839
0.23634207
0.23620278
0.23606376
0.23591953
0.23575842
0.23558744
0.23539391
0.23517902
0.23494279
0.23467617
0.23439372
0.2340915
0.2337799
0.23346305
0.23315193
0.23285217
0.23257392
0.23231985
0.23209235
0.2318926
0.23172801
0.23159047
0.23149411
0.23145082
0.23284574
0.23289142
0.23298521
0.23311991
0.23328145
0.23347911
0.23370712
0.23396051
0.2342408
0.2345415
0.23485566
0.23517417
0.23548782
0.23579412
0.23607948
0.23634791
0.23658597
0.23680154
0.23699366
0.23716333
0.23732411
0.23746757
0.23760569
0.23774453