/*--------------------------------*- C++ -*----------------------------------*\
| =========                 |                                                 |
| \\      /  F ield         | OpenFOAM: The Open Source CFD Toolbox           |
|  \\    /   O peration     | Version:  v2012                                 |
|   \\  /    A nd           | Website:  www.openfoam.com                      |
|    \\/     M anipulation  |                                                 |
\*---------------------------------------------------------------------------*/
FoamFile
{
    version     2.0;
    format      ascii;
    class       volScalarField;
    location    "200";
    object      nut;
}
// * * * * * * * * * * * * * * * * * * * * * * * * * * * * * * * * * * * * * //

dimensions      [0 2 -1 0 0 0 0];


internalField   nonuniform List<scalar> 
33282
(
0.0085356027
0.008539214
0.0085417835
0.0085433442
0.0085439269
0.0085435552
0.00854225
0.0085400296
0.0085369061
0.0085328881
0.0085279821
0.0085221904
0.0085155114
0.0085079366
0.0084994557
0.0084900545
0.0084797121
0.008468404
0.0084561055
0.0084427868
0.0084284105
0.0084129323
0.0083963102
0.0083784966
0.0083594338
0.0083390611
0.0083173134
0.0082941209
0.0082694455
0.0082431713
0.0082151977
0.0081854069
0.0081536625
0.0081199703
0.0080841282
0.0080455873
0.0080037255
0.0079575477
0.007907933
0.0078527843
0.0078001285
0.0078013225
0.0080637188
0.0084502079
0.0087163387
0.0090353709
0.009436534
0.0098881103
0.010404086
0.010934566
0.011461605
0.011923157
0.012382412
0.012737084
0.01302953
0.013263351
0.013520676
0.013573569
0.013672429
0.013733686
0.013828614
0.01386987
0.01391596
0.013861088
0.013578669
0.013125271
0.012440314
0.011457532
0.010241628
0.0089442398
0.0080783146
0.0079790248
0.0091163603
0.01101188
0.013483833
0.016514466
0.019654842
0.022350643
0.024306108
0.025580816
0.026280738
0.026667868
0.02680809
0.026962049
0.026902591
0.026855495
0.026827581
0.026818542
0.02678236
0.026759798
0.026727388
0.026711379
0.026697404
0.026702153
0.026707584
0.026693426
0.026681712
0.026652674
0.026650433
0.026683155
0.026779695
0.026667396
0.026639987
0.026660234
0.026699483
0.026736439
0.02674698
0.026755739
0.026762016
0.026764788
0.026766548
0.026765511
0.026771099
0.026784322
0.026778093
0.026776884
0.02678368
0.026797941
0.026825203
0.026849989
0.02687418
0.026904338
0.026919889
0.026946746
0.026963606
0.026983079
0.026992935
0.027001262
0.027012386
0.027023895
0.027032628
0.027050961
0.027072074
0.027089476
0.027112334
0.02714379
0.027174309
0.02720257
0.027231878
0.027268877
0.02728417
0.027319905
0.027383653
0.027502377
0.02741346
0.027412053
0.027357012
0.027350537
0.027229237
0.027068706
0.026695627
0.026153811
0.025243688
0.023968412
0.022189028
0.019919272
0.017289556
0.014358904
0.011594813
0.0092235831
0.0092392679
0.011597338
0.014313133
0.017164362
0.019796879
0.022085013
0.02385547
0.025177283
0.026057205
0.026631128
0.026954601
0.02715092
0.027231313
0.027284861
0.027311599
0.027352544
0.027298056
0.027264835
0.027231094
0.027177473
0.027088911
0.026900502
0.026584426
0.026018987
0.025132025
0.023812144
0.022019307
0.019744847
0.017113643
0.014338389
0.01169189
0.0094465285
0.0097211774
0.011858806
0.014417008
0.017133259
0.019720639
0.021986631
0.023770767
0.025087478
0.025975788
0.026520937
0.026840313
0.02701303
0.027118943
0.027168266
0.027224735
0.027251546
0.027241982
0.027202223
0.027152024
0.02708367
0.02698207
0.026799993
0.02651503
0.025951095
0.025092681
0.023785571
0.022010697
0.01977384
0.017217104
0.014560059
0.012052545
0.009966521
0.010241529
0.012292562
0.014750447
0.017356515
0.01987242
0.022062994
0.023820777
0.025086876
0.025926119
0.02648091
0.026753433
0.026925682
0.027018399
0.027093245
0.027143658
0.027180961
0.027144579
0.027089608
0.027057463
0.027010035
0.026894473
0.02674895
0.026465532
0.025924241
0.025115551
0.02387291
0.022162483
0.01999689
0.017543215
0.014987129
0.012585144
0.010606895
0.010995314
0.012906431
0.015236898
0.017742344
0.020138472
0.022255268
0.023921767
0.025147607
0.025935633
0.02644944
0.026707304
0.02685834
0.026969886
0.027032346
0.027061763
0.027130678
0.027100306
0.027053231
0.027015013
0.026948386
0.026870674
0.026717975
0.026435534
0.025932002
0.025168279
0.023986761
0.022361369
0.020294095
0.017946225
0.015521511
0.013256673
0.011433136
0.011895481
0.013635312
0.01580324
0.018153052
0.020450479
0.022458578
0.024031857
0.025199424
0.025942372
0.026427896
0.026686777
0.026817068
0.026901609
0.026977019
0.027010812
0.027057671
0.027034759
0.02698605
0.02696076
0.026893756
0.026817837
0.026664852
0.026418064
0.025952879
0.025234301
0.024089092
0.0225377
0.0205909
0.018384262
0.016124799
0.014044221
0.012388817
0.012841299
0.014439485
0.016426825
0.018588574
0.020697031
0.022612173
0.024152026
0.025264367
0.025981419
0.026411249
0.026689896
0.026830916
0.026911265
0.026960673
0.0269784
0.027036527
0.027012863
0.026974326
0.026942266
0.026873957
0.02681456
0.026678111
0.026427507
0.025991718
0.025284258
0.024180731
0.022686696
0.020816992
0.018780155
0.016720575
0.014818598
0.013276135
0.013619964
0.015127439
0.016955798
0.01893359
0.020894173
0.022747117
0.024231934
0.025314109
0.02601717
0.026448779
0.026675309
0.02678343
0.02685901
0.026921292
0.026943235
0.026982888
0.026984334
0.026943193
0.02690708
0.02685184
0.026790345
0.026669605
0.026452178
0.026036927
0.025353266
0.024281572
0.02280055
0.020982589
0.019047786
0.017128939
0.015355387
0.01386428
0.014065129
0.015520777
0.017240336
0.019135529
0.021055077
0.022863496
0.024336216
0.025377116
0.026019377
0.026438131
0.026660836
0.026777138
0.026858588
0.026902893
0.026937633
0.026966459
0.026955323
0.026913207
0.02690366
0.026874205
0.026809584
0.026665027
0.026435026
0.026034562
0.025401602
0.024363969
0.022934
0.021148827
0.019232569
0.017369412
0.015666667
0.01427344
0.014365841
0.015742471
0.017448502
0.019321932
0.021213757
0.022994636
0.024421586
0.02543381
0.026060799
0.026431222
0.026683873
0.026817365
0.026861299
0.026905451
0.026908245
0.02696181
0.026955214
0.026919348
0.02691088
0.026883552
0.026812292
0.026685484
0.026465206
0.026057901
0.025430708
0.024441795
0.023040078
0.021310505
0.019421825
0.01757065
0.015875574
0.014478923
0.014558176
0.015961784
0.017643829
0.019499443
0.021360896
0.023082705
0.024471635
0.02543877
0.026051354
0.026452036
0.026657749
0.026789501
0.026840966
0.026887643
0.026893508
0.026924576
0.026921331
0.026894597
0.026881263
0.02684103
0.026784488
0.026682713
0.02646273
0.026054956
0.025467051
0.024495729
0.023137384
0.021422624
0.019550892
0.017710582
0.01602323
0.014627183
0.014651746
0.016049821
0.017714677
0.019547744
0.021396995
0.023079208
0.024439011
0.025405794
0.026022484
0.02643071
0.026637642
0.026745083
0.026815564
0.026836247
0.026864347
0.026881989
0.02687944
0.026849035
0.026831259
0.02679256
0.026714893
0.026589421
0.026382646
0.025972502
0.025320007
0.0243164
0.022967526
0.021276878
0.019463882
0.017672297
0.016038115
0.014700787
0.014612146
0.01591304
0.01747972
0.019232396
0.021026488
0.022719988
0.024100214
0.025160266
0.025835025
0.026292517
0.026527109
0.026673391
0.026737227
0.026780127
0.02679779
0.026824177
0.026797561
0.026749575
0.026737368
0.026709129
0.026593613
0.026463143
0.026170188
0.025655127
0.024874012
0.023734819
0.022272263
0.020547808
0.018797404
0.017099204
0.015591381
0.014327928
0.013823471
0.015041364
0.016479976
0.018117501
0.019831516
0.021602104
0.02316596
0.024430287
0.025338747
0.025955894
0.026310143
0.026502369
0.026633874
0.026704122
0.026722523
0.026785488
0.026750653
0.026702215
0.026657998
0.026579287
0.026442474
0.026161232
0.025709323
0.02499021
0.023911485
0.022464863
0.020734659
0.018900978
0.017203901
0.015619072
0.014232484
0.013085288
0.012065951
0.013184862
0.014541037
0.016116213
0.01784213
0.019755454
0.021664953
0.023314951
0.02458196
0.025477805
0.026036472
0.026380246
0.026531154
0.026624722
0.026676118
0.026727656
0.026728801
0.026676156
0.026604663
0.026491124
0.026292766
0.025905666
0.025270559
0.024255193
0.02279792
0.020915981
0.018806832
0.016779909
0.014971728
0.013352063
0.0119695
0.010855704
0.0095693398
0.010744423
0.01222714
0.013965256
0.015883409
0.018038366
0.0203105
0.02238793
0.024005598
0.025105712
0.025809282
0.026251461
0.026466227
0.026595931
0.026679925
0.026728086
0.026750775
0.026685774
0.026599165
0.026467705
0.026228969
0.025790183
0.025066911
0.023898926
0.022195258
0.020032088
0.017644282
0.015392714
0.013338533
0.011502135
0.0099261016
0.0087113785
0.0086555217
0.0098527863
0.011447503
0.013330065
0.015438701
0.017759655
0.020172139
0.022315961
0.023986393
0.025121308
0.025823355
0.026245291
0.02645049
0.026581779
0.026664283
0.02671566
0.026703426
0.026641489
0.026584028
0.026476626
0.026267638
0.025930085
0.025286715
0.024237386
0.022743367
0.020752859
0.018465453
0.016160919
0.014063251
0.012266723
0.010771117
0.0096849627
0.011512718
0.01246232
0.013809368
0.01551197
0.017523086
0.019681727
0.021688731
0.023382236
0.024648738
0.025507088
0.026021343
0.026303538
0.026474329
0.026592501
0.026642016
0.026719098
0.026714121
0.02665432
0.026593788
0.02649745
0.026384611
0.026138583
0.025739688
0.025108289
0.024130008
0.022812496
0.021182615
0.019385344
0.017616729
0.016040911
0.014780746
0.013918863
0.016898572
0.017664998
0.01872989
0.020001255
0.02136129
0.022706255
0.023904049
0.024833946
0.025544433
0.026010975
0.026291966
0.026464515
0.026520798
0.026599509
0.026650214
0.026704974
0.026708927
0.026663657
0.026615673
0.026554572
0.026501144
0.02638723
0.026206608
0.025918995
0.025451428
0.024847246
0.024052792
0.023122693
0.022169067
0.021273922
0.020516514
0.019960602
0.022520798
0.022859133
0.023323866
0.023881874
0.024480445
0.025074098
0.025539988
0.025908219
0.026204487
0.026396901
0.0264819
0.026558116
0.026569519
0.02662432
0.026664633
0.026696327
0.026707736
0.026675219
0.026649349
0.026609859
0.026598674
0.026565107
0.026517269
0.026388743
0.026241957
0.026032987
0.025773447
0.025436342
0.025118528
0.0248064
0.02453223
0.024371541
0.025560754
0.025617489
0.025759052
0.025898044
0.026047414
0.026217324
0.02633368
0.026445263
0.026505012
0.02657121
0.026576453
0.026601935
0.026598232
0.026627566
0.026635515
0.026652268
0.026618558
0.026593821
0.026604937
0.026621716
0.026611596
0.026611823
0.02661877
0.026588046
0.026556777
0.026522481
0.026475168
0.026404798
0.026372182
0.026312584
0.026261265
0.026248033
0.026592349
0.026585899
0.026582162
0.026608089
0.0265829
0.026598553
0.026592296
0.026600318
0.026618347
0.02662064
0.026630098
0.026623027
0.026614847
0.026579906
0.02657565
0.026609376
0.026629771
0.026612255
0.026605064
0.026638222
0.026635605
0.026663804
0.02664424
0.026632353
0.026657198
0.026664109
0.026692604
0.026702266
0.026741592
0.026737307
0.026750714
0.026767249
0.026996824
0.027033739
0.027305367
0.027579041
0.02784676
0.028105367
0.028354662
0.028593138
0.028821121
0.029037488
0.02924207
0.029435847
0.029617048
0.029786444
0.029945422
0.030094448
0.030233252
0.03036192
0.030480808
0.030590749
0.03069149
0.030784004
0.030869325
0.03094744
0.031019232
0.031085449
0.031146272
0.031202462
0.03125448
0.031302799
0.031347955
0.031390271
0.031430119
0.031467805
0.031503695
0.031538046
0.031571096
0.031603041
0.031634054
0.031664284
0.03169385
0.031722851
0.031751367
0.03177947
0.031845302
0.031819501
0.031793461
0.031767088
0.031740264
0.031712847
0.031684663
0.031655511
0.03162515
0.031593311
0.031559675
0.031523903
0.031485591
0.031444323
0.031399613
0.031350975
0.031297849
0.031239698
0.03117591
0.031105931
0.031029118
0.030944926
0.030852711
0.030751978
0.030642124
0.030522737
0.030393275
0.030253428
0.030102734
0.029940989
0.029767848
0.029583267
0.029386986
0.02917905
0.028959527
0.028728591
0.028487422
0.028236532
0.027977786
0.027719331
0.027635347
0.027901929
0.028166896
0.028423877
0.028670639
0.02890673
0.029131191
0.029343903
0.029544793
0.02973394
0.029911475
0.030077613
0.030232375
0.03037615
0.03050929
0.030632207
0.030745351
0.030849209
0.030944305
0.031031199
0.031110478
0.031182755
0.031248626
0.03130868
0.031363494
0.031413639
0.031459663
0.031502084
0.031541389
0.031578023
0.031612389
0.031644848
0.031675722
0.031705296
0.031733819
0.031761506
0.03178854
0.031815071
0.031841226
0.031867116
0.031913984
0.031887965
0.031861631
0.031834875
0.031807568
0.03177955
0.031750634
0.0317206
0.031689196
0.031656134
0.031621104
0.031583746
0.031543655
0.031500349
0.031453353
0.031402141
0.031346175
0.031284891
0.031217785
0.031144277
0.031063768
0.030975501
0.030878985
0.030773629
0.030658918
0.030534353
0.030399533
0.030253939
0.030097308
0.029929322
0.029750008
0.029559007
0.029356247
0.029141591
0.028915151
0.02867736
0.028429057
0.028170778
0.027904505
0.027637796
0.027582887
0.027853344
0.028123371
0.028387103
0.028641061
0.028884497
0.029116478
0.029336516
0.029544615
0.029740819
0.029925282
0.030098264
0.030259737
0.030410246
0.030549892
0.030679152
0.030798329
0.030907873
0.031008464
0.031100156
0.031183763
0.031260209
0.031330258
0.031394517
0.031453285
0.031507092
0.031556538
0.031601984
0.031643994
0.031683115
0.031719799
0.031754416
0.031787233
0.031818541
0.031848611
0.031877643
0.031905847
0.031933403
0.031960447
0.031987102
0.032081188
0.03205278
0.032023847
0.031994273
0.031963917
0.031932604
0.031900143
0.031866306
0.031830825
0.031793419
0.031753767
0.031711505
0.031666208
0.031617384
0.03156459
0.031507318
0.03144502
0.031377204
0.031303356
0.031222916
0.031135241
0.03103961
0.030935572
0.030822563
0.030700036
0.030567562
0.03042461
0.030270883
0.030106976
0.029931453
0.029744207
0.029545479
0.029335157
0.029113233
0.028879698
0.028634998
0.028381669
0.028118801
0.027848461
0.027578167
0.027455895
0.027729492
0.028003982
0.028272795
0.028532473
0.028783049
0.029020658
0.029246149
0.029460163
0.029663036
0.029855628
0.030038217
0.030209618
0.030370587
0.030519826
0.030658373
0.03078705
0.030906394
0.031017276
0.031119774
0.031214186
0.03130132
0.031381728
0.031455968
0.031524544
0.031588035
0.031647091
0.03170205
0.031753302
0.031801363
0.031846636
0.031889482
0.031930223
0.031969156
0.032006563
0.032042648
0.032077588
0.032111572
0.032144738
0.032177223
0.032233328
0.032193153
0.032152113
0.032110099
0.032066979
0.032022587
0.031976759
0.031929281
0.03187991
0.031828348
0.031774313
0.031717452
0.031657406
0.031593704
0.031525991
0.031453793
0.031376592
0.031293845
0.031205152
0.031109965
0.031007815
0.030897995
0.030780236
0.03065403
0.030518917
0.030374261
0.030219688
0.030054786
0.029880227
0.029694716
0.029498468
0.029291743
0.029074391
0.028846193
0.028607406
0.028358291
0.028101522
0.027836484
0.027565292
0.027295315
0.026917403
0.027184664
0.02745394
0.027719316
0.027977974
0.028226803
0.028466
0.028697102
0.028916771
0.02912567
0.029325382
0.0295163
0.02969736
0.029868859
0.030030717
0.030183521
0.030326643
0.03046098
0.030587704
0.030706894
0.030818747
0.030924027
0.031023396
0.031117499
0.031206153
0.031289942
0.031369613
0.031445452
0.031517773
0.031587055
0.031653677
0.031717994
0.031780116
0.031840349
0.031898979
0.031956161
0.032012037
0.032066762
0.032120457
0.032173235
0.031876202
0.031805948
0.031734885
0.031662954
0.031590074
0.031516123
0.03144098
0.031364498
0.03128648
0.031206713
0.03112497
0.031040978
0.030954431
0.030864948
0.030772207
0.030675849
0.030575456
0.030470618
0.030360972
0.030246048
0.030125401
0.029998541
0.029865052
0.029724617
0.02957681
0.029421158
0.029257377
0.029085186
0.028905093
0.028715713
0.028517012
0.028309363
0.028092669
0.027866827
0.027632405
0.027389884
0.02714153
0.02688687
0.026627735
0.026370648
0.025449451
0.025697651
0.02594947
0.026195056
0.026434251
0.026666965
0.02689225
0.027109564
0.027318685
0.027520267
0.027715027
0.027900781
0.028078438
0.028248661
0.028411608
0.028567666
0.028717118
0.028860821
0.028998672
0.02913097
0.029258142
0.02938065
0.029498895
0.02961328
0.029724171
0.029832044
0.02993733
0.030040027
0.030140541
0.030239258
0.030336446
0.030432343
0.03052715
0.030621075
0.030714287
0.030806815
0.030898781
0.030990288
0.031081384
0.031172138
0.029854932
0.029745907
0.029637195
0.029528794
0.02942068
0.02931278
0.029205033
0.029097357
0.028989635
0.028881692
0.028773374
0.028664473
0.028554749
0.028443886
0.028331632
0.028217721
0.02810185
0.027983625
0.027862746
0.027738857
0.02761155
0.027480446
0.027345596
0.027206449
0.027062587
0.026913344
0.026758311
0.026597434
0.026430448
0.026256982
0.026076911
0.025890208
0.025696612
0.025495628
0.025287139
0.025071881
0.024850867
0.024624198
0.024392714
0.024162199
0.022364355
0.022575578
0.022786354
0.022989758
0.023186692
0.023378001
0.023563607
0.023743504
0.023915215
0.024080323
0.024239603
0.024393429
0.024541996
0.024685729
0.024825273
0.02496102
0.0250929
0.025221179
0.025346141
0.025468305
0.025587474
0.025704216
0.025819159
0.025932698
0.026044888
0.026156019
0.026266458
0.026376304
0.026485867
0.026595449
0.026705313
0.026815666
0.02692657
0.027038175
0.027150615
0.027263913
0.027378141
0.02749337
0.027609633
0.027726996
0.024695618
0.024588396
0.02448236
0.024377545
0.02427396
0.024171558
0.024070371
0.023970238
0.023871037
0.023772691
0.023675116
0.02357816
0.023481676
0.023385452
0.023289315
0.02319307
0.023096468
0.022999254
0.022901224
0.022802081
0.022701497
0.022599107
0.022494665
0.022387868
0.02227876
0.022166879
0.02205196
0.021933656
0.021811595
0.021685245
0.021554129
0.021418017
0.021276302
0.021128052
0.020973685
0.020813859
0.020649219
0.020478713
0.020299918
0.020108308
0.017427256
0.017576421
0.017719663
0.017855695
0.01798613
0.018111751
0.01823214
0.018346762
0.018455687
0.018559726
0.018659788
0.018756474
0.018849739
0.018939948
0.019027374
0.019112271
0.01919492
0.019275513
0.019354248
0.019431496
0.019507073
0.019581457
0.019654977
0.019727851
0.019800265
0.019872386
0.01994449
0.02001674
0.020089107
0.020161707
0.02023464
0.020307993
0.02038182
0.020456175
0.020531158
0.020606624
0.020682602
0.020759109
0.020836076
0.020913639
0.016885531
0.016843348
0.016800319
0.016756639
0.01671246
0.016667872
0.016623131
0.016578179
0.016532945
0.016487357
0.016441531
0.016395482
0.01634917
0.016302549
0.01625564
0.016208371
0.016160657
0.016112357
0.016063388
0.016013624
0.015962878
0.015910967
0.015857789
0.015803174
0.015746943
0.015688884
0.015628823
0.015566538
0.015502113
0.015434886
0.015364458
0.015290497
0.015212605
0.015130092
0.015042863
0.014951107
0.014854998
0.014754891
0.014650644
0.014526898
0.011672455
0.011753098
0.011829739
0.011903145
0.011972755
0.012038078
0.012100201
0.012159507
0.01221512
0.01226739
0.012317159
0.012364862
0.01241043
0.012454028
0.012495798
0.012536111
0.012574563
0.0126116
0.012647683
0.012683168
0.012717331
0.012750549
0.01278322
0.012815649
0.012847179
0.012878122
0.012908823
0.012939556
0.012969653
0.012999421
0.013029149
0.013058917
0.013088465
0.013117774
0.013147014
0.013175767
0.013204245
0.013232455
0.013260494
0.013288808
0.031511839
0.031483146
0.031454371
0.031425466
0.031396368
0.031366995
0.031337244
0.031306996
0.031276091
0.031244356
0.031211575
0.031177495
0.031141805
0.031104175
0.031064216
0.031021513
0.030975591
0.030925942
0.03087204
0.030813331
0.030749308
0.030679375
0.03060291
0.030519306
0.030427788
0.030327777
0.030218645
0.030099896
0.029971005
0.029831589
0.029681206
0.029519595
0.029346411
0.029161499
0.028964711
0.028755869
0.028534963
0.028302326
0.028058532
0.027804732
0.027541851
0.027271846
0.027004548
0.026898028
0.026875111
0.026898324
0.026933794
0.026970016
0.026979483
0.02698772
0.026995891
0.026997942
0.027002405
0.027002142
0.027007694
0.027020273
0.027016029
0.027014601
0.027023618
0.02703611
0.027065257
0.027089491
0.027112555
0.02714018
0.027155971
0.027181478
0.027199267
0.027217157
0.027228731
0.027237152
0.027248361
0.027258674
0.027268471
0.027285155
0.027308037
0.027325316
0.027347323
0.027376483
0.027408032
0.027434794
0.02746376
0.02749759
0.027514561
0.027545577
0.027606152
0.027873164
0.027816064
0.027789141
0.027771271
0.027741436
0.027713811
0.027687077
0.027656615
0.027629644
0.027608575
0.027589808
0.027567204
0.027552107
0.027541416
0.027532016
0.027520381
0.027510387
0.027498956
0.02748276
0.027463596
0.027440041
0.027423664
0.027399364
0.027377115
0.027352005
0.027322958
0.027312219
0.027300866
0.02730223
0.027303746
0.027292176
0.027286561
0.027284333
0.027279035
0.027277577
0.027267234
0.02725915
0.027248698
0.027213822
0.027180469
0.027154747
0.02717647
0.027452053
0.02743307
0.027460394
0.027492181
0.027524529
0.027537638
0.027546213
0.027558642
0.027560068
0.027565099
0.027569423
0.027575763
0.02758576
0.027587751
0.027587217
0.027600436
0.027609785
0.027637577
0.027663786
0.027684803
0.027705659
0.027723291
0.027745036
0.027765513
0.027781129
0.027790653
0.027802389
0.027814565
0.027823763
0.027835007
0.027848736
0.027869927
0.027889807
0.027910766
0.027936111
0.027964348
0.027991168
0.028016923
0.028042516
0.028061623
0.028085966
0.028140259
0.028397487
0.028348213
0.028324004
0.028306083
0.028281961
0.02825774
0.028232271
0.028206368
0.028180987
0.028161899
0.028140846
0.028121154
0.028107208
0.028096886
0.028086546
0.02807377
0.028061918
0.02805271
0.028037842
0.028018978
0.027996616
0.027979163
0.027961455
0.027940133
0.027914248
0.027887867
0.027878264
0.027864701
0.027863264
0.027859301
0.027849153
0.027843566
0.027837046
0.027832436
0.027829082
0.027815857
0.027805689
0.027792596
0.027760226
0.027730051
0.027702716
0.027721247
0.027979072
0.027962867
0.027989134
0.028018083
0.028050209
0.028063332
0.02807561
0.028088976
0.028094557
0.028098768
0.028107825
0.028112355
0.028122699
0.028128574
0.028132144
0.028145751
0.028155924
0.02818108
0.028205433
0.028228408
0.028243361
0.0282597
0.028283251
0.028299794
0.028313438
0.028322976
0.028334109
0.028347849
0.028360226
0.028368562
0.028383537
0.028401588
0.028424029
0.028440171
0.028466474
0.028489812
0.028513141
0.02853646
0.028559081
0.028576258
0.028601147
0.028645994
0.028882112
0.028841434
0.028817062
0.028800645
0.028781211
0.028758529
0.028737194
0.028713941
0.028688812
0.028673299
0.028650725
0.028633305
0.028619529
0.028610783
0.028597846
0.028583613
0.028574367
0.028563321
0.028550352
0.028535081
0.028512783
0.028497619
0.02848274
0.028460579
0.028436745
0.028412902
0.028401856
0.028388598
0.028382803
0.028376026
0.028365555
0.028359716
0.028350228
0.028345582
0.028337509
0.028323075
0.028311017
0.028296762
0.028266548
0.028237758
0.028213749
0.028228197
0.028465509
0.028453644
0.02847546
0.028503871
0.028531641
0.028547589
0.028558609
0.028574211
0.028585038
0.028590158
0.028599714
0.028607627
0.028619409
0.028625577
0.028633051
0.028646122
0.028657961
0.028680992
0.028705036
0.028725402
0.028740497
0.028754491
0.028775184
0.028789354
0.028801402
0.028814735
0.028822178
0.028836292
0.028848592
0.028858827
0.028871202
0.028887819
0.028909784
0.028925693
0.028949344
0.02897317
0.028993393
0.029015041
0.029031388
0.029046369
0.029069465
0.029107778
0.029320443
0.029285588
0.029263732
0.029249846
0.029235346
0.029215706
0.029195491
0.029171895
0.029149048
0.02913408
0.029113913
0.029096668
0.029084734
0.029074188
0.029062658
0.029049815
0.02904193
0.02902817
0.029016484
0.029002863
0.028982621
0.028969715
0.028955493
0.028937055
0.028912717
0.028890829
0.028877858
0.028865181
0.028855932
0.028849085
0.028836183
0.028826989
0.028816392
0.028810684
0.028798646
0.028783069
0.028771096
0.028754428
0.028729345
0.028702712
0.028681907
0.028692588
0.028906091
0.028897515
0.028916425
0.028942679
0.02896519
0.028982387
0.028995766
0.02901096
0.029023367
0.029029983
0.029041426
0.029052033
0.029065861
0.029073856
0.029085139
0.029097241
0.029111157
0.029131811
0.029156938
0.02917327
0.029186051
0.029198331
0.029217758
0.029231762
0.029243762
0.029256955
0.0292652
0.029277085
0.029287483
0.029298392
0.029309289
0.029328207
0.029346048
0.02935992
0.029381535
0.029405058
0.029425596
0.02944321
0.029455637
0.029469054
0.029489793
0.029522434
0.02971155
0.0296821
0.029663451
0.029650275
0.029639773
0.029623248
0.029602325
0.029579122
0.029559589
0.029545893
0.029529095
0.029510531
0.029500137
0.029488781
0.029478989
0.029468222
0.029459295
0.029447093
0.029434679
0.029421619
0.029403241
0.029391149
0.029379606
0.029363431
0.029339205
0.029319133
0.029304102
0.029291786
0.029280509
0.029271247
0.029256732
0.029243928
0.029232444
0.02922412
0.029211028
0.029195428
0.029182634
0.02916468
0.029143827
0.029117781
0.029100719
0.029108376
0.029297554
0.029292272
0.029308017
0.029333451
0.029353128
0.029371351
0.029382964
0.029399328
0.029412765
0.0294233
0.029435058
0.029449921
0.029465835
0.0294755
0.029486257
0.029498771
0.029515023
0.02953457
0.029557516
0.02957406
0.029585103
0.029596382
0.029613062
0.02962537
0.029638453
0.029649399
0.02965917
0.029668891
0.029677879
0.029690191
0.029700589
0.029718104
0.029733459
0.029747597
0.029765363
0.029787591
0.029808905
0.029824673
0.029833918
0.029846554
0.029863362
0.029890053
0.030056104
0.030032564
0.030016843
0.030005481
0.029996495
0.029981358
0.029960869
0.029939527
0.029922766
0.029908995
0.029894829
0.02987868
0.029868121
0.02985575
0.029846763
0.029837042
0.029827227
0.029816918
0.029804617
0.029792011
0.029777256
0.029766735
0.029755273
0.029738984
0.029716663
0.029697665
0.029681418
0.029668507
0.029657339
0.029646978
0.029630047
0.02961394
0.02960137
0.029589542
0.029575727
0.029559497
0.029547205
0.029529401
0.029509981
0.029486001
0.029470859
0.029475662
0.029641069
0.029637333
0.029652108
0.029674544
0.029693853
0.029711211
0.029724307
0.029740159
0.029754495
0.029767703
0.029780653
0.029798067
0.029815764
0.029827007
0.029838507
0.029852159
0.029867862
0.029886554
0.029907977
0.029924058
0.029936246
0.029946227
0.0299589
0.029972312
0.029983367
0.029993201
0.030002414
0.03001292
0.030022424
0.030034268
0.030044904
0.030059896
0.030072631
0.030086173
0.030101623
0.030122474
0.03014151
0.030156249
0.030165384
0.030175326
0.030189946
0.030211539
0.030355166
0.030336141
0.030323085
0.030314078
0.030304629
0.030290361
0.030272749
0.030252936
0.030238272
0.030225475
0.030213412
0.030199535
0.030188462
0.030177277
0.03016727
0.030156723
0.030147687
0.030138824
0.030127536
0.030114525
0.030103388
0.030093885
0.030080991
0.03006536
0.030045528
0.030027045
0.030012103
0.029997532
0.029985822
0.029973085
0.029954584
0.029936558
0.029922761
0.029908759
0.029893176
0.029877651
0.029863652
0.029846825
0.02982738
0.029806687
0.029792165
0.029795881
0.029938812
0.029935802
0.029950228
0.029969153
0.029988809
0.030005027
0.030020081
0.030035585
0.030051855
0.030066963
0.030081972
0.03010015
0.030118995
0.030133618
0.030145859
0.030161118
0.030175531
0.030193551
0.030211843
0.030226547
0.030240108
0.030249163
0.030259676
0.030271493
0.030283192
0.030291056
0.030300543
0.030310312
0.030320919
0.030331312
0.030342696
0.030355802
0.03036696
0.030379523
0.030393814
0.030412313
0.030428135
0.030442044
0.030451637
0.030460101
0.030471493
0.030488807
0.030611533
0.030596296
0.030585844
0.03057852
0.030568894
0.030555366
0.030541018
0.03052392
0.030509937
0.030497442
0.030487096
0.030474882
0.030463135
0.030452946
0.030442232
0.030432624
0.030423298
0.030415888
0.030404311
0.030392992
0.030383599
0.030374423
0.03036099
0.0303471
0.030329678
0.030312644
0.030298127
0.030282831
0.030269625
0.030254393
0.030234787
0.030216555
0.030200292
0.030184038
0.030167198
0.030151161
0.03013564
0.030119474
0.030100147
0.03008239
0.030068662
0.030071746
0.030193733
0.030191132
0.030203907
0.030220892
0.030239557
0.030255985
0.030271636
0.030288524
0.030305842
0.030323186
0.030340804
0.030358886
0.030379036
0.030394829
0.030408983
0.030424156
0.030438933
0.030454961
0.030471393
0.03048468
0.030497599
0.030507302
0.0305157
0.030526565
0.030537701
0.030544841
0.030553887
0.030563645
0.030574096
0.030584348
0.030596555
0.030607736
0.030617487
0.030630016
0.0306438
0.03065928
0.030672351
0.03068559
0.030695308
0.030701439
0.030711165
0.030725016
0.030828664
0.030816607
0.030807896
0.030802055
0.030793077
0.030780009
0.030767758
0.030753335
0.030740704
0.030728045
0.030718414
0.030707721
0.030696019
0.030685655
0.030675187
0.030665291
0.030656888
0.030649631
0.030639316
0.030628849
0.030620307
0.030611082
0.030598774
0.030585614
0.030570392
0.030554944
0.030539789
0.030524865
0.030509719
0.030493442
0.030473298
0.030454605
0.030436609
0.030417923
0.030400588
0.03038279
0.030367145
0.030350309
0.030332445
0.030316037
0.03030425
0.030306483
0.030409545
0.030408246
0.030419491
0.030435132
0.030452417
0.030469364
0.030485105
0.030503576
0.03052083
0.030540718
0.030558785
0.030578287
0.030598238
0.030614967
0.030631119
0.030645684
0.030661243
0.030676272
0.030690485
0.030703469
0.030714861
0.030723742
0.030732416
0.030742746
0.030752029
0.030759667
0.030767591
0.030777473
0.03078834
0.030798416
0.030809449
0.030820035
0.030829705
0.030842233
0.030853507
0.030867353
0.030878945
0.030891584
0.030899582
0.030905351
0.030913162
0.030923953
0.031010587
0.031001285
0.030994325
0.030988875
0.030981043
0.030969163
0.030958261
0.030945232
0.030934499
0.030922469
0.030912825
0.030902206
0.03089144
0.030881643
0.030870871
0.030860967
0.030853176
0.030845463
0.030836655
0.030826916
0.030818095
0.030809389
0.030798608
0.030786098
0.030772521
0.030757882
0.030742366
0.030727818
0.030711135
0.030694067
0.030673897
0.030654322
0.030635564
0.030615176
0.030597335
0.030578535
0.030562393
0.030545292
0.030528657
0.030513678
0.030503039
0.030503831
0.030589482
0.030589496
0.030599599
0.030614015
0.030629926
0.030647196
0.030663784
0.030682804
0.030701221
0.030721985
0.03074145
0.030761067
0.030781438
0.030798814
0.030815783
0.030830509
0.030845752
0.030860226
0.03087307
0.030885102
0.030895743
0.030904087
0.030913038
0.030922013
0.030930537
0.03093839
0.030945915
0.030955944
0.030966492
0.030976117
0.030986514
0.030997275
0.031006955
0.031018458
0.031028764
0.031041
0.03105129
0.031062403
0.031070145
0.03107536
0.031081581
0.0310899
0.031161851
0.031154624
0.03114902
0.031144021
0.031136323