/*--------------------------------*- C++ -*----------------------------------*\
| =========                 |                                                 |
| \\      /  F ield         | OpenFOAM: The Open Source CFD Toolbox           |
|  \\    /   O peration     | Version:  v2012                                 |
|   \\  /    A nd           | Website:  www.openfoam.com                      |
|    \\/     M anipulation  |                                                 |
\*---------------------------------------------------------------------------*/
FoamFile
{
    version     2.0;
    format      ascii;
    class       volScalarField;
    location    "200";
    object      omega;
}
// * * * * * * * * * * * * * * * * * * * * * * * * * * * * * * * * * * * * * //

dimensions      [0 0 -1 0 0 0 0];


internalField   nonuniform List<scalar> 
33282
(
22.213466
21.865627
21.529705
21.205021
20.890956
20.586946
20.292472
20.007058
19.73026
19.461671
19.200914
18.947638
18.701516
18.462242
18.229534
18.003126
17.78277
17.568233
17.359296
17.155754
16.957415
16.764098
16.575633
16.391858
16.212623
16.037787
15.867213
15.700774
15.538341
15.379788
15.224982
15.073754
14.92601
14.781536
14.641389
14.505597
14.378948
14.259672
14.152959
14.054969
13.967988
13.90596
13.752197
13.565419
13.368706
13.143197
12.87678
12.580965
12.271396
11.97485
11.706753
11.473016
11.276701
11.119501
10.997087
10.902445
10.824693
10.774283
10.731593
10.702853
10.68646
10.695547
10.736621
10.830904
11.003976
11.278624
11.694449
12.305612
13.171247
14.288305
15.360116
15.731627
15.098146
13.845553
12.330224
10.691621
9.2707459
8.2996362
7.6682611
7.299722
7.0815318
6.9669814
6.908392
6.8821745
6.8797467
6.8755199
6.8674892
6.8577786
6.8481662
6.8387458
6.830677
6.8232807
6.816996
6.8112402
6.8067413
6.8036384
6.8018775
6.8006493
6.7999206
6.7974512
6.7939688
6.7980787
6.8004751
6.8008193
6.8019264
6.8029314
6.8057999
6.8090717
6.8129141
6.8173936
6.8222453
6.8273635
6.8323677
6.8370251
6.8421394
6.8468806
6.8509265
6.8545164
6.8571559
6.8595689
6.8618658
6.8639284
6.8663176
6.8681997
6.8703589
6.8724799
6.8749275
6.8774711
6.8799342
6.8824684
6.8850953
6.8874445
6.8895759
6.8917412
6.8936978
6.895203
6.8964824
6.8977606
6.898646
6.8994458
6.8998938
6.9000656
6.898247
6.8953936
6.9025118
6.914172
6.9350523
6.9670281
7.0168683
7.0919734
7.2040712
7.3667913
7.6022195
7.9370454
8.4000596
9.0407271
9.8439638
10.876816
11.992192
13.147438
13.102852
11.991525
10.879103
9.8813952
9.0594504
8.4186445
7.9452279
7.6059956
7.3675497
7.2039466
7.0928868
7.0176665
6.9690118
6.9367778
6.9165672
6.9039632
6.9052514
6.9173335
6.9373467
6.9689076
7.0175873
7.0923078
7.2032965
7.3672072
7.6084741
7.9512362
8.4303795
9.0761899
9.8984555
10.877278
11.95533
13.004876
12.881199
11.891723
10.852513
9.894299
9.0767034
8.4313098
7.9511394
7.6078409
7.3659436
7.2025717
7.0915424
7.0175475
6.968596
6.9376568
6.9172477
6.9057111
6.9046037
6.9163761
6.9361941
6.9674717
7.0160728
7.0900546
7.1998281
7.3630088
7.6037342
7.945062
8.4220923
9.0623816
9.8671049
10.802167
11.800927
12.735797
12.562275
11.683699
10.727616
9.820134
9.0336405
8.4034704
7.9339705
7.5968478
7.3587961
7.1970669
7.0884129
7.0152033
6.9673235
6.936063
6.9163436
6.9047848
6.9039375
6.9160604
6.9349992
6.9651039
7.0132105
7.0850536
7.1930594
7.3528356
7.5872628
7.9187275
8.3796897
8.9937182
9.7603926
10.635297
11.54641
12.36337
12.131569
11.388556
10.527133
9.6902871
8.9485256
8.3509058
7.9004236
7.575572
7.3452298
7.1882167
7.0822905
7.0111225
6.9636159
6.9333644
6.9145752
6.9021094
6.9007624
6.9123181
6.9310477
6.9610629
7.0068321
7.077109
7.1823551
7.3368047
7.5626897
7.8809786
8.3205774
8.9005772
9.6141829
10.412486
11.206952
11.87351
11.6113
11.009662
10.283111
9.5343469
8.8531853
8.2903858
7.8608725
7.5491619
7.32751
7.1758433
7.0729553
7.0044831
6.9589833
6.9291622
6.9109566
6.8995725
6.897542
6.9088735
6.9264147
6.9554876
6.9999943
7.0681808
7.1690608
7.3180669
7.5358279
7.8418261
8.2611054
8.8064151
9.4570097
10.152107
10.813745
11.368073
11.150961
10.630559
10.01916
9.3766113
8.760278
8.2342552
7.8239806
7.5227212
7.3081585
7.1620705
7.0617339
6.9950794
6.9511011
6.923113
6.9060594
6.8946076
6.8925608
6.903087
6.9201476
6.9482705
6.9907541
7.0562894
7.1543812
7.2984756
7.5095948
7.806382
8.2104475
8.7199643
9.2997525
9.8982648
10.473049
10.968454
10.820462
10.342897
9.7954617
9.2341618
8.6834445
8.1861288
7.7884122
7.4960052
7.2880474
7.1462331
7.0503134
6.9868569
6.944566
6.9173595
6.9010067
6.8905445
6.8874764
6.8979493
6.9145269
6.9409513
6.9818695
7.0446311
7.138565
7.2777001
7.481908
7.7696296
8.160463
8.6487133
9.182821
9.7180591
10.242412
10.706288
10.619786
10.168798
9.6606866
9.138498
8.6143916
8.1344297
7.7502151
7.467708
7.2680406
7.1314239
7.0390311
6.9776005
6.9367236
6.911164
6.8947737
6.885037
6.8825162
6.8926317
6.9077628
6.9324256
6.9719492
7.0332973
7.1243231
7.2579116
7.4535475
7.7310405
8.1089496
8.5825627
9.100344
9.6166364
10.114686
10.553086
10.504109
10.070887
9.5775845
9.0661431
8.5525695
8.0850265
7.7129596
7.4403793
7.2484003
7.1179338
7.0276779
6.9676335
6.9293913
6.9044956
6.889711
6.8793915
6.8767699
6.8864456
6.9012647
6.9253432
6.9641538
7.0232372
7.111362
7.2410665
7.429927
7.6981316
8.0648744
8.5275362
9.0375037
9.546333
10.035316
10.464104
10.435968
10.009937
9.5234501
9.017002
8.5096521
8.0510921
7.6883527
7.4231714
7.2364856
7.1080513
7.0209606
6.9619809
6.92394
6.899139
6.8845092
6.8750842
6.8724833
6.8818312
6.8967954
6.921625
6.9601322
7.0186339
7.1068644
7.2361894
7.4224839
7.6873737
8.0484553
8.505151
9.0106733
9.5158084
10.000006
10.423366
10.435132
10.014276
9.5320374
9.0284389
8.5229775
8.0648234
7.7014089
7.4334157
7.2432872
7.1111312
7.0211425
6.9608806
6.9208626
6.8961975
6.8803226
6.8712274
6.8684086
6.8784002
6.8945071
6.9210016
6.9631701
7.0272041
7.1220131
7.2609128
7.4601705
7.7382191
8.1111149
8.5761052
9.0846454
9.587118
10.065732
10.480109
10.580192
10.172503
9.6976975
9.196371
8.6818693
8.2013212
7.8077695
7.5096962
7.2938347
7.1419178
7.0380027
6.9680175
6.9232119
6.8948564
6.8777294
6.8674649
6.8653951
6.8770952
6.8952411
6.9253962
6.9762866
7.0535964
7.1716123
7.3437168
7.5878074
7.9203015
8.3506419
8.8583707
9.3845017
9.8856512
10.356457
10.75728
11.037868
10.644268
10.175031
9.6691763
9.1223172
8.5710838
8.082454
7.6975629
7.4128199
7.2124355
7.0760041
6.9868037
6.9298214
6.8954085
6.8755956
6.8627758
6.860807
6.8737233
6.8959527
6.9337844
6.9972113
7.1007395
7.2602829
7.4968084
7.8361742
8.2944468
8.8659354
9.4821448
10.065622
10.590708
11.066982
11.458299
12.065066
11.660485
11.149637
10.57272
9.9261831
9.2209428
8.5408917
7.9907812
7.5865754
7.3091498
7.1245294
7.0069235
6.9366128
6.8951807
6.8712279
6.8576206
6.8534749
6.8674892
6.892949
6.9373293
7.0141696
7.1436268
7.3507081
7.66775
8.1395078
8.7880018
9.5873388
10.403961
11.160312
11.846557
12.444761
12.906305
13.955125
13.364056
12.599494
11.739817
10.828814
9.8885344
8.9790335
8.2468702
7.7213429
7.3746801
7.1522098
7.0148323
6.9346251
6.8886659
6.8624368
6.848672
6.8426666
6.8567051
6.8823046
6.9275902
7.0079158
7.1459409
7.3726708
7.7309186
8.2791905
9.0586768
10.039412
11.086599
12.147047
13.199976
14.164361
14.929124
15.2418
14.394451
13.342303
12.203345
11.061727
9.9697734
8.9833166
8.2171451
7.6857215
7.3399351
7.1233599
6.9925086
6.9175664
6.8749817
6.8510609
6.8384976
6.8331766
6.8449042
6.8654428
6.9029568
6.9702432
7.0860087
7.2790577
7.5871806
8.0617213
8.7460826
9.6610253
10.726516
11.835707
12.913735
13.880625
14.652203
13.497025
12.863766
12.033409
11.077107
10.077017
9.1529046
8.3945692
7.8401279
7.4536785
7.1994518
7.0397097
6.9434439
6.8872759
6.8549937
6.8376401
6.8268647
6.8215318
6.8301258
6.8447336
6.8704203
6.9140332
6.9899048
7.1134608
7.3080411
7.5999727
8.0135237
8.5699774
9.2631392
10.046598
10.833902
11.526336
12.045717
10.460841
10.067839
9.5814255
9.0465298
8.5145867
8.0439123
7.6643313
7.3771764
7.1714129
7.0318498
6.9419411
6.8861557
6.8544246
6.8347845
6.8234425
6.8165685
6.8119235
6.8171482
6.8256695
6.8397936
6.8627932
6.9016679
6.9633132
7.0572997
7.1944656
7.3825268
7.6277331
7.9263053
8.2584753
8.591909
8.8915324
9.1232532
8.2128641
8.0754997
7.8976794
7.7009084
7.5039884
7.3243359
7.1739695
7.057136
6.9699871
6.9090726
6.8692509
6.8431205
6.828399
6.8181026
6.8118737
6.8082935
6.8043586
6.8072732
6.8114002
6.8183751
6.8283981
6.8449686
6.8702469
6.9086065
6.9612732
7.0312037
7.1196334
7.2242532
7.3374902
7.4491873
7.5482097
7.6250873
7.2733945
7.2310423
7.1761902
7.1137514
7.0503418
6.9908317
6.9402936
6.8992993
6.8683247
6.8450778
6.8299508
6.81904
6.8128001
6.8080398
6.8055552
6.8037915
6.8027134
6.8047074
6.8059009
6.8078851
6.8127407
6.819421
6.8288804
6.8432149
6.8619288
6.8854575
6.9144964
6.9481275
6.9832145
7.0182963
7.0487528
7.0710938
6.9615331
6.9489268
6.9318084
6.911201
6.891671
6.8721496
6.8555002
6.8411965
6.8291278
6.8202605
6.8132291
6.8087173
6.8057006
6.8050434
6.8037993
6.8016615
6.7998172
6.8013929
6.8028737
6.8035212
6.8062705
6.8090908
6.8148816
6.8219689
6.8291821
6.838718
6.8490577
6.8616081
6.8737822
6.8869236
6.8975893
6.9050039
6.9180272
6.9221394
6.9378248
6.9555261
6.9755185
6.9973204
7.0205226
7.0446016
7.0693068
7.0944911
7.1200981
7.1461034
7.1725006
7.1992709
7.2263976
7.2538677
7.2816686
7.3097871
7.3382116
7.3669352
7.3959481
7.4252482
7.4548369
7.4847106
7.5148731
7.5453287
7.5760774
7.6071258
7.6384783
7.6701413
7.7021225
7.7344267
7.7670607
7.8000302
7.8333443
7.8670096
7.901034
7.9354237
7.9701858
8.0053266
8.0408515
8.0767647
8.1130682
8.1497653
8.0927795
8.055624
8.018797
7.9822981
7.9461262
7.9102794
7.8747555
7.8395519
7.8046661
7.770095
7.7358363
7.7018874
7.6682461
7.6349108
7.60188
7.5691529
7.5367298
7.5046114
7.4727996
7.4412973
7.410109
7.3792404
7.3486989
7.3184936
7.2886356
7.2591378
7.2300152
7.2012839
7.1729614
7.1450638
7.1176063
7.090595
7.0640528
7.0380069
7.0127112
6.9882199
6.965519
6.9443029
6.9258869
6.909212
6.9165063
6.9327819
6.9512357
6.9720348
6.994741
7.0189433
7.0441127
7.0699859
7.0964065
7.1233147
7.1506862
7.1785065
7.2067614
7.2354327
7.2645022
7.2939532
7.32377
7.353939
7.3844487
7.4152892
7.4464526
7.4779329
7.5097252
7.5418263
7.5742341
7.6069476
7.6399665
7.6732916
7.7069239
7.7408653
7.7751181
7.8096848
7.8445674
7.8797697
7.9152942
7.9511428
7.9873188
8.0238239
8.0606594
8.0978262
8.108987
8.0718111
8.0349711
7.998466
7.962294
7.9264529
7.8909391
7.8557507
7.8208846
7.786337
7.7521054
7.7181871
7.6845795
7.6512805
7.6182887
7.5856032
7.5532238
7.5211513
7.4893874
7.4579349
7.4267981
7.395983
7.365497
7.3353495
7.3055517
7.2761169
7.2470602
7.2183985
7.1901493
7.1623301
7.134955
7.1080401
7.0816087
7.0557179
7.0304997
7.0062324
6.9833812
6.9625064
6.9439799
6.9277763
6.9493104
6.9655785
6.9840162
7.0048114
7.0276155
7.0518353
7.0769906
7.102805
7.1291517
7.1559817
7.1832738
7.2110133
7.2391851
7.2677704
7.2967522
7.326113
7.3558378
7.3859129
7.416326
7.4470693
7.4781338
7.5095131
7.541203
7.5732012
7.6055067
7.6381189
7.6710385
7.7042664
7.7378046
7.7716555
7.8058222
7.8403078
7.8751158
7.9102497
7.9457133
7.9815095
8.0176418
8.0541134
8.0909266
8.1280835
8.158007
8.120948
8.0842428
8.0478885
8.0118814
7.9762173
7.940892
7.9059011
7.8712399
7.8369041
7.8028892
7.769191
7.7358058
7.7027302
7.6699614
7.6374973
7.6053366
7.5734787
7.5419241
7.5106744
7.4797327
7.4491038
7.4187943
7.3888126
7.3591693
7.3298768
7.30095
7.2724044
7.2442513
7.2165125
7.1892042
7.1623349
7.1359195
7.1099999
7.0846972
7.0602872
7.0372304
7.0161385
6.9973883
6.9809449
7.0316643
7.048575
7.0675689
7.0888143
7.1119897
7.1365094
7.161921
7.1879218
7.2143843
7.2412684
7.2685588
7.2962504
7.3243386
7.352806
7.381641
7.4108236
7.4403383
7.4701733
7.5003187
7.5307675
7.5615137
7.5925535
7.6238847
7.6555067
7.6874199
7.7196261
7.7521283
7.7849294
7.8180333
7.8514448
7.8851691
7.9192118
7.9535787
7.9882757
8.0233093
8.0586853
8.0944098
8.1304887
8.1669277
8.2037323
8.2740938
8.2377944
8.2018658
8.1662997
8.1310876
8.0962208
8.061691
8.0274893
7.9936073
7.9600369
7.9267704
7.8938002
7.8611195
7.8287214
7.7966008
7.7647524
7.7331717
7.7018554
7.6708021
7.6400113
7.6094837
7.5792212
7.5492286
7.5195124
7.4900805
7.4609431
7.4321136
7.4036068
7.3754355
7.3476158
7.3201585
7.293068
7.266352
7.2400471
7.2142722
7.1893054
7.1656039
7.1437356
7.1240502
7.1066164
7.2195314
7.2377411
7.2581756
7.2807593
7.3051322
7.3307516
7.3571258
7.3839712
7.4111844
7.4387236
7.4665783
7.494746
7.5232175
7.551978
7.5810115
7.6103043
7.6398372
7.669602
7.6995947
7.7298057
7.7602301
7.7908677
7.8217206
7.8527924
7.8840778
7.9155831
7.9473174
7.9792842
8.0114901
8.0439443
8.0766566
8.1096377
8.1428928
8.1764341
8.2102745
8.2444242
8.2788947
8.3136986
8.3488487
8.3843594
8.559969
8.5253908
8.4911255
8.4571554
8.4234642
8.3900354
8.3568545
8.3239077
8.2911818
8.2586646
8.226345
8.1942126
8.1622576
8.1304706
8.0988445
8.0673734
8.0360525
8.0048778
7.9738469
7.9429581
7.9122112
7.8816082
7.8511523
7.8208517
7.7907158
7.7607546
7.7309817
7.7014115
7.6720649
7.642947
7.6140679
7.5854389
7.5570707
7.5290007
7.5013442
7.4743788
7.4485902
7.4245699
7.4027321
7.3832312
7.6205613
7.6415941
7.6649734
7.6908694
7.7187646
7.747922
7.7777601
7.807987
7.8384745
7.8691876
7.900121
7.9312233
7.9624917
7.9939116
8.025465
8.057136
8.0889093
8.1207861
8.1527404
8.1847621
8.2168456
8.2489877
8.2811863
8.3134404
8.3457492
8.3781196
8.4105599
8.4430531
8.4756124
8.5082485
8.5409694
8.5737846
8.6067033
8.6397417
8.6729151
8.706227
8.739699
8.7733495
8.8071996
8.8412783
9.2903977
9.255106
9.2199097
9.1847827
9.1497034
9.1146515
9.079613
9.0445761
9.0095316
8.9744688
8.939384
8.9042724
8.8691306
8.8339533
8.7987413
8.763496
8.7282201
8.6929139
8.657585
8.62224
8.5868839
8.5515246
8.5161932
8.4808923
8.4456315
8.4104144
8.3752524
8.3401776
8.3052139
8.270385
8.2357192
8.2012434
8.1669857
8.1330222
8.0995727
8.0669172
8.0356543
8.0067032
7.9807761
7.9576647
8.424421
8.451008
8.4809913
8.5148795
8.5516201
8.5900128
8.6293426
8.6693307
8.7098406
8.7506605
8.791744
8.8330515
8.874542
8.9161899
8.9579877
8.9999157
9.0419262
9.0839883
9.1260825
9.1682093
9.2103025
9.252377
9.2944472
9.3365058
9.3785101
9.4204504
9.462332
9.5041124
9.5458042
9.5874116
9.6289419
9.6703954
9.711751
9.7530134
9.7941933
9.8352759
9.876283
9.9172341
9.9581551
9.9990928
11.094792
11.038963
10.983254
10.927635
10.872085
10.816586
10.761149
10.705749
10.650374
10.595029
10.539727
10.484471
10.429275
10.374144
10.319095
10.264143
10.209298
10.154573
10.099986
10.045551
9.9912786
9.9371782
9.8832691
9.8295667
9.7761274
9.7229522
9.6700585
9.6174646
9.5651961
9.5132797
9.4617488
9.4106933
9.3602407
9.3106098
9.2619119
9.2144782
9.1691594
9.1273833
9.0906654
9.0608576
9.8794058
9.9215594
9.9695713
10.023148
10.080947
10.141546
10.203996
10.267894
10.333055
10.399275
10.466453
10.534518
10.603362
10.672947
10.743242
10.814227
10.885898
10.958222
11.031194
11.104841
11.179059
11.253909
11.329402
11.405539
11.482321
11.559742
11.637831
11.716591
11.795988
11.876023
11.956706
12.038049
12.120059
12.202757
12.286192
12.370338
12.455264
12.541031
12.627701
12.715399
14.898057
14.757868
14.620702
14.486343
14.354605
14.225329
14.09842
13.973739
13.85116
13.730562
13.611889
13.495075
13.380056
13.266777
13.1552
13.045281
12.936983
12.830265
12.725098
12.621456
12.519304
12.418616
12.319378
12.22157
12.125176
12.030179
11.936572
11.844349
11.75356
11.66418
11.576241
11.489834
11.40501
11.32196
11.240948
11.162555
11.087969
11.018487
10.955036
10.903027
12.056741
12.130033
12.210787
12.298381
12.392241
12.49113
12.593384
12.69829
12.805362
12.914732
13.02635
13.140178
13.256176
13.374334
13.49467
13.617245
13.742014
13.869053
13.998446
14.130276
14.26446
14.401088
14.54026
14.682069
14.826448
14.973503
15.123348
15.276095
15.431689
15.590268
15.751961
15.916874
16.085053
16.25661
16.431704
16.610391
16.792871
16.97932
17.169951
17.365012
8.0830695
8.0454313
8.0081008
7.971079
7.9343666
7.8979637
7.8618695
7.8260833
7.7906041
7.7554305
7.7205612
7.6859945
7.651729
7.6177635
7.5840968
7.5507282
7.5176575
7.4848851
7.4524121
7.4202406
7.3883733
7.3568145
7.3255699
7.2946467
7.2640545
7.2338046
7.2039104
7.1743878
7.1452551
7.1165322
7.0882414
7.0604059
7.0330486
7.0061904
6.9798449
6.9540413
6.928815
6.9044223
6.8809205
6.859291
6.8392339
6.8220495
6.8066316
6.810649
6.8124439
6.812974
6.8139369
6.8151994
6.8179549
6.8212744
6.8250351
6.829527
6.8343172
6.8394111
6.844428
6.8491354
6.8541712
6.8588986
6.8628894
6.8665322
6.8691815
6.8716488
6.8740003
6.8761723
6.8785579
6.8805193
6.8826784
6.8848707
6.8872855
6.889831
6.8923004
6.8948686
6.897466
6.8998729
6.9019939
6.9041708
6.9061761
6.9077812
6.9091198
6.9104486
6.9114898
6.9123034
6.9130374
6.9132008
6.9120176
6.9281182
6.9288426
6.9285093
6.9276267
6.9267094
6.9255652
6.9242053
6.9227764
6.9210804
6.919022
6.9168625
6.9146952
6.9122411
6.9096606
6.907073
6.9046008
6.9020834
6.8996541
6.8973956
6.8952345
6.8931853
6.8908039
6.8885151
6.8861142
6.8836194
6.8809
6.8772173
6.8732685
6.8685695
6.8636181
6.858859
6.8538325
6.8488031
6.8440236
6.8395354
6.8358192
6.832478
6.8297735
6.8283327
6.8273781
6.8268587
6.8253902
6.8424375
6.8437429
6.8442384
6.8452664
6.8468509
6.8495283
6.8528789
6.8565804
6.8610509
6.8658387
6.8708235
6.8758427
6.880656
6.8855242
6.8901805
6.894111
6.8978164
6.9006237
6.9031481
6.905609
6.9079998
6.9103708
6.9124951
6.9146682
6.9169595
6.9194315
6.9219267
6.924405
6.9269961
6.9295704
6.9320595
6.9342872
6.9364479
6.9385372
6.9402991
6.941813
6.9432021
6.9444112
6.9454572
6.9463835
6.9468778
6.9463838
6.9670693
6.9673349
6.9667903
6.9658043
6.9646991
6.9634406
6.962001
6.9604133
6.9586253
6.9564787
6.9543157
6.9520316
6.9495413
6.9469441
6.9443749
6.9418926
6.9393839
6.9369057
6.9345811
6.932341
6.9301943
6.9277983
6.9253249
6.9228378
6.9202527
6.9173573
6.9136635
6.9097123
6.905117
6.9002871
6.8954609
6.8904214
6.8854768
6.8806763
6.8762576
6.8725349
6.8691963
6.8664864
6.8648256
6.8637066
6.8631434
6.8619251
6.8834604
6.8846602
6.8853433
6.8865507
6.8882946
6.8910202
6.8943392
6.8980875
6.9024628
6.9072677
6.9121749
6.9172325
6.9220723
6.9268691
6.9314156
6.9353894
6.9390749
6.9420462
6.9447086
6.9472067
6.9497447
6.952179
6.9543435
6.9566491
6.959013
6.9614869
6.9640202
6.9665002
6.9690426
6.9716724
6.974156
6.9764879
6.9786554
6.9808648
6.9826698
6.9843248
6.985823
6.9871193
6.9882822
6.9892921
6.9898368
6.9896646
7.0138021
7.0138467
7.0132795
7.0122501
7.0110137
7.0096824
7.0081322
7.0064539
7.0045926
7.002369
7.0001715
6.9978153
6.995299
6.9926837
6.9901373
6.9876495
6.9850795
6.9826245
6.9802349
6.9778906
6.9756655
6.973196
6.9706439
6.9680886
6.9653738
6.9623281
6.9586517
6.9546472
6.9501421
6.945354
6.9405004
6.9354686
6.9305572
6.9257684
6.9214371
6.917687
6.9143492
6.9116332
6.9097885
6.9085188
6.907705
6.9065653
6.9307344
6.9318129
6.9327232
6.9340499
6.9359852
6.938682
6.9420386
6.9457839
6.9500728
6.9548424
6.9597578
6.9647609
6.9696103
6.9744111
6.9788942
6.982923
6.9865986
6.9897053
6.9924626
6.9950825
6.9976475
7.0001488
7.0024312
7.0048081
7.0072255
7.0096595
7.0122546
7.014758
7.0173243
7.0199149
7.0224588
7.0248401
7.0270768
7.0293014
7.0312178
7.0329189
7.0345066
7.0358802
7.0371767
7.0382371
7.0388506
7.0388974
7.0647199
7.064559
7.0638927
7.062802
7.0614662
7.0600374
7.0584291
7.0566918
7.0547338
7.0524886
7.0502022
7.0478173
7.0452622
7.0426746
7.040092
7.0375582
7.0349742
7.032527
7.0300963
7.0276973
7.025377
7.0228489
7.0202547
7.0175741
7.0147762
7.0116076
7.0079337
7.0038785
6.9994123
6.9946176
6.9897675
6.9847776
6.979873
6.9751266
6.9708548
6.9670993
6.9637612
6.9610669
6.9590564
6.9576653
6.9567033
6.9556808
6.9812842
6.9822452
6.9832574
6.9846815
6.986749
6.9894409
6.9927561
6.99652
7.0007852
7.0055039
7.0104018
7.0153779
7.0202349
7.025019
7.0294729
7.0335537
7.0372356
7.0404599
7.0432957
7.0460317
7.0486592
7.0512048
7.0535666
7.055975
7.0584118
7.060882
7.0634598
7.0660137
7.0686138
7.0711976
7.073769
7.0761499
7.0784841
7.080747
7.0827473
7.0845162
7.0861471
7.0876234
7.0889981
7.0901143
7.0908346
7.0910836
7.1179545
7.1176213
7.116842
7.1157018
7.1142952
7.1127871
7.1111341
7.1093326
7.1072865
7.1050182
7.1026581
7.1002547
7.0976783
7.0950964
7.0924882
7.0899159
7.087346
7.0848511
7.0824098
7.0799765
7.0775752
7.0750171
7.0723618
7.0695982
7.0667028
7.063435
7.0597428
7.0556467
7.0511763
7.0464006
7.0415333
7.0365764
7.0316766
7.0269925
7.0227391
7.0189804
7.0156628
7.0129755
7.0108742
7.0094217
7.0083713
7.0074478
7.0341638
7.0350422
7.0361177
7.0376014
7.0397234
7.0424124
7.0457325
7.0494816
7.0537275
7.0583765
7.0632722
7.068218
7.0730886
7.0778681
7.0823575
7.0864707
7.0901777
7.0934867
7.09644
7.0992292
7.1019029
7.1044804
7.1069235
7.1093741
7.1118193
7.1143363
7.1168995
7.1194857
7.1221026
7.1246796
7.1272547
7.1296844
7.1320707
7.1343394
7.1364197
7.1382568
7.1399318
7.1414666
7.1428933
7.1440591
7.1448854
7.145287
7.173084
7.1726227
7.1717628
7.1705677
7.1691334
7.1675768
7.1658703
7.1640029
7.1619002
7.1596218
7.1572165
7.1547611
7.152189
7.1496062
7.146991
7.144403
7.1418366
7.1393077
7.1368433
7.1343858
7.1319054
7.1293101
7.1266273
7.1238059
7.1208048
7.1174562
7.1137198
7.1095899
7.1050895
7.1003066
7.0954276
7.0904826
7.0855976
7.0809701
7.0767349
7.0729854
7.0696852
7.0669872
7.0648591
7.063338
7.0622502
7.0613892
7.0891186
7.0899577
7.0910563
7.0926084
7.0947421
7.0974452
7.1007268
7.1044753
7.1086977
7.1133038
7.1181819
7.1231257
7.128017
7.132804
7.1373185
7.1414647
7.1452349
7.1486196
7.1516686
7.1545201
7.1572144
7.1598243
7.1623374
7.164799
7.1672827
7.16982
7.1723944
7.1749781
7.1775885
7.1801804
7.1827517
7.1852264
7.1876496
7.189935
7.1920599
7.1939509
7.1956897
7.1972635
7.1987032
7.1999227
7.2008116
7.2013156
7.2299744
7.2294302
7.2285137
7.2272781
7.2258343
7.2242442
7.2224785
7.2205613
7.2184221
7.2161253
7.2136937
7.2112025
7.208634
7.2060333
7.2034271
7.2008408
7.1982638
7.1957156
7.1932266
7.1907496
7.1882136
7.1855901
7.1828821
7.1799993
7.1769003
7.1734803
7.169676
7.1655115
7.1609807
7.1561915
7.1512879
7.1463385
7.1414723
7.1368803
7.1326767
7.1289328
7.1256695
7.1229631
7.1208267
7.1192471
7.1181399
7.1173113
7.1459556
7.146768
7.1478825
7.1494843
7.1516229
7.1543303
7.157576
7.1613107
7.1655016
7.1700766
7.17493
7.1798869
7.1848062
7.1895997
7.1941458
7.1983335
7.202169
7.2056262
7.2087699
7.2116854
7.21441
7.2170471
7.2195963
7.2220918
7.2245858
7.2271426
7.2297174
7.2323111
7.2349139
7.2375219
7.2400905
7.2425925
7.2450337
7.2473364
7.2494863
7.2514278
7.2532188
7.2548224
7.2562723
7.2575185
7.2584585
7.259032
7.2884783
7.2878782
7.2869235
7.2856652
7.2842092
7.282593
7.2807829
7.2788194
7.2766602
7.2743522
7.2719045
7.2693925
7.2668238
7.2642139
7.26161
7.2590144
7.2564373
7.2538778
7.2513749
7.2488673
7.2463029
7.2436565
7.2409096
7.237964
7.2347822
7.2312847
7.2274221
7.2232048
7.2186446
7.2138354
7.208904
7.2039398
7.1990983
7.1945387
7.1903606
7.1866404
7.1834071
7.180705
7.1785606
7.1769455
7.1758198
7.1750166
7.204483
7.2052735
7.20641
7.2080329
7.2101835
7.2128774
7.2161003
7.2198042
7.2239698
7.2285152
7.2333461
7.2383172
7.243263
7.2480882
7.2526663
7.2569136
7.260805
7.2643407
7.2675597
7.2705328
7.2733036
7.2759583
7.2785352
7.2810535
7.2835662
7.2861265
7.2887063
7.2913017
7.2939086
7.2965184
7.2990876
7.3016085
7.3040603
7.3063729
7.3085403
7.3105236
7.3123487
7.3139761
7.3154376
7.3167052
7.3176717
7.3182912
7.3484616
7.3478246
7.3468468
7.3455765
7.3441058
7.3424684
7.3406328
7.3386355
7.3364561
7.334139
7.3316861
7.329161
7.3265863
7.3239769
7.321369
7.3187733
7.3161898
7.3136308
7.3111079
7.3085798
7.305997
7.3033282
7.3005344
7.2975367
7.294281
7.2907103
7.2867894
7.282511
7.2779128
7.2730698
7.2681072
7.2631342
7.2583075
7.2537768
7.2496217
7.2459335
7.2427212
7.2400359
7.2378804
7.2362526
7.2351075
7.2343277
7.2645384
7.2653057
7.2664554
7.2680886
7.2702457
7.2729244
7.276125
7.2797994
7.2839431
7.2884616
7.2932846
7.2982598
7.3032391
7.3081008
7.3127217
7.3170316
7.3209837
7.3245885
7.327878
7.3309008
7.3337178
7.3363992
7.3389888
7.3415247
7.3440569
7.3466142
7.3491994
7.3517961
7.3544031
7.357014
7.3595934
7.3621207
7.3645742
7.3668969
7.3690868
7.3710945
7.3729387
7.3745863
7.3760652
7.3773374
7.3783237
7.3789731
7.4098188
7.4091586
7.4081658
7.4068911
7.4054085
7.4037505
7.4018989
7.3998808
7.3976856
7.3953561
7.3929019
7.3903731
7.3877915
7.3851797
7.3825713
7.3799739
7.3773889
7.3748313
7.3722937
7.3697487
7.3671521
7.3644587
7.3616213
7.3585725
7.3552518
7.3516131
7.3476271
7.3432867
7.3386394
7.3337576
7.3287635
7.3237828
7.318966
7.3144558
7.3103271
7.3066642
7.303477
7.3008053
7.2986475
7.297011
7.2958574
7.295099
7.3259986
7.3267477
7.327904
7.3295423
7.3316999
7.3343644
7.3375388
7.3411903
7.3453046
7.3498069
7.3546184
7.3596044
7.3646135
7.3695164
7.3741919
7.3785632
7.3825843
7.386256
7.3896077
7.3926818
7.3955376
7.3982434
7.4008476
7.4034009
7.4059429
7.4085008
7.4110858
7.4136833
7.4162934
7.4189052
7.421489
7.4240188
7.4264738
7.4288091
7.4310089
7.4330357
7.4348937
7.4365605
7.4380465
7.4393228
7.4403204
7.4409879
7.4724756
7.471802
7.4708012
7.4695236
7.4680346
7.4663603
7.464497
7.4624626
7.4602589
7.4579187
7.4554627
7.4529309
7.4503463
7.4477344
7.4451234
7.4425249
7.4399407
7.4373817
7.4348366
7.4322768
7.4296636
7.4269464
7.4240722
7.4209734
7.4175919
7.4138863
7.4098299
7.4054272
7.4007222
7.3957978
7.3907728
7.3857821
7.3809751
7.3764804
7.3723797
7.3687392
7.3655769
7.3629184
7.360762
7.3591229
7.3579647
7.357223
7.3887664
7.3895006
7.3906598
7.3922994
7.3944535
7.3971065
7.4002578
7.4038873
7.4079753
7.4124625
7.4172662
7.4222621
7.427303
7.43225
7.4369849
7.4414207
7.4455121
7.4492519
7.4526623
7.4557848
7.4586776
7.4614058
7.4640275
7.466593
7.4691417
7.4717015
7.4742845
7.476884
7.4794961
7.4821077
7.4846933
7.4872265
7.4896837
7.4920281
7.4942354
7.496276
7.4981441
7.4998246
7.5013164
7.5025949
7.5035979
7.5042755
7.536385
7.5357042
7.5346998
7.5334211
7.5319264
7.5302406
7.5283685
7.5263224
7.5241119
7.521764
7.5193056
7.5167708
7.5141844
7.5115734
7.5089609
7.5063605
7.5037784
7.5012177
7.4986655
7.4960947
7.4934654
7.4907256
7.4878148
7.4846687
7.4812302
7.4774571
7.4733302
7.4688604
7.4640951
7.4591239
7.454067
7.4490655
7.4442639
7.4397838
7.4357078
7.4320888
7.4289479
7.4263004
7.4241499
7.4225096
7.4213504
7.42062
7.4527811
7.4535082
7.4546672
7.4563077
7.4584543
7.4610961
7.4642274
7.467836
7.4719013
7.4763747
7.4811752
7.486183
7.4912563
7.4962524
7.5010489
7.5055536
7.5097159
7.5135219
7.5169886
7.5201578
7.523086
7.5258372
7.5284742
7.5310501
7.5336056
7.5361673
7.5387489
7.5413498
7.5439627
7.546573
7.5491598
7.5516962
7.554156
7.5565066
7.5587201
7.5607708
7.5626467
7.5643368
7.5658342
7.5671131
7.5681181
7.568801
7.6015228
7.6008383
7.599833
7.5985538
7.5970539
7.5953603
7.5934811
7.5914264
7.5892102
7.5868571
7.5843962
7.5818585
7.5792716
7.5766612
7.5740481
7.571447
7.5688654
7.5663025
7.5637436
7.5611627
7.5585183
7.555756
7.5528109
7.5496196
7.5461245
7.5422856
7.538088
7.5335475
7.5287193
7.5236974
7.5186072
7.5135918
7.5087919
7.5043246
7.5002693
7.4966704
7.4935481
7.4909119
7.488769
7.4871294
7.4859704
7.4852454
7.5180112
7.5187341
7.519893
7.5215316
7.5236711
7.5263018
7.5294159
7.5330057
7.537052
7.5415137
7.5463137
7.5513376
7.5564453
7.5614938
7.5663544
7.5709313
7.5751647
7.5790364
7.5825592
7.5857723
7.5887339
7.5915071
7.5941588
7.5967447
7.599307
7.6018715
7.6044534
7.6070547
7.6096679
7.6122783
7.6148654
7.6174041
7.6198661
7.6222213
7.6244402
7.6264983
7.6283806
7.6300772
7.6315791
7.6328587
7.6338641
7.6345495
7.667882
7.6671959
7.6661906
7.6649105
7.663407
7.6617075
7.6598225
7.6577612
7.6555397
7.6531827
7.6507194
7.6481798
7.6455925
7.6429821
7.640369
7.6377672
7.6351847
7.6326187
7.6300528
7.6274618
7.6248028
7.6220187
7.619041
7.6158065
7.6122564
7.6083521
7.6040828
7.5994694
7.5945758
7.5894999
7.5843739
7.5793408
7.5745398
7.5700827
7.5660443
7.562463
7.5593561
7.5567305
7.5545946
7.5529565
7.5517982
7.5510766
7.5844414
7.5851619
7.5863198
7.587957
7.5900897
7.5927107
7.5958113
7.599385
7.6034166
7.6078699
7.612673
7.6177163
7.6228616
7.6279653
7.6328925
7.6375425
7.6418478
7.6457843
7.6493614
7.652617
7.6556105
7.6584054
7.6610718
7.6636679
7.6662375
7.6688053
7.6713887
7.6739909
7.676604
7.6792145
7.6818022
7.6843425
7.6868071
7.6891659
7.6913899
7.6934541
7.6953419
7.6970439
7.6985489
7.6998294
7.7008345
7.701521
7.7354682
7.7347816
7.7337767
7.7324958
7.7309893
7.7292849
7.7273944
7.7253274
7.7231009
7.7207404
7.7182746
7.7157334
7.7131454
7.7105347
7.7079214
7.7053186
7.702734
7.7001642
7.6975909
7.6949896
7.6923159
7.6895103
7.6865013
7.6832248
7.6796212
7.6756525
7.6713112
7.6666244
7.6616631
7.6565309
7.6513655
7.646311
7.6415047
7.637054
7.6330281
7.629461
7.6263659
7.623749
7.6216193
7.619983
7.6188254
7.6181053
7.652069
7.6527887
7.653946
7.6555817
7.6577093
7.6603226
7.6634131
7.6669747
7.6709962
7.6754454
7.680256
7.6853227
7.6905092
7.6956704
7.7006663
7.7053902
7.7097673
7.7137681
7.7173981
7.7206949
7.723719
7.7265355
7.7292168
7.7318233
7.7344005
7.7369725
7.7395584
7.7421622
7.7447759
7.7473869
7.7499754
7.7525175
7.7549845
7.7573469
7.7595758
7.7616454
7.7635384
7.7652451
7.766753
7.7680344
7.769039
7.7697258
7.804296
7.8036092
7.8026048
7.801323
7.7998137
7.7981048
7.7962093
7.7941371
7.7919057
7.7895416
7.7870731
7.7845302
7.781941
7.7793296
7.7767152
7.7741102
7.7715227
7.7689479
7.7663669
7.7637546
7.7610655
7.7582381
7.7551992
7.7518819
7.748226
7.7441937
7.7397809
7.7350202
7.7299895
7.7247987
7.7195901
7.7145102
7.7096941
7.7052449
7.7012267
7.6976693
7.6945824
7.6919715
7.6898454
7.68821
7.6870523
7.6863328
7.7208986
7.7216182
7.7227765
7.724412
7.7265374
7.7291466
7.732231
7.7357856
7.739802
7.7442525
7.7490753
7.7541698
7.7594014
7.7646222
7.7696881
7.7744857
7.7789334
7.782997
7.7866782
7.7900157
7.7930693
7.7959077
7.7986048
7.8012231
7.8038084
7.8063863
7.8089758
7.8115823
7.8141977
7.8168098
7.8193999
7.821944
7.8244139
7.8267799
7.8290138
7.8310886
7.8329866
7.8346975
7.8362081
7.8374903
7.8384947
7.8391814
7.8743845
7.8736982