/*--------------------------------*- C++ -*----------------------------------*\
| =========                 |                                                 |
| \\      /  F ield         | OpenFOAM: The Open Source CFD Toolbox           |
|  \\    /   O peration     | Version:  v2012                                 |
|   \\  /    A nd           | Website:  www.openfoam.com                      |
|    \\/     M anipulation  |                                                 |
\*---------------------------------------------------------------------------*/
FoamFile
{
    version     2.0;
    format      ascii;
    class       volScalarField;
    location    "200";
    object      p;
}
// * * * * * * * * * * * * * * * * * * * * * * * * * * * * * * * * * * * * * //

dimensions      [0 2 -2 0 0 0 0];


internalField   nonuniform List<scalar> 
33282
(
0.14870804
0.13228307
0.11808529
0.10574514
0.094979974
0.085549225
0.077251089
0.069921328
0.063421963
0.057634754
0.052463751
0.047831279
0.043668059
0.039913707
0.036517322
0.03343619
0.030632827
0.02807487
0.02573427
0.02358713
0.021612089
0.019790912
0.018107083
0.016546591
0.015096054
0.01374429
0.012480739
0.011296471
0.010182965
0.0091323456
0.0081382142
0.0071924833
0.0062918795
0.0054255549
0.0046007262
0.0038021542
0.0030525277
0.0023302744
0.0016605488
0.00098551703
0.00039346994
0.00043890538
0.00047162301
0.00046768212
0.00045298138
0.00043403655
0.00040492603
0.0003856289
0.00035732921
0.00034393338
0.00032058543
0.00029514941
0.00028229444
0.00025067863
0.00023129079
0.00020551352
0.00018215976
0.00016054874
0.00014508999
0.00011944302
0.00010177815
7.2266337e-05
4.2673229e-05
-3.8999776e-06
-0.00010124795
-0.00021423377
-0.00038121702
-0.00052080714
-0.00075319819
-0.00041143148
0.0006706069
0.0017373845
0.0019342245
0.0017138729
0.001115415
0.00050638854
5.4536643e-05
-0.00016558724
-0.00028499161
-0.00031991338
-0.00041788401
-0.00044237851
-0.00049276367
-0.00045355898
-0.00043902914
-0.00040997351
-0.0004068365
-0.00042050429
-0.00042247596
-0.00044127601
-0.00044185023
-0.00044650753
-0.00044451385
-0.00044410338
-0.00044346629
-0.00045289122
-0.0004655763
-0.0004759177
-0.00049286186
-0.00048805896
-0.00049446552
-0.00046590494
-0.00045690506
-0.00044749947
-0.00044978617
-0.00043201412
-0.00041258819
-0.00038809728
-0.00036623036
-0.00034800996
-0.00033364353
-0.00031830222
-0.00030121273
-0.0002819313
-0.00025987968
-0.00023525151
-0.00020699755
-0.0001756908
-0.000143201
-0.00010803616
-7.0489531e-05
-3.3784895e-05
3.7189946e-06
4.1225024e-05
7.8059379e-05
0.00011455248
0.00014937801
0.00018391881
0.00021705061
0.00024874344
0.0002785707
0.00030634139
0.00033154542
0.00035462493
0.00037595615
0.00039697328
0.00042151177
0.00044493096
0.00046746472
0.00048230743
0.00047664808
0.00048128645
0.00046208954
0.00046438239
0.00045441758
0.00039607305
0.00037720667
0.00036116796
0.00036197935
0.00038910037
0.00038619423
0.00037225586
0.00034155468
0.00031465348
0.00029501809
0.00024741496
0.00026328313
0.000220041
0.00027543641
0.0003569013
0.00036043489
0.00026460258
0.00022086593
0.00024289651
0.00026056975
0.00030525627
0.00032155079
0.000336388
0.00034997518
0.00034922804
0.00032910853
0.00029951062
0.00030160764
0.00033427848
0.0003833693
0.0004350747
0.00043381506
0.00037117246
0.00030049047
0.00025372921
0.00025929088
0.00030256017
0.00034211077
0.00035827814
0.00035947897
0.00035654594
0.00034634957
0.0003025143
0.00025540655
0.0002254144
0.00026684521
0.00036855652
0.00037139829
0.00027279996
0.00023714213
0.0002832491
0.00034591584
0.00038801603
0.00039516921
0.00039362696
0.00038506957
0.00036047039
0.00031161654
0.00025361321
0.00023946213
0.00028826249
0.00036830394
0.00043401804
0.00043671003
0.00037004006
0.00028730415
0.00024050465
0.00026068183
0.00032433713
0.00037155033
0.00039626823
0.00040427983
0.00040762917
0.00040014467
0.00036025817
0.00028650174
0.00023300728
0.00026724323
0.0003628804
0.00034277707
0.00024608568
0.00020753632
0.00026287754
0.00034000433
0.00037926052
0.00038872905
0.0003865039
0.00038133956
0.00035977017
0.0003157915
0.00025453265
0.00023333172
0.00028002379
0.00036190754
0.00042701742
0.00040718972
0.00034185624
0.00025938313
0.00020961235
0.00023179471
0.00028732426
0.00032948605
0.00034779818
0.00034932277
0.00034984222
0.00033639639
0.00029856329
0.000217947
0.00016705257
0.00021359457
0.00031537254
0.00028657873
0.00017696011
0.00012425735
0.00017177474
0.00025656545
0.0002907322
0.00030972406
0.00031089075
0.00031210764
0.00029608235
0.00025368629
0.00019921051
0.00017931661
0.00023235084
0.00031504808
0.00038245082
0.00035735507
0.00028792255
0.00020316677
0.00015513078
0.00016918613
0.00022601815
0.00026710808
0.00028147128
0.00027915103
0.00027649431
0.0002539313
0.00021980178
0.00013322078
8.8062263e-05
0.00014584015
0.00025890121
0.00023749802
0.00012043792
5.9538348e-05
0.00010329417
0.00018923857
0.00022667661
0.00025105535
0.00025486404
0.00025795694
0.00024226129
0.00020347422
0.00014936924
0.00013500621
0.0001768692
0.00026376953
0.00033388955
0.00031168786
0.00024246549
0.0001555525
0.00011817504
0.00013337979
0.0001841089
0.0002227167
0.00023845875
0.00023549793
0.0002305384
0.00020636173
0.00016308324
7.6588138e-05
3.4709473e-05
0.00010156394
0.00021553744
0.00019489301
8.2122973e-05
1.2981177e-05
5.34741e-05
0.00013859621
0.00018630701
0.00021029559
0.00021655378
0.00022010534
0.00020353874
0.00016425117
0.0001182519
0.00010282482
0.0001386343
0.000221668
0.00028893663
0.00026636932
0.00020020996
0.00012256237
8.8078491e-05
0.00010277388
0.00014534797
0.00018273863
0.00019856195
0.00019607802
0.00018841082
0.00016555657
0.00011412204
3.055094e-05
-6.4432908e-06
6.6540084e-05
0.00018458686
0.00015829659
4.2178301e-05
-2.7547933e-05
9.233662e-06
9.0028892e-05
0.00014250877
0.00016498167
0.00017343703
0.00017677293
0.0001616616
0.0001271983
8.6567459e-05
7.3252682e-05
0.00010613043
0.00017785855
0.00024103449
0.0002155705
0.00015491172
8.8803057e-05
5.7400271e-05
6.94111e-05
0.00010728278
0.00013894237
0.0001509649
0.00014798238
0.00013905401
0.00011840717
6.5155838e-05
-1.3811092e-05
-4.7947237e-05
2.1295291e-05
0.00013621257
0.00011063289
-3.7895195e-06
-7.2215926e-05
-4.0462033e-05
3.635144e-05
8.9454086e-05
0.00011123872
0.00012194867
0.00012511174
0.0001139346
8.5922809e-05
5.0657165e-05
3.9775448e-05
7.013385e-05
0.0001318478
0.00018821876
0.00015946563
0.00010929761
5.058066e-05
2.1950505e-05
3.0464723e-05
6.2770581e-05
8.8302647e-05
9.6673952e-05
9.202209e-05
8.1513639e-05
5.8879249e-05
3.3129743e-06
-7.180139e-05
-0.00010060319
-3.203328e-05
8.2939093e-05
6.2264485e-05
-6.1109287e-05
-0.00013483134
-0.00010830211
-3.5733803e-05
1.8594305e-05
4.5890807e-05
5.9191172e-05
6.6824872e-05
6.0146477e-05
3.6906948e-05
9.0848746e-06
1.7069521e-06
2.9071845e-05
8.4627338e-05
0.00012980991
0.00010237747
6.0495292e-05
7.4118127e-06
-1.9751935e-05
-1.4651612e-05
1.0313808e-05
2.7805765e-05
3.1275462e-05
2.309806e-05
6.4427867e-06
-2.2731158e-05
-7.9270365e-05
-0.0001520641
-0.00017776602
-0.00010140928
4.2191003e-05
8.4547749e-07
-0.00014492498
-0.00022575991
-0.00020175582
-0.00012995898
-7.2605162e-05
-3.8311836e-05
-1.6252107e-05
-5.3440214e-06
-5.4350761e-06
-1.9234082e-05
-4.0609043e-05
-4.327533e-05
-1.5271289e-05
3.4840828e-05
7.1108834e-05
4.0441438e-05
7.7974707e-06
-3.7383039e-05
-6.8164842e-05
-6.6822511e-05
-5.1172983e-05
-4.1064551e-05
-4.2853356e-05
-5.8418115e-05
-8.7594284e-05
-0.00012916946
-0.00019285932
-0.00026448115
-0.00028496999
-0.00019694259
-2.4440928e-05
-7.3405568e-05
-0.00026018834
-0.00035699506
-0.00033984361
-0.00026575222
-0.00019279406
-0.00014153457
-0.00010370397
-8.3858373e-05
-7.7726363e-05
-8.3350127e-05
-9.4607689e-05
-9.3061168e-05
-6.2053626e-05
-1.9343805e-05
8.8233771e-06
-2.3457338e-05
-4.5698842e-05
-8.6110261e-05
-0.00011649917
-0.00012408092
-0.00011469708
-0.00011234651
-0.00012464068
-0.0001531555
-0.00019910377
-0.00026200861
-0.00034881634
-0.00042455634
-0.00043704262
-0.00033115018
-0.00012107558
-0.00017895602
-0.00041994956
-0.00054065587
-0.00052747843
-0.00043526486
-0.00033128614
-0.00025759468
-0.00019971959
-0.00016317484
-0.00014729741
-0.00014610051
-0.00014914647
-0.00014044035
-0.00010833606
-7.2917593e-05
-5.5943311e-05
-9.2060234e-05
-0.00010354165
-0.00013352755
-0.00016196748
-0.00017156028
-0.00017180288
-0.00017874356
-0.00019931275
-0.00024480132
-0.00031544861
-0.00041755784
-0.00052356991
-0.00062575864
-0.00064322371
-0.00053213339
-0.00028345452
-0.00039773735
-0.00065252149
-0.00079320571
-0.00076194026
-0.00063257082
-0.00049247311
-0.00036642551
-0.00028487028
-0.00023388074
-0.00020677933
-0.00019398954
-0.0001933483
-0.00018033872
-0.00015876252
-0.00013486985
-0.0001258996
-0.00015611931
-0.00016410576
-0.0001820121
-0.00019880183
-0.00021105926
-0.00021648066
-0.00023087902
-0.00026118295
-0.00031844009
-0.00041206227
-0.00055910321
-0.00074119959
-0.00093398186
-0.00096455848
-0.00077429532
-0.00054299377
-0.00067347187
-0.00097875231
-0.0010912713
-0.0010246638
-0.00082847445
-0.00061281769
-0.00044194709
-0.00034389259
-0.00028685851
-0.0002534555
-0.00023096414
-0.00022266657
-0.00021382238
-0.00020553024
-0.00019479806
-0.00019064348
-0.00022213192
-0.00022390431
-0.00022690041
-0.00022703573
-0.00023250347
-0.00024165021
-0.00026212329
-0.00030157619
-0.00035996594
-0.00045971087
-0.00064889075
-0.00092399801
-0.0011744605
-0.0012176391
-0.0010799099
-0.00069747143
-0.00057277059
-0.0011179702
-0.0013732658
-0.0013411909
-0.0010093769
-0.0006660638
-0.00045378769
-0.00035674327
-0.00030337773
-0.00027329326
-0.00025011757
-0.00023897501
-0.00024166915
-0.00024641026
-0.00024829204
-0.00025047557
-0.00027823287
-0.00027374901
-0.00026516748
-0.00025142723
-0.00024344227
-0.00025518285
-0.00028102234
-0.00030421996
-0.00033900258
-0.00042427119
-0.00064305254
-0.0010358265
-0.0014212144
-0.0014009741
-0.00082239149
-3.6748347e-05
0.00052699424
-0.00046819628
-0.0013086191
-0.0013796936
-0.00098776069
-0.00059126583
-0.00038828705
-0.00032717575
-0.00030283302
-0.00028383861
-0.00026178108
-0.00025019201
-0.00026226988
-0.00028151925
-0.00029581243
-0.00030259266
-0.00032710709
-0.00031831814
-0.00030081348
-0.00027542464
-0.0002605727
-0.00026888445
-0.00029143855
-0.00031168836
-0.00032792276
-0.00037741876
-0.00054422154
-0.00090381191
-0.0012441833
-0.0011109333
-0.00015315086
0.0010199768
0.0010620498
6.1034359e-05
-0.00079355053
-0.00099674922
-0.00079597751
-0.00052807359
-0.00039063127
-0.0003414012
-0.00032532598
-0.00030353763
-0.0002788562
-0.00027813157
-0.00029108361
-0.00032219891
-0.00034248459
-0.00034679303
-0.0003634785
-0.00036423014
-0.00034464723
-0.0003150423
-0.00029780809
-0.00029855044
-0.0003213525
-0.00034434337
-0.00036470451
-0.00041247784
-0.0005276855
-0.0007339828
-0.00086888722
-0.00065061784
5.3289677e-05
0.00070850237
0.00033552718
-2.816142e-05
-0.00052615568
-0.00073343482
-0.00065342551
-0.00051601177
-0.00042470522
-0.00038137279
-0.00035324358
-0.00033986561
-0.00032024589
-0.00032166115
-0.0003424093
-0.00037265506
-0.00039105421
-0.0003852173
-0.00040905822
-0.0004199086
-0.00040349415
-0.00037355367
-0.00035123973
-0.00034429913
-0.00035649708
-0.00037230603
-0.00039219246
-0.00042555282
-0.00048439819
-0.00056067299
-0.00059748936
-0.00042406955
-0.00012307701
3.0777741e-05
-0.00012020271
-0.0001551541
-0.00032414021
-0.00045326197
-0.00046168272
-0.00043445886
-0.00040890395
-0.0003914343
-0.00037807292
-0.0003769638
-0.00037279486
-0.00038425388
-0.00040759397
-0.000433433
-0.0004444842
-0.00042946272
-0.00044670875
-0.00046369187
-0.0004551013
-0.00043150244
-0.00040602041
-0.00038917925
-0.00038625514
-0.00038597972
-0.00038967389
-0.00038654884
-0.00038872095
-0.00038768049
-0.00035195274
-0.00025850771
-0.0001805146
-0.00021412348
-0.00027837839
-0.00023266294
-0.00025890671
-0.00031346267
-0.00034975518
-0.00036884854
-0.00037498524
-0.00038290922
-0.00038642791
-0.00039005023
-0.00039617305
-0.00041303704
-0.0004388681
-0.00045858655
-0.00046739608
-0.00045347344
-0.00044936265
-0.0004540551
-0.0004474662
-0.00042986896
-0.00040657036
-0.00039233797
-0.00038537987
-0.00038260283
-0.00038182972
-0.00037914689
-0.00037549775
-0.0003622248
-0.00033948706
-0.00031818283
-0.00031965527
-0.00036542387
-0.00042206639
-0.00039079474
-0.00037724377
-0.00037976966
-0.00038875568
-0.00039340597
-0.00039354766
-0.00038909484
-0.00038684808
-0.00038648084
-0.0003894112
-0.00040255765
-0.0004205791
-0.00043578742
-0.00044389829
-0.00044541062
-0.00045224204
-0.00044966653
-0.00043787968
-0.00042617058
-0.00041153731
-0.00040266783
-0.00039974952
-0.00040390908
-0.00040800079
-0.00040987752
-0.00041165921
-0.00040864009
-0.00040893875
-0.00041336009
-0.00042587065
-0.00045498592
-0.00096162935
-0.00099531554
-0.0016607702
-0.0022791774
-0.0029425879
-0.0036241012
-0.0043397311
-0.005085961
-0.0058697654
-0.0066931506
-0.007560695
-0.0084749776
-0.0094431052
-0.010468991
-0.011555342
-0.012707113
-0.013929741
-0.015228961
-0.016610298
-0.018081187
-0.019648623
-0.021318337
-0.02310009
-0.025003229
-0.027034866
-0.029208463
-0.031536296
-0.034030466
-0.036707578
-0.03958391
-0.042680233
-0.046019399
-0.049630748
-0.05354795
-0.057809254
-0.06246497
-0.067572127
-0.073205196
-0.079451407
-0.086423475
-0.094257429
-0.10312258
-0.11323489
-0.12484418
0.013056006
0.018123677
0.021989337
0.024843944
0.026863327
0.028185475
0.028956281
0.029272955
0.029165523
0.028764082
0.028137587
0.027330898
0.026387986
0.025346214
0.02423522
0.023079185
0.02189767
0.020708246
0.019522857
0.018348949
0.017194729
0.016065927
0.014966496
0.013899094
0.012865283
0.011865699
0.010900298
0.0099683181
0.0090687462
0.0081996153
0.007359554
0.0065449895
0.0057553359
0.004984371
0.0042381093
0.0035074375
0.0028149336
0.0021421802
0.0015286658
0.00090143098
0.00090347392
0.0015300698
0.0021433589
0.0028160434
0.0035096121
0.0042376752
0.0049847475
0.0057556528
0.0065470456
0.0073634079
0.0082058438
0.0090774716
0.0099799272
0.010915134
0.011884285
0.012888208
0.013927076
0.015000392
0.016106762
0.017243725
0.018407541
0.019592818
0.02079199
0.021996874
0.023196371
0.024374242
0.025510877
0.026582865
0.027561299
0.02840986
0.029084928
0.029540299
0.02971794
0.029513816
0.028818456
0.027590391
0.025689892
0.022975118
0.019271598
0.014389683
0.01726908
0.021752713
0.025107382
0.027520746
0.029160483
0.030160897
0.030645004
0.030671593
0.030345905
0.029765209
0.028984257
0.028046923
0.026993312
0.025857148
0.024665664
0.023441378
0.022203169
0.020964864
0.019736731
0.01852724
0.017342956
0.016188612
0.015067468
0.01398158
0.012931978
0.011918864
0.010941818
0.0099998575
0.0090915326
0.0082149638
0.0073681087
0.0065481512
0.0057531811
0.0049797083
0.004229242
0.0034988841
0.0028013607
0.0021292051
0.0015143849
0.00089772858
0.00090405744
0.001499
0.0021122321
0.0027839613
0.0034854354
0.0042191239
0.0049744406
0.0057522704
0.0065525768
0.0073782391
0.0082319176
0.0091163222
0.010033905
0.010986577
0.011976083
0.013003739
0.014070348
0.015176195
0.016320823
0.017502815
0.018719634
0.019967533
0.021241093
0.022533029
0.023833954
0.02513204
0.026410891
0.027650771
0.028827397
0.02991075
0.030864159
0.031646173
0.032202263
0.032444773
0.03229075
0.031662944
0.030449921
0.028525285
0.025731314
0.021886757
0.028310846
0.031250039
0.033251867
0.034487125
0.035101168
0.035211609
0.034920144
0.034301782
0.03342875
0.032373678
0.031185662
0.029902617
0.028556687
0.027173532
0.025773522
0.024373019
0.022984901
0.021619101
0.020283397
0.018982735
0.017721116
0.01650113
0.015324232
0.014191009
0.013101092
0.012053559
0.011047086
0.010079908
0.0091498643
0.0082546581
0.0073916382
0.00655787
0.0057505276
0.0049663619
0.004205515
0.0034669421
0.0027609834
0.0020860084
0.0014691652
0.00086765644
0.00084948506
0.0014424253
0.0020561792
0.0027340336
0.0034447811
0.004190195
0.0049578795
0.0057501494
0.0065658797
0.0074094923
0.0082836829
0.009192042
0.010137388
0.011122482
0.012149867
0.013221878
0.014340398
0.015507334
0.016723983
0.017990901
0.01930796
0.020674151
0.02208736
0.02354405
0.025039873
0.026567767
0.028118354
0.029679331
0.031234981
0.032765013
0.034243539
0.035638794
0.036909832
0.038001574
0.03885068
0.039389919
0.039531909
0.039171854
0.03817991
0.036400504
0.045866854
0.046262365
0.046056285
0.045383274
0.044351793
0.043052119
0.041554548
0.039914804
0.038179807
0.036390065
0.034576281
0.032761826
0.03096501
0.029199911
0.027476919
0.025802927
0.024183246
0.022621287
0.021119227
0.019678055
0.018297601
0.01697703
0.015714998
0.014509572
0.013358337
0.01225847
0.011207352
0.010201879
0.0092392809
0.0083160352
0.0074292261
0.0065742809
0.005748783
0.0049471439
0.0041714996
0.0034181165
0.0027016096
0.0020176678
0.0014060469
0.00080610827
0.00078333406
0.0013741568
0.0019809239
0.0026683377
0.0033905014
0.0041509542
0.0049349981
0.0057459154
0.0065816768
0.0074485276
0.0083490697
0.0092881984
0.01026925
0.011296338
0.012372882
0.013502635
0.014688898
0.015935831
0.017246971
0.018625644
0.020074678
0.021597088
0.023195458
0.024871473
0.026625993
0.02845957
0.030371461
0.032359476
0.034419344
0.036544665
0.038725683
0.040948661
0.04319538
0.045441026
0.047654134
0.049795494
0.051814284
0.05364526
0.055203293
0.056380318
0.067652455
0.06475241
0.061723601
0.058640373
0.055557514
0.052513827
0.049536807
0.046645714
0.043853725
0.041170099
0.038600035
0.03614631
0.033809108
0.031586827
0.029477267
0.02747684
0.02558139
0.023786375
0.02208767
0.020480556
0.018960073
0.017521229
0.016159304
0.014869388
0.013646751
0.012486306
0.011383782
0.010334605
0.0093347931
0.0083798119
0.0074657629
0.0065869691
0.0057406182
0.0049208512
0.0041283933
0.0033610173
0.0026326006
0.0019436759
0.0013418086
0.00075781165
0.00073771936
0.0013099808
0.001909412
0.0025983558
0.003331812
0.0041049706
0.0049055011
0.0057331995
0.0065894007
0.0074795802
0.0084074912
0.0093783673
0.010396664
0.011467618
0.012596002
0.013786628
0.015045291
0.016378022
0.017790953
0.019290305
0.020882828
0.022575753
0.024376708
0.02629306
0.028332511
0.030502936
0.032813674
0.035274943
0.037895838
0.040686417
0.043656796
0.046815319
0.050171726
0.053733118
0.057505971
0.061493498
0.065694924
0.070102208
0.074696007
0.079443538
0.091472463
0.084788796
0.078569205
0.072796913
0.067449254
0.062499653
0.057919427
0.053680635
0.049755512
0.046119797
0.04274813
0.039620775
0.0367157
0.034014637
0.031504114
0.02916649
0.026985442
0.024949647
0.023048518
0.021271751
0.019608755
0.018050104
0.016587519
0.015213097
0.013919507
0.012699215
0.011545997
0.010454199
0.0094181683
0.0084323107
0.0074919385
0.0065915193
0.0057263288
0.0048906829
0.0040831642
0.0033047418
0.0025668485
0.0018773721
0.0012776883
0.0007117292
0.00069857487
0.001255115
0.0018563616
0.00254538
0.0032858153
0.0040680724
0.0048807559
0.0057227169
0.0065957866
0.007505646
0.0084577961
0.0094577894
0.010510303
0.011621831
0.012798548
0.014046997
0.015373928
0.016787612
0.018296755
0.019911185
0.021640813
0.023497503
0.025496132
0.027651362
0.029978733
0.032487283
0.03518953
0.038116069
0.041293739
0.044748335
0.048513788
0.052619223
0.057105588
0.062014856
0.067396915
0.073305758
0.079801502
0.08695013
0.094819779
0.10348282
0.11499079
0.1043798
0.094903631
0.086424809
0.07882512
0.072000285
0.065857062
0.060314275
0.055299961
0.050753161
0.046618356
0.042850782
0.039405455
0.036259178
0.033407445
0.030773342
0.028310615
0.026036138
0.023939813
0.022003363
0.020210119
0.018541919
0.016988001
0.015537242
0.014179993
0.012906897
0.011709818
0.010580571
0.0095126721
0.0084997177
0.0075373226
0.0066188838
0.0057388744
0.0048914921
0.0040744617
0.0032887831
0.0025441359
0.0018510368
0.0012367098
0.00067063572
0.00073023176
0.0012804471
0.0019023967
0.0025907845
0.0033348983
0.0041196357
0.004938562
0.0057876194
0.0066707389
0.0075940208
0.0085652936
0.0095897783
0.010671825
0.011817992
0.013036311
0.014334316
0.015719728
0.017203512
0.018798208
0.020514915
0.022365175
0.024365892
0.026533758
0.028887897
0.031446036
0.034226974
0.037269986
0.040616334
0.044292393
0.048341847
0.052811747
0.057762203
0.063259836
0.069384518
0.076228411
0.083897043
0.092516749
0.10223412
0.11321528
0.12566246
0.13458093
0.12057768
0.10833569
0.097588531
0.088124016
0.079758907
0.072339752
0.065738616
0.059845502
0.054565946
0.049821393
0.045544545
0.041678141
0.038172716
0.034990044
0.032089978
0.02943715
0.02700549
0.024773142
0.022717446
0.020819168
0.019062484
0.017434101
0.015921162
0.014511056
0.013192907
0.011958998
0.010800467
0.0097095346
0.0086790676
0.0077023056
0.0067731086
0.0058837045
0.0050296384
0.0042071805
0.0034197569
0.0026710926
0.0019754934
0.0013362466
0.00077436863
0.0008461752
0.0014383712
0.0020907551
0.0027952432
0.0035453408
0.0043347281
0.0051583548
0.0060162206
0.0069111153
0.0078480854
0.0088336328
0.0098737776
0.010975446
0.012145961
0.013393619
0.014727198
0.016155912
0.017691454
0.019346498
0.02113453
0.023070287
0.025171448
0.027457875
0.029952186
0.032679285
0.03567008
0.038960128
0.042590452
0.046605797
0.051060905
0.056019642
0.061556068
0.067757818
0.074730287
0.082598254
0.091509988
0.10163837
0.11319923
0.12644037
0.14168037
-0.19329232
-0.17531764
-0.15900242
-0.14422239
-0.13084993
-0.1187642
-0.10784912
-0.09799503
-0.089099548
-0.081068258
-0.073814252
-0.067258437
-0.06132903
-0.055960818
-0.051095218
-0.04667976
-0.042667352
-0.039016007
-0.035687964
-0.032649692
-0.029871144
-0.027325589
-0.024989237
-0.022841069
-0.020861719
-0.019034355
-0.017343428
-0.015775315
-0.014317781
-0.012959398
-0.011689766
-0.010500072
-0.009381027
-0.0083253589
-0.007323925
-0.0063712131
-0.0054581322
-0.0045861201
-0.0037464342
-0.0029621717
-0.0022096835
-0.001568546
-0.00088289999
-0.00087061079
-0.00084921593
-0.0008134776
-0.00079963251
-0.00077091411
-0.00075476899
-0.00072700118
-0.00069926987
-0.00066758561
-0.00063687898
-0.00060429334
-0.00056925956
-0.00053220351
-0.0004931798
-0.00044864695
-0.00039850712
-0.00034293733
-0.00028341692
-0.00022062437
-0.00015138986
-8.2068938e-05
-1.1192978e-05
6.0358487e-05
0.00013098779
0.00020178092
0.00027083204
0.00033750489
0.00040189555
0.00046328564
0.00052083923
0.00057450857
0.00062447484
0.00067101535
0.00071310436
0.0007506677
0.0007804843
0.00080808558
0.00082324012
0.00084881873
0.00086018665
0.00088353642
0.00089217546
0.0015294314
0.0015121564
0.0014872308
0.0014593529
0.0014218317
0.0013805199
0.0013299744
0.001273121
0.0012089184
0.0011381326
0.0010603532
0.00097601427
0.00088540798
0.0007884264
0.00068531861
0.00057694348
0.00046373368
0.00034572368
0.00022449481
0.00010185394
-2.19815e-05
-0.00014460872
-0.00026578796
-0.00038593496
-0.00049693165
-0.00060286204
-0.00070182014
-0.00079214985
-0.00087409224
-0.0009467021
-0.001015453
-0.0010792714
-0.0011385202
-0.0011955397
-0.0012507449
-0.0013038121
-0.0013553516
-0.0013987632
-0.0014419407
-0.0014755255
-0.0015124287
-0.001542939
-0.0021866577
-0.0021529526
-0.0021072182
-0.0020600426
-0.0020016029
-0.0019391547
-0.0018671352
-0.0017935594
-0.0017156632
-0.0016337124
-0.0015476579
-0.0014558038
-0.001356487
-0.0012514094
-0.0011330295
-0.0010039064
-0.0008637835
-0.00071236782
-0.00055486384
-0.00038631373
-0.00021456293
-4.0487747e-05
0.00013453183
0.00030772918
0.00047714144
0.00064293875
0.0008014849
0.00095329603
0.0010972398
0.0012332165
0.0013600131
0.0014781855
0.001586914
0.0016860581
0.001775634
0.0018552403
0.0019254182
0.0019853422
0.0020371783
0.0020785634
0.0021125136
0.0021369863
0.0028085546
0.0027820972
0.0027416299
0.0026881503
0.0026206777
0.0025395954
0.0024452852
0.0023384973
0.0022193468
0.002087506
0.0019433733
0.0017867791
0.0016187866
0.0014387722
0.0012484379
0.0010477828
0.00083768977
0.00061945658
0.00039554362
0.00016809977
-6.1567288e-05
-0.00029174718
-0.00051821714
-0.00073928506
-0.00094893076
-0.0011502417
-0.0013371049
-0.001510305
-0.0016699529
-0.0018126432
-0.0019477201
-0.0020725129
-0.002189356
-0.002301805
-0.0024068795
-0.0025062391
-0.0026022988
-0.0026883391
-0.0027660192
-0.0028309217
-0.0028886928
-0.0029310853
-0.0037115905
-0.0036639518
-0.0035954543
-0.0035143903
-0.0034167992
-0.0033077554
-0.0031869554
-0.0030605063
-0.0029251567
-0.0027799633
-0.0026295151
-0.0024687702
-0.0022937228
-0.0021089487
-0.0019056596
-0.0016851007
-0.0014487768
-0.0011954331
-0.00093169195
-0.00065516682
-0.00037335757
-8.5378833e-05
0.00020111747
0.00048421779
0.00076280108
0.0010345372
0.0012966192
0.0015472501
0.0017853443
0.0020111397
0.0022223794
0.0024192583
0.0026008307
0.0027670499
0.0029175152
0.0030520547
0.0031706719
0.0032723309
0.0033559569
0.0034213506
0.0034694143
0.0034992497
0.0042246403
0.0041915628
0.0041356582
0.0040575661
0.0039563926
0.0038327957
0.0036881419
0.0035241415
0.0033408541
0.0031385743
0.0029178251
0.0026785631
0.0024220738
0.0021484716
0.0018598521
0.0015563195
0.0012397015
0.00091261513
0.00057649507
0.00023465106
-0.00011057777
-0.00045653003
-0.00079715184
-0.0011305272
-0.0014513803
-0.0017590149
-0.0020479008
-0.0023178527
-0.00256885
-0.0027993469
-0.0030157531
-0.0032166526
-0.0034047945
-0.0035843325
-0.0037525837
-0.0039100269
-0.0040585905
-0.0041921777
-0.0043107197
-0.004408496
-0.0044886575
-0.004542758
-0.0054088882
-0.0053475861
-0.0052555592
-0.0051409781
-0.0050012016
-0.0048424261
-0.0046646863
-0.004475027
-0.0042719805
-0.0040556607
-0.0038275936
-0.003584205
-0.0033237357
-0.003045518
-0.0027440486
-0.002422056
-0.0020789178
-0.0017142229
-0.0013356019
-0.00094231194
-0.0005418289
-0.00013596412
0.00026942762
0.00067082144
0.0010654242
0.0014497336
0.0018212534
0.0021783499
0.0025180557
0.0028403671
0.003142873
0.0034251779
0.0036859037
0.003925006
0.0041416702
0.0043358811
0.0045069407
0.0046529037
0.004772219
0.0048638138
0.0049287162
0.0049671734
0.0057336214
0.0056894983
0.0056151895
0.0055094928
0.0053711877
0.0052017969
0.0050033865
0.0047779998
0.0045267351
0.0042495269
0.0039477738
0.0036214059
0.0032715636
0.0028992259
0.0025067103
0.0020948086
0.0016662583
0.0012234286
0.00076812859
0.00030608604
-0.00016125184
-0.00062878182
-0.0010922018
-0.0015462675
-0.0019855965
-0.0024090433
-0.0028094558
-0.0031855762
-0.0035396132
-0.0038683438
-0.0041755658
-0.0044639316
-0.0047339771
-0.0049900452
-0.0052297937
-0.0054541106
-0.005662355
-0.0058490745
-0.0060108466
-0.0061428913
-0.0062471776
-0.0063159865
-0.0072640419
-0.0071875036
-0.0070699122
-0.0069198971
-0.0067344116
-0.0065193365
-0.0062791563
-0.0060195106
-0.0057402922
-0.0054424538
-0.0051280486
-0.0047930795
-0.0044346615
-0.004051747
-0.0036431169
-0.003210682
-0.0027510222
-0.0022657061
-0.0017639401
-0.001247144
-0.00071917785
-0.00018665817
0.00034422961
0.00086972346
0.0013862001
0.0018894017
0.002376005
0.0028442077
0.0032904302
0.0037139064
0.0041119401
0.0044836128
0.0048273809
0.0051432376
0.0054297234
0.0056868132
0.0059131506
0.006106377
0.0062641546
0.0063845424
0.006469256
0.0065200043
0.0073313872
0.0072739744
0.0071784533
0.0070428021
0.0068648352
0.006646912
0.0063918868
0.0061021681
0.0057793696
0.0054237817
0.0050366959
0.0046184714
0.0041706924
0.0036946638
0.0031927833
0.002666749
0.0021196929
0.0015547995
0.00097422021
0.00038371573
-0.0002133991
-0.00081276663
-0.0014068324
-0.0019898869
-0.0025574336
-0.0031058791
-0.0036282348
-0.004122148
-0.0045886838
-0.0050276523
-0.0054386673
-0.0058241037
-0.0061860656
-0.0065272629
-0.0068480336
-0.0071468833
-0.007421024
-0.0076654275
-0.0078756371
-0.0080446474
-0.0081763411
-0.0082610229
-0.0093123768
-0.0092192924
-0.0090724688
-0.0088838114
-0.0086468948
-0.008372061
-0.0080615051
-0.0077213428
-0.007356404
-0.0069689503
-0.006556444
-0.0061175029
-0.0056502114
-0.0051517943
-0.0046238216
-0.0040650481
-0.0034770067
-0.0028619706
-0.0022256529
-0.0015735606
-0.00091092921
-0.0002417697
0.00042392032
0.0010822479
0.001728956
0.0023581509
0.0029671871
0.0035530894
0.0041120739
0.0046425554
0.0051414353
0.0056076098
0.0060392251
0.0064357134
0.0067956437
0.0071188407
0.007403393
0.0076466587
0.0078454686
0.0079969668
0.0081039326
0.0081683331
0.0090341789
0.0089627006
0.0088440506
0.0086760474
0.0084558009
0.0081862359
0.0078711453
0.0075135606
0.0071151237
0.0066763215
0.0061986253
0.0056829079
0.0051309744
0.0045443784
0.0039260014
0.0032783058
0.0026046518
0.0019081555
0.001192936
0.00046494689
-0.00027237087
-0.0010137431
-0.0017492972
-0.002473321
-0.0031819524
-0.0038674937
-0.0045252571
-0.0051518279
-0.0057453542
-0.0063068722
-0.0068343066
-0.0073305534
-0.0077968932
-0.0082348768
-0.0086460751
-0.0090291809
-0.0093786877
-0.0096872842
-0.0099519424
-0.010162242
-0.01032412
-0.010426865
-0.011611748
-0.011499121
-0.011320647
-0.011087796
-0.010793085
-0.010448394
-0.010057353
-0.0096291899
-0.0091672808
-0.0086754765
-0.0081508561
-0.0075933267
-0.0070025893
-0.0063745734
-0.005710663
-0.0050117772
-0.0042804001
-0.003518914
-0.0027350082
-0.0019352408
-0.0011241768
-0.00030713937
0.00050515662
0.0013067263
0.0020929718
0.0028592385
0.0035998853
0.0043122475
0.0049918011
0.005636749
0.0062435415
0.0068106134
0.0073359655
0.0078184735
0.0082567557
0.0086499023
0.0089964253
0.0092930993
0.0095355281
0.0097207579
0.0098514572
0.009930345
0.010858771
0.010772316
0.010629187
0.01042603
0.010160632
0.0098359699
0.0094570114
0.009026927
0.0085473597
0.0080195068
0.0074446804
0.0068243485
0.0061604479
0.0054550757
0.0047114716
0.0039323272
0.0031213886
0.0022828127
0.0014217237
0.0005438987
-0.00034692016
-0.0012428641
-0.0021341272
-0.0030149131
-0.0038785643
-0.0047192772
-0.005528522
-0.0063037634
-0.0070421194
-0.007740123
-0.0083995885
-0.0090231895
-0.0096100468
-0.010160703
-0.010676334
-0.011153769
-0.011588632
-0.01197268
-0.012298882
-0.012556906
-0.012752323
-0.012876093
-0.014228805
-0.014093449
-0.013879646
-0.013594923
-0.013234296
-0.01280845
-0.012325687
-0.011795654
-0.011221396
-0.010608121
-0.0099541784
-0.0092604331
-0.0085262856
-0.007752164
-0.0069353111
-0.0060787169
-0.0051874504
-0.0042622751
-0.0033143916
-0.0023480882
-0.0013725654
-0.00039369688