/*--------------------------------*- C++ -*----------------------------------*\
| =========                 |                                                 |
| \\      /  F ield         | OpenFOAM: The Open Source CFD Toolbox           |
|  \\    /   O peration     | Version:  v2012                                 |
|   \\  /    A nd           | Website:  www.openfoam.com                      |
|    \\/     M anipulation  |                                                 |
\*---------------------------------------------------------------------------*/
FoamFile
{
    version     2.0;
    format      ascii;
    class       volScalarField;
    location    "100";
    object      omega;
}
// * * * * * * * * * * * * * * * * * * * * * * * * * * * * * * * * * * * * * //

dimensions      [0 0 -1 0 0 0 0];


internalField   nonuniform List<scalar> 
231880
(
42.878009
42.406294
41.944609
41.49258
41.04985
40.616075
40.190909
39.774017
39.365062
38.96371
38.569621
38.182449
37.80184
37.427437
37.058869
36.695755
36.33771
35.984336
35.635224
35.289977
34.948194
34.609477
34.273441
33.939713
33.607949
33.277835
32.949087
32.621465
32.294777
31.968893
31.643736
31.319284
30.995587
30.672769
30.351014
30.03057
29.711754
29.394946
29.080573
28.769113
28.461085
28.157043
27.857557
27.563209
27.274586
26.992264
26.716801
26.448725
26.188526
25.936648
25.693483
25.459364
25.234563
25.019285
24.813666
24.617773
24.431592
24.255035
24.087874
23.929907
23.780663
23.641463
23.511138
23.395748
23.290774
23.204482
23.130608
23.074011
23.371868
22.613406
22.455728
22.426196
22.363062
22.363578
22.315441
22.279594
22.226016
22.255306
22.313202
22.344123
22.368991
22.364741
22.325139
22.276925
22.301854
22.27623
22.251126
22.330029
22.309258
22.345585
22.338792
22.386183
22.384005
22.31893
22.26695
22.346972
22.302933
22.283444
22.29003
22.320431
22.375614
22.580473
22.452823
22.379572
22.392984
22.407336
22.351418
22.304876
22.262281
22.226301
22.175776
21.20487
22.110465
21.201209
22.140705
21.213396
22.161948
21.210797
22.207986
21.225989
22.203124
21.223115
22.20647
21.288474
22.166372
21.357615
22.264934
22.475738
22.487706
22.653855
22.559324
21.970258
22.357426
21.427688
22.241131
21.245819
22.217534
21.208142
22.221845
21.19398
22.226869
21.181536
22.241013
21.181729
22.243851
21.192184
22.240598
21.207225
22.207608
21.205576
22.20206
21.236334
22.298969
22.451169
22.636621
23.433572
23.699572
22.335206
23.70202
23.769275
23.781294
23.774301
23.778735
23.7773
23.773701
23.77095
23.782411
23.775255
23.766445
23.774899
23.773361
23.783596
23.778223
23.771613
23.780922
23.77216
23.778301
23.782877
23.781607
23.777946
23.777704
23.787085
23.782039
23.788462
23.778305
23.790665
23.780815
23.785958
23.78056
23.773674
23.778055
23.784891
23.670772
22.267177
23.676565
23.763946
23.725577
23.764263
23.719843
23.770823
23.744608
23.762062
23.736448
23.772563
23.739833
23.735479
23.736759
23.760521
23.718024
23.752035
23.724267
23.754751
23.733805
23.755579
23.730434
23.777117
23.736433
23.771064
23.738852
23.782233
23.740827
23.743145
23.729377
23.758045
23.718112
23.745238
23.720252
23.746812
23.718677
23.742845
23.718252
23.757849
23.730665
23.753935
23.735924
23.758968
23.723643
23.723725
23.725333
23.723094
23.722731
23.713583
23.727142
23.711532
23.690325
23.667652
23.687453
23.707154
23.694021
23.693584
23.68504
23.699969
23.676497
23.686904
23.68359
23.70592
23.686987
23.693789
23.679066
23.701542
23.679394
23.67801
23.673109
23.683619
23.674583
23.679566
23.674994
23.671148
23.670834
23.662488
23.688454
23.692545
23.675947
23.683299
23.668732
23.674761
23.654239
23.664854
23.67249
23.658504
23.670785
23.57535
22.231806
23.51614
22.196291
23.545104
22.197042
23.60032
22.202584
23.621461
22.21587
23.63821
22.219404
23.60751
22.216262
23.638373
22.229291
23.6293
22.217958
23.61597
22.229739
23.610385
22.229485
23.620116
22.229015
23.628127
22.226837
23.612781
22.224791
23.611885
22.221496
23.605513
22.26237
23.605614
22.310835
23.575791
22.362761
23.55683
22.640095
23.236517
22.565978
22.969128
22.890238
22.864189
23.028127
23.043098
22.729019
22.799209
22.663483
22.882119
22.815266
22.84623
22.947787
22.852645
22.750005
22.840607
22.582928
22.801718
22.566761
22.653224
22.751125
22.827048
22.839638
22.73682
22.338994
22.919932
22.967079
22.966036
22.715776
22.789655
22.714299
22.734714
22.265734
22.155456
22.099438
22.449341
22.107847
21.67945
21.802916
22.183131
21.997742
21.974696
21.884605
22.254902
22.390498
21.830846
21.916773
22.157052
22.219908
22.105708
22.059215
21.915168
22.238879
21.810976
21.93877
22.14084
22.081727
22.126762
22.002475
22.150842
22.303713
21.872052
22.015508
22.075945
21.885065
22.2388
21.995478
22.240037
22.426378
21.942733
22.66588
22.192835
21.888952
21.966671
21.849848
21.555806
21.692363
22.105359
22.097328
21.864726
21.710709
21.858087
21.748425
21.658092
21.720749
21.933577
21.999202
21.900683
21.638216
21.7371
21.687158
21.761788
21.713193
21.894076
22.027222
21.843767
21.61729
21.907527
21.886466
21.830701
21.636479
22.009905
21.995425
21.789165
21.712896
21.994612
22.391835
22.473944
22.222489
21.863112
21.713788
21.935208
21.709873
21.653101
21.712145
21.90683
21.856618
21.65171
21.767086
21.974005
21.947096
21.885442
21.743076
21.580615
21.835848
21.713251
21.813658
21.883522
21.710795
21.846806
21.802425
21.818195
21.900575
21.740457
21.695741
21.866609
21.67848
21.794306
21.566879
21.649416
22.007863
21.82772
22.300674
22.028449
21.622826
21.887303
21.66582
21.762522
21.909981
21.898372
21.755936
21.824949
21.778048
21.888079
21.788441
21.675947
21.688104
21.815199
21.938537
21.838748
21.631765
21.8224
21.592989
21.652827
21.738716
21.943565
21.778655
21.771913
21.643586
21.953379
21.740669
21.876825
21.72585
21.806471
21.827481
21.780997
21.637228
22.162102
22.448427
22.268026
22.140841
21.762587
21.748929
21.88514
21.839179
21.838557
21.807685
21.889165
22.033761
21.635556
21.713814
21.846637
21.84216
21.656952
21.785086
21.525281
21.748263
21.622091
21.820121
22.018779
21.839147
21.787848
21.734605
21.80029
22.067079
21.713237
21.767122
21.671051
21.717721
21.976312
21.657739
21.785152
21.809358
21.792101
22.2666
22.272854
21.690906
21.825444
21.888072
21.611819
21.674823
21.915938
21.783531
21.78395
21.721913
21.873432
21.734149
21.643794
21.610433
21.836014
22.049551
22.011435
21.748216
21.729714
21.768444
21.713134
21.621558
21.792705
21.783981
21.751957
21.672163
21.906929
21.676683
21.701239
21.662464
21.79472
21.851239
21.775282
21.684433
22.132516
22.558667
22.377148
22.122297
21.754128
21.735232
21.897739
21.827252
21.795785
21.71583
21.802661
21.910589
21.843988
21.778036
21.883384
21.791007
21.69086
21.706351
21.652491
21.761812
21.736849
21.703995
21.918799
21.779222
21.791455
21.738078
21.705
21.859228
21.819793
21.75319
21.764613
21.651081
21.693764
21.627391
21.833172
21.66631
21.66883
22.206709
21.987372
21.552661
21.870064
21.879898
21.82848
21.871912
21.630453
21.740064
21.683157
21.43381
21.926077
21.884555
21.826508
21.812364
21.834099
21.857091
21.755594
21.551276
21.707616
21.577922
21.758328
21.728578
21.908827
21.935597
21.773323
21.696352
21.862028
21.645781
21.607702
21.599609
21.75596
21.765831
21.54538
21.436191
22.175171
22.630734
22.41984
22.110102
21.61001
21.64255
21.855325
21.879224
21.816722
21.843048
21.810331
21.988425
21.627198
21.831765
21.914063
21.786908
21.85174
21.670475
21.664032
21.605337
21.657934
21.831644
21.784079
21.707226
21.802408
21.614607
21.934775
21.890269
21.563833
21.751929
21.933292
21.892766
21.685859
21.672276
21.709704
21.883867
21.680525
22.136743
22.045673
21.624692
21.816546
21.695898
21.741754
21.544447
21.756759
21.706148
21.758686
21.570181
21.901889
21.930552
21.667402
21.742127
21.922623
21.876529
21.823235
21.855848
21.689396
21.707532
21.544486
21.768724
21.974719
21.950532
21.905299
21.811245
21.823559
21.729126
21.82937
21.603854
21.763387
21.69436
21.690978
21.705789
22.161587
22.686672
22.523967
22.142214
21.648772
21.592955
21.774736
21.730759
21.750398
21.700928
21.879283
21.945699
21.751761
21.706999
21.83749
21.714047
21.655739
21.645944
21.697534
21.716348
21.727159
21.745723
21.822782
21.509245
21.651716
21.541782
21.941557
21.809231
21.65423
21.639279
21.678936
21.787907
21.580393
21.672066
21.839827
21.87678
21.698883
22.177721
22.13568
21.470072
21.902759
21.738024
21.603603
21.437067
21.736223
21.664367
21.700303
21.652186
21.761766
21.795209
21.810644
21.824777
21.778314
21.84772
21.962682
21.57658
21.766198
21.701534
21.801661
21.536337
21.907825
21.934924
21.659675
21.659162
21.855026
21.830104
21.750391
21.628285
21.868233
21.774445
21.706123
21.603276
22.179256
22.328652
22.33312
22.200028
21.876508
21.767899
21.713987
21.707756
21.623892
21.627169
21.908755
21.989911
21.760438
21.788189
21.905971
21.952359
21.607677
21.617116
21.83082
21.675795
21.606779
21.825916
22.005546
21.924508
21.868441
21.719658
21.921368
21.974486
21.828772
21.853682
21.721256
21.874287
21.519667
21.507007
21.737384
22.056553
21.632362
22.145062
22.274527
21.751344
21.908594
21.829637
21.832404
21.587179
21.770902
21.818567
21.708478
21.720814
21.822418
21.968023
21.627283
21.656053
21.829405
21.837333
21.909147
21.831252
21.791956
21.758869
21.747087
21.740271
21.91319
21.931826
21.740993
21.635427
21.951166
21.819085
21.862255
21.70357
21.83783
21.907449
21.768449
21.707306
22.067845
22.447551
22.382229
22.12266
21.910024
21.709916
21.677387
21.706869
21.699225
21.687094
21.932222
21.907529
21.683242
21.57589
21.929194
21.850942
21.643675
21.639824
21.879548
21.799711
21.702507
21.792965
21.739078
21.789417
21.713805
21.626848
21.874241
21.922545
21.840134
21.853723
21.803694
21.772556
21.634772
21.766781
21.893682
21.935013
21.641972
22.144092
22.241303
21.687877
21.774465
21.664317
21.838339
21.771747
21.879185
21.584664
21.613745
21.502761
21.858745
21.772704
21.761986
21.609578
21.745996
21.782689
21.861169
21.739796
21.855119
21.828
21.851875
21.77678
21.844986
21.686204
21.587006
21.670363
21.904305
21.858198
21.931263
21.946801
21.80093
21.855497
21.821569
21.859594
22.124656
22.525646
22.390856
22.173431
21.834958
21.771153
21.876608
21.756803
21.791769
21.741127
21.903583
21.943371
21.713176
21.786918
21.773858
21.827987
21.877981
21.679112
21.910929
21.847865
21.730924
21.738977
21.793878
21.857372
21.74545
21.764333
21.853416
21.881326
21.757387
21.780794
21.765059
21.963468
21.798557
21.862809
21.713007
21.708802
21.649354
22.254166
22.21356
21.75115
21.88741
21.859041
21.860273
21.858872
21.964385
21.695425
21.578029
21.552791
21.78968
21.652773
21.725178
21.686297
21.68293
21.53983
21.632215
21.694827
21.797025
21.79911
21.92009
21.873165
21.885784
21.852399
21.68636
21.601135
21.759274
21.794766
21.833714
21.781709
21.852148
22.002084
21.824403
21.630692
22.138711
22.544598
22.347081
22.129733
21.794299
21.771569
21.940984
21.754222
21.794496
21.841229
21.796489
21.704524
21.680739
21.817264
21.906306
21.823557
21.7774
21.622893
21.748806
21.588597
21.891394
21.895217
21.671245
21.770476
21.804178
21.659219
21.660659
21.872626
21.771433
21.803589
21.907793
21.905203
21.879394
21.827526
21.95006
21.840736
21.639188
22.280115
22.058692
21.537078
21.865672
21.877733
21.874354
21.894054
21.754228
21.931481
21.986675
21.681809
21.889567
21.621781
21.82985
21.537051
21.658609
21.570975
21.672905
21.549286
21.807294
21.708825
21.841881
21.776041
22.067169
21.742891
21.859587
21.701666
21.619902
21.662738
21.708095
21.764805
21.765843
21.708135
21.622628
21.675999
22.038871
22.461037
22.410818
22.138748
21.76825
21.768556
21.773319
21.740188
21.784697
21.865011
21.660388
21.936092
21.862514
21.875115
21.706637
21.878155
21.800452
21.545589
21.628488
21.73678
21.764492
21.95111
21.776338
21.842344
21.747047
21.864512
21.702563
21.904201
21.592294
21.618792
21.969088
21.873027
21.859737
21.675765
21.82236
21.655801
21.594977
22.194095
22.082384
21.566591
21.839733
21.852396
21.808802
21.89309
21.875027
21.809766
21.780896
21.704858
21.898634
21.748832
21.633099
21.596709
21.653666
21.833374
21.75364
21.620593
21.865154
21.675916
21.750797
21.842765
21.782987
21.918335
21.944948
21.773678
21.813214
21.5824
21.617222
21.640752
21.859051
21.834681
21.651504
21.522248
22.155569
22.694709
22.403852
22.059714
21.61616
21.730339
21.8604
21.853813
21.753545
21.726494
21.711026
21.782244
21.704201
21.760198
21.891399
21.922341
21.898221
21.900527
21.669647
21.814694
21.696903
21.780253
21.9251
21.794661
21.802931
21.883878
21.807784
21.843768
21.699449
21.68829
21.775937
21.619608
21.782839
21.669032
21.86441
21.800023
21.70757
22.178525
22.139654
21.674331
21.833902
21.816781
21.679821
21.71298
21.855563
21.76737
21.670901
21.627647
21.818695
21.752893
21.6719
21.85206
21.839912
21.806722
21.850268
21.625426
21.891452
21.758782
21.681146
21.578989
21.838214
21.849712
21.621973
21.702048
21.752486
21.680041
21.857092
21.678458
21.884312
21.70566
21.462607
21.499636
22.034104
22.58435
22.490652
22.047847
21.618692
21.683926
21.872714
21.89038
21.770472
21.76503
21.731479
21.78263
21.707723
21.787385
21.962208
21.931335
21.675973
21.779391
21.829673
21.846975
21.710527
21.81212
21.902324
21.721283
21.744969
21.772711
21.833685
21.764522
21.706067
21.649736
21.685252
21.742485
21.599059
21.606174
21.85154
21.868699
21.635133
22.070472
21.883457
21.475931
21.838743
21.720098
21.667857
21.657897
21.914228
21.850588
21.797168
21.660071
21.776442
21.858923
21.738824
21.743621
21.835271
21.8392
21.738566
21.703413
21.907851
21.909762
21.762512
21.480566
21.827847
21.771732
21.819334
21.580649
21.837242
21.675141
21.760809
21.69259
21.835868
21.759867
21.46467
21.461492
22.206251
22.697788
22.427982
22.007724
21.567283
21.653716
21.853052
21.853441
21.844976
21.86037
21.822543
21.887523
21.523056
21.595458
21.983606
21.887642
21.550715
21.709476
21.722402
21.971896
21.784355
21.800789
21.933706
21.713948
21.784899
21.774681
21.758156
21.730452
21.618455
21.669204
21.732466
21.736582
21.655013
21.697889
21.699605
21.722539
21.655696
22.111926
21.991985
21.469878
21.829545
21.621329
21.743832
21.861559
21.886806
21.656435
21.682482
21.707941
21.613663
21.86507
21.808966
21.729406
21.701971
21.907925
21.703456
21.476319
21.970804
21.653434
21.795862
21.732774
21.905337
21.682377
21.826527
21.908754
21.95124
21.891425
21.72913
21.825432
21.849241
21.964796
21.839148
21.59999
22.318049
22.461763
22.378005
22.284138
21.641952
21.646279
21.895649
21.889318
21.811616
21.835577
22.009233
21.9815
21.755767
21.702166
21.752045
21.850134
21.653008
21.77657
21.789734
22.027683
21.664004
21.769246
21.888351
21.795258
21.724028
21.749289
21.971488
21.958775
21.856561
21.692475
21.725654
21.733552
21.848747
21.779308
21.721122
21.678081
21.518335
22.047453
22.175599
21.746686
21.893864
21.879523
21.707715
21.711021
21.800954
21.949992
21.802057
21.500912
21.832038
21.79614
21.654743
21.513692
21.682455
21.697814
21.644719
21.575321
21.774879
21.780929
21.809987
21.777157
21.857928
21.74701
21.800128
21.80855
21.949494
21.870968
21.757674
21.701151
21.861511
21.854534
21.729556
21.700531
22.120881
22.605282
22.48092
22.307132
21.822335
21.803378
21.928345
21.800375
21.955655
21.860447
21.964882
21.765638
21.771485
21.776901
21.835173
21.934243
21.624364
21.770843
22.051714
22.001623
21.829896
21.823034
21.818833
21.691478
21.69607
21.925634
21.845946
21.90485
21.643627
21.651123
21.88389
21.722393
21.882107
21.853978
21.70754
21.603505
21.798086
22.298682
22.168395
21.577064
21.680605
21.756217
21.804195
21.676061
21.7793
21.746507
21.741292
21.582831
21.755742
21.941135
21.834117
21.677706
21.811431
22.012133
21.765985
21.792033
21.834709
21.948767
21.962439
21.705062
21.873273
21.84778
21.632787
21.615656
21.959793
21.835366
21.682991
21.713444
21.895294
21.697904
21.714889
21.792971
22.080848
22.493015
22.519009
22.153879
21.77458
21.924212
21.7421
21.781812
21.676272
21.803356
21.826068
21.909174
21.693872
21.628998
21.87132
21.955976
21.632444
21.726525
21.983233
21.890408
21.767771
21.684853
21.978286
21.790664
21.799695
21.823092
21.895068
21.700852
21.639976
21.749642
21.851079
21.87377
21.704643
21.627586
21.872532
21.658036
21.688909
22.031303
21.940689
21.729161
21.825306
22.006743
21.781129
21.602719
21.862194
21.885126
21.751241
21.581227
21.944081
21.977534
21.736707
21.709951
21.962128
21.945969
21.750773
21.849283
22.010617
21.86446
21.683292
21.793341
21.7867
21.694856
21.558765
21.536393
21.929457
22.075661
21.734585
21.690972
22.014022
21.904188
21.71678
21.723018
22.197141
22.663655
22.39821
22.067153
21.88218
21.863321
21.845361
21.755507
21.701678
21.750253
21.988755
21.871819
21.73331
21.902498
21.912993
21.911778
21.746591
21.756536
21.982107
21.857123
21.890316
21.73558
21.901137
21.652706
21.67074
21.609646
21.752798
21.774479
21.658811
21.628137
21.806788
21.716971
21.716481
21.711679
21.943851
21.925859
21.723827
21.844769
21.714441
21.790787
21.956662
21.93698
21.959164
21.882799
21.805428
21.930728
21.845841
21.663987
21.823296
21.854977
21.682021
21.651474
21.745826
21.782344
21.788341
21.612223
21.898984
22.018953
21.919728
21.799959
21.778283
21.82747
21.823248
21.600321
21.741064
21.733518
21.695196
21.592924
21.714248
21.794226
21.641462
21.70433
21.750881
22.187823
22.399356
22.00388
21.721128
21.778395
21.918403
21.951331
21.703507
21.760936
21.754607
22.071849
21.575324
21.776656
21.898627
21.905483
21.78242
21.663556
22.013567
22.027404
21.795996
21.813804
21.894156
22.004331
21.667175
21.784068
21.799564
21.88226
21.691938
21.730504
21.961269
21.92527
21.681452
21.677841
21.843883
21.886488
21.831455
21.832754
21.81327
21.624336
21.836863
21.657458
21.8183
21.749647
21.722649
21.809344
21.742435
21.727551
21.851144
21.701847
21.812458
21.553877
21.810911
21.848798
21.796921
21.653339
21.905791
21.910508
21.547475
21.739684
21.8205
21.838313
21.670941
21.465106
21.790309
21.884229
21.700526
21.582239
21.672057
21.72228
21.701238
21.688601
22.186286
22.597464
22.703584
22.169008
21.852048
21.803106
21.767189
21.750864
21.782245
21.913114
21.922218
21.952508
21.739985
21.769647
21.861473
21.752028
21.774364
21.653222
21.961294
21.966009
21.711281
21.691956
21.907675
21.903195
21.69841
21.820037
21.791174
21.701658
21.669783
21.85224
21.818981
21.81821
21.787312
21.804261
21.766682
21.848065
21.691164
21.733059
21.63684
21.551139
21.910881
21.835575
21.821306
21.807151
21.828551
21.877221
21.786067
21.610442
21.932138
21.891041
22.009585
21.831069
21.862576
21.972075
21.763416
21.498391
22.020142
21.964159
21.767724
21.719449
21.708499
21.516027
21.52915
21.557277
21.807747
21.778354
21.9958
21.648542
21.649475
21.712757
21.722789
21.666043
22.257336
22.615585
22.612621
22.067559
21.717945
21.955845
21.936556
21.951494
21.623411
21.647564
21.887815
21.954395
21.946198
21.877524
21.700612
21.855433
21.741055
21.6094
21.963987
21.943192
21.684916
21.722896
21.866507
21.832388
21.681699
21.827777
21.898003
21.777577
21.564363
21.639871
21.766273
21.851931
21.865792
21.947596
21.895907
21.705621
21.65209
21.894203
21.659316
21.565437
21.827079
21.963074
21.765248
21.819783
21.860896
21.875562
21.902874
21.609634
21.868929
21.997014
22.016953
21.82099
21.993894
22.020253
21.947719
21.767866
21.917994
21.726307
21.669426
21.520057
21.745942
21.638381
21.578606
21.568191
21.857542
21.794714
21.686725
21.523175
21.817255
21.847689
21.674688
21.6241
22.128116
22.688383
22.644883
22.136399
21.607701
21.750502
21.830785
21.826408
21.749436
21.900518
21.912561
21.875938
21.904161
21.910618
21.706952
21.740538
21.620832
21.796037
21.744993
21.846263
21.650889
21.715183
22.010047
21.822248
21.642429
21.720759
21.872591
21.772222
21.50001
21.769865
21.838692
21.865226
21.837486
21.781133
21.899553
21.758209
21.732037
21.818681
21.852432
21.637262
22.005541
21.768732
21.815532
21.719743
21.802291
22.004966
21.918757
21.662122
21.790266
21.838124
21.731798
21.601898
21.790542
21.758409
21.89221
21.624522
22.024756
21.867644
21.838807
21.874821
21.819606
21.794819
21.943906
21.724373
21.922955
21.918921
21.907084
21.783008
21.922662
21.708497
21.919576
21.788127
22.345069
22.603803
22.682425
22.264046
21.96686
21.915749
21.780619
21.943691
21.718315
21.880206
22.003549
22.092589
21.695328
21.848453
21.827952
21.982684
21.743622
21.716933
21.828894
21.979273
21.565708
21.741391
21.72153
21.819349
21.643154
21.634498
21.820196
22.0565
21.730934
21.823718
22.034981
21.906497
21.675206
21.856856
21.771418
21.889489
21.67861
21.809468
21.870344
21.888696
21.90811
21.602108
21.649772
21.633711
21.875901
21.819662
21.856691
21.647988
21.835911
21.654109
21.592263
21.710062
21.858151
21.846943
21.771935
21.697477
21.82366
21.793432
21.705852
21.694221
21.821997
21.785374
21.78307
21.597038
22.006947
22.075942
21.842141
21.645497
21.91776
21.847203
21.844195
22.000612
22.303089
22.91411
22.823
22.220852
21.962199
21.831972
21.847056
21.9312
21.597476
21.693838
22.075453
22.010539
21.70853
21.819752
21.930372
21.836311
21.854091
21.700836
21.799964
21.943507
21.72999
21.897049
21.795343
21.736313
21.853311
21.721505
21.670124
21.877749
21.811761
21.763935
21.684829
21.731647
21.716867
21.849183
21.8595
21.914352
21.686866
21.86042
21.735958
21.661686
21.824568
21.79118
21.829017
21.564445
21.898363
21.659312
21.805285
21.641251
21.687447
21.833227
21.952122
21.81971
21.830772
21.856993
21.740834
21.733827
21.81047
21.848982
21.896075
21.69346
21.854843
21.815496
21.72636
21.68271
22.052618
21.863935
21.811046
21.625815
21.878615
21.865786
21.851138
21.881849
22.366472
22.884744
22.675129
22.117546
21.950841
21.87907
21.957477
21.979507
21.83202
21.869466
21.861636
21.861411
21.779865
21.839901
21.83054
21.915546
21.727016
21.921479
21.992617
21.96763
21.81018
21.890294
21.85727
21.848317
21.726733
21.612563
21.75946
21.700161
21.645654
21.930699
21.623392
21.886221
21.710855
21.690759
21.870846
21.899819
21.712239
21.773768
21.725862
21.754289
21.870696
21.78914
21.756916
21.656677
21.91846
21.85973
21.721091
21.60978
21.807692
21.795409
21.884834
21.793534
21.759933
21.769568
21.877412
21.751778
21.814856
21.818399
21.844405
21.610455
21.854194
21.949361
21.863556
21.692415
21.903752
21.927427
21.861266
21.71494
21.851307
21.82075
21.706624
21.851122
22.381616
22.918177
22.577111
22.131421
22.068359
21.984685
21.787889
21.828702
21.706207
21.837201
21.821581
21.828972
21.806952
21.852907
21.991606
21.938152
21.584717
21.633426
21.960694
21.830997
21.805461
21.825412
21.781386
21.839812
21.752061
21.775812
21.738258
21.759544
21.628847
21.723336
21.882129
21.910661
21.69754
21.652863
21.685426
21.740468
21.764663
21.844042
21.768754
21.699704
21.819182
21.844255
21.917696
21.694548
21.712186
21.79629
21.719309
21.623744
21.871233
21.69849
21.783983
21.83654
21.733234
21.873402
21.826484
21.520636
21.880326
21.971351
21.901689
21.725645
21.814165
21.792915
21.897309
21.847015
21.951822
21.781004
21.984854
21.751771
21.949749
21.919986
21.798447
21.753881
22.275143
22.811679
22.577896
22.034071
21.750524
21.87918
21.823159
21.993159
21.775312
21.743575
22.018099
22.251245
21.897392
21.786978
21.844128
21.928265
21.882764
21.68929
21.837339
21.919935
21.489498
21.632786
21.930351
22.022778
21.871082
21.921735
21.740115
21.910037
21.646569
21.683751
21.894697
21.983467
21.723561
21.670469
21.763056
21.67365
21.609729
21.700821
21.89126
21.675124
22.040793
21.995684
21.832424
21.813001
21.798843
21.783955
21.626959
21.684011
21.76047
21.728578
21.8046
21.652004
21.881466
21.893608
21.79449
21.666469
21.811995
21.893795
21.798034
21.74334
21.828739
21.865548
21.904183
21.788505
21.867999
21.754735
21.702016
21.595796
21.837517
21.752261
21.603998
21.70627
22.297504
22.836809
22.60878
22.097546
21.877403
21.776638
21.826167
21.832299
21.920502
21.92702
21.73146
21.956318
21.78616
21.959842
22.051699
22.005844
21.861585
21.709224
22.00524
21.940319
21.770766
21.809434
21.83253
21.842723
21.772327
21.87596
21.76028
21.814438
21.855591
21.861592
21.820921
21.858396
21.861109
21.873047
22.010114
21.785622
21.811798
21.809996
21.804404
21.664092
22.009621
21.924744
21.936889
21.846551
22.005089
21.814802
21.761153
21.796626
21.830058
21.768806
21.878305
21.706759
21.80881
21.969159
21.823955
21.757755
21.937029
21.728909
21.676411
21.848471
21.81845
21.7353
21.703967
21.671204
21.932816
21.747147
21.820175
21.915295
21.872375
21.70091
21.565158
21.684274
22.392686
22.856693
22.589087
22.025652
21.78058
21.666219
21.804346
21.833965
22.039095
21.870071
21.888932
21.972835
21.818119
21.827512
21.882979
21.944155
21.930083
21.754179
21.794356
21.816743
21.680918
21.833117
22.071987
22.031897
21.757546
21.866448
21.964336
21.804441
21.858539
21.824816
21.827041
21.870957
21.849797
21.868475
21.886904
21.688724
21.728891
21.80973
21.877348
21.654732
22.029607
22.040234
21.989096
21.844518
21.990488
21.932005
21.828686
21.854371
21.9145
21.866509
21.884881
21.823746
21.781207
21.845781
21.813002
21.697323
21.852398
21.740011
21.652965
21.831788
22.049928
21.864036
21.793911
21.877808
21.976448
21.827519
21.687382
21.848655
21.880123
21.781444
21.641273
21.558181
22.327006
22.945578
22.626458
22.020689
21.620509
21.531811
21.708779
21.724922
22.049377
21.838176
21.923051
21.954349
21.839375
21.904916
21.805679
21.883358
22.035858
21.835252
21.831446
21.853495
21.820561
21.7603
21.88481
21.886099
21.671933
21.662575
21.957404
21.926698
21.884508
21.761208
21.900983
21.882191
21.840953
21.745872
21.905543
21.701232
21.806272
22.006391
21.959364
21.849154
22.095135
21.891407
21.835712
21.883168
22.027147
21.856739
21.873459
21.851861
21.910002
21.761617
21.86385
21.736644
21.876818
21.883564
21.825713
21.77446
22.040291
21.880045
21.903266
21.840533
21.749998
21.855798
21.904727
21.794102
22.118334
21.675222
21.831304
21.883833
21.866907
21.792095
21.82834
21.74196
22.304786
22.785283
22.752269
22.322164
21.779812
21.778627
21.824306
21.813016
21.939931
21.851231
21.779472
21.903164
21.727226
21.717092
21.895563
22.01164
21.829953
21.825232
21.847766
21.884897
21.649961
21.831667
21.874356
21.852126
21.697287
21.772367
21.834514
22.044289
21.79268
21.82654
21.875321
21.944465
21.866511
21.914608
21.910902
22.041054
21.944117
22.080199
22.11947
21.988537
22.136335
22.091745
22.033873
21.95964
21.997783
21.791585
21.827641
21.800096
21.80566
21.894407
21.759212
21.692094
21.956418
21.987301
21.772041
21.63991
21.965044
21.876657
21.77371
21.643037
21.757905
21.829525
21.899477
21.865912
22.097241
21.933123
21.968039
21.967421
21.897108
21.936841
21.92396
22.086238
22.609897
23.170721
22.729418
22.289207
21.901295
21.759879
21.958739
21.769459
21.886497
21.861686
21.850346
22.12201
21.836138
21.891647
21.909756
21.938099
21.86602
21.905994
21.996875
21.857284
21.776271
21.825685
21.959762
21.957515
21.835272
21.814825
22.066979
21.927928
22.023628
21.929164
21.836847
21.842519
21.88832
21.810745
21.998865
21.889512
21.980462
22.106261
21.999257
21.694531
21.943502
22.016964
21.944572
21.968943
22.010258
21.893025
21.786363
21.861717
21.973058
21.908907
21.932895
21.743108
21.893555
22.003453
21.871143
21.794328
21.904822
21.885086
21.940528
21.748835
21.766315
21.76269
21.968403
21.821313
22.011706
21.851654
21.79633
21.925505
21.926263
21.964391
21.846574
22.000875
22.573501
23.080879
22.693593
22.189568
21.723443
21.625236
21.975187
21.802643
21.879128
21.84064
21.821738
22.007725
21.747766
21.709196
22.000349
22.057095
21.714028
21.676277
21.951992
21.829436
21.640237
21.745805
22.018316
22.010866
21.775114
21.739893
21.932331
21.924484
21.821848
21.862589
21.937217
21.965617
21.988268
21.810589
21.959648
21.830038
21.589924
21.83001
21.950304
21.724476
21.874392
21.809609
21.848109
21.943054
21.866159
21.884721
21.695761
21.65697
21.961601
21.891024
21.809428
21.807996
21.805815
21.98778
21.821257
21.591534
21.932732
21.878584
22.000178
21.915148
21.886491
21.768563
21.872632
21.838961
21.87968
21.77667
21.730441
21.743311
21.977632
22.023958
21.958836
21.944709
22.510274
23.142509
22.631929
22.144867
21.808134
21.649514
21.870034
21.753023
21.826852
21.88694
21.825888
21.826781
21.873745
21.721981
21.871576
21.87877
21.706808
21.787107
22.080683
21.837033
21.745626
21.801974
22.035084
22.042848
21.877039
21.829249
21.966072
21.858522
21.754409
21.785221
21.983289
21.922975
22.042761
21.994242
21.865806
21.896498
21.494674
21.820405
21.71621
21.602772
21.834209
21.806027
21.878195
21.89189
21.879758
21.843227
21.856664
21.713712
21.800133
21.939107
21.86982
21.770604
21.901415
22.028877
21.856638
21.455291
21.910023
21.759019
21.89191
21.864995
21.846061
21.854489
21.893844
21.85743
22.033079
21.750872
21.766088
21.761889
21.871049
21.997638
21.797721
21.801753
22.379666
22.94764
22.641712
22.124098
21.772523
21.7587
22.014692
22.00995
21.903706
21.918437
21.812328
21.940958
21.62755
21.701929
21.951362
21.9598
21.841437
21.812878
21.787824
21.832513
21.559415
21.642612
21.852959
21.905545
21.877171
21.947926
22.034554
22.153191
21.763914
21.730288
21.869984
21.805057
21.987257
21.898464
21.892634
21.95013
21.80529
21.797617
21.810945
21.499982
21.939134
21.770154
21.817046
21.892688
22.061844
22.018178
21.863209
21.916894
21.872411
21.714371
21.860505
21.764786
21.912784
21.958605
21.766382
21.625536
21.856871
21.870188
21.785302
21.931697
21.983342
21.849058
21.888474
21.772325
21.952876
21.885183
21.78339
21.554469
21.839477
21.822129
21.722575
21.7999
22.322448
22.917499
22.572892
22.090469
21.807803
21.73958
21.909111
21.858606
21.753398
21.668684
21.855647
21.947084
21.877181
21.751352
21.945077
21.8444
21.921435
21.69973
21.901688
21.865845
21.740353
21.930868
21.930109
21.860207
21.907049
21.835708
21.963846
22.005381
22.018458
21.901191
21.854503
21.653426
21.946391
21.798771
22.02525
22.104132
21.692253
21.712745
21.816268
21.712493
21.981385
22.057037
21.871448
21.966367
21.918666
21.758647
21.790331
21.731692
21.822807
21.789851
21.804203
21.923464
21.81973
21.662752
21.785516
21.59626
21.805892
21.815944
21.839169
21.753845
21.867949
21.849354
21.864473
21.820221
21.97573
21.801577
21.690285
21.995711
21.859891
21.972659
21.716618
21.626971
22.296375