/*--------------------------------*- C++ -*----------------------------------*\
| =========                 |                                                 |
| \\      /  F ield         | OpenFOAM: The Open Source CFD Toolbox           |
|  \\    /   O peration     | Version:  v2012                                 |
|   \\  /    A nd           | Website:  www.openfoam.com                      |
|    \\/     M anipulation  |                                                 |
\*---------------------------------------------------------------------------*/
FoamFile
{
    version     2.0;
    format      ascii;
    class       volScalarField;
    location    "100";
    object      p;
}
// * * * * * * * * * * * * * * * * * * * * * * * * * * * * * * * * * * * * * //

dimensions      [0 2 -2 0 0 0 0];


internalField   nonuniform List<scalar> 
231880
(
0.067633526
0.064490381
0.06153649
0.058786094
0.056205742
0.053747419
0.051388904
0.049123664
0.046952944
0.044884193
0.042928561
0.041096439
0.039388022
0.037794264
0.036302334
0.034892547
0.033544727
0.032239886
0.030959573
0.029702138
0.028479834
0.027292568
0.02614791
0.025048503
0.023998447
0.023000622
0.022050063
0.021142341
0.020280743
0.019460852
0.018679189
0.017927412
0.017198242
0.016487684
0.015794537
0.015117904
0.01445775
0.013813098
0.013184224
0.012571348
0.011975861
0.011396175
0.010830944
0.010286807
0.009763377
0.0092537945
0.0087518762
0.0082584342
0.0077825387
0.007319009
0.006862712
0.0064150842
0.0059748517
0.005540238
0.0051126154
0.0046910205
0.0042732887
0.0038568825
0.0034392383
0.0030194019
0.0025933738
0.0021794858
0.0017121937
0.0013192124
0.00077335621
0.00072655797
0.000440455
0.00070742944
0.0022387599
0.002777575
0.0029081522
0.0030403416
0.0031134024
0.0031075546
0.0030990128
0.0030607554
0.0030616711
0.0029344835
0.0029222219
0.0029004617
0.0029195493
0.0029079545
0.0029214109
0.0029090054
0.002903678
0.0029192293
0.0028155829
0.0029590501
0.0027186026
0.0027761658
0.0027640539
0.0027552811
0.0027237295
0.0027035552
0.0027136521
0.0027118821
0.0027091057
0.0026851445
0.0027589386
0.0026514763
0.0025530856
0.0013725193
0.00059542438
0.00023843202
0.00036014327
0.00040740748
0.00043144483
0.00044013567
0.000391722
0.00035708017
0.00033331565
0.00039424084
0.00038262857
0.00033164749
0.00034349137
0.0003186242
0.00035723773
0.00030762332
0.00033442971
0.00024808219
0.00029536151
0.00023222519
0.00029943661
0.00023292599
0.00030526227
0.00017282489
0.00010614248
-0.00019542173
0.00035931332
0.00070539672
0.00026402385
5.0977977e-06
-0.00020384989
-0.00030026911
-0.00021067738
-0.0002253611
-0.00020922602
-0.00020212597
-0.00020308412
-0.00019094271
-0.00021384365
-0.00019491424
-0.00021832776
-0.00019822522
-0.00023705414
-0.00021641108
-0.0002442507
-0.00022470095
-0.00024683226
-0.00023167501
-0.00024870328
-0.00023882065
-0.0002556816
-0.00024620291
-0.00025279117
-0.000242019
-0.00024082647
-0.0002409954
-0.00024108897
-0.0002408768
-0.00024312277
-0.00024407078
-0.00024059145
-0.00024337378
-0.00023909774
-0.0002416456
-0.00023918072
-0.00024207203
-0.00024149089
-0.00024492055
-0.00024217352
-0.00024298244
-0.00024276932
-0.0002400971
-0.00024196226
-0.00024827854
-0.0002439088
-0.00024944052
-0.00024438775
-0.00024915606
-0.00024594355
-0.00024920095
-0.0002482997
-0.00024951922
-0.00024949676
-0.00025002168
-0.00025083439
-0.00025246813
-0.00025077107
-0.00025454502
-0.00024441314
-0.00025257775
-0.00024739777
-0.00024814978
-0.00024501181
-0.00026185177
-0.0002456742
-0.00026615428
-0.00024053694
-0.00025739366
-0.00023938133
-0.00024957629
-0.00023083133
-0.00024485492
-0.00022472629
-0.0002416367
-0.00020856958
-0.00022515025
-0.00019855994
-0.00021491749
-0.00019196835
-0.00020942403
-0.00018163427
-0.00020045712
-0.00017197047
-0.00018318683
-0.00016386788
-0.00016633783
-0.00015285633
-0.00015118378
-0.00013887745
-0.00013419642
-0.00012349776
-0.0001176153
-0.000107278
-0.00010310936
-9.1737877e-05
-8.9334377e-05
-7.6521755e-05
-7.2296955e-05
-6.0732334e-05
-5.4754558e-05
-4.7497904e-05
-3.7753669e-05
-3.1188968e-05
-2.6799229e-05
-1.4548547e-05
-8.839703e-06
5.2766717e-06
1.2553338e-05
2.1977054e-05
3.3532868e-05
3.8290962e-05
5.2877819e-05
5.4423267e-05
6.9614599e-05
7.2517065e-05
8.5621443e-05
8.812941e-05
0.00010084993
0.00010418268
0.00010951247
0.00011567362
0.00012418594
0.00012668549
0.0001396122
0.0001343251
0.00015330372
0.00014936757
0.00016938853
0.00016228567
0.00017848411
0.00017344458
0.0001903882
0.00018291691
0.0001989499
0.00019256691
0.00020787692
0.00020032266
0.00021738829
0.00020543471
0.00022475703
0.00021083181
0.00023131369
0.00021560902
0.00023799047
0.0002200042
0.00024210174
0.00022785904
0.00024149463
0.00023084061
0.00023495338
0.00022363649
0.00022899059
0.00023261302
0.00024123204
0.00023391124
0.00023495772
0.00023469359
0.00023300689
0.00023216856
0.00023377398
0.00023179016
0.00023252279
0.00022961573
0.00023931941
0.00023271832
0.00023582268
0.00023222787
0.00024762336
0.00023357216
0.00024998999
0.00022764643
0.00024401269
0.00022286872
0.00024575029
0.00021189559
0.00024349805
0.00020132404
0.00024122202
0.00019950164
0.00023911166
0.00019873557
0.00025355293
0.00017529325
0.00015803788
7.9794931e-05
3.8998064e-06
-0.00019973349
0.00099623329
0.00026645788
0.00014141523
0.00014804426
0.0001323603
0.00022288925
0.00017943868
0.0002329273
0.00019817091
0.00024395032
0.00020343448
0.00024722132
0.00021611675
0.0002516939
0.00022595245
0.00025084789
0.0002369715
0.0002815519
0.0002396334
0.00026882555
0.00023380973
0.00023595305
0.0002424828
0.00025603598
0.00023542814
0.00023883091
0.0002371128
0.00023750105
0.00024104892
0.00023800484
0.00024060672
0.0002436947
0.00024540543
0.00027059952
0.00023596994
0.000235913
0.00022382993
0.0002301544
0.00026182998
0.00023228413
0.00024353672
0.00022866935
0.00024407082
0.00023550198
0.00024250632
0.00023957991
0.00024325318
0.00023550943
0.00024455979
0.00023956353
0.000235802
0.00023371983
0.00026843966
0.00023999833
0.00027307129
0.00022948664
0.00024371106
0.00022037452
0.00025866225
0.00021946875
0.00025215365
0.0002056328
0.00023191416
0.00019966878
0.00024072353
0.00019914168
0.00024311944
0.00023005949
0.00026968862
0.00016770856
0.00040915714
0.0015752558
0.0017714976
0.0005065836
0.00029412513
0.00019582753
0.00016769764
0.00022652336
0.00019815001
0.00024937986
0.00020550533
0.00024821215
0.00021229567
0.00025641556
0.00021978651
0.00027060885
0.00022851969
0.00026528753
0.00025858468
0.00029463648
0.00024229973
0.000258421
0.00025217532
0.00025482044
0.00025027529
0.00025260698
0.00025327796
0.00025557262
0.0002491022
0.00024867438
0.00025597865
0.00027049317
0.00025985032
0.00025959304
0.00026710139
0.00027998378
0.00024840138
0.00024586693
0.00022102749
0.00022574011
0.00026415247
0.00022431198
0.00024001887
0.0002326194
0.00024207985
0.00023225409
0.00023752259
0.00023392611
0.00023861807
0.00022897529
0.00023391553
0.0002326717
0.00023258094
0.00023927413
0.00024121052
0.0002329431
0.00024433247
0.00021801175
0.00024591677
0.00021648223
0.00024948971
0.00021042892
0.00024528239
0.00020111798
0.00022622576
0.00019456778
0.00024217943
0.00018676729
0.0002247035
0.00017005526
0.00019253197
0.00022595689
0.00045893609
0.0017898931
0.0018538828
0.00044952378
0.0002465528
0.0002707126
0.0001751241
0.00021743916
0.00018530189
0.00025546397
0.00019867821
0.00024389518
0.00020530125
0.00025435784
0.00021505217
0.00025427844
0.00022702495
0.0002544246
0.00023698967
0.00026289897
0.00024926377
0.00025087858
0.00024660748
0.00025853429
0.0002823161
0.00024580622
0.00025498181
0.00026030894
0.00024498227
0.00024652798
0.00024876371
0.00024833556
0.00025588906
0.00025021587
0.00025728301
0.00026397097
0.00025000114
0.00024628209
0.00021544254
0.00022463428
0.00025759233
0.00021832363
0.00023275196
0.00022597707
0.00022988937
0.00022660737
0.00023443951
0.00022513506
0.00022736818
0.00022588623
0.00021164793
0.00022440125
0.00023731098
0.00022978862
0.00022340839
0.00022892912
0.0002385064
0.00020675037
0.00023096213
0.00019898874
0.0002306705
0.00019827141
0.00023608381
0.00019575567
0.00023121129
0.00018100884
0.00020807261
0.00016425876
0.00021006463
0.00016112632
0.00021967404
0.00024490119
0.00045846501
0.0018589837
0.0018242584
0.00041883831
0.00021666347
0.00021688049
0.0001659466
0.00020598544
0.00018122503
0.00022173785
0.00019051753
0.00023864531
0.00020705026
0.00024432813
0.00020786153
0.00023198844
0.00022529481
0.00025164455
0.00023768495
0.00025089496
0.00022396064
0.00023797529
0.00023817439
0.00024520521
0.00023859177
0.00024186806
0.00024872234
0.00022634866
0.00023017578
0.00023518334
0.00023440889
0.00023540283
0.00023154068
0.00024014572
0.00025150111
0.00026960819
0.00024358707
0.00024252481
0.00020974592
0.00022005656
0.00025214323
0.00022355746
0.00023371025
0.0002318422
0.00023217677
0.00022940566
0.00022782109
0.00022406732
0.00022074706
0.00022685462
0.00021527458
0.00022349638
0.00024139945
0.00022529043
0.00025810677
0.00021588692
0.00023322365
0.00021127796
0.00023043691
0.00019388665
0.00021788574
0.00017869131
0.0002198531
0.00018505897
0.00022689478
0.00017675772
0.00020456699
0.0001606597
0.00018532949
0.00014120938
0.00021613651
0.00021926669
0.0004287387
0.0017901493
0.0017502633
0.00041566805
0.00020778003
0.00022017308
0.0001498355
0.00019184798
0.00016595249
0.00020783346
0.00018569147
0.00022964935
0.00018972858
0.00023719086
0.00020617268
0.00023950924
0.00020496473
0.00024233112
0.00021284228
0.00023369662
0.00020854511
0.00023200177
0.00021987722
0.00022877899
0.00022648696
0.00023200455
0.00024016611
0.00023268149
0.00023457173
0.00023561586
0.00022870515
0.00024343684
0.00023479523
0.0002316381
0.00024138149
0.0002491597
0.00023362979
0.0002328954
0.00020411467
0.00021809336
0.00024302013
0.00021751251
0.00022286741
0.00021984475
0.00022943508
0.0002165363
0.0002188596
0.00022096187
0.00021281307
0.00021363542
0.00021287258
0.00021969314
0.00022512605
0.00021497526
0.00022734488
0.00020665408
0.00021594924
0.00019361166
0.00020452968
0.00018445201
0.00020741947
0.00017941714
0.00022957696
0.00017319266
0.0002152103
0.00016284061
0.00018862442
0.00015593351
0.0001804954
0.0001258448
0.00019878567
0.00018916609
0.00038933989
0.0016994596
0.0017047671
0.00039916315
0.00021213506
0.00021766924
0.00013901877
0.00018512709
0.00017371386
0.00021360835
0.00017413591
0.0002266222
0.00018342725
0.00023661836
0.00019253689
0.00023852858
0.00020025291
0.00023717211
0.00021078342
0.00023023495
0.00021220138
0.00023185465
0.00022090688
0.00022928821
0.00022658378
0.00022802632
0.00021985253
0.00022788797
0.000228218
0.00023156035
0.00023113656
0.00025648821
0.00022876097
0.00023373555
0.00023752475
0.00025317093
0.00023050016
0.00022714789
0.00020037724
0.00021175597
0.00022707168
0.00021327373
0.00021607478
0.00021382486
0.00021179173
0.00021397381
0.00021137294
0.00021482185
0.00021358614
0.00021592341
0.00021836883
0.00021129339
0.00022334985
0.00020586568
0.00022239504
0.00019795051
0.00021759056
0.00018463955
0.00021448919
0.0001677883
0.00021409354
0.0001835297
0.00022432617
0.00017078231
0.00021144345
0.00015850826
0.00019116638
0.00015079014
0.00017533921
0.00012088552
0.00019346605
0.00018145945
0.00038106878
0.0016789815
0.0016873642
0.00039196144
0.00020033145
0.00022817365
0.00015406335
0.00019634666
0.00015121243
0.00020493003
0.0001486841
0.00022035158
0.00016551858
0.00023088098
0.0001866207
0.00022871876
0.0001975639
0.00023879678
0.00021598356
0.00023396752
0.00020636441
0.00023405233
0.00021147908
0.00024000068
0.00022887036
0.00024417639
0.00022642448
0.00022640913
0.00022126924
0.00021971412
0.00022787936
0.00022156133
0.00022689503
0.00022308469
0.00023346557
0.00021743394
0.00022004248
0.00022124333
0.00019296675
0.00020311824
0.00020045669
0.00020366095
0.00020880327
0.00021895361
0.0002112051
0.00020550112
0.00021386605
0.00020855841
0.00020574232
0.00019963387
0.0002051365
0.00019530301
0.00022615744
0.00019706289
0.00021556645
0.00018885626
0.0002096838
0.00018163947
0.00022299696
0.00017389297
0.00021701471
0.0001670175
0.00021953674
0.00015428575
0.00020259713
0.00014141634
0.00017133841
0.00013756784
0.00015492089
9.9652049e-05
0.00020299879
0.00018259054
0.00038446913
0.0016729992
0.0016856837
0.00038360111
0.00020165015
0.00019841531
0.00013353017
0.00019510446
0.00015061772
0.00019772282
0.00015752052
0.00022316829
0.00015862319
0.00022103679
0.00016928022
0.00022377813
0.00017893191
0.00022311021
0.0001832296
0.00022099656
0.00019171994
0.00022051573
0.00019910843
0.0002277822
0.00020762109
0.00021175451
0.00021603917
0.00021455018
0.00021355826
0.00021519697
0.00021793379
0.00022147506
0.00021657776
0.0002101074
0.000214951
0.0002059467
0.00021014453
0.00020733098
0.00018673809
0.00019583817
0.00019400978
0.00019758234
0.00020128315
0.00019527719
0.00019848806
0.00019968885
0.00020501966
0.00020125597
0.00019937076
0.00019652451
0.00019688112
0.00018561995
0.0002153099
0.0001857514
0.0002150644
0.00018323928
0.00020843966
0.0001756984
0.00021076366
0.00016905799
0.00021318493
0.00015031381
0.00022201749
0.00013435722
0.00020992874
0.00013686177
0.00018373784
0.00012542148
0.00016632004
0.00012147358
0.00018677641
0.00018780675
0.00035438937
0.00167579
0.0016555677
0.00035369936
0.0001854663
0.00018925774
0.00012865778
0.00018419652
0.00013000802
0.00018799568
0.000140415
0.00021048111
0.00015283281
0.00021882149
0.00015362927
0.00022454392
0.00016056839
0.00021651444
0.00015961131
0.00021284967
0.0001839969
0.00021018902
0.00019333154
0.00020630243
0.00018931318
0.0002059404
0.00020000967
0.00020649801
0.00020186869
0.00020538475
0.00020275497
0.00020077395
0.00019759424
0.00020175388
0.00019502347
0.00018909914
0.00020113589
0.00019812299
0.00017658473
0.00018713606
0.00018700193
0.00018074353
0.00019256105
0.00017180961
0.00018916968
0.00019100879
0.00019611724
0.00019391261
0.00018991291
0.00019579636
0.00019100171
0.00018417289
0.00019527071
0.0001742402
0.00020501477
0.00017098952
0.0002094598
0.00016308826
0.00021207153
0.00015387401
0.00021036618
0.00013828351
0.00021726005
0.00012837599
0.00020611688
0.0001123863
0.00016957707
0.00010778579
0.00015509732
0.00010500019
0.00016803367
0.00015932538
0.00034626723
0.0016417537
0.0016350067
0.00035027693
0.0001601131
0.00017375868
0.00010729312
0.0001792825
0.00013247298
0.00019931505
0.00012349945
0.00021040205
0.00013432785
0.00022368397
0.00014040933
0.00022543958
0.00015771904
0.0002185635
0.00016154928
0.00020936865
0.00017339913
0.0001996599
0.00017215671
0.00020259274
0.0001902885
0.00019906083
0.00018798576
0.00019482441
0.00019294734
0.00019670136
0.00018679235
0.0001925625
0.0001945082
0.00019930276
0.000192281
0.00019671572
0.00019240732
0.00019079984
0.00016945624
0.00017685
0.00019145503
0.00017900624
0.00018818314
0.00017974973
0.0001793482
0.00017859213
0.00018792663
0.00018225222
0.0001808986
0.00017044082
0.00018416373
0.00016965396
0.00019072718
0.00016251732
0.0002045849
0.00015615024
0.00020240588
0.00014700118
0.00020304019
0.00013319421
0.00020504609
0.00012407543
0.00021373753
0.00011303761
0.00020836323
0.00010196216
0.00018005893
0.00010021112
0.00017048934
9.3437051e-05
0.00018342101
0.00015053398
0.00033565495
0.0016371955
0.0015887624
0.0003167323
0.00014566705
0.0001932997
9.5111582e-05
0.00019975715
0.00010848396
0.00021717931
0.00011533486
0.00021351026
0.00011486632
0.00022225654
0.00011930334
0.00021939463
0.00013535258
0.00021768063
0.00016000211
0.00021002538
0.00016214205
0.00020998843
0.00015263569
0.00019831971
0.00016731656
0.00019640867
0.00019093122
0.00018837634
0.00018289786
0.00019559107
0.00017915138
0.00017249214
0.00017765319
0.00019982083
0.00017313014
0.00019394154
0.00017979658
0.00017453974
0.00015986842
0.00017232101
0.00015356297
0.00015810836
0.00017749648
0.00016303521
0.00017590478
0.00017080807
0.0001859073
0.0001694539
0.00017311823
0.00016573757
0.00017683984
0.00016264727
0.0001827397
0.00016305499
0.00017930626
0.00014147004
0.00018986242
0.00012471874
0.00020286402
0.00012232385
0.00020440693
0.00010509097
0.00021176548
9.4232303e-05
0.00019712779
7.1421963e-05
0.00018194315
7.5048888e-05
0.00016571338
6.2040026e-05
0.00017702773
0.00012884135
0.00032920264
0.0015769852
0.0015670762
0.0003259489
0.00010649885
0.00016550385
7.4470421e-05
0.00018475089
8.0167102e-05
0.00019175261
7.5705124e-05
0.00021664329
8.8325015e-05
0.00022273184
8.8520772e-05
0.00021631158
0.00011662322
0.00020678086
0.00012063111
0.00020150128
0.00013820912
0.00019571879
0.00013747238
0.00018111015
0.00013886445
0.00017594455
0.00016191273
0.00017096519
0.00016849295
0.00016004059
0.00015380251
0.00016645504
0.00018108493
0.00016505825
0.00017221448
0.00015916246
0.00016614378
0.00016266355
0.00014716291
0.00014797253
0.00014034851
0.00015614232
0.00015554767
0.00015209491
0.00015783977
0.00014080274
0.00014787972
0.00015535804
0.00016087021
0.00016347073
0.00017322007
0.00015415649
0.00018021844
0.00012838074
0.00018459857
0.00012387285
0.00018955013
0.00010677865
0.00019836545
9.1873317e-05
0.00020760333
8.7296152e-05
0.00021319639
7.2263048e-05
0.00020578283
5.9855803e-05
0.00016810814
5.5210145e-05
0.0001654283
5.2275684e-05
0.00017682935
0.00010194376
0.0003265796
0.0015568798
0.0015311043
0.00032032897
9.2387046e-05
0.00016864903
4.3506113e-05
0.00017778604
5.3784998e-05
0.00020196516
6.1909431e-05
0.00021987502
6.6319779e-05
0.00022322635
7.7499323e-05
0.00021702861
9.0844837e-05
0.00020598546
0.00010839163
0.00020116166
0.0001180389
0.00019256421
0.00012752727
0.00017878201
0.00013938015
0.00016836719
0.00013612144
0.00016266438
0.00015046121
0.00015972448
0.00014570418
0.00015964652
0.0001376669
0.00015401748
0.00014971047
0.00014494774
0.00015262078
0.000148976
0.00013321279
0.00012517959
0.00012800784
0.00014129876
0.00014525296
0.00014703912
0.00014881496
0.00014160976
0.00016568653
0.00013614928
0.00015687913
0.00011724602
0.0001651939
0.00011826104
0.00017611648
0.00010747183
0.00017309135
0.0001017065
0.00017997648
9.0079558e-05
0.00019824836
6.7355173e-05
0.000211285
6.5955153e-05
0.00022242572
4.6412484e-05
0.00021622322
3.7428925e-05
0.00018202731
3.9465697e-05
0.00017551916
4.2679647e-05
0.00016980329
8.7787571e-05
0.00031619695
0.0015081235
0.0014915117
0.00032497146
8.5646661e-05
0.00017612913
3.4476649e-05
0.0001806394
2.0397774e-05
0.0002012471
3.2018546e-05
0.00022140248
4.5119037e-05
0.00022755275
4.1340778e-05
0.00020755474
6.5058262e-05
0.00020939551
8.478173e-05
0.00019623803
0.00010047283
0.00018715633
0.00011662111
0.00016441041
0.00012593962
0.00016338978
0.00013845653
0.00016020134
0.0001351087
0.0001508315
0.00013266136
0.00015029669
0.00013627393
0.0001444771
0.00013723092
0.00013776865
0.00014279628
0.00013729007
0.00013215226
0.00013903215
0.00013080138
0.00014152352
0.00013250861
0.0001470571
0.00013338024
0.00013342102
0.00012032677
0.00012849996
0.00013806839
0.00012634697
0.00016212784
0.00011263557
0.0001627286
0.00010140914
0.00017738171
9.4070242e-05
0.00018548947
8.6446789e-05
0.00020559836
5.1006355e-05
0.00020482823
3.6839057e-05
0.0002132469
2.7631126e-05
0.00020637922
1.9033899e-05
0.00020796698
2.7316093e-05
0.0001773702
2.078362e-05
0.00016952264
7.5301434e-05
0.0003237342
0.0014696577
0.0014313694
0.00033719176
6.5692395e-05
0.00017003676
2.0345433e-05
0.00019492841
2.8424851e-05
0.00022909893
1.975847e-05
0.00022903881
-1.6905557e-05
0.00023254954
1.0360678e-05
0.00021251943
3.5450559e-05
0.00020434617
4.3657677e-05
0.00018254188
7.8363934e-05
0.00016382557
9.2989994e-05
0.00016482323
0.00010407472
0.00014743135
9.9242658e-05
0.00013891317
0.00011588803
0.00013677398
0.00012795014
0.00014185078
0.00012519675
0.00013128021
0.00014302016
0.00015260685
0.00013579222
0.0001316803
0.00010637475
0.00011672235
0.00013918285
0.00012924456
0.00012537652
0.00010495036
0.00012343509
0.00011788153
0.00012909737
0.00011246342
0.00013746745
9.3577705e-05
0.00012388953
9.4572504e-05
0.00014256308
7.1239863e-05
0.00015928528
5.8030582e-05
0.00017731718
4.0917392e-05
0.00018844681
1.2182874e-05
0.00022173409
-1.5433623e-05
0.00023043428
-2.885395e-05
0.00021387617
-2.3854217e-05
0.00018829691
4.2724962e-06
0.00018538545
1.5597889e-05
0.00017329832
5.9005963e-05
0.00034783982
0.001401266
0.0014034425
0.00034153756
5.718524e-05
0.00017508539
-3.4546672e-05
0.00019008826
-2.9038299e-05
0.00019768073
-3.3848821e-05
0.00024248439
-3.5382895e-05
0.00024501677
-2.0841938e-05
0.00022843031
1.5711338e-06
0.00021235983
2.3286746e-05
0.00018314363
5.2782089e-05
0.00016562478
7.1980051e-05
0.00014880651
7.8827885e-05
0.00013689067
9.7192871e-05
0.00012019493
0.00010418649
0.00011502029
0.00011246202
0.00010156944
0.0001190221
0.00011899157
0.00011091193
0.00012625251
0.00011230102
0.0001078915
0.00010312811
0.00011152161
0.00011882725
0.00010662673
0.00010817527
0.00010168685
0.00010910502
0.00011190719
0.00011444894
8.8292456e-05
0.00011598862
8.0623468e-05
0.00012463891
6.7975415e-05
0.00012986914
6.3574054e-05
0.00014821274
3.6095173e-05
0.00017971947
2.6647443e-07
0.00020425537
-2.280699e-05
0.00023462808
-2.9886512e-05
0.00024332452
-5.6786175e-05
0.00022734073
-3.7892859e-05
0.00020011407
-4.3633448e-05
0.00019662909
-2.1436237e-05
0.00017733935
3.8350829e-05
0.00034145206
0.0013448582
0.0012277301
0.00032183883
-1.7143001e-06
0.00019249572
-3.4912436e-05
0.00018832345
-4.6845137e-05
0.00021076359
-7.1880179e-05
0.0002394431
-6.0445395e-05
0.00025209459
-4.9826655e-05
0.0002341686
-4.1514112e-05
0.00021590721
4.7620847e-07
0.00018567217
3.0431005e-05
0.00015306818
4.7273123e-05
0.00013464297
6.9250991e-05
0.00012398821
8.2124103e-05
0.00011893604
8.628972e-05
0.00011165752
8.9074433e-05
0.00010418286
0.00010926585
0.00012394038
0.00010431956
0.00011744589
0.00011652069
0.00010280797
8.7051128e-05
9.071334e-05
0.00010598339
9.374573e-05
9.1070337e-05
8.6042108e-05
9.7810303e-05
8.0151152e-05
0.00010031547
7.437105e-05
0.00010530584
6.891642e-05
0.00011995243
6.5018708e-05
0.00013705574
1.8193092e-05
0.00016122836
2.1660012e-07
0.00018799493
-2.4992898e-05
0.00021439455
-4.9045941e-05
0.00023498094
-7.7596994e-05
0.00024598931
-8.2702038e-05
0.00024032491
-7.2709232e-05
0.00020076316
-4.9134858e-05
0.0001852112
-7.2639319e-05
0.00017266815
-5.403805e-05
0.00020419838
0.00079846628
0.00040144324
0.0001345151
-7.250299e-05
0.00020705845
-9.4583229e-05
0.00018761002
-5.3279882e-05
0.00020716091
-9.050319e-05
0.00025086216
-0.00010067746
0.0002612033
-8.540688e-05
0.00024496724
-6.4199502e-05
0.0002194295
-3.9998538e-05
0.00018923809
1.3995454e-05
0.00016399629
2.0925482e-05
0.00014200146
3.9629846e-05
0.00012498894
5.6594625e-05
0.00011300933
6.6911194e-05
9.9322902e-05
7.6633799e-05
8.9016033e-05
8.1166645e-05
9.1177293e-05
8.2605525e-05
9.9845218e-05
8.7197764e-05
8.8234971e-05
7.3329938e-05
7.2639704e-05
8.9567573e-05
6.1035898e-05
8.0803553e-05
7.5492881e-05
8.1099605e-05
4.7520723e-05
8.1888911e-05
5.7554968e-05
9.5151099e-05
4.5485571e-05
0.00011188058
1.4935052e-05
0.00015166046
1.9088373e-05
0.00016854165
-1.5980495e-05
0.00019243682
-5.4875412e-05
0.00022171628
-7.4712508e-05
0.00024263879
-0.00012667205
0.00025413858
-0.00011663757
0.00025155896
-9.248638e-05
0.00019927066
-4.1307998e-05
0.00017858954
-0.00010812297
0.00024355942
-0.00012476762
9.2530587e-06
0.00027966849
0.00038226308
-6.3951241e-05
-0.00016899397
0.00032160607
-9.3525741e-05
0.00017851371
-2.6722263e-05
0.00020251678
-0.00010097858
0.00025887413
-0.00013569819
0.00027201122
-0.00012353515
0.00026127815
-9.9462562e-05
0.00022691315
-6.3347513e-05
0.0001934618
-3.1980221e-05
0.00016778201
6.5419262e-06
0.00014638554
3.997482e-05
0.00010999732
3.2939579e-05
0.00011111714
4.3244049e-05
9.1534917e-05
4.6758482e-05
7.5662866e-05
3.8622191e-05
4.8981793e-05
5.725256e-05
7.8628497e-05
6.5802236e-05
7.4478823e-05
5.308997e-05
5.0774381e-05
7.3262534e-05
6.6932412e-05
6.5207514e-05
4.8571234e-05
6.5317766e-05
4.2133871e-05
7.6447069e-05
3.602524e-05
8.4226084e-05
2.7545679e-05
0.00011626991
6.6914633e-06
0.00011045384
-2.2556632e-05
0.00014347351
-5.1969707e-05
0.00019284657
-7.9204687e-05
0.00021978306
-0.00011237538
0.00024443598
-0.00014302044
0.00026502336
-0.00014456347
0.0002419758
-0.00011599967
0.0001685184
-3.7686232e-05
0.00015655114
-9.5048025e-05
0.00035696034
-0.00016925168
-8.4025489e-05
0.00042913488
0.00044830677
-9.5633426e-05
-0.0001820927
0.00037477994
-0.00012995555
0.00015310218
-3.8517971e-05
0.0001717624
-0.00012295947
0.00025577855
-0.00016476076
0.00027703516
-0.00014867745
0.00027093976
-0.00012075896
0.00022979749
-7.5295305e-05
0.00020033085
-7.1965493e-05
0.00016019076
-2.5543233e-05
0.00011467951
-1.6871997e-05
0.00010986683
2.0926758e-05
6.7762926e-05
3.13405e-05
6.55641e-05
4.0064849e-05
6.2082405e-05
4.5950174e-05
5.5067203e-05
4.7979183e-05
6.340839e-05
5.1548428e-05
5.4480698e-05
4.175868e-05
3.303682e-05
5.1546029e-05
3.0453846e-05
5.6485297e-05
4.2910413e-05
5.7777305e-05
2.6838484e-05
6.5558022e-05
1.6788177e-05
7.4629369e-05
7.630616e-06
8.732268e-05
3.8305668e-06
0.00011922243
-4.0753968e-05
0.00014756788
-7.0009523e-05
0.00018470594
-0.00011502253
0.00021752199
-0.00015680924
0.00024635925
-0.0001698005
0.00027035269
-0.00018087592
0.00025139758
-0.00013173876
0.00016466313
-4.4197042e-05
0.00012353344
-0.00013293644
0.00037066604
-0.00018947241
-9.7285986e-05
0.00043219346
0.00040913443
-9.325185e-05
-0.00018152847
0.00036735197
-0.00015096685
0.00012129644
-5.0166532e-05
0.00016886347
-0.00014279257
0.00025665837
-0.00019042282
0.0002748084
-0.00018560115
0.00023880663
-0.00013709745
0.00021969061
-0.00011510003
0.00018514699
-6.7492459e-05
0.00013634966
-4.5042388e-05
0.00012555842
-2.754492e-05
7.4657443e-05
-1.1865183e-05
5.9211728e-05
9.6896856e-06
5.4768589e-05
3.6166711e-05
4.9710446e-05
2.7678785e-05
3.9541721e-05
3.7504157e-05
3.9343697e-05
3.1550253e-05
3.8103828e-05
2.3503476e-05
2.0519012e-05
2.6336303e-05
2.450969e-05
2.5480017e-05
2.5600795e-05
3.5286716e-05
1.3753817e-05
4.6954544e-05
2.3338571e-06
6.0275315e-05
1.6512826e-06
7.9517038e-05
-3.0469053e-05
0.00011059332
-6.2035225e-05
0.00013895916
-9.812873e-05
0.00017361134
-0.00013831514
0.00021538603
-0.00017487707
0.00025039519
-0.00019278588
0.0002674
-0.00020354074
0.00025534973
-0.00015817565
0.00016773799
-6.2319442e-05
0.00013790706
-0.00015307124
0.00036257843
-0.00017372291
-9.3216093e-05
0.00041115097
0.00037537705
-8.4095306e-05
-0.00018127453
0.00035372592
-0.00017105
0.00013657149
-7.0289982e-05
0.00016551546
-0.00016083393
0.00025640471
-0.00020590598
0.00027453061
-0.00021530663
0.0002516787
-0.00018379413
0.00021675067
-0.00014824091
0.0001678454
-0.00012696889
0.00013796571
-8.9431274e-05
9.1615095e-05
-4.7791549e-05
7.4205572e-05
-2.1970252e-05
5.3212018e-05
-6.5822131e-06
3.9308035e-05
-1.1142651e-05
4.4025404e-05
1.451721e-05
2.4988119e-05
1.582325e-05
2.0637875e-05
1.2708933e-05
1.458088e-05
9.9687642e-06
8.5164303e-06
1.5901634e-06
-1.0440278e-05
2.89629e-05
-4.1097075e-06
1.4933322e-05
-3.3645648e-06
2.1773911e-05
-1.6335021e-05
3.8267988e-05
-4.5518775e-05
6.4538797e-05
-5.5512675e-05
7.8949271e-05
-7.2757582e-05
0.00012332448
-0.00012369125
0.00017056037
-0.000144695
0.00022540917
-0.00019071393
0.00025099353
-0.00021538185
0.0002767002
-0.00020736627
0.00024250451
-0.00016441476
0.00016216259
-8.0078734e-05
0.00014804745
-0.00017646993
0.00034320691
-0.00015486851
-7.5105017e-05
0.00038483989
0.00035781279
-5.1619456e-05
-0.00015639761
0.000341356
-0.00018676508
0.00015387032
-9.0547532e-05
0.00015674614
-0.00016402039
0.00023493634
-0.00025128081
0.00026744995
-0.00022254967
0.0002308019
-0.00021988423
0.00020073717
-0.00018832815
0.00016661778
-0.00011946912
0.0001345026
-9.7271405e-05
7.7439188e-05
-6.2591764e-05
5.8773108e-05
-2.4560201e-05
4.8031301e-05
-2.3878773e-05
3.0006759e-05
3.3669777e-06
2.0995273e-05
-1.1122544e-05
3.0920161e-05
1.7221709e-06
-1.1320259e-05
-6.6041303e-06
-7.1962621e-06
-1.4752772e-05
-1.7823645e-05
-1.6916482e-05
-2.2922915e-05
-8.1107735e-06
-4.3170746e-05
6.6720168e-06
-3.3383288e-05
1.4133072e-05
-3.8480771e-05
1.9139533e-05
-5.2452151e-05
3.4910438e-05
-8.2485224e-05
7.1746475e-05
-0.00010977466
0.00010971139
-0.0001370797
0.00014387652
-0.00016850306
0.00017425469
-0.00020843139
0.00021001833
-0.00024424244
0.00022466877
-0.00025555358
0.00022202947
-0.00019963932
0.00014474701
-0.00010554532
0.00011711225
-0.00019719578
0.00031695216
-0.00019593182
-7.3151911e-05
0.00031993665
0.00032251902
-5.992187e-05
-0.00017354974
0.00032185081
-0.00019418626
0.00012515254
-0.00010583419
0.00013661398
-0.00020109101
0.0002173884
-0.00025179551
0.00022096164
-0.00025530889
0.00021359664
-0.00022774736
0.00017880219
-0.00018950781
0.00013524805
-0.00016014593
8.7311287e-05
-0.00011044521
6.5033155e-05
-7.9151954e-05
3.8098863e-05
-5.461075e-05
1.7827946e-05
-3.8920425e-05
1.8509149e-06
-3.3249071e-05
-1.0684972e-05
-3.0438485e-05
-2.7018786e-05
-3.9533124e-05
-2.2640009e-05
-4.2837803e-05
-2.907964e-05
-2.8637324e-05
-3.3076073e-05
-2.668314e-05
-3.8796017e-05
-4.3507631e-05
-4.195856e-05
-1.2999173e-05
-4.641099e-05
1.7368791e-05
-5.3297834e-05
1.6471327e-05
-7.0862105e-05
4.1386664e-05
-8.3454218e-05
6.9816874e-05
-0.00012530803
0.00010104355
-0.00014301514
0.00012708814
-0.00019390249
0.00016279818
-0.00022623929
0.00019996511
-0.00025846189
0.00021866633
-0.00026391244
0.00020802699
-0.00020997196
0.00012765703
-0.00012332165
8.4344711e-05
-0.0002257699
0.00029817484
-0.00020135284
-8.0347684e-05
0.0002895142
0.0003207723
-6.0890866e-05
-0.00017432379
0.00030499514
-0.00020012265
9.224284e-05
-0.00013475956
0.00013112828
-0.0002211592
0.00020504148
-0.00025793404
0.00021275861
-0.0002563228
0.00019363614
-0.00023351387
0.00015916255
-0.00017763859
0.00012105954
-0.00015692318
8.3500222e-05
-0.00010646289
5.7222153e-05
-9.4280711e-05
3.0030377e-05
-7.2346967e-05
-2.8723608e-06
-5.851185e-05
-1.6753929e-05
-6.6251339e-05
-4.0264355e-05
-4.41935e-05
-3.751563e-05
-4.1410465e-05
-3.6048036e-05
-3.8325442e-05
-3.6868035e-05
-4.652698e-05
-4.7488897e-05