/*--------------------------------*- C++ -*----------------------------------*\
| =========                 |                                                 |
| \\      /  F ield         | OpenFOAM: The Open Source CFD Toolbox           |
|  \\    /   O peration     | Version:  v2012                                 |
|   \\  /    A nd           | Website:  www.openfoam.com                      |
|    \\/     M anipulation  |                                                 |
\*---------------------------------------------------------------------------*/
FoamFile
{
    version     2.0;
    format      ascii;
    class       volScalarField;
    location    "158";
    object      k;
}
// * * * * * * * * * * * * * * * * * * * * * * * * * * * * * * * * * * * * * //

dimensions      [0 2 -2 0 0 0 0];


internalField   nonuniform List<scalar> 
14948
(
0.32485502
0.32293392
0.32115715
0.31896277
0.31733619
0.31546447
0.31360087
0.31172813
0.30969379
0.30755851
0.30540457
0.30319865
0.30081889
0.29850144
0.2961396
0.29408734
0.29258896
0.29011563
0.28746153
0.28509325
0.28231029
0.28007214
0.27731955
0.27412026
0.27157704
0.26905825
0.26653402
0.26400986
0.26160178
0.25911857
0.25692692
0.25513203
0.25455913
0.25724798
0.2643288
0.2663817
0.26738603
0.26510341
0.26299513
0.25805384
0.25244818
0.24681024
0.24114278
0.26278754
0.26476376
0.26675941
0.26877099
0.27079317
0.27281951
0.27484478
0.27686712
0.27888937
0.28091843
0.28296418
0.2850377
0.28714935
0.2893083
0.29152167
0.32444357
0.32470073
0.32610801
0.32673151
0.33145206
0.33252498
0.34042657
0.34180794
0.35098603
0.35255212
0.36263139
0.36429274
0.37423949
0.37576612
0.38369967
0.38499004
0.28982013
0.28779334
0.28577126
0.28374387
0.28170507
0.27965291
0.27758943
0.27551935
0.27344866
0.27138344
0.26932918
0.2698485
0.27190669
0.27397574
0.27604992
0.27812282
0.28018802
0.28224033
0.28427738
0.28630098
0.28831724
0.29033623
0.29150124
0.28949827
0.28749386
0.28547785
0.28344413
0.28139111
0.27932186
0.27724258
0.27516053
0.27308281
0.27101555
0.27304158
0.27513006
0.27722815
0.27932898
0.28142447
0.2835058
0.28556504
0.28759805
0.28960629
0.291596
0.29357747
0.2969173
0.29495264
0.29297
0.29095866
0.2889119
0.28682776
0.28471182
0.28257501
0.28042859
0.27828232
0.27614409
0.28041141
0.28265672
0.28490776
0.287155
0.28938614
0.29158582
0.29373811
0.29583606
0.2978845
0.29989184
0.30186992
0.30856973
0.30649649
0.30438815
0.30222983
0.30000857
0.29770976
0.29534001
0.29292377
0.2904832
0.28803428
0.28558866
0.29084016
0.29361363
0.29639029
0.29915508
0.30188587
0.30454904
0.30710522
0.30955303
0.31193349
0.31427019
0.31658508
0.32448891
0.32171774
0.31897607
0.31623148
0.31344134
0.31050885
0.30742033
0.30424099
0.30101932
0.29778193
0.2945479
0.29418642
0.29798736
0.30180019
0.30560822
0.30938043
0.31303316
0.31642965
0.3197139
0.32291802
0.32618264
0.32956552
0.34478342
0.34008735
0.33554113
0.33116302
0.32712708
0.32331327
0.31963396
0.31599866
0.31222364
0.30832025
0.30422422
0.29994608
0.29559005
0.29121791
0.28685929
0.27206794
0.27692904
0.28176714
0.28649452
0.29104324
0.29568386
0.29411461
0.2885137
0.28598071
0.28039482
0.26878681
0.26963223
0.27143714
0.26862968
0.26606473
0.26025667
0.26038084
0.26203269
0.26378928
0.26609897
0.26811163
0.27044233
0.27232733
0.27436094
0.27454876
0.27696997
0.28121348
0.28380893
0.28201222
0.28371754
0.29126469
0.29374309
0.29704242
0.29962963
0.29832676
0.29975628
0.30179214
0.3038025
0.30601713
0.30799979
0.31008624
0.31194954
0.31385791
0.31539318
0.31654924
0.31797054
0.32091573
0.32147138
0.32383338
0.3231713
0.32406555
0.32859279
0.28830223
0.28593413
0.28360604
0.28131526
0.2790588
0.27683361
0.27463693
0.27246635
0.27032006
0.26819684
0.26609598
0.26401728
0.26196085
0.25992703
0.25791621
0.25795841
0.25805024
0.25820081
0.25841717
0.25870298
0.25905714
0.2594724
0.25993356
0.26041676
0.26089224
0.26133222
0.26171889
0.26623799
0.26602933
0.26581729
0.26560539
0.26539611
0.26519059
0.26498755
0.26478251
0.26456683
0.26432788
0.26405053
0.2637214
0.26333389
0.26289347
0.26241797
0.26193543
0.2614757
0.26106227
0.26070991
0.26042559
0.26021034
0.26006052
0.25996911
0.26200284
0.26209391
0.26224308
0.26245737
0.26274036
0.263091
0.2635025
0.26396045
0.26444171
0.2649164
0.26535633
0.26574379
0.26607338
0.26635178
0.2665923
0.26680984
0.26701683
0.26722175
0.26742893
0.26763963
0.26785274
0.26806581
0.26827535
0.26847788
0.26867025
0.2688495
0.26901128
0.26914744
0.26924709
0.26930501
0.27135944
0.27130175
0.27120227
0.27106611
0.27090421
0.27072466
0.27053175
0.27032847
0.27011798
0.2699038
0.26968935
0.2694771
0.26926811
0.26906123
0.26885227
0.26863299
0.26839125
0.26811243
0.2677833
0.26739708
0.26695895
0.26648625
0.26600723
0.26555168
0.26514242
0.26479359
0.26451188
0.26429848
0.26414993
0.2640592
0.26613779
0.26622814
0.26637605
0.26658851
0.26686878
0.26721549
0.2676219
0.26807406
0.26854945
0.26901851
0.26945311
0.26983653
0.27016397
0.27044237
0.27068486
0.27090566
0.27111657
0.27132546
0.27153634
0.27175025
0.27196613
0.27218151
0.27239298
0.27259702
0.27279042
0.27297023
0.27313216
0.2732682
0.27336745
0.2734249
0.27549587
0.27543871
0.2753398
0.27520401
0.27504219
0.27486224
0.27466841
0.27446365
0.2742512
0.2740346
0.27381725
0.27360163
0.27338884
0.27317797
0.27296526
0.27274328
0.2725007
0.2722238
0.27189961
0.27152098
0.27109218
0.27062897
0.27015911
0.2697118
0.26930921
0.26896525
0.26868675
0.26847546
0.26832834
0.26823848
0.27036145
0.27045064
0.2705967
0.27080643
0.27108253
0.27142285
0.27182022
0.27226076
0.27272262
0.27317716
0.27359735
0.27396872
0.27428774
0.27456177
0.27480354
0.27502618
0.27524039
0.27545307
0.27566768
0.27588495
0.2761037
0.27632144
0.27653479
0.27674014
0.27693425
0.27711417
0.27727568
0.27741104
0.27750945
0.27756626
0.27963014
0.27957375
0.27947599
0.27934133
0.27918041
0.27900082
0.27880669
0.27860097
0.27838696
0.27816829
0.27794835
0.27772968
0.27751353
0.27729939
0.27708421
0.27686167
0.27662186
0.27635235
0.27604081
0.27567961
0.27527133
0.27482882
0.27437795
0.27394655
0.27355613
0.27322069
0.27294783
0.27274023
0.27259563
0.27250736
0.27467739
0.27476444
0.2749071
0.27511187
0.27538046
0.27570958
0.27609104
0.27651065
0.27694722
0.27737399
0.27776672
0.27811452
0.278416
0.27867905
0.2789155
0.27913691
0.27935229
0.2795673
0.27978447
0.28000409
0.28022478
0.28044395
0.28065821
0.28086391
0.28105765
0.2812365
0.2813964
0.28153002
0.28162686
0.28168273
0.28372204
0.28366681
0.2835712
0.28343911
0.28328077
0.28310326
0.2829105
0.28270545
0.28249156
0.28227253
0.28205177
0.28183194
0.28161453
0.28139955
0.281185
0.28096599
0.28073449
0.28047998
0.28019122
0.27986006
0.27948654
0.27907923
0.27866025
0.27825507
0.27788459
0.27756329
0.27730005
0.27709895
0.27695879
0.27687334
0.2790976
0.27918106
0.27931812
0.27951474
0.27977149
0.28008354
0.28044118
0.28082956
0.28122806
0.28161269
0.28196385
0.28227551
0.28254915
0.28279317
0.28301808
0.2832333
0.2834458
0.28365961
0.28387621
0.28409526
0.28431511
0.28453307
0.28474568
0.28494923
0.28514019
0.2853156
0.28547163
0.28560161
0.28569558
0.28574998
0.28777269
0.28771933
0.28762744
0.28750029
0.28734741
0.28717507
0.28698691
0.28678592
0.28657569
0.28635998
0.28614226
0.28592532
0.2857109
0.28549964
0.28529064
0.28508069
0.28486392
0.28463208
0.28437541
0.28408532
0.28375875
0.28339906
0.28302302
0.28265308
0.28230964
0.28200803
0.28175875
0.28156741
0.28143403
0.28135294
0.28364239
0.28372069
0.28384979
0.28403512
0.28427613
0.28456655
0.28489515
0.28524604
0.28559893
0.28593286
0.28623403
0.28650163
0.28674035
0.28695888
0.28716623
0.28736951
0.28757353
0.28778071
0.28799143
0.28820476
0.28841884
0.28863084
0.28883729
0.2890344
0.28921852
0.28938665
0.28953534
0.28965882
0.28974806
0.28980013
0.28909165
0.28888685
0.28866602
0.2884204
0.28814383
0.28783474
0.28750419
0.28717186
0.28685806
0.28657919
0.28634702
0.28616834
0.28604407
0.28596895
0.28833532
0.28840688
0.28852581
0.2886973
0.28892027
0.28918769
0.28948751
0.2898029
0.29011348
0.29040035
0.29065478
0.29088029
0.29030714
0.28828733
0.28627036
0.28424616
0.28220863
0.28015594
0.27809042
0.27601728
0.27394292
0.27187374
0.26981547
0.24485973
0.25081136
0.25685041
0.26290713
0.26867526
0.27400959
0.27334622
0.27185893
0.26569008
0.26405669
0.26479548
0.26665791
0.26885399
0.2711904
0.27359743
0.27603021
0.27844098
0.28087317
0.28316797
0.2855256
0.28870212
0.29064162
0.2939231
0.29595706
0.29955077
0.30166603
0.30497944
0.30688005
0.30997455
0.31184951
0.31475059
0.31660804
0.31960133
0.32159971
0.32442573
0.32623789
0.32888226
0.33071738
0.33311555
0.33484764
0.33731593
0.33916313
0.34160666
0.34357764
0.34636032
0.34861381
0.35157078
0.35397361
0.35705683
0.35942391
0.36215018
0.36409236
0.36616538
0.36748135
0.36860567
0.3692652
0.36989413
0.3703282
0.37078411
0.37110217
0.37145209
0.37166878
0.37185003
0.37191792
0.37199724
0.37202099
0.37201404
0.37196383
0.3719596
0.37195129
0.37190912
0.37183496
0.3718033
0.3717965
0.37178983
0.37181464
0.37196625
0.37223738
0.37274014
0.37337906
0.37458982
0.37611372
0.37866188
0.3815805
0.38616888
0.3903717
0.39593338
0.40092691
0.40758702
0.41234876
0.41736109
0.42077605
0.42298066
0.42418164
0.42856829
0.42354576
0.41636172
0.41061948
0.40392783
0.40514021
0.41548782
0.42075768
0.41409864
0.41652229
0.4148532
0.41178467
0.40727766
0.40260084
0.39652154
0.39152727
0.3863689
0.38211814
0.37784577
0.37487955
0.37247159
0.37092138
0.36977444
0.36909995
0.36863879
0.36836926
0.36826083
0.36825491
0.36828403
0.36830652
0.36833626
0.36840862
0.36845296
0.36849091
0.36853177
0.36861137
0.36861925
0.36858552
0.36851703
0.36848439
0.36834017
0.36812295
0.36780461
0.36746036
0.36703167
0.36659655
0.36600669
0.36533459
0.36423686
0.36284097
0.36082091
0.358748
0.35611588
0.35360196
0.35059471
0.34803963
0.34517998
0.34278055
0.34008777
0.33801443
0.33568676
0.33373515
0.33137533
0.32954697
0.32726444
0.32536469
0.32288274
0.32091785
0.31829005
0.31621532
0.31344031
0.31149192
0.30884283
0.30688869
0.30404439
0.30201033
0.29899706
0.29675042
0.29344903
0.29128677
0.28828743
0.286205
0.28385205
0.28139999
0.27896714
0.27652875
0.27412673
0.271784
0.26949432
0.26736854
0.2661648
0.26958912
0.26487859
0.26520704
0.26696093
0.26941855
0.27164935
0.27374651
0.27612507
0.27813088
0.28019225
0.28184093
0.28401165
0.28563205
0.28775814
0.28938798
0.29161301
0.29344272
0.29568782
0.29740661
0.29962652
0.3014655
0.30362193
0.30542313
0.30773126
0.3096515
0.31201673
0.31415279
0.31687483
0.31936933
0.32235882
0.3250773
0.32807847
0.33065983
0.33331725
0.33540245
0.33742952
0.33885443
0.34015523
0.34090118
0.34168366
0.34201596
0.34247689
0.34261882
0.34289475
0.34285455
0.34303978
0.34293058
0.34298985
0.3427496
0.3427319
0.34244981
0.34243882
0.34226129
0.34227251
0.34199764
0.3419822
0.34173069
0.34173277
0.34151908
0.34162377
0.34165733
0.34207377
0.342504
0.34349936
0.34472793
0.34681774
0.34912732
0.352182
0.35521017
0.35865731
0.36184847
0.36511602
0.36746856
0.36908223
0.36894197
0.36750871
0.3630784
0.35626134
0.34683559
0.33787793
0.3347923
0.32813361
0.32817015
0.34048465
0.35023929
0.35726416
0.36184
0.36369078
0.36409491
0.36289497
0.36074181
0.35776414
0.35474808
0.35164148
0.34876105
0.34586359
0.34356884
0.34175349
0.34052221
0.33947652
0.33901192
0.33872776
0.33867137
0.33867903
0.33885729
0.33889652
0.33908549
0.33916909
0.33940146
0.33944307
0.3395711
0.33966788
0.33990209
0.33994994
0.34009672
0.34009952
0.34020269
0.34011588
0.34005737
0.33979102
0.33958555
0.33917163
0.3388246
0.33812341
0.33734608
0.33610477
0.33460541
0.33260959
0.33043735
0.3278603
0.32524277
0.32224958
0.31945534
0.31655694
0.31393818
0.31123969
0.30905658
0.30677263
0.30477281
0.30256538
0.30070785
0.29866004
0.29679505
0.29470631
0.29285855
0.29067753
0.28881453
0.28670697
0.28501837
0.2830473
0.28144787
0.27941422
0.27774261
0.27576227
0.27376299
0.27142055
0.26923602
0.26719347
0.26672348
0.27239135
0.26910268
0.26948591
0.2718401
0.27149905
0.27693327
0.27352183
0.27385864
0.27572901
0.27546561
0.28083975
0.27710528
0.27742642
0.27938153
0.27904651
0.28462662
0.28069121
0.28104988
0.2829278
0.28259498
0.2882734
0.28429404
0.28464412
0.28662237
0.2863138
0.29222252
0.28812177
0.28846367
0.29056015
0.29024671
0.29627409
0.29218789
0.29255379
0.29457439
0.29429216
0.30038803
0.29609964
0.29640917
0.29844911
0.29818594
0.30437838
0.30012436
0.30042693
0.30257696
0.30232002
0.30866715
0.30434503
0.30463911
0.3068783
0.30664616
0.31311015
0.30888197
0.30914768
0.31176876
0.31157789
0.31825913
0.31416776
0.31440979
0.31723911
0.31706768
0.32377529
0.31987132
0.32010762
0.32308931
0.32291213
0.32951133
0.32557123
0.32581901
0.32838877
0.3282133
0.33455662
0.33041604
0.33063344
0.33262018
0.33249602
0.33856129
0.33398347
0.33415027
0.33538316
0.3352935
0.3412094
0.33617976
0.33628963
0.33703345
0.33697558
0.34287327
0.33744417
0.33749731
0.33780383
0.33784739
0.34384682
0.3379829
0.3378937
0.33810849
0.33825934
0.34456068
0.33839179
0.33825781
0.3383438
0.33853021
0.34495286
0.33852472
0.33832976
0.33829902
0.33850948
0.34493032
0.33835883
0.33817357
0.33806468
0.33826368
0.34472117
0.33808631
0.33787487
0.33775449
0.33801512
0.34450101
0.33784999
0.33761397
0.33754886
0.33777752
0.34424235
0.33759665
0.33739929
0.33727555
0.33748063
0.34398544
0.33729053
0.33708135
0.33693554
0.33716902
0.34376156
0.33704097
0.33679623
0.3368143
0.33710344
0.34384039
0.33715316
0.33689697
0.33707342
0.33738767
0.34440481
0.3378176
0.33752867
0.3384889
0.33874484
0.34620005
0.33994305
0.33973452
0.34147791
0.34176592
0.34975567
0.34394969
0.34380379
0.34648465
0.34666572
0.35501685
0.34936715
0.34924828
0.35205931
0.35229213
0.36076919
0.35493163
0.35489462
0.35758055
0.35756089
0.36591915
0.35916697
0.3594891
0.36024935
0.35993212
0.36724848
0.35912529
0.3596285
0.35736127
0.35654957
0.36175231
0.35169836
0.35270217
0.34552727
0.3439314
0.34441751
0.33422847
0.33528822
0.32419194
0.31922327
0.32388101
0.3161482
0.31127097
0.31121136
0.31216315
0.31233278
0.325173
0.32672759
0.33323359
0.32705181
0.32372273
0.35937672
0.37325457
0.37830559
0.37704363
0.3716483
0.36557359
0.36020733
0.35658524
0.3547717
0.35421772
0.35417327
0.35444537
0.35478511
0.35510593
0.3554082
0.35570837
0.35559433
0.35479094
0.35368664
0.35235002
0.35035857
0.34739253
0.34310305
0.33780795
0.33180674
0.32606561
0.32064955
0.31600243
0.31150774
0.30734898
0.30306161
0.29891265
0.29483224
0.29108364
0.28720114
0.28324917
0.27886928
0.27584898
0.27818314
0.27871765
0.27687817
0.28212369
0.28131962
0.28562219
0.28623102
0.28430411
0.29008463
0.28957781
0.29354413
0.29410695
0.29206604
0.29793162
0.2973408
0.30154559
0.30226291
0.3006156
0.30653488
0.30581011
0.31024355
0.31107918
0.30962713
0.31543552
0.31457931
0.31926714
0.3202574
0.31902668
0.32507019
0.32412867
0.32974068
0.33071121
0.32950195
0.33645814
0.33571626
0.34190309
0.3424862
0.34013999
0.34779049
0.34743321
0.35196971
0.35232505
0.34829068
0.35551741
0.35521764
0.35754746
0.35798651
0.35299258
0.35969265
0.35922876
0.36072737
0.36127651
0.35565383
0.362313
0.36185928
0.36208739
0.36262638
0.35638333
0.36237618
0.36182549
0.36154762
0.36220508
0.35619603
0.36191534
0.36125907
0.3609558
0.36170312
0.35605556
0.36156312
0.36074687
0.36088436
0.36194756
0.35722748
0.36273471
0.36159312
0.36368329
0.36510528
0.3621618
0.36898849
0.36763769
0.37369831
0.37498649
0.37296281
0.38170208
0.38059206
0.38693672
0.38799416
0.38503169
0.39095813
0.38894191
0.38725293
0.39064186
0.38690551
0.38152595
0.37667315
0.37597942
0.36528831
0.35513356
0.35017141
0.3487502
0.34870434
0.34874597
0.34795434
0.3453746
0.34072203
0.3328505
0.32262109
0.31233157
0.30291637
0.29386319
0.28534554
0.27778789
0.27070199
0.26439671
0.25812707
0.2519859
0.25830061
0.26466233
0.27118701
0.27856573
0.27192569
0.26549491
0.27372124
0.28028429
0.2870273
0.29608559
0.28935187
0.2828041
0.29206519
0.29871263
0.30550336
0.3156416
0.30873986
0.30201199
0.29548395
0.30447008
0.31134755
0.31836376
0.32556528
0.33322568
0.3258649
0.31872058
0.31182753
0.3161181
0.32318466
0.33041548
0.33784553
0.34038138
0.33295106
0.32573563
0.31877096
0.319558
0.32659726
0.33381762
0.34122831
0.3412912
0.33399882
0.32690804
0.32005756
0.32035685
0.32724292
0.33426905
0.34147339
0.34303669
0.33594683
0.32902704
0.32231038
0.32637724
0.33343558
0.34060343
0.34789555
0.35719525
0.34896013
0.34098389
0.33331964
0.33027616
0.33839504
0.34684672
0.35573023
0.36612132
0.3614964
0.36673402
0.37155688
0.37073703
0.37348573
0.37532537
0.38147888
0.38588077
0.3794072
0.37707017
0.36533686
0.34953721
0.34799433
0.35705009
0.36926307
0.36547746
0.3759509
0.37470012
0.36935533
0.36506209
0.36009009
0.35656255
0.35223983
0.34907372
0.35101415
0.35440627
0.35824946
0.36206764
0.3524356
0.35381097
0.35134363
0.3477809
0.35098319
0.35304789
0.35710253
0.35186035
0.35047164
0.3499296
0.35072892
0.35179853
0.37715594
0.38678878
0.39288463
0.36784733
0.36433577
0.36041059
0.35647734
0.35190174
0.35002896
0.35725866
0.39258997
0.39676151
0.39882922
0.55766865
0.64266013
0.62051423
0.61476381
0.56094507
0.58206125
0.66956588
0.71796016
0.69918895
0.75238255
1.0086711
0.96612895
0.93553202
0.86027684
0.85234077
1.0023589
0.86794704
0.72989575
0.59562726
0.5470862
0.51304498
0.50124023
0.46687527
0.43899087
0.42891598
0.42884953
0.43154721
0.43554456
0.43932996
0.44370749
0.44983975
0.4567564
0.46265222
0.46804999
0.47374484
0.48087073
0.48738508
0.4940442
0.50128625
0.50917338
0.51760795
0.52646277
0.53585128
0.54564979
0.55583819
0.56643127
0.57747832
0.58893772
0.60081528
0.61312202
0.62591397
0.63917092
0.65287758
0.66707844
0.68182847
0.69712472
0.71297757
0.7294303
0.74649561
0.76422998
0.78264371
0.80181402
0.82174521
0.84256189
0.83418141
0.81394972
0.79454103
0.77585671
0.75788989
0.74056473
0.72387726
0.7077654
0.69222511
0.67720718
0.66270874
0.64870046
0.6351688
0.62208422
0.60943358
0.59721135
0.58539629
0.57396423
0.56290611
0.55225658
0.54201469
0.53215706
0.52264916
0.51354426
0.50480597
0.49646754
0.48863244
0.4812627
0.47436421
0.4681404
0.4622917
0.45652567
0.45012903
0.44452792
0.43937361
0.43482304
0.42769303
0.4210691
0.41510675
0.41113501
0.40768862
0.42961088
0.4316642
0.43243047
0.41610982
0.40704717
0.40581267
0.39554057
0.39928022
0.40425529
0.41017111
0.41680476
0.42362418
0.43006153
0.4355183
0.44126234
0.44714169
0.45329286
0.45931379
0.46549581
0.47204146
0.47916192
0.4867082
0.49466244
0.50303657
0.51174892
0.52082651
0.53024409
0.54002133
0.55013415
0.56066964
0.57155881
0.58283959
0.5944427
0.60648598
0.61888231
0.63175452
0.64499115
0.65875239
0.67290416
0.6876308
0.70277002
0.71854641
0.73477023
0.75170624
0.76913676
0.78736962
0.80615887
0.82589282
0.80015006
0.78154733
0.76549081
0.74816626
0.73309458
0.71693484
0.70276388
0.68765313
0.67430826
0.66016316
0.64758118
0.63432364
0.62246051
0.61003108
0.59883643
0.58717543
0.57661693
0.56567173
0.55570667
0.54545239
0.53611521
0.5265417
0.51774829
0.50878886
0.5005582
0.49221891
0.48455117
0.47685383
0.46979658
0.46277211
0.45633901
0.44977581
0.44345321
0.4369801
0.43091588
0.42466443
0.41835397
0.41178763
0.40552474
0.39957425
0.39438925
0.39013935
0.38723353
0.39421663
0.39347811
0.40312863
0.40960747
0.42762138
0.45061993
0.44101894
0.42208571
0.42028472
0.44427874
0.53976872
0.75039825
0.78165149
1.0350992
1.0893943
1.1103417
1.1312636
1.0722186
0.99165245
0.84359597
0.89123096
0.97036568
0.69668001
0.60743294
0.64653613
0.62114008
0.59591223
0.69219091
0.74863168
0.60582939
0.56591148
0.47244411
0.54034185
0.56651565
0.58653939
0.63346879
0.58934226
0.56381143
0.52825915
0.58012449
0.57771667
0.60855476
0.81635693
1.0008824
0.87129813
0.66328421
0.51004383
0.41412274
0.37830288
0.37303147
0.37563906
0.36270886
0.35286687
0.34795196
0.34631253
0.34608316
0.3459433
0.34531195
0.34336492
0.33957529
0.33325544
0.32512817
0.31652879
0.30830433
0.30010336
0.29213342
0.28509292
0.2789825
0.27325588
0.26940691
0.27361016
0.27841285
0.29120298
0.30430801
0.30957481
0.30745152
0.30183821
0.29529014
0.28935159
0.28468121
0.28138638
0.2792809
0.27720143
0.27511929
0.27304154
0.27097433
0.25413649
0.25938235
0.26453334
0.26783656
0.28217964
0.29571985
0.30193753
0.30101799
0.29633189
0.29042935
0.28487168
0.28039717
0.27718971
0.27509169
0.27300341
0.2618685
0.2638436
0.26584008
0.26785464
0.26988245
0.27191776
0.27395572
0.27599445
0.27803629
0.28008744
0.2821571
0.28425585
0.28639387
0.28858036
0.29082262
0.29072152
0.28847768
0.28628895
0.28414803
0.28204582
0.27997231
0.27791723
0.27587174
0.27383003
0.2717899
0.26975325
0.26772467
0.26570958
0.2637126
0.26173696
0.25794811
0.25801944
0.25814261
0.2583326
0.25860372
0.25896598
0.2594204
0.25995078
0.26051437
0.26104208
0.26146256
0.26343905
0.26301945
0.26249322
0.26193287
0.26140752
0.26095894
0.26060223
0.26033568
0.26014912
0.26002832
0.25995839
0.2619916
0.26206006
0.26217839
0.26236136
0.26262313
0.262974
0.26341635
0.26393626
0.26449307
0.26501779
0.2654367
0.26745245
0.2670344
0.26651166
0.26595912
0.26544547
0.26501005
0.26466553
0.26440894
0.26422984
0.26411419
0.26404735
0.26612529
0.26619031
0.26630296
0.26647774
0.26672852
0.26706581
0.26749322
0.26799933
0.26854619
0.26906578
0.26948214
0.27152104
0.27110805
0.27059367
0.27005467
0.26955806
0.26914025
0.26881138
0.26856729
0.26839745
0.26828821
0.26822527
0.27034743
0.27040798
0.27051333
0.27067749
0.27091384
0.27123278
0.27163899
0.27212356
0.27265177
0.27315803
0.27356512
0.27561268
0.27521442
0.27471971
0.27420562
0.27373596
0.27334359
0.27303625
0.27280886
0.2726512
0.27255029
0.27249249
0.27466167
0.2747164
0.27481232
0.27496264
0.27517986
0.27547391
0.27585022
0.27630214
0.27679887
0.27727872
0.27766554
0.27972887
0.27935529
0.27889286
0.27841612
0.27798431
0.27762598
0.2773467
0.27714075
0.27699854
0.27690814
0.2768568
0.27908026
0.27912794
0.27921243
0.27934593
0.27953977
0.27980319
0.2801422
0.28055232
0.28100748
0.28145103
0.28181072
0.28392072
0.28357444
0.2831499
0.28271671
0.28232882
0.28200972
0.28176269
0.28158141
0.28145702
0.28137874
0.2813349
0.28362378
0.28366367
0.28373557
0.28385069
0.2840193
0.28425
0.28454943
0.28491566
0.28532767
0.28573426
0.28606841
0.28826269
0.28793888
0.28754823
0.28715556
0.28680946
0.28652862
0.2863136
0.28615733
0.28605135
0.28598583
0.28594995
0.28831611
0.28834804
0.28840733
0.28850452
0.28864916
0.28884971
0.28911372
0.28944204
0.28981802
0.29019538
0.29051082
0.29024494
0.28822372
0.28620564
0.28418058
0.28214239
0.28008921
0.27802332
0.2759499
0.27387532
0.27180599
0.26974761
0.33655376
0.34376522
0.40757447
0.42619842
0.50642258
0.53344466
0.74282202
0.65135272
0.5538721
0.59581212
0.64704436
0.45116462
0.45097462
0.43903634
0.42740744
0.41392201
0.38849844
0.38619773
0.3867643
0.38736305
0.39318259
0.40081738
0.40974911
0.41982308
0.43073411
0.44223685
0.45432856
0.46692314
0.48015948
0.49391892
0.50835255
0.52331882
0.53897766
0.55515323
0.57199568
0.58931157
0.60722891
0.62549861
0.64421412
0.66303625
0.68190895
0.38178803
0.37966845
0.37293345
0.37042655
0.36197174
0.3592222
0.35060801
0.3479942
0.34014569
0.3378541
0.33104556
0.32924702
0.32510116
0.32410664
0.32290497
0.32249045
0.32066845
0.31857251
0.31691258
0.3173818
0.31858138
0.32009894
0.32332523
0.32603253
0.33099519
0.3344547
0.3401423
0.34406316
0.35030204
0.35442266
0.36047654
0.36424359
0.36928021
0.37261081
0.37826946
0.37570724
0.36981497
0.36668791
0.35934681
0.35591235
0.34840021
0.34513709
0.33829015
0.33541891
0.32945322
0.32720736
0.32346842
0.32225608
0.321147
0.31896998
0.32012548
0.32153501
0.3249325
0.32750704
0.33281896
0.33611048
0.34218933
0.34592024
0.3525915
0.35651222
0.36300841
0.36658544
0.37190371
0.37477427
0.37462629
0.37175758
0.36639816
0.36308069
0.35682098
0.35323031
0.34679498
0.3433853
0.337571
0.33457256
0.32946129
0.32709115
0.32370191
0.32228767
0.32106279
0.32077341
0.32587888
0.32598848
0.33585575
0.33854994
0.34416207
0.34201279
0.33918034
0.33714294
0.33434384
0.33241057
0.32969533
0.3279052
0.32541349
0.32364491
0.32120231
0.31964149
0.31727248
0.31581965
0.31359997
0.31217075
0.31018578
0.30763515
0.30296961
0.30138907
0.30247287
0.30417516
0.30604293
0.30808152
0.3100106
0.31208302
0.3140678
0.31627971
0.3184638
0.32079274
0.32296483
0.3254962
0.32793606
0.33064065
0.3331265
0.32360555
0.32088625
0.31787859
0.31485845
0.31197255
0.31001317
0.3078401
0.30575195
0.3037641
0.30200805
0.30016991
0.29827026
0.29629245
0.29453038
0.29325296
0.29268996
0.28144193
0.2803135
0.28063022
0.28259562
0.28524644
0.28777236
0.28982261
0.28165182
0.27923282
0.27908835
0.27656891
0.27611188
0.27356772
0.27318169
0.2709265
0.27131519
0.27013063
0.28183752
0.29605662
0.30179109
0.30373717
0.30248392
0.29849102
0.30127218
0.29336736
0.29434459
0.28096641
0.28289577
0.28152538
0.28054608
0.27927871
0.28021067
0.27055238
0.26802377
0.26881776
0.26726917
0.26650435
0.26593082
0.2695813
0.26984615
0.26693123
0.26100589
0.2591367
0.25977772
0.26162135
0.26386369
0.26627686
0.26870591
0.27114635
0.27358475
0.27598166
0.2782254
0.2806411
0.28352473
0.28595128
0.28841795
0.29106426
0.29186356
0.29624054
0.29707427
0.30187627
0.30277358
0.30799723
0.30895244
0.31395825
0.31482005
0.31941156
0.32028987
0.32463527
0.32550685
0.32987748
0.33082986
0.33498365
0.33586989
0.33958853
0.34045424
0.34383212
0.34466365
0.34805699
0.34895596
0.35234565
0.35330856
0.35703735
0.35813686
0.36212683
0.36331036
0.3674404
0.36862437
0.37229815
0.3732716
0.37608008
0.37672896
0.37815868
0.37847263
0.37921667
0.37942189
0.38017153
0.38037583
0.38094881
0.38106369
0.38139351
0.38144626
0.38164488
0.38168022
0.38176241
0.38174626
0.38180693
0.38181016
0.38182039
0.38180035
0.38182932
0.38183891
0.38194245
0.38197632
0.38231819
0.38249155
0.38329463
0.38367601
0.38547473
0.38631954
0.39002842
0.39168332
0.39861561
0.40103225
0.40948006
0.41249314
0.42285566
0.42597788
0.43099989
0.43857403
0.44737481
0.44981579
0.45826177
0.45789519
0.45848718
0.4633252
0.46976719
0.47612896
0.48299683
0.49101391
0.49926444
0.50880455
0.50851404
0.50464029
0.49706682
0.49639231
0.49880398
0.48995973
0.48154047
0.47386089
0.46648038
0.45936958
0.45262029
0.44572216
0.45009515
0.45044756
0.4441672
0.44071461
0.43335725
0.42791357
0.42168946
0.41740205
0.40895246
0.40465218
0.39769529
0.39418435
0.38847859
0.38606741
0.38302901
0.38178031
0.38022862
0.37969027
0.37906778
0.37883157
0.37858704
0.37853869
0.3784706
0.37845295
0.37846046
0.37850143
0.37852422
0.37851475
0.37848001
0.37848953
0.37843924
0.37838682
0.37824604
0.37817307
0.377922
0.37770969
0.37722115
0.3769618
0.3763394
0.37599106
0.37536317
0.37489398
0.37363879
0.37264068
0.37024332
0.36875735
0.36560799
0.3638028
0.36026306
0.35843921
0.35501422
0.35330928
0.35009673
0.34858183
0.34569016
0.34428975
0.34137842
0.34004417
0.3371482
0.33581121
0.33267636
0.33124752
0.32773436
0.32623956
0.32253509
0.32111997
0.31745725
0.31604498
0.31216432
0.31074202
0.30653536
0.30501514
0.30051698
0.29901936
0.29496543
0.29358728
0.28978694
0.28772964
0.29110713
0.29285688
0.29641395
0.29827825
0.30219745
0.30411324
0.30773363
0.30948335
0.31288304
0.31462591
0.31779702
0.3195192
0.32277915
0.32462131
0.32767406
0.32937601
0.33218151
0.33385853
0.33645856
0.33807086
0.34067984
0.34238007
0.34495797
0.34676834
0.34967297
0.35174365
0.35483195
0.35702011
0.36023043
0.36239915
0.36523703
0.36701578
0.36919048
0.37039175
0.37155737
0.37214355
0.37276354
0.37320244
0.37374437
0.37399815
0.3744089
0.3746646
0.37486837
0.3749422
0.37505307
0.37510786
0.37512555
0.37508829
0.37508509
0.37508236
0.37504893
0.37499927
0.37498271
0.37499095
0.3750165
0.37505239
0.37525573
0.37553055
0.37605911
0.37666623
0.37803819
0.37948762
0.38217284
0.38493318
0.38991475
0.39392712
0.39997113
0.40481411
0.41216725
0.41686899
0.42246462
0.42629368
0.43221868
0.43809233
0.44348322
0.43624856
0.42943206
0.43506199
0.42989923
0.42613889
0.41899874
0.41444707
0.40572314
0.40123976
0.39490961
0.39126649
0.3860325
0.38353573
0.38073394
0.37939185
0.37788423
0.37729629
0.3766521
0.37636316
0.37609889
0.37605544
0.3759863
0.37595263
0.37592728
0.37596051
0.37596987
0.37595058
0.37592261
0.3759538
0.37592097
0.37585653
0.37569738
0.37562239
0.37539904
0.37517591
0.37471391
0.37444915
0.37386889
0.37346633
0.3726867
0.37213385
0.37088708
0.36981587
0.36761009
0.36606908
0.36329546
0.36141759
0.35822191
0.35633754
0.35330987
0.35150982
0.34854567
0.34698066
0.34444046
0.3429463
0.34020488
0.33880929
0.33616873
0.33467497
0.33166294
0.33018767
0.32711834
0.32549042
0.32197592
0.32048421
0.31723615
0.31568606
0.31198533
0.31048158
0.30686522
0.30519816
0.30110629
0.29955516
0.29607687
0.29458176
0.29115
0.28971363
0.2865151
0.28295294
0.28513824
0.28743318
0.289347
0.29251287
0.29548185
0.29797254
0.29963929
0.30178857
0.30405218
0.30630815
0.30851817
0.31068484
0.31277785
0.31481164
0.31673695
0.31855758
0.31698029
0.31576789
0.31493443
0.31307834
0.31127068
0.30928024
0.30721782
0.30511811
0.30291224
0.30058701
0.29829007
0.29606111
0.29431575
0.29315738
0.29497385
0.29662406
0.29879412
0.30108674
0.30339454
0.30564874
0.30781254
0.30993671
0.31201208
0.31394358
0.31513806
0.31320802
0.31116041
0.30907245
0.30690653
0.30468471
0.30242452
0.30015262
0.29799841
0.29634663
0.3002567
0.29892675
0.29833508
0.30505636
0.30554241
0.30641735
0.3087201
0.30985233
0.3121473
0.31327346
0.31546127
0.31641065
0.31846144
0.3189623
0.31824041
0.3234891
0.33428215
0.33197323
0.32915506
0.32692956
0.32429088
0.32223995
0.31957725
0.31519693
0.31649793
0.3144412
0.31015598
0.31180606
0.31006745
0.30590797
0.30763114
0.30602022
0.29751422
0.29986733
0.30141507
0.28795902
0.28616276
0.28299702
0.27175831
0.2695473
0.25974561
0.25438701
0.25613601
0.25838509
0.26076578
0.2631524
0.26557684
0.26787783
0.27015172
0.27242476
0.27611986
0.27753462
0.27916495
0.28167663
0.28409645
0.28680057
0.28505402
0.2872583
0.29040028
0.29738221
0.3085283
0.30735546
0.30503648
0.30370374
0.29060444
0.29122102
0.28230665
0.27905705
0.28146596
0.28459565
0.28235014
0.28048725
0.28130029
0.27934461
0.27979854
0.27951699
0.28114479
0.28382868
0.2825594
0.28015527