/*--------------------------------*- C++ -*----------------------------------*\
| =========                 |                                                 |
| \\      /  F ield         | OpenFOAM: The Open Source CFD Toolbox           |
|  \\    /   O peration     | Version:  v2012                                 |
|   \\  /    A nd           | Website:  www.openfoam.com                      |
|    \\/     M anipulation  |                                                 |
\*---------------------------------------------------------------------------*/
FoamFile
{
    version     2.0;
    format      ascii;
    class       volScalarField;
    location    "158";
    object      nut;
}
// * * * * * * * * * * * * * * * * * * * * * * * * * * * * * * * * * * * * * //

dimensions      [0 2 -1 0 0 0 0];


internalField   nonuniform List<scalar> 
14948
(
0.0099899713
0.0099896426
0.010101302
0.010143251
0.010156831
0.010175184
0.010238009
0.010282126
0.010306726
0.010324704
0.010337581
0.010348698
0.010356299
0.010368521
0.010395736
0.010485869
0.010661146
0.010688134
0.010676979
0.010625579
0.01056992
0.010599699
0.010541152
0.010472013
0.010462333
0.010436072
0.010402111
0.010361736
0.010321748
0.010278837
0.010244086
0.010226934
0.010278519
0.0070153062
0.0027732823
0.0040832887
0.0054844516
0.010017899
0.010713466
0.010816506
0.01081817
0.010794722
0.010763953
0.031840697
0.031882501
0.031923326
0.031963027
0.032001363
0.03203805
0.032072882
0.032105839
0.032137147
0.032167229
0.032196649
0.032226009
0.032255862
0.032286681
0.032318825
0.0098895005
0.0098715604
0.0097718664
0.0097674245
0.0097759928
0.0097898743
0.0098377702
0.0098568503
0.0099017289
0.0099204949
0.0099307535
0.0099598977
0.010151418
0.010201345
0.010566934
0.010637376
0.032350518
0.032326298
0.032301506
0.032275621
0.032248304
0.03221941
0.032188991
0.032157239
0.032124415
0.032090796
0.032056637
0.032088156
0.032122308
0.032155888
0.032188632
0.032220249
0.032250459
0.032279051
0.032305961
0.03233133
0.032355505
0.03237901
0.032443524
0.03242145
0.032398483
0.032374086
0.032347901
0.032319788
0.032289837
0.0322583
0.032225494
0.032191738
0.032157314
0.032268046
0.032304122
0.03233931
0.032373298
0.032405721
0.032436193
0.032464388
0.03249018
0.032513724
0.032535401
0.032555772
0.032722338
0.032701983
0.032679632
0.032654684
0.032626704
0.032595486
0.032561203
0.032524313
0.03248532
0.032444667
0.032402722
0.032478531
0.032535805
0.032591245
0.032644394
0.032694674
0.032741376
0.032783795
0.0328217
0.032855458
0.032885614
0.032912854
0.032976378
0.032926263
0.032872568
0.032814372
0.032750939
0.032681544
0.032606515
0.03252703
0.03244413
0.032358564
0.032270886
0.03133518
0.031466519
0.031596649
0.03172502
0.03185082
0.031972634
0.032088364
0.032197115
0.03229964
0.032396685
0.03249
0.030633298
0.030506344
0.030371084
0.030222487
0.030059877
0.029892843
0.02972362
0.029554922
0.029387283
0.029220636
0.02905511
0.025043668
0.025187026
0.025331048
0.025475735
0.02562286
0.025775957
0.025933403
0.026201338
0.026346968
0.026437684
0.026493064
0.019712377
0.019862525
0.020005983
0.020134646
0.020284369
0.020432672
0.020518527
0.020452258
0.020277572
0.020182639
0.020158296
0.02013168
0.020093425
0.020042122
0.019981941
0.015752978
0.015799768
0.015833769
0.01584075
0.015817987
0.01584573
0.014799799
0.010667784
0.013849985
0.012993367
0.01128915
0.010958467
0.004818399
0.0056684757
0.010538382
0.010601509
0.010630481
0.010636403
0.010640339
0.010677443
0.010690475
0.010724214
0.010722503
0.010733569
0.01059966
0.010690097
0.010994668
0.011034391
0.010623999
0.01066461
0.011620581
0.011480906
0.011492182
0.011438905
0.010929282
0.010822454
0.010783488
0.010741424
0.010731617
0.010698365
0.010686559
0.010646028
0.010623099
0.010550672
0.010440738
0.010496766
0.010909947
0.010626362
0.010629674
0.010094594
0.010088638
0.011311538
0.032140583
0.032098139
0.032056402
0.032015291
0.031974698
0.031934505
0.031894599
0.031854881
0.031815273
0.031775724
0.031736207
0.03169672
0.031657276
0.031617897
0.031578613
0.031581236
0.031586968
0.031596339
0.031609816
0.031627721
0.031649972
0.031675852
0.031703989
0.031732579
0.031759775
0.031784003
0.031804325
0.031964142
0.031953206
0.03194214
0.031931157
0.031920442
0.031910117
0.031900162
0.031890365
0.031880252
0.031869071
0.031855827
0.031839499
0.031819366
0.031795425
0.031768597
0.031740452
0.031712833
0.031687506
0.031665783
0.031648331
0.0316352
0.031626063
0.031620465
0.031659791
0.031665262
0.031674176
0.031686974
0.031703989
0.031725189
0.031749955
0.031777032
0.031804694
0.031831109
0.031854718
0.031874622
0.031890828
0.031904037
0.031915235
0.031925387
0.031935219
0.031945193
0.031955517
0.031966209
0.031977155
0.031988174
0.031999058
0.032009644
0.032019838
0.032029562
0.032038591
0.032046347
0.032052044
0.032055303
0.032089492
0.032086291
0.032080658
0.032072967
0.032064002
0.032054344
0.032044214
0.032033687
0.032022857
0.032011884
0.032000972
0.031990299
0.031979975
0.03196998
0.031960116
0.031949937
0.031938741
0.0319256
0.031909561
0.031889942
0.031866726
0.031840785
0.031813658
0.031787161
0.031762972
0.031742293
0.031725707
0.031713231
0.031704535
0.031699185
0.031738622
0.031743852
0.031752336
0.031764493
0.031780651
0.031800798
0.031824383
0.031850249
0.031876768
0.031902155
0.031924892
0.031944154
0.031959967
0.031972996
0.031984164
0.031994355
0.032004245
0.032014258
0.032024585
0.032035241
0.032046119
0.032057046
0.032067821
0.032078285
0.032088344
0.03209793
0.032106822
0.032114442
0.032120004
0.032123145
0.032156005
0.032152929
0.032147443
0.032139904
0.032131095
0.032121591
0.032111608
0.032101214
0.032090498
0.03207962
0.032068775
0.032058138
0.032047811
0.032037785
0.03202788
0.032017698
0.032006595
0.031993732
0.03197822
0.031959411
0.031937259
0.031912535
0.031886719
0.031861554
0.031838618
0.031819024
0.031803302
0.031791465
0.031783196
0.031778088
0.031817584
0.031822566
0.031830614
0.03184212
0.031857387
0.031876394
0.031898621
0.031922993
0.031947988
0.031971916
0.03199335
0.03201159
0.032026707
0.032039336
0.032050325
0.032060469
0.03207037
0.032080398
0.032090717
0.032101331
0.032112134
0.032122958
0.032133607
0.032143923
0.032153817
0.032163227
0.03217194
0.032179388
0.03218479
0.032187796
0.032218258
0.032215326
0.032210018
0.032202676
0.032194075
0.032184777
0.032174986
0.032164763
0.032154195
0.03214344
0.03213269
0.032122114
0.03211182
0.032101811
0.032091942
0.032081876
0.032071059
0.032058748
0.032044135
0.032026601
0.03200604
0.031983066
0.031959032
0.03193556
0.031914115
0.031895739
0.031880955
0.031869799
0.031861984
0.031857136
0.031896792
0.031901498
0.031909063
0.031919848
0.031934115
0.031951805
0.031972388
0.031994845
0.032017768
0.032039617
0.032059137
0.032075817
0.032089802
0.032101702
0.032112277
0.032122212
0.032132009
0.032141968
0.032152211
0.032162724
0.032173398
0.032184061
0.032194526
0.032204635
0.032214298
0.032223462
0.032231929
0.032239146
0.032244347
0.032247199
0.032274568
0.032271802
0.032266724
0.032259655
0.032251351
0.032242353
0.032232847
0.032222885
0.032212556
0.032202017
0.032191456
0.032181043
0.032170891
0.032161026
0.032151353
0.032141612
0.032131356
0.032119965
0.03210673
0.032091053
0.032072737
0.032052177
0.032030509
0.032009177
0.031989534
0.03197258
0.031958865
0.031948478
0.03194118
0.03193663
0.03197675
0.031981132
0.031988143
0.031998108
0.032011237
0.032027409
0.032046049
0.032066167
0.032086465
0.0321056
0.032122577
0.032137128
0.032149505
0.032160296
0.032170155
0.032179635
0.032189126
0.032198841
0.03220885
0.032219114
0.032229514
0.032239883
0.032250032
0.032259805
0.032269111
0.032277904
0.032286008
0.0322929
0.032297837
0.032300508
0.032325359
0.032322792
0.032318018
0.032311337
0.032303475
0.032294934
0.032285876
0.032276343
0.032266429
0.032256288
0.032246108
0.032236057
0.032226256
0.032216757
0.032207518
0.032198367
0.032188976
0.032178859
0.032167417
0.032154076
0.032138523
0.032120895
0.032102037
0.03208318
0.032065577
0.032050214
0.032037696
0.032028173
0.032021466
0.032017264
0.032058289
0.032062299
0.032068686
0.032077748
0.032089644
0.032104194
0.032120764
0.032138366
0.032155787
0.0321719
0.032186016
0.032198125
0.032208598
0.032217996
0.032226864
0.032235622
0.032244541
0.032253752
0.032263273
0.032273039
0.032282929
0.032292772
0.032302386
0.032311615
0.032320366
0.032328601
0.032336172
0.032342602
0.032347188
0.032349642
0.032248005
0.032239333
0.032229808
0.032218885
0.032206137
0.032191461
0.032175399
0.032158988
0.032143409
0.032129656
0.032118384
0.032109793
0.03210374
0.032099934
0.032142281
0.032145874
0.03215158
0.032159695
0.032170354
0.032183351
0.032198017
0.032213358
0.032228215
0.032241618
0.032253147
0.032263
0.032377626
0.032354038
0.032329786
0.032304347
0.032277375
0.032248728
0.03221847
0.03218681
0.032154029
0.032120415
0.032086235
0.010956213
0.010992791
0.01102198
0.01102843
0.010948508
0.0081655915
0.0047905084
0.0035607302
0.0072832871
0.010689289
0.010614342
0.01061109
0.010625714
0.010644743
0.010663077
0.010681081
0.010694516
0.010703238
0.010694581
0.010690391
0.010712932
0.010744847
0.010763605
0.010798668
0.010836435
0.010902245
0.011054564
0.011172068
0.011445017
0.011611325
0.011941757
0.012139117
0.012497347
0.01270809
0.013042923
0.013258418
0.01361073
0.013837132
0.01417509
0.014404812
0.014749716
0.014977246
0.015285257
0.015501412
0.015798461
0.016003491
0.016260888
0.016450891
0.016696146
0.016875926
0.017096531
0.0172669
0.01748849
0.017652931
0.017858084
0.018007494
0.018197812
0.018329629
0.018485429
0.018592231
0.018717643
0.018796435
0.018877014
0.018924232
0.018973232
0.018998293
0.019017132
0.01902324
0.019027652
0.01902579
0.019017215
0.019006358
0.018992561
0.018979107
0.018957143
0.018937581
0.018911641
0.018890822
0.018857181
0.018825784
0.018773538
0.018726955
0.018637647
0.018545435
0.018368138
0.018195061
0.017883769
0.017580817
0.017104886
0.016731646
0.016228933
0.01575809
0.015168673
0.014946885
0.014757011
0.014290831
0.013856835
0.01371554
0.013588322
0.013659623
0.014202465
0.014713003
0.014659498
0.015113396
0.015703397
0.016186535
0.016680817
0.017079105
0.017539725
0.017860881
0.018158603
0.018343473
0.018515134
0.018614789
0.018700563
0.018751138
0.018802003
0.01883551
0.018868422
0.01889086
0.018916767
0.018938007
0.018959457
0.01897387
0.018986862
0.018998186
0.019006411
0.019009125
0.01900585
0.019000462
0.018982958
0.018956844
0.018910894
0.018863218
0.018788556
0.018707023
0.018589212
0.018478173
0.018332288
0.018195511
0.018016076
0.017860693
0.017667011
0.017493813
0.017279908
0.017098586
0.016885239
0.016693385
0.0164548
0.016252388
0.016005524
0.015787454
0.015503545
0.0152746
0.014984316
0.014742686
0.01441632
0.014171513
0.013854368
0.013612589
0.013279655
0.013046492
0.012732261
0.012504454
0.012166571
0.011951516
0.01164245
0.011460384
0.01120316
0.011073517
0.010928443
0.010856449
0.010817474
0.010779434
0.010757263
0.010721772
0.01073613
0.010734311
0.010727421
0.010716206
0.010704194
0.010689666
0.010675196
0.010675672
0.010733826
0.0074330625
0.0085792788
0.0098871781
0.01064447
0.010676446
0.01073645
0.010798117
0.010865905
0.010961603
0.011092342
0.011253084
0.011461395
0.011678187
0.011924068
0.012171915
0.012445673
0.012701786
0.012963462
0.013217912
0.013494589
0.013753932
0.014018228
0.014274497
0.014549102
0.014800451
0.015054558
0.015295981
0.015553628
0.015791168
0.016033271
0.016262053
0.01649958
0.016717128
0.016932986
0.017131515
0.017331863
0.017510173
0.017681383
0.017831632
0.017981144
0.018104762
0.018221661
0.018315831
0.018406481
0.018471046
0.018530085
0.018565415
0.018599061
0.018611149
0.018623751
0.018618714
0.018621132
0.018612706
0.018608369
0.018588829
0.018578695
0.01855554
0.018538872
0.018507668
0.018484584
0.018450794
0.018419862
0.018372412
0.018326174
0.018260504
0.018185756
0.018066634
0.017910806
0.017697989
0.017426868
0.017076155
0.016659594
0.016205581
0.01572054
0.015194982
0.01464549
0.01407369
0.013496515
0.012925594
0.012461973
0.012345974
0.012143182
0.012179034
0.012784156
0.013384809
0.013976378
0.014555345
0.015111019
0.01563864
0.016127203
0.016580016
0.016994028
0.017341671
0.01761478
0.017825841
0.017981053
0.018096629
0.018176988
0.018240474
0.018284942
0.018330196
0.0183654
0.018397303
0.018424303
0.018453758
0.018472361
0.018493028
0.018505918
0.018523592
0.018530061
0.018536331
0.018537807
0.018541673
0.018531628
0.018517531
0.018488002
0.018453796
0.017886445
0.017943869
0.018195949
0.018154234
0.018042109
0.017921025
0.017352905
0.016612221
0.016097821
0.015746427
0.015831065
0.016061687
0.015442667
0.014663226
0.014699475
0.01456985
0.013968111
0.014370052
0.014810831
0.014289179
0.013971109
0.01387602
0.01375315
0.013344593
0.01284165
0.012478617
0.012312362
0.012599901
0.012680865
0.012426262
0.012157568
0.01191052
0.011670005
0.011454345
0.011249816
0.011087948
0.01095694
0.01085819
0.010785275
0.010715332
0.010348813
0.0091899672
0.0073192503
0.0095041434
0.010441186
0.010434072
0.0094985072
0.0070817673
0.0094648187
0.010755751
0.011078837
0.0093430701
0.0069952502
0.0095511775
0.01124256
0.011012177
0.0098706302
0.0069924714
0.0098798432
0.010860364
0.010926478
0.009830287
0.0070796174
0.0098460205
0.011068987
0.011417675
0.0098458133
0.0071541018
0.010044612
0.012023165
0.01201418
0.01015059
0.0072516289
0.01014682
0.011178709
0.011721445
0.010403007
0.0073448775
0.010452967
0.012414951
0.01193851
0.010209736
0.0074808922
0.010321592
0.011620856
0.011757947
0.010470469
0.0076120047
0.010653118
0.011898159
0.012058693
0.010738931
0.0077800473
0.010810665
0.012135669
0.012562419
0.010910516
0.0079972999
0.011127067
0.013110907
0.013605595
0.011325691
0.0082509389
0.011511403
0.013739076
0.01364227
0.011673974
0.0084974247
0.01193004
0.013592399
0.013709963
0.012017564
0.0087546433
0.012227
0.013897384
0.014177422
0.012372924
0.0090036955
0.012578735
0.014407181
0.014571949
0.012680871
0.0092722078
0.012995991
0.014218962
0.013945113
0.01321425
0.0095522251
0.013327339
0.013667281
0.014528418
0.013385104
0.0098354088
0.013569487
0.016239726
0.01655199
0.013815304
0.010119862
0.014278094
0.01626982
0.016428024
0.014520586
0.010515924
0.014821816
0.01639642
0.016420291
0.014928824
0.010676635
0.015058451
0.016372762
0.016501799
0.015027662
0.010637468
0.014930198
0.016495099
0.016725337
0.014774199
0.010622461
0.014740055
0.016838084
0.01663897
0.014797693
0.010667175
0.014896863
0.016142323
0.016134549
0.014928545
0.010665935
0.014962115
0.016475564
0.017009583
0.01490904
0.010692597
0.01491069
0.017103051
0.016908754
0.014951348
0.010815683
0.015011899
0.016582884
0.017380777
0.014836599
0.010942758
0.014983465
0.017816521
0.017577981
0.015789874
0.011207583
0.015904444
0.017937819
0.018038754
0.015906323
0.011572364
0.016594966
0.017814095
0.017770587
0.017243732
0.012226544
0.017437671
0.017560407
0.017286805
0.017336387
0.013062629
0.016995884
0.016939846
0.016529226
0.016578625
0.014356546
0.016130307
0.016074355
0.015583141
0.01563499
0.015101307
0.015113429
0.015052286
0.014490887
0.014534928
0.014629409
0.013949345
0.013904513
0.013302826
0.013305845
0.013265896
0.012704835
0.012675086
0.012105646
0.011960352
0.012262796
0.011957896
0.011672186
0.011667129
0.011669328
0.011670716
0.012103589
0.012102603
0.011729906
0.0098729995
0.0088502273
0.0090415874
0.0092725127
0.0089369718
0.0086271323
0.00797405
0.0074700797
0.0070615322
0.0068435422
0.0066968694
0.0066192728
0.0065661839
0.0065315116
0.0064858888
0.0064683886
0.0064417728
0.0064189263
0.0063050699
0.0060554309
0.0058195914
0.0056039976
0.0054032059
0.0052088449
0.0050074998
0.0048065592
0.0046233682
0.0044552199
0.0043227284
0.0042038423
0.0041004937
0.0040162197
0.0039350872
0.0038529492
0.0037791326
0.0037292541
0.0036622764
0.0036184426
0.0035893004
0.0036234238
0.0047229356
0.0081712208
0.011296091
0.008099211
0.0047430193
0.0047944556
0.0081421841
0.011568749
0.0082595844
0.0048398377
0.0049071237
0.0082892585
0.012218479
0.0084422403
0.0049921958
0.0050781461
0.0085082167
0.013196635
0.0086855039
0.0051760084
0.0052819113
0.0087958148
0.014262364
0.0090049646
0.0053934296
0.0055232624
0.0091676521
0.015323049
0.009437699
0.0056692843
0.0058484929
0.0096778629
0.016341681
0.010045413
0.006044382
0.0062707902
0.010368922
0.017287142
0.010793264
0.0065035862
0.0067431712
0.011155387
0.018098368
0.011578893
0.0069829762
0.0072182632
0.011961723
0.018724014
0.012425724
0.0074764644
0.0077866609
0.012947177
0.019149171
0.013522177
0.0080972975
0.0082052694
0.013673321
0.019336022
0.013632936
0.0081939464
0.0081759955
0.013617137
0.019378236
0.01358998
0.008173155
0.0081607533
0.013589415
0.019365321
0.013568988
0.0081714237
0.0081704489
0.01357217
0.019310835
0.013615508
0.0082050077
0.0082403167
0.01369307
0.019118271
0.013932858
0.0083606897
0.0084890106
0.014307063
0.018486589
0.014647978
0.0087908342
0.0089744873
0.015287754
0.017084323
0.014258
0.0089400956
0.0083534499
0.013392832
0.015455494
0.015792516
0.015753704
0.017075733
0.018533624
0.01919091
0.019398937
0.019451114
0.019456166
0.019403522
0.019211568
0.018792496
0.018169877
0.017361902
0.016416581
0.015389616
0.014316509
0.013241925
0.012269523
0.01163168
0.011359923
0.011359015
0.011337655
0.011309001
0.011612031
0.011629517
0.011639481
0.012271182
0.01225874
0.012240925
0.013197413
0.013221121
0.013238711
0.01431773
0.014303148
0.014281786
0.015365188
0.015386503
0.015398025
0.016429939
0.016422547
0.016405137
0.016380656
0.017312593
0.017344388
0.017365305
0.017374947
0.01817978
0.01816781
0.018145122
0.018116027
0.018712229
0.018752402
0.01878154
0.018798929
0.019213062
0.019192669
0.019161417
0.019123795
0.019317365
0.019359296
0.019390394
0.01940898
0.019469421
0.019459053
0.01943661
0.019406773
0.019410271
0.019443626
0.01946363
0.019470271
0.019418174
0.019411857
0.019392581
0.019364221
0.019091421
0.019140767
0.019175879
0.019196562
0.018517492
0.018477876
0.01842135
0.018355013
0.016740515
0.016808003
0.016865473
0.016958586
0.017026727
0.016005797
0.015869541
0.015956609
0.014241972
0.014113966
0.013952175
0.014009846
0.011804706
0.0072523616
0.0068701879
0.0039490111
0.0064091822
0.0066310106
0.0065482943
0.005764164
0.012148383
0.010436299
0.013118418
0.012977147
0.012883514
0.012706373
0.012535562
0.012147427
0.011936018
0.012023024
0.01213259
0.012223854
0.01225654
0.011793031
0.011742963
0.008367148
0.011059128
0.011427594
0.011627653
0.0098911782
0.011798484
0.011732466
0.011625113
0.011515352
0.011598882
0.011322083
0.01289736
0.013031463
0.014288731
0.014305555
0.014251475
0.015887757
0.015960743
0.015108808
0.014255737
0.012690571
0.0127439
0.01290991
0.011444643
0.0080398142
0.0080463446
0.0063122399
0.0055511841
0.0035357103
0.0044586972
0.0082256428
0.0053713702
0.0043763695
0.0068114754
0.010174385
0.010040032
0.0096203419
0.0064157964
0.0062715938
0.0054533631
0.010880793
0.0081834226
0.007227441
0.0059202623
0.0067829615
0.0051690918
0.012265958
0.01235486
0.012453286
0.012537934
0.012618968
0.01268092
0.012727571
0.012790783
0.012856749
0.012902244
0.012933338
0.012963131
0.013006893
0.013037446
0.013063844
0.013093856
0.013126895
0.013162798
0.01319894
0.013237952
0.013277218
0.013317491
0.013358071
0.013400574
0.013443443
0.013487671
0.013532413
0.013579184
0.01362668
0.013675495
0.013725083
0.013776774
0.013829401
0.013883709
0.013939007
0.013996
0.014054028
0.014113713
0.014174533
0.014236975
0.014300846
0.014260397
0.014199572
0.014139708
0.014081259
0.014023686
0.013967536
0.013912239
0.013858376
0.013805309
0.013753652
0.013702733
0.01365332
0.013604543
0.013557082
0.013510028
0.013464314
0.013418841
0.013374231
0.013329515
0.013286084
0.013242994
0.013200822
0.01315811
0.013116521
0.013074507
0.013033498
0.012993855
0.012956164
0.012919235
0.01288709
0.012854363
0.012817794
0.012766104
0.012720633
0.01267436
0.012630109
0.012538775
0.01244541
0.01234648
0.012237871
0.012121724
0.011725028
0.0095488204
0.010759041
0.0076368737
0.011863501
0.012001775
0.012070551
0.012174236
0.012279103
0.012379579
0.012477619
0.012565991
0.012642506
0.012695317
0.012747399
0.012793321
0.012839837
0.012877397
0.012913558
0.012947948
0.012987082
0.01302554
0.013066398
0.013106661
0.013148252
0.013188576
0.013230305
0.013270825
0.013312721
0.013354375
0.01339767
0.013440317
0.013484121
0.013527813
0.013572982
0.013618318
0.013665061
0.01371227
0.013760931
0.013810245
0.013860868
0.013912306
0.01396497
0.014018594
0.014073337
0.014129147
0.014185964
0.014244273
0.014221254
0.014172064
0.014126426
0.014079426
0.014034766
0.013990272
0.013946878
0.013904851
0.013862729
0.013823133
0.013782231
0.013745056
0.013705388
0.013670464
0.013631778
0.013598929
0.01356106
0.013529831
0.013492313
0.01346271
0.013426029
0.013397917
0.013360756
0.013333246
0.013295605
0.013268545
0.013230154
0.013203966
0.013165367
0.013140317
0.013101446
0.01307423
0.013027135
0.012992148
0.012938357
0.012895165
0.012825165
0.012763805
0.012679106
0.012607292
0.012518976
0.012443677
0.012363538
0.011962784
0.011896976
0.0077787449
0.0087374758
0.0074262624
0.010989781
0.010827771
0.005766413
0.0059176024
0.0076996316
0.0083535952
0.0094431627
0.0087742263
0.0090113801
0.01053166
0.0098247315
0.0070357033
0.013257629
0.011880585
0.012463376
0.012705394
0.013016815
0.011912755
0.011488525
0.0098370411
0.0062002994
0.004557238
0.0045514241
0.0071604423
0.0039987095
0.0050240174
0.0055379448
0.0043564344
0.0083129241
0.007359827
0.0050964932
0.0089984586
0.0083343425
0.0046039655
0.0089095626
0.0073675602
0.010695521
0.011944305
0.013405658
0.013644802
0.012489706
0.01233768
0.013420505
0.014666242
0.016347311
0.017833798
0.019522584
0.020385143
0.020664647
0.02071124
0.020689325
0.020600406
0.020390273
0.019981065
0.019369356
0.018592992
0.017686166
0.01666076
0.015559627
0.01447298
0.013545205
0.013011323
0.012895472
0.012811059
0.012768811
0.012658103
0.01275087
0.015135088
0.01952891
0.025337659
0.029587276
0.031790311
0.0325807
0.032684361
0.032556864
0.03240289
0.0322874
0.032255821
0.032222983
0.032189203
0.032154761
0.012700878
0.012747981
0.012779474
0.012802745
0.01529946
0.01958773
0.025085708
0.029268811
0.031540912
0.032419024
0.032580872
0.032480892
0.03233642
0.032301222
0.032265146
0.031830569
0.031866671
0.031902334
0.031937426
0.031971742
0.032005042
0.032037143
0.032068017
0.032097849
0.03212701
0.032156006
0.032185391
0.032215681
0.032247317
0.032280629
0.032275417
0.032241895
0.032210015
0.032179449
0.032149762
0.032120452
0.032090982
0.032060869
0.032029765
0.031997501
0.031964108
0.031929758
0.031894678
0.031859062
0.031823041
0.031580955
0.031586157
0.031594974
0.031608378
0.031627459
0.031652941
0.031684437
0.031719704
0.031754591
0.031784685
0.031807714
0.03184357
0.031820267
0.031789952
0.031755171
0.031720423
0.031689693
0.031665004
0.031646596
0.031633687
0.031625192
0.031620167
0.031659473
0.031664322
0.031672497
0.031684909
0.031702638
0.031726513
0.031756426
0.031790572
0.031825141
0.031855579
0.031879079
0.031914117
0.031890511
0.031860062
0.031825826
0.031792382
0.031763346
0.031740313
0.031723275
0.031711364
0.031703514
0.031698844
0.031738254
0.03174274
0.031750258
0.031761653
0.031777978
0.031800127
0.031828215
0.031860843
0.031894598
0.031924914
0.031948508
0.031982054
0.031958627
0.031928626
0.031895531
0.031863855
0.031836807
0.031815595
0.031800015
0.031789156
0.031781984
0.031777691
0.031817155
0.031821246
0.031828055
0.031838354
0.03185315
0.03187336
0.031899266
0.031929833
0.031962064
0.031991533
0.032014603
0.032046125
0.032023614
0.031994906
0.031963753
0.031934458
0.0319098
0.031890659
0.031876691
0.03186698
0.031860551
0.031856673
0.031896297
0.031899951
0.031905984
0.031915081
0.031928182
0.031946192
0.031969503
0.031997378
0.032027256
0.03205499
0.032076767
0.032106833
0.032085915
0.032059323
0.032030874
0.032004535
0.031982645
0.031965814
0.03195361
0.031945148
0.031939525
0.031936103
0.031976194
0.031979379
0.031984584
0.031992401
0.032003691
0.03201932
0.032039748
0.032064484
0.032091413
0.032116762
0.03213676
0.032167045
0.032147965
0.032123886
0.0320985
0.032075375
0.032056405
0.032041973
0.032031591
0.032024417
0.032019631
0.032016684
0.032057692
0.032060404
0.032064777
0.032071321
0.032080819
0.032094093
0.032111652
0.032133218
0.032157106
0.032179953
0.032198165
0.032230541
0.032213117
0.032191411
0.03216892
0.032148808
0.03213257
0.032120386
0.032111727
0.032105787
0.032101812
0.032099328
0.032141677
0.032143944
0.03214754
0.032152916
0.0321608
0.032171987
0.032187027
0.032205832
0.032227073
0.032247765
0.032264496
0.032374609
0.032350884
0.032326508
0.032300957
0.032273884
0.032245146
0.032214806
0.032183072
0.032150224
0.03211655
0.032082315
0.014843472
0.01497444
0.012231158
0.012256679
0.011577686
0.01151839
0.012294233
0.012021847
0.011926252
0.011785224
0.011855569
0.012265657
0.01243299
0.012494993
0.012431817
0.012313934
0.012486755
0.012309807
0.011902641
0.013669611
0.013751241
0.01381962
0.013873527
0.013908877
0.013927171
0.013937091
0.013938998
0.013939247
0.013937118
0.013935442
0.013933846
0.013935356
0.013938254
0.013944012
0.013950752
0.013959603
0.013968831
0.013979223
0.013989099
0.013998661
0.014005598
0.010710709
0.010588987
0.010265589
0.010181149
0.010014703
0.0099679614
0.0099679234
0.0099400003
0.0099090642
0.009880544
0.0098463518
0.0098249458
0.0098187234
0.0098220857
0.0099033384
0.0098968726
0.010003015
0.010052609
0.010054261
0.01002964
0.0099638652
0.0099557635
0.0099618765
0.0099886844
0.010003214
0.010038432
0.010051338
0.010084027
0.010077514
0.01014554
0.010278438
0.010419024
0.0106863
0.010902437
0.010798627
0.010637347
0.010346052
0.010237518
0.010089935
0.010032977
0.010040045
0.010008747
0.0099883561
0.0099555936
0.0099323071
0.009907489
0.0099005529
0.0099064454
0.0099798994
0.010021459
0.0099503393
0.0099424005
0.0099483099
0.0099746768
0.0099916958
0.010026539
0.010041217
0.010073783
0.010065701
0.010129941
0.010266175
0.010394388
0.010664684
0.01085207
0.011130228
0.010963309
0.010721788
0.010611635
0.01050407
0.010454566
0.010490318
0.010469491
0.010472595
0.010449746
0.010451082
0.010426477
0.010389033
0.010372228
0.010423402
0.010495451
0.011501467
0.011624204
0.014130477
0.013790683
0.016813194
0.017572204
0.017370605
0.017989219
0.017759763
0.018273181
0.018035646
0.018498113
0.018298262
0.018679858
0.018470248
0.018852819
0.018632924
0.018951282
0.018717472
0.018901761
0.018624794
0.018341676
0.016890311
0.016179589
0.016168141
0.016205277
0.016199411
0.016189217
0.01608327
0.015988534
0.015814846
0.015697681
0.01553411
0.015416967
0.015206039
0.015068657
0.01483729
0.014678122
0.01437199
0.01192945
0.012145573
0.012291506
0.012428823
0.012586219
0.012811128
0.012973982
0.013152909
0.013358764
0.01359805
0.013800142
0.013954056
0.014051982
0.014131963
0.014222642
0.014401897
0.0096492573
0.012441222
0.012289
0.012210674
0.012161048
0.012065192
0.011888346
0.011234629
0.01119429
0.011370959
0.011311171
0.011444031
0.011372047
0.011487758
0.011417702
0.011552162
0.011444779
0.01236144
0.014244775
0.014879995
0.015809606
0.015933067
0.014912615
0.016005959
0.014432536
0.014280498
0.012433387
0.010019996
0.010871763
0.0096689469
0.011651643
0.012684842
0.0070264988
0.011068976
0.0062672853
0.0056107027
0.0040938033
0.0066646226
0.0079623716
0.0043076505
0.0035163671
0.0070976521
0.010474679
0.0104103
0.010416734
0.010441931
0.010471855
0.010499668
0.010526549
0.010549227
0.010565218
0.010563894
0.010570802
0.010644006
0.010683783
0.010660483
0.010663029
0.010680271
0.010704697
0.010718708
0.010736891
0.010753029
0.01080051
0.010828148
0.011027306
0.0110741
0.011433311
0.011499932
0.011946277
0.0120276
0.012508362
0.012597828
0.01305973
0.01315449
0.013633738
0.013734757
0.014209935
0.014315751
0.014792127
0.014898736
0.015332491
0.015435934
0.015841807
0.015940258
0.016292391
0.01638456
0.016709258
0.016796633
0.017092638
0.017176662
0.017477197
0.017559158
0.01785336
0.017929148
0.018196915
0.018263834
0.01849368
0.018550237
0.01873211
0.01877305
0.01889223
0.018917755
0.018989749
0.019003457
0.019033097
0.019036966
0.019043909
0.019043098
0.019032295
0.019027487
0.019008942
0.019002335
0.018974242
0.018965282
0.018932575
0.018923232
0.018880392
0.018867128
0.018801076
0.018780376
0.018661635
0.018621008
0.018389939
0.018310399
0.017892303
0.017749687
0.017131936
0.016913626
0.016635786
0.016373972
0.016184069
0.016034334
0.015370601
0.015164084
0.014976522
0.01490261
0.014982351
0.014916342
0.01498965
0.01486261
0.014902329
0.01480014
0.014631883
0.014585191
0.014485968
0.014494528
0.014707766
0.014648104
0.014633106
0.014593129
0.014576179
0.014553327
0.014603575
0.014553343
0.015042156
0.015336581
0.015931997
0.016178056
0.016304722
0.016304153
0.016841995
0.017138671
0.017680931
0.017908605
0.018270167
0.01839762
0.018600361
0.018666726
0.018771305
0.018804694
0.018861413
0.018883506
0.018921876
0.018936991
0.018965882
0.018979934
0.019004137
0.01901406
0.019030174
0.019037995
0.019047754
0.019048842
0.019042889
0.019036954
0.01901241
0.018991719
0.018931321
0.018893217
0.018793833
0.018730761
0.018577015
0.018492723
0.01830015
0.018197091
0.017970562
0.017855237
0.017607306
0.017481294
0.017223469
0.01709433
0.016839842
0.016704753
0.016423916
0.016281028
0.015979375
0.015825433
0.015476167
0.015313436
0.014943401
0.014774129
0.014363567
0.014193665
0.013785782
0.013622308
0.013206202
0.013050574
0.012649978
0.012501529
0.012079153
0.011941928
0.011549617
0.011435927
0.011117054
0.011036993
0.010860779
0.010815439
0.010774361
0.010748788
0.010733264
0.010711193
0.010690363
0.010723106
0.010741795
0.010769423
0.010785208
0.010816218
0.010852614
0.010910658
0.011069503
0.011173298
0.011461348
0.011609204
0.011960561
0.012136914
0.012518198
0.01270764
0.013065006
0.013260345
0.013635704
0.013841261
0.01420404
0.014414171
0.0147828
0.014991385
0.015320478
0.015518836
0.015834154
0.016022374
0.016293946
0.016467487
0.016724512
0.016888961
0.017119787
0.017275893
0.01750975
0.017661516
0.017880692
0.018018967
0.018221897
0.018345761
0.018514936
0.018613652
0.018749673