/*--------------------------------*- C++ -*----------------------------------*\
| =========                 |                                                 |
| \\      /  F ield         | OpenFOAM: The Open Source CFD Toolbox           |
|  \\    /   O peration     | Version:  v2012                                 |
|   \\  /    A nd           | Website:  www.openfoam.com                      |
|    \\/     M anipulation  |                                                 |
\*---------------------------------------------------------------------------*/
FoamFile
{
    version     2.0;
    format      ascii;
    class       volScalarField;
    location    "158";
    object      omega;
}
// * * * * * * * * * * * * * * * * * * * * * * * * * * * * * * * * * * * * * //

dimensions      [0 0 -1 0 0 0 0];


internalField   nonuniform List<scalar> 
14948
(
32.518114
32.326874
31.793638
31.445811
31.243621
31.003317
30.63104
30.317479
30.047737
29.788603
29.543137
29.298243
29.046949
28.789202
28.48664
28.046062
27.44442
27.143711
26.92349
26.830845
26.708839
26.422651
26.308277
26.176464
25.957599
25.781563
25.623069
25.479309
25.344718
25.208937
25.080512
24.947069
24.766128
24.72266
26.695103
27.34706
27.507028
26.462975
24.54809
23.857412
23.335571
22.863975
22.402809
8.2531969
8.3043597
8.3562536
8.4088091
8.4619261
8.5154842
8.569382
8.6235751
8.6781001
8.7330627
8.7886222
8.8449579
8.9022377
8.9606084
9.0201816
32.806871
32.892543
33.372132
33.451143
33.904696
33.966216
34.604038
34.677197
35.446944
35.537755
36.516
36.575952
36.865737
36.834959
36.311353
36.1922
8.9587476
8.9027622
8.8469952
8.7912754
8.7355003
8.679641
8.623738
8.5678795
8.5121755
8.4567375
8.4016667
8.409598
8.4647308
8.5202355
8.5760067
8.6319265
8.6878771
8.7437617
8.7995333
8.855218
8.9109177
8.9668039
8.984882
8.9292204
8.8736827
8.8180976
8.7623654
8.7064652
8.6504575
8.5944571
8.5385979
8.4830093
8.4278044
8.4616709
8.5168719
8.5724818
8.6283758
8.684407
8.7404156
8.7962552
8.8518452
8.9072013
8.962422
9.0176781
9.0738412
9.0194117
8.9649111
8.9101661
8.8550746
8.799616
8.7438976
8.688116
8.6324713
8.5771359
8.5222497
8.6337469
8.6875588
8.7418496
8.7964565
8.8511705
8.9057289
8.959857
9.0134289
9.0665152
9.119241
9.1717942
9.3572959
9.308572
9.2596404
9.2102885
9.1603044
9.1094154
9.0576992
9.0055492
8.9533361
8.9013307
8.8497309
9.2815859
9.3309855
9.3804343
9.4296262
9.4781191
9.5253035
9.57061
9.6143096
9.6574913
9.7006898
9.7440776
10.592686
10.545929
10.502624
10.46345
10.427233
10.387398
10.342628
10.294089
10.243183
10.190809
10.13756
11.746938
11.830986
11.91424
11.996051
12.074391
12.144386
12.201625
12.202198
12.256364
12.337792
12.439691
17.490707
17.12206
16.772039
16.447422
16.127052
15.823347
15.577821
15.450551
15.397487
15.276508
15.091763
14.899208
14.710785
14.530293
14.355927
17.270889
17.527412
17.79533
18.085918
18.399512
18.660159
19.872878
20.899663
20.648449
21.579842
23.809304
24.604922
24.767563
24.144175
23.778505
24.314542
24.493797
24.635462
24.791437
24.921599
25.079487
25.217917
25.397739
25.561018
25.901656
25.909023
25.577259
25.720398
26.544827
26.603647
25.064554
25.585358
25.847348
26.193909
27.2961
27.697625
27.986504
28.283261
28.515472
28.789427
29.016473
29.301966
29.544854
29.893185
30.318666
30.292239
29.414966
30.252254
30.465034
32.014294
32.121835
29.049347
8.9700372
8.908122
8.847095
8.786903
8.7274882
8.6687931
8.6107661
8.5533629
8.4965503
8.4403062
8.3846181
8.3294824
8.274902
8.2208829
8.167433
8.1680908
8.1695161
8.1718584
8.175219
8.1796276
8.1850671
8.1914894
8.198765
8.2066054
8.2145492
8.2221306
8.2290346
8.3292707
8.3255911
8.3218372
8.3180634
8.3142992
8.310549
8.3067774
8.3029001
8.2987685
8.2941821
8.288924
8.2828376
8.2759001
8.2682797
8.2602944
8.2524164
8.245107
8.23865
8.2331743
8.2287307
8.2253421
8.2229813
8.221546
8.2755708
8.2770168
8.2793971
8.2828158
8.2872969
8.2928111
8.2993031
8.3066429
8.3145498
8.3225628
8.330205
8.3371589
8.3432574
8.3485293
8.3531358
8.3572939
8.3612023
8.3650064
8.3687876
8.3725796
8.3763781
8.3801534
8.3838515
8.3874061
8.3907438
8.3937925
8.3964764
8.3986933
8.4003093
8.4012622
8.4563334
8.4553791
8.4537626
8.4515447
8.4488583
8.4458025
8.4424524
8.4388809
8.4351619
8.4313624
8.427536
8.4237129
8.4198976
8.4160587
8.4121179
8.4079346
8.4033135
8.398039
8.3919457
8.3849975
8.3773573
8.3693368
8.3614161
8.3540547
8.3475319
8.3419806
8.3374622
8.3340129
8.3316134
8.3301573
8.3852977
8.3867625
8.3891797
8.3926573
8.3972095
8.4027917
8.4093352
8.416702
8.4246135
8.4326125
8.4402197
8.4471335
8.4531993
8.4584618
8.4630899
8.4672955
8.4712689
8.4751445
8.4789965
8.4828534
8.4867102
8.4905361
8.4942778
8.4978678
8.5012308
8.5042939
8.5069822
8.5091999
8.5108163
8.5117727
8.5674782
8.5665201
8.5649052
8.5626893
8.5600005
8.556931
8.553555
8.5499463
8.5461808
8.5423269
8.538438
8.5345455
8.5306558
8.5267433
8.522739
8.5185162
8.5138921
8.5086604
8.5026498
8.4958065
8.4882731
8.4803345
8.4724652
8.4651176
8.458571
8.4529697
8.4483916
8.4448909
8.4424593
8.4409886
8.4972338
8.4987063
8.501146
8.504661
8.5092521
8.5148542
8.5213784
8.5286727
8.5364566
8.5442849
8.5516944
8.5584228
8.5643439
8.5695213
8.5741265
8.578358
8.5823887
8.5863359
8.5902626
8.5941904
8.5981111
8.6019926
8.6057813
8.609408
8.6127955
8.6158695
8.6185563
8.6207679
8.6223788
8.6233385
8.6792445
8.6782841
8.676679
8.6744755
8.6717948
8.6687201
8.6653243
8.6616826
8.6578737
8.6539677
8.6500182
8.6460585
8.6420992
8.6381229
8.6340743
8.6298467
8.6252798
8.6201854
8.6143942
8.6078325
8.6006058
8.5929477
8.5853022
8.5781039
8.5716347
8.5660561
8.5614697
8.5579528
8.5555134
8.5540446
8.6114424
8.6129009
8.6153299
8.6188337
8.6233942
8.6289203
8.6352961
8.64235
8.6497979
8.6572194
8.6641982
8.670536
8.676152
8.6811299
8.6856344
8.6898409
8.6938943
8.6978898
8.7018732
8.7058572
8.7098286
8.7137528
8.7175756
8.7212263
8.7246243
8.7276935
8.730362
8.7325519
8.7341469
8.735107
8.7908857
8.7899279
8.788348
8.7861792
8.7835319
8.7804775
8.7770867
8.7734368
8.7696102
8.7656785
8.7616966
8.7577004
8.7537062
8.749707
8.7456662
8.7415028
8.7370881
8.7322628
8.7268689
8.7208128
8.714147
8.7070289
8.6998385
8.6929782
8.6867347
8.6812915
8.6767802
8.6733069
8.6709004
8.6694601
8.7281416
8.7295555
8.7319268
8.7353519
8.7397902
8.74512
8.7511936
8.7578148
8.7646946
8.7714508
8.777747
8.7834705
8.7886005
8.793239
8.7975356
8.8016318
8.8056385
8.8096219
8.8136088
8.8176
8.8215759
8.8254995
8.8293149
8.8329498
8.83632
8.839347
8.8419614
8.8440991
8.8456569
8.8466096
8.9023819
8.9014379
8.8999096
8.8978146
8.8952474
8.8922636
8.8889308
8.8853287
8.8815435
8.8776481
8.8736993
8.869736
8.8657801
8.8618368
8.8578894
8.8538864
8.8497353
8.8453131
8.8404799
8.8351263
8.8292404
8.8228881
8.8163572
8.8100083
8.8041339
8.7989438
8.7946011
8.7912416
8.7889177
8.7875386
8.8477082
8.8490438
8.8513072
8.8545842
8.8588124
8.8638436
8.869501
8.8755615
8.8817274
8.8876586
8.8931178
8.8980845
8.9026028
8.9067887
8.9107718
8.9146568
8.9185185
8.922395
8.9262929
8.930202
8.9340977
8.9379394
8.9416703
8.9452169
8.9484915
8.9514127
8.9539152
8.955953
8.957442
8.9583723
8.964637
8.9606954
8.956492
8.9519051
8.9468609
8.9413384
8.9355282
8.9297542
8.9243198
8.9194603
8.915362
8.9121828
8.9099922
8.9087084
8.9705928
8.9718166
8.9739231
8.9769911
8.9809477
8.9856304
8.9908488
8.9963578
9.0018476
9.0070031
9.011672
9.0159097
8.9662886
8.9103973
8.8546937
8.7990063
8.7432335
8.6873484
8.6313977
8.5754781
8.5197075
8.4642038
8.4090723
22.348937
22.815986
23.303472
23.839036
24.539896
25.676149
26.221501
25.814221
24.547507
24.702924
24.946953
25.130114
25.302204
25.476462
25.658393
25.84291
26.035864
26.241887
26.477707
26.708619
26.948936
27.049396
27.307123
27.406812
27.642925
27.670085
27.588554
27.468509
27.083799
26.857358
26.357143
26.081637
25.573534
25.306691
24.873698
24.606095
24.163455
23.900717
23.500066
23.24554
22.869318
22.645227
22.348767
22.16428
21.923675
21.78361
21.620639
21.516987
21.385584
21.298026
21.18267
21.086144
20.937507
20.817016
20.640829
20.506195
20.326297
20.203802
20.058183
19.960067
19.845024
19.773365
19.698562
19.652999
19.606424
19.581812
19.562048
19.553127
19.548371
19.549847
19.556445
19.563715
19.576259
19.589778
19.612123
19.633693
19.668639
19.704668
19.766482
19.833387
19.953076
20.084083
20.317043
20.575441
21.023845
21.454816
22.139258
22.804794
23.82869
24.644841
25.717099
26.702223
27.885145
28.379267
29.041674
29.637588
30.047389
29.938267
29.726102
29.659693
29.254628
28.597675
28.247804
27.559807
26.418055
25.439952
24.41593
23.572713
22.607055
21.920939
21.277457
20.831286
20.407401
20.138802
19.917667
19.781273
19.666758
19.595963
19.53734
19.499867
19.46743
19.445283
19.424819
19.411249
19.399533
19.391779
19.38572
19.384949
19.390439
19.400126
19.418431
19.443401
19.487023
19.534546
19.604496
19.678329
19.785916
19.886185
20.021051
20.147637
20.315561
20.454671
20.616779
20.741103
20.880952
20.98115
21.090367
21.182161
21.306531
21.414676
21.566303
21.712212
21.93613
22.129183
22.402541
22.637336
22.986125
23.254184
23.621752
23.90175
24.314092
24.598019
24.998706
25.288215
25.76242
26.062962
26.527306
26.778221
27.139163
27.273208
27.359529
27.334023
27.127315
27.022456
26.799328
26.693816
26.438953
26.215002
26.005052
25.804726
25.609284
25.42493
25.244905
25.044658
24.796826
24.583448
24.827201
24.977746
25.079777
25.234854
25.301599
25.351318
25.412063
25.373195
25.259973
25.045661
24.779851
24.458596
24.132547
23.775058
23.430875
23.102477
22.809325
22.500271
22.203456
21.918496
21.659081
21.39642
21.15122
20.921761
20.725732
20.538257
20.373049
20.224554
20.105618
19.98993
19.88405
19.779704
19.684494
19.578096
19.468739
19.35186
19.238044
19.117778
19.002332
18.89094
18.795042
18.706158
18.629023
18.561728
18.512586
18.471474
18.441245
18.416359
18.402946
18.392774
18.389796
18.388583
18.393472
18.398019
18.407224
18.416639
18.433309
18.452842
18.48155
18.517215
18.57092
18.642299
18.743648
18.878337
19.070846
19.324426
19.663102
20.070652
20.58071
21.190277
21.916261
22.675432
23.477707
24.280514
25.093643
25.79838
26.396542
26.833242
27.112716
27.117529
27.022044
26.9455
26.633331
26.166925
25.561999
24.859597
24.067919
23.28175
22.502041
21.757627
21.052345
20.456396
19.962865
19.564914
19.234891
18.98524
18.801436
18.668496
18.565907
18.494725
18.443799
18.408751
18.38219
18.362508
18.34614
18.335856
18.327601
18.322659
18.318508
18.319219
18.322981
18.331792
18.34431
18.366202
18.395688
18.435377
18.484883
18.547702
18.621076
18.705584
18.79889
18.906541
19.019867
19.136708
19.249277
19.362691
19.470316
19.572764
19.669845
19.774774
19.879865
19.992893
20.114258
20.257034
20.417405
20.600071
20.793979
21.015584
21.256334
21.510718
21.76745
22.045626
22.340165
22.635916
22.922531
23.242269
23.582593
23.929968
24.254256
24.571275
24.837226
25.049055
25.167818
25.21258
25.165845
25.126241
25.002259
24.827333
24.644555
24.857781
25.032931
25.068207
24.895954
24.743071
24.849864
25.015996
24.887903
24.732614
24.562232
24.525329
24.676445
24.414829
24.266755
24.11235
23.969241
24.104921
23.784195
23.65869
23.533722
23.329997
23.441731
23.102983
22.996764
22.900612
22.688591
22.784288
22.503072
22.409202
22.348715
22.133174
22.2209
21.92849
21.844369
21.791105
21.578947
21.652176
21.405947
21.335215
21.30569
21.097323
21.161439
20.925422
20.860758
20.842779
20.650343
20.708631
20.518329
20.461481
20.46857
20.289074
20.3401
20.17926
20.127764
20.144487
19.987752
20.03538
19.91317
19.865316
19.896618
19.755635
19.801578
19.698339
19.649503
19.679143
19.549065
19.596493
19.500373
19.452553
19.484144
19.353572
19.398917
19.292502
19.247157
19.273511
19.139533
19.181181
19.072075
19.031612
19.063383
18.924506
18.96237
18.85546
18.816475
18.852408
18.718228
18.753634
18.657724
18.626048
18.674974
18.543121
18.567852
18.495839
18.470699
18.53327
18.412227
18.437097
18.389771
18.364727
18.436665
18.329044
18.353066
18.324875
18.299887
18.374159
18.279055
18.304182
18.29126
18.266082
18.345591
18.25888
18.283335
18.278726
18.255055
18.33378
18.254137
18.277775
18.282366
18.257259
18.333767
18.262846
18.289978
18.297779
18.269907
18.34464
18.278658
18.30646
18.319551
18.292666
18.369437
18.311766
18.339013
18.365943
18.338165
18.416804
18.372605
18.402383
18.449285
18.422513
18.513977
18.490489
18.518643
18.618869
18.588094
18.707042
18.7161
18.750334
18.930239
18.899849
19.067797
19.138627
19.178504
19.497648
19.460104
19.693952
19.83887
19.888394
20.365782
20.320966
20.622646
20.883387
20.950286
21.63323
21.567585
21.914526
22.266592
22.364139
23.117891
23.020937
23.312896
23.761999
23.891951
24.661103
24.530535
24.727746
25.212536
25.366021
25.973975
25.848145
25.962627
26.307186
26.452539
26.780226
26.690123
26.411677
26.438448
26.667752
26.674203
26.750739
26.762092
26.865832
26.996472
27.267263
27.18018
27.034364
26.451873
25.106795
23.759898
22.441634
21.222234
20.339453
19.754507
19.417042
19.243398
19.160375
19.12508
19.110957
19.114197
19.122292
19.145151
19.18508
19.256138
19.362107
19.517498
19.707187
19.931915
20.154081
20.38338
20.599095
20.836538
21.104629
21.442688
21.833073
22.314889
22.818064
23.40158
23.990738
24.663338
25.268135
25.7475
25.933073
25.86418
25.776589
26.216229
25.68918
24.510972
25.751964
26.264016
26.328181
25.821933
24.575181
25.655602
26.14556
25.673194
25.234024
23.903633
24.644526
25.051381
24.368955
23.994141
22.779717
23.400851
23.764452
23.173296
22.820433
21.709383
22.319028
22.665707
22.182938
21.842509
20.820052
21.455397
21.792198
21.450251
21.113027
20.163284
20.841903
21.181434
20.938536
20.594053
19.675895
20.374392
20.720386
20.48914
20.144854
19.244314
19.926034
20.266283
20.044329
19.709266
18.852399
19.524827
19.85552
19.700272
19.371905
18.572806
19.264758
19.593578
19.521604
19.192706
18.431057
19.153956
19.483179
19.462115
19.131573
18.381242
19.123964
19.455385
19.454434
19.123809
18.386246
19.140607
19.469544
19.508678
19.185516
18.498811
19.277788
19.5962
19.782326
19.476138
18.943229
19.827492
20.130809
20.742729
20.438333
20.174778
21.323982
21.635851
22.855235
22.512492
22.537134
23.863587
24.168337
25.693902
25.354518
25.033526
24.158656
23.910133
22.018348
19.709492
18.5053
18.051062
17.929574
17.922561
17.973333
18.11171
18.378325
18.752028
19.171316
19.652149
20.294956
21.158537
22.191878
23.25645
23.88201
23.829561
23.276376
22.767236
22.281889
22.244224
22.75781
23.298892
22.700806
22.182189
21.689122
20.740523
21.199738
21.68091
20.679647
20.229944
19.801732
19.008241
19.41394
19.840426
19.211368
18.799755
18.409599
18.03859
17.586625
17.95091
18.333324
18.737628
18.329467
17.936388
17.565083
17.212799
16.893664
17.234307
17.592566
17.97153
17.716144
17.347824
16.999558
16.668813
16.542526
16.870307
17.215618
17.58095
17.529602
17.164187
16.819191
16.492055
16.504502
16.830344
17.174035
17.538194
17.665754
17.30627
16.966645
16.644635
17.095492
17.420178
17.762076
18.122805
19.289613
18.885294
18.510256
18.159597
19.729152
20.132971
20.565491
20.976409
21.502742
22.585343
23.109302
23.285453
26.031298
26.462139
26.90085
27.229341
27.595633
27.910793
29.309824
30.793684
29.709765
29.994822
30.650342
30.833789
30.084452
29.273625
28.562904
28.461983
28.335599
28.339331
28.444081
28.997073
29.245408
29.195163
29.211098
29.307405
29.540772
29.885073
30.129617
30.469437
29.882419
29.846204
29.88559
30.163309
29.822504
29.871951
30.101179
30.457507
30.330381
30.025506
29.989764
30.148928
25.743876
25.468132
25.289354
22.437235
22.047955
23.167213
25.060694
30.935563
31.133444
30.893261
48.727485
62.138716
59.493114
58.915626
53.649919
55.837312
61.963475
65.546029
66.218927
71.812861
78.396946
72.732673
69.616761
65.290566
64.626689
72.854795
67.776624
58.275958
51.226321
47.204181
44.13101
42.105211
38.917746
35.789368
34.716377
34.436657
34.419324
34.515071
34.64496
34.861915
35.169054
35.526586
35.858275
36.189418
36.545556
36.970454
37.383477
37.817676
38.284083
38.788562
39.32355
39.886747
40.478411
41.096697
41.737455
42.403672
43.093553
43.808547
44.545516
45.307663
46.093636
46.905844
47.740693
48.60287
49.491157
50.408887
51.353538
52.33015
53.336355
54.378002
55.452715
56.567225
57.719086
58.916924
58.496368
57.322129
56.192181
55.098532
54.043556
53.020425
52.031685
51.071311
50.141951
49.238354
48.363253
47.512287
46.687993
45.886291
45.109719
44.355126
43.624952
42.915681
42.230053
41.566544
40.92841
40.312419
39.720688
39.152474
38.609943
38.091658
37.604885
37.145462
36.717669
36.326309
35.963797
35.616554
35.259703
34.945424
34.666334
34.427496
34.109633
33.833284
33.621466
33.595304
33.632891
35.40639
35.930463
36.530545
35.663272
34.310882
33.81272
32.769056
32.797147
32.922217
33.132881
33.404191
33.711958
34.017111
34.305429
34.615872
34.951182
35.303631
35.668216
36.047061
36.456856
36.895271
37.365683
37.857597
38.380224
38.921441
39.490732
40.077994
40.692372
41.323945
41.983968
42.661061
43.365018
44.084646
44.832522
45.596635
46.390054
47.200019
48.041091
48.899608
49.791353
50.70173
51.648259
52.615239
53.622084
54.652054
55.726621
56.827922
57.980694
56.264382
55.147035
54.188569
53.138976
52.234185
51.245241
50.388614
49.45419
48.641812
47.757852
46.986674
46.149221
45.417212
44.624022
43.929444
43.178065
42.520048
41.809225
41.186908
40.515795
39.931033
39.300266
38.751422
38.159414
37.648396
37.096676
36.624757
36.114439
35.684274
35.217727
34.831195
34.401707
34.040731
33.634168
33.305302
32.932067
32.619774
32.262139
31.983701
31.6939
31.503314
31.352416
31.320609
32.953585
33.073791
34.847178
36.085243
37.721875
41.003542
40.730353
38.663652
37.764633
40.903408
45.756497
59.925544
61.922945
74.200439
76.645318
79.318804
83.785135
80.87559
77.214112
67.685995
70.145876
74.547089
58.481857
52.873014
58.164228
56.603697
54.980666
62.761184
62.973648
53.601934
48.666012
40.037091
48.344077
51.404246
53.766817
58.401672
52.903177
49.188856
46.467723
51.25585
49.579352
47.998717
61.182254
69.933721
63.85568
52.423146
41.340334
30.857463
25.794125
22.819134
21.063324
18.578937
17.310002
16.83803
16.720995
16.72762
16.793033
16.935131
17.184515
17.531574
17.923713
18.383191
18.998461
19.814378
20.735422
21.567294
21.91114
21.634144
21.329687
21.098825
21.615415
21.834813
19.240257
15.582437
12.217972
10.391343
9.4946605
9.0633455
8.8529066
8.7441225
8.6839903
8.6498418
8.5938418
8.5379831
8.4823953
8.4271916
20.009364
20.346935
20.699862
20.920246
18.443764
15.097198
12.036237
10.284599
9.395159
8.9586085
8.7435254
8.6326805
8.5720591
8.5164483
8.4612481
8.2269499
8.2796097
8.3329349
8.3868575
8.4412809
8.4960913
8.5511907
8.606533
8.6621472
8.7181296
8.7746314
8.8318282
8.8898903
8.9489727
9.0091992
9.0075216
8.9472928
8.8881967
8.8301086
8.7728741
8.7163253
8.6602907
8.6046248
8.5492362
8.4940975
8.4392547
8.3848013
8.330844
8.2774755
8.2247627
8.1678377
8.1687506
8.1703694
8.1729153
8.1765571
8.1814193
8.1876287
8.1952464
8.2039906
8.2128258
8.2200991
8.2729121
8.265784
8.2571128
8.2485107
8.2409848
8.2348207
8.2299763
8.2263408
8.2238002
8.2221895
8.2212845
8.2752988
8.2761935
8.2777936
8.2803256
8.2839518
8.2887771
8.294899
8.3023438
8.3108217
8.3193523
8.3263603
8.3803806
8.3734751
8.3650703
8.3567076
8.3493419
8.343266
8.3384663
8.3348565
8.3323391
8.3307544
8.3298733
8.3850009
8.3858642
8.3874269
8.3899204
8.3935018
8.3982623
8.4042797
8.411558
8.4198018
8.4280816
8.4348895
8.4897936
8.4830943
8.4749548
8.4668497
8.4596812
8.4537451
8.4490446
8.4455082
8.4430506
8.4415185
8.4406784
8.4969078
8.4977181
8.4992103
8.5016171
8.5050878
8.5097016
8.5155248
8.5225489
8.5304807
8.5384476
8.5450108
8.6004993
8.5941086
8.5863577
8.5786428
8.5718055
8.5661328
8.5616371
8.5582556
8.555916
8.5544752
8.5537021
8.6110835
8.6118126
8.6131907
8.6154457
8.6187136
8.6230593
8.6285426
8.6351494
8.6426032
8.6500954
8.6562818
8.7124404
8.706477
8.6992748
8.6921176
8.6857787
8.6805195
8.6763533
8.6732219
8.6710677
8.6697637
8.6690853
8.7277511
8.7283728
8.7295941
8.7316337
8.7346102
8.7385739
8.7435831
8.7496285
8.7564696
8.7633687
8.7691082
8.8264469
8.820914
8.8143102
8.8077859
8.8020425
8.7972972
8.7935499
8.7907408
8.7888256
8.7876946
8.7871344
8.8472927
8.8477882
8.8488239
8.850608
8.8532434
8.85677
8.8612518
8.8667017
8.8729274
8.8792627
8.8846182
8.9437742
8.9385601
8.9324519
8.9264907
8.9213095
8.9170776
8.9137658
8.911303
8.909651
8.9087129
8.9082844
8.9701637
8.9705246
8.9713654
8.9728881
8.9751861
8.9782987
8.9823057
8.9872556
8.9929984
8.99893
9.0040403
8.9652029
8.9092998
8.8535897
8.7978998
8.7421272
8.6862442
8.6302965
8.5743803
8.5186132
8.4631129
8.4079846
22.67352
22.956801
33.322639
34.772749
43.74126
46.312431
60.420364
54.180752
46.44142
50.555859
54.577249
36.782751
36.272418
35.136981
34.380127
33.614117
31.112843
31.373176
30.201448
28.337533
28.592516
29.003502
29.534604
30.183824
30.92761
31.73093
32.594061
33.497014
34.45185
35.443363
36.48329
37.553317
38.668951
39.81302
41.001066
42.215496
43.470273
44.744878
46.051152
47.364261
48.688314
35.645448
35.855029
36.328499
36.383571
36.144031
36.03768
35.173627
35.009475
34.326722
34.193876
33.621138
33.511332
33.110329
32.997741
32.605669
32.585087
32.05718
31.69053
31.520225
31.644385
31.973674
32.152124
32.456258
32.640187
33.088883
33.317424
33.840499
34.119619
34.760759
34.933839
35.071141
34.959472
34.556416
34.176836
35.029402
35.319639
35.74455
35.818046
35.614382
35.474253
34.701062
34.483547
33.868451
33.691503
33.169858
33.026265
32.671753
32.529941
32.179382
31.828698
32.172317
32.339777
32.662081
32.83385
33.309557
33.522085
34.078474
34.338663
35.029006
35.193909
35.359656
35.26763
34.872456
34.534819
33.658454
33.909248
34.173234
34.215338
33.969782
33.787181
33.058577
32.798663
32.23375
32.017291
31.52413
31.371207
31.158041
31.072174
30.802111
30.56309
28.333679
28.04394
23.768183
24.549179
20.469761
19.463284
19.52611
18.741388
18.825917
18.191171
18.280207
17.726413
17.783847
17.325877
17.390254
16.954572
17.027519
16.664817
16.754398
16.515432
16.654455
16.772466
17.93748
18.627733
18.707956
18.77013
18.892226
19.030044
19.275346
19.519176
19.859049
20.14818
20.500936
20.807772
21.239248
21.600877
22.102154
22.526087
23.178871
27.12661
26.420017
25.861646
25.332926
24.786837
24.198742
23.727495
23.245957
22.738938
22.209659
21.751219
21.375165
21.085456
20.841435
20.61874
20.323013
22.376706
22.531026
22.835888
23.143327
23.455746
23.851453
24.378716
25.06997
24.944219
24.543958
24.450954
24.127153
24.056156
23.780245
23.728636
23.486096
23.602956
22.799732
20.783524
20.281666
19.212191
18.984664
20.016009
18.822501
20.326806
20.611647
22.597736
22.248804
22.3648
22.577701
22.51817
22.090199
23.887955
24.213964
24.436427
24.732172
27.35899
27.01447
26.23336
26.788993
25.896813
24.647741
24.739345
24.953914
25.115486
25.269626
25.427861
25.591847
25.758331
25.934104
26.121719
26.337391
26.548705
26.637033
26.764984
27.054866
27.296584
27.327357
27.673885
27.715494
28.1158
28.157051
28.516915
28.532343
28.470983
28.4285
27.936925
27.851459
27.174597
27.063325
26.372556
26.260865
25.65012
25.532719
24.907954
24.787788
24.1966
24.075835
23.529881
23.42185
22.980327
22.888706
22.537666
22.467444
22.226745
22.173946
21.990229
21.946325
21.781199
21.731324
21.518329
21.454842
21.181373
21.109349
20.839613
20.774493
20.556834
20.505173
20.336673
20.298444
20.18785
20.1634
20.097416
20.084779
20.057819
20.052894
20.048769
20.049793
20.06171
20.065726
20.086826
20.094315
20.129524
20.14082
20.193671
20.212802
20.301201
20.335687
20.502801
20.570383
20.900013
21.034486
21.675744
21.901885
22.885822
23.239459
24.682305
25.185485
25.907997
26.784828
27.642914
28.053287
29.814174
30.196033
30.613728
31.090205
31.354705
31.919955
32.222021
33.036855
33.502444
34.378361
34.753835
34.599497
34.313677
34.246877
33.914327
33.44868
32.907604
32.471507
32.002927
31.564574
30.993802
30.626789
29.92225
29.370793
27.878941
27.241507
26.578634
26.24568
25.037976
24.3544
23.129577
22.595405
21.767468
21.425834
20.88554
20.682117
20.405028
20.302394
20.159074
20.106979
20.033308
20.004845
19.961479
19.944152
19.915169
19.903848
19.887388
19.88137
19.87238
19.870748
19.875136
19.881832
19.904854
19.92378
19.979907
20.016341
20.10883
20.165208
20.305799
20.384332
20.564826
20.662152
20.88767
20.996303
21.220668
21.316539
21.496443
21.57191
21.710892
21.778401
21.935271
22.01576
22.217028
22.32541
22.621669
22.763137
23.133298
23.303556
23.766966
23.95746
24.456226
24.651564
25.190918
25.381835
25.9079
26.095972
26.701797
26.890127
27.486387
27.636148
28.07977
28.154591
28.224066
28.201827
27.891862
27.818891
27.48143
27.40939
27.107306
26.832676
27.100419
27.193367
27.483379
27.576944
27.845591
27.873043
27.800131
27.698478
27.298975
27.10142
26.570411
26.326231
25.784794
25.545366
25.080284
24.839174
24.361156
24.120529
23.687526
23.454062
23.045692
22.838455
22.516137
22.344996
22.083463
21.953279
21.77692
21.680303
21.53907
21.457753
21.334204
21.244389
21.084852
20.971685
20.77981
20.652879
20.456901
20.342707
20.186101
20.092679
19.968823
19.902525
19.821497
19.778635
19.728532
19.705857
19.684818
19.676448
19.671024
19.672277
19.67946
19.686602
19.700206
19.712974
19.737393
19.757657
19.795462
19.829137
19.894192
19.956271
20.084887
20.206908
20.453745
20.694956
21.175591
21.578981
22.311722
22.938962
24.037125
24.809956
25.937503
26.893767
27.200204
27.513963
28.937195
28.509835
28.083316
28.06299
26.645948
25.840903
24.590203
23.885347
22.63382
22.069197
21.312949
20.955018
20.43438
20.215498
19.959509
19.852201
19.714348
19.656732
19.588978
19.560795
19.523992
19.505046
19.481658
19.472345
19.46234
19.45504
19.449881
19.450702
19.461302
19.467921
19.491756
19.513833
19.570997
19.607763
19.691825
19.752494
19.886322
19.966317
20.12522
20.22697
20.432835
20.54119
20.729985
20.829801
21.005718
21.083758
21.214838
21.28941
21.455969
21.5407
21.726373
21.843244
22.136047
22.284596
22.616613
22.798655
23.24461
23.44495
23.878473
24.084904
24.59689
24.799801
25.258797
25.458737
26.012155
26.208447
26.695621
26.848621
27.181366
27.249507
27.275748
27.243639
26.908224
26.814297
26.511675
26.427035
26.098365
26.03905
26.005996
26.660659
26.921083
27.130983
27.231739
27.568452
27.920962
28.686556
29.137359
29.447193
29.722191
29.991456
30.264082
30.537192
30.814169
31.095694
31.399415
31.748288
31.568082
31.294055
31.248958
30.84541
30.512641
30.226946
29.958947
29.703663
29.448735
29.19304
28.934254
28.646176
28.251891
27.700142
28.412405
28.818764
29.105548
29.364735
29.620636
29.878449
30.133968
30.395572
30.666564
30.963995
31.216574
30.910213
30.628703
30.355014
30.086231
29.818014
29.554108
29.285608
28.986561
28.558477
27.777194
27.666636
27.52832
26.211473
25.880176
26.343643
26.444933
26.921821
27.028035
27.539226
27.660731
28.263148
28.418698
29.212969
29.53147
27.442481
22.983894
22.159116
21.941491
21.268427
21.08168
20.539602
20.386336
21.723995
20.412472
20.071929
21.223728
19.965177
19.6034
20.671067
19.522258
19.233177
21.064968
21.302806
21.721899
24.003983
23.4519
23.253514
23.939442
23.864114
24.559372
24.996044
25.13199
25.267863
25.404362
25.54589
25.696906
25.859281
26.050302
26.29512
26.440189
26.442935
26.512392
26.624996
26.891261
27.105677
26.969091
27.058845
27.372797
26.086582
23.864433
23.126215
22.690796
22.08969
24.384135
25.247116
25.88416
26.536055
26.817229
26.941721
26.883392
26.743824
26.658214
26.664126
26.787028
26.703918
26.733408
26.542792
26.798821
26.544872
25.974843
25.796281
25.708898
25.214932
25.08149
24.73043
24.611945
24.284634
24.198459
24.864224
24.710699
24.730499
25.152867
25.292697
25.431376
25.576599
25.727676
25.885689
26.061363
26.263268
26.305338
26.092993
25.911237
25.741829
25.583119
25.428816
25.279565
25.133195
24.98363
25.012451
24.832858
24.827722
24.771019
26.434439
26.997557
24.392254
24.161191
23.816144
23.615043
22.323019
21.877075
21.945621
19.692203
15.846626
12.304338
10.442121
9.543356
9.1153938
8.9075268
8.7998529
8.7400015
8.7058492
8.7617484
8.7604932
8.7045973
8.6485942
8.5925985
8.5367442
8.4811608
8.4259618
32.005942
40.183885
42.959874
30.38635
30.554656
26.069554
26.522159
26.255475
27.694753
27.722955
28.13749
23.653294
23.924372
24.123439
24.33781
24.733419
25.100961
25.628234
26.092703
26.714976
27.236648
27.913807
28.461771
29.168813
29.72209
30.44008
30.979528
31.686628
32.184046
32.847037
33.267056
33.843657
34.134508
34.560958
20.987916
20.637705
21.292692
20.848781
21.403364
20.892158
21.352629
20.796336
21.171547
20.589122
20.889385
20.295082
20.529451
19.934177
20.111096
19.523741
19.651803
19.089032
19.187914
18.714049
18.845447
18.445468
18.561252
18.393771
23.274634
20.887403
21.306419
21.755103
21.812685
21.75618
30.020338
15.777039
15.854708
15.91946
16.024003
16.178151
16.225939
16.279522
16.363592
16.47641
16.591233
16.670452
16.693189
16.641851
16.500905
16.259295
15.908713
15.443006
10.74017
10.836354
10.919979
10.989304
11.044573
11.087699
11.121315
11.148312
11.170155
11.184117
11.196122
11.217543
11.234043
11.252039
11.2619
8.4062293
8.4240344
8.479229
8.4613563
8.5168555
8.5348084
8.5689777
8.5709525
8.5153475
8.4601548
8.5224679
8.5773465
8.6892422
8.6354579
8.8549656
8.9065538
8.9147257
8.691135
8.577001
8.522145
8.5206019
8.4582013
9.3107961
9.3223499
9.333097
9.3442942
9.3582417
9.3717165
9.3839152
9.3945575
9.4040628
9.4128843
9.4213264
9.4296379
9.4382289
9.4477284
9.4589333
9.1419259
9.0946348
9.0494207
9.0060922
8.9644082
8.9240951
8.8848457
8.8463287
8.8082469
8.770404
8.7327775
8.695494
8.658832
8.6234795
8.5889677
8.3378919
8.3843189
8.4316626
8.4797826
8.528545
8.5778232
8.6275253
8.6776255
8.7282016
8.7794028
8.8314284
8.8844826
8.9387436
8.9943556
9.0514144
33.664722
34.047205
34.430971
34.557233
34.440553
34.259961
33.666372
33.371158
32.882593
32.639965
32.216526
32.023481
31.652291
31.332533
31.03781
30.748568
30.46452
30.182484
29.903976
29.619583
29.296076
28.824202
28.149199
28.990207
29.478428
29.811021
30.1016
30.384509
30.66975
30.955517
31.245
31.53759
31.852933
32.250682
31.913184
31.600274
31.292881
30.991088
30.690467
30.392924
30.089247
29.742247
29.242704
28.580485
29.475523
29.986094
30.341307
30.651365
30.953668
31.257722