/*--------------------------------*- C++ -*----------------------------------*\
| =========                 |                                                 |
| \\      /  F ield         | OpenFOAM: The Open Source CFD Toolbox           |
|  \\    /   O peration     | Version:  v2012                                 |
|   \\  /    A nd           | Website:  www.openfoam.com                      |
|    \\/     M anipulation  |                                                 |
\*---------------------------------------------------------------------------*/
FoamFile
{
    version     2.0;
    format      ascii;
    class       volScalarField;
    location    "158";
    object      p;
}
// * * * * * * * * * * * * * * * * * * * * * * * * * * * * * * * * * * * * * //

dimensions      [0 2 -2 0 0 0 0];


internalField   nonuniform List<scalar> 
14948
(
-2.7738362
-2.7377998
-2.5681822
-2.5134307
-2.4782529
-2.3756029
-2.3039565
-2.285687
-2.1564426
-2.0808599
-2.0329769
-1.939587
-1.8262011
-1.7683698
-1.6690254
-1.5314352
-1.4505039
-1.3030467
-1.1795786
-1.0842494
-0.99424155
-0.87657135
-0.75829591
-0.64944892
-0.5671494
-0.448384
-0.30328798
-0.17863512
-0.042037819
0.15922042
0.33186554
0.60098685
0.88343171
1.3666361
1.8031077
4.1584563
2.4263672
1.155752
1.1471535
0.9161312
0.69079968
0.544293
0.4403646
-0.15302258
-0.17858593
-0.21031489
-0.24980555
-0.2989098
-0.3584525
-0.42805603
-0.50616493
-0.59044892
-0.67870269
-0.76835207
-0.85644582
-0.94054645
-1.0182965
-1.0873362
-2.7700258
-2.7316562
-2.7409025
-2.7375881
-2.7407867
-2.7408252
-2.7466507
-2.7554335
-2.7636653
-2.7731542
-2.7844458
-2.7927039
-2.7993616
-2.8112593
-2.8207794
-2.8321427
-0.95865111
-0.83869788
-0.72179979
-0.61041114
-0.50673413
-0.41269275
-0.3294128
-0.25727161
-0.1960149
-0.14495668
-0.10313416
-0.097621195
-0.13875987
-0.18923695
-0.25009955
-0.32213218
-0.40570283
-0.50049706
-0.60535829
-0.7183055
-0.83703006
-0.95898621
-0.96008928
-0.83372784
-0.71096899
-0.59454327
-0.48701093
-0.39050115
-0.30625626
-0.23444869
-0.17444285
-0.12523548
-0.085594282
-0.06541911
-0.10241681
-0.14933159
-0.20771475
-0.27896195
-0.36424747
-0.46369187
-0.57583739
-0.69825149
-0.827914
-0.96176175
-0.96379943
-0.81869771
-0.67852119
-0.54692869
-0.42770266
-0.32380051
-0.23723514
-0.16727211
-0.11171202
-0.068543737
-0.035738239
0.0040024105
-0.022630753
-0.060038598
-0.110884
-0.17811161
-0.26588983
-0.37621452
-0.50564517
-0.65031048
-0.80527827
-0.96593134
-0.96763561
-0.78663581
-0.6117919
-0.4490878
-0.3052014
-0.18568813
-0.097465052
-0.035685269
0.0074524001
0.036128909
0.05383304
0.11295019
0.10702184
0.090331643
0.058841555
0.0072121728
-0.079309791
-0.21231184
-0.37669741
-0.56375176
-0.76440914
-0.97078129
-0.97471005
-0.73721178
-0.50305196
-0.28237242
-0.087661387
0.06625661
0.14587853
0.17824356
0.19035135
0.18866879
0.17863297
0.25096448
0.28142093
0.30579477
0.31776184
0.31579586
0.25456099
0.06606721
-0.17560607
-0.44251903
-0.71776189
-0.99147289
-2.1389887
-1.8795873
-1.6002859
-1.3087451
-1.0025865
-0.68530127
-0.35361085
-0.020465965
0.29664822
0.54510973
0.53918671
0.47677129
0.42223279
0.36844304
0.31516533
0.38040969
0.46053453
0.55510976
0.67409154
0.82049945
0.86184337
1.0528287
1.3643341
1.3677928
1.2902194
1.2145257
1.7885147
2.3836981
1.5509692
1.1344749
0.74414786
0.55071613
0.33648298
0.15838667
-0.018437588
-0.16396715
-0.29874287
-0.43592431
-0.55289531
-0.60902984
-0.68899014
-0.68335671
-0.78585228
-0.90305655
-0.98165206
-0.86251244
-1.0568577
-1.2242175
-1.3837972
-1.5374173
-1.6318054
-1.7268078
-1.8031293
-1.9003772
-1.9818671
-2.0575189
-2.1345199
-2.2302818
-2.2849829
-2.33391
-2.3933073
-2.3598741
-2.4415219
-2.5060961
-2.6260879
-2.650359
-2.5337332
-0.93349476
-0.89266028
-0.84485338
-0.79169267
-0.73489866
-0.67607423
-0.6168083
-0.55856163
-0.50229525
-0.44878809
-0.39875976
-0.3526405
-0.31064822
-0.27282362
-0.23906243
-0.23771811
-0.23484368
-0.23020126
-0.22376144
-0.2157088
-0.20638916
-0.19624286
-0.18562305
-0.17486997
-0.1642176
-0.15385553
-0.1438823
-0.09188964
-0.097307523
-0.10314907
-0.10939213
-0.11602255
-0.12303598
-0.13043781
-0.13825065
-0.14650046
-0.15522861
-0.16445042
-0.17420033
-0.18444319
-0.19513079
-0.20615505
-0.21732027
-0.22836496
-0.23892135
-0.24861189
-0.25697377
-0.26365314
-0.26846055
-0.27143624
-0.30925602
-0.30625885
-0.30141367
-0.29466913
-0.28620866
-0.27638228
-0.26566072
-0.25443476
-0.24309139
-0.2319154
-0.2211036
-0.21077244
-0.20095186
-0.19166806
-0.18287098
-0.17453407
-0.16660808
-0.15906261
-0.1518762
-0.14504558
-0.13858083
-0.13250231
-0.12683981
-0.12163312
-0.11693502
-0.1128242
-0.10939471
-0.10672819
-0.10486336
-0.10368283
-0.14554169
-0.14679155
-0.14876904
-0.15158734
-0.15520876
-0.1595359
-0.16446649
-0.16990936
-0.17580322
-0.18209801
-0.18875528
-0.19574511
-0.20305
-0.21066677
-0.21861409
-0.22692114
-0.23564375
-0.2448146
-0.25450023
-0.26468044
-0.27534604
-0.28637374
-0.29757186
-0.30864035
-0.31918717
-0.32882619
-0.33709643
-0.34367085
-0.34838175
-0.35129331
-0.39751949
-0.39482777
-0.39046787
-0.3843617
-0.37664928
-0.36761376
-0.35768146
-0.34721118
-0.3365805
-0.32609125
-0.31592066
-0.30619606
-0.29690599
-0.28806531
-0.27959618
-0.27146313
-0.2636103
-0.25601254
-0.24865978
-0.24156461
-0.2347561
-0.22827538
-0.22217272
-0.21650945
-0.21135728
-0.20682092
-0.20301151
-0.20004423
-0.19795358
-0.19663663
-0.25792817
-0.25930655
-0.26150714
-0.26461486
-0.26860095
-0.27333093
-0.27868466
-0.28454177
-0.29081928
-0.29744177
-0.30434595
-0.31147524
-0.31878631
-0.32625157
-0.33386811
-0.34164983
-0.34964706
-0.35789057
-0.3664651
-0.3753577
-0.3846009
-0.39406727
-0.40360834
-0.41294071
-0.42172416
-0.42965525
-0.43637199
-0.44165783
-0.44541305
-0.44772823
-0.50149547
-0.49973123
-0.4968642
-0.49279382
-0.48756401
-0.48130308
-0.47427856
-0.46670893
-0.45886822
-0.45099679
-0.44319538
-0.43558402
-0.42810661
-0.42077862
-0.41351481
-0.40629649
-0.3990882
-0.39189466
-0.38473818
-0.37766653
-0.370742
-0.36403896
-0.35763724
-0.35162779
-0.34610623
-0.34120982
-0.33706839
-0.33383598
-0.33153431
-0.33010266
-0.41341181
-0.41488522
-0.41727228
-0.42060396
-0.42486713
-0.42988757
-0.43552614
-0.44162747
-0.44808299
-0.45478363
-0.46163148
-0.4685309
-0.47539572
-0.482153
-0.48875219
-0.49516181
-0.50139234
-0.50744171
-0.51338623
-0.51920398
-0.52498172
-0.53061669
-0.53607873
-0.54119761
-0.54579835
-0.54977739
-0.55299033
-0.55541679
-0.5570871
-0.55811038
-0.6167754
-0.61664256
-0.61641313
-0.61599042
-0.61530946
-0.6142418
-0.61275833
-0.61081358
-0.60844302
-0.60572032
-0.60258333
-0.59910485
-0.59516112
-0.59078365
-0.58591487
-0.58058624
-0.57482452
-0.56869573
-0.56228704
-0.55570097
-0.54905122
-0.54245872
-0.53604169
-0.52992852
-0.52424224
-0.51915611
-0.5148178
-0.51142285
-0.50897316
-0.50747402
-0.61115712
-0.61265864
-0.61513798
-0.61854555
-0.62289282
-0.62796305
-0.63360237
-0.63961885
-0.6458753
-0.65222333
-0.65852197
-0.66461733
-0.67036943
-0.67564376
-0.68031206
-0.68426566
-0.68742983
-0.68973532
-0.69121128
-0.69181336
-0.6917069
-0.69086393
-0.6894851
-0.68765227
-0.68546866
-0.68314127
-0.68087759
-0.6789238
-0.67744923
-0.67653131
-0.73591901
-0.7380471
-0.74148458
-0.74616166
-0.75181436
-0.75805186
-0.764468
-0.77067687
-0.77637584
-0.78132357
-0.78516645
-0.78787962
-0.78925261
-0.78934468
-0.78816416
-0.78582407
-0.78245692
-0.77822207
-0.77329654
-0.76785943
-0.76209913
-0.75617547
-0.75024616
-0.74447719
-0.73901828
-0.73407884
-0.72981701
-0.72646883
-0.72400847
-0.72253724
-0.83942239
-0.84084067
-0.84324402
-0.84647543
-0.850576
-0.8552915
-0.86046059
-0.86585872
-0.87132346
-0.87667162
-0.88172623
-0.88629777
-0.89016765
-0.89311682
-0.89491881
-0.89536237
-0.8942523
-0.89142411
-0.88682484
-0.88037653
-0.87233422
-0.86278176
-0.85223628
-0.84110589
-0.82994128
-0.81933929
-0.80993942
-0.8022991
-0.7967456
-0.79331712
-0.84710278
-0.85188057
-0.85963208
-0.87035836
-0.88366083
-0.8988297
-0.91499241
-0.93134571
-0.94709869
-0.96162711
-0.97422135
-0.98473583
-0.99287884
-0.99874931
-1.0024534
-1.0042094
-1.0042789
-1.0029225
-1.0004113
-0.99699589
-0.99290659
-0.9883751
-0.98359929
-0.97877803
-0.97408425
-0.96975381
-0.96594696
-0.96293446
-0.96065833
-0.95933757
-1.0989283
-1.0898252
-1.0779697
-1.0632455
-1.0459692
-1.0263459
-1.0052803
-0.98360917
-0.96238607
-0.94261726
-0.92540589
-0.91160171
-0.9016612
-0.89553651
-0.93695588
-0.94434132
-0.95634203
-0.97305412
-0.99397768
-1.0181423
-1.0442348
-1.071067
-1.097322
-1.1219629
-1.1438957
-1.1628537
-0.9597457
-0.83784337
-0.7191463
-0.60622039
-0.50136063
-0.40654785
-0.32294447
-0.2508715
-0.18996454
-0.13943971
-0.098253363
0.44376556
0.56057474
0.74684649
0.94436841
1.0963524
2.2709684
3.8940278
1.7509288
1.1560968
0.71346894
0.48728451
0.28221739
0.11005884
-0.043841517
-0.19179234
-0.32443158
-0.43604069
-0.55937225
-0.68455728
-0.75083819
-0.75173111
-0.75223357
-0.75283623
-0.74761574
-0.7476439
-0.75730331
-0.76579954
-0.76832211
-0.77345282
-0.7799013
-0.78600061
-0.7921699
-0.79839102
-0.80980052
-0.81627977
-0.81099805
-0.8285243
-0.84183392
-0.83220415
-0.83369739
-0.84351432
-0.85091276
-0.85811697
-0.86771816
-0.87544047
-0.87946346
-0.88614709
-0.89229448
-0.89672764
-0.90230766
-0.9110665
-0.91595581
-0.92147796
-0.93045824
-0.94015825
-0.95581254
-0.97898805
-0.97762048
-0.97536208
-0.99953262
-1.0065159
-1.0019039
-1.0148091
-1.0276296
-1.0345977
-1.0373302
-1.0434139
-1.056498
-1.0745819
-1.0904695
-1.0999382
-1.1064356
-1.1146297
-1.1258228
-1.1365026
-1.1474692
-1.1547461
-1.1629568
-1.1857885
-1.1972867
-1.1852713
-1.1975817
-1.2235207
-1.2426999
-1.2441278
-1.2596096
-1.2676608
-1.2838114
-1.3010212
-1.3207857
-1.3381602
-1.3643951
-1.3715156
-1.5290107
-1.5020629
-1.5396004
-1.5271299
-1.5115615
-1.4793332
-1.4898163
-1.4515452
-1.4118987
-1.3179201
-1.2892242
-1.2704057
-1.2389256
-1.2384847
-1.2382104
-1.2381166
-1.2265841
-1.20529
-1.1860787
-1.1790829
-1.1673424
-1.1565081
-1.1501053
-1.1429871
-1.123013
-1.1116924
-1.0983678
-1.0899815
-1.0810243
-1.0706261
-1.0596817
-1.0450974
-1.0281663
-1.0155708
-1.0108894
-1.0091483
-1.0037817
-0.98847168
-0.96811559
-0.95474895
-0.95375505
-0.94906312
-0.93667304
-0.92603545
-0.90640269
-0.88912402
-0.88825313
-0.88993263
-0.89155305
-0.88610932
-0.87906045
-0.86657513
-0.85685379
-0.85016329
-0.84013814
-0.82818816
-0.82170139
-0.81292042
-0.80054372
-0.79257569
-0.79110991
-0.78483568
-0.77858513
-0.77544081
-0.76813448
-0.75623074
-0.76063775
-0.75838044
-0.73994695
-0.73207327
-0.73163694
-0.7265157
-0.72358459
-0.72022904
-0.71739876
-0.7109123
-0.70114491
-0.69447378
-0.6920567
-0.68909035
-0.68852305
-0.68937905
-0.68861176
-0.56135894
-0.44079172
-0.3268412
-0.1963173
-0.051001717
0.10047127
0.2814309
0.48103313
0.71596762
1.1585312
0.8879235
0.63141518
0.49118842
0.42095282
0.37797497
0.36654933
0.36017805
0.35833579
0.3576545
0.3536691
0.34598591
0.33814213
0.33307429
0.33212052
0.32853166
0.31277014
0.31211437
0.32648385
0.30718336
0.29417925
0.30277176
0.29677155
0.28743338
0.28165848
0.2740333
0.26399123
0.26420106
0.26449614
0.24208994
0.23446529
0.24154668
0.23295165
0.22477296
0.22290683
0.21950477
0.21244842
0.20275363
0.18692336
0.172751
0.17360445
0.17022838
0.15009424
0.14844455
0.15625098
0.14381562
0.12992518
0.12216538
0.12100038
0.11788142
0.11039579
0.10163489
0.092275882
0.081629902
0.070698256
0.063730067
0.058780762
0.053901533
0.043612116
0.031119584
0.017104903
0.0027308807
-0.0097289067
0.002684356
-0.0016951177
-0.028335638
-0.040500498
-0.042954213
-0.05675617
-0.074048416
-0.092029384
-0.098546088
-0.11102599
-0.13037335
-0.15070056
-0.16871226
-0.19322552
-0.21216521
-0.22039112
-0.21827599
-0.16214653
-0.097807824
-0.11946499
-0.066726566
-0.05454645
-0.040292528
-0.03012621
-0.01876171
0.0049206681
0.022695011
0.05542468
0.080809895
0.099641259
0.090285004
0.092140379
0.11348256
0.12237669
0.097450286
0.10646995
0.14410908
0.15318856
0.1547445
0.15480871
0.1536023
0.16205042
0.1765724
0.18970749
0.19534317
0.19808768
0.2024596
0.20760761
0.21473806
0.22487731
0.2386156
0.25196911
0.25752795
0.25500601
0.25146457
0.26629625
0.28224617
0.29595994
0.30810272
0.30774687
0.30476223
0.30000877
0.30215871
0.30698804
0.31977345
0.33569817
0.33842838
0.33657386
0.35331954
0.35960288
0.35290357
0.36824934
0.38710572
0.38709929
0.38994515
0.3946628
0.3992294
0.40188197
0.40741171
0.40495387
0.40569894
0.42275486
0.43757739
0.43891823
0.44586845
0.45548638
0.45557129
0.44910583
0.45022559
0.45508088
0.45914256
0.46491438
0.47143431
0.483462
0.65681059
0.90554461
1.2188978
0.91461272
0.65740601
0.65946239
0.92604353
1.2461883
0.9178949
0.66143707
0.66917045
0.91418502
1.2541929
0.92039866
0.66995976
0.66266882
0.92845329
1.2434998
0.92532679
0.65518065
0.64888353
0.92044056
1.2422272
0.91411853
0.64839281
0.64944189
0.90625499
1.2342971
0.9042545
0.65888558
0.65384735
0.90445714
1.2270618
0.90383441
0.63426255
0.63893069
0.90266974
1.2168792
0.89090036
0.64315372
0.62154418
0.88014813
1.2149308
0.87865311
0.60855701
0.60310246
0.87576821
1.2050811
0.87233643
0.60011331
0.59289727
0.86661625
1.1960711
0.85747188
0.58520283
0.58681508
0.84927269
1.1870345
0.84093016
0.59021239
0.59030804
0.83459793
1.1767624
0.82912541
0.58544509
0.57137592
0.82528145
1.164434
0.82390894
0.56081405
0.54799884
0.81736876
1.1538316
0.81071417
0.54368618
0.53770061
0.80391949
1.1425262
0.79677982
0.53206865
0.52091959
0.79077947
1.1301955
0.79342374
0.50525824
0.48489189
0.79439544
1.1189482
0.78563229
0.46365504
0.47051915
0.77164787
1.1100864
0.74975417
0.49717999
0.49205793
0.74134928
1.0934601
0.74510074
0.48076567
0.46883083
0.74136121
1.0806384
0.73763557
0.45673899
0.44738935
0.73375365
1.0676878
0.73343795
0.44557066
0.44128071
0.72591762
1.0543802
0.71547059
0.43478804
0.4297776
0.70486969
1.0454209
0.69619137
0.42513714
0.41290647
0.69376966
1.033147
0.69443659
0.398994
0.38941272
0.68930055
1.0191534
0.67898356
0.39009006
0.39180898
0.66714599
1.0080817
0.65661361
0.38541309
0.37050273
0.65345827
1.0003276
0.64680712
0.35311756
0.35363653
0.6282596
0.98921288
0.6193177
0.35408085
0.34526513
0.62843691
0.9703036
0.61800851
0.33907604
0.31995067
0.60079561
0.94746782
0.60830277
0.30159791
0.29670923
0.60332318
0.92229935
0.57403352
0.28994353
0.28447715
0.55055573
0.89832125
0.52654502
0.27655448
0.25589832
0.53149637
0.86999126
0.50955063
0.24379222
0.23990469
0.48318814
0.82705488
0.44181985
0.22223207
0.18626636
0.43701145
0.75366856
0.40920973
0.15010442
0.094021594
0.40057219
0.66753942
0.39576379
0.083314189
0.052245293
0.30213622
0.39116919
0.46629861
0.76370172
0.43585613
0.47293333
0.59245495
0.43070573
0.916495
0.58674917
0.98746611
1.0116142
1.1684575
1.306902
1.396573
1.4614543
1.5096079
1.5448393
1.5671604
1.5878615
1.6042466
1.6188656
1.6317932
1.643025
1.6508733
1.662909
1.6704233
1.6789005
1.6934507
1.7119755
1.7276767
1.7409881
1.7569214
1.7716107
1.7840003
1.7953009
1.8083355
1.8208387
1.8348296
1.8459723
1.8564327
1.865429
1.8737157
1.8787421
1.8834412
1.885792
1.8812918
1.8566101
1.8217461
1.7594353
3.8730447
2.3007018
1.0996185
2.3235489
3.9032175
3.9005697
2.3286634
1.1247346
2.3369423
3.9040514
3.8919611
2.3363378
1.1284848
2.3410912
3.8823021
3.8662706
2.338291
1.1267136
2.3355049
3.8535689
3.8404702
2.3298541
1.1189931
2.3228567
3.8287794
3.8165485
2.3148686
1.1075156
2.3046683
3.8053449
3.7937683
2.2953614
1.0943928
2.2821804
3.7832177
3.7726054
2.2708595
1.0805222
2.2561212
3.7619718
3.7495434
2.243849
1.0664586
2.2290973
3.738411
3.7254356
2.2166264
1.0524958
2.2008576
3.7133438
3.7029452
2.1875215
1.038586
2.1713823
3.6925194
3.6786365
2.159748
1.0235841
2.1454407
3.6615343
3.6448545
2.1351551
1.0089479
2.1214143
3.6280404
3.6128752
2.1128584
0.99629752
2.0996691
3.5960002
3.5811962
2.0941843
0.98782248
2.0821341
3.5652329
3.5526582
2.0793635
0.98888643
2.0648195
3.5388836
3.5239522
2.0597607
0.99684729
2.0368361
3.504089
3.4752492
2.0391697
1.0770953
2.0339477
3.4189927
3.3100887
1.8474055
1.130845
1.1006974
1.052877
0.92429248
0.86740051
0.8593256
0.85610465
0.86229314
0.87172918
0.88367423
0.89709365
0.91092926
0.92423655
0.93660277
0.94773195
0.95773998
0.96583457
0.97146751
0.97270498
0.97292195
0.96114476
0.76054189
0.55856544
0.43971346
0.44066758
0.56191001
0.76656896
0.76320076
0.55802407
0.43618347
0.43227884
0.5536995
0.75895384
0.75119758
0.54656028
0.42634287
0.41983683
0.5386359
0.74192925
0.73112157
0.52966193
0.41241734
0.33136314
0.3243691
0.40462594
0.52018649
0.7193917
0.70707977
0.51042106
0.39650797
0.3170806
0.30980557
0.38841594
0.50078546
0.69472032
0.68272061
0.49158442
0.38063158
0.30276553
0.29623349
0.37355734
0.48334939
0.67195653
0.66312115
0.47671346
0.36769301
0.29053697
0.28596727
0.36379517
0.47288583
0.65741819
0.65605275
0.47332391
0.36295176
0.28334185
0.28137543
0.36525217
0.48105157
0.66483547
0.68637178
0.50404433
0.37659325
0.28359183
0.20685344
0.2858224
0.38843654
0.5384714
0.736767
0.82194401
0.88703658
1.0117415
1.0846694
1.0868512
1.1757163
1.1983435
1.8058151
3.3422251
2.5153257
3.0513472
2.3272396
1.9612236
2.1975362
2.1927805
1.6051445
1.7085325
1.5047236
1.2880732
1.2167609
1.1549953
1.1297256
1.2309243
1.0681063
1.1111658
1.1751119
1.2540721
1.4365374
1.4037542
1.6214875
1.9873196
1.6180892
1.3327259
1.1134988
0.92919603
1.249023
1.2330452
1.1073085
1.0528164
0.97271488
1.2995746
1.4319684
1.3071716
1.0269579
0.96845283
0.77591989
0.66484314
0.57511994
0.41472336
0.58365487
0.65007984
0.8720165
1.2445191
2.1384209
1.9907759
2.6120344
3.5840356
2.2909526
0.57028052
-0.13237516
2.2320117
0.38478003
0.92670377
1.267055
1.9187401
1.948857
1.6358289
0.015809529
-0.72987016
0.58813427
-0.040427127
0.55371563
0.27031339
-0.10616721
-0.44373666
-0.73751684
-0.45665668
-0.4892655
-0.66004505
-0.69554721
-0.99471465
-0.85388607
-0.83732074
-1.0552183
-0.97438982
-0.89757958
-0.96991813
-1.09399
-0.99761472
-1.0126639
-1.0626501
-1.0938403
-1.1432544
-1.1666078
-1.1952093
-1.2186455
-1.2545817
-1.2760561
-1.3105613
-1.3340389
-1.3683732
-1.3896964
-1.4245137
-1.4477128
-1.4831104
-1.5055108
-1.5418976
-1.5658802
-1.603504
-1.6277613
-1.6675203
-1.6939507
-1.7363104
-1.7645429
-1.8102973
-1.8421364
-1.8921439
-1.8307422
-1.7802197
-1.7518843
-1.7052742
-1.6796858
-1.6363345
-1.6121902
-1.5715743
-1.5487838
-1.5101354
-1.4874797
-1.4499884
-1.4279257
-1.3913021
-1.3684581
-1.3322247
-1.3098661
-1.2735654
-1.2496593
-1.2127713
-1.1895641
-1.151741
-1.1261334
-1.0884082
-1.0616336
-1.0209682
-0.99971105
-0.95884611
-0.91741845
-0.87432293
-0.82614649
-0.79201012
-0.88272162
-0.75922232
-0.60047446
-0.55389734
-0.85198234
-0.53528726
-0.44262634
-0.38200535
-0.27964338
-0.36413661
-0.13296671
0.11949776
-0.27562236
-0.087042765
-0.18568085
-0.11617026
-0.2547799
-0.38420135
-0.48295025
-0.6016976
-0.81873801
-0.72795762
-0.77628805
-0.87388013
-0.94212274
-0.92004603
-0.96124224
-0.98960602
-1.0130884
-1.043772
-1.0820262
-1.1029977
-1.1424261
-1.165833
-1.2016757
-1.2254364
-1.2617801
-1.2832623
-1.319655
-1.3417388
-1.3779061
-1.3986663
-1.4353449
-1.4568418
-1.4941285
-1.5153139
-1.5539462
-1.5760896
-1.6162575
-1.6387809
-1.6813497
-1.7054512
-1.7511828
-1.7770212
-1.826427
-1.8554462
-1.9093348
-1.874463
-1.7904675
-1.7933015
-1.7153244
-1.7192873
-1.646587
-1.6498677
-1.5825605
-1.5851467
-1.5219047
-1.522475
-1.4616991
-1.4617061
-1.4035148
-1.401232
-1.3449245
-1.3418844
-1.2872138
-1.2810709
-1.2268904
-1.2195586
-1.1661712
-1.1549935
-1.1011152
-1.089006
-1.0326582
-1.0189638
-0.96209285
-0.94185225
-0.88686235
-0.8643177
-0.7975262
-0.79428783
-0.72225599
-0.65871154
-0.57642039
-0.58940801
-0.45762823
-0.36058603
-0.25767063
-0.15196977
-0.022543379
0.12277386
0.060460311
0.13704295
0.15316697
0.41887625
-0.091289403
0.50552741
0.21549642
0.62178168
0.40170121
0.31851732
0.70327797
0.32690459
1.0699891
1.0615223
2.1120675
1.7352945
1.1548094
3.6181044
3.5168676
3.5487563
2.9991895
3.7435895
2.1459007
2.242337
2.0419621
1.9651483
1.9855848
1.4258474
0.71586882
0.64513974
0.66586114
1.6055063
1.8806545
1.8357824
1.931584
1.0471019
1.2182718
1.0918067
1.6941745
1.5395464
1.6671996
1.5249705
1.5516254
1.5310861
1.6406708
1.5852496
1.6142938
1.3295992
0.98765565
0.91757838
0.72541912
0.68349566
0.67129203
0.67013985
0.67602684
0.68523365
0.69652947
0.70866975
0.72055174
0.73190157
0.74239124
0.75185222
0.7603336
0.76786732
0.77430542
0.77897875
0.78504218
0.78157364
0.7960268
0.79919884
0.98551207
0.97982528
0.84951112
0.54995336
0.31950362
0.14635664
0.0075798126
-0.097099605
-0.17753173
-0.23700035
-0.27927403
-0.30699238
-0.23513264
-0.1750801
-0.12582669
-0.086143631
0.41635277
0.51289241
0.63959858
0.66538676
0.56402171
0.42182196
0.30412051
0.18835346
0.089362233
0.0073169007
-0.059689981
-0.11149039
-0.14956699
-0.1026342
-0.06563136
-0.1585278
-0.18519778
-0.21807244
-0.25853565
-0.30797867
-0.36701583
-0.43528556
-0.51145955
-0.59343718
-0.67924965
-0.76648458
-0.85224916
-0.93411201
-1.0096792
-1.0765224
-1.0740896
-1.0076897
-0.93258566
-0.85120802
-0.76595715
-0.67927962
-0.59403278
-0.51260145
-0.43692806
-0.36904246
-0.31022544
-0.2608313
-0.2202701
-0.1872212
-0.16034108
-0.23789033
-0.2353106
-0.23107284
-0.22505652
-0.21737121
-0.20834459
-0.1984688
-0.18836107
-0.17877673
-0.17053738
-0.16431765
-0.19164986
-0.19855277
-0.20764609
-0.21816136
-0.22918726
-0.23989304
-0.24962796
-0.25787595
-0.2643099
-0.268829
-0.27157718
-0.30936256
-0.30652028
-0.30184258
-0.29516342
-0.28657026
-0.27637971
-0.26511277
-0.25343884
-0.24224074
-0.23249629
-0.22505628
-0.26578275
-0.27347375
-0.28350123
-0.29496403
-0.30685558
-0.31827357
-0.3285496
-0.33717824
-0.34386158
-0.34852916
-0.35136372
-0.39755143
-0.39485244
-0.39040718
-0.38402473
-0.37575975
-0.36588264
-0.35486544
-0.34335639
-0.3322344
-0.3224903
-0.31501734
-0.37329838
-0.37999637
-0.38878009
-0.39884586
-0.40926544
-0.41923632
-0.42815138
-0.43559123
-0.44132164
-0.44529984
-0.44771663
-0.50143152
-0.49945301
-0.49620321
-0.49150081
-0.4853776
-0.47801735
-0.46976398
-0.46115796
-0.45286555
-0.44570593
-0.44030592
-0.51486416
-0.51857374
-0.52356245
-0.52945703
-0.53559207
-0.54149406
-0.54672682
-0.5510467
-0.55434343
-0.5566006
-0.55798098
-0.61657104
-0.61591447
-0.61485565
-0.61325717
-0.61112471
-0.60849104
-0.60547469
-0.60233913
-0.59931242
-0.59686476
-0.59506738
-0.67903999
-0.6788172
-0.67850639
-0.67835866
-0.67813734
-0.67788469
-0.67754244
-0.6771401
-0.67676186
-0.67642299
-0.67623395
-0.73550486
-0.73664738
-0.7385588
-0.74115463
-0.74438376
-0.74800518
-0.75181691
-0.75562741
-0.75911735
-0.76224593
-0.76447257
-0.84856851
-0.84444384
-0.83857417
-0.83170808
-0.82420841
-0.81667304
-0.80960802
-0.80341125
-0.79848346
-0.79491765
-0.79276964
-0.84640672
-0.84957797
-0.85482484
-0.86212093
-0.87132328
-0.88185889
-0.89312203
-0.90427399
-0.9144522
-0.9229382
-0.92886587
-1.00295
-0.99530015
-0.98433643
-0.97096672
-0.95628042
-0.94139323
-0.92747676
-0.91534692
-0.90574184
-0.89885469
-0.89468102
-0.93594476
-0.94103842
-0.94943517
-0.96117563
-0.97602243
-0.99309308
-1.0113734
-1.0293836
-1.045766
-1.0590659
-1.0683743
-0.96114702
-0.83936915
-0.72074827
-0.60787147
-0.50302338
-0.40819252
-0.32454767
-0.25241606
-0.19143773
-0.14083228
-0.099562381
0.19709771
0.28666441
0.2892324
0.46087664
0.69777308
1.1121376
1.1196756
0.83575601
0.46874645
0.60863886
0.94538271
0.69098411
1.0704348
0.9627042
1.0818717
0.77433455
0.65738998
0.23888356
0.36983988
0.1604173
-0.027678747
-0.2150017
-0.3890214
-0.5382722
-0.6730386
-0.78485513
-0.88446899
-0.97158813
-1.0523516
-1.1247431
-1.1947648
-1.2591773
-1.3227343
-1.3832625
-1.4450098
-1.5050544
-1.5682079
-1.6330135
-1.7020551
-1.7716188
-1.8473443
-2.7952642
-2.787713
-2.7797086
-2.7713357
-2.7609006
-2.7535321
-2.7442709
-2.7328742
-2.7277444
-2.7240371
-2.7183059
-2.7122186
-2.7051103
-2.7020309
-2.6948194
-2.7065096
-2.5777798
-2.5186245
-2.467881
-2.451324
-2.4588118
-2.4651115
-2.4697164
-2.470282
-2.4714011
-2.4754402
-2.4844886
-2.4898593
-2.495916
-2.5047859
-2.5125347
-2.5184117
-2.5299591
-2.5310181
-2.6664523
-2.659427
-2.6449613
-2.6364326
-2.628822
-2.6203879
-2.6128343
-2.6083259
-2.6014045
-2.5963811
-2.5919337
-2.5878116
-2.5853593
-2.5861783
-2.5874252
-2.510612
-2.5065713
-2.5078591
-2.511016
-2.5147762
-2.5229575
-2.5302157
-2.535836
-2.5428769
-2.5520552
-2.5582158
-2.567139
-2.5750148
-2.5827165
-2.5885948
-2.5113299
-2.50294
-2.4953037
-2.4869543
-2.4805764
-2.4728326
-2.4661486
-2.4591608
-2.4545262
-2.4478329
-2.4431176
-2.440082
-2.4383767
-2.4375788
-2.4385562
-2.4413691
-2.3758622
-2.3818192
-2.281205
-2.4166905
-2.321342
-2.2016954
-2.0503314
-1.9092027
-1.7546152
-1.608102
-1.4491807
-1.2904712
-1.1293358
-0.96288105
-0.7984407
-0.59768716
-0.42650994
-0.20224178
-0.029895005
0.20774041
0.37607758
0.62705189
0.86267477
0.67769387
0.52350829
0.2911317
0.064676043
-0.16517354
-0.38001794
-0.59393542
-0.7884837
-0.98024015
-1.1441826
-1.3225501
-1.479279
-1.6500574
-1.7997805
-1.9648722
-2.1094939
-2.1954894
-2.0336014
-1.8684623
-1.7061045
-1.5288959
-1.3623025
-1.193636
-1.0236088
-0.82537294
-0.60850713
-0.37252816
-0.13176503
0.12384339
0.39046641
0.66191473
0.86861559
1.2087262
0.87762791
0.52648338
0.19523628
-0.097891949
-0.37011493
-0.62911372
-0.53940229
-0.43364229
-0.28074185
-0.159963
0.005223485
0.14436731
0.35021486
0.51215731
0.77877627
0.72421464
0.50320357
0.38240475
0.16300886
0.29096001
0.51272753
0.61568156
0.6823689
0.86062539
0.62924959
0.83142684
1.1913865
1.6304319
1.6950051
1.6333446
1.5012898
1.6995687
1.6100506
1.8887796
1.9185685
2.758166
1.8422942
2.186243
3.856197
1.7394689
1.1557542
0.72411378
0.50009766
0.29537419
0.12332352
-0.037111412
-0.18712811
-0.31518161
-0.43270863
-0.55944162
-0.67783826
-0.75146228
-0.75118905
-0.8369906
-0.98940939
-1.0349165
-1.0352589
-1.0383968
-1.0353917
-1.0347192
-1.0341081
-1.0400789
-1.050855
-1.0554391
-1.0561628
-1.0616767
-1.0676255
-1.071134
-1.0761012
-1.0823227
-1.0934268
-1.1009649
-1.1080625
-1.1103549
-1.1149066
-1.1201628
-1.1258331
-1.1299395
-1.1379762
-1.1447585
-1.1525988
-1.1582317
-1.1643993
-1.1690913
-1.1794053
-1.1890665
-1.2011179
-1.2088831
-1.2179187
-1.2255523
-1.2319282
-1.2356512
-1.2433515
-1.2499092
-1.2479112
-1.25422
-1.2787419
-1.2835552
-1.2874191
-1.2941551
-1.3076854
-1.3165627
-1.3325743
-1.3403724
-1.3517897
-1.3569207
-1.3709494
-1.3802419
-1.3979034
-1.406473
-1.4197351
-1.4260744
-1.4415631
-1.4500896
-1.4729696
-1.4874024
-1.5144784
-1.5081257
-1.5245877
-1.5494829
-1.5730137
-1.5686954
-1.5818125
-1.5965344
-1.6251035
-1.6317322
-1.6137321
-1.7647629
-1.8559071
-1.8604324
-1.9055661
-1.922291
-1.8996109
-2.0395473
-2.1279501
-2.229824
-2.3545173
-2.4392096
-2.5785432
-2.6804913
-2.7023949
-2.7449841
-2.7237644
-2.6714585
-2.7066954
-2.6649516
-2.5496238
-2.4412635
-2.3443072
-2.231812
-2.1016174
-1.9959093
-1.8886348
-1.8695557
-1.8408965
-1.8259719
-1.7801932
-1.7164195
-1.5761909
-1.5916927
-1.5843584
-1.5784413
-1.5577614
-1.5366273
-1.5128965
-1.5021247
-1.482847
-1.4893311
-1.4724325
-1.4426831
-1.4363667
-1.4341875
-1.4232535
-1.4162459
-1.4041831
-1.3894275
-1.3742622
-1.3661574
-1.360927
-1.3531133
-1.3376349
-1.3205693
-1.3063463
-1.2945794
-1.2828858
-1.2743743
-1.2678078
-1.2575172
-1.2377923
-1.2189366
-1.2186152
-1.2074996
-1.1915718
-1.1947722
-1.1942349
-1.1822611
-1.1717595
-1.165957
-1.1627172
-1.1552485
-1.1490652
-1.1460058
-1.1409381
-1.1324497
-1.1241238
-1.1133115
-1.102647
-1.0943158
-1.0859518
-1.0754573
-1.0654937
-1.05622
-1.0585429
-1.0610174
-1.0527877
-1.0454911
-1.0417246
-1.0360053
-1.0294788
-1.02215
-1.0151972
-1.0112303
-1.0048076
-1.002978
-1.0085085
-0.99268532
-0.98508948
-0.9938757
-0.99150804
-0.98938209
-0.83719187
-0.8371062
-0.84347614
-0.85584224
-0.85474105
-0.85218431
-0.85992308
-0.86504846
-0.8665877
-0.87200013
-0.87728318
-0.88034834
-0.88002245
-0.88365907
-0.89312334
-0.89514478
-0.89295251
-0.90244532
-0.91889071
-0.93053481
-0.93316803
-0.93724953
-0.94470905
-0.95026983
-0.95197149
-0.95954011
-0.97149767
-0.97996129
-0.98644335
-0.99835753
-1.0092469
-1.0169105
-1.0257998
-1.0380232
-1.0470453
-1.0539361
-1.062179
-1.0722109
-1.0874067
-1.0988908
-1.0939378
-1.101046
-1.1166551
-1.1244236
-1.1308544
-1.1420789
-1.1559639
-1.1656785
-1.169173
-1.1726482
-1.1811695
-1.1930186
-1.2063303
-1.2197395
-1.2310292
-1.2373365
-1.2451554
-1.2593676
-1.2778078
-1.2821059
-1.2891787
-1.3015179
-1.3149802
-1.3174643
-1.3310536
-1.354912
-1.3768171
-1.3868534
-1.3990641
-1.4038965
-1.4352529
-1.4639331
-1.4805681
-1.5823184
-1.7232235
-1.7116883
-1.5902187
-1.467412
-1.3878121
-1.3891675
-1.3779101
-1.359544
-1.3282432
-1.3258515
-1.3070411
-1.3010126
-1.2734628
-1.2675311
-1.2494577
-1.2477587
-1.2263399
-1.2203112
-1.2073147
-1.2030014
-1.1836786
-1.1764185
-1.1648995
-1.1584869
-1.1423778
-1.1341377
-1.1224071
-1.1148547
-1.1008353
-1.0945471
-1.085744
-1.0784801
-1.0640388
-1.0559258
-1.047077
-1.0403818
-1.026248
-1.0186518
-1.0132599
-1.0054494
-0.99266029
-0.9853987
-0.97778001
-0.97116984
-0.96050194
-0.95254146
-0.9443805
-0.93808919
-0.92728673
-0.91983249
-0.91244132
-0.9062878
-0.89527384
-0.88891667
-0.88296853
-0.87800877
-0.8686906
-0.86362036
-0.85789563
-0.8517467
-0.84119477
-0.83589577
-0.83185423
-0.82828525
-0.82001228
-0.8160658
-0.81281017
-0.80935287
-0.80240535
-0.79839691
-0.79523559
-0.79152578
-0.78588293
-0.78348295
-0.78295274
-0.77894312
-0.77490113
-0.77395635
-0.77491032
-0.77513992
-0.83684519
-0.9880975
-1.0346659
-1.161835
-1.3081764
-1.4640536
-1.596247
-1.6885328
-1.7708357
-1.8583438
-1.9410893
-2.0231781
-2.0998894
-2.1741783
-2.2544127
-2.3130406
-2.4136227
-2.4098691
-2.3958448
-2.3798073
-2.3213815
-2.2718078
-2.1506163
-2.0898825
-2.0333664
-1.9273937
-1.8324204
-1.7719787
-1.6786877
-1.5596472
-1.4614612
-1.5776296
-1.6816148
-1.7709811
-1.8472815
-1.9233812
-2.0287591
-2.0990523
-2.154516
-2.2554824
-2.3229602
-2.3150239
-2.2515624
-2.1666992
-2.1013916
-2.0212235
-1.9329191
-1.8584939
-1.7675311
-1.6843383
-1.5928939
-1.5663277
-1.5589981
-1.5525453