/*--------------------------------*- C++ -*----------------------------------*\
| =========                 |                                                 |
| \\      /  F ield         | OpenFOAM: The Open Source CFD Toolbox           |
|  \\    /   O peration     | Version:  v2012                                 |
|   \\  /    A nd           | Website:  www.openfoam.com                      |
|    \\/     M anipulation  |                                                 |
\*---------------------------------------------------------------------------*/
FoamFile
{
    version     2.0;
    format      ascii;
    class       surfaceScalarField;
    location    "158";
    object      phi;
}
// * * * * * * * * * * * * * * * * * * * * * * * * * * * * * * * * * * * * * //

dimensions      [0 3 -1 0 0 0 0];
oriented        oriented;


internalField   nonuniform List<scalar> 
43345
(
0.00071450702
0.00021401073
0.00068175913
0.00065346365
4.6575462e-05
1.4467905e-05
0.00073778409
-0.00010562848
2.1308045e-05
0.00076620213
-2.3711121e-05
-4.7069165e-06
0.00048622376
0.0002630094
1.6968967e-05
0.00049614795
3.302493e-06
-1.3226684e-05
0.00056490816
-7.5698805e-05
6.9385923e-06
0.00061931557
-5.1396457e-05
-3.0109537e-06
0.00065207872
-3.1405678e-05
-1.3574718e-06
0.00067349285
-2.1276383e-05
-1.3774081e-07
0.00069020264
-1.6843642e-05
1.3385251e-07
0.00070443033
-1.4283125e-05
5.5433058e-08
0.00072162728
-1.5014343e-05
-2.1826041e-06
0.00075391443
-2.2438066e-05
-9.8490885e-06
0.00085402214
-5.8446127e-05
-4.1661582e-05
0.0012914308
-0.00023554873
-0.0002018599
0.0020213946
-0.00038763863
-0.00034232523
0.0021233755
-9.7789007e-05
-4.1918373e-06
0.0015273913
0.00023579961
0.00036018454
0.00068953118
0.00063672907
0.00020113108
0.00063618557
3.7887283e-05
1.5458318e-05
0.00070282338
-8.1801162e-05
1.5163361e-05
0.00044933653
0.00023555251
1.7934337e-05
0.00046409105
-2.6978355e-06
-1.2056692e-05
0.000535407
-7.8074241e-05
6.7582953e-06
0.00059121424
-5.3201871e-05
-2.6053703e-06
0.0006244099
-3.2495026e-05
-7.006315e-07
0.00064634176
-2.2062466e-05
1.3060653e-07
0.0006631449
-1.6967295e-05
1.6414988e-07
0.00068014413
-1.5161446e-05
-1.8377804e-06
0.00071154802
-2.0936898e-05
-1.0466994e-05
0.00080316955
-5.1027344e-05
-4.0594185e-05
0.0012239634
-0.00021807318
-0.00020272067
0.0019259684
-0.00034154951
-0.00036045553
0.0020652652
-0.00010135757
-3.7939188e-05
0.0019530319
-1.2896694e-05
0.00012513003
0.0021707938
-6.2066112e-05
-0.00015569583
0.0046900411
-0.00083430092
-0.0016849464
0.0083287112
-0.0016421542
-0.0019965159
0.0093103777
-0.00035471041
-0.00062695605
0.0095417766
-4.9259658e-05
-0.00018213927
0.0095817385
1.8219861e-05
-5.8181704e-05
2.681988e-05
-2.3462633e-05
-0.0099236321
-1.5314762e-06
6.8477653e-07
5.1185769e-06
-0.0099290045
-3.9751498e-06
5.414141e-06
3.9334065e-06
-0.0099363217
-7.2838919e-06
1.2054335e-05
2.5468297e-06
-0.0099466183
-1.1471564e-05
2.0742902e-05
1.0252085e-06
-0.0099608098
-1.6301638e-05
3.1007215e-05
-5.1407622e-07
-0.0099792269
-2.1260493e-05
4.1579429e-05
-1.9018068e-06
-0.010001815
-2.5878868e-05
5.1499353e-05
-3.0321097e-06
-0.010028269
-2.9826221e-05
6.0147657e-05
-3.8675e-06
-0.010057961
-3.2841947e-05
6.6931939e-05
-4.3981183e-06
-0.010089835
-3.4649681e-05
7.1117233e-05
-4.5936907e-06
-0.010122563
-3.5049594e-05
7.2207518e-05
-4.4295483e-06
-0.010154801
-3.3993288e-05
7.013598e-05
-3.9047047e-06
-0.010185329
-3.1539787e-05
6.511603e-05
-3.0488029e-06
-0.010213081
-2.7792307e-05
5.7435461e-05
-1.890503e-06
-2.2840596e-05
4.7311312e-05
-4.5704552e-07
0.00012287817
0.00059540479
0.00047072387
9.2339253e-05
0.00064114311
0.00073166351
2.6359522e-05
0.00063224413
0.00074261365
1.9942949e-05
0.00066497843
0.00078091208
-6.7671987e-07
0.00068215687
0.00079593821
-8.4813131e-06
0.00068568741
0.0008060627
-7.9717019e-06
0.00068195612
0.00080294273
-1.3704443e-05
0.00067587631
0.00079570676
-7.5282676e-06
0.00067086355
0.00078982125
-1.0789614e-05
0.00066721684
0.0007827399
-5.2134798e-06
0.00066502994
0.00077942776
-6.6138051e-06
0.00066388734
0.00077594649
-2.5857087e-06
0.00066364469
0.00077528919
-3.7098871e-06
0.00066483527
0.0007759172
-3.9897072e-06
0.00066683374
0.00077852995
0.00066812995
0.00078047374
0.0099884233
5.1011364e-05
-8.4750748e-06
0.009946132
5.0451065e-05
-8.1598322e-06
0.0099052298
4.8722334e-05
-7.8200836e-06
0.0098666977
4.5999307e-05
-7.4671643e-06
0.0098313061
4.2512438e-05
-7.1208461e-06
0.0097995674
3.8515055e-05
-6.7764158e-06
0.0097717242
3.427939e-05
-6.4361576e-06
0.0097477867
3.0051076e-05
-6.1136251e-06
0.0097275895
2.6005927e-05
-5.8087153e-06
0.0097108508
2.2251291e-05
-5.5125993e-06
1.886135e-05
-5.2295297e-06
-0.010241093
3.8397841e-05
-5.5563638e-06
-0.010258289
4.5296181e-05
-5.8481823e-06
-0.01027908
5.2951563e-05
-6.1545842e-06
-0.010303798
6.1240285e-05
-6.4714436e-06
-0.010332662
6.9954308e-05
-6.8108362e-06
-0.010365737
7.876336e-05
-7.1737632e-06
-0.010402842
8.7172072e-05
-7.5541242e-06
-0.010443493
9.4597968e-05
-7.9482482e-06
-0.010486894
0.00010047681
-8.3534881e-06
-0.010531985
0.00010429267
-8.7503728e-06
0.0001056508
-9.1230377e-06
0.011364791
0.00016667939
-1.0817867e-05
0.011315512
0.00016389672
-1.0324983e-05
0.011268687
0.00015709591
-9.7939604e-06
0.011225489
0.0001470432
-9.2477399e-06
0.011186668
0.0001347073
-8.713858e-06
0.011152569
0.00012107297
-8.2101981e-06
0.011123159
0.00010711192
-7.7483825e-06
0.011098159
9.3568731e-05
-7.328482e-06
0.011077204
8.0850152e-05
-6.9433089e-06
0.011059903
6.9182466e-05
-6.5850897e-06
5.8694825e-05
-6.248393e-06
-0.011873471
7.8230965e-05
-6.6300988e-06
-0.011889311
9.1964552e-05
-6.9412981e-06
-0.01190845
0.00010726532
-7.2766068e-06
-0.011931329
0.00012410761
-7.6603336e-06
-0.011958554
0.00014244866
-8.1113715e-06
-0.011990899
0.00016205795
-8.6398153e-06
-0.012028988
0.00018203503
-9.2388848e-06
-0.012072962
0.00020089815
-9.8809729e-06
-0.012122339
0.0002170349
-1.0562296e-05
-0.012175829
0.0002286411
-1.1254445e-05
0.0002342404
-1.1918108e-05
0.012703029
0.0003072848
-1.2044584e-05
0.012646689
0.00029614748
-1.1166839e-05
0.012597792
0.00027629751
-1.0365928e-05
0.012557753
0.0002506073
-9.669574e-06
0.012526224
0.00022257988
-9.0161789e-06
0.012501767
0.00019486292
-8.3480267e-06
0.012482347
0.00016960168
-7.7329431e-06
0.012466236
0.00014747368
-7.2548644e-06
0.012452546
0.00012788214
-6.9270159e-06
0.012440933
0.00011028141
-6.7040212e-06
9.4427205e-05
-6.5157777e-06
-0.0127195
0.00010473027
-6.2632767e-06
-0.012723602
0.00012071801
-6.3349749e-06
-0.012727337
0.0001381062
-6.489335e-06
-0.012730502
0.0001575252
-6.8862854e-06
-0.012733897
0.0001805709
-7.5745997e-06
-0.012740821
0.00021018095
-8.3940508e-06
-0.012756305
0.00024715961
-9.0952236e-06
-0.012784837
0.00028872013
-9.5810568e-06
-0.01282874
0.00033031336
-1.0112865e-05
-0.012886201
0.00036458055
-1.0972114e-05
0.00038589658
-1.2146158e-05
0.012815417
0.00047205881
-1.2534664e-05
0.012756887
0.00043395589
-1.0845444e-05
0.01272216
0.00037489102
-9.850601e-06
0.012714759
0.0003059008
-9.7797466e-06
0.012728155
0.00024386458
-1.0101661e-05
0.012751121
0.00019709195
-9.8767629e-06
0.012772811
0.00016771107
-8.8297665e-06
0.012788341
0.00014948494
-7.4903962e-06
0.012798117
0.0001348684
-6.537346e-06
0.012804041
0.00012096404
-6.1706645e-06
0.00010731654
-6.0722436e-06
-0.012784623
0.00010208523
-6.0586266e-06
-0.012769249
0.00011225959
-6.6688744e-06
-0.012747201
0.00012109589
-8.2759314e-06
-0.01271318
0.00012686499
-1.1401293e-05
-0.012661267
0.00013054563
-1.4747404e-05
-0.012594817
0.00014590205
-1.5260049e-05
-0.012535291
0.00019665486
-1.2316695e-05
-0.012511207
0.00029078649
-8.9694705e-06
-0.012537216
0.00040927695
-8.3765048e-06
-0.01260194
0.00050861306
-9.9336684e-06
0.00056983537
-1.2329091e-05
0.01233431
0.000683546
-1.1150142e-05
0.01224984
0.00060102215
-7.938665e-06
0.012217024
0.0004454776
-3.3845233e-06
0.012277401
0.00023318649
-2.7777688e-06
0.012400172
9.0492124e-05
-1.6607384e-05
0.012513833
6.6388035e-05
-3.414781e-05
0.012585448
9.4682055e-05
-3.5751287e-05
0.012624666
0.00011199113
-2.4343904e-05
0.012648632
0.00011082999
-1.3699664e-05
0.012667533
0.00010149284
-8.1343818e-06
9.2026129e-05
-5.9550172e-06
-0.01236642
8.0936689e-05
-4.6424497e-06
-0.012354202
9.9213168e-05
-9.9383804e-06
-0.012347458
0.00013042789
-2.6342781e-05
-0.012335356
0.00015839955
-5.8509924e-05
-0.012274036
0.00014856571
-0.0001152032
-0.012102196
2.8644421e-05
-0.00013409681
-0.011771512
-0.00019772336
-4.246831e-05
-0.011713033
0.00014738615
2.7321118e-05
-0.011815766
0.00053223418
1.5976831e-05
-0.011930974
0.00071803479
-1.804914e-06
0.00079912969
-1.1622308e-05
0.010786827
-0.00094617641
0.0017670057
7.2531032e-05
0.01062564
-0.00087178478
0.0017347075
0.00018334613
0.010599042
-0.00094517129
0.0016504884
0.00015455644
0.010894141
-0.00095340832
0.0016192218
-0.00013559293
0.011170269
-0.00089373277
0.0015683921
-0.00015165754
0.010959288
-0.00082684924
0.0016131655
0.00014269955
0.010706229
-0.00084110742
0.0014673847
0.0001590163
0.010541818
-0.0010203116
0.0011753712
0.00015673713
0.011367906
-0.0013870239
0.0002602706
0.00010294249
0.011723721
0.00062154373
-0.00094871513
0.011824284
0.00035593612
-0.0003079332
0.011806199
0.00033052473
-0.00015404057
0.011785376
0.00019587988
-4.462886e-05
0.011786837
0.0001053306
-7.5777312e-06
6.9333831e-05
1.2044143e-06
-0.010958954
5.26384e-05
9.7492761e-06
-0.010951904
9.9453342e-05
-1.1719216e-06
-0.01094136
0.00024746062
-6.2125309e-05
-0.010891751
0.00060576382
-0.00032484763
-0.010432275
0.0012124197
-0.0013159601
-0.003058606
-0.0011054761
0.00039905818
-0.0047338494
-0.0013118576
0.0017778217
-0.00080942902
-0.0019062095
-0.0021207892
0.0017970521
-0.00048534322
-0.00063936329
0.002270284
-0.00014479352
7.061976e-05
0.00077296898
0.004704029
-0.0012352178
-0.0019714962
-0.001708279
0.0030092382
-0.0013622911
-0.0017591883
-5.5881879e-05
4.4725072e-05
-0.0020526418
0.00019926464
8.1292105e-05
-0.002143224
-5.6772636e-05
4.5997325e-05
-0.00090809893
-5.2723171e-05
-0.0011824601
-0.0003414913
-0.0008303647
-0.00013739493
-0.00015841248
-0.00078737654
-5.876353e-05
-3.5251975e-05
-0.00075245088
-4.7935194e-05
-7.9273597e-06
-0.00074379219
-2.3415024e-05
-4.0511489e-07
-0.00071891689
-4.3418274e-05
1.5756788e-06
-0.00070596351
-3.6714853e-05
1.6990068e-06
-0.00066706754
-7.1612043e-05
2.2104997e-07
-0.00062351083
-9.3399068e-05
-3.3595117e-06
-0.0004641295
-0.00023766539
2.09812e-07
-0.00045577284
-1.1054492e-05
-0.00023070398
1.0483657e-05
-0.0011176671
6.0563094e-05
0.00076015896
6.6241075e-05
-0.00056923577
-0.00064156968
1.1337174e-05
-0.00052843705
-2.9114381e-06
5.535642e-05
5.2935599e-05
-0.0024817318
-0.00030298653
0.0019806548
0.00021785026
-0.0023668281
-0.00011152654
0.00023242251
-0.0023182983
-0.00012679598
-1.9522839e-05
-0.00095869362
-9.6901036e-05
-0.001256063
-0.00039427929
-0.00087502737
-0.00017095591
-0.00014825906
-0.00083021302
-6.5613465e-05
-3.7647017e-05
-0.00079418781
-4.9966242e-05
-8.4970364e-06
-0.00078633905
-2.1693059e-05
-1.1700367e-06
-0.00076270026
-3.8783664e-05
8.6174645e-07
-0.00075473665
-2.5863746e-05
1.0564902e-06
-0.00072523726
-5.1626346e-05
8.5057951e-07
-0.00070366555
-5.2028047e-05
-9.4935033e-07
-0.00064712087
-0.00010325879
-4.6823441e-06
-0.00050416333
-0.0002182467
-4.0964434e-07
-0.00048910623
-1.1754609e-05
-0.0002368982
1.0801377e-05
-0.00088051052
-0.00046750248
0.0010778478
3.3266994e-05
-0.0010632361
1.7860887e-05
0.0001411536
-0.0005855604
-0.00060071884
1.7414619e-05
-0.0005351223
-3.8626375e-06
9.4264718e-05
5.237211e-05
0.0019768217
-0.00019496826
0.00019650574
0.0098521941
1.2326736e-05
1.0645538e-06
0.0098359376
1.3929494e-05
2.326945e-06
0.0098173959
1.5215204e-05
3.3265092e-06
0.0097971707
1.6170797e-05
4.0544728e-06
0.0097758599
1.6805031e-05
4.5056955e-06
0.0097540425
1.7134483e-05
4.6828987e-06
0.0097322389
1.7185473e-05
4.6181672e-06
0.0097108986
1.6998662e-05
4.3416087e-06
0.0096904083
1.6616291e-05
3.8740172e-06
0.0096710716
1.6078918e-05
3.2577813e-06
0.0096530992
1.5416064e-05
2.5563868e-06
0.0096366156
1.467788e-05
1.8056912e-06
0.0096216741
1.3917501e-05
1.0240009e-06
0.0096082728
1.3153112e-05
2.4821409e-07
1.2393855e-05
-4.8288498e-07
2.4984781e-05
-0.0099551947
-2.5207959e-07
3.8213437e-05
-0.010513673
-2.2277002e-07
5.1923094e-05
-0.011052663
-1.2054151e-07
6.551301e-05
-0.011391284
2.8318859e-07
7.8356192e-05
-0.011505552
9.943586e-07
8.9886874e-05
-0.011478078
2.0692018e-06
9.952564e-05
-0.011401234
3.6479752e-06
0.00010674892
-0.011329752
5.753812e-06
0.00011112962
-0.011282028
8.3214698e-06
0.00011250094
-0.011256576
1.1095354e-05
0.00011102449
-0.011245945
1.3749431e-05
-0.011243479
1.5960861e-05
-4.7537132e-05
-0.011408391
1.8975372e-05
-5.2955694e-05
-0.011353708
1.9174666e-05
-5.8583277e-05
-0.011320803
1.9480081e-05
-6.4499314e-05
-0.011302136
1.9878454e-05
-7.0768926e-05
-0.011291066
2.0343569e-05
-7.7424405e-05
-0.011283522
2.0834185e-05
-8.4439046e-05
-0.011277488
2.1287569e-05
-9.1695395e-05
-0.011272122
2.1612763e-05
-9.894267e-05
-0.011267302
2.16795e-05
-0.00010576891
-0.011262996
2.1329945e-05
-0.00011158643
-0.011259617
2.0393526e-05
-0.00011569673
-0.011258136
1.8767645e-05
-0.0001173931
-0.011260698
1.6449855e-05
-0.00011616788
-0.011271449
1.3647748e-05
-0.00011181745
-0.01129706
1.0681398e-05
-0.00010448024
-0.011344983
7.8940152e-06
-9.4568967e-05
-0.011416701
5.5558429e-06
-8.260816e-05
-0.011493782
3.7429006e-06
-6.9193451e-05
-0.011521411
2.444342e-06
-5.4924849e-05
-0.011407076
1.5235971e-06
-4.0472313e-05
-0.011068049
9.3435848e-07
-2.6491176e-05
-0.010528337
6.8293817e-07
-0.0099690834
5.5059787e-07
2.8023519e-05
-0.0099846031
1.4136831e-06
4.2785992e-05
-0.010544763
1.6631106e-06
5.8005698e-05
-0.011085344
2.0747095e-06
7.29766e-05
-0.01142492
2.872411e-06
8.6979417e-05
-0.01153945
4.0356292e-06
9.9383216e-05
-0.011511784
5.5990858e-06
0.00010957035
-0.01143458
7.6919773e-06
0.00011701532
-0.011362739
1.0310452e-05
0.00012131962
-0.011314726
1.3362492e-05
0.00012237637
-0.011289065
1.65586e-05
0.00012043836
-0.011278295
1.9534776e-05
0.00011605322
-0.011275728
2.1976692e-05
0.00010996304
-0.011277208
2.3681833e-05
0.00010288295
-0.011280584
2.4667257e-05
9.5407512e-05
-0.011284874
2.5048114e-05
8.7947012e-05
-0.011289664
2.5002722e-05
8.0745418e-05
-0.011294982
2.469516e-05
7.3914346e-05
-0.011300949
2.425766e-05
6.7472181e-05
-0.011308408
2.3784301e-05
6.1380214e-05
-0.011319382
2.3338173e-05
5.556843e-05
-0.011337954
2.2962144e-05
4.9953995e-05
-0.011370776
2.2682239e-05
4.4453284e-05
-0.011425403
2.2512801e-05
3.8993673e-05
-0.011503364
2.2449781e-05
3.351349e-05
-0.011586118
2.2459607e-05
2.794615e-05
-0.011618374
2.2468554e-05
2.2235403e-05
-0.011506708
2.2338097e-05
1.6405901e-05
-0.011167437
2.1847723e-05
1.0658632e-05
-0.010624642
2.0847487e-05
-0.01006119
1.9599094e-05
-1.1262021e-05
-0.01007861
2.3169406e-05
-1.7354328e-05
-0.010643225
2.4675452e-05
-2.3519275e-05
-0.011187145
2.5873258e-05
-2.9528586e-05
-0.01152715
2.645099e-05
-3.5356017e-05
-0.011639137
2.6590187e-05
-4.1076213e-05
-0.011606948
2.6549879e-05
-4.6759828e-05
-0.011524175
2.6494984e-05
-5.2468585e-05
-0.011446207
2.6512701e-05
-5.8274817e-05
-0.011391612
2.6642342e-05
-6.4262126e-05
-0.011358855
2.6888796e-05
-7.0516999e-05
-0.011340363
2.7236146e-05
-7.7116784e-05
-0.011329464
2.7655517e-05
-8.4106742e-05
-0.011322063
2.8104461e-05
-9.1475845e-05
-0.011316131
2.8518974e-05
-9.912233e-05
-0.011310821
2.8803142e-05
-0.00010681022
-0.011306006
2.8819397e-05
-0.00011413344
-0.011301659
2.8398666e-05
-0.00012049362
-0.0112982
2.7351406e-05
-0.00012515871
-0.011296614
2.5551427e-05
-0.00012734936
-0.011299067
2.2963063e-05
-0.00012647436
-0.011309722
1.9782714e-05
-0.00012222544
-0.011335292
1.6316974e-05
-0.00011467551
-0.011383243
1.2954494e-05
-0.00010420864
-0.011455055
1.0007409e-05
-9.1354637e-05
-0.011532228
7.5896643e-06
-7.6755472e-05
-0.011559772
5.7237322e-06
-6.1075379e-05
-0.011444887
4.2871104e-06
-4.5087037e-05
-0.01110459
3.25738e-06
-2.9545205e-05
-0.010562973
2.6681148e-06
-0.01000176
2.2899063e-06
3.1005699e-05
-0.01002048
3.1296992e-06
4.7287179e-05
-0.010582896
3.6414941e-06
6.4015232e-05
-0.011125743
4.4257681e-06
8.0385187e-05
-0.011466967
5.7105568e-06
9.5576126e-05
-0.011582411
7.4475954e-06
0.00010888026
-0.011555182
9.6500035e-06
0.00011963037
-0.011478237
1.2431946e-05
0.00012728844
-0.011406652
1.5750535e-05
0.00013148366
-0.011358955
1.946731e-05
0.00013217793
-0.011333659
2.3242772e-05
0.00012974014
-0.011323286
2.665674e-05
0.00012480863
-0.011321095
2.941298e-05
0.00011819714
-0.011322912
3.1323742e-05
0.00011065455
-0.011326561
3.2444231e-05
0.00010278047
-0.011331048
3.2916527e-05
9.4975992e-05
-0.011335957
3.29406e-05
8.746708e-05
-0.011341315
3.2692899e-05
8.0344978e-05
-0.011347254
3.2313013e-05
7.3609996e-05
-0.011354628
3.1898721e-05
6.7209283e-05
-0.011365478
3.1515659e-05
6.1060995e-05
-0.011383916
3.120869e-05
5.5073536e-05
-0.011416631
3.1006962e-05
4.9162069e-05
-0.011471223
3.0927675e-05
4.3255457e-05
-0.011549233
3.0964815e-05
3.7292069e-05
-0.011632058
3.1073574e-05
3.1196459e-05
-0.011664194
3.1152631e-05
2.4879581e-05
-0.011551839
3.1006082e-05
1.8355938e-05
-0.011210953
3.0331663e-05
1.1893618e-05
-0.010665679
2.8916827e-05
-0.010099653
2.7128099e-05
-1.2560008e-05
-0.010124593
3.1386225e-05
-1.9415456e-05
-0.010692301
3.3476902e-05
-2.6308411e-05
-0.011239192
3.5131594e-05
-3.2943174e-05
-0.011581113
3.5908645e-05
-3.9314332e-05
-0.011693879
3.6057067e-05
-4.552218e-05
-0.011661781
3.5931389e-05
-5.1648618e-05
-0.011578866
3.5759155e-05
-5.7754235e-05
-0.011500773
3.5655227e-05
-6.3908613e-05
-0.011446147
3.5670391e-05
-7.019923e-05
-0.011413437
3.5811781e-05
-7.6719954e-05
-0.011395021
3.6063345e-05
-8.3558539e-05
-0.011384184
3.6394405e-05
-9.0777959e-05
-0.011376793
3.6758574e-05
-9.8387579e-05
-0.011370794
3.7088547e-05
-0.00010630825
-0.011365322
3.7285567e-05
-0.00011432551
-0.011360237
3.7206146e-05
-0.00012204649
-0.011355507
3.6667792e-05
-0.00012887014
-0.011351547
3.5459088e-05
-0.00013403381
-0.011349354
3.3421796e-05
-0.00013669152
-0.011351107
3.0478877e-05
-0.0001361563
-0.011361001
2.680634e-05
-0.00013199932
-0.011385799
2.2687416e-05
-0.00012422443
-0.011433008
1.8581069e-05
-0.00011319167
-0.011504129
1.4859784e-05
-9.9451016e-05
-0.011580611
1.168804e-05
-8.3698659e-05
-0.011607292
9.1282915e-06
-6.6687313e-05
-0.011491056
7.0772047e-06
-4.9280327e-05
-0.011148682
5.5317571e-06
-3.2325162e-05
-0.010604404
4.553797e-06
-0.010040641
3.9148473e-06
3.3412704e-05
-0.010062042
4.6045238e-06
5.0941905e-05
-0.010627291
5.3573107e-06
6.8933482e-05
-0.011173188
6.514141e-06
8.6506461e-05
-0.011516936
8.3069823e-06
0.00010275775
-0.011634206
1.0662725e-05
0.00011690109
-0.011608331
1.3576824e-05
0.00012820828
-0.011532579
1.7142398e-05
0.00013611413
-0.011462191
2.127765e-05
0.00014026201
-0.011415737
2.5789985e-05
0.00014067898
-0.01139169
3.0271983e-05
0.00013785434
-0.011382505
3.4222594e-05
0.00013251832
-0.01138139
3.7372422e-05
0.00012554812
-0.011384133
3.9555912e-05
0.00011771554
-0.011388547
4.0871861e-05
0.00010961948
-0.011393637
4.1495366e-05
0.00010164195
-0.011398993
4.1648402e-05
9.3984951e-05
-0.011404658
4.1520543e-05
8.6714983e-05
-0.011410782
4.1258823e-05
7.9811633e-05
-0.011418244
4.0964082e-05
7.3204518e-05
-0.011429118
4.0703703e-05
6.679715e-05
-0.011447553
4.0523569e-05
6.0491326e-05
-0.011480297
4.0455214e-05
5.4201263e-05
-0.011535
4.0517219e-05
4.7859596e-05
-0.011613226
4.0701737e-05
4.1408e-05
-0.011696281
4.0951649e-05
3.4757697e-05
-0.011728366
4.1136625e-05
2.7793298e-05
-0.011615144
4.0995945e-05
2.0518785e-05
-0.011272041
4.0123995e-05
1.326004e-05
-0.010723276
3.8234472e-05
-0.010153609
3.5839675e-05
-1.3985034e-05
-0.010186692
4.0292468e-05
-2.1654958e-05
-0.010758578
4.2971823e-05
-2.9322188e-05
-0.011309449
4.5075385e-05
-3.6620957e-05
-0.011653871
4.6025493e-05
-4.3553953e-05
-0.011767578
4.6145235e-05
-5.0247553e-05
-0.011735475
4.5887289e-05
-5.6796713e-05
-0.011652222
4.5545181e-05
-6.3257423e-05
-0.011573805
4.5265071e-05
-6.9692968e-05
-0.011518972
4.5110986e-05
-7.6187856e-05
-0.011486148
4.5090254e-05
-8.2844193e-05
-0.011467644
4.5182974e-05
-8.9762648e-05
-0.011456683
4.5356669e-05
-9.7023353e-05
-0.011449086
4.5564231e-05
-0.00010465794
-0.011442762
4.5738281e-05
-0.00011261233
-0.011436815
4.5776332e-05
-0.00012069934
-0.011431079
4.5529484e-05
-0.00012854912
-0.011425498
4.4800746e-05
-0.00013557223
-0.011420468
4.3358146e-05
-0.00014099062
-0.011416982
4.1010831e-05
-0.00014390176
-0.011417236
3.7641429e-05
-0.00014353845
-0.011425459
3.3406283e-05
-0.00013935489
-0.01144848
2.8559306e-05
-0.00013130244
-0.011493891
2.3647032e-05
-0.00011973907
-0.011563256
1.9114287e-05
-0.00010524904
-0.011638
1.5179179e-05
-8.8589157e-05
-0.011662803
1.1937589e-05
-7.0576279e-05
-0.011544255
9.3064063e-06
-5.2139075e-05
-0.011198918
7.2933458e-06
-3.4186821e-05
-0.010651224
5.9804861e-06
-0.010084361
5.1315844e-06
3.4566144e-05
-0.010107189
5.4471442e-06
5.2738881e-05
-0.010675762
6.3656682e-06
7.1426864e-05
-0.011225404
7.7978165e-06
8.9717858e-05
-0.011572531
9.9853514e-06
0.0001066602
-0.011692588
1.284264e-05
0.00012141584
-0.011669117
1.6360865e-05
0.00013320706
-0.011595662
2.0614588e-05
0.00014142337
-0.011527608
2.5500549e-05
0.00014569967
-0.011483532
3.0775805e-05
0.00014609961
-0.011461819
3.595936e-05
0.00014321447
-0.01145481
4.0459693e-05
0.00013783889
-0.011455645
4.4038636e-05
0.00013088834
-0.011460066
4.654855e-05
0.00012314134
-0.011465875
4.8124557e-05
0.00011517411
-0.011472085
4.8973019e-05
0.0001073414
-0.011478314
4.9332586e-05
9.9814444e-05
-0.011484641
4.9405883e-05
9.2633875e-05
-0.011491247
4.9341912e-05
8.5757944e-05
-0.01149905
4.9243612e-05
7.9099435e-05
-0.011510163
4.9177468e-05
7.2552332e-05
-0.011528794
4.9192385e-05
6.6014723e-05
-0.011561757
4.9322415e-05
5.940353e-05
-0.011616781
4.9587213e-05
5.2659006e-05
-0.011695455
4.9977736e-05
4.5728276e-05
-0.011778969
5.0424312e-05
3.8513105e-05
-0.01181113
5.0766977e-05
3.0875745e-05
-0.011696916
5.0682535e-05
2.2810664e-05
-0.01135106
4.967546e-05
1.4722965e-05
-0.010797881
4.7390132e-05
-0.010223562
4.4471262e-05
-1.5465002e-05
-0.010263656
4.8092306e-05
-2.3968142e-05
-0.010840566
5.1188416e-05
-3.2426907e-05
-0.01139621
5.3609497e-05
-4.040338e-05
-0.011743584
5.4644127e-05
-4.7896282e-05
-0.011858312
5.4675166e-05
-5.5055519e-05
-0.011826043
5.423403e-05
-6.1979329e-05
-0.011742201
5.3669223e-05
-6.8715899e-05
-0.011663197
5.315253e-05
-7.5320975e-05
-0.011607911
5.2759364e-05
-8.1875139e-05
-0.011574739
5.249905e-05
-8.8481891e-05
-0.011555909
5.2352174e-05
-9.5248415e-05
-0.011544568
5.228414e-05
-0.00010226711
-0.011536476
5.2247424e-05
-0.00010958833
-0.011529496
5.2176444e-05
-0.00011718378
-0.011522689
5.1969723e-05
-0.00012489851
-0.011515849
5.1479036e-05
-0.00013239554
-0.011508878
5.0499801e-05
-0.00013911592
-0.011502136
4.8790575e-05
-0.00014429219
-0.011496601
4.6131884e-05
-0.00014700915
-0.011494467
4.2374188e-05
-0.00014646067
-0.011500025
3.7657635e-05
-0.0001420214
-0.011520174
3.2202916e-05
-0.00013362352
-0.011562646
2.6640153e-05
-0.00012165308
-0.011629114
2.1481457e-05
-0.00010674277
-0.01170102
1.6993024e-05
-8.9684683e-05
-0.011722926
1.3280041e-05
-7.1334896e-05
-0.011601156
1.0275018e-05
-5.2631256e-05
-0.011252079
7.9710338e-06
-3.4475643e-05
-0.010700388
6.4698906e-06
-0.010130052
5.5212413e-06
3.3837553e-05
-0.010152409
5.3244754e-06
5.1704679e-05
-0.010724515
6.2598133e-06
7.0160005e-05
-0.011278304
7.7698616e-06
8.8331778e-05
-0.011629427
1.0098844e-05
0.00010530758
-0.011753067
1.3164864e-05
0.00012023417
-0.011732916
1.696967e-05
0.00013231301
-0.011662765
2.1572054e-05
0.00014088976
-0.011598102
2.6879566e-05
0.00014556471
-0.011557463
3.261376e-05
0.0001463935
-0.011539096
3.8242778e-05
0.00014401199
-0.01153519
4.3103695e-05
0.0001392171
-0.0115388
4.6993512e-05
0.00013290793
-0.011545607
4.9779801e-05
0.00012583051
-0.01155342
5.1619794e-05
0.00011851861
-0.011561278
5.2740549e-05
0.00011128979
-0.011568841
5.3381437e-05
0.00010428267
-0.011576235
5.3746128e-05
9.7515474e-05
-0.011583688
5.3979122e-05
9.0932571e-05
-0.011592164
5.4179032e-05
8.4441241e-05
-0.011603827
5.4409508e-05
7.7928965e-05
-0.01162294
5.471376e-05
7.1296406e-05
-0.011656406
5.512776e-05
6.4466041e-05
-0.011712036
5.5670057e-05
5.7385962e-05
-0.01179145
5.6329276e-05
5.0011977e-05
-0.011875695
5.7025547e-05
4.2246198e-05
-0.011908126
5.7580152e-05
3.3942303e-05
-0.011792906
5.7626288e-05
2.5100922e-05
-0.011443975
5.660586e-05
1.6201222e-05
-0.010885779
5.4112507e-05
-0.010306184
5.0908725e-05
-1.6907314e-05
-0.010350123
5.2687156e-05
-2.6181287e-05
-0.010932432
5.5927055e-05
-3.5385814e-05
-0.0114932
5.8429811e-05
-4.4003457e-05
-0.011843684
5.93952e-05
-5.2024067e-05
-0.011959355
5.9249208e-05
-5.9591147e-05
-0.011926693
5.8565235e-05
-6.6799379e-05
-0.011841963
5.7721844e-05
-7.3687887e-05
-0.011762051
5.6902872e-05
-8.0304648e-05
-0.011705982
5.6191922e-05
-8.6723279e-05
-0.011672124
5.5602066e-05
-9.3040051e-05
-0.011652625
5.5115391e-05
-9.9362005e-05
-0.011640542
5.4700195e-05
-0.00010578198
-0.01163158
5.4311992e-05
-0.00011235809
-0.01162355
5.389179e-05
-0.00011908058
-0.011615465
5.3346104e-05
-0.00012582693
-0.011607069
5.2537293e-05
-0.00013230098
-0.011598214
5.1267717e-05
-0.00013800085
-0.011589213
4.9306181e-05
-0.00014221321
-0.011581011
4.6423799e-05
-0.0001440746
-0.011575791
4.2462243e-05
-0.0001428191
-0.0115779
3.7547856e-05
-0.00013782461
-0.011594323
3.1866138e-05
-0.00012906474
-0.011632964
2.6102479e-05
-0.00011695359
-0.011695664
2.0788278e-05
-0.00010216751
-0.011763912
1.6209277e-05
-8.5495963e-05
-0.01178218
1.2441187e-05
-6.7767784e-05
-0.011656584
9.4287495e-06
-4.9858585e-05
-0.01130337
7.1568521e-06
-3.2587219e-05
-0.010747489
5.703479e-06
-0.010173649
4.8236035e-06
3.0695154e-05
-0.01019314
4.0110345e-06
4.7042355e-05
-0.01076862
4.7833249e-06
6.4076824e-05
-0.011326509
6.1044827e-06
8.1052373e-05
-0.011681777
8.2179922e-06
9.7166595e-05
-0.011809351
1.1056708e-05
0.00011163149
-0.011793026
1.4649122e-05
0.000123685
-0.011726766
1.9048026e-05
0.00013263803
-0.011666126
2.4208807e-05
0.00013804987
-0.011629577
2.984216e-05
0.00013989525
-0.011615186
3.5441086e-05
0.0001387542
-0.01161496
4.0310358e-05
0.00013533834
-0.011621875
4.4279803e-05
0.00013045549
-0.011631557
4.7226796e-05
0.00012477408
-0.011641834
4.9301127e-05
0.00011875736
5.0727074e-05
0.00011267894
5.1721402e-05
0.00010665042
5.2472812e-05
0.00010067447
5.3107531e-05
9.4694046e-05
5.3709795e-05
8.8621088e-05
5.4334005e-05
8.2357722e-05
5.5025055e-05
7.5809478e-05
5.5810544e-05
6.8906649e-05
5.6706408e-05
6.160638e-05
5.7700112e-05
5.3876571e-05
5.8704317e-05
4.5628754e-05
5.9531065e-05
3.6720668e-05
5.9796888e-05
2.7183286e-05
5.892291e-05
1.7564934e-05
5.646493e-05
5.3254191e-05
-0.0001272635
4.5593572e-05
-0.00013112371
4.340797e-05
-0.00013352807
-0.011659893
4.042273e-05
-0.00013374671
-0.01165125
3.6508783e-05
-0.00013114685
-0.011649572
3.1786483e-05
-0.00012522842
-0.011661916
2.6419603e-05
-0.00011609438
-0.011696363
2.1102368e-05
-0.0001042078
-0.011754938
1.6285695e-05
-9.0261524e-05
-0.011819219
1.224685e-05
-7.4972139e-05
-0.011833628
8.9883938e-06
-5.9060575e-05
-0.011704146
6.4568938e-06
-4.3237095e-05
-0.011346942
4.6095034e-06
-2.8149972e-05
-0.010787207
3.4994277e-06
-0.010210249
2.8890441e-06
2.496921e-05
1.4688044e-06
3.8470202e-05
1.8679047e-06
5.2754616e-05
2.6877267e-06
6.7290536e-05
4.1571456e-06
8.1483959e-05
6.2402386e-06
9.4705395e-05
8.9961509e-06
0.00010630592
1.2485145e-05
0.00011560328
1.6757678e-05
0.00012211192
2.1561629e-05
0.00012562211
2.6538499e-05
0.00012651487
3.1011777e-05
3.48084e-05
0.011176879
-1.9444417e-05
0.0001120262
0.01112883
-1.8668993e-05
0.00011065536
0.011082497
-1.7840576e-05
0.00010672809
0.011039012
-1.698457e-05
0.00010061436
0.010999241
-1.6126178e-05
9.2813364e-05
0.010963749
-1.5283985e-05
8.3895289e-05
0.01093277
7.4477901e-05
-1.4470284e-05
0.010906261
6.5116543e-05
-1.3692698e-05
0.010883994
5.6195871e-05
-1.2955482e-05
0.010865616
4.7959407e-05
-1.2259658e-05
4.0553649e-05
-1.1600135e-05
-0.0099136019
4.6024409e-05
-3.128005e-05
-0.0098660484
4.000028e-05
-6.9333893e-05
-0.0096969024
-2.5414787e-05
-0.00019299089
-0.0091780064
-0.00022785864
-0.00064574776
-0.0039266427
-0.00024948235
-0.0025459923
-0.0040980432
-0.0031662723
2.9094147e-05
-3.8564422e-05
-0.00075090011
-0.0030059699
0.0001710052
-0.00019758526
-0.00013372241
-0.002748156
8.6069687e-05
-9.8229079e-05
-0.00024565449
-0.0011556199
5.9928615e-05
5.984494e-05
-0.00059646659
-0.0011158431
-0.00093095327
6.411759e-07
2.39288e-06
-0.00022770066
-0.00088422301
1.5043579e-05
1.6166431e-06
-6.3390475e-05
-0.00084546502
-9.7176944e-06
8.4382264e-07
-2.9884119e-05
-0.00080700375
-1.4868935e-05
2.2375862e-06
-2.5829927e-05
-0.00077150033
-7.4164974e-06
1.2204508e-06
-2.9307372e-05
-0.00073630358
-2.7179139e-06
-6.6055483e-09
-3.2472228e-05
-0.00069699928
-9.3938409e-07
-1.8833463e-07
-3.8176583e-05
-0.00064417984
-7.9803516e-07
5.168593e-07
-5.2538258e-05
-0.00055854232
-1.525338e-06
1.5947094e-06
-8.5706894e-05
-0.0004421591
-1.8751979e-06
1.9558759e-06
-0.00011646389
-3.9465038e-06
4.3330392e-06
-0.00084794355
0.00040539791
-3.3238998e-06
0.00043767946
-0.00084190655
0.00040360448
-2.3109664e-06
0.00043368235
-0.00083595883
0.00040126355
-1.4645605e-06
0.00043070957
-0.00082951524
0.00039795927
-1.2256259e-06
0.0004287851
-0.00082332508
0.00039430104
-1.1503077e-06
0.00042791888
-0.00082073177
0.00039273757
-7.520023e-07
0.00042774867
-0.00082112966
0.00039298269
-4.7051035e-07
0.00042763838
-0.00082035483
0.00039243496
-7.0856475e-07
0.00042740816
-0.00081819917
0.00039102906
-1.0128803e-06
0.00042755457
-0.0008181986
0.00039094835
-8.6195871e-07
0.00042801676
-0.00082030395
0.00039213627
-7.1498765e-07
0.00042822528
-0.00082055195
0.0003921797
-1.0526679e-06
0.0004281418
-0.00081886558
0.00039106146
-1.4108688e-06
0.00042825913
-0.00081909001
0.00039118908
-1.3344999e-06
0.00042891369