/*--------------------------------*- C++ -*----------------------------------*\
| =========                 |                                                 |
| \\      /  F ield         | OpenFOAM: The Open Source CFD Toolbox           |
|  \\    /   O peration     | Version:  v2012                                 |
|   \\  /    A nd           | Website:  www.openfoam.com                      |
|    \\/     M anipulation  |                                                 |
\*---------------------------------------------------------------------------*/
FoamFile
{
    version     2.0;
    format      ascii;
    class       volVectorField;
    location    "158";
    object      U;
}
// * * * * * * * * * * * * * * * * * * * * * * * * * * * * * * * * * * * * * //

dimensions      [0 1 -1 0 0 0 0];


internalField   nonuniform List<vector> 
14948
(
(5.4990274 -0.44123977 -0.00108324)
(5.4777788 -0.46169055 0.00096070215)
(5.459532 -0.46865706 0.00042886811)
(5.4512943 -0.47601712 4.4361033e-05)
(5.436379 -0.48581885 0.00066740583)
(5.4204078 -0.49250634 0.0010675363)
(5.4138113 -0.49503144 0.00042698445)
(5.4017033 -0.505963 0.0010574217)
(5.383275 -0.51178738 0.0011155433)
(5.3726933 -0.51408604 0.00034313744)
(5.3598813 -0.52134944 0.00018572464)
(5.3410188 -0.52864668 0.00089517269)
(5.3256508 -0.53181608 0.00047593071)
(5.310971 -0.5383116 0.00048417243)
(5.2892746 -0.54727605 0.0011873803)
(5.2708868 -0.54827913 0.00059094356)
(5.2510957 -0.55288091 0.0007645301)
(5.2257407 -0.55631275 0.00076832655)
(5.2015606 -0.56060532 -0.00029389559)
(5.1758242 -0.56851725 -0.0016200973)
(5.1541466 -0.57820424 -0.0014470822)
(5.1311955 -0.58479949 -0.00013355887)
(5.1062235 -0.59113684 -0.00018030121)
(5.0878727 -0.59665201 -6.3894068e-05)
(5.0701144 -0.60136518 0.0010347494)
(5.0468106 -0.60601721 0.0012523294)
(5.0217666 -0.60697089 0.00012526083)
(4.9968411 -0.60882876 0.00041734512)
(4.9656096 -0.61294219 0.00081357984)
(4.9307418 -0.61295043 -2.3319339e-05)
(4.8894686 -0.61622001 0.0014189444)
(4.8410228 -0.6155058 0.001023008)
(4.7715168 -0.61009042 0.0011598408)
(4.7139671 -0.58405767 -0.00044384229)
(4.4703793 -0.59588104 0.0068860881)
(4.3077033 -0.30858831 0.0049624592)
(4.5494878 -0.13821901 -0.016897818)
(4.7593419 -0.07051424 0.0074546544)
(4.7990375 -0.051941086 -0.0035951958)
(4.8504472 -0.031696813 -0.0093441924)
(4.8976 -0.019686673 -0.0063834019)
(4.9288823 -0.013847163 -0.0043621835)
(4.9515485 -0.010261933 -0.0032875707)
(4.9997059 0.00091667863 0.0035223854)
(5.0047345 0.00066538362 0.0056464564)
(5.0109796 0.00038230019 0.0081571521)
(5.0187527 7.2846198e-05 0.011052751)
(5.0284056 -0.00024937047 0.014232012)
(5.0401021 -0.000554697 0.017402974)
(5.0537667 -0.00081468488 0.020242653)
(5.069091 -0.0010055321 0.022475341)
(5.0856094 -0.0011158924 0.023932799)
(5.1028587 -0.0011446552 0.02453656)
(5.1202336 -0.0010952528 0.024280641)
(5.1372811 -0.00097405024 0.023199835)
(5.1535136 -0.0007892354 0.021331391)
(5.1684792 -0.000545465 0.018704902)
(5.1817329 -0.00024582918 0.015333104)
(5.4902445 -0.44494577 0.0027682363)
(5.4909039 -0.44202095 0.0050694909)
(5.4911574 -0.44096459 0.0032000217)
(5.4906809 -0.43881768 0.0050864769)
(5.4896112 -0.43691339 0.0050325108)
(5.4889898 -0.43463907 0.0072570779)
(5.4877834 -0.43282174 0.0076075918)
(5.4871505 -0.43097507 0.010253858)
(5.4863456 -0.42935616 0.010996295)
(5.4864709 -0.42684354 0.013387064)
(5.4856299 -0.42444267 0.013622714)
(5.4857958 -0.42202737 0.016668931)
(5.4854685 -0.42012985 0.017918273)
(5.4858312 -0.41827346 0.021203942)
(5.4855039 -0.41666746 0.022540907)
(5.4865262 -0.41493345 0.026015254)
(5.2244819 -0.01053762 0.001848233)
(5.2018467 -0.010432757 0.0017811783)
(5.179618 -0.010098115 0.0017105065)
(5.1583625 -0.0095603813 0.00163725)
(5.1385296 -0.0088586526 0.0015628712)
(5.1205016 -0.0080416183 0.0014889515)
(5.1045102 -0.0071645467 0.0014164321)
(5.0906427 -0.0062793987 0.0013458719)
(5.0788631 -0.0054263962 0.0012776383)
(5.0690492 -0.0046337178 0.0012121151)
(5.0610225 -0.0039187544 0.0011495139)
(5.0609589 -0.011943513 0.0011595653)
(5.068884 -0.014139795 0.0012241136)
(5.0786295 -0.01657905 0.0012922381)
(5.0903916 -0.019208232 0.0013637841)
(5.1043118 -0.021940702 0.0014383671)
(5.120446 -0.024652118 0.0015156674)
(5.1387165 -0.027179263 0.0015950707)
(5.1588822 -0.029348401 0.0016753648)
(5.1805454 -0.031008645 0.0017547897)
(5.2032334 -0.032040401 0.0018316881)
(5.226363 -0.03236406 0.0019050371)
(5.2298256 -0.056292275 0.0020001927)
(5.2057864 -0.055697606 0.0019078057)
(5.1822631 -0.053863476 0.0018122485)
(5.1598681 -0.050922685 0.0017148482)
(5.1391219 -0.047083027 0.0016182712)
(5.1204529 -0.042611244 0.0015251171)
(5.1041183 -0.037826455 0.0014375302)
(5.0901713 -0.033026716 0.0013559996)
(5.0785081 -0.028429688 0.0012802447)
(5.0689465 -0.024183737 0.0012102842)
(5.0612548 -0.020377728 0.001145738)
(5.0616107 -0.029111838 0.001100947)
(5.0688503 -0.034675823 0.0011607372)
(5.0780275 -0.040930863 0.0012286829)
(5.0894359 -0.047756292 0.0013065099)
(5.1033322 -0.054941429 0.001395115)
(5.1199167 -0.062166548 0.0014964135)
(5.1391909 -0.06895631 0.0016106486)
(5.1608629 -0.074792284 0.0017333584)
(5.1844478 -0.079274802 0.0018600029)
(5.2093382 -0.082094363 0.0019859799)
(5.2348698 -0.083064382 0.0021097767)
(5.2413774 -0.11321197 0.0022385865)
(5.2136048 -0.11172742 0.0020794436)
(5.1866444 -0.10768056 0.0019173106)
(5.161259 -0.10130467 0.0017564745)
(5.1381965 -0.093021677 0.0016076529)
(5.1180412 -0.083373487 0.0014750038)
(5.1011676 -0.073185985 0.0013657046)
(5.0874621 -0.063191766 0.0012746889)
(5.076545 -0.05381566 0.0011970876)
(5.0680383 -0.045321385 0.0011321686)
(5.0615526 -0.03784865 0.0010767398)
(5.0604932 -0.045991635 0.0011279027)
(5.0658267 -0.055464263 0.0011862613)
(5.0732569 -0.066410982 0.0012533849)
(5.0833065 -0.078701825 0.0013333852)
(5.0965382 -0.092041461 0.0014240637)
(5.1136634 -0.10592247 0.0015328569)
(5.1350318 -0.1192203 0.0016726316)
(5.1600661 -0.13057077 0.001833127)
(5.1879988 -0.13930718 0.0020201936)
(5.2178631 -0.14489516 0.0022163436)
(5.2487303 -0.14708642 0.0024097227)
(5.255673 -0.18513257 0.0026626303)
(5.2208281 -0.1820775 0.0024179909)
(5.1871392 -0.17463527 0.0021754003)
(5.155781 -0.16300198 0.0019593769)
(5.1280777 -0.14780399 0.0017919347)
(5.1051467 -0.12972122 0.0016482022)
(5.0880181 -0.11115545 0.0015518415)
(5.0758237 -0.093828277 0.0014675388)
(5.0672677 -0.07822134 0.0013857821)
(5.061522 -0.06459785 0.0013154346)
(5.0578846 -0.053039948 0.0012501014)
(5.0530775 -0.05818734 0.0014099841)
(5.0543473 -0.071604384 0.0014972135)
(5.0576222 -0.087819918 0.0015842689)
(5.0637987 -0.10701699 0.0016799774)
(5.074009 -0.12905571 0.001747234)
(5.0905409 -0.15370239 0.0017923666)
(5.1154476 -0.1783464 0.0019163943)
(5.1467416 -0.19843961 0.0020787981)
(5.1826012 -0.21364791 0.0023339908)
(5.2211256 -0.22330806 0.0026620937)
(5.2608324 -0.22743046 0.0029974711)
(5.2628258 -0.2752385 0.003525223)
(5.2173821 -0.27011628 0.0029871391)
(5.1728953 -0.2581845 0.0024559885)
(5.1310521 -0.23883668 0.0020440085)
(5.0947242 -0.21260301 0.0018150517)
(5.0672533 -0.17853118 0.0017056282)
(5.0526168 -0.14594364 0.0017878748)
(5.0460966 -0.11823227 0.0017626091)
(5.0437732 -0.094838267 0.0016721423)
(5.0440618 -0.0757527 0.0016060211)
(5.0458932 -0.060598674 0.0015181679)
(5.0345058 -0.060178484 0.00148478)
(5.0285146 -0.075995354 0.0015554463)
(5.0233147 -0.096615679 0.0015900853)
(5.0202552 -0.12273968 0.0016943759)
(5.0210181 -0.15580679 0.0016456152)
(5.0316428 -0.19811175 0.0011406519)
(5.0626351 -0.24690859 0.00082093466)
(5.1072668 -0.28118751 0.0012142211)
(5.1572316 -0.30562304 0.0020874128)
(5.2093715 -0.32029387 0.0030419391)
(5.2615906 -0.32647639 0.0040116697)
(5.4719791 -0.3416753 0.0096629523)
(5.4225636 -0.3621297 0.0084672006)
(5.3695648 -0.37756359 0.0070242479)
(5.3135771 -0.38718449 0.0053478581)
(5.2556204 -0.38979726 0.0036487014)
(5.1954025 -0.38474652 0.0018262156)
(5.132635 -0.3687486 -0.00071173926)
(5.0700728 -0.33945147 -0.0040501171)
(5.0108077 -0.29289962 -0.0043932431)
(4.9762431 -0.22261867 -0.0014856094)
(4.9758649 -0.16422682 0.00013503807)
(4.9861714 -0.12046163 0.00014589458)
(4.9972328 -0.090333702 0.00020254373)
(5.0082465 -0.068847281 0.00048286415)
(5.018678 -0.053343475 0.00064315979)
(4.9973383 -0.045882176 -0.00077874138)
(4.9814852 -0.059715183 -0.0013231105)
(4.9622751 -0.07954543 -0.0021679151)
(4.9378189 -0.11002341 -0.0024762345)
(4.908146 -0.15522617 -0.0016238091)
(4.888755 -0.20562223 -0.0051329425)
(4.8411083 -0.33280044 -0.0060093825)
(4.7951737 -0.23616249 -0.0010059123)
(4.8027207 -0.15210425 0.0015856273)
(4.8004676 -0.1597881 0.0021533326)
(4.7710664 -0.080848299 0.0018320959)
(4.6749946 -0.054029654 -0.0056069304)
(4.6010333 -0.17843105 0.01167528)
(4.6568438 -0.4820258 0.0026083614)
(4.7726615 -0.50601565 0.00031083352)
(4.8142364 -0.57401415 0.00055400817)
(4.8648232 -0.57877199 0.0017652188)
(4.9039718 -0.58614671 0.0015924698)
(4.9417277 -0.58690031 0.00098256653)
(4.9747045 -0.58927033 0.0011059865)
(5.0052371 -0.58790049 0.00078231199)
(5.0315452 -0.58763304 0.00072789742)
(5.0571247 -0.588137 0.0011761237)
(5.0789839 -0.58720957 0.0013370348)
(5.0906278 -0.58824614 0.00090697676)
(5.1024032 -0.58482808 0.00089918555)
(5.1133037 -0.57419559 0.00015437461)
(5.1355205 -0.57096778 -0.0003557556)
(5.1517142 -0.57062541 -0.00034521454)
(5.165113 -0.56419802 -0.00068278037)
(5.1617942 -0.54229499 -0.0016967063)
(5.1982037 -0.54066361 -0.00069093766)
(5.2321733 -0.53241222 0.00036129456)
(5.2617244 -0.52712038 -1.5676005e-05)
(5.2776776 -0.53687018 0.00024663127)
(5.2973618 -0.5334056 0.0008693954)
(5.3147792 -0.52723528 0.00069179618)
(5.3305643 -0.52177002 0.00061700106)
(5.3466551 -0.51783053 0.00067985187)
(5.363333 -0.51193988 0.00036270708)
(5.3777154 -0.50487601 0.00053384649)
(5.3914305 -0.50163868 0.00080109418)
(5.4074252 -0.49656985 0.00087106271)
(5.4192529 -0.48913357 0.0010574236)
(5.4244086 -0.48724533 0.0014536189)
(5.4335927 -0.48354393 0.001337863)
(5.4431016 -0.47233366 0.00047975321)
(5.4552739 -0.4717061 -0.0003807891)
(5.470565 -0.4603954 0.00057865)
(5.4798051 -0.45859958 0.0018764103)
(5.4917145 -0.44741098 0.00035907755)
(5.4901276 -0.43992815 -0.00050855091)
(5.1423906 -0.00020547251 0.0026966502)
(5.1345888 -0.00046467263 0.0030510882)
(5.1254381 -0.00066953915 0.0033342968)
(5.1152481 -0.00081779546 0.0035449561)
(5.1043367 -0.00090928947 0.0036844945)
(5.0930196 -0.00094588535 0.003756489)
(5.0815757 -0.00093245381 0.0037682701)
(5.0702611 -0.00087475858 0.0037275781)
(5.0593111 -0.00077964938 0.0036423464)
(5.0488881 -0.00065570449 0.0035224897)
(5.0391333 -0.00051172741 0.0033776873)
(5.0301339 -0.00035635052 0.0032169725)
(5.0219356 -0.00019731584 0.0030482603)
(5.0145492 -4.1093761e-05 0.0028780685)
(5.0079568 0.00010735173 0.0027114771)
(5.0078939 9.510315e-05 0.0082711455)
(5.0079227 5.8827586e-05 0.014112715)
(5.0079902 -1.8955141e-06 0.020204754)
(5.0080783 -8.8367455e-05 0.026369841)
(5.0082042 -0.00021097772 0.032337147)
(5.0084046 -0.00039082765 0.037834308)
(5.0087185 -0.00065325332 0.042597069)
(5.0091872 -0.0010038249 0.046383507)
(5.00985 -0.0014326257 0.048986188)
(5.0107382 -0.0018968387 0.050250847)
(5.0118869 -0.00234221 0.050183113)
(5.013296 -0.0027156044 0.048920279)
(5.0437072 -0.0032161573 0.02003084)
(5.0413602 -0.0032665589 0.022412566)
(5.0389398 -0.0033283172 0.024866043)
(5.0364791 -0.003400737 0.02743119)
(5.0340107 -0.0034812205 0.030143352)
(5.0315656 -0.0035639501 0.033025946)
(5.0291753 -0.003638854 0.036082894)
(5.0268718 -0.003690561 0.039286191)
(5.0246896 -0.0036973104 0.042557455)
(5.0226638 -0.0036329984 0.04575383)
(5.0208313 -0.0034700162 0.048648628)
(5.0192249 -0.0031922628 0.050948872)
(5.0178731 -0.0028002732 0.052323101)
(5.0167898 -0.0023292872 0.052478005)
(5.0159776 -0.0018319263 0.051258864)
(5.0153969 -0.0013648217 0.048641778)
(5.0150124 -0.00097346252 0.044773966)
(5.0147797 -0.0006701813 0.039858031)
(5.0146532 -0.00045237773 0.034138886)
(5.0145897 -0.00029674534 0.02788998)
(5.0145489 -0.00018427559 0.021400528)
(5.0145094 -0.00010540401 0.014962825)
(5.0144888 -5.8779671e-05 0.0087754706)
(5.0218883 -0.0002210414 0.0092907793)
(5.0219172 -0.00027909107 0.015832448)
(5.021953 -0.00037840493 0.022625534)
(5.0219797 -0.00052105951 0.029449561)
(5.0220214 -0.00071562611 0.035989757)
(5.0221192 -0.00097885756 0.04193883)
(5.0223178 -0.0013313188 0.047011978)
(5.0226649 -0.001771867 0.050960866)
(5.0232089 -0.0022849857 0.053587016)
(5.0239878 -0.002821926 0.054751792)
(5.0250455 -0.0033231839 0.054499345)
(5.0263759 -0.0037368651 0.053005556)
(5.0279641 -0.0040285679 0.050579583)
(5.0297786 -0.0042003771 0.047565974)
(5.031784 -0.0042703351 0.044261447)
(5.0339411 -0.0042674884 0.040893988)
(5.0362132 -0.0042188888 0.037604083)
(5.0385654 -0.0041468203 0.034467224)
(5.0409661 -0.0040669407 0.031507895)
(5.0433846 -0.0039893669 0.028719018)
(5.0457911 -0.0039199034 0.026074347)
(5.0481545 -0.0038610145 0.023536192)
(5.0504435 -0.0038132382 0.021062851)
(5.0526232 -0.0037764747 0.018609608)
(5.0546541 -0.0037519391 0.016137346)
(5.0564856 -0.0037430895 0.013617028)
(5.058061 -0.0037527866 0.011047949)
(5.0593216 -0.0037799938 0.0084637815)
(5.0602347 -0.003821067 0.0059197142)
(5.0607902 -0.0038687211 0.0034808509)
(5.0688246 -0.0045768243 0.0036711985)
(5.0682845 -0.0045218707 0.0062462391)
(5.067395 -0.0044751569 0.0089307332)
(5.0661694 -0.0044426659 0.011655887)
(5.0646383 -0.0044285671 0.014358015)
(5.0628579 -0.0044339045 0.017001679)
(5.0608819 -0.0044553368 0.019585479)
(5.0587589 -0.0044887617 0.022139309)
(5.0565261 -0.0045327501 0.024702898)
(5.0542164 -0.0045875022 0.027322576)
(5.051859 -0.0046527114 0.030041886)
(5.0494832 -0.0047260532 0.032901135)
(5.0471169 -0.0048017735 0.03592966)
(5.0447892 -0.0048697166 0.039138325)
(5.0425308 -0.0049138934 0.04250659)
(5.0403763 -0.0049114951 0.045962977)
(5.0383633 -0.0048344427 0.049370029)
(5.0365325 -0.0046519676 0.052499612)
(5.0349222 -0.0043438429 0.055051503)
(5.0335664 -0.003905026 0.05666846)
(5.0324811 -0.0033684017 0.057024071)
(5.0316771 -0.00278511 0.055918995)
(5.0311073 -0.0022180206 0.053286544)
(5.030732 -0.0017196928 0.049256283)
(5.0305017 -0.001309867 0.044022864)
(5.0303702 -0.00099396485 0.037840061)
(5.0302945 -0.00075489257 0.031004977)
(5.0302365 -0.00057843308 0.023844713)
(5.0301715 -0.00045672105 0.016696147)
(5.0301126 -0.00038644169 0.0098019122)
(5.0391535 -0.00054822468 0.010289138)
(5.0392688 -0.00063096555 0.017520788)
(5.0394048 -0.00077617191 0.025012033)
(5.0395515 -0.00098896488 0.03249885)
(5.0397327 -0.0012769017 0.039623246)
(5.0399784 -0.0016514082 0.046038114)
(5.0403254 -0.0021257581 0.051432295)
(5.0408141 -0.0026894184 0.05554544)
(5.0414917 -0.003317992 0.058185187)
(5.0423966 -0.0039544842 0.059230918)
(5.0435774 -0.0045314235 0.05877278)
(5.045018 -0.0049991519 0.05703691)
(5.0467013 -0.0053265835 0.054365983)
(5.0485906 -0.0055220503 0.051130578)
(5.0506457 -0.005608229 0.047632887)
(5.0528254 -0.0056177778 0.04410061)
(5.0550918 -0.0055798386 0.040666906)
(5.0574121 -0.0055178859 0.037398731)
(5.059757 -0.0054481211 0.034311832)
(5.0620999 -0.0053807799 0.031391301)
(5.0644153 -0.0053215567 0.028604376)
(5.0666764 -0.005272555 0.02590808)
(5.0688565 -0.0052338732 0.023256961)
(5.0709252 -0.0052051394 0.020603126)
(5.0728476 -0.0051880483 0.017906382)
(5.0745776 -0.0051874257 0.01513598)
(5.0760645 -0.0052071117 0.012295631)
(5.077255 -0.0052459623 0.0094225408)
(5.0781211 -0.0052990918 0.006590304)
(5.0786459 -0.0053623247 0.0038711846)
(5.0904321 -0.0062080429 0.004080286)
(5.0899217 -0.0061357039 0.0069512094)
(5.0890784 -0.0060754341 0.0099381211)
(5.087922 -0.0060289973 0.012965657)
(5.0864776 -0.0060022724 0.015948753)
(5.0847958 -0.0059966992 0.01884845)
(5.082924 -0.0060078913 0.021658549)
(5.0809054 -0.0060301688 0.024410509)
(5.0787722 -0.0060616449 0.02714483)
(5.0765519 -0.0061028002 0.029910856)
(5.0742686 -0.0061538483 0.032755825)
(5.0719458 -0.0062128886 0.035725445)
(5.0696058 -0.0062743337 0.038855954)
(5.067272 -0.0063278711 0.042166674)
(5.0649707 -0.0063570858 0.045646892)
(5.0627323 -0.0063379136 0.049235284)
(5.0605934 -0.0062400017 0.052803557)
(5.0585942 -0.0060287613 0.056125972)
(5.0567763 -0.0056788247 0.058899103)
(5.055178 -0.0051785161 0.060740332)
(5.0538182 -0.0045566973 0.061291073)
(5.0527182 -0.0038612062 0.060296784)
(5.0518319 -0.0031652372 0.05764428)
(5.0511253 -0.0025307215 0.053445835)
(5.0505577 -0.0019871669 0.047893802)
(5.0501005 -0.0015503434 0.04125673)
(5.0497288 -0.0012114057 0.033860145)
(5.049425 -0.00096145956 0.0260711)
(5.0491692 -0.00079298322 0.018266067)
(5.0489669 -0.00069836374 0.010728376)
(5.0594668 -0.00082772826 0.011092242)
(5.0597896 -0.00093277845 0.018885987)
(5.0602194 -0.0011227076 0.026957178)
(5.0607568 -0.0014082792 0.035006985)
(5.0614147 -0.001797562 0.042644185)
(5.0621932 -0.0022970289 0.049483387)
(5.0630997 -0.0029110048 0.055185103)
(5.064145 -0.0036186026 0.059471342)
(5.0653583 -0.0043850865 0.062147055)
(5.066764 -0.005143186 0.063106254)
(5.0684016 -0.0058130231 0.062484011)
(5.0702437 -0.0063491855 0.060563245)
(5.0722694 -0.0067246564 0.057716238)
(5.0744391 -0.0069546611 0.05433666)
(5.0767113 -0.0070673582 0.050727343)
(5.0790484 -0.007099204 0.047110816)
(5.0814166 -0.0070817405 0.043609583)
(5.0837898 -0.0070396356 0.040278777)
(5.0861456 -0.0069894739 0.03712377)
(5.0884649 -0.006941571 0.034120763)
(5.0907296 -0.0069014179 0.031230113)
(5.0929198 -0.0068706392 0.02840353)
(5.0950149 -0.0068487535 0.025592183)
(5.0969905 -0.0068351313 0.022745517)
(5.0988175 -0.0068318555 0.019822924)
(5.1004556 -0.0068454345 0.016792427)
(5.1018608 -0.0068808412 0.013662976)
(5.1029856 -0.0069361806 0.010475318)
(5.1038078 -0.0070043006 0.0073272812)
(5.1043054 -0.0070862633 0.0042976379)
(5.1203011 -0.0079570726 0.0045219577)
(5.1198142 -0.0078652938 0.007716206)
(5.1190102 -0.0077886475 0.011030563)
(5.1179128 -0.0077230435 0.014382723)
(5.1165409 -0.0076771608 0.017660756)
(5.1149392 -0.007653424 0.02082213)
(5.1131481 -0.0076463717 0.023854708)
(5.1112048 -0.0076487118 0.026790823)
(5.1091352 -0.0076582037 0.029670889)
(5.1069602 -0.0076755812 0.032546346)
(5.1046964 -0.0077016724 0.035467245)
(5.1023596 -0.0077351482 0.03848421)
(5.0999629 -0.0077705453 0.041639849)
(5.09752 -0.0077977556 0.044962403)
(5.0950476 -0.0077999492 0.048451681)
(5.092566 -0.0077521161 0.052059294)
(5.0901044 -0.0076215362 0.055669136)
(5.0876955 -0.0073701359 0.059063717)
(5.0853795 -0.0069669177 0.061942536)
(5.0831958 -0.0063933173 0.06390331)
(5.0811698 -0.005674821 0.064563563)
(5.0793346 -0.0048540639 0.06361411)
(5.0776637 -0.0040181209 0.060900232)
(5.0761472 -0.003239828 0.056525053)
(5.0747731 -0.0025587922 0.050688864)
(5.0735549 -0.0020003235 0.043679842)
(5.0725079 -0.0015647847 0.035849629)
(5.0716541 -0.0012477765 0.027599504)
(5.0709912 -0.0010400216 0.019330268)
(5.0705122 -0.00092698303 0.011351229)
(5.0819375 -0.00098713042 0.011475346)
(5.0826016 -0.0011047886 0.019548121)
(5.0835465 -0.001325085 0.027925918)
(5.0847892 -0.001666423 0.036295328)
(5.0863263 -0.0021405183 0.044253041)
(5.0881058 -0.0027497032 0.051385759)
(5.0900813 -0.0034890812 0.057332736)
(5.092208 -0.004330316 0.061795723)
(5.0944735 -0.0052291891 0.064566185)
(5.0968673 -0.0061075463 0.065540361)
(5.0993987 -0.0068713374 0.064888461)
(5.1020273 -0.0074808339 0.062941734)
(5.1047214 -0.0079120314 0.060087926)
(5.1074429 -0.0081863881 0.056733944)
(5.1101549 -0.0083374243 0.053175607)
(5.1128311 -0.0084044536 0.049623605)
(5.1154496 -0.0084212062 0.046186977)
(5.1179973 -0.0084127199 0.04290714)
(5.1204648 -0.0083959018 0.03977945)
(5.1228446 -0.0083806114 0.036771863)
(5.1251296 -0.0083721584 0.03383928)
(5.1273087 -0.0083716365 0.030929303)
(5.1293695 -0.008377793 0.02799117)
(5.131295 -0.008389735 0.024972978)
(5.1330627 -0.0084098472 0.021834927)
(5.1346385 -0.0084461549 0.018544531)
(5.1359854 -0.0085044208 0.015117588)
(5.1370618 -0.0085816192 0.011598426)
(5.1378519 -0.0086671823 0.00811444)
(5.1383314 -0.0087686367 0.0047513575)
(5.1581629 -0.009466213 0.0049831307)
(5.1576864 -0.0093556228 0.0085169202)
(5.1569041 -0.0092609523 0.012171498)
(5.1558398 -0.0091708877 0.015857611)
(5.1545061 -0.0090981897 0.019431345)
(5.1529415 -0.0090466306 0.022846429)
(5.1511801 -0.0090103375 0.026083014)
(5.1492529 -0.0089806556 0.029173411)
(5.1471787 -0.0089551866 0.032156328)
(5.1449707 -0.0089350106 0.035083637)
(5.1426368 -0.0089218236 0.038005944)
(5.1401819 -0.0089146033 0.040976843)
(5.1376071 -0.0089085852 0.044043395)
(5.1349136 -0.0088941644 0.047240249)
(5.1321024 -0.0088547183 0.050576351)
(5.1291778 -0.0087654044 0.054017061)
(5.1261525 -0.0085919479 0.057460683)
(5.1230445 -0.008294534 0.060705413)
(5.1198855 -0.0078375581 0.063463281)
(5.1167112 -0.0071972187 0.065327704)
(5.113561 -0.0063962894 0.06591243)
(5.1104841 -0.0054712096 0.064870799)
(5.1074967 -0.0045220613 0.062022851)
(5.1046407 -0.0036315057 0.057477623)
(5.1019532 -0.0028478923 0.05145407)
(5.0995147 -0.0022010231 0.044260346)
(5.0974005 -0.0017001089 0.036263106)
(5.0956815 -0.0013445023 0.027877575)
(5.0943938 -0.001118791 0.019499084)
(5.0935089 -0.0010008269 0.011440753)
(5.1049614 -0.00096206965 0.011223652)
(5.1060845 -0.0010754367 0.019142315)
(5.1077463 -0.0012981215 0.027396465)
(5.1099873 -0.0016579375 0.035683349)
(5.1127697 -0.0021700805 0.043622407)
(5.1159826 -0.0028364916 0.050801458)
(5.1195087 -0.0036444295 0.056855552)
(5.1232269 -0.0045634476 0.06146771)
(5.1270507 -0.0055431841 0.064410208)
(5.1309138 -0.006498592 0.06556812)
(5.1347762 -0.0073245914 0.06511995)
(5.1385787 -0.0079877798 0.063418239)
(5.1422736 -0.0084666405 0.060839347)
(5.1458288 -0.0087863457 0.057782959)
(5.1492191 -0.008983787 0.054525912)
(5.1524369 -0.0090986145 0.051259136)
(5.1554801 -0.0091648708 0.048076659)
(5.1583549 -0.0092068001 0.045007049)
(5.1610699 -0.0092404426 0.04203814)
(5.1636319 -0.0092749881 0.03913435)
(5.1660492 -0.0093142522 0.036247271)
(5.1683187 -0.0093592603 0.033322671)
(5.1704366 -0.0094080423 0.030311126)
(5.1723931 -0.0094593143 0.027161475)
(5.1741724 -0.0095153262 0.023836345)
(5.1757468 -0.0095850676 0.020304131)
(5.1770846 -0.0096743706 0.016589089)
(5.1781498 -0.0097785887 0.012739562)
(5.178933 -0.009882498 0.0089164989)
(5.1794129 -0.010001469 0.00521315)
(5.2016336 -0.01033561 0.0054365735)
(5.2011455 -0.010209173 0.0093048879)
(5.2003537 -0.010095797 0.0132904)
(5.199276 -0.0099760955 0.017295839)
(5.1979189 -0.0098678828 0.021142954)
(5.1963161 -0.0097766919 0.024781183)
(5.1944969 -0.0096970095 0.028181666)
(5.1924864 -0.0096198947 0.031374694)
(5.1902974 -0.0095433541 0.034396227)
(5.1879366 -0.0094689448 0.037296333)
(5.1854033 -0.009399006 0.040123958)
(5.1826835 -0.0093333963 0.042930629)
(5.1797745 -0.0092679139 0.045763429)
(5.1766626 -0.0091942409 0.048658426)
(5.1733292 -0.009097327 0.051630124)
(5.1697579 -0.0089542025 0.0546556)
(5.1659393 -0.0087317196 0.057648122)
(5.1618694 -0.00839147 0.060430112)
(5.1575654 -0.007896173 0.062738969)
(5.1530535 -0.0072205053 0.064189562)
(5.148389 -0.0063849294 0.064424423)
(5.1436418 -0.0054198547 0.063095563)
(5.138887 -0.0044336265 0.060036949)
(5.1342398 -0.0035105709 0.055372225)
(5.1298143 -0.0027019528 0.049338778)
(5.1257734 -0.0020365734 0.042258965)
(5.1222753 -0.0015299453 0.034488616)
(5.119464 -0.0011799635 0.026430159)
(5.1173947 -0.00096941129 0.018440411)
(5.1160153 -0.00086584525 0.010802076)
(5.1263481 -0.00071011396 0.010165568)
(5.1279895 -0.00079826784 0.017374753)
(5.13048 -0.00098655589 0.024949273)
(5.1338855 -0.0013114533 0.032634404)
(5.138136 -0.0017925582 0.040108477)
(5.1430533 -0.0024327862 0.046990925)
(5.1484355 -0.0032148665 0.052943622)
(5.1540741 -0.0041143473 0.057644316)
(5.1598099 -0.0050797757 0.060845725)
(5.1654857 -0.0060313069 0.062408404)
(5.1709941 -0.006859494 0.0624714)
(5.1762548 -0.0075365086 0.061366925)
(5.1812056 -0.0080426081 0.059424157)
(5.1858272 -0.0084018236 0.057005636)
(5.1901114 -0.0086507174 0.054356713)
(5.1940738 -0.0088251669 0.051639632)
(5.1977357 -0.0089567808 0.048935049)
(5.2011237 -0.0090667785 0.046261478)
(5.2042655 -0.0091686705 0.043603594)
(5.2071826 -0.0092698509 0.040927331)
(5.2098919 -0.0093746929 0.038188527)
(5.2124022 -0.0094826021 0.035338279)
(5.2147166 -0.0095909168 0.032329087)
(5.216831 -0.0096979187 0.029112552)
(5.218735 -0.0098050121 0.025654095)
(5.2204057 -0.0099207841 0.021925465)
(5.2218143 -0.010050005 0.017960049)
(5.2229292 -0.010186303 0.013810908)
(5.2237463 -0.010308966 0.0096732729)
(5.2242541 -0.010441734 0.0056491723)
(5.2048691 -0.0077759291 0.055808252)
(5.1996576 -0.0073984334 0.057775544)
(5.1940263 -0.0068864011 0.059255594)
(5.1879867 -0.0062191801 0.059918393)
(5.1816069 -0.005416064 0.059471417)
(5.1749755 -0.0045036821 0.057612761)
(5.1682351 -0.0035908422 0.054248911)
(5.1615892 -0.0027478185 0.049538578)
(5.1552417 -0.0020234758 0.043734528)
(5.1494445 -0.0014355451 0.037153965)
(5.1444423 -0.0010017147 0.030108008)
(5.1404445 -0.00071795195 0.022944086)
(5.1375358 -0.00056239791 0.015939043)
(5.1356371 -0.00049518959 0.0093107772)
(5.1435652 -0.00022388778 0.0082440318)
(5.145702 -0.00026499076 0.014144058)
(5.1490043 -0.00037748624 0.02042888)
(5.1535628 -0.00060369468 0.0269251)
(5.1592806 -0.00096755716 0.033410067)
(5.1659209 -0.0014745114 0.03958125)
(5.1731986 -0.0021081066 0.045164435)
(5.1808229 -0.0028598701 0.049854784)
(5.1885434 -0.0036862341 0.053398206)
(5.1961132 -0.0045323443 0.055611831)
(5.203355 -0.0052925248 0.056524063)
(5.2101743 -0.0059389886 0.056391787)
(5.2260983 -0.032152988 0.0057775162)
(5.2029892 -0.031826682 0.0055525538)
(5.1803149 -0.03079603 0.0053180048)
(5.1586626 -0.02914104 0.0050779972)
(5.1385025 -0.026980584 0.0048371075)
(5.120233 -0.02446486 0.0045994174)
(5.1040961 -0.021766524 0.0043676894)
(5.0901711 -0.019048465 0.0041435517)
(5.0784023 -0.016434646 0.0039281033)
(5.0686488 -0.014010787 0.0037224578)
(5.0607149 -0.011829327 0.0035271125)
(4.9616788 -0.012657922 0.0013749793)
(4.9385315 -0.017944356 0.002269416)
(4.9017807 -0.02819845 0.0023830139)
(4.8595768 -0.047042383 -0.0011700907)
(4.8194042 -0.072943779 0.0010484896)
(4.5864861 -0.13853413 0.025700269)
(4.3652731 -0.30597212 0.0017182298)
(4.488815 -0.59879149 0.0039725553)
(4.7425663 -0.58705848 -0.00065134146)
(4.8084997 -0.60703516 -0.0049780173)
(4.8584443 -0.61410647 5.4706457e-06)
(4.8990381 -0.61361938 0.00042474619)
(4.935446 -0.61170075 0.00021812289)
(4.9670301 -0.60978067 0.00070083993)
(4.9959929 -0.60807687 0.00095011241)
(5.0225429 -0.60522116 0.0010528363)
(5.0458905 -0.60233129 0.0012414184)
(5.0675425 -0.60020016 0.0015472285)
(5.0885957 -0.59584456 0.0016030462)
(5.1051587 -0.58715248 0.0019549334)
(5.1044698 -0.58635449 0.0010425417)
(5.1035723 -0.58545681 0.0016919677)
(5.1026157 -0.58460658 0.0015513126)
(5.1015883 -0.58378458 0.0025266957)
(5.1008837 -0.58318178 0.0014690278)
(5.100756 -0.58312246 0.0026239167)
(5.1012607 -0.58290941 0.003284162)
(5.1019129 -0.58227664 0.0049808916)
(5.1021887 -0.58182861 0.0049581865)
(5.1020724 -0.58144729 0.0067996707)
(5.1020784 -0.58128892 0.0076064979)
(5.1020692 -0.58119184 0.0093428208)
(5.1020334 -0.58084556 0.0093259046)
(5.1015529 -0.5812082 0.01133358)
(5.1016184 -0.58080422 0.013020317)
(5.1024196 -0.57869463 0.014419783)
(5.1024198 -0.57921162 0.013924344)
(5.1018935 -0.57960457 0.016379425)
(5.1013274 -0.57791234 0.017651722)
(5.1009837 -0.57723289 0.01882678)
(5.1005136 -0.5771355 0.018845186)
(5.1002231 -0.57659917 0.020348098)
(5.1000396 -0.57628042 0.020804353)
(5.0996964 -0.57631795 0.021925768)
(5.0994834 -0.57586449 0.02200308)
(5.0994713 -0.5748852 0.023262251)
(5.0993574 -0.57433154 0.023568879)
(5.0991786 -0.57386277 0.02456222)
(5.0991166 -0.57292338 0.024445283)
(5.0988451 -0.57204823 0.025410348)
(5.0984691 -0.57161085 0.025609579)
(5.0982774 -0.57092388 0.026442435)
(5.0980404 -0.57003464 0.026163138)
(5.0976377 -0.5694679 0.026937689)
(5.0972353 -0.56918996 0.026721628)
(5.0968746 -0.5697364 0.026865705)
(5.0967052 -0.57037326 0.026849522)
(5.0959161 -0.56896309 0.027845023)
(5.0959392 -0.56748308 0.027023897)
(5.0969103 -0.56800471 0.026884738)
(5.0968184 -0.56727568 0.026287778)
(5.0966031 -0.56555772 0.026062421)
(5.0964411 -0.56538981 0.024822709)
(5.0964023 -0.56531157 0.024372441)
(5.0967688 -0.56442927 0.022972273)
(5.0973808 -0.56302141 0.022272067)
(5.0979702 -0.56215503 0.020620761)
(5.098306 -0.56202292 0.019232757)
(5.0983414 -0.5621 0.016864611)
(5.0984434 -0.56177165 0.015338263)
(5.0988516 -0.56119782 0.013020523)
(5.0994085 -0.56047793 0.010853364)
(5.099777 -0.5597069 0.0075861543)
(5.1000158 -0.55879723 0.0048092574)
(5.1002965 -0.55813175 0.0010620131)
(5.1005827 -0.55770028 -0.0027317046)
(5.1007142 -0.55715263 -0.007764928)
(5.1010865 -0.55625727 -0.012722896)
(5.1020505 -0.55669481 -0.018330653)
(5.1032895 -0.55597802 -0.023718517)
(5.1035404 -0.55402074 -0.031206879)
(5.1040004 -0.55309788 -0.039747009)
(5.1051417 -0.55363106 -0.049096251)
(5.1054671 -0.55383185 -0.05863895)
(5.1051426 -0.55371909 -0.069854317)
(5.104412 -0.55325092 -0.082125448)
(5.1025823 -0.55211379 -0.095132966)
(5.0986209 -0.55084509 -0.10923122)
(5.0925456 -0.55045065 -0.12556287)
(5.0837241 -0.54954739 -0.14388326)
(5.070165 -0.5481676 -0.1621012)
(5.055303 -0.54585527 -0.18049935)
(5.0368772 -0.54324074 -0.20401633)
(5.0375703 -0.54050711 -0.21185095)
(5.0359573 -0.53322832 -0.22217454)
(5.017128 -0.52904415 -0.24186285)
(5.003381 -0.52701063 -0.25586099)
(4.9961317 -0.52869052 -0.26341476)
(4.9854595 -0.53313713 -0.26634061)
(4.9863754 -0.53674157 -0.25843974)
(4.9999712 -0.53666733 -0.24423308)
(5.0176971 -0.5397614 -0.22011512)
(5.000867 -0.54744637 -0.22236103)
(5.0195286 -0.54946897 -0.20449479)
(5.0366531 -0.55145374 -0.18252864)
(5.0522992 -0.55269963 -0.16315529)
(5.0647467 -0.55636358 -0.14391435)
(5.0728648 -0.56008702 -0.12562815)