/*--------------------------------*- C++ -*----------------------------------*\
| =========                 |                                                 |
| \\      /  F ield         | OpenFOAM: The Open Source CFD Toolbox           |
|  \\    /   O peration     | Version:  v2012                                 |
|   \\  /    A nd           | Website:  www.openfoam.com                      |
|    \\/     M anipulation  |                                                 |
\*---------------------------------------------------------------------------*/
FoamFile
{
    version     2.0;
    format      ascii;
    class       volScalarField;
    location    "200";
    object      nut;
}
// * * * * * * * * * * * * * * * * * * * * * * * * * * * * * * * * * * * * * //

dimensions      [0 2 -1 0 0 0 0];


internalField   nonuniform List<scalar> 
33454
(
0.0089730009
0.0089869345
0.0090001211
0.0089833378
0.0089600139
0.0089481953
0.0089859679
0.0090100791
0.0089985548
0.0089865372
0.0090021477
0.0090109197
0.0090123745
0.0090099148
0.0090030361
0.0089934253
0.0089811619
0.0089671851
0.0089479856
0.0089220501
0.0088679225
0.0087992824
0.0087318241
0.0086746658
0.0087538122
0.0090355717
0.0090381705
0.0089891619
0.0089223997
0.0088620916
0.0088744373
0.008870815
0.0088200555
0.008764662
0.0087495432
0.0087315644
0.0087065665
0.0086777761
0.0086461106
0.0086109937
0.0085706179
0.0085211893
0.0084371818
0.0083338566
0.0082347558
0.0081502758
0.0082458913
0.0085940842
0.0085943674
0.0085289956
0.0084376742
0.0083483226
0.0083451956
0.0083291952
0.008263477
0.0081896642
0.0081586802
0.0081283323
0.008094291
0.0080551265
0.0080096073
0.0079573067
0.0078768705
0.0077803184
0.007766288
0.0079462078
0.002625125
0.0009776802
0.0021001524
0.0051098224
0.0083234304
0.0083734736
0.008397107
0.0084148037
0.0084313297
0.0084473729
0.0084627007
0.0084767892
0.0084894781
0.0085006833
0.0085104642
0.0085188707
0.0085259694
0.008531757
0.031807213
0.031834621
0.0318617
0.031888441
0.031914811
0.031940757
0.031966208
0.031991082
0.032015304
0.032038816
0.032061606
0.03208371
0.032105225
0.032126296
0.032147105
0.03216786
0.032440972
0.032420209
0.032400532
0.032381731
0.032363564
0.032345772
0.032328096
0.032310282
0.032292105
0.032273382
0.032253973
0.032233794
0.032212812
0.032191041
0.032168535
0.032145372
0.032121648
0.032097463
0.032072913
0.032048088
0.032023063
0.031997896
0.031972635
0.031947306
0.031921924
0.031896483
0.031870959
0.031892809
0.031918355
0.031943793
0.031969156
0.03199445
0.032019666
0.032044776
0.032069738
0.032094492
0.032118961
0.032143056
0.032166678
0.032189724
0.032212093
0.032233703
0.032254497
0.032274457
0.032293614
0.032312053
0.032329912
0.032347377
0.032364672
0.032382053
0.03239978
0.032418112
0.03243729
0.032457525
0.032494093
0.032474982
0.032456859
0.032439515
0.03242271
0.032406186
0.032389681
0.03237294
0.032355735
0.032337879
0.032319232
0.032299712
0.032279291
0.032257991
0.032235878
0.032213044
0.032189596
0.032165644
0.032141293
0.032116637
0.032091753
0.032066701
0.032041523
0.032016244
0.031990874
0.031965399
0.031939789
0.032013444
0.032039534
0.032065419
0.03209114
0.032116712
0.032142133
0.03216738
0.032192412
0.032217169
0.032241572
0.03226552
0.032288903
0.032311599
0.032333489
0.032354466
0.032374454
0.032393422
0.03241139
0.032428443
0.032444723
0.032460421
0.032475765
0.032491014
0.032506431
0.032522271
0.03253877
0.032556132
0.032650075
0.032634939
0.032620457
0.032606433
0.032592639
0.032578829
0.03256474
0.032550112
0.032534712
0.032518344
0.032500862
0.032482181
0.032462282
0.032441212
0.032419064
0.032395963
0.032372047
0.032347452
0.032322303
0.032296704
0.032270739
0.032244468
0.032217931
0.032191146
0.032164111
0.032136807
0.03210919
0.032209103
0.032240447
0.032271313
0.032301748
0.032331773
0.032361396
0.032390599
0.032419346
0.032447573
0.032475191
0.032502086
0.032528118
0.032553128
0.032576953
0.03259944
0.032620468
0.032639978
0.032657983
0.032674575
0.03268991
0.032704193
0.032717661
0.032730572
0.032743183
0.032755727
0.032768412
0.032781414
0.032948803
0.032936407
0.032923838
0.032910964
0.032897612
0.032883578
0.032868624
0.032852497
0.032834953
0.03281577
0.03279477
0.032771846
0.032746976
0.032720234
0.032691777
0.032661802
0.032630509
0.032598089
0.032564705
0.032530491
0.032495546
0.032459941
0.032423721
0.032386904
0.032349487
0.032311455
0.03227276
0.032225125
0.032276184
0.032326448
0.032375949
0.03242469
0.032472661
0.032519829
0.032566137
0.032611487
0.032655757
0.032698786
0.032740371
0.032780274
0.03281824
0.032854013
0.032887384
0.032918275
0.032946748
0.032972958
0.032997137
0.033019546
0.033040445
0.033060082
0.033078667
0.033096353
0.033113248
0.033129407
0.033246996
0.033218461
0.03318893
0.033158452
0.033126998
0.033094461
0.033060648
0.033025291
0.03298806
0.032948589
0.03290652
0.032861577
0.032813577
0.032762573
0.032708839
0.032652722
0.03259455
0.032534625
0.032473208
0.032410514
0.032346709
0.032281924
0.032216254
0.03214977
0.032082512
0.032014507
0.031945752
0.031262525
0.031352518
0.031442079
0.031531155
0.031619677
0.031707551
0.031794647
0.031880803
0.031965816
0.032049453
0.032131422
0.032211383
0.03228896
0.032363737
0.032435239
0.032503072
0.032567252
0.032628201
0.032686429
0.03274257
0.032797254
0.032851022
0.032904266
0.032957262
0.033010184
0.033063096
0.033115928
0.032376934
0.032292519
0.032211183
0.032132624
0.032056299
0.031981568
0.031907816
0.031834379
0.031760231
0.031684123
0.031604911
0.031521866
0.031434292
0.031342221
0.031246359
0.031147395
0.031045805
0.030942014
0.030836418
0.030729396
0.030621287
0.030512407
0.030403027
0.030293375
0.030183625
0.030073921
0.029964352
0.027845273
0.02796439
0.028084198
0.028204582
0.028325321
0.028446154
0.028566742
0.028686711
0.028805606
0.028922989
0.029038463
0.029151702
0.029262427
0.029370287
0.02947433
0.029572984
0.029665317
0.029751535
0.029831887
0.029908335
0.029983701
0.030059853
0.030137462
0.030217748
0.030302819
0.030394829
0.030495192
0.027096874
0.027010421
0.026940374
0.026883614
0.02683946
0.026804873
0.026773905
0.026740395
0.026702223
0.026662291
0.026618231
0.026561901
0.026489061
0.026401064
0.026303845
0.026203202
0.026101786
0.025999948
0.025896914
0.025792167
0.02568554
0.025577202
0.025467471
0.025356832
0.025245728
0.025134619
0.025023821
0.024913631
0.024804233
0.020991393
0.021069137
0.021146621
0.021223655
0.021299757
0.021374467
0.021447213
0.02151746
0.021584774
0.021648922
0.021710214
0.021769511
0.021828256
0.021889028
0.021954448
0.02205448
0.022172621
0.022221272
0.022221666
0.022191974
0.022157151
0.022111664
0.022039005
0.02194449
0.021844966
0.021751551
0.021659933
0.021558293
0.021445659
0.012651219
0.015311028
0.015489032
0.015745367
0.015978563
0.016154213
0.016317282
0.016538372
0.016777906
0.016974833
0.01708731
0.01714122
0.017308829
0.017435966
0.017370946
0.01718933
0.017151033
0.01715497
0.017164593
0.0171723
0.01717482
0.017171744
0.017162875
0.017148244
0.017128036
0.017102911
0.017073531
0.017040721
0.017005043
0.016967077
0.016927277
0.013316171
0.013342878
0.013368776
0.013393905
0.013417826
0.013440314
0.013461056
0.013479955
0.013497168
0.013512949
0.013528249
0.013543574
0.013556939
0.013566456
0.013588708
0.013648069
0.013884663
0.014027327
0.01400935
0.012730147
0.012250984
0.01274216
0.01262267
0.012911791
0.012659296
0.012687178
0.011155244
0.011077307
0.0098966131
0.0042399908
0.0018054751
0.0031554017
0.006091007
0.0072060047
0.007752195
0.0076075
0.0079393244
0.0080311971
0.0081393765
0.0081953576
0.0082433757
0.0082799889
0.0083086249
0.0083132719
0.0082563541
0.0083589974
0.0086170373
0.0085710268
0.0085567979
0.0083978676
0.0083897073
0.0084800578
0.0086637704
0.0095133785
0.0094027683
0.0093257743
0.0087508166
0.0083067685
0.0081888348
0.0082931984
0.0083402541
0.0084454923
0.0086797538
0.008728435
0.0087828145
0.0088211249
0.0088502557
0.0088768003
0.0088959862
0.0089105182
0.0089033756
0.0088424012
0.0089284774
0.0091594424
0.0090978959
0.0090728762
0.0089179566
0.0088930621
0.0089608846
0.0091456594
0.0099002764
0.0097154153
0.0096524658
0.0091741772
0.0088134907
0.0087158362
0.0087919397
0.0088210812
0.0088969217
0.0090891049
0.0091116879
0.0091436317
0.0091609726
0.0091699398
0.0091768089
0.0091788321
0.0091798637
0.0091744136
0.0091659566
0.0091412375
0.0090763009
0.0091234024
0.0092953465
0.0092018262
0.0091527159
0.0090003804
0.0089593397
0.0089853589
0.0091383471
0.0098570177
0.0096367045
0.0096430389
0.0096334534
0.032000578
0.031971216
0.031942065
0.031913085
0.031884232
0.03185547
0.03182677
0.031798108
0.031769467
0.031740835
0.031712207
0.031683583
0.031654961
0.031626343
0.03159773
0.031569117
0.031540493
0.031732492
0.031739592
0.031746717
0.031753985
0.031761471
0.031769211
0.031777199
0.031785348
0.031793593
0.031801841
0.031809972
0.031817882
0.031825461
0.031832647
0.031839379
0.031845695
0.031851617
0.031857129
0.031862086
0.031866189
0.031869171
0.031894748
0.031891798
0.031887715
0.031882783
0.031877304
0.03187142
0.031865146
0.031858451
0.031851311
0.031843773
0.031835909
0.03182782
0.031819619
0.031811419
0.031803309
0.031795363
0.031787654
0.031780193
0.03177294
0.031765823
0.031758716
0.031751362
0.031743465
0.031734666
0.031724581
0.031712839
0.031699209
0.031683572
0.031577348
0.031594753
0.031613618
0.031633431
0.031653593
0.031673424
0.031692307
0.031709704
0.031725278
0.031738879
0.031750614
0.031760714
0.031769535
0.031777451
0.031784819
0.031791937
0.03179905
0.031806291
0.031813729
0.031821409
0.031829316
0.031837389
0.031845546
0.0318537
0.03186175
0.031869571
0.031877068
0.031884165
0.031890825
0.031897062
0.031902906
0.031908351
0.031913253
0.031917312
0.031920235
0.031945653
0.031942761
0.031938731
0.031933861
0.03192845
0.031922642
0.031916442
0.031909818
0.03190276
0.031895305
0.031887525
0.031879517
0.031871404
0.031863289
0.031855255
0.031847383
0.031839733
0.031832312
0.031825083
0.031817971
0.031810838
0.03180345
0.031795515
0.031786677
0.031776567
0.031764844
0.031751276
0.031735772
0.031718481
0.031699741
0.031680091
0.031660148
0.031640584
0.031621989
0.03160486
0.031589543
0.031576268
0.031565141
0.031556199
0.031549404
0.03154465
0.031541759
0.031570384
0.031573234
0.031577906
0.031584577
0.031593357
0.031604282
0.031617322
0.031632375
0.031649232
0.031667553
0.031686863
0.031706578
0.031726038
0.031744625
0.031761802
0.031777229
0.031790754
0.031802459
0.031812575
0.031821425
0.031829378
0.031836787
0.031843934
0.031851046
0.031858267
0.031865673
0.031873295
0.031881134
0.03188913
0.031897205
0.031905279
0.031913244
0.031920985
0.031928399
0.031935419
0.031942007
0.031948171
0.031953944
0.031959318
0.031964154
0.031968151
0.031971014
0.031996304
0.031993473
0.031989512
0.031984713
0.031979376
0.03197364
0.031967511
0.031960958
0.031953977
0.031946602
0.0319389
0.031930976
0.031922943
0.031914905
0.031906945
0.031899138
0.031891538
0.031884147
0.031876933
0.031869817
0.031862656
0.031855229
0.03184726
0.0318384
0.03182829
0.031816611
0.031803139
0.031787802
0.03177075
0.031752329
0.031733071
0.031713594
0.031694545
0.031676498
0.031659915
0.031645119
0.031632308
0.031621578
0.031612954
0.0316064
0.031601806
0.031598994
0.031627601
0.031630376
0.031634897
0.03164134
0.031649813
0.031660356
0.031672942
0.031687485
0.031703795
0.031721563
0.031740343
0.031759571
0.031778613
0.031796851
0.031813762
0.031828994
0.031842398
0.031854039
0.031864134
0.031872997
0.03188098
0.031888421
0.031895595
0.031902716
0.031909925
0.031917303
0.031924883
0.031932661
0.031940588
0.03194859
0.031956583
0.031964467
0.031972129
0.031979467
0.03198641
0.031992927
0.03199902
0.032004719
0.032010017
0.032014775
0.032018698
0.032021496
0.032046546
0.032043783
0.032039903
0.032035187
0.03202993
0.032024268
0.032018211
0.032011732
0.032004826
0.031997526
0.031989904
0.031982059
0.031974104
0.031966136
0.031958242
0.03195049
0.031942927
0.031935559
0.031928352
0.031921226
0.031914041
0.031906588
0.031898599
0.031889741
0.031879671
0.031868084
0.031854765
0.031839658
0.03182291
0.031804873
0.031786066
0.031767101
0.031748601
0.031731118
0.031715082
0.031700792
0.031688426
0.031678066
0.031669738
0.031663401
0.031658949
0.03165621
0.031684822
0.031687525
0.03169191
0.031698145
0.031706333
0.031716512
0.031728661
0.031742699
0.031758456
0.031775646
0.031793853
0.031812535
0.031831085
0.031848896
0.031865456
0.031880414
0.031893625
0.03190514
0.031915169
0.031924012
0.031932001
0.031939461
0.031946655
0.031953786
0.031960992
0.031968353
0.031975901
0.031983629
0.031991494
0.031999428
0.032007347
0.032015152
0.032022735
0.032029996
0.032036865
0.032043306
0.032049325
0.032054948
0.032060163
0.032064833
0.032068669
0.032071395
0.032095968
0.032093281
0.032089493
0.032084871
0.032079701
0.032074119
0.032068138
0.032061736
0.032054906
0.032047683
0.03204014
0.032032374
0.032024491
0.032016589
0.032008752
0.032001046
0.031993511
0.031986157
0.031978951
0.031971815
0.031964615
0.031957154
0.031949173
0.031940359
0.031930389
0.031918968
0.031905892
0.031891112
0.031874771
0.031857217
0.031838953
0.031820575
0.031802681
0.031785796
0.031770324
0.03175654
0.031744609
0.031734608
0.031726559
0.031720424
0.031716103
0.031713435
0.03174205
0.031744684
0.031748941
0.031754976
0.031762886
0.031772708
0.03178442
0.031797943
0.031813119
0.031829683
0.031847242
0.031865286
0.03188323
0.031900492
0.031916575
0.031931144
0.031944052
0.031955353
0.031965243
0.031974012
0.031981972
0.031989428
0.031996629
0.032003768
0.032010974
0.032018324
0.032025846
0.032033531
0.032041341
0.03204921
0.032057058
0.032064785
0.032072287
0.032079469
0.032086259
0.032092622
0.032098561
0.0321041
0.032109224
0.032113795
0.032117533
0.032120177
0.032143927
0.032141327
0.032137643
0.032133125
0.032128051
0.032122558
0.032116662
0.032110342
0.032103595
0.032096455
0.032088994
0.032081307
0.032073497
0.03206566
0.032057877
0.032050213
0.032042704
0.032035361
0.032028155
0.032021017
0.03201382
0.032006378
0.031998452
0.031989749
0.031979963
0.031968814
0.03195611
0.031941796
0.031926013
0.031909087
0.031891503
0.031873829
0.031856633
0.031840412
0.031825545
0.031812291
0.031800804
0.031791164
0.031783394
0.03177746
0.031773267
0.031770669
0.031799297
0.031801859
0.031805985
0.031811816
0.031819443
0.031828895
0.031840148
0.031853121
0.03186766
0.031883513
0.031900312
0.031917576
0.031934754
0.031951293
0.031966726
0.031980737
0.031993196
0.032004156
0.032013809
0.032022424
0.032030299
0.032037713
0.032044899
0.032052032
0.032059233
0.032066568
0.032074062
0.032081704
0.032089458
0.03209726
0.032105032
0.032112676
0.032120093
0.032127188
0.032133889
0.032140163
0.032146012
0.032151457
0.032156478
0.032160938
0.032164565
0.032167117
0.032189653
0.032187152
0.032183585
0.032179187
0.032174223
0.032168831
0.032163034
0.032156811
0.032150159
0.032143114
0.032135745
0.032128147
0.032120419
0.032112654
0.032104933
0.032097316
0.03208984
0.032082518
0.032075328
0.032068208
0.032061045
0.032053672
0.032045868
0.032037366
0.03202788
0.032017148
0.032004983
0.031991327
0.031976302
0.031960205
0.031943487
0.031926679
0.031910315
0.031894858
0.031880669
0.031867993
0.031856985
0.031847727
0.03184025
0.031834525
0.031830468
0.031827944
0.031856627
0.031859111
0.031863096
0.031868708
0.031876029
0.031885082
0.031895834
0.031908195
0.03192201
0.031937037
0.031952925
0.031969227
0.031985429
0.032001023
0.032015582
0.032028825
0.032040645
0.032051104
0.032060387
0.032068747
0.032076457
0.032083772
0.032090899
0.032097996
0.032105167
0.032112468
0.032119919
0.032127505
0.032135187
0.032142908
0.032150588
0.032158134
0.032165449
0.032172439
0.032179034
0.0321852
0.032190941
0.032196274
0.032201176
0.032205508
0.032209009
0.032211456
0.032232472
0.032230084
0.032226653
0.032222394
0.032217561
0.032212293
0.032206617
0.032200514
0.032193983
0.032187056
0.032179804
0.032172318
0.032164695
0.032157027
0.032149391
0.032141845
0.032134429
0.032127158
0.032120019
0.032112959
0.032105884
0.032098648
0.032091057
0.03208287
0.032073829
0.032063688
0.032052266
0.032039495
0.032025466
0.032010437
0.031994808
0.031979064
0.031963694
0.03194913
0.031935714
0.031923687
0.031913207
0.03190437
0.031897214
0.03189172
0.031887812
0.031885371
0.031914205
0.031916599
0.031920425
0.031925794
0.031932776
0.031941387
0.03195158
0.031963253
0.031976245
0.031990313
0.032005124
0.032020262
0.03203526
0.032049665
0.032063103
0.032075345
0.032086316
0.032096092
0.032104854
0.032112834
0.032120281
0.032127415
0.032134418
0.032141424
0.032148517
0.032155744
0.032163112
0.032170606
0.032178183
0.032185787
0.032193342
0.032200756
0.032207936
0.032214789
0.032221246
0.032227275
0.032232878
0.032238071
0.032242829
0.03224701
0.032250363
0.032252689
0.032272137
0.03226988
0.03226661
0.032262516
0.032257843
0.032252733
0.032247215
0.032241272
0.032234901
0.032228135
0.032221041
0.032213712
0.03220624
0.032198715
0.032191211
0.032183786
0.032176482
0.032169317
0.032162288
0.032155356
0.032148446
0.032141438
0.032134165
0.032126422
0.032117979
0.03210861
0.032098138
0.032086479
0.032073686
0.032059961
0.032045643
0.032031156
0.03201694
0.032003396
0.03199085
0.031979547
0.031969655
0.031961283
0.031954485
0.031949249
0.03194551
0.031943165
0.031972292
0.031974584
0.031978231
0.031983326
0.031989932
0.031998054
0.032007633
0.032018551
0.032030632
0.03204363
0.032057222
0.032071025
0.032084623
0.032097626
0.032109729
0.032120762
0.032130694
0.032139619
0.032147711
0.032155186
0.032162257
0.032169114
0.032175907
0.032182743
0.032189686
0.032196768
0.032203988
0.032211325
0.032218737
0.032226164
0.032233535
0.032240762
0.032247752
0.032254416
0.032260686
0.032266529
0.03227195
0.032276964
0.032281542
0.032285542
0.032288721
0.032290904
0.032309128
0.032307025
0.032303944
0.032300049
0.032295577
0.032290673
0.032285365
0.032279638
0.032273487
0.032266943
0.032260075
0.032252971
0.032245721
0.032238412
0.032231115
0.032223889
0.032216775
0.0322098
0.032202966
0.032196251
0.0321896
0.032182919
0.032176075
0.032168895
0.032161181
0.03215273
0.032143368
0.032132992
0.032121609
0.032109358
0.032096505
0.032083407
0.032070455
0.032058017
0.032046412
0.032035888
0.032026632
0.032018768
0.032012363
0.032007415
0.032003866
0.032001631
0.032064364
0.032074488
0.032085616
0.032097492
0.032109803
0.032122192
0.032134292
0.032145782
0.032156433
0.032166138
0.032174914
0.032182875
0.032190191
0.032197054
0.032203649
0.032210129
0.032216612
0.032223181
0.032229879
0.032236722
0.032243702
0.032250793
0.03225795
0.032265115
0.032272219
0.032279178
0.032285902
0.032292303
0.032298317
0.03230391
0.032309088
0.032313869
0.032318221
0.032322001
0.032324975
0.032326992
0.032344723
0.032342798
0.032339938
0.032336284
0.032332065
0.032327426
0.032322395
0.032316956
0.032311102
0.032304865
0.032298309
0.032291521
0.032284589
0.032277593
0.032270604
0.032263677
0.032256858
0.032250175
0.03224364
0.032264602
0.032270947
0.032277443
0.032284074
0.032290808
0.032297603
0.032304401
0.032311135
0.032317727
0.032324089
0.032330138
0.03233581
0.032341075
0.032345938
0.03235042
0.03235449
0.032358006
0.032360744
0.032362573
0.032380801
0.032379072
0.032376465
0.032373098
0.03236919
0.032364884
0.032360206
0.032355137
0.032349669
0.032343831
0.032337687
0.032331318
0.032324809
0.032318235
0.032311664
0.032305148
0.032298734
0.032292452
0.032286321
0.032320967
0.032327141
0.032333412
0.032339736
0.032346059
0.032352319
0.032358441
0.032364343
0.032369946
0.032375189
0.032380044
0.032384517
0.032388632
0.032392363
0.03239557
0.032398039
0.032399665
0.032419406
0.032417888
0.032415562
0.032412523
0.032408983
0.032405074
0.03240082
0.032396198
0.032391199
0.03238585
0.032380209
0.032374355
0.032368366
0.032362313
0.032356258
0.032350252
0.032344337
0.032368982
0.032374627
0.032380356
0.032386128
0.032391895
0.032397599
0.032403171
0.032408534
0.032413615
0.032418356
0.032422732
0.032426753
0.032430444
0.032433785
0.032436647
0.032438826
0.032440234
0.032456824
0.032436525
0.032417285
0.032398893
0.032381109
0.032363673
0.032346326
0.032328815
0.032310912
0.032292433
0.032273238
0.032253242
0.032232415
0.032210775
0.032188377
0.032165306
0.03214166
0.032117542
0.032093051
0.032068277
0.032043294
0.032018162
0.031992924
0.031967606
0.031942216
0.031916747
0.031891166
0.0087820917
0.0087888461
0.0087951503
0.0088009458
0.0088065606
0.00881191
0.0088172247
0.0088223952
0.0088276461
0.0088332824
0.0088385642
0.0088415653
0.0088363335
0.0088036742
0.0044139356
0.0023109785
0.001383014
0.0068752051
0.0091612025
0.0091843927
0.0092258755
0.0092686997
0.0093099232
0.0093476063
0.0093831479
0.0094134249
0.009436871
0.0094501792
0.0095638995
0.0096339588
0.0096946119
0.0097387512
0.0097758056
0.009816728
0.0098736945
0.0099269316
0.010011065
0.010083178
0.010204219
0.010299153
0.010454343
0.01056787
0.010740151
0.010869169
0.011058948
0.011197129
0.011384156
0.01152821
0.011724341
0.011871764
0.012057813
0.012206741
0.012402001
0.012556153
0.012746862
0.012907332
0.013110656
0.01327757
0.013475581
0.013645735
0.013850347
0.014021671
0.014213653
0.014364726
0.014465262
0.014615641
0.01477046
0.014958858
0.015102534
0.015279677
0.015412791
0.015573194
0.015696559
0.015849606
0.015965409
0.016105892
0.016214932
0.016350322
0.016453061
0.01657527
0.016667012
0.016775172
0.016853354
0.01694341
0.01700608
0.017072822
0.017115031
0.017161223
0.017188096
0.017215507
0.017226298
0.017234708
0.017231566
0.017226791
0.017216649
0.017208104
0.017203227
0.017209661
0.017223914
0.017249229
0.017256721
0.017248487
0.017228106
0.017197347
0.017168896
0.017141898
0.017122944
0.01711088
0.017107706
0.017113838
0.017122517
0.017135207
0.01714615
0.01715864
0.017168111
0.017170679
0.017164126
0.017139202
0.017105115
0.017036823
0.016962488
0.016836908
0.016712045
0.016520982
0.016338681
0.016072835
0.015838276
0.015520804
0.015240725
0.014863659
0.014543426
0.014129746
0.013755241
0.013255214
0.012812643
0.012242241
0.011716771
0.011288297
0.011198549
0.0110521
0.011089995
0.011602557
0.012144669
0.012707128
0.013173487
0.013660821
0.014054579
0.014458586
0.014795553
0.015159641
0.015451517
0.015756498
0.016000881
0.016254148
0.016441527
0.01662255
0.016751616
0.016871867
0.016949854
0.017014224
0.017047277
0.017068058
0.017074929
0.017072838
0.017064838
0.017050304
0.017037141
0.017023169
0.017014178
0.017007306
0.017010594
0.017020854
0.017039458
0.017063761
0.017092382
0.017120427
0.017140934
0.017147841
0.01714185
0.017121121
0.017108292
0.017101326
0.017106282
0.017113932
0.017124544
0.017129308
0.017133322
0.017126223
0.017116177
0.017091161
0.017064974
0.017022415
0.016978958
0.016914669
0.016852384
0.016769641
0.016688914
0.01658415
0.016489741
0.016374321
0.016269549
0.016141315
0.016029327
0.015896074
0.015776921
0.015631498
0.015504198
0.015351436
0.015213493
0.015042574
0.0148898
0.014702075
0.014525833
0.014493331
0.014330335
0.014169767
0.013983104
0.013809169
0.013609724
0.013436448
0.013243989
0.013074393
0.012878724
0.012717285
0.012533269
0.012374672
0.012186892
0.012036071
0.011856973
0.011705827
0.011516833
0.011368519
0.011188862
0.011046177
0.010864194
0.010730693
0.010566123
0.010448469
0.010300344
0.010201702
0.010085978
0.010010803
0.009929168
0.0098732286
0.009816462
0.0097733108
0.0097347979
0.0096883042
0.0096262647
0.0095518867
0.0095323147
0.0095063062
0.0094755032
0.0094438522
0.0094096074
0.0093739176
0.0093405285
0.0093207869
0.0064460426
0.0094448164
0.0094537387
0.0094784461
0.0095065494
0.0095347094
0.0095619802
0.0095883588
0.0096108321
0.0096748948
0.0096564942
0.0096347345
0.0096128519
0.0095900415
0.0095668466
0.009547277
0.0095415734
0.0062858123
0.009599427
0.009577377
0.0096311148
0.0096495778
0.0096683709
0.0096877589
0.0097073737
0.0097240337
0.0097649743
0.0097518826
0.0097356399
0.0097197431
0.0097033757
0.0096836514
0.0093230094
0.0096855971
0.0094293129
0.0097604491
0.0099016456
0.0096782751
0.009541928
0.009618553
0.0098460645
0.010443662
0.01058402
0.010723944
0.01080984
0.010458455
0.010224101
0.010197582
0.010414181
0.011503832
0.011774737
0.011923562
0.011937308
0.01217101
0.011294318
0.010028985
0.0095637197
0.009562369
0.009833661
0.010071503
0.010389493
0.010835667
0.011599199
0.012183628
0.013176896
0.013110181
0.011790516
0.011361103
0.011412735
0.011739745
0.012127633
0.012354166
0.01247994
0.012646071
0.012807588
0.012944447
0.01304681
0.013085401
0.012952164
0.013491147
0.014756094
0.015894362
0.016090372
0.016135555
0.016188054
0.016231485
0.015928422
0.015649783
0.01532942
0.015212499
0.015137411
0.015370726
0.01592172
0.016261677
0.016338505
0.016332221
0.016338419
0.016254284
0.015774959
0.015720565
0.01617522
0.01632948
0.016313902
0.016289221
0.016276591
0.016261358
0.016261597
0.016262542
0.016278793
0.016194011
0.015898685
0.014900183
0.014337979
0.016334699
0.016361566
0.016354534
0.016342859
0.016304901
0.016252872
0.01617426
0.016076368
0.015946025
0.015790523
0.015602284
0.015386258
0.015136291
0.014860568
0.014554289
0.014221944
0.013856661
0.013466262
0.013033015
0.012561115
0.012038299
0.011481143
0.010907824
0.010414219
0.010220184
0.010030056
0.010112496
0.010778566
0.01138624
0.011951556
0.012477417
0.012952607
0.013385042
0.01377499
0.014138108
0.01447046
0.014771628
0.015045236
0.015291109
0.015506611
0.015694207
0.014444535
0.01397439
0.015083058
0.01614631
0.016111843
0.015965945
0.014986769
0.013473502
0.013047707
0.013126681
0.013087468
0.013174024
0.013322712
0.013542994
0.013792729
0.013935133
0.01383108
0.013642638
0.013324519
0.012717737
0.012854978
0.013801017
0.014318756
0.014393604
0.014161272
0.013518925
0.013399166
0.0135907
0.013467015
0.013495671
0.013447614
0.013000329
0.01275175
0.012990427
0.012990843
0.012441918
0.014209397
0.016050931
0.015996875
0.01595701
0.013583135
0.012262869
0.011762856
0.011683086
0.011745818
0.011864283
0.011950441
0.011740104
0.011306732
0.010710596
0.0099344406
0.0093857298
0.0091305746
0.0089875928
0.0089158566
0.0091368824
0.010630418
0.010386505
0.0088350701
0.0082953048
0.0077520546
0.007429345
0.0070938905
0.00698561
0.0070857294
0.0072632436
0.0071198837
0.0066257837
0.0075178021
0.0096280849
0.011106606
0.0093809283
0.0079015775
0.0083892795
0.0087885095
0.0088204737
0.0088324297
0.0088145224
0.0088144824
0.0085052831
0.008175955
0.0081145647
0.0086786745
0.0093345638
0.0099060956
0.009872832
0.0097957187
0.0095747412
0.0089261286
0.0082149583
0.0095986773
0.0095725636
0.0074346648
0.0083765831
0.0091913098
0.0096177408
0.0064028956
0.0014530184
0.0014884746
0.0014328823
0.0025338673
0.0047418199
0.0025487972
0.0025863332
0.0048554579
0.0026424866
0.0014189379
0.0060165972
0.0084350311
0.0092408218
0.0094780323
0.0086508918
0.0097674511
0.0097070036
0.0087097405
0.0092925106
0.0085883847
0.0084221553
0.0084226109
0.0082448772
0.0083612667
0.008193714
0.0089660039
0.0090007879
0.00905151
0.0091030313
0.0091523858
0.0091969641
0.0092398191
0.009275793
0.0093041227
0.0093227606
0.0093733043
0.0094125513
0.0094318543
0.0094786832
0.0095230916
0.009670302
0.0096958144
0.0097684647
0.0097850219
0.0098273602
0.0098430176
0.0099187445
0.0099391482
0.01005844
0.010085651
0.010261001
0.010296897
0.010523971
0.010567659
0.01082117
0.010872038
0.01115284
0.011209096
0.011488415
0.011548896
0.011843607
0.011907175
0.012188963
0.012254544
0.012550862
0.012621229
0.012910341
0.012983837
0.013291026
0.013369665
0.013667757
0.013749424
0.014056439
0.014139926
0.014431314
0.01451527
0.014800398
0.0148815
0.01514173
0.015218338
0.015467496
0.015539272
0.015765933
0.01583333
0.016051235
0.016115152
0.016315799
0.016376639
0.016571047
0.016628931
0.016804884
0.016857694
0.017016597
0.017061696
0.017189574
0.01722455
0.017326351
0.017352694
0.017420303
0.017435073
0.017476582
0.017483322
0.017497692
0.01749615
0.017489106
0.017482096
0.017465341
0.017461725
0.017467313
0.017478814
0.017535809
0.017543109
0.0175249
0.017510675
0.017458178
0.017440678
0.017399359
0.017387647
0.017364888
0.017363257
0.017367965
0.017372729
0.017383828
0.01739203
0.017405758
0.017410408
0.017405108
0.01740325
0.017367108
0.017350552
0.017251934
0.017212018
0.017035716
0.016968389
0.016698732
0.016599466
0.016226127
0.016100183
0.015660473
0.015510817
0.014997877
0.014830242
0.014293015
0.014092378
0.01345475
0.013191783
0.012933887
0.012460798
0.012410063
0.013041486
0.013400399
0.013958198
0.014255977
0.014721835
0.014972347
0.01541035
0.015633703
0.016006588
0.016193293
0.016508358
0.016655319
0.016882527
0.016982792
0.017132406
0.017191979
0.017274618
0.017300811
0.017332167
0.01733695
0.017340683
0.017333495
0.017321031
0.017309955
0.017299279
0.017292237
0.017288044
0.017290764
0.017308708
0.017324664
0.017358508
0.017382551
0.017424211
0.017442283
0.017455364
0.01744623
0.017406038
0.017391198
0.0173856
0.017389402
0.017401644
0.017409897
0.017415524
0.017417341
0.017406474
0.017397367
0.017364095
0.017341764
0.01728518
0.017246857
0.017161432
0.017110556
0.017004773
0.016939764
0.016807505
0.016731197
0.01658424
0.016500279
0.016337396
0.016247951
0.016079146
0.015984928
0.015801445
0.015701947
0.015510716
0.015404173
0.015193594
0.015079852
0.014859241
0.014736928
0.014495278
0.014368243
0.014121276
0.013995313
0.013734395
0.013610173
0.013357077
0.01323671
0.012975713
0.012861614
0.012615773
0.012507432
0.012253834
0.012148941
0.011907532
0.011806689
0.011552731
0.011455341
0.011214128
0.011122761
0.010878705
0.010795148
0.010574104
0.010501659
0.010302806
0.010242945
0.010089058
0.010043818
0.0099389218
0.0099053625
0.0098381933
0.0098128298
0.0097747246
0.0097478665
0.0096819934
0.0096399611
0.0095083124
0.009512378
0.0094915201
0.0096054801
0.0096330808
0.0096863156
0.009669048
0.0097282422
0.0097478646
0.0097815448
0.0097682469
0.0098033398
0.0098171983
0.0098489957
0.0098408361
0.0098984222
0.0099105872
0.0099529727
0.0099481657
0.010035185
0.010047563
0.010104899
0.010102549
0.010228904
0.010243251
0.010319295
0.010318032
0.010480684
0.010497956
0.010589745
0.010587571
0.010768214
0.010788184
0.010893464
0.010890126
0.011089645
0.011112766
0.011226946
0.011221091
0.011417862