/*--------------------------------*- C++ -*----------------------------------*\
| =========                 |                                                 |
| \\      /  F ield         | OpenFOAM: The Open Source CFD Toolbox           |
|  \\    /   O peration     | Version:  v2012                                 |
|   \\  /    A nd           | Website:  www.openfoam.com                      |
|    \\/     M anipulation  |                                                 |
\*---------------------------------------------------------------------------*/
FoamFile
{
    version     2.0;
    format      ascii;
    class       surfaceScalarField;
    location    "200";
    object      phi;
}
// * * * * * * * * * * * * * * * * * * * * * * * * * * * * * * * * * * * * * //

dimensions      [0 3 -1 0 0 0 0];
oriented        oriented;


internalField   nonuniform List<scalar> 
97295
(
0.0013978871
-2.3857054e-05
7.869424e-06
0.0013032719
2.1157615e-05
7.345762e-05
0.00083844325
0.00016826619
0.00029656247
0.0002859047
0.00041001887
0.00014251967
0.00014156547
4.8100557e-05
9.6238675e-05
0.0001632289
-2.5897733e-05
4.2343058e-06
0.00020980471
-2.916756e-05
-1.7408247e-05
0.00024426153
-1.8911423e-05
-1.5545395e-05
0.00017257592
7.7834297e-05
-6.1486966e-06
0.00018542832
-1.5851431e-06
-1.1267256e-05
0.00021655543
-2.8843942e-05
-2.283163e-06
0.00024042859
-2.0795957e-05
-3.0772058e-06
0.00025473246
-1.3004488e-05
-1.2993818e-06
0.00026430924
-9.1013817e-06
-4.7539985e-07
0.00027120175
-6.9906634e-06
9.8156537e-08
0.00027613977
-5.7056625e-06
7.6764284e-07
0.00027874497
-4.4505871e-06
1.8453846e-06
0.00027855341
-3.0812341e-06
3.2727985e-06
0.00027175695
4.2485634e-07
6.371597e-06
0.00024485473
1.6084973e-05
1.0817253e-05
0.00014270489
8.5151417e-05
1.6998421e-05
0.00012538946
5.8730091e-06
1.1442424e-05
0.0001276557
-1.4032056e-06
-8.6303927e-07
0.00024562854
-3.78691e-05
-8.0103738e-05
0.00057634017
-0.00023530834
-9.540329e-05
0.0010157287
-0.00027391937
-0.00016546915
0.00074995844
9.4142166e-05
0.00017162808
0.00026003758
0.00036731806
0.0001226028
0.00012973883
4.0090006e-05
9.0208744e-05
0.00015380767
-2.6377115e-05
2.308275e-06
0.00020623153
-2.9528783e-05
-2.2895069e-05
0.00024519168
-1.9998451e-05
-1.8961709e-05
0.00017121975
7.6449716e-05
-2.4777868e-06
0.00018067836
-2.1417779e-06
-7.3168309e-06
0.00020964679
-2.9013649e-05
4.5218616e-08
0.00023288583
-2.0914313e-05
-2.3247236e-06
0.00024720015
-1.3231067e-05
-1.0832507e-06
0.00025641078
-9.0875457e-06
-1.2308854e-07
0.00026239841
-6.7049669e-06
7.173425e-07
0.00026476692
-4.5093537e-06
2.1408426e-06
0.00026032376
-8.9288887e-07
5.3360426e-06
0.00023594064
1.4261129e-05
1.0122e-05
0.00013762495
8.1772652e-05
1.6543032e-05
0.00012092885
5.3889651e-06
1.1307136e-05
0.00012370748
-1.9620806e-06
-8.1654496e-07
0.00023875547
-3.7638063e-05
-7.7409929e-05
0.00055976851
-0.00023072773
-9.028531e-05
0.00099007663
-0.00027473474
-0.00015557338
0.00072577803
9.3607341e-05
0.00017069126
0.00025308869
0.0003536286
0.00011906074
0.0001262581
3.9199891e-05
8.7630701e-05
0.00014897745
-2.5070803e-05
2.3514578e-06
0.00019843407
-2.7391308e-05
-2.2065312e-05
0.00023477383
-1.7719426e-05
-1.8620337e-05
0.00016398998
7.3640227e-05
-2.8563817e-06
0.00017258214
-1.6610919e-06
-6.931067e-06
0.00019861322
-2.6700751e-05
6.696688e-07
0.00021721557
-1.7924344e-05
-6.7799958e-07
0.00022499832
-9.7259437e-06
1.9431893e-06
0.00022245092
-3.9874916e-06
6.5348952e-06
0.00020807266
-6.7754586e-08
1.4446018e-05
0.00018850275
-3.5504743e-06
2.3120381e-05
0.00019536581
-7.0940525e-06
2.3099211e-07
0.00027343172
3.3700679e-05
-0.00011176659
0.00043454531
-0.00011527258
-4.5841007e-05
0.00066347841
-0.00013321892
-9.5714178e-05
0.00071399156
6.2550389e-06
-5.6768194e-05
0.0011034609
4.839417e-05
-0.00043786356
0.0026503396
-0.001214797
-0.00033208169
0.0048660401
-0.0011466857
-0.0010690147
0.0054567844
-0.00030560129
-0.0002851431
0.0056102147
-8.4638466e-05
-6.8791809e-05
0.0056511242
-2.4340491e-05
-1.6568973e-05
0.0056665861
-8.4200766e-06
-7.0418797e-06
0.0056783369
-4.8636332e-06
-6.8871688e-06
0.0056904337
-4.0246509e-06
-8.0721449e-06
0.0057029766
-3.690044e-06
-8.852802e-06
0.00571458
-2.9909425e-06
-8.6124251e-06
0.0057248857
-2.3407068e-06
-7.9650026e-06
0.0057337347
-1.7077616e-06
-7.141287e-06
0.0057412404
-1.162638e-06
-6.3430373e-06
0.0057475973
-7.1099684e-07
-5.6459207e-06
0.005752991
-3.3552788e-07
-5.0581606e-06
-2.8358393e-08
-4.5737941e-06
-0.0060604644
-1.4842301e-06
2.7050588e-06
2.047798e-06
-0.0060641966
-2.2652774e-06
4.283074e-06
1.714402e-06
-0.0060684702
-3.1584157e-06
6.0860516e-06
1.3459657e-06
-0.0060733847
-4.174311e-06
8.1448669e-06
9.4397873e-07
-0.0060790641
-5.3214582e-06
1.0489706e-05
5.1111326e-07
-0.0060856564
-6.5971531e-06
1.3134185e-05
5.5277069e-08
-0.006093315
-7.9708988e-06
1.6043038e-05
-4.1348994e-07
-0.0061021693
-9.425641e-06
1.9164738e-05
-8.8479531e-07
-0.0061122865
-1.0895744e-05
2.2357116e-05
-1.3442321e-06
-0.0061236468
-1.2296378e-05
2.5424138e-05
-1.7674072e-06
-0.0061361411
-1.354588e-05
2.8169006e-05
-2.1287984e-06
-0.0061495821
-1.4579087e-05
3.0433408e-05
-2.4133092e-06
-0.0061637349
-1.5348573e-05
3.2111276e-05
-2.6099663e-06
-0.0061783437
-1.5827651e-05
3.314901e-05
-2.7125168e-06
-0.0061931543
-1.6006194e-05
3.353619e-05
-2.7193854e-06
-1.5887176e-05
3.3287234e-05
-2.632614e-06
0.0060521962
1.8547998e-05
-4.1479471e-06
0.0060364437
1.9867491e-05
-4.1149109e-06
0.0060196009
2.0904663e-05
-4.0618982e-06
0.0060019408
2.1657507e-05
-3.9973806e-06
0.0059837335
2.2126487e-05
-3.919231e-06
0.0059652452
2.2313259e-05
-3.8249084e-06
0.0059467389
2.222833e-05
-3.7220776e-06
0.005928469
2.1885355e-05
-3.6154101e-06
0.0059106711
2.1299671e-05
-3.5018584e-06
0.0058935585
2.0496574e-05
-3.3838782e-06
0.0058773145
1.9508703e-05
-3.2647993e-06
0.0058620882
1.8370444e-05
-3.1441447e-06
0.0058479908
1.7122013e-05
-3.0245297e-06
0.0058350934
1.58072e-05
-2.9098301e-06
0.0058234281
1.4460233e-05
-2.7949167e-06
0.0058129935
1.3111861e-05
-2.677324e-06
0.0058037614
1.1800308e-05
-2.5681321e-06
0.0057956761
1.0552394e-05
-2.4671464e-06
0.0057886626
9.3800496e-06
-2.3664918e-06
0.0057826367
8.2937888e-06
-2.2679038e-06
0.0057775119
7.2969981e-06
-2.1722302e-06
0.0057731979
6.396015e-06
-2.0820539e-06
0.0057696009
5.5953204e-06
-1.9983242e-06
0.0057666343
4.8852434e-06
-1.9186171e-06
0.0057642201
4.2553206e-06
-1.8410513e-06
0.0057622844
3.7031626e-06
-1.7675414e-06
3.2227689e-06
-1.6955725e-06
-0.0060483175
6.5493311e-06
-1.7829118e-06
-0.0060502878
7.5287574e-06
-1.8553227e-06
-0.0060527512
8.6530879e-06
-1.9343416e-06
-0.006055783
9.9374285e-06
-2.0203924e-06
-0.0060594838
1.1396033e-05
-2.0999553e-06
-0.0060639459
1.3042011e-05
-2.1839e-06
-0.0060692505
1.488499e-05
-2.283382e-06
-0.0060754986
1.6929462e-05
-2.3875341e-06
-0.006082802
1.9169823e-05
-2.486423e-06
-0.0060912523
2.159182e-05
-2.5891034e-06
-0.0061009299
2.4174972e-05
-2.6969994e-06
-0.006111888
2.688594e-05
-2.8160093e-06
-0.0061241645
2.967617e-05
-2.9394361e-06
-0.0061377744
3.2475594e-05
-3.0585226e-06
-0.0061526839
3.5212947e-05
-3.1814405e-06
-0.0061688143
3.7809034e-05
-3.3081873e-06
-0.0061860481
4.017859e-05
-3.4361043e-06
-0.0062042275
4.2240092e-05
-3.5640989e-06
-0.0062231522
4.3918078e-05
-3.6937445e-06
-0.0062425953
4.5146896e-05
-3.8183889e-06
-0.0062623015
4.5872929e-05
-3.9384142e-06
-0.0062819988
4.6063635e-05
-4.0531116e-06
-0.0063014077
4.5692633e-05
-4.1572e-06
-0.0063202425
4.4740969e-05
-4.2486441e-06
-0.0063382138
4.320278e-05
-4.3268328e-06
-0.0063550335
4.1077261e-05
-4.3900266e-06
3.8368465e-05
-4.4334005e-06
0.006752035
6.0207443e-05
-4.9781952e-06
0.0067336329
6.4411895e-05
-4.9324743e-06
0.0067139959
6.7703031e-05
-4.8632529e-06
0.006693435
7.0072432e-05
-4.7706423e-06
0.0066722659
7.1523804e-05
-4.6620072e-06
0.0066508049
7.2066128e-05
-4.5415423e-06
0.0066293552
7.1729095e-05
-4.4064803e-06
0.0066082195
7.0546638e-05
-4.2640261e-06
0.0065876841
6.8578783e-05
-4.1252835e-06
0.0065679978
6.5907413e-05
-3.9810558e-06
0.0065493789
6.2629958e-05
-3.8324593e-06
0.0065320018
5.8865495e-05
-3.6793618e-06
0.0065159981
5.4746233e-05
-3.5295209e-06
0.0065014454
5.0409947e-05
-3.3816877e-06
0.006488376
4.5986418e-05
-3.2408148e-06
0.0064767628
4.1596941e-05
-3.097816e-06
0.006466553
3.7341975e-05
-2.9572264e-06
0.0064576798
3.3294375e-05
-2.8293213e-06
0.0064500551
2.9507064e-05
-2.7125603e-06
0.0064435679
2.6017468e-05
-2.6007959e-06
0.0064380858
2.2848659e-05
-2.4816017e-06
0.0064334982
1.9998254e-05
-2.3686602e-06
0.0064297162
1.7452296e-05
-2.2742607e-06
0.0064266392
1.5199771e-05
-2.1853519e-06
0.0064241545
1.3227051e-05
-2.0892617e-06
0.0064221801
1.1504325e-05
-2.0011054e-06
1.0005488e-05
-1.9216593e-06
-0.0067404219
1.345899e-05
-2.0129146e-06
-0.0067422974
1.5478066e-05
-2.0982897e-06
-0.0067446874
1.7807575e-05
-2.1904694e-06
-0.0067476852
2.0485272e-05
-2.2877469e-06
-0.0067513971
2.3548579e-05
-2.3843296e-06
-0.0067559358
2.7023225e-05
-2.4863153e-06
-0.0067614149
3.0930043e-05
-2.6022784e-06
-0.006767961
3.5288046e-05
-2.7245006e-06
-0.0067757134
4.0103863e-05
-2.8443369e-06
-0.0067848041
4.5354519e-05
-2.9694301e-06
-0.006795348
5.0991409e-05
-3.1055582e-06
-0.0068074415
5.694262e-05
-3.2521806e-06
-0.0068211561
6.3104783e-05
-3.4037455e-06
-0.0068365301
6.9340782e-05
-3.5569111e-06
-0.0068535489
7.5480396e-05
-3.7153608e-06
-0.0068721355
8.1329732e-05
-3.8775692e-06
-0.0068921493
8.6687234e-05
-4.0435295e-06
-0.0069133934
9.1363499e-05
-4.2119763e-06
-0.0069356241
9.5190113e-05
-4.3806436e-06
-0.0069585673
9.8023114e-05
-4.5332718e-06
-0.0069819118
9.9756755e-05
-4.6831016e-06
-0.0070053136
0.00010030863
-4.840717e-06
-0.0070284323
9.9627737e-05
-4.9852343e-06
-0.0070509235
9.7679539e-05
-5.1159679e-06
-0.0070724429
9.4447201e-05
-5.224683e-06
-0.0070926469
8.9929134e-05
-5.3132589e-06
8.4138358e-05
-5.3777158e-06
0.0072775705
0.00010998161
-5.6123395e-06
0.0072555884
0.00011742516
-5.5139422e-06
0.0072322295
0.00012319933
-5.3931648e-06
0.0072078757
0.0001272876
-5.2542615e-06
0.0071829088
0.00012969343
-5.0987779e-06
0.0071577056
0.00013043913
-4.9273282e-06
0.0071326405
0.00012957166
-4.7497589e-06
0.0071080961
0.00012715624
-4.5887726e-06
0.0070844059
0.00012329155
-4.4112739e-06
0.0070618805
0.00011812188
-4.2329695e-06
0.0070407916
0.00011183408
-4.0578722e-06
0.007021351
0.00010465765
-3.8873665e-06
0.0070037009
9.6853951e-05
-3.7234379e-06
0.0069879061
8.8701526e-05
-3.5660088e-06
0.0069739594
8.046602e-05
-3.4144628e-06
0.0069617961
7.2373725e-05
-3.2678532e-06
0.0069513134
6.4601683e-05
-3.1275212e-06
0.0069423815
5.7281847e-05
-2.9954957e-06
0.0069348522
5.0504949e-05
-2.8717339e-06
0.0069285714
4.4321717e-05
-2.7528522e-06
0.0069233877
3.874962e-05
-2.6358744e-06
0.0069191557
3.3779361e-05
-2.5241717e-06
0.006915742
2.9383075e-05
-2.4207555e-06
0.006913024
2.5525565e-05
-2.3223165e-06
0.0069108958
2.2163506e-05
-2.2277273e-06
0.0069092619
1.924883e-05
-2.1368763e-06
1.6731668e-05
-2.0503062e-06
-0.0069380235
1.9699001e-05
-2.0758613e-06
-0.0069392796
2.2669116e-05
-2.1641546e-06
-0.0069409828
2.6122518e-05
-2.2558195e-06
-0.0069432276
3.012243e-05
-2.3520755e-06
-0.006946123
3.4731964e-05
-2.4535511e-06
-0.006949796
4.0012517e-05
-2.5601154e-06
-0.0069543927
4.6018358e-05
-2.671993e-06
-0.0069600722
5.2789407e-05
-2.7882661e-06
-0.0069670035
6.0344198e-05
-2.9079024e-06
-0.0069753623
6.8672473e-05
-3.0318525e-06
-0.0069853237
7.7724478e-05
-3.1613768e-06
-0.0069970525
8.7400331e-05
-3.2978311e-06
-0.00701069
9.7544758e-05
-3.4411799e-06
-0.0070263425
0.00010794666
-3.5926691e-06
-0.0070440614
0.00011832781
-3.7549285e-06
-0.0070638154
0.00012833981
-3.9282161e-06
-0.0070854717
0.00013760249
-4.1120848e-06
-0.0071088141
0.00014576812
-4.3038248e-06
-0.0071335516
0.00015253104
-4.5019968e-06
-0.0071593427
0.00015765067
-4.7033468e-06
-0.0071858255
0.00016094637
-4.8919142e-06
-0.0072125891
0.00016230026
-5.0974652e-06
-0.0072392233
0.00016162688
-5.2993e-06
-0.0072653097
0.00015886215
-5.4881112e-06
-0.0072904176
0.00015396818
-5.6609528e-06
-0.0073141081
0.0001469325
-5.8169108e-06
0.00013776989
-5.9519314e-06
0.0072658467
0.00016767246
-6.4401131e-06
0.0072404123
0.00017862717
-6.2602793e-06
0.0072135564
0.0001868841
-6.0599871e-06
0.0071858108
0.00019245008
-5.8423259e-06
0.007157682
0.000195365
-5.6093791e-06
0.0071296467
0.00019570479
-5.3692355e-06
0.0071021484
0.00019356712
-5.1224368e-06
0.0070756197
0.00018907102
-4.8915903e-06
0.0070504524
0.00018235908
-4.6608141e-06
0.0070270023
0.0001736436
-4.4253245e-06
0.0070055656
0.00016323731
-4.1981687e-06
0.0069863326
0.00015155467
-3.9818047e-06
0.006969384
0.00013905948
-3.7831162e-06
0.0069546714
0.0001262677
-3.608414e-06
0.0069420584
0.00011361444
-3.456666e-06
0.0069313759
0.00010140349
-3.3206403e-06
0.0069224459
8.984722e-05
-3.1928181e-06
0.0069150849
7.9103259e-05
-3.0697489e-06
0.0069091059
6.9272228e-05
-2.9489955e-06
0.0069043244
6.0400867e-05
-2.8299577e-06
0.0069005631
5.2492458e-05
-2.7128236e-06
0.0068976574
4.5516857e-05
-2.5986865e-06
0.0068954588
3.9418685e-05
-2.4880633e-06
0.0068938386
3.4125096e-05
-2.3824921e-06
0.0068926874
2.9556122e-05
-2.2823632e-06
0.0068919129
2.5631374e-05
-2.1878112e-06
2.2271562e-05
-2.0958632e-06
-0.0068327285
2.4364013e-05
-2.0947568e-06
-0.0068329417
2.8034916e-05
-2.1903698e-06
-0.0068334419
3.2344249e-05
-2.2878828e-06
-0.0068343159
3.7389122e-05
-2.3900229e-06
-0.0068356677
4.3267211e-05
-2.496791e-06
-0.0068376195
5.0075417e-05
-2.6067635e-06
-0.0068403121
5.7902363e-05
-2.7172289e-06
-0.0068438981
6.6813587e-05
-2.8267699e-06
-0.0068485346
7.6840903e-05
-2.9321382e-06
-0.0068543774
8.7977884e-05
-3.031857e-06
-0.0068615805
0.00010017662
-3.1263293e-06
-0.006870304
0.00011334666
-3.219669e-06
-0.0068807364
0.00012737085
-3.323966e-06
-0.0068931308
0.00014212347
-3.4614234e-06
-0.0069077911
0.00015737265
-3.6528736e-06
-0.0069249662
0.00017262847
-3.8986931e-06
-0.0069447334
0.00018718093
-4.1764004e-06
-0.0069670102
0.00020038259
-4.4622165e-06
-0.0069915243
0.00021161782
-4.7445939e-06
-0.0070178967
0.00022047176
-5.0283302e-06
-0.0070457205
0.00022670867
-5.3177665e-06
-0.0070745682
0.00023016058
-5.6080838e-06
-0.0071039576
0.00023065122
-5.8968201e-06
-0.0071333259
0.0002280038
-6.1854311e-06
-0.0071620481
0.00022207418
-6.4679023e-06
-0.007189453
0.00021276917
-6.7370682e-06
0.00020000524
-6.9859286e-06
0.0071112738
0.00023553838
-7.566922e-06
0.0070813972
0.00024986157
-7.215837e-06
0.0070505935
0.00025973195
-6.8540823e-06
0.0070196727
0.00026540412
-6.4794743e-06
0.0069894272
0.00026700756
-6.1108198e-06
0.0069605758
0.00026477461
-5.76265e-06
0.0069336416
0.00025906841
-5.4255149e-06
0.0069089931
0.0002502001
-5.0798408e-06
0.0068870256
0.00023830217
-4.7169203e-06
0.0068681879
0.00022356521
-4.3449114e-06
0.0068527329
0.00020659295
-3.956962e-06
0.0068404679
0.00018846472
-3.5712819e-06
0.0068308966
0.00017018255
-3.238626e-06
0.0068232914
0.00015275412
-3.0254008e-06
0.006817018
0.0001365761
-2.9318317e-06
0.0068117281
0.0001215427
-2.9062113e-06
0.0068073036
0.00010749481
-2.8936882e-06
0.0068037128
9.4435142e-05
-2.8663802e-06
0.0068009303
8.2439831e-05
-2.8164975e-06
0.0067988833
7.1605791e-05
-2.7451548e-06
0.0067975235
6.192041e-05
-2.6583007e-06
0.0067967233
5.3437934e-05
-2.5622376e-06
0.0067963681
4.6083106e-05
-2.4607597e-06
0.0067963532
3.9761896e-05
-2.3578801e-06
0.0067966093
3.4345693e-05
-2.2575333e-06
0.0067970253
2.9780549e-05
-2.1616501e-06
2.5895646e-05
-2.0664184e-06
-0.0067995863
2.679628e-05
-2.0169643e-06
-0.006798477
3.0783823e-05
-2.1125355e-06
-0.0067974348
3.5511815e-05
-2.2082798e-06
-0.0067964711
4.1102836e-05
-2.304705e-06
-0.0067956672
4.7678549e-05
-2.399276e-06
-0.0067950932
5.5349449e-05
-2.485571e-06
-0.0067948081
6.4192498e-05
-2.5571739e-06
-0.0067948119
7.4215667e-05
-2.6060516e-06
-0.0067950851
8.5334796e-05
-2.6218129e-06
-0.0067954447
9.7385904e-05
-2.5911106e-06
-0.0067956283
0.00011018544
-2.5070605e-06
-0.0067953418
0.00012363478
-2.3785398e-06
-0.0067944313
0.00013792228
-2.2567623e-06
-0.0067932927
0.00015387368
-2.258068e-06
-0.0067931164
0.00017250238
-2.4961905e-06
-0.0067957186
0.00019403951
-2.9725296e-06
-0.0068026015
0.00021702257
-3.5467152e-06
-0.0068145537
0.00023962779
-4.1103788e-06
-0.0068311684
0.00025953413
-4.6173034e-06
-0.0068516924
0.00027578455
-5.0604823e-06
-0.0068758192
0.00028863937
-5.4441256e-06
-0.0069034626
0.00029823379
-5.8158211e-06
-0.0069340223
0.00030380305
-6.2357386e-06
-0.0069663879
0.00030449214
-6.7223988e-06
-0.0069995214
0.00030009707
-7.2316325e-06
-0.007032665
0.00029072528
-7.7201376e-06
0.00027587911
-8.2304499e-06
0.0069438156
0.00032361912
-9.1071581e-06
0.006906597
0.00033617084
-8.2269816e-06
0.0068710162
0.00034322032
-7.5423648e-06
0.0068371154
0.0003452308
-6.8379183e-06
0.0068064391
0.00034065409
-6.1747414e-06
0.0067813033
0.00032900895
-5.6393161e-06
0.0067625571
0.00031264896
-5.2633814e-06
0.0067491572
0.00029416303
-4.9786316e-06
0.0067409206
0.00027234074
-4.5700286e-06
0.0067398403
0.00024460626
-3.8981196e-06
0.0067473218
0.00021256296
-3.0218817e-06
0.0067612891
0.0001822196
-2.1474175e-06
0.0067778446
0.00015742888
-1.4820365e-06
0.0067929835
0.00013997501
-1.2401373e-06
0.0068046912
0.00012759486
-1.380345e-06
0.0068129361
0.00011709074
-1.7008315e-06
0.0068185733
0.00010655428
-2.0060811e-06
0.0068224989
9.5682906e-05
-2.222607e-06
0.0068254389
8.4743164e-05
-2.3483191e-06
0.0068278948
7.4159932e-05
-2.4001487e-06
0.0068301504
6.4335026e-05
-2.3981878e-06
0.0068323275
5.5530392e-05
-2.3580022e-06
0.0068344534
4.7843778e-05
-2.2911407e-06
0.0068365134
4.1250493e-05
-2.2076441e-06
0.0068384839
3.5657359e-05
-2.1160568e-06
0.0068403454
3.0944056e-05
-2.0216886e-06
2.6984347e-05
-1.9269209e-06
-0.0069039929
2.6365529e-05
-1.77444e-06
-0.0069013296
3.0150113e-05
-1.8693546e-06
-0.0068983789
3.4669454e-05
-1.9627908e-06
-0.0068951235
4.0044941e-05
-2.0498492e-06
-0.0068915395
4.638318e-05
-2.1233939e-06
-0.0068875736
5.3736732e-05
-2.1722716e-06
-0.0068830931
6.2039788e-05
-2.1851715e-06
-0.0068778118
7.1027237e-05
-2.1486482e-06
-0.0068711942
8.0172751e-05
-2.0472417e-06
-0.0068623805
8.8729352e-05
-1.8601271e-06
-0.0068501438
9.5889053e-05
-1.5714826e-06
-0.0068328006
0.00010094039
-1.1928507e-06
-0.0068080735
0.00010365831
-7.9053935e-07
-0.0067743551
0.0001067898
-5.3320147e-07
-0.0067338983
0.00011762162
-6.4947051e-07
-0.0066946555
0.00014436632
-1.3895536e-06
-0.0066661996
0.00018699197
-2.8848985e-06
-0.0066538657
0.00023696416
-4.6918147e-06
-0.0066520389
0.0002760397
-5.5257934e-06
-0.0066544304
0.00030154628
-4.9917289e-06
-0.0066643477
0.00032695637
-4.390138e-06
-0.0066867599
0.0003562112
-4.7899552e-06
-0.0067192037
0.00037875353
-5.6557319e-06
-0.0067557201
0.0003882236
-6.4763938e-06
-0.0067932962
0.00038816192
-7.3654945e-06
-0.0068342388
0.00038548491
-8.3714863e-06
0.00038099921
-1.0026114e-05
0.0068305594
0.00044361978
-5.1646169e-05
0.0067608763
0.00045546877
-1.8580114e-05
0.0067044831
0.00044679915
-9.4067858e-06
0.0066654261
0.00043163643
-7.0944381e-06
0.0066292435
0.00043013945
-5.7949582e-06
0.0065874469
0.00043516118
-5.1409976e-06
0.0065472696
0.00042330338
-4.3725069e-06
0.0065234651
0.00038194124
-1.9256105e-06
0.0065264953
0.00032444823
-5.2206613e-07
0.0065375824
0.00029613386
-5.6746091e-06
0.0065410491
0.00028460141
-1.20284e-05
0.0065613943
0.00022680601
-1.0187057e-05
0.0066183338
0.00013398985
-3.9373817e-06
0.0066942916
6.9478416e-05
-1.0698827e-06
0.0067646484
4.8705708e-05
-1.4408707e-06
0.0068161561
5.7348349e-05
-2.0662688e-06
0.0068505751
7.107788e-05
-1.8385598e-06
0.0068746153
7.8354534e-05
-1.4543562e-06
0.0068921704
7.9711686e-05
-1.3777552e-06
0.0069053583
7.704638e-05
-1.5049723e-06
0.0069154993
7.1678924e-05
-1.6471626e-06
0.0069236123
6.4663713e-05
-1.7494791e-06
0.0069303505
5.7108009e-05
-1.8063312e-06
0.0069361434
4.9761809e-05
-1.8180732e-06
0.0069412141
4.3103553e-05
-1.7909837e-06
0.0069456815
3.7310716e-05
-1.7332423e-06
0.0069496195
3.2387949e-05
-1.6565191e-06
0.0069530838
2.8255665e-05
-1.5697586e-06
2.4803992e-05
-1.4797917e-06
-0.0069241056
2.2082678e-05
-9.6188315e-07
-0.0069198533
2.5048163e-05
-1.0448176e-06
-0.0069149481
2.8606632e-05
-1.1238529e-06
-0.0069092977
3.2851821e-05
-1.191492e-06
-0.0069027901
3.7834431e-05
-1.2384958e-06
-0.0068952733
4.3500727e-05
-1.2556795e-06
-0.0068865057
4.9579534e-05
-1.2391278e-06
-0.006876114
5.5464652e-05
-1.1926204e-06
-0.0068634703
6.0175685e-05
-1.14053e-06
-0.0068479273
6.2648383e-05
-1.1449304e-06
-0.0068291177
6.2374601e-05
-1.4725365e-06
-0.0068065525
5.8877676e-05
-3.0883541e-06
-0.006775006
4.7113446e-05
-7.5820868e-06
-0.0067204574
1.5240736e-05
-1.2440957e-05
-0.0066235858
-3.8150088e-05
-1.0015855e-05
-0.0064962319
-5.6139698e-05
-1.7357079e-06
-0.0063962309
3.8283626e-05
-4.2948086e-06
-0.0063745087
0.00024075567
-3.5671841e-05
-0.0063866665
0.00035246392
-5.57047e-05
-0.0062968513
0.00022068991
-1.437126e-05
-0.0062845579
0.00029335348
1.8801299e-05
-0.0063292989
0.00041593773
1.0744507e-05
-0.0063861838
0.00047952661
6.6173659e-07
-0.0064335841
0.00048569273
-3.1312622e-06
-0.0064501783
0.00044794342
-1.2098126e-06
-0.0064591401
0.00043820246
2.3957631e-06
-0.0065241731
0.00050574426
6.0879411e-06
-0.0066216512
0.00055752736
-4.5805679e-06
0.00054053277
-7.5089489e-05
0.00044342633
-0.00029544594
0.0013505856
-0.00023123635
0.0058169999
0.00081276889
-0.00065430321
0.005824707
-0.00050486886
0.00099051837
4.7176224e-05
0.0056564649
-0.00041751053
0.0010202264
0.00012305355
0.0056024392
-0.00047128103
0.00092153631
0.00010951469
0.0056618836
-0.00055305918
0.00085044911
8.1368074e-05
0.0058768915
-0.00056674006
0.00086736627
-6.769066e-05
0.0059994206
-0.00047338374
0.00090383068
-6.7283344e-05
0.0058769377
-0.00039872789
0.00090945728
9.1280162e-05
0.0057962489
-0.00042904873
0.0008269766
9.8698629e-05
0.0057494407
-0.00050206048
0.00072831761
0.00011390452
0.0061087572
-0.00059727887
0.00034002501
0.00011862735
0.0059912405
0.00091141304
-0.00044143248
0.0060325459
0.00025723586
-5.7785547e-05
0.0061867704
-0.00012229431
6.3534025e-06
0.0064636031
-0.00030960877
-2.3363641e-05
0.0065852072
-8.3281543e-05
-7.6472651e-05
0.0066221257
4.1262178e-05
-6.293996e-05
0.006632261
5.9021729e-05
-2.2043557e-05
0.0066474968
4.9407712e-05
-5.765833e-06
0.0066644118
4.6238585e-05
-7.7902257e-07
0.006680179
4.6461588e-05
4.196647e-07
0.0066939793
4.5762827e-05
6.1255089e-07
0.0067058888
4.3029632e-05
5.2547879e-07
0.0067161762
3.8928312e-05
3.6385029e-07
0.0067250832
3.4382761e-05
2.1098098e-07
0.0067327956
3.0021385e-05
1.0058221e-07
0.006739459
2.6148979e-05
3.9478274e-08
0.0067452057
2.2841646e-05
1.8272972e-08
0.0067501606
2.0070321e-05
2.3003865e-08
1.7766564e-05
4.1235016e-08
-0.006422291
1.1818203e-05
1.0702263e-06
-0.0064166222
1.3332325e-05
1.0692414e-06
-0.0064100188
1.5169977e-05
1.0682812e-06
-0.0064023254
1.7377087e-05
1.0784346e-06
-0.0063933902
1.9974974e-05
1.1112433e-06
-0.0063830811
2.2890798e-05
1.182918e-06
-0.0063713242
2.588026e-05
1.2911409e-06
-0.0063581563
2.8453744e-05
1.4079293e-06
-0.0063437721
2.9912713e-05
1.4659773e-06
-0.0063287012
3.0292014e-05
1.0985944e-06
-0.0063134608
3.1951569e-05
-9.5330281e-07
-0.0062992054
4.5008122e-05
-9.8558858e-06
-0.0062946497
9.7929797e-05
-4.3463741e-05
-0.006292915
0.00021211093
-0.00017258341
-0.0059636964
0.00025878941
-0.00067128956
-0.0051303404
-0.0009701926
-2.2877215e-05
-0.00014989496
-0.0050456458
-0.00069744629
0.00045804375
3.2413569e-05
-0.0050690168
-0.00046536067
0.00071736958
2.8597943e-05
-0.0016092212
-0.00030570059
0.00084877194
-0.0025403925
-0.00055106135
0.0012239595
-0.00058782688
-0.0012039524
-0.0010414015
0.001227682
-0.00018079269
-0.00012863036
0.0017629323
9.3646112e-05
0.00021987552
0.0012312535
7.2578357e-05
-6.260268e-06
0.0017457414
4.0994962e-05
0.00016188675
0.0012002753
-4.6705949e-05
-0.00010527427
0.0016922064
-8.3948915e-05
5.0061557e-05
0.0010403169
-0.00013825046
-0.00018005264
0.0011445966
-9.8525294e-05
-2.8631623e-05
0.00018859253
-0.0006393915
-0.0010687404
0.002664136
-0.00011346118
-0.00088948028
-0.0010736703
0.0022652043
-0.00073727411
-0.00054258985
-0.000767891
8.5828186e-06
2.8289106e-05
-0.00026287017
-1.3867029e-06
-0.00043506788
-0.00020178518
-7.8166466e-06
-0.00010163803
-5.2844245e-05
-0.00010057125
-0.00010016007
-2.2929159e-05
-5.1523459e-05
-1.4935933e-05
-0.00015072726
-2.0209523e-05
1.7775292e-05
-0.00017407909
5.442574e-06
1.0815209e-05
-0.00020471213
1.4879551e-05
1.2203009e-05
-0.00021838216
1.9796865e-06
1.1622594e-05
-0.00022035324
-6.3653163e-06
4.3489079e-06
-0.00021426862
-1.5629336e-05
-1.8123243e-07
-0.00019887309
-2.9325446e-05
-3.994424e-06
-0.00015040649
-7.0281965e-05
-4.8853866e-06
-0.00014698923
-5.0783524e-06
-7.4151151e-05
8.0214723e-07
-0.00020581353
-4.9335731e-05
0.00018877876
-7.7806538e-06
-0.00016609944
-4.0320859e-05
-1.711265e-05
-0.00012506733
-1.2271828e-05
-5.6151598e-05
-9.1668113e-05
-5.0461143e-05
-8.0088738e-06
-7.931826e-05
2.6850038e-05
0.00019965976
7.4650583e-05
-7.0149398e-05
3.4527775e-05
0.00018482024
-0.0013118421
-0.00015523465
0.0010531578
5.2444596e-05
0.00029132487
-0.0012544493
0.0001893015
-0.0001530869
-0.00045497634
-0.00020239099
-0.00058927425
-0.00028254248
4.6894362e-05
-7.8276997e-05
-0.00023529742
-0.00018829629
-0.00012135218
-6.2481187e-05
-0.0001256571
-3.3333151e-05
-0.00012094961
-1.8034233e-05
1.1364664e-05
-0.00011706303
1.5023883e-06
-4.1683257e-05
6.3928797e-06
-0.00025915964
-1.3677374e-05
0.00020868986
2.2463897e-05
-0.00025352431
-3.0888701e-06
1.1714665e-05
-0.00025716385
-2.2137083e-06
4.9603591e-06
-0.00025550697
-7.1948695e-06
1.0286313e-06
-0.00025046067
-1.1291512e-05
-4.5975519e-07
-0.00024238183
-1.5757728e-05
-1.4086509e-06
-0.00023039997
-2.2439754e-05
-2.7731795e-06
-0.00021116035
-3.4845843e-05
-5.3080826e-06
-0.0001578652
-7.6788861e-05
-5.5199388e-06
-0.00015468298
-5.3240038e-06
-7.9273367e-05
1.0401085e-06
-0.00021624041
-5.5709448e-05
0.00020042069
-7.7441991e-06
-0.00017352504
-4.5200788e-05
-1.7513031e-05
-0.00012963603
-1.2667684e-05
-6.0750108e-05
-9.4159195e-05
-5.3535205e-05
-8.3187446e-06
-8.1796181e-05
2.7726993e-05
0.00020794185
7.7580032e-05
-7.5733642e-05
3.7207269e-05
0.00019293301
-0.0013419681
-0.00023327362
0.0011351767
4.72847e-05
0.00031704669
-0.001273081
-0.00013554789
0.00016080301
-0.00047082874
-0.00016060997
-0.00060180808
-0.00031375361
4.4937204e-05
-7.7189189e-05
-0.00024479203
-0.00019378472
-0.0001257137
-6.4657432e-05
-0.00012927721
-3.4305596e-05
-0.00012524184
-1.7070007e-05
1.1631433e-05
-0.00012083903
1.4702056e-06
-4.2182515e-05
6.4948988e-06
-0.00026853993
-1.1458737e-05
0.00021529003
2.2526122e-05
-0.00026407299
-7.5604975e-07
1.2374083e-05
-0.00026971615
2.3939227e-07
5.8286237e-06
-0.00027032842
-4.3678812e-06
1.8989159e-06
-0.00026790676
-7.3022984e-06
4.30044e-07
-0.00026353837
-9.6251418e-06
-4.4890438e-07
-0.00025741628
-1.2093815e-05
-1.018941e-06
-0.00024903271
-1.5771893e-05
-1.7130558e-06
-0.00023682881
-2.2040062e-05
-3.1683319e-06
-0.00021685451
-3.4369409e-05
-6.4008457e-06
-0.00016071569
-7.714732e-05
-7.8354438e-06
-0.00015579353
-6.5072961e-06
-7.8158387e-05
1.9915137e-07
-0.000216897
-5.4302843e-05
0.0002027053
-9.663849e-06
-0.00017670573
-1.6417962e-05
-4.2684727e-05
-0.00013737646
-5.8252082e-05
-1.0244746e-05
-0.00010070899
-5.4845352e-05
-7.7198549e-06
-8.252157e-05
2.991314e-05
0.00024580172
8.1695584e-05
-4.5475236e-05
0.0002000915
3.6340105e-05
-0.0013227981
-0.00020053115
0.0011022558
0.00031756941
5.8028793e-05
-0.0013411684
-4.8045885e-05
0.00023468239
-0.0013884725
1.7539274e-05
5.0922374e-05
2.3310416e-06
1.5350007e-05
0.0058390182
7.1577085e-06
1.7420872e-06
0.0058298142
7.3388472e-06
1.8650789e-06
0.0058204367
7.4489282e-06
1.9285695e-06
0.0058110094
7.4874607e-06
1.9399125e-06
0.0058016406
7.4710938e-06
1.897705e-06
0.0057924241
7.4071204e-06
1.8093164e-06
0.0057834456
7.2961372e-06
1.6823938e-06
0.0057747828
7.1424036e-06
1.5203483e-06
0.0057664979
6.9564728e-06
1.3284432e-06
0.0057586331
6.7519238e-06
1.1128806e-06
0.005751218
6.5277882e-06
8.8735305e-07
0.0057442759
6.284526e-06
6.5753455e-07
0.0057378179
6.035511e-06
4.2253111e-07
0.0057318399
5.7929648e-06
1.8504938e-07
0.0057263288
5.5583407e-06
-4.7256859e-08
0.0057212741
5.3195367e-06
-2.6484559e-07
5.0877978e-06
-4.7084483e-07
4.4305907e-05
-0.0070641534
5.4376021e-06
4.1527698e-05
-0.0070667162
5.3393682e-06
3.8836053e-05
-0.0070693402
5.2010942e-06
3.6271549e-05
-0.0070720308
5.0410548e-06
3.3800796e-05
-0.007074713
4.8725594e-06
3.1426517e-05
-0.0070774288
4.7054785e-06
2.9185361e-05
-0.0070802301
4.5464041e-06
2.7044095e-05
-0.007083111
4.4006252e-06
2.4986131e-05
-0.0070862964
4.2713982e-06
2.2994992e-05
-0.0070903691
4.1615145e-06
2.1053151e-05
-0.0070967027
4.0727431e-06
1.9141403e-05
-0.0071080458
4.0066075e-06
1.7240833e-05
-0.0071288906
3.9643617e-06
1.5334214e-05
-0.007164446
3.9459249e-06
1.3408687e-05
-0.0072162449
3.9474221e-06
1.1457915e-05
-0.007272964
3.9597256e-06
9.4796782e-06
-0.0072981687
3.9702919e-06
7.4725252e-06
-0.0072251477
3.9601582e-06
5.4555754e-06
-0.0069844463
3.8865376e-06
3.5036221e-06
-0.0065748361
3.7021783e-06
-0.0061121628
3.4329077e-06
-3.6538073e-06
-0.0061142218
3.9452523e-06
-5.6836917e-06
-0.0065770651
4.2588821e-06
-7.7784864e-06
-0.0069868245
4.4730001e-06
-9.8659993e-06
-0.0072276174
4.5571639e-06
-1.1920043e-05
-0.007300683
4.5683628e-06
-1.3944258e-05
-0.0072754951
4.5552616e-06
-1.5941764e-05
-0.0072187862
4.5387409e-06
-1.7918832e-05
-0.0071670022
4.5332768e-06
-1.9888085e-05
-0.0071314701
4.5487315e-06
-2.1866607e-05
-0.0071106562
4.58892e-06
-2.3873323e-05
-0.0070993496
4.6535611e-06
-2.5927336e-05
-0.0070930561
4.7409276e-06
-2.8047276e-05
-0.0070890252
4.8487439e-06
-3.0251172e-05
-0.0070858826
4.9755211e-06
-3.2555907e-05
-0.0070830448
5.1193937e-06
-3.4973394e-05
-0.0070802886
5.2773283e-06
-3.7507359e-05
-0.0070776231
5.4440724e-06
-4.0177178e-05
-0.0070749731
5.6121783e-06
-4.2915089e-05
-0.0070723741
5.7718671e-06
-4.5759114e-05