/*--------------------------------*- C++ -*----------------------------------*\
| =========                 |                                                 |
| \\      /  F ield         | OpenFOAM: The Open Source CFD Toolbox           |
|  \\    /   O peration     | Version:  v2012                                 |
|   \\  /    A nd           | Website:  www.openfoam.com                      |
|    \\/     M anipulation  |                                                 |
\*---------------------------------------------------------------------------*/
FoamFile
{
    version     2.0;
    format      ascii;
    class       volVectorField;
    location    "200";
    object      U;
}
// * * * * * * * * * * * * * * * * * * * * * * * * * * * * * * * * * * * * * //

dimensions      [0 1 -1 0 0 0 0];


internalField   nonuniform List<vector> 
33454
(
(5.5897365 -0.3984584 0.0033118966)
(5.5740063 -0.40852253 0.0024894242)
(5.5616679 -0.41865629 0.0017629818)
(5.543657 -0.43140409 0.00091111689)
(5.5273595 -0.44638062 0.0016153946)
(5.5179888 -0.45050553 7.3846185e-05)
(5.5155656 -0.4519667 0.0002999316)
(5.511442 -0.45843059 5.390965e-05)
(5.4990951 -0.4684006 0.0013439658)
(5.4882827 -0.4722315 0.0018720623)
(5.4822649 -0.47404028 0.001353163)
(5.477442 -0.47570389 0.00053352827)
(5.470577 -0.4825271 0.00019335681)
(5.4573703 -0.49150571 0.0015095583)
(5.4457734 -0.49437856 0.0011832258)
(5.4378376 -0.49642382 0.00056497539)
(5.4329347 -0.49817535 -0.00045184852)
(5.4225632 -0.50825758 0.0011036762)
(5.4076607 -0.51272314 0.0014005)
(5.3991764 -0.51442843 0.00062499101)
(5.3921307 -0.51696804 -9.047511e-05)
(5.3876467 -0.52014592 -0.0011629002)
(5.3807554 -0.52798518 -0.00017690671)
(5.3676242 -0.53666447 0.0015045894)
(5.3592011 -0.53351685 0.0040298364)
(5.3527017 -0.53182445 0.0029540981)
(5.3399892 -0.53250361 0.0015609876)
(5.3318072 -0.53737335 0.000948439)
(5.3220585 -0.55319044 0.0020900378)
(5.3078138 -0.55674655 0.00027162542)
(5.2987323 -0.55629188 0.00029064566)
(5.2900265 -0.5553613 4.579387e-05)
(5.2831892 -0.55625495 -0.0001196054)
(5.2760828 -0.56158435 -0.00026944259)
(5.263194 -0.57037795 0.0012688826)
(5.2488744 -0.57167666 0.0012026098)
(5.2388938 -0.5722596 0.00059262782)
(5.2300893 -0.57280874 -0.00011018843)
(5.2182637 -0.57856514 0.00042171482)
(5.2023769 -0.58310729 0.0012120082)
(5.1889369 -0.58448896 0.00076747846)
(5.1771651 -0.58469543 7.1815295e-05)
(5.1696118 -0.5870264 -0.00065200083)
(5.1581664 -0.59753278 0.00063000041)
(5.1430348 -0.60175758 0.00072891089)
(5.1298317 -0.60331878 0.00089773514)
(5.1209239 -0.59903441 0.0030433966)
(5.1090179 -0.59534182 0.0022458571)
(5.0906024 -0.59414292 0.0018219979)
(5.0685817 -0.60107745 0.00038651512)
(5.0519182 -0.610757 0.00043420858)
(5.037779 -0.61366439 -0.00015994224)
(5.0261294 -0.61222448 5.6774702e-06)
(5.0114663 -0.61405897 0.00093689928)
(4.9924887 -0.61937019 0.0016906752)
(4.973212 -0.62376138 0.0010409419)
(4.9538047 -0.62317375 0.00094834344)
(4.9367049 -0.62100844 0.00047437732)
(4.9154836 -0.62570936 0.0018220239)
(4.8886945 -0.62802671 0.0011740439)
(4.8603776 -0.62749373 0.00057064046)
(4.8355005 -0.62422765 0.00041301052)
(4.8081683 -0.62520785 0.0015945587)
(4.7773311 -0.62986603 0.0019400627)
(4.7513198 -0.62742961 0.0048911697)
(4.7281741 -0.62718135 0.0058181946)
(4.6908927 -0.6491762 -0.014209853)
(4.4591354 -0.81070521 -0.028818484)
(4.1895614 -0.31390645 0.0041574675)
(4.6671442 -0.053118341 -0.023280915)
(4.7801672 -0.026605982 -0.016581286)
(4.8239902 -0.012330778 -0.0099533564)
(4.8731243 -0.0035072555 -0.0048395146)
(4.9131174 -0.0011595943 -0.0020988788)
(4.9400985 -0.00024997928 -0.00093792868)
(4.9610245 9.6978596e-05 -0.00034143573)
(4.9777731 0.00010099188 -4.9375063e-05)
(4.9910835 -1.5939169e-05 7.4894408e-05)
(5.0018034 -0.00015879785 0.00010816224)
(5.0105798 -0.00029933558 9.6564838e-05)
(5.0178419 -0.00042496705 6.1349781e-05)
(5.0239036 -0.000530411 1.4762212e-05)
(5.0290126 -0.00061609709 -3.7549072e-05)
(5.0333524 -0.00068353656 -9.1776158e-05)
(4.9952995 0.00077007674 0.001757859)
(4.998334 0.00064780341 0.0026924527)
(5.0018725 0.00051212869 0.0037670732)
(5.0060065 0.00036408887 0.0049869194)
(5.0108342 0.00020575371 0.0063482208)
(5.0164528 4.1308969e-05 0.0078333753)
(5.0229535 -0.00012581871 0.0094003959)
(5.0303939 -0.00029160992 0.011015982)
(5.0388027 -0.00045029911 0.012610329)
(5.0481566 -0.00059471824 0.014103657)
(5.0583802 -0.00071789891 0.015423703)
(5.0693544 -0.0008147329 0.016510155)
(5.0809262 -0.00088165177 0.0173177)
(5.0929127 -0.00091654994 0.017817371)
(5.1051498 -0.00091930401 0.01799494)
(5.1174151 -0.00089041716 0.017848108)
(5.2995042 -0.0071163487 0.0015119518)
(5.2862592 -0.0076234778 0.0014984197)
(5.2719467 -0.0080218576 0.0014777417)
(5.2567992 -0.0083107677 0.0014512922)
(5.2410526 -0.0084904235 0.001420187)
(5.2249463 -0.0085622428 0.0013852277)
(5.2087121 -0.0085299575 0.0013471194)
(5.1925673 -0.0083980161 0.0013066561)
(5.1767488 -0.0081733066 0.0012644177)
(5.1614356 -0.0078658614 0.0012210645)
(5.1468097 -0.0074873749 0.0011774057)
(5.133017 -0.0070517022 0.0011340082)
(5.1201715 -0.0065738543 0.0010912224)
(5.1083532 -0.0060692826 0.0010492654)
(5.0976072 -0.0055528833 0.0010083365)
(5.0879466 -0.0050381181 0.00096859006)
(5.0793555 -0.0045364458 0.00093011121)
(5.071795 -0.0040569762 0.00089298895)
(5.0652082 -0.0036064006 0.00085727611)
(5.0595257 -0.0031891405 0.00082297302)
(5.0546709 -0.0028076311 0.00079005828)
(5.0505634 -0.0024626605 0.000758519)
(5.0471231 -0.002153708 0.00072833835)
(5.0442723 -0.0018793153 0.00069948267)
(5.0419376 -0.001637366 0.00067191215)
(5.040051 -0.0014253693 0.00064557676)
(5.0385502 -0.0012405873 0.0006204351)
(5.0388688 -0.0037474958 0.00061854338)
(5.040318 -0.0043078553 0.00064264112)
(5.0421488 -0.004951298 0.00066787624)
(5.0444238 -0.0056862866 0.00069429526)
(5.0472122 -0.006520582 0.00072198789)
(5.0505889 -0.0074608472 0.00075108129)
(5.0546337 -0.0085117625 0.00078169545)
(5.0594294 -0.0096751222 0.00081390505)
(5.0650597 -0.010948753 0.00084782139)
(5.0716054 -0.01232541 0.00088362802)
(5.0791403 -0.01379169 0.00092147223)
(5.0877258 -0.015327086 0.00096144735)
(5.0974058 -0.016903621 0.0010035221)
(5.1081998 -0.018485989 0.0010477001)
(5.1200978 -0.02003271 0.0010938884)
(5.1330558 -0.021497798 0.0011418175)
(5.1469926 -0.022833844 0.001191106)
(5.1617923 -0.023995329 0.0012412721)
(5.1773042 -0.024939585 0.0012914721)
(5.1933422 -0.025629722 0.0013411539)
(5.2097216 -0.026035223 0.0013891159)
(5.2262016 -0.026135467 0.0014345229)
(5.2425583 -0.025917152 0.0014766472)
(5.2585576 -0.025369808 0.0015147599)
(5.2739559 -0.024489704 0.0015479796)
(5.2885148 -0.023276284 0.0015750856)
(5.3019993 -0.021731804 0.0015946135)
(5.3065842 -0.037507029 0.0017051323)
(5.292663 -0.040148235 0.0016695381)
(5.2776574 -0.042220202 0.0016269191)
(5.261807 -0.043718185 0.001579223)
(5.2453541 -0.044644198 0.0015269127)
(5.2285489 -0.045004381 0.0014707727)
(5.2116301 -0.044815299 0.0014114316)
(5.1948338 -0.04409801 0.0013487909)
(5.1784083 -0.042889638 0.0012840322)
(5.162551 -0.041242353 0.0012205713)
(5.1474554 -0.039218538 0.0011598308)
(5.133278 -0.036891055 0.0011032059)
(5.1201385 -0.034340587 0.0010501558)
(5.1081198 -0.031651301 0.0010005773)
(5.0972629 -0.028904349 0.00095455162)
(5.0875717 -0.026172853 0.00091203234)
(5.079018 -0.023518231 0.00087282907)
(5.0715491 -0.020988735 0.00083673002)
(5.065094 -0.018619212 0.00080340354)
(5.0595707 -0.016432057 0.00077247387)
(5.054891 -0.014438818 0.0007435588)
(5.0509653 -0.012642133 0.00071637345)
(5.0477061 -0.011037896 0.0006907035)
(5.0450303 -0.0096172431 0.00066633467)
(5.0428607 -0.0083680424 0.00064309192)
(5.0411269 -0.0072762809 0.00062082372)
(5.0397653 -0.0063270039 0.00059945904)
(5.0412782 -0.0089442036 0.00058309975)
(5.042503 -0.010289303 0.00060147234)
(5.0440831 -0.01183969 0.00062039041)
(5.0460827 -0.013617857 0.00063995197)
(5.0485738 -0.01564528 0.00066032854)
(5.0516366 -0.017941193 0.00068176196)
(5.0553592 -0.020520498 0.00070457418)
(5.059836 -0.023391418 0.00072916409)
(5.0651658 -0.026552599 0.00075603519)
(5.0714486 -0.02998992 0.00078580169)
(5.0787809 -0.033673177 0.00081914283)
(5.087249 -0.037553132 0.0008567291)
(5.0969221 -0.041559763 0.00089914379)
(5.107843 -0.045602477 0.00094684048)
(5.1200203 -0.049572144 0.0010000419)
(5.1334194 -0.053345752 0.0010586552)
(5.1479572 -0.056795334 0.0011222843)
(5.163505 -0.05979858 0.0011906021)
(5.1798914 -0.062246986 0.0012638438)
(5.1969121 -0.064049864 0.0013428936)
(5.2143562 -0.065136154 0.0014234858)
(5.2319618 -0.065451723 0.0014986889)
(5.2494695 -0.064966336 0.0015711798)
(5.2666358 -0.063658414 0.0016411162)
(5.2832015 -0.061519324 0.0017075566)
(5.298917 -0.058547762 0.0017688594)
(5.3135346 -0.054751836 0.001823397)
(5.3230326 -0.073599046 0.0019231803)
(5.3074131 -0.078588503 0.001854184)
(5.2906798 -0.082483617 0.001779073)
(5.2730891 -0.085273262 0.0016993277)
(5.2549005 -0.08695524 0.0016164611)
(5.2363869 -0.087537758 0.0015324241)
(5.2177999 -0.087045352 0.0014460208)
(5.1994322 -0.085517128 0.0013543052)
(5.1815571 -0.083017919 0.0012683893)
(5.1644095 -0.079639473 0.0011887115)
(5.1482204 -0.075506114 0.001114505)
(5.1331802 -0.070768988 0.0010459969)
(5.1194296 -0.065599253 0.00098378651)
(5.1070535 -0.060179113 0.0009283905)
(5.0960752 -0.054682957 0.00087978424)
(5.0864657 -0.04926246 0.00083751564)
(5.0781578 -0.04404068 0.00080088519)
(5.0710572 -0.039110345 0.0007690629)
(5.0650531 -0.034534027 0.00074115161)
(5.0600277 -0.030347326 0.00071627773)
(5.0558639 -0.026563905 0.00069370704)
(5.0524496 -0.023180577 0.00067282995)
(5.0496807 -0.020181897 0.00065317672)
(5.0474631 -0.017544242 0.00063438892)
(5.0457127 -0.015239075 0.00061622096)
(5.0443556 -0.013235554 0.00059850526)
(5.0433277 -0.011502306 0.00058115177)
(5.0457428 -0.013887126 0.00059713498)
(5.0465105 -0.015982676 0.0006161664)
(5.0475707 -0.01841373 0.0006356951)
(5.0489874 -0.021222251 0.00065578136)
(5.0508354 -0.024450595 0.00067654735)
(5.0532027 -0.028139587 0.00069820192)
(5.0561909 -0.032325284 0.00072107328)
(5.0599158 -0.037034772 0.00074559329)
(5.0645062 -0.042280732 0.00077232272)
(5.0701024 -0.048055135 0.00080195167)
(5.0768519 -0.054321605 0.00083534932)
(5.0849 -0.061007021 0.00087344438)
(5.0943781 -0.067995881 0.00091706301)
(5.1053907 -0.075129503 0.00096697253)
(5.118 -0.082205685 0.0010237454)
(5.1322015 -0.088983953 0.0010874749)
(5.1479056 -0.095210731 0.001157577)
(5.1649516 -0.10065473 0.0012336242)
(5.1831186 -0.1051161 0.0013154861)
(5.2021415 -0.10843605 0.0014040329)
(5.2217447 -0.11049779 0.0014987311)
(5.2416344 -0.11123044 0.0015886386)
(5.2614821 -0.11059195 0.0016766489)
(5.2810221 -0.10855982 0.0017642084)
(5.2999645 -0.10513033 0.0018501637)
(5.3180394 -0.10031038 0.0019318321)
(5.3349811 -0.094115352 0.0020082713)
(5.3490131 -0.11639145 0.0021085943)
(5.3304357 -0.12378395 0.0020272897)
(5.3107022 -0.1295153 0.0019412072)
(5.290086 -0.13356414 0.0018527305)
(5.2688669 -0.13591494 0.0017642408)
(5.2473529 -0.13656352 0.0016755611)
(5.2258293 -0.13552131 0.00158621)
(5.2046598 -0.1328259 0.0014930108)
(5.1841756 -0.12855037 0.0014024637)
(5.164708 -0.1228281 0.001319367)
(5.14657 -0.11585477 0.0012426708)
(5.1300306 -0.10788945 0.001171691)
(5.1152828 -0.099237905 0.0011063112)
(5.1024273 -0.090252699 0.0010472705)
(5.0914372 -0.081262738 0.00099439298)
(5.0821966 -0.072530594 0.00094706507)
(5.0745456 -0.064251996 0.00090467664)
(5.0683013 -0.056563813 0.00086661886)
(5.0632707 -0.049544224 0.00083209027)
(5.0592678 -0.043222782 0.00080034804)
(5.0561239 -0.037594232 0.00077084288)
(5.05369 -0.032629542 0.00074313246)
(5.0518376 -0.028284244 0.0007168896)
(5.0504579 -0.024505239 0.00069181535)
(5.0494599 -0.021235899 0.00066773133)
(5.0487686 -0.018419979 0.00064453813)
(5.0483223 -0.016003241 0.00062214981)
(5.0508895 -0.017781181 0.0006448258)
(5.0509577 -0.020466207 0.00067038577)
(5.0512105 -0.023610037 0.00069732936)
(5.0517056 -0.027280502 0.00072580375)
(5.0525157 -0.031550814 0.00075574292)
(5.0537325 -0.036497321 0.00078728273)
(5.0554705 -0.042195654 0.00082067891)
(5.0578703 -0.048714915 0.00085624201)
(5.0611019 -0.056109613 0.00089432834)
(5.0653675 -0.064409401 0.00093535989)
(5.0709012 -0.07360346 0.00097998687)
(5.0779588 -0.083617294 0.0010288616)
(5.0867936 -0.094297546 0.0010822123)
(5.0976462 -0.10541267 0.0011403662)
(5.1107201 -0.1166297 0.0012039614)
(5.1260969 -0.12749562 0.0012732781)
(5.143651 -0.13751045 0.0013472974)
(5.1631371 -0.14627636 0.0014278791)
(5.1842154 -0.1534637 0.0015154479)
(5.2064959 -0.15884344 0.0016070675)
(5.2295719 -0.16227672 0.0016992523)
(5.2530633 -0.16369559 0.0017912631)
(5.2765722 -0.16308026 0.0018840177)
(5.2997873 -0.16044227 0.0019774421)
(5.3223856 -0.15580061 0.0020710464)
(5.3440782 -0.14918305 0.0021637799)
(5.3645886 -0.14061725 0.0022546273)
(5.381058 -0.16705462 0.0024681269)
(5.3583357 -0.17675758 0.0023591736)
(5.334405 -0.1842337 0.0022494963)
(5.3095402 -0.18944681 0.0021404891)
(5.2840317 -0.19235178 0.0020333182)
(5.2582087 -0.19290507 0.0019287437)
(5.2324129 -0.19105831 0.0018270499)
(5.2070711 -0.18679209 0.0017287245)
(5.1826347 -0.18014912 0.0016338122)
(5.1596008 -0.17126125 0.0015425736)
(5.1384717 -0.16038016 0.0014570026)
(5.119704 -0.14791964 0.0013776439)
(5.1036294 -0.13438337 0.0013018299)
(5.0904284 -0.12050873 0.0012316501)
(5.079919 -0.10693129 0.0011665648)
(5.0717513 -0.094061599 0.0011057778)
(5.0655682 -0.082156606 0.0010492255)
(5.0610231 -0.071377291 0.00099719661)
(5.0577796 -0.061778253 0.00094913028)
(5.0555444 -0.053334173 0.00090445775)
(5.0540801 -0.04597581 0.00086283599)
(5.0531969 -0.039611556 0.00082395624)
(5.0527449 -0.034139089 0.00078746649)
(5.0526081 -0.02945417 0.00075308008)
(5.0526981 -0.025456966 0.00072053604)
(5.0529483 -0.022055126 0.00068961564)
(5.0533089 -0.019165724 0.00066024161)
(5.0554692 -0.020109513 0.00065973561)
(5.0546368 -0.023125445 0.00069225864)
(5.053825 -0.026697406 0.00072685333)
(5.0530716 -0.030924307 0.00076370661)
(5.0524318 -0.035918796 0.00080307)
(5.0519841 -0.041808721 0.00084522327)
(5.0518387 -0.048733108 0.00089052189)
(5.0521477 -0.056837883 0.00093933954)
(5.0531149 -0.066266356 0.0009919089)
(5.0550117 -0.077148134 0.001048254)
(5.0581981 -0.089572811 0.0011089171)
(5.0631126 -0.10353129 0.0011743544)
(5.0702207 -0.11887076 0.0012433095)
(5.0800455 -0.13533479 0.0013151712)
(5.0931875 -0.15243972 0.0013908678)
(5.1100237 -0.16927526 0.0014717064)
(5.1302501 -0.18468997 0.0015530323)
(5.1533837 -0.19807995 0.0016426304)
(5.1787825 -0.20893143 0.001740922)
(5.2057885 -0.21698984 0.0018474116)
(5.2337825 -0.22215622 0.0019608024)
(5.2622194 -0.22445549 0.0020812889)
(5.2906603 -0.22397467 0.0022073097)
(5.3187326 -0.22081388 0.0023384227)
(5.3461148 -0.21505352 0.0024736434)
(5.3725251 -0.20676372 0.0026118567)
(5.3977028 -0.19599335 0.0027517992)
(5.4137787 -0.22761586 0.0031252052)
(5.3859525 -0.23938918 0.0029356555)
(5.3568811 -0.24845878 0.0027524208)
(5.3267886 -0.25476321 0.0025753634)
(5.2959291 -0.25820509 0.0024055044)
(5.2645964 -0.25865703 0.0022440587)
(5.2331673 -0.25594194 0.0020913986)
(5.2021176 -0.2498858 0.0019521809)
(5.1720431 -0.24030421 0.0018247395)
(5.1437547 -0.22722026 0.0017144287)
(5.1181213 -0.21084587 0.0016227973)
(5.0960785 -0.19181324 0.0015489431)
(5.078391 -0.17077133 0.0014714268)
(5.0656295 -0.14964887 0.001398316)
(5.0570256 -0.12978836 0.0013243931)
(5.0515476 -0.11168165 0.0012492229)
(5.0484435 -0.095521344 0.0011745567)
(5.0471002 -0.08142972 0.0011034383)
(5.0469529 -0.069327983 0.0010359218)
(5.047571 -0.059024906 0.00097226557)
(5.0486597 -0.050305859 0.0009133567)
(5.0500146 -0.042959453 0.00085920391)
(5.0514938 -0.036785886 0.00080948547)
(5.053003 -0.031604861 0.00076373946)
(5.0544837 -0.027260449 0.0007214966)
(5.0559002 -0.023617391 0.00068233748)
(5.0572325 -0.020561445 0.00064593449)
(5.0583292 -0.020458078 0.00061774024)
(5.0564803 -0.023447889 0.00066116543)
(5.0544293 -0.027033271 0.00070882265)
(5.0521714 -0.031341437 0.00076138057)
(5.0497137 -0.036525296 0.00081966891)
(5.0470842 -0.042772012 0.00088416215)
(5.044345 -0.050305818 0.0009554314)
(5.0416096 -0.059389412 0.0010338177)
(5.0390615 -0.070320014 0.0011188309)
(5.0369945 -0.083433105 0.0012074035)
(5.0358995 -0.099085091 0.0012964712)
(5.0364908 -0.11751954 0.0013848905)
(5.0395468 -0.13866893 0.0014658981)
(5.0461012 -0.16259645 0.0015322861)
(5.0579241 -0.188843 0.0015856572)
(5.0766438 -0.21547383 0.0016380525)
(5.1011075 -0.238963 0.0016818414)
(5.1300055 -0.25883755 0.0017690504)
(5.1619324 -0.27436344 0.0018937154)
(5.1956814 -0.28548531 0.002051304)
(5.2303072 -0.29234151 0.0022254895)
(5.2650949 -0.29538404 0.0024291128)
(5.2995713 -0.29487977 0.0026445195)
(5.3333931 -0.29113119 0.0028716283)
(5.3663347 -0.28431168 0.0031073988)
(5.3982011 -0.27455058 0.0033492817)
(5.4288277 -0.26195559 0.0036008377)
(5.505081 -0.26353158 0.0053752378)
(5.4745071 -0.28284136 0.0048494265)
(5.4424713 -0.29909698 0.0044274337)
(5.4090235 -0.31246989 0.0040559241)
(5.3743244 -0.32295985 0.0036965108)
(5.3384661 -0.33037989 0.0033503562)
(5.3015644 -0.33458653 0.0030254594)
(5.2636957 -0.33539043 0.0027132133)
(5.2251534 -0.3324008 0.0023938604)
(5.1863217 -0.3250704 0.002135835)
(5.1480335 -0.31244125 0.0018910357)
(5.1114819 -0.29420951 0.0017376888)
(5.0781077 -0.27011043 0.0016733065)
(5.0500322 -0.24098393 0.0017117579)
(5.0298444 -0.20651109 0.0017364156)
(5.0198476 -0.17361913 0.0017382614)
(5.0166617 -0.14516923 0.001668655)
(5.0171959 -0.12064604 0.0015802093)
(5.020062 -0.099983096 0.0014637109)
(5.0243535 -0.082961867 0.0013404681)
(5.0291762 -0.069088706 0.0012160931)
(5.0340104 -0.057799843 0.0010971897)
(5.0386176 -0.048612898 0.00098905169)
(5.0428762 -0.041129435 0.00089240725)
(5.0467301 -0.035018521 0.00080658902)
(5.0501714 -0.030012346 0.0007309739)
(5.0532197 -0.025896633 0.00066472834)
(5.0559061 -0.022500543 0.00060650895)
(5.0582657 -0.019688291 0.00055507945)
(5.0561242 -0.018166718 0.00043274137)
(5.053234 -0.020674547 0.00049512085)
(5.0498898 -0.023715632 0.00056818403)
(5.0460206 -0.027423002 0.00065469856)
(5.0415501 -0.031967028 0.00075845201)
(5.0363955 -0.037569314 0.00088165232)
(5.0304903 -0.044520951 0.0010231237)
(5.0238032 -0.053205014 0.0011799146)
(5.0163557 -0.064115687 0.0013504653)
(5.0082678 -0.077904678 0.0015225904)
(5.0000052 -0.095422997 0.0016738837)
(4.9925667 -0.11764349 0.0017904367)
(4.987074 -0.1454177 0.0018680501)
(4.9849576 -0.1793907 0.0018632264)
(4.9911399 -0.22087205 0.0017747277)
(5.0133139 -0.26756959 0.0016028419)
(5.0472873 -0.30395422 0.0015072938)
(5.087108 -0.3326144 0.001723143)
(5.1300821 -0.35312617 0.0019517926)
(5.1742093 -0.36652619 0.002191201)
(5.2183278 -0.37403165 0.0025502721)
(5.2610469 -0.37667543 0.0030349824)
(5.3024883 -0.37552641 0.0035015383)
(5.342547 -0.37091378 0.0040036271)
(5.3813723 -0.36304013 0.0045947059)
(5.4189955 -0.35191127 0.0051723519)
(5.4554904 -0.33792129 0.0056502664)
(5.4907709 -0.32139614 0.0061601354)
(5.5250041 -0.30212711 0.0066935976)
(5.5873426 -0.34775371 0.0059425821)
(5.5723514 -0.32170296 0.0068105645)
(5.5400249 -0.34410623 0.0079465446)
(5.5045444 -0.36353822 0.0073708023)
(5.4666302 -0.38062087 0.0065965774)
(5.4274977 -0.39581845 0.0058543973)
(5.3868755 -0.40867697 0.0050106533)
(5.3452979 -0.41778011 0.0042384925)
(5.3023537 -0.42364358 0.003569719)
(5.2570003 -0.42605122 0.0026946613)
(5.2094261 -0.4245633 0.0016363347)
(5.1590854 -0.4211278 0.00080513288)
(5.1090517 -0.40295969 0.00084786418)
(5.0571962 -0.37820643 0.00092553592)
(5.0069916 -0.34365529 0.00038943358)
(4.9611082 -0.29798159 0.00062556089)
(4.9356395 -0.23293252 0.0015136458)
(4.937169 -0.18068192 0.0019535572)
(4.9479826 -0.14174139 0.0017244764)
(4.9611706 -0.11103083 0.0015147083)
(4.9749781 -0.087505133 0.0013506703)
(4.9882543 -0.069859285 0.0011639466)
(5.0001153 -0.056492581 0.00096364953)
(5.0103935 -0.046250478 0.00078655812)
(5.0192394 -0.038329993 0.00063591133)
(5.0268054 -0.032143449 0.00050889601)
(5.0332524 -0.02725806 0.0004035115)
(5.0387464 -0.023360949 0.000316901)
(5.043438 -0.020221684 0.00024541737)
(5.0474528 -0.017671614 0.00018595272)
(5.050899 -0.015583826 0.00013617557)
(5.0425998 -0.011729217 -0.00022960092)
(5.03847 -0.013248129 -0.00018989921)
(5.033639 -0.015107299 -0.00013789302)
(5.027958 -0.017400895 -7.0377386e-05)
(5.0212469 -0.020257228 1.5707678e-05)
(5.0132835 -0.023854313 0.00011761255)
(5.0037943 -0.028439714 0.00023809428)
(4.9924807 -0.034381292 0.00037233013)
(4.9790547 -0.04222392 0.00051207388)
(4.9630563 -0.05281465 0.00063951263)
(4.9441323 -0.067489265 0.00068420381)
(4.9234042 -0.088315414 0.00052657371)
(4.9016609 -0.11868518 0.00024931948)
(4.8770314 -0.16321438 0.00026447591)
(4.8603496 -0.22729377 0.00019290296)
(4.8877163 -0.33177878 -0.0025920326)
(4.9523118 -0.39402706 -0.0042185103)
(5.0165935 -0.43163968 -0.0014371159)
(5.0750852 -0.45654007 -0.00027296514)
(5.0945162 -0.49066981 -0.0016335944)
(5.0747741 -0.498383 0.0015330316)
(5.0419863 -0.48331847 0.00093081021)
(5.0077683 -0.47779103 0.0026861071)
(4.9698999 -0.45599977 9.5843254e-05)
(4.9316032 -0.44491278 0.0023910174)
(4.8857757 -0.41342369 0.00037752886)
(4.8436636 -0.39091657 0.0036354562)
(4.7734861 -0.30999955 0.0063971698)
(4.7177084 -0.33561726 -0.0011702044)
(4.6614802 -0.28388968 -0.012515896)
(4.3431918 -0.3631757 -0.015553338)
(4.5910234 -0.5787598 -0.0038576635)
(4.70287 -0.56099603 -0.0032086182)
(4.7558637 -0.60803799 0.0014229713)
(4.7611163 -0.61510137 0.0026732605)
(4.7779294 -0.61665746 0.0022482177)
(4.7855938 -0.60370096 0.00097100224)
(4.8100409 -0.60534265 0.00034492949)
(4.8392943 -0.60347609 -0.00035520396)
(4.8678302 -0.60554541 0.00056426615)
(4.8949696 -0.60692009 0.00081039718)
(4.9206046 -0.60695264 0.00099048924)
(4.9427367 -0.60578061 0.00070422727)
(4.9623965 -0.60950798 0.0015409904)
(4.9747087 -0.61310043 0.0020719465)
(4.9859494 -0.61003875 0.0022154792)
(4.992648 -0.59930319 0.0016429442)
(5.013398 -0.60159081 0.00076786287)
(5.0318814 -0.60014262 0.00098416832)
(5.0452764 -0.60417673 0.00064328959)
(5.0529924 -0.60671984 0.00065036411)
(5.0626008 -0.59855757 0.0009097183)
(5.0570668 -0.59334486 0.0016113778)
(5.0564358 -0.56484842 -0.0007339447)
(5.0896566 -0.56924583 0.0009471803)
(5.1201925 -0.56637651 0.0012423755)
(5.1361378 -0.58350456 -0.00028838748)
(5.1336847 -0.58882161 0.00064238768)
(5.1377911 -0.59363566 0.00032834453)
(5.1472502 -0.5926111 0.00056378483)
(5.156576 -0.59221572 0.00025082389)
(5.1640656 -0.58581948 -9.4078626e-05)
(5.1644112 -0.58086838 0.00017193953)
(5.1765519 -0.57735596 2.6818688e-05)
(5.1906364 -0.57451694 0.0003607385)
(5.20452 -0.57248707 0.0005071328)
(5.2187864 -0.5693025 0.00023168376)
(5.23111 -0.5645341 0.00017977241)
(5.2421988 -0.56309618 0.00055201954)
(5.2540616 -0.56165973 0.00083731856)
(5.2673423 -0.56085959 0.00092699655)
(5.2753627 -0.55711119 0.00042356687)
(5.2804572 -0.5532746 0.00038855276)
(5.2827441 -0.54894298 0.00079565528)
(5.2927443 -0.54847921 0.00057787311)
(5.3047418 -0.54782419 0.00098092087)
(5.3147975 -0.54992666 0.0006194165)
(5.3215156 -0.55068156 0.0013844633)
(5.3285331 -0.53893021 0.0010980415)
(5.3245266 -0.53894591 0.0010331213)
(5.3203484 -0.51988497 7.4825343e-05)
(5.340332 -0.51708294 0.0010972327)
(5.3614075 -0.50998745 0.00142645)
(5.371745 -0.5193186 4.4591302e-05)
(5.3698102 -0.52468539 0.0010889218)
(5.3742204 -0.52738084 0.00055047464)
(5.3816725 -0.5221625 8.3411034e-05)
(5.3862482 -0.5183265 -0.00064714019)
(5.3895522 -0.51591181 -9.8207929e-05)
(5.390752 -0.51285307 0.00023364286)
(5.3996164 -0.50915437 0.0003062676)
(5.41033 -0.50543809 0.00059520547)
(5.4224469 -0.50118288 0.0004286857)
(5.4324072 -0.49329932 5.2175699e-05)
(5.4404126 -0.48969464 0.00053452926)
(5.4498072 -0.48670071 0.00072383044)
(5.4607629 -0.48349707 0.00075220426)
(5.471878 -0.47690812 0.00032138847)
(5.4798825 -0.4708186 0.00072625365)
(5.4867123 -0.46873386 0.0015487622)
(5.4903298 -0.4680272 0.0021394976)
(5.4964519 -0.46593539 0.0019580532)
(5.5021756 -0.45860255 0.001573356)
(5.5128402 -0.45444332 0.00072188248)
(5.5208978 -0.44746335 0.001159484)
(5.5254267 -0.44733647 0.00087709288)
(5.5293089 -0.44688018 0.0013421615)
(5.538811 -0.43619185 0.0008986969)
(5.5362814 -0.43830757 0.0011958303)
(5.538096 -0.42433238 0.0010149999)
(5.5545745 -0.41745693 0.001451012)
(5.5742035 -0.40192256 0.0025670511)
(5.5912266 -0.38825475 0.0033397185)
(5.110387 -0.00069638997 0.0026475596)
(5.1024426 -0.00074533937 0.0027128152)
(5.0942909 -0.00077121199 0.0027525362)
(5.0860472 -0.00077539542 0.0027686401)
(5.0777974 -0.0007595734 0.0027632099)
(5.0696508 -0.00072557424 0.0027383128)
(5.0616767 -0.00067561691 0.0026963852)
(5.0539493 -0.00061217655 0.0026400268)
(5.0465266 -0.0005378979 0.002571879)
(5.0394544 -0.00045548047 0.0024944984)
(5.0327666 -0.00036752101 0.0024102762)
(5.0264861 -0.00027648842 0.0023214957)
(5.0206253 -0.00018457193 0.0022304106)
(5.0151875 -9.3689528e-05 0.0021393813)
(5.0101662 -4.2615291e-06 0.0020528367)
(5.0055493 8.1546698e-05 0.0019644936)
(5.0013245 0.00016256423 0.0018783479)
(5.0076312 -0.0017815702 0.032411304)
(5.0094466 -0.0017512496 0.030418113)
(5.0113156 -0.0017077391 0.028472295)
(5.0132271 -0.0016567512 0.026597039)
(5.0151692 -0.0016026314 0.024803606)
(5.0171298 -0.0015487191 0.023095346)
(5.0190956 -0.0014974071 0.021469204)
(5.0210531 -0.0014503047 0.019918048)
(5.0229875 -0.0014083252 0.01843214)
(5.0248837 -0.0013721315 0.017000274)
(5.0267261 -0.0013419179 0.015610149)
(5.0284989 -0.0013176269 0.014248888)
(5.0301864 -0.0012988487 0.012902928)
(5.0317735 -0.0012848807 0.011558195)
(5.0332447 -0.0012749118 0.010200824)
(5.0345815 -0.0012684945 0.0088195108)
(5.0357604 -0.0012657047 0.0074112033)
(5.0367518 -0.0012662275 0.0059857301)
(5.0375276 -0.0012673643 0.0045700986)
(5.0380752 -0.0012654069 0.0031918381)
(5.0384067 -0.0012557549 0.0018775973)
(5.0399104 -0.0014430316 0.001953004)
(5.0395836 -0.0014546381 0.0033195846)
(5.0390435 -0.0014575339 0.004753084)
(5.0382785 -0.0014565913 0.0062250791)
(5.0373013 -0.0014559866 0.0077070075)
(5.0361397 -0.0014587261 0.0091705584)
(5.0348228 -0.0014651657 0.010605184)
(5.0333739 -0.001475131 0.012013923)
(5.0318111 -0.0014890122 0.013408264)
(5.0301497 -0.0015076332 0.014802362)
(5.0284048 -0.0015317229 0.016210505)
(5.0265915 -0.0015617366 0.017646509)
(5.0247258 -0.0015977288 0.019123454)
(5.0228229 -0.0016395205 0.020653865)
(5.020898 -0.0016864693 0.022249268)
(5.0189656 -0.0017376137 0.023919637)
(5.0170394 -0.0017913499 0.025672413)
(5.0151326 -0.0018452689 0.027510927)
(5.0132576 -0.0018959766 0.029432043)
(5.0114264 -0.0019390829 0.031424706)
(5.0096506 -0.0019688122 0.03346566)
(5.0079412 -0.0019785615 0.035518641)
(5.0063094 -0.0019609401 0.037530123)
(5.0047657 -0.0019087605 0.039430153)
(5.0033196 -0.0018161166 0.041131291)
(5.00198 -0.0016801565 0.042536214)
(5.0007544 -0.0015021214 0.043542215)
(4.9996472 -0.0012888271 0.044057602)
(4.998241 -1.9798119e-05 0.033160881)
(4.9985541 -0.00014522419 0.036425271)
(4.9989411 -0.00030790064 0.039294666)
(4.999414 -0.00050625108 0.041695282)
(4.9999851 -0.00073461474 0.043554907)
(5.0006648 -0.00098283066 0.044819035)
(5.0014619 -0.0012366475 0.045458175)
(5.0023843 -0.0014810291 0.045481449)
(5.0034328 -0.0017005661 0.044929284)
(5.0046038 -0.001883513 0.043878905)
(5.0058926 -0.0020231511 0.042425081)
(5.0072916 -0.0021185127 0.040672478)
(5.0087915 -0.0021726744 0.03872029)
(5.0103822 -0.0021916554 0.036656928)
(5.0120526 -0.0021828698 0.03455319)
(5.0137913 -0.0021538079 0.032462715)
(5.0155867 -0.002111167 0.030422)
(5.0174268 -0.0020607732 0.028453995)
(5.0192995 -0.0020071574 0.026569698)
(5.0211922 -0.0019536769 0.024771763)
(5.0230918 -0.0019027775 0.023056585)
(5.0249844 -0.001856087 0.021416318)
(5.0268557 -0.0018145727 0.01984068)
(5.0286908 -0.0017788901 0.018317815)
(5.0304744 -0.0017491832 0.016834908)
(5.0321911 -0.0017253908 0.015378656)
(5.0338258 -0.0017070139 0.013934997)
(5.0353636 -0.0016932887 0.012489414)
(5.0367895 -0.001683375 0.01102746)
(5.0380858 -0.0016769508 0.0095374674)
(5.0392293 -0.0016743106 0.0080163988)
(5.0401918 -0.0016750478 0.0064755896)
(5.0409456 -0.0016757904 0.0049446305)
(5.0414781 -0.001671797 0.0034532914)
(5.0417999 -0.0016579458 0.0020319236)
(5.0441374 -0.0019032846 0.002114473)
(5.0438206 -0.0019196841 0.0035932169)
(5.0432959 -0.0019249528 0.005145062)
(5.0425538 -0.0019243907 0.0067376974)
(5.0416066 -0.0019234469 0.0083398488)
(5.0404817 -0.0019259164 0.00992072)
(5.0392068 -0.0019322696 0.011468115)
(5.0378046 -0.0019420664 0.012985089)
(5.0362923 -0.0019555472 0.014483488)
(5.034685 -0.0019735666 0.015978035)
(5.032997 -0.0019969349 0.017483492)
(5.0312433 -0.0020261953 0.019014153)
(5.0294389 -0.0020614372 0.020583593)
(5.027599 -0.0021025356 0.022204926)
(5.0257383 -0.0021488497 0.023890383)
(5.0238709 -0.0021994052 0.025650691)
(5.0220105 -0.0022525123 0.027494062)
(5.0201703 -0.0023057295 0.029424549)
(5.018363 -0.0023557072 0.03143998)
(5.0166009 -0.0023977829 0.033529672)
(5.0148964 -0.002426087 0.035670877)
(5.0132613 -0.0024338011 0.037827256)
(5.0117078 -0.002413273 0.039944818)
(5.0102474 -0.0023568704 0.041952137)
(5.0088908 -0.0022584374 0.043759741)
(5.0076478 -0.0021145907 0.045266664)
(5.0065263 -0.0019260689 0.046365783)
(5.0055312 -0.0016993844 0.046959453)
(5.004666 -0.0014462829 0.046966735)
(5.0039298 -0.001182364 0.046344228)
(5.0033136 -0.00092277393 0.045079533)
(5.0028077 -0.00068214872 0.043199873)
(5.0024006 -0.00047099826 0.04075812)
(5.0020785 -0.00029536332 0.037825715)
(5.0018282 -0.00015716 0.0344761)
(5.001636 -5.4796281e-05 0.03077948)
(5.0014903 1.6226834e-05 0.026799419)
(5.0013806 6.380382e-05 0.022604721)
(5.0013001 9.8205446e-05 0.018284895)
(5.0012468 0.00012879952 0.013954265)
(5.0012268 0.00015415777 0.0097329777)
(5.0012509 0.00016714458 0.0057021687)
(5.0054719 8.3505004e-05 0.0059606355)