/*--------------------------------*- C++ -*----------------------------------*\
| =========                 |                                                 |
| \\      /  F ield         | OpenFOAM: The Open Source CFD Toolbox           |
|  \\    /   O peration     | Version:  v2012                                 |
|   \\  /    A nd           | Website:  www.openfoam.com                      |
|    \\/     M anipulation  |                                                 |
\*---------------------------------------------------------------------------*/
FoamFile
{
    version     2.0;
    format      ascii;
    class       volScalarField;
    location    "238";
    object      p;
}
// * * * * * * * * * * * * * * * * * * * * * * * * * * * * * * * * * * * * * //

dimensions      [0 2 -2 0 0 0 0];


internalField   nonuniform List<scalar> 
49477
(
0.13003719
0.11781883
0.10700952
0.097414051
0.088867602
0.081231915
0.074389305
0.068239566
0.0626969
0.057687481
0.053147874
0.049023228
0.045265982
0.041835216
0.038695196
0.035814426
0.033165967
0.030725847
0.028472704
0.026387695
0.024454484
0.022658343
0.020986374
0.019426667
0.017969076
0.016604252
0.015324288
0.014120486
0.012985585
0.011913532
0.010900711
0.0099416824
0.0090302522
0.0081605705
0.0073273259
0.0065232962
0.0057461895
0.0049906604
0.0042567693
0.0035370513
0.0028470991
0.00218377
0.00157192
0.00093934192
0.00045203368
0.00048702761
0.0005157058
0.00050318327
0.00048696634
0.00045661495
0.00041857433
0.00038980764
0.00036319428
0.00034331212
0.00032502582
0.00030969649
0.00029008109
0.0002682585
0.00025001248
0.00023814663
0.00022772101
0.00021976441
0.00020893588
0.00020261742
0.00019633526
0.00019392924
0.00018962958
0.00018721389
0.00017882149
0.00016853027
0.00013690301
9.4833915e-05
1.9722049e-05
-7.6577788e-05
-0.00019608214
-0.00030652642
-0.00030846203
-0.00013736129
0.00045857849
0.001168483
0.0018494264
0.0020018107
0.0016295862
0.0010321388
0.00037537815
-0.00011097363
-0.00036860615
-0.00045450543
-0.00047313785
-0.00046522225
-0.00051969323
-0.00053598597
-0.00056982701
-0.00053759848
-0.00051036513
-0.00048121068
-0.00046620874
-0.00045647475
-0.0004441744
-0.00044048019
-0.00043189526
-0.00042682498
-0.00041975027
-0.00041588037
-0.00041007121
-0.0004040698
-0.00039894473
-0.00039625826
-0.00039410555
-0.00039875703
-0.00040591679
-0.00041114868
-0.00041962838
-0.00042119985
-0.00043081098
-0.00040262286
-0.00038872963
-0.00038288809
-0.00038287673
-0.0003672407
-0.00034658165
-0.00032372544
-0.00030636908
-0.00029698893
-0.0002908908
-0.00028734198
-0.00028441992
-0.00028111936
-0.00027668339
-0.00027030884
-0.00026358345
-0.0002544669
-0.00024062602
-0.00022377236
-0.00020367759
-0.00017945613
-0.00015274519
-0.00012195217
-9.0219824e-05
-5.651926e-05
-2.1336771e-05
1.4740687e-05
5.046176e-05
8.6812648e-05
0.00012194958
0.00015692469
0.00019005676
0.00022219891
0.00025226858
0.00028108134
0.0003076074
0.00033200865
0.00035345893
0.00037183455
0.00038839255
0.0004054325
0.00042698224
0.00044877138
0.00047231891
0.00048805341
0.00048242825
0.00048168377
0.00045616287
0.0004415309
0.00043385586
0.00040244135
0.00039196514
0.00038729603
0.00039173947
0.00041305799
0.00041782076
0.00041767616
0.00040431923
0.00038377957
0.00035958245
0.00033390858
0.00031091172
0.00029259409
0.00028293861
0.00026841885
0.00027964267
0.0002831848
0.00033686765
0.00041027853
0.00044791562
0.00038457118
0.00032938524
0.00029918121
0.00029201793
0.00029859006
0.00031244997
0.00033138226
0.0003522038
0.00037599138
0.00039696938
0.00041479532
0.00042515373
0.00042725997
0.00042505735
0.0004210794
0.00042661849
0.00043810973
0.00044850846
0.00045459797
0.000482267
0.00048604029
0.00047532393
0.00045807741
0.00044892557
0.00044822044
0.00045178807
0.00045073288
0.00044239562
0.00042736387
0.00040738089
0.00038532811
0.00036389625
0.00034609522
0.00033320702
0.00032568601
0.00033209286
0.00036692595
0.00042263084
0.00048011452
0.00047966117
0.00043896541
0.00039308592
0.00036498682
0.00036150488
0.00036985567
0.00038376861
0.00039984254
0.00041794086
0.00043995904
0.00045856297
0.00047379532
0.00048084923
0.00048110211
0.000476505
0.00047694643
0.00048631254
0.00050207781
0.00050747735
0.00049469716
0.00050112587
0.00051572589
0.00050872759
0.00049225719
0.00048301467
0.00048339218
0.00048888111
0.0004883548
0.00048004237
0.00046481522
0.00044519992
0.00042427929
0.00040559093
0.00039121691
0.00037934001
0.00037090828
0.00037183214
0.00039519021
0.00043544811
0.00047197147
0.00044569975
0.00041421239
0.00037707308
0.0003544026
0.00035361571
0.00036015497
0.0003718937
0.00038559103
0.00040328219
0.00042478143
0.00044424097
0.00046086301
0.0004705441
0.00047164492
0.0004670912
0.00046734173
0.00047722534
0.00049395871
0.00050221707
0.00048758795
0.00046555328
0.00047789942
0.00046586319
0.00044752392
0.00043715564
0.0004363585
0.00043949291
0.00043745687
0.00042751811
0.00041031084
0.0003899443
0.00036926021
0.00035146423
0.00033800559
0.00032621576
0.00032071084
0.00032353165
0.00034713178
0.00038399049
0.00041611537
0.00038422277
0.00035228545
0.00031535565
0.00029130827
0.00028754899
0.00029227729
0.00030236346
0.00031592677
0.00033324169
0.00035443723
0.00037536412
0.00039218627
0.00040332065
0.00040640585
0.0004039987
0.00040495506
0.00041542901
0.00043425115
0.0004484646
0.00044042051
0.00041693669
0.00042197569
0.00040568775
0.0003865086
0.00037645604
0.00037568423
0.0003776678
0.0003744236
0.00036231231
0.00034534125
0.00032599084
0.00030570499
0.00028829371
0.00027512584
0.00026432562
0.00026063889
0.00026446615
0.00028881588
0.00032547033
0.00035994814
0.00033606368
0.000302646
0.00026767303
0.00024300102
0.0002389077
0.00024394881
0.00025490849
0.00026767604
0.00028384863
0.00030435936
0.00032381986
0.00034075322
0.00035243625
0.00035570279
0.00035371831
0.00035396073
0.00036335303
0.00038170007
0.00039802712
0.00039619381
0.00037773579
0.00037805728
0.00036101946
0.00034294169
0.00033447282
0.00033476905
0.00033699877
0.00033354415
0.00032256955
0.00030550033
0.00028708375
0.00026717897
0.00024994986
0.00023694205
0.00022669162
0.00022028465
0.00022448937
0.00024774994
0.00028285961
0.00031685098
0.0003027885
0.00026601252
0.0002315826
0.00020669774
0.00020251981
0.00020986131
0.0002211109
0.00023431273
0.00025042478
0.00027015352
0.00028890219
0.00030521436
0.00031611317
0.00031926976
0.00031675758
0.00031617299
0.00032431159
0.0003410755
0.00035698829
0.00035780132
0.00033659746
0.00033604216
0.0003203816
0.00030415937
0.00029698299
0.00029782403
0.00030045034
0.00029730718
0.00028692974
0.00027045625
0.00025244162
0.00023357409
0.00021700268
0.00020319532
0.00019174625
0.00018328011
0.00018715918
0.00021240105
0.00024824222
0.00028189803
0.00026938842
0.00023311633
0.00019682187
0.00016855347
0.00016344829
0.00017212485
0.00018358709
0.00019732428
0.00021388798
0.00023318935
0.0002513222
0.00026695083
0.00027715545
0.00027998964
0.00027726944
0.00027630421
0.00028339328
0.00029838448
0.00031232526
0.00031232616
0.0002872667
0.00028835686
0.00027492466
0.00026049177
0.00025430444
0.00025535891
0.00025798734
0.00025502115
0.00024520189
0.00022957357
0.00021164628
0.00019305951
0.00017701037
0.00016353677
0.00015158902
0.0001426681
0.00014702602
0.0001760444
0.00021533013
0.00024735068
0.00023574052
0.00019964207
0.00015624983
0.00012720417
0.00012138407
0.00013019132
0.0001414734
0.00015425396
0.00017000338
0.00018865024
0.00020656931
0.00022165744
0.0002316405
0.00023459006
0.00023177005
0.00023057916
0.0002369522
0.00025027961
0.0002615121
0.00025934483
0.00023129116
0.00023482865
0.00022428934
0.00021179221
0.00020626294
0.00020716934
0.00020997637
0.00020702345
0.00019724426
0.00018174504
0.00016325502
0.00014480578
0.00012932436
0.000117394
0.00010643467
9.8792718e-05
0.0001065261
0.00013696981
0.00018021353
0.00021676507
0.00020632524
0.00016403017
0.00011838807
8.2773212e-05
7.5397529e-05
8.0164437e-05
9.0639723e-05
0.0001020457
0.00011815468
0.00013786316
0.00015599941
0.00017110623
0.00018084371
0.00018362135
0.00018078491
0.00017991986
0.00018506388
0.00019706633
0.00020546117
0.00020056132
0.00017022562
0.00017641693
0.00016921923
0.00015811126
0.00015294377
0.00015394648
0.00015638843
0.00015351997
0.00014392278
0.00012847735
0.00010897778
8.9746969e-05
7.2994388e-05
6.031551e-05
4.9946656e-05
4.5823068e-05
5.6208591e-05
9.2488075e-05
0.00014410731
0.00018804454
0.00017896017
0.00012607581
7.1587642e-05
2.8037972e-05
1.647815e-05
1.8994101e-05
2.7711066e-05
3.9828201e-05
5.8142493e-05
7.9764563e-05
9.9316356e-05
0.00011480753
0.00012478326
0.00012781107
0.00012514154
0.00012435954
0.00012942798
0.00014002885
0.00014487069
0.00013712478
0.00010510311
0.00011468891
0.00011094576
0.00010130924
9.609371e-05
9.6346185e-05
9.8594839e-05
9.5361226e-05
8.4984689e-05
6.8506182e-05
4.6594407e-05
2.4760636e-05
5.4815752e-06
-1.0384215e-05
-2.0266166e-05
-2.1864928e-05
-6.4124076e-06
3.8433189e-05
0.00010313725
0.00016230446
0.00015307174
8.0034316e-05
9.9318031e-06
-4.3537388e-05
-6.3511541e-05
-6.366886e-05
-5.3707026e-05
-3.5291533e-05
-1.2079455e-05
1.3185372e-05
3.5890883e-05
5.3135462e-05
6.4210564e-05
6.7928751e-05
6.642662e-05
6.671394e-05
7.1825129e-05
8.1030223e-05
8.237269e-05
7.0748801e-05
3.8319447e-05
5.1686428e-05
5.1443338e-05
4.3240393e-05
3.767597e-05
3.710571e-05
3.7524002e-05
3.2735639e-05
2.0870225e-05
1.9123106e-06
-2.4955914e-05
-5.3610433e-05
-7.971274e-05
-0.00010038848
-0.00011246303
-0.00011399149
-9.1843153e-05
-3.3777159e-05
5.041149e-05
0.00013534789
0.00012149699
1.780436e-05
-7.7947565e-05
-0.00014448907
-0.00017295375
-0.00017087751
-0.00015486976
-0.00012832686
-9.5295743e-05
-6.1119488e-05
-3.2964404e-05
-1.2823944e-05
3.6543527e-07
6.2522724e-06
6.2782968e-06
7.6848007e-06
1.3340805e-05
2.1313528e-05
1.9355337e-05
4.1533026e-06
-2.8195732e-05
-1.1661626e-05
-9.1009782e-06
-1.6482656e-05
-2.2324124e-05
-2.455455e-05
-2.5804792e-05
-3.2417479e-05
-4.6791509e-05
-6.9544759e-05
-0.00010241822
-0.00014100408
-0.00018029066
-0.00021380828
-0.00023541261
-0.00023928284
-0.00020730201
-0.00013196272
-2.4363723e-05
9.7777759e-05
7.095335e-05
-7.5617536e-05
-0.00019990377
-0.00028212679
-0.00031271607
-0.00030678177
-0.00027655434
-0.00023302984
-0.00018583568
-0.00014227829
-0.00010634863
-8.1417195e-05
-6.4545249e-05
-5.7617697e-05
-5.3779704e-05
-5.0995334e-05
-4.3581868e-05
-3.8501798e-05
-4.2683365e-05
-6.0229504e-05
-9.0735525e-05
-7.3047443e-05
-6.8542374e-05
-7.3568396e-05
-8.056899e-05
-8.5067504e-05
-8.9721846e-05
-9.8282163e-05
-0.00011674418
-0.00014336941
-0.00018008373
-0.00023048862
-0.0002869554
-0.00034038601
-0.0003807033
-0.00039273699
-0.0003621043
-0.00027409057
-0.0001363599
2.3326197e-05
-3.2804774e-05
-0.00021211731
-0.00035857118
-0.00045002207
-0.00047488276
-0.00045230431
-0.00040045212
-0.0003372744
-0.00027374169
-0.00022034586
-0.00018050426
-0.00015111599
-0.00013043591
-0.00012078172
-0.00011442762
-0.00010895172
-0.00010263728
-9.8702577e-05
-0.0001049463
-0.00012233817
-0.00014920548
-0.00013300756
-0.00012847375
-0.00013281034
-0.00013896578
-0.00014419791
-0.00015285973
-0.00016353442
-0.0001850979
-0.00021581068
-0.00025655577
-0.00031138499
-0.0003800992
-0.00045619474
-0.00052127312
-0.00055705223
-0.00054111982
-0.00045534439
-0.00030444287
-0.00011878377
-0.00022147185
-0.00040705785
-0.00055191712
-0.00062643572
-0.00062311735
-0.00057553527
-0.00050005628
-0.00041725118
-0.00034598302
-0.0002904193
-0.00024919921
-0.00021805015
-0.00019542041
-0.00018258539
-0.00017277112
-0.00016624253
-0.00015951464
-0.00015676954
-0.00016159586
-0.00017617655
-0.00019951985
-0.00018773588
-0.00018484027
-0.00018763391
-0.00019310032
-0.00020066446
-0.00021151104
-0.00022553319
-0.00024840237
-0.00027854501
-0.00031688122
-0.00036851487
-0.00043901234
-0.00052104971
-0.00060615537
-0.00067089486
-0.00068993739
-0.00063483933
-0.00050539749
-0.0003370727
-0.0004334645
-0.00057148565
-0.00067940147
-0.00071957727
-0.00068779098
-0.00060900892
-0.00052109753
-0.00044465044
-0.00038307435
-0.00033814481
-0.00030419058
-0.00027657896
-0.00025483674
-0.0002390339
-0.0002260362
-0.00021788918
-0.00021328668
-0.00021086
-0.00021339758
-0.00022164135
-0.00024118386
-0.00023745582
-0.00023701729
-0.00023910625
-0.0002420063
-0.00024940844
-0.00026278455
-0.00027994234
-0.00030080252
-0.00032433241
-0.00034981675
-0.00038153765
-0.00042793326
-0.00048885968
-0.00057291469
-0.00064728168
-0.00068268049
-0.00063700007
-0.00052887044
-0.00041594304
-0.00019673619
-0.00030495618
-0.0004521308
-0.00054996358
-0.00054197081
-0.00048972698
-0.0004260955
-0.00038726815
-0.00036808536
-0.00035437728
-0.00033941482
-0.00032089709
-0.00030436798
-0.00028547376
-0.00027529777
-0.00026683029
-0.00026165728
-0.00025884246
-0.00025665299
-0.00025618595
-0.0002695967
-0.00027337722
-0.00027871486
-0.00028186534
-0.00028527581
-0.00029332773
-0.00030645805
-0.0003248375
-0.00033967773
-0.00035043394
-0.00035207701
-0.00034486786
-0.00033187442
-0.00033871984
-0.0003585699
-0.00037205251
-0.00027471435
-5.6611811e-05
0.00020602011
0.0003881684
0.0011004943
0.00083748089
0.00042622093
5.1722937e-05
-0.0001497758
-0.0002088781
-0.00023813403
-0.00027386536
-0.00031677677
-0.00034781933
-0.00035978253
-0.00035511861
-0.00034160657
-0.00032437392
-0.00031063352
-0.0003028123
-0.00030093507
-0.00029798935
-0.00029046915
-0.00028251524
-0.00029243245
-0.00030433163
-0.00031389487
-0.00031664777
-0.00031791749
-0.00032522861
-0.00033900707
-0.00035662074
-0.00036876713
-0.00037208681
-0.00035392362
-0.00031011646
-0.00024246515
-0.00017501336
-0.00010040774
1.4737928e-05
0.00030815732
0.00082631535
0.0013769266
0.0017479473
0.0019192789
0.0015755823
0.00097797234
0.00045868079
0.00012777582
-5.1858043e-05
-0.00015626302
-0.00024535407
-0.00032018415
-0.00036601654
-0.00038425052
-0.00038170172
-0.00036897345
-0.00035093802
-0.00033596936
-0.00033024141
-0.00033164719
-0.00032883202
-0.00031631406
-0.00030064376
-0.00030861744
-0.00032766637
-0.00034120695
-0.00034445976
-0.00034414548
-0.00034822906
-0.00036126608
-0.00037923133
-0.00039275667
-0.00040027864
-0.00038741983
-0.00035099897
-0.0002877069
-0.00020895069
-0.00010275755
8.5343197e-05
0.00039108112
0.00083661681
0.0013555828
0.0015980863
0.0010655561
0.00094436126
0.00057994421
0.00020275698
-6.6900961e-05
-0.00020923199
-0.0002870669
-0.00034357502
-0.00038292714
-0.00040536464
-0.00041080532
-0.00040168599
-0.00038602261
-0.00037015627
-0.00035817603
-0.00035589162
-0.00035811657
-0.00035502723
-0.0003388313
-0.00031602309
-0.00032679339
-0.00035305356
-0.00036998434
-0.00037269054
-0.00037157356
-0.00037216347
-0.00038199549
-0.00039757637
-0.00041201801
-0.00042511304
-0.00042516512
-0.00041269847
-0.00039018991
-0.00036105142
-0.00031022687
-0.0002160631
-2.1924006e-05
0.00023911566
0.00047167241
0.00047834767
3.833639e-05
0.00010913729
-4.0742262e-06
-0.00016673603
-0.00029775556
-0.00036513325
-0.00039693405
-0.00041545518
-0.00042563846
-0.00043165601
-0.00042969661
-0.00041981676
-0.0004080781
-0.00039647544
-0.00039005447
-0.00039001226
-0.00039450277
-0.00039028812
-0.00036895963
-0.0003379645
-0.00035712194
-0.00039173559
-0.00041447918
-0.00041969193
-0.00041597569
-0.00041280976
-0.00041407728
-0.00042246241
-0.00042969011
-0.00043818467
-0.00043724451
-0.00042828792
-0.00041711202
-0.00040386414
-0.00037332495
-0.00031973316
-0.00022195444
-0.00012917862
-8.895267e-05
-0.00020229111
-0.0003029111
-0.00017099128
-0.00016076931
-0.00021549949
-0.00028710131
-0.00034032184
-0.00037450196
-0.00039920401
-0.00041622418
-0.00042995797
-0.0004364865
-0.0004367311
-0.00043567341
-0.00043356623
-0.00043527289
-0.00044139209
-0.00044653987
-0.00043980795
-0.00041514624
-0.00037778143
-0.00039620685
-0.00043346072
-0.0004582229
-0.00046465518
-0.00045933084
-0.00045166717
-0.00044659962
-0.00044401491
-0.00043992821
-0.00043614072
-0.00042275674
-0.00040039541
-0.00037565562
-0.00034794949
-0.00030655275
-0.00025692466
-0.00019936239
-0.00017763524
-0.00020794952
-0.00033677233
-0.00037308461
-0.00026501158
-0.00022074243
-0.00022470039
-0.00026283599
-0.00030450702
-0.00033938885
-0.00036661562
-0.00038916873
-0.0004105092
-0.00042228836
-0.00043128589
-0.00043724832
-0.00044357013
-0.00045021943
-0.00045946965
-0.00046534301
-0.00045911017
-0.0004359389
-0.00040334694
-0.0004001856
-0.00042387959
-0.00044114589
-0.00044453883
-0.00043876389
-0.00043206593
-0.0004249592
-0.00042118992
-0.00041714999
-0.00041173041
-0.00040444805
-0.0003899751
-0.00037757741
-0.00036107132
-0.0003372052
-0.00031528419
-0.00029625226
-0.00030736016
-0.00034966382
-0.00043591863
-0.0004892738
-0.00043243174
-0.00039428813
-0.00037664505
-0.00037813337
-0.00038451109
-0.00039114861
-0.00039532953
-0.00039677006
-0.0003987807
-0.0003998071
-0.00039976791
-0.00040065981
-0.00040308815
-0.00040680359
-0.00041222469
-0.00041777515
-0.00041638113
-0.00040591342
-0.00039402918
-0.00040168076
-0.00040653054
-0.00040671168
-0.00040526288
-0.00039768674
-0.00039337527
-0.00039216714
-0.0003933956
-0.00039729397
-0.00040207193
-0.00040718134
-0.00040756536
-0.00041327778
-0.0004182846
-0.00042195997
-0.0004287631
-0.00043594144
-0.00045508297
-0.00047874827
-0.00052039336
-0.00096049585
-0.0009861813
-0.0016624551
-0.0022505938
-0.0028944514
-0.0035434325
-0.0042173927
-0.0049007308
-0.005603271
-0.0063252425
-0.007072433
-0.00784815
-0.0086574442
-0.0095032109
-0.010390184
-0.011321676
-0.01229988
-0.013329538
-0.014412573
-0.0155535
-0.016757764
-0.018028911
-0.019371647
-0.020790493
-0.022291571
-0.023880717
-0.02556331
-0.027346209
-0.029236479
-0.031241892
-0.033372227
-0.035638588
-0.038049242
-0.04061686
-0.043356477
-0.046284495
-0.049419275
-0.052783075
-0.056401292
-0.060305306
-0.064531383
-0.069128066
-0.074148127
0.022608053
0.025108871
0.02695831
0.02825244
0.029091177
0.029546925
0.029664857
0.029495076
0.029112562
0.028556242
0.027858669
0.027050959
0.026158976
0.025204102
0.02420453
0.023175188
0.022129296
0.021077889
0.020028304
0.01898661
0.017958499
0.016948254
0.015959084
0.01499331
0.014052535
0.013137736
0.012249372
0.011387466
0.010551616
0.0097411955
0.0089551567
0.008192421
0.0074511349
0.0067298746
0.0060248907
0.0053350682
0.0046531306
0.0039844879
0.0033171724
0.0026764811
0.0020400596
0.0014663636
0.00084758731
0.00085746878
0.001472762
0.0020493244
0.0026807691
0.003322888
0.0039854064
0.0046535679
0.0053339633
0.0060246919
0.0067304003
0.0074528727
0.0081953106
0.0089593298
0.0097467342
0.010558691
0.011396269
0.012260151
0.013150774
0.014068147
0.015011862
0.015981004
0.016974043
0.017988737
0.019021964
0.020069575
0.021126101
0.022185264
0.023239973
0.024279685
0.025291208
0.026259838
0.02716768
0.027993645
0.028712351
0.029293134
0.029702559
0.029904318
0.029838258
0.029421779
0.028623529
0.027379028
0.025591145
0.023160547
0.019972004
0.021340304
0.024358155
0.026638715
0.02829589
0.029427516
0.030122295
0.030437412
0.03041532
0.030145248
0.029676911
0.029043812
0.02827948
0.027413903
0.026471691
0.0254733
0.024435969
0.023374
0.022300155
0.021224264
0.020152981
0.019092739
0.01804862
0.017024498
0.016023293
0.01504708
0.014097229
0.013174524
0.012279268
0.011411357
0.010570289
0.0097553071
0.0089653043
0.0081990277
0.0074546767
0.0067305409
0.0060236845
0.0053321467
0.0046516329
0.0039824786
0.0033193437
0.0026749104
0.0020444332
0.0014672626
0.00086166326
0.00086859491
0.0014629917
0.0020393942
0.0026689425
0.0033151027
0.0039796416
0.004650195
0.0053318057
0.006025095
0.0067340891
0.007460855
0.0082083482
0.0089783355
0.0097726706
0.010592674
0.011439561
0.012314189
0.013217179
0.014148782
0.015108838
0.01609683
0.017111621
0.018151438
0.019213688
0.020294905
0.021390555
0.022494759
0.023600452
0.024699307
0.025779853
0.026827847
0.027827219
0.028758624
0.029598743
0.030319746
0.030891256
0.031279602
0.031434335
0.031276396
0.030762274
0.029828867
0.02839511
0.026367245
0.023635376
0.026973373
0.029285561
0.03094143
0.032045579
0.03268714
0.032942262
0.032873672
0.032530249
0.031974257
0.031253835
0.03040337
0.029451689
0.028424114
0.027341733
0.026222079
0.025079848
0.023927364
0.022774829
0.021630046
0.020499384
0.019387878
0.018299434
0.017236934
0.016202507
0.015197505
0.014222704
0.013278339
0.012364272
0.011479999
0.010624806
0.0097976061
0.0089970624
0.0082217458
0.0074697252
0.0067391396
0.0060269729
0.0053310852
0.0046473048
0.0039744364
0.0033075058
0.002659544
0.0020285527
0.001451979
0.00085572808
0.00084860779
0.0014402974
0.0020160168
0.002649123
0.0032987715
0.0039682824
0.0046438019
0.0053307866
0.0060302946
0.0067468763
0.0074826159
0.0082406707
0.0090229932
0.0098316894
0.010668281
0.011534293
0.012430992
0.013359426
0.014320383
0.015314422
0.016341645
0.017401778
0.018493964
0.019616721
0.020767877
0.021944358
0.023142113
0.024355848
0.02557895
0.026802918
0.028017252
0.029209245
0.03036357
0.031461605
0.032480645
0.033394039
0.034170037
0.034766267
0.035130684
0.035215133
0.03495979
0.03429404
0.033134354
0.031382727
0.036785678
0.037841964
0.038388042
0.038513758
0.038295234
0.037796328
0.037071149
0.03616418
0.035118489
0.033969928
0.032746336
0.031470843
0.030162719
0.028837567
0.027508088
0.026184632
0.024875517
0.023587364
0.022325253
0.021093151
0.019893958
0.018729672
0.01760158
0.01651041
0.015456318
0.014439072
0.013457978
0.012512104
0.011600253
0.010721084
0.0098730727
0.0090545581
0.0082637703
0.0074983739
0.0067563625
0.0060344059
0.0053304923
0.0046396563
0.0039610878
0.0032884518
0.0026366531
0.0019996077
0.0014240524
0.00082487336
0.00080997645
0.0014076164
0.0019825102
0.0026228886
0.0032773759
0.0039534102
0.0046358278
0.0053309476
0.0060398074
0.006767536
0.0075164417
0.0082901313
0.0090905629
0.0099202992
0.010781294
0.011675426
0.01260457
0.013570442
0.014574597
0.015618424
0.016703173
0.017829769
0.018998841
0.020210528
0.021464648
0.022760365
0.024096122
0.025469607
0.026877475
0.02831522
0.029776889
0.031254903
0.032739698
0.034219176
0.03567812
0.037098003
0.038456121
0.039723718
0.040866186
0.041845294
0.042614706
0.043119074
0.043291558
0.04305254
0.050039666
0.049354044
0.048371941
0.047160448
0.045774855
0.044260126
0.042653065
0.040983777
0.039278139
0.03755738
0.035837992
0.034133222
0.032453498
0.030806913
0.0291996
0.02763612
0.026119645
0.024652392
0.023235705
0.021870147
0.020555667
0.019291814
0.018077718
0.016912236
0.015793881
0.014721008
0.013691743
0.012704151
0.011756225
0.01084576
0.0099706304
0.0091287546
0.0083178525
0.0075353145
0.0067788792
0.0060448262
0.0053302214
0.0046303107
0.003943555
0.0032640456
0.0026066122
0.0019636923
0.0013891644
0.00079305491
0.00078046626
0.0013703938
0.0019446663
0.0025885899
0.003248644
0.0039313203
0.004622288
0.005327142
0.0060478122
0.0067889819
0.0075537008
0.0083457737
0.0091674982
0.010022048
0.010911894
0.01183937
0.012807077
0.013817533
0.014873265
0.015976869
0.017130784
0.018337463
0.019599318
0.020918475
0.02229715
0.023737169
0.025240139
0.026807259
0.028439487
0.030137175
0.031900029
0.033726717
0.035615058
0.03756147
0.039560609
0.041605255
0.043685691
0.045788915
0.047898284
0.049993445
0.052048656
0.054031307
0.055899697
0.05760214
0.065590391
0.062795214
0.059978815
0.057174792
0.054408919
0.051699672
0.049060129
0.04649971
0.044025084
0.041640563
0.039348352
0.037149218
0.035043015
0.033028464
0.031103712
0.029266478
0.027514008
0.025843232
0.024250854
0.022733706
0.021288523
0.019912018
0.018600767
0.01735156
0.016161035
0.015026027
0.013943246
0.012909479
0.011921382
0.01097631
0.010071381
0.0092039335
0.0083708817
0.0075693628
0.0067962916
0.0060480682
0.0053213661
0.0046117223
0.0039165727
0.003230859
0.0025683664
0.0019243239
0.001349901
0.00076768409
0.00075554837
0.0013291019
0.0019039354
0.0025471823
0.0032117539
0.0039002998
0.0045992713
0.0053135123
0.006046003
0.00680078
0.0075817068
0.0083926278
0.0092368446
0.010117212
0.011037021
0.011999297
0.013007531
0.01406485
0.015174956
0.016341598
0.017568812
0.018860607
0.020221348
0.021655532
0.023167914
0.024763119
0.026445895
0.02822179
0.030096463
0.032075569
0.034164981
0.036370948
0.03869942
0.041156835
0.043749104
0.046482358
0.049362211
0.052393554
0.055580256
0.058925138
0.062428941
0.06608909
0.069897683
0.073842105
0.082187516
0.077058482
0.072232514
0.06769855
0.063444408
0.059455375
0.055715705
0.052209707
0.04892232
0.045839053
0.042946112
0.040230341
0.037679979
0.035283294
0.033030163
0.030910474
0.028914918
0.027035177
0.025262602
0.023589722
0.022010595
0.020519485
0.019110031
0.017776467
0.016513302
0.015315801
0.014179132
0.013099062
0.012071326
0.011092312
0.010158074
0.0092653814
0.0084107039
0.0075909539
0.0068023916
0.0060411388
0.0053032629
0.0045845354
0.0038814577
0.0031903237
0.0025239636
0.001881999
0.0013065305
0.00074145046
0.00072831511
0.0012859418
0.001862516
0.0025027787
0.0031700852
0.0038636229
0.004570136
0.0052932791
0.0060361831
0.0068032893
0.0075986224
0.0084266741
0.009291127
0.010195482
0.011143184
0.012138085
0.013184375
0.014286126
0.01544795
0.016675029
0.017972604
0.019346306
0.020802307
0.022347806
0.02399083
0.02573803
0.027596508
0.029576704
0.031690725
0.033947983
0.036360395
0.038943219
0.041710171
0.044678618
0.04786591
0.051292648
0.054980754
0.058954608
0.063240653
0.067867982
0.072868108
0.078274301
0.084119883
0.090441898
0.09842367
0.090926421
0.084082215
0.077825808
0.072101357
0.066856515
0.062043346
0.057619261
0.053546354
0.049790632
0.046321886
0.043112524
0.040139366
0.037379436
0.034817175
0.03243302
0.03021244
0.02813746
0.026189919
0.024365812
0.022660787
0.021065643
0.019567447
0.01815709
0.016827591
0.015573389
0.014388155
0.013266523
0.01220296
0.011193431
0.010233216
0.0093179124
0.0084442597
0.0076086984
0.0068068553
0.0060341683
0.0052861407
0.0045586455
0.0038485327
0.0031524558
0.0024841548
0.0018443493
0.001265968
0.00071238623
0.00070672269
0.0012554208
0.0018375105
0.0024782881
0.0031496995
0.0038488235
0.0045622026
0.0052934426
0.00604592
0.0068235283
0.0076305922
0.0084717867
0.0093525317
0.010278097
0.011249431
0.012272245
0.013351404
0.014491737
0.015698359
0.016977938
0.018337179
0.019782863
0.021323585
0.02297225
0.024743002
0.026642074
0.02864734
0.030782011
0.033107734
0.035620625
0.038325167
0.041249053
0.044413441
0.047846411
0.051576519
0.055638145
0.060069394
0.064913811
0.070220437
0.076045355
0.082452136
0.089512343
0.097303884
0.10592072
0.1127224
0.10307697
0.094420339
0.086629287
0.079604651
0.07325653
0.067505321
0.062282888
0.057529741
0.053194075
0.049229974
0.045597522
0.042261332
0.039191554
0.036359742
0.03374279
0.031321759
0.029089495
0.027015679
0.025076698
0.023266992
0.021577409
0.019998606
0.018520854
0.017134659
0.015832211
0.014605895
0.013449176
0.012356267
0.011321569
0.010339175
0.00940403
0.0085153247
0.0076700087
0.0068575491
0.0060741335
0.0053164859
0.0045811726
0.0038632747
0.0031632704
0.0024908198
0.001848867
0.0012634443
0.00071064387
0.00073025996
0.0012925811
0.0018810643
0.0025275174
0.0032045078
0.0039069803
0.0046279608
0.0053659662
0.0061269433
0.0069152523
0.0077352128
0.0085903292
0.0094867144
0.010427245
0.011418186
0.012463091
0.013568313
0.014739285
0.015982355
0.017304286
0.018712916
0.020216522
0.021824692
0.023547832
0.025397538
0.027384676
0.029521277
0.031826818
0.034323929
0.037029323
0.039965627
0.043158674
0.04663927
0.050440892
0.054602918
0.059170711
0.064196528
0.069739532
0.075868209
0.082661276
0.090211997
0.098626976
0.10802326
0.11855026
0.12322178
0.11198961
0.10200557
0.09309657
0.085129757
0.077985014
0.071558684
0.065763096
0.060522698
0.055772
0.051453753
0.047518839
0.043924465
0.040634007
0.037614538
0.034837819
0.032279915
0.029919937
0.027736002
0.025710192
0.023827917
0.022076347
0.020443243
0.018917942
0.01749045
0.016152288
0.014895259
0.013712459
0.0125967
0.011542337
0.010543278
0.0095951456
0.0086925777
0.0078320575
0.007008036
0.0062161497
0.0054501803
0.0047065239
0.0039813713
0.0032744426
0.0025920025
0.0019418834
0.0013459082
0.00077457328
0.00083057161
0.0014291635
0.0020278882
0.002685814
0.0033721937
0.0040836084
0.0048120557
0.0055603345
0.0063310657
0.0071282538
0.0079567169
0.0088217328
0.0097290913
0.010682767
0.011688446
0.012750404
0.013874782
0.015067247
0.016335195
0.0176858
0.019127567
0.020669075
0.022320856
0.024093893
0.026001011
0.028055833
0.030274176
0.032674108
0.035277116
0.038105764
0.041185418
0.044546274
0.048222852
0.052253187
0.05668335
0.061565195
0.066958641
0.072933771
0.079571542
0.08696553
0.095226942
0.10448554
0.11488727
0.12661861
-0.10896504
-0.10018945
-0.092166265
-0.084830707
-0.078120583
-0.071980366
-0.06635867
-0.061208203
-0.056486012
-0.052152807
-0.048172858
-0.044513373
-0.041145062
-0.038041135
-0.035177469
-0.03253207
-0.030085278
-0.027819125
-0.025717585
-0.023765606
-0.021949926
-0.020258366
-0.018680097
-0.017205053
-0.015824341
-0.014529549
-0.013313211
-0.01216813
-0.011088185
-0.010067159
-0.0090999623
-0.0081806983
-0.0073049163
-0.006465763
-0.005659257
-0.0048760552
-0.0041190414
-0.0033770903
-0.0026763684
-0.0019916924
-0.0014041821
-0.0007771895
-0.00077825979
-0.00075580534
-0.00072689756
-0.00071457959
-0.0006944542
-0.00068374842
-0.00066487017
-0.00064586571
-0.00062667642
-0.00060490454
-0.00058315389
-0.00056229697
-0.00053998609
-0.00051676082
-0.00049060713
-0.00046238688
-0.00043196739
-0.00039489358
-0.00035460902
-0.00031087858
-0.00026234273
-0.00021148265
-0.00015562655
-9.9218107e-05
-4.1519125e-05
1.7785684e-05
7.7618018e-05
0.00013635855
0.0001954463
0.00025213978
0.00030817246
0.00036117452
0.00041242935
0.00046085189
0.00050745841
0.00055115589
0.00059261488
0.00063124736
0.00066712538
0.00069975604
0.00072881955
0.00075051593
0.00076952774
0.00077807108
0.00079728147
0.00080792846
0.00083069072
0.00084372989
0.0014725478
0.0014594856
0.0014421721
0.001420816
0.001391819
0.0013586698
0.0013184476
0.001273025
0.0012218539
0.0011655038
0.0011040728
0.0010375023
0.00096555555
0.00088932776
0.00080809708
0.00072324683
0.00063358068
0.00054099152
0.00044352483