/*--------------------------------*- C++ -*----------------------------------*\
| =========                 |                                                 |
| \\      /  F ield         | OpenFOAM: The Open Source CFD Toolbox           |
|  \\    /   O peration     | Version:  v2012                                 |
|   \\  /    A nd           | Website:  www.openfoam.com                      |
|    \\/     M anipulation  |                                                 |
\*---------------------------------------------------------------------------*/
FoamFile
{
    version     2.0;
    format      ascii;
    class       surfaceScalarField;
    location    "238";
    object      phi;
}
// * * * * * * * * * * * * * * * * * * * * * * * * * * * * * * * * * * * * * //

dimensions      [0 3 -1 0 0 0 0];
oriented        oriented;


internalField   nonuniform List<scalar> 
144070
(
0.0038781515
1.1798365e-06
-3.3569455e-06
0.0038800879
1.1867847e-06
-3.123116e-06
0.0038818167
1.1904382e-06
-2.9192886e-06
0.0038833675
1.1929117e-06
-2.7437432e-06
0.0038847654
1.192337e-06
-2.5901588e-06
0.0038860284
1.1898012e-06
-2.4527947e-06
0.0038871719
1.1887505e-06
-2.332259e-06
0.0038882111
1.1875949e-06
-2.2267942e-06
0.0038891598
1.1836133e-06
-2.1323044e-06
0.0038900294
1.1766284e-06
-2.0462885e-06
0.0038908275
1.1717632e-06
-1.9698437e-06
0.0038915603
1.169343e-06
-1.9021347e-06
0.0038922358
1.1644459e-06
-1.839961e-06
0.0038928618
1.1563674e-06
-1.7823395e-06
0.003893443
1.1492521e-06
-1.730523e-06
0.0038939831
1.1441216e-06
-1.6841824e-06
0.0038944853
1.1387535e-06
-1.6409578e-06
0.0038949528
1.1339533e-06
-1.6014013e-06
0.0038953901
1.1279601e-06
-1.5653266e-06
0.0038958009
1.1188058e-06
-1.5295905e-06
0.003896187
1.1107891e-06
-1.4968801e-06
0.0038965487
1.1070029e-06
-1.4687354e-06
0.0038968874
1.1036582e-06
-1.4423555e-06
0.0038972058
1.0950847e-06
-1.4134915e-06
0.0038975066
1.0869372e-06
-1.3876897e-06
0.0038977915
1.0815708e-06
-1.3664401e-06
0.00389806
1.0756598e-06
-1.3441639e-06
0.0038983125
1.0692817e-06
-1.3218642e-06
0.0038985506
1.0636552e-06
-1.3016891e-06
0.003898777
1.0576112e-06
-1.2840284e-06
0.0038989899
1.0553485e-06
-1.2682848e-06
0.0038991728
1.0671012e-06
-1.2499918e-06
0.0038992876
1.1097664e-06
-1.2245604e-06
0.0038992857
1.2123804e-06
-1.2104902e-06
0.0038990441
1.4398609e-06
-1.1982185e-06
0.003898681
1.7590687e-06
-1.3959785e-06
0.0038982012
2.2305934e-06
-1.7508085e-06
0.0038994164
2.2030968e-06
-3.4182902e-06
0.0039006799
2.8490423e-06
-4.1125867e-06
0.0039070382
1.551787e-06
-7.9100251e-06
0.0039139425
1.9382564e-06
-8.8425337e-06
0.0039297393
-3.0632715e-07
-1.5490557e-05
0.0039612204
-6.0701692e-06
-2.5410889e-05
0.0039798809
1.1514695e-06
-1.981195e-05
6.8944926e-05
5.6424728e-05
9.2192829e-06
-5.6809267e-05
-0.0041080146
0.00015043829
-8.9882335e-05
-0.0042541718
2.807257e-05
-0.00010288822
-0.0044570744
9.0787358e-05
-0.00010752979
-0.0045278037
4.0463598e-06
-0.00010973303
-0.0045721774
9.1423675e-06
-0.00010805372
-0.0045239288
-1.1977199e-05
-0.0001052734
-0.0044705796
-7.7990236e-06
-0.0001019295
-0.0044136163
-4.1610217e-06
-9.9629594e-05
-0.0043733128
1.266151e-06
-9.8137901e-05
-0.0043474137
4.4452512e-06
-9.7330909e-05
-0.0043327266
6.3954168e-06
-9.6916634e-05
-0.0043242232
7.4801112e-06
-9.6719057e-05
-0.0043187739
8.1700016e-06
-9.6626332e-05
-0.0043145922
8.7500748e-06
-9.6590692e-05
-0.0043108677
9.368054e-06
-9.6594863e-05
-0.0043072887
1.0104543e-05
-9.6637882e-05
-0.0043038103
1.1007355e-05
-9.67225e-05
-0.0043003421
1.212669e-05
-9.6858418e-05
-0.0042969346
1.3502595e-05
-9.7052921e-05
-0.0042936045
1.522397e-05
-9.7316359e-05
-0.0042903636
1.7362384e-05
-9.7649944e-05
-0.0042871832
1.997658e-05
-9.8050147e-05
-0.0042839895
2.3119923e-05
-9.8505822e-05
-0.0042806938
2.6835778e-05
-9.8999239e-05
-0.0042771394
3.1144705e-05
-9.9492517e-05
-0.0042730856
3.6021898e-05
-9.9941564e-05
-0.0042681792
4.1378319e-05
-0.00010027795
-0.00426193
4.706172e-05
-0.000100428
-0.0042537155
5.2823218e-05
-0.00010027389
-0.0042426755
5.8267011e-05
-9.9660428e-05
-0.0042276496
6.2735669e-05
-9.8339813e-05
-0.0042072267
6.5297294e-05
-9.6041476e-05
-0.0041804682
6.4873699e-05
-9.2651396e-05
-0.0041490298
6.0916365e-05
-8.8725537e-05
-0.0041209576
5.4254462e-05
-8.5660139e-05
-0.004111234
4.6933082e-05
-8.4442575e-05
-0.0041247332
4.1051495e-05
-8.524595e-05
-0.0041564733
3.8548946e-05
-8.7407814e-05
-0.0041974428
3.5717576e-05
-9.0427282e-05
-0.004244849
3.4600892e-05
-9.4029543e-05
-0.0043000611
9.6729823e-06
-9.8349064e-05
-0.0043662902
1.09972e-05
-0.00010184322
-0.0044251695
-7.711887e-05
-0.00010403536
-0.0044764276
-1.8521276e-05
-0.00010228727
-0.0044352138
-0.000140972
-9.8013119e-05
-0.0043671242
-4.8863929e-06
-8.553928e-05
-0.0041689659
-6.5568365e-05
-5.329216e-05
-0.0040261323
5.7493754e-05
-0.0039008457
4.2900847e-06
2.9534246e-05
-0.0040932073
0.00012409129
5.1394205e-05
-0.0043674292
2.860129e-05
8.5500872e-05
-0.0047047617
8.816636e-05
0.00010468306
-0.0049351749
2.4536243e-05
0.00010955625
-0.0051048437
2.6897293e-05
0.00010687838
-0.0051651463
8.9645691e-06
0.00010490046
-0.0051874943
7.2076255e-06
0.00010400936
-0.0051840023
7.42549e-06
0.0001039044
-0.0051766206
9.3104859e-06
0.0001040219
-0.0051714497
1.0987015e-05
0.00010422901
-0.0051708627
1.0567211e-05
0.00010452368
-0.0051748909
7.7375119e-06
0.00010503148
-0.0051811408
-1.1663819e-05
0.00010630399
-0.0051835651
-1.115338e-05
0.00010862264
-0.0051602541
-7.6843884e-05
0.00011157041
-0.0050991387
-1.9662109e-05
0.00010686218
-0.0049289225
-0.00011738143
8.7748921e-05
-0.0046982093
-2.951969e-08
5.3596164e-05
-0.0043609126
-5.5330893e-05
3.1664716e-05
-0.0040867822
6.7533099e-05
-0.0038945268
9.1905869e-06
-5.5480111e-05
-0.0040200328
0.00014756767
-8.7933512e-05
-0.0041635163
2.8086893e-05
-0.0001008117
-0.004363032
8.9947746e-05
-0.00010554629
-0.0044337912
5.5317839e-06
-0.0001078994
-0.0044792745
1.1190407e-05
-0.00010643272
-0.0044345446
-8.8025137e-06
-0.00010385571
-0.0043851329
-3.9606944e-06
-0.00010068936
-0.0043324538
3.3875921e-07
-9.8508891e-05
-0.0042963724
6.3448464e-06
-9.7084344e-05
-0.0042746948
1.0046153e-05
-9.6293455e-05
-0.0042642985
1.2401011e-05
-9.5851315e-05
-0.0042602434
1.372396e-05
-9.558502e-05
-0.004259429
1.4438077e-05
-9.5387608e-05
-0.0042600652
1.4784671e-05
-9.5215017e-05
-0.00426131
1.4905211e-05
-9.5053697e-05
-0.0042628528
1.4813655e-05
-9.4901351e-05
-0.004264525
1.4523734e-05
-9.476074e-05
-0.004266262
1.4084252e-05
-9.464455e-05
-0.0042681014
1.3533087e-05
-9.4562023e-05
-0.0042700267
1.2882215e-05
-9.4511711e-05
-0.004271997
1.2159798e-05
-9.4491007e-05
-0.0042740188
1.1374828e-05
-9.4500759e-05
-0.0042760663
1.0569132e-05
-9.4540346e-05
-0.0042781655
9.8017197e-06
-9.4606488e-05
-0.004280329
9.0677472e-06
-9.4690152e-05
-0.0042824949
8.359576e-06
-9.4783339e-05
-0.0042846595
7.6823215e-06
-9.4884072e-05
-0.0042868301
7.065132e-06
-9.4991683e-05
-0.0042890237
6.5124694e-06
-9.5100094e-05
-0.0042912151
6.004468e-06
-9.5203033e-05
-0.0042933739
5.5247901e-06
-9.5299483e-05
-0.0042954995
5.1022067e-06
-9.5390951e-05
-0.0042975947
4.765981e-06
-9.5482394e-05
-0.0042997317
4.6343175e-06
-9.5582936e-05
-0.0043019958
4.9681371e-06
-9.5713882e-05
-0.0043047221
6.2147349e-06
-9.5927168e-05
-0.0043087508
8.7169934e-06
-9.6336685e-05
-0.0043158865
1.3470353e-05
-9.7119433e-05
-0.0043292644
1.6433836e-05
-9.856426e-05
-0.0043538934
1.9902562e-05
-0.00010079214
-0.004392948
-1.8544482e-06
-0.00010403595
-0.0044486669
2.3951127e-06
-0.00010669321
-0.0045008757
-8.4817562e-05
-0.00010823644
-0.0045481086
-2.3440706e-05
-0.00010592217
-0.0045034165
-0.00014623719
-0.00010119334
-0.004432684
-6.9207163e-06
-8.8215216e-05
-0.004230731
-6.7456651e-05
-5.5298605e-05
-0.0040853441
5.7258072e-05
-0.0039579372
2.1336116e-06
3.0931393e-05
-0.004153645
0.00012260104
5.3139458e-05
-0.0044329037
2.4521771e-05
8.777351e-05
-0.0047768334
8.4009644e-05
0.00010719248
-0.005012927
1.8522581e-05
0.00011201715
-0.0051880266
2.0311678e-05
0.00010911645
-0.00525252
1.7441198e-06
0.00010690133
-0.0052788519
-8.4621623e-08
0.00010579377
-0.0052791148
3.5705377e-07
0.00010550418
-0.0052755204
2.7178201e-06
0.00010546829
-0.005274167
5.0987045e-06
0.00010555768
-0.0052774126
5.5079425e-06
0.00010577624
-0.0052850995
3.5813795e-06
0.00010625414
-0.0052946962
-1.5231421e-05
0.00010755867
-0.0052998691
-1.3690644e-05
0.00010998606
-0.0052780276
-7.9963031e-05
0.00011311265
-0.0052166156
-2.0706785e-05
0.00010846177
-0.0050425685
-0.0001201433
8.9111723e-05
-0.0048056923
1.0385988e-07
5.4408796e-05
-0.0044592446
3.218019e-05
-0.0041774215
-7.188682e-05
7.1603471e-05
-0.0043381757
-2.9153161e-05
0.00013822581
-0.0046849876
4.3375312e-06
0.00020369303
-0.005031217
3.64465e-05
0.00024369008
-0.0052889925
3.000683e-05
0.00025552104
-0.0054403055
2.0310528e-05
0.00025422047
-0.0055089805
7.3735494e-06
0.00025083656
-0.0055285844
5.9054569e-07
0.00024858921
-0.0055277856
-2.1922939e-06
0.0002473186
-0.0055200182
-2.8878654e-06
0.00024667826
-0.0055132678
-3.4906521e-06
0.00024647086
-0.0055099161
-6.2089414e-06
0.00024670573
-0.0055100905
-1.2862395e-05
0.00024755999
-0.00551164
-2.5567107e-05
0.00024937746
-0.0055068301
-3.4933195e-05
0.00025231208
-0.0054825828
-4.0917333e-05
0.00025316443
-0.0054107105
-8.3946254e-06
0.00024097582
-0.0052581328
2.5697798e-05
0.00020084397
-0.0050012061
6.9175186e-05
0.00013548189
-0.0046574581
6.9053606e-05
-0.0043135368
-0.00011293364
0.00014882897
-0.0045261711
-6.5937351e-05
0.00021970947
-0.0049269503
7.2454653e-07
0.0003033229
-0.0053021779
4.1606559e-05
0.00035523434
-0.0055677996
4.7433642e-05
0.00037363041
-0.0057158934
3.4168218e-05
0.00037494801
-0.0057818579
1.9425175e-05
0.0003720947
-0.0058043583
9.7679722e-06
0.00036961221
-0.0058087501
5.1323066e-06
0.00036818282
-0.0058080627
3.0113967e-06
0.0003676953
-0.0058084157
7.6030654e-07
0.00036800235
-0.0058119074
-3.9605576e-06
0.00036910374
-0.0058184074
-1.377496e-05
0.00037115825
-0.0058255747
-2.87798e-05
0.00037428592
-0.0058270262
-4.2420665e-05
0.00037780943
-0.0058093755
-3.7016643e-05
0.00037715706
-0.0057467981
3.462183e-06
0.00035930719
-0.0056001139
6.9662828e-05
0.0003076575
-0.0053336642
0.00011589105
0.00022396903
-0.0049558259
0.00015294395
-0.0045518962
-0.00012947683
0.00014834271
-0.0047288708
-7.3493206e-05
0.0002507034
-0.0051548526
4.6579801e-06
0.00033276872
-0.0055485105
5.0259267e-05
0.00038189375
-0.0058177801
5.3705069e-05
0.00039914994
-0.0059597686
3.5821099e-05
0.00039974034
-0.0060167095
1.7236161e-05
0.00039566334
-0.0060306467
5.5127931e-06
0.00039172257
-0.006027312
-1.9655845e-07
0.00038903731
-0.0060195121
-3.0001839e-06
0.00038760786
-0.0060128619
-5.7428285e-06
0.00038725769
-0.006009306
-1.1357364e-05
0.00038798347
-0.0060089742
-2.2904006e-05
0.00038994366
-0.0060101713
-4.1191272e-05
0.00039312145
-0.0060075498
-5.8651558e-05
0.00039638862
-0.0059886582
-5.4740881e-05
0.00039497003
-0.0059282291
-8.7340124e-06
0.00037698252
-0.0057847437
6.983332e-05
0.00032740646
-0.0055162569
0.00012653168
0.000245279
-0.0051252204
0.00014318568
-0.0047024161
-0.00012809035
0.00013560051
-0.0047938368
-6.3907827e-05
0.00020637682
-0.0052170347
1.9643892e-05
0.00026964411
-0.0056078693
6.5193958e-05
0.00030579722
-0.0058737443
6.5444619e-05
0.00031812628
-0.006013422
4.4414783e-05
0.00031806165
-0.0060701115
2.3931974e-05
0.00031438922
-0.0060860686
1.1504228e-05
0.00031098815
-0.0060868436
5.6555892e-06
0.00030891174
-0.006084745
2.9180987e-06
0.00030812699
-0.0060847535
1.2160491e-07
0.0003084657
-0.0060882823
-5.8242854e-06
0.00030993627
-0.0060952061
-1.8442354e-05
0.00031273521
-0.0061038642
-3.9249781e-05
0.0003169218
-0.0061090015
-6.0741179e-05
0.00032146187
-0.0060979611
-6.0994736e-05
0.0003224581
-0.006044739
-1.5864803e-05
0.00031102347
-0.0059065704
6.7308035e-05
0.00027553874
-0.0056399655
0.00013086079
0.00021254697
-0.0052466019
0.00014172748
-0.0048203392
-0.00012871661
8.3975825e-05
-0.0048352304
-6.0740763e-05
0.00014508652
-0.005254547
2.3258151e-05
0.00018475389
-0.005642161
6.6035609e-05
0.00020471839
-0.0059048549
6.2899087e-05
0.00020959602
-0.0060403208
3.9588989e-05
0.00020710574
-0.0060913239
1.8129496e-05
0.00020275691
-0.0061005729
5.5110553e-06
0.00019902233
-0.0060942585
-2.2385188e-07
0.00019656755
-0.0060850228
-2.7726965e-06
0.00019529488
-0.0060779321
-5.2615727e-06
0.00019498189
-0.0060744909
-1.0894242e-05
0.00019561422
-0.0060748216
-2.3310762e-05
0.00019737806
-0.0060776648
-4.4429637e-05
0.00020033524
-0.0060782232
-6.7257698e-05
0.00020378935
-0.0060641948
-6.9868181e-05
0.00020527312
-0.0060098299
-2.6663301e-05
0.00019936529
-0.0058729032
5.7678805e-05
0.00017853991
-0.0056109044
0.00012619114
0.00013839431
-0.0052257026
7.7250013e-05
-0.0048093014
-0.00012226051
4.1589232e-05
-0.0047762043
-5.2283313e-05
7.6147207e-05
-0.0051885227
3.05008e-05
9.8363089e-05
-0.0055693147
7.0850704e-05
0.00010807727
-0.0058281846
6.6297813e-05
0.00010966216
-0.0059630088
4.2901901e-05
0.00010767199
-0.0060157505
2.2038502e-05
0.00010496166
-0.0060285702
1.0063954e-05
0.00010283182
-0.0060272541
4.8126857e-06
0.00010163299
-0.0060240029
2.6150322e-06
0.00010126335
-0.006023459
3.5898496e-07
0.00010156738
-0.0060267806
-5.0022276e-06
0.00010256383
-0.0060338476
-1.7188508e-05
0.00010445029
-0.0060432606
-3.8401902e-05
0.0001073721
-0.0060501155
-6.2288392e-05
0.00011101793
-0.0060418835
-6.7376035e-05
0.00011408946
-0.0059923533
-2.7455299e-05
0.00011364873
-0.0058589067
5.5013773e-05
0.00010493726
-0.0055993546
0.00012453342
8.3339808e-05
-0.0052162516
4.8959636e-05
-0.0048011465
-0.00011961901
2.0603689e-05
-0.0047468984
-5.0224525e-05
4.2303877e-05
-0.0051629729
2.9956908e-05
5.2518566e-05
-0.0055443654
6.7282475e-05
5.5030821e-05
-0.0058019659
6.0874707e-05
5.3460046e-05
-0.0059339416
3.6932108e-05
5.0566302e-05
-0.0059825189
1.6207689e-05
4.7772974e-05
-0.0059903072
4.528685e-06
4.5648109e-05
-0.0059834007
-4.7688405e-07
4.4275596e-05
-0.0059741324
-2.4881515e-06
4.350711e-05
-0.005967243
-4.4378993e-06
4.3187837e-05
-0.0059640511
-9.3255428e-06
4.3296305e-05
-0.0059646769
-2.078345e-05
4.3941005e-05
-0.0059680372
-4.1150256e-05
4.5222114e-05
-0.0059696455
-6.4597965e-05
4.7012058e-05
-0.0059574869
-7.0468051e-05
4.8739122e-05
-0.0059058696
-3.2712828e-05
4.9066775e-05
-0.0057726164
4.7767049e-05
4.5454762e-05
-0.0055157044
0.00011756484
3.45426e-05
-0.005136546
1.2616376e-05
-0.0047231643
-0.00011353527
3.4786927e-07
-0.0046744593
-4.4558884e-05
1.1597087e-05
-0.0050894567
3.3883122e-05
1.6644419e-05
-0.0054685986
6.9767155e-05
1.766558e-05
-0.0057246699
6.3098496e-05
1.6927746e-05
-0.005857008
3.9765777e-05
1.5778523e-05
-0.0059080139
1.9857068e-05
1.4793094e-05
-0.0059199324
8.8139977e-06
1.4177398e-05
-0.0059183256
4.1929327e-06
1.3954855e-05
-0.0059150277
2.4112818e-06
1.4051681e-05
-0.0059143955
5.6277869e-07
1.4405323e-05
-0.0059174557
-4.1847791e-06
1.5039083e-05
-0.0059240919
-1.5459114e-05
1.6064291e-05
-0.0059330437
-3.5733703e-05
1.7605488e-05
-0.0059397044
-5.9566477e-05
1.9684062e-05
-0.0059319347
-6.6776684e-05
2.2094977e-05
-0.0058837885
-3.132638e-05
2.4165545e-05
-0.0057526168
4.6821202e-05
2.4310261e-05
-0.0054958365
0.00011542355
1.999313e-05
-0.0051145221
8.9932073e-06
-0.0046969236
-0.00011261757
4.7871131e-06
-0.0046587107
-4.4860878e-05
1.0146964e-05
-0.0050783795
3.1885115e-05
1.1564894e-05
-0.005460441
6.6220338e-05
1.0501417e-05
-0.0057171881
5.8613254e-05
8.5068528e-06
-0.0058481536
3.4928312e-05
6.544832e-06
-0.0058962853
1.4976085e-05
4.9337587e-06
-0.0059042901
3.9643921e-06
3.7328433e-06
-0.0058979964
-6.3080785e-07
2.8877204e-06
-0.0058894035
-2.377502e-06
2.3038289e-06
-0.0058830295
-4.0812091e-06
1.9035624e-06
-0.005880097
-8.5403131e-06
1.6624963e-06
-0.0058807204
-1.9308919e-05
1.6080151e-06
-0.0058839071
-3.8883466e-05
1.7829934e-06
-0.005885387
-6.2059049e-05
2.1970981e-06
-0.0058734554
-6.9115632e-05
2.7965242e-06
-0.0058226483
-3.4335083e-05
3.3740377e-06
-0.0056906383
4.2715092e-05
3.2239844e-06
-0.0054346354
0.00011083939
1.069467e-06
-0.0050546975
-4.5283748e-06
-0.0046375468
-0.00010928614
-5.2933659e-06
-0.0046141797
-4.1809691e-05
-3.0665915e-06
-0.0050324055
3.44197e-05
-2.2804954e-06
-0.0054130952
6.8650157e-05
-2.3465474e-06
-0.0056693385
6.1458339e-05
-2.6506436e-06
-0.0058013424
3.8425676e-05
-2.8656646e-06
-0.0058521657
1.906576e-05
-2.9296298e-06
-0.0058642017
8.457008e-06
-2.8428822e-06
-0.0058628552
4.0820749e-06
-2.6194228e-06
-0.0058597535
2.4029496e-06
-2.2779215e-06
-0.0058591191
7.0717306e-07
-1.8228529e-06
-0.0058619246
-3.8130665e-06
-1.2299362e-06
-0.0058680612
-1.4679362e-05
-4.4328547e-07
-0.0058763263
-3.4434377e-05
6.0831543e-07
-0.0058822494
-5.7993064e-05
1.9817563e-06
-0.0058739183
-6.5753081e-05
3.6644017e-06
-0.0058255812
-3.1990547e-05
5.4666977e-06
-0.0056944905
4.3908273e-05
6.7833576e-06
-0.0054374577
0.00011100212
6.7247616e-06
-0.0050546811
4.7082115e-06
-0.0046340188
-0.00011015645
5.5842183e-06
-0.0046191596
-4.351217e-05
6.0696096e-06
-0.0050401515
3.1910981e-05
5.5081456e-06
-0.0054233209
6.5400634e-05
4.1215123e-06
-0.0056806264
5.7594116e-05
2.4294526e-06
-0.0058119311
3.4117937e-05
8.6135517e-07
-0.0058605285
1.4467088e-05
-4.3645221e-07
-0.0058691737
3.6693654e-06
-1.4609864e-06
-0.0058635678
-8.2139178e-07
-2.263709e-06
-0.0058555766
-2.5067116e-06
-2.9008816e-06
-0.0058496442
-4.1737282e-06
-3.4165287e-06
-0.005846964
-8.5091106e-06
-3.8351439e-06
-0.0058476429
-1.9030762e-05
-4.1645399e-06
-0.0058507142
-3.8262417e-05
-4.4005891e-06
-0.0058519802
-6.1186374e-05
-4.5317759e-06
-0.0058398544
-6.8395423e-05
-4.5400196e-06
-0.0057889666
-3.4400793e-05
-4.4259744e-06
-0.0056568905
4.1396713e-05
-4.3213628e-06
-0.0054004347
0.0001084593
-4.4682716e-06
-0.0050193222
-5.1225952e-06
-0.0046006899
-0.00010802739
-4.8994935e-06
-0.0045932383
-4.1188207e-05
-4.9651648e-06
-0.0050118372
3.4402877e-05
-5.1090829e-06
-0.0053930644
6.8313657e-05
-5.2223895e-06
-0.0056495982
6.1130767e-05
-5.2355389e-06
-0.0057817048
3.828534e-05
-5.1096213e-06
-0.0058326206
1.9131606e-05
-4.8708812e-06
-0.0058447784
8.6600208e-06
-4.5437087e-06
-0.0058435271
4.3460098e-06
-4.1376202e-06
-0.0058404319
2.6829481e-06
-3.6501142e-06
-0.0058396789
9.9829584e-07
-3.0675335e-06
-0.0058422327
-3.4849153e-06
-2.3654934e-06
-0.0058479892
-1.4257503e-05
-1.505899e-06
-0.0058557587
-3.3863333e-05
-4.3998801e-07
-0.0058611104
-5.7298547e-05
8.7777854e-07
-0.0058522044
-6.5122291e-05
2.4413797e-06
-0.0058033758
-3.1770147e-05
4.1127679e-06
-0.0056718884
4.3383231e-05
5.5355627e-06
-0.0054144364
0.00010974754
6.3622499e-06
-0.0050311713
6.5469102e-06
-0.0046102879
-0.00010956536
7.3284624e-06
-0.0046044329
-4.3384451e-05
6.9107236e-06
-0.0050250672
3.1594759e-05
5.9798436e-06
-0.0054082465
6.4857149e-05
4.517958e-06
-0.0056657351
5.7014014e-05
2.808557e-06
-0.0057973433
3.3589571e-05
1.1886434e-06
-0.0058463539
1.3995983e-05
-1.987024e-07
-0.0058554663
3.2275823e-06
-1.3417658e-06
-0.0058503176
-1.2565248e-06
-2.2812874e-06
-0.0058427313
-2.9408736e-06
-3.0617805e-06
-0.0058371306
-4.5973709e-06
-3.7186898e-06
-0.0058347035
-8.8924583e-06
-4.2762061e-06
-0.005835553
-1.9326952e-05
-4.7497769e-06
-0.0058387141
-3.8425055e-05
-5.1443644e-06
-0.0058400065
-6.1208664e-05
-5.4506138e-06
-0.0058278753
-6.8351362e-05
-5.640725e-06
-0.0057769865
-3.4457129e-05
-5.6748791e-06
-0.0056449172
4.1046008e-05
-5.550453e-06
-0.0053884279
0.00010778193
-5.2701783e-06
-0.0050072743
-4.913644e-06
-0.004588859
-0.00010761177
-5.1296713e-06
-0.004585857
-4.0913746e-05
-5.5956105e-06
-0.0050040401
3.4559331e-05
-5.9476847e-06
-0.0053850274
6.8467336e-05
-6.0905699e-06
-0.005641396
6.1371833e-05
-6.0344277e-06
-0.0057733754
3.8646321e-05
-5.8012916e-06
-0.0058241931
1.9599751e-05
-5.4411082e-06
-0.0058362566
9.2032089e-06
-4.9848442e-06
-0.0058348866
4.9327943e-06
-4.4426283e-06
-0.0058316317
3.2901449e-06
-3.8096132e-06
-0.0058306709
1.611651e-06
-3.0699607e-06
-0.0058329688
-2.8730449e-06
-2.1990429e-06
-0.0058384252
-1.3645379e-05
-1.1634516e-06
-0.0058458542
-3.3243205e-05
7.7422962e-08
-0.0058508351
-5.6676563e-05
1.5604038e-06
-0.0058415562
-6.4550223e-05
3.2693442e-06
-0.0057924059
-3.1369616e-05
5.0522135e-06
-0.0056607249
4.3467755e-05
6.5622048e-06
-0.005403274
0.00010950585
7.5263852e-06
-0.0050202658
7.9861823e-06
-0.00459993
-0.00010952281
8.6147425e-06
-0.0045959413
-4.3623462e-05
8.1855992e-06
-0.0050159844
3.1072312e-05
7.2193592e-06
-0.0053987866
6.4161286e-05
5.6657835e-06
-0.0056561625
5.624204e-05
3.7873867e-06
-0.005787882
3.2787264e-05
1.9559031e-06
-0.0058371409
1.3178217e-05
3.567191e-07
-0.0058465595
2.4014252e-06
-9.9986525e-07
-0.0058417256
-2.0792462e-06
-2.1305323e-06
-0.0058344408
-3.7438441e-06
-3.1045806e-06
-0.0058291223
-5.3619313e-06
-3.9540366e-06
-0.0058269537
-9.5970049e-06
-4.671135e-06
-0.0058280345
-1.994684e-05
-5.2871401e-06
-0.0058313978
-3.8935637e-05
-5.8065047e-06
-0.0058328658
-6.1597817e-05
-6.2174913e-06
-0.0058208952
-6.863805e-05
-6.4853403e-06
-0.0057701763
-3.4700428e-05
-6.5514753e-06
-0.0056383169
4.0771174e-05
-6.3865789e-06
-0.0053821067
0.00010746527
-5.9883149e-06
-0.0050013254
-5.4767621e-06
-0.0045833796
-0.00010732043
-5.8291478e-06
-0.0045810787
-4.0612434e-05
-6.3021606e-06
-0.0049987891
3.4874491e-05
-6.7967181e-06
-0.0053793461
6.8853041e-05
-7.066705e-06
-0.0056353756
6.1878185e-05
-6.9975018e-06
-0.0057670967
3.928991e-05
-6.6828399e-06
-0.0058177013
2.0370691e-05
-6.2194279e-06
-0.0058295661
1.0080857e-05
-5.6347329e-06
-0.0058279902
5.8949806e-06
-4.9379695e-06
-0.0058245117
4.3150112e-06
-4.1257426e-06
-0.0058233089
2.6760572e-06
-3.1850048e-06
-0.0058253491
-1.792098e-06
-2.0934419e-06
-0.0058305334
-1.2568887e-05
-8.1925484e-07
-0.0058376802
-3.2190734e-05
6.7433441e-07
-0.0058423785
-5.5675024e-05
2.4121693e-06
-0.0058328386
-6.3656131e-05
4.3612819e-06
-0.0057834933
-3.0676798e-05
6.3516583e-06
-0.0056517566
4.3864025e-05
7.9616332e-06
-0.0053944789
0.00010960824
8.9832987e-06
-0.0050119027
9.36478e-06
-0.0045921521
-0.00010976902
1.0069361e-05
-0.0045884485
-4.420436e-05
9.7342147e-06
-0.0050079072
3.015469e-05
8.7899468e-06
-0.0053902462
6.3001205e-05
7.1126947e-06
-0.0056474082
5.4945581e-05
4.9968644e-06
-0.0057791407
3.1425787e-05
2.8876273e-06
-0.0058285569
1.1793159e-05
9.7995158e-07
-0.0058382055
1.0244781e-06
-6.9298377e-07
-0.0058336311
-3.4190172e-06
-2.1338429e-06
-0.0058266134
-5.0176398e-06
-3.3628733e-06
-0.005821558
-6.5428389e-06
-4.4253356e-06
-0.0058196451
-1.0662245e-05
-5.3411284e-06
-0.0058209719
-2.0875498e-05
-6.1237118e-06
-0.0058245697
-3.9710151e-05
-6.7782463e-06
-0.0058262602
-6.2211245e-05
-7.2768624e-06
-0.0058145086
-6.9108864e-05
-7.604444e-06
-0.0057640272
-3.5077626e-05
-7.679028e-06
-0.0056324587
4.0438364e-05
-7.3863767e-06
-0.0053766282
0.00010717461
-6.921147e-06
-0.0049963063
-6.4016724e-06
-0.0045788253
-0.000107013
-6.95118e-06
-0.0045765468
-4.0245112e-05
-7.533442e-06
-0.0049937959
3.5306893e-05
-8.0699837e-06
-0.0053738827
6.9401299e-05
-8.389198e-06
-0.0056295134
6.2592802e-05
-8.2946992e-06
-0.0057609238
4.0193606e-05
-7.9400066e-06
-0.0058112757
2.1460931e-05
-7.3916948e-06
-0.0058229079
1.1343462e-05
-6.6655457e-06
-0.0058210979
7.3109195e-06
-5.7902896e-06
-0.0058173777
5.8611298e-06
-4.7605224e-06
-0.0058159255
4.3239756e-06
-3.5624034e-06
-0.005817712
-7.7062151e-08
-2.1750688e-06
-0.0058226432
-1.0825985e-05
-5.6969038e-07
-0.0058295417
-3.0463766e-05
1.2842198e-06
-0.0058340049
-5.4021312e-05
3.4119052e-06
-0.0058242625
-6.2164937e-05
5.7318457e-06
-0.0057747907
-2.9475028e-05
8.0034447e-06
-0.0056430765
4.4666554e-05
9.7667502e-06
-0.0053860413
0.00011000836
1.0720466e-05
-0.0050039447
1.1015373e-05
-0.0045847898
-0.00011034828
1.2178378e-05
-0.0045811715
-4.5274235e-05
1.1912195e-05
-0.0050000277
2.8610305e-05
1.0940192e-05
-0.0053818699
6.1116396e-05
9.0592364e-06
-0.0056387647
5.2872251e-05
6.5859288e-06
-0.005770442
2.9276987e-05
4.021943e-06
-0.005819949
9.6454197e-06
1.6438185e-06
-0.0058297677
-1.064465e-06
-4.4599724e-07
-0.0058254063
-5.4004782e-06
-2.2620839e-06
-0.0058186225
-6.8526222e-06
-3.8302854e-06
-0.0058138129
-8.2019905e-06
-5.1792406e-06
-0.0058121518
-1.2123993e-05
-6.3315309e-06
-0.0058137305
-2.2124372e-05
-7.3026816e-06
-0.0058175758
-4.0736571e-05
-8.0998339e-06
-0.005819509
-6.3018602e-05
-8.6946191e-06
-0.0058080001
-6.9725059e-05
-9.0714104e-06
-0.0057577797
-3.5558201e-05
-9.1619054e-06
-0.0056265268
4.003574e-05
-8.8085073e-06
-0.0053710936
0.00010684128
-8.2088834e-06
-0.0049912437
-7.5549103e-06
-0.0045742315
-0.00010666283
-8.216769e-06
-0.0045718903
-3.9817373e-05
-8.9428934e-06
-0.0049886694
3.5823368e-05
-9.6156613e-06
-0.0053682801
7.0070674e-05
-1.0018573e-05
-0.0056235126
6.3477071e-05
-9.9453316e-06
-0.0057546087
4.1326808e-05
-9.5555419e-06
-0.0058046973
2.2853184e-05
-8.9061239e-06
-0.0058160825
1.2992023e-05
-8.027881e-06
-0.0058140249
9.2058392e-06
-6.9608427e-06
-0.0058100528
7.9848655e-06
-5.6792873e-06
-0.0058083461
6.6477799e-06
-4.1654976e-06
-0.0058098807
2.4045311e-06
-2.3936164e-06
-0.0058145692
-8.2426176e-06
-3.3389564e-07
-0.0058212413
-2.7849249e-05
2.0373025e-06
-0.0058255082
-5.1473798e-05
4.7083604e-06
-0.0058156249
-5.98271e-05
7.5678444e-06
-0.0057661015
-2.7530903e-05
1.0308489e-05
-0.00563448
4.6053642e-05
1.2353786e-05
-0.0053777447
0.00011080556
1.3446513e-05
-0.0049961774
1.3668512e-05
-0.0045776374
-0.00011139823
1.5436149e-05
-0.0045741778
-4.702342e-05
1.5231665e-05
-0.0049923964
2.6220459e-05
1.4037445e-05
-0.0053736715
5.8282872e-05
1.175676e-05
-0.0056302176
4.9818155e-05
8.6800034e-06
-0.0057617592
2.6177217e-05
5.42478e-06
-0.0058112862
6.6192653e-06
2.373757e-06
-0.0058212291
-3.9326292e-06
-3.3343895e-07
-0.0058170529
-8.0491164e-06
-2.6749626e-06
-0.0058104907
-9.2396269e-06
-4.6739137e-06
-0.005805925
-1.0302518e-05
-6.3640597e-06
-0.0058045203
-1.3926943e-05
-7.7761048e-06
-0.0058063586
-2.3628067e-05
-8.9332722e-06
-0.00581046
-4.1946241e-05
-9.8677325e-06
-0.0058126426
-6.3952128e-05
-1.054355e-05
-0.0058013811
-7.0424638e-05
-1.0930746e-05
-0.0057514242
-3.6092387e-05
-1.0969361e-05
-0.0056204873
3.9598187e-05
-1.0500323e-05
-0.0053654573
0.00010648501
-9.7420296e-06
-0.0049860883
-8.9386696e-06
-0.0045695443
-0.00010631597
-9.7081087e-06
-0.0045672099
-3.9389728e-05
-1.0604659e-05
-0.0049835087
3.6349002e-05
-1.1463921e-05
-0.0053626337
7.0766075e-05
-1.2016302e-05
-0.0056174588
6.441733e-05
-1.2031739e-05
-0.0057482334
4.2562976e-05
-1.1667291e-05
-0.0057980544
2.4412211e-05
-1.0998279e-05
-0.0058091881
1.4888627e-05
-1.0037558e-05
-0.0058068743
1.1449007e-05
-8.8012e-06
-0.0058026364
1.0573456e-05
-7.2634232e-06
-0.005800659
9.5650107e-06
-5.3907098e-06
-0.0058019268
5.6130954e-06
-3.1436433e-06
-0.0058063624
-4.8059428e-06
-4.8176341e-07
-0.0058128089
-2.4281721e-05
2.6207284e-06
-0.0058168932
-4.7916998e-05
6.1374434e-06
-0.005806895
-5.6486819e-05
9.9063512e-06
-0.0057573724
-2.4672904e-05
1.3455777e-05
-0.0056259292
4.8187815e-05
1.6065776e-05
-0.0053695963
0.00011212647
1.7408077e-05
-0.0049886441
1.7618424e-05
-0.0045707785
-0.00011298347
2.0280025e-05
-0.0045673381
-4.9535624e-05
2.0039596e-05
-0.0049848423
2.2908943e-05
1.8472268e-05
-0.0053654512
5.4467208e-05
1.5408994e-05
-0.0056215465
4.5809415e-05
1.1262551e-05
-0.0057528801
2.221569e-05
6.8761665e-06
-0.0058023909
2.865115e-06
2.8068805e-06
-0.0058124466
-7.3788188e-06
-7.5026868e-07
-0.0058084652
-1.1128293e-05
-3.7654763e-06
-0.0058021485
-1.1923582e-05
-6.2738366e-06
-0.005797857
-1.258676e-05
-8.3285911e-06
-0.0057967403
-1.5823632e-05
-9.9820632e-06
-0.0057988704
-2.5158655e-05
-1.1280824e-05
-0.0058032578
-4.3137402e-05
-1.2262824e-05
-0.005805715
-6.4840955e-05
-1.2918925e-05
-0.0057947203
-7.106966e-05
-1.3240227e-05
-0.0057450434
-3.6574212e-05
-1.3151638e-05
-0.0056144356
3.9205024e-05
-1.2498648e-05
-0.0053598175
0.00010616236
-1.1523129e-05
-0.0049809377
-1.0518108e-05
-0.0045648837
-0.00010603387
-1.1366438e-05
-0.0045625594
-3.9060838e-05
-1.2484783e-05
-0.0049783791
3.6743381e-05
-1.3589207e-05
-0.0053570162
7.1302367e-05
-1.4359443e-05
-0.0056114259
6.5179719e-05
-1.4540242e-05
-0.0057418622
4.3616084e-05
-1.4283808e-05
-0.0057913869
2.5802828e-05
-1.3665068e-05
-0.0058022317
1.6655939e-05
-1.2687923e-05
-0.0057996175
1.3628802e-05
-1.13513e-05
-0.0057950642
1.3194759e-05
-9.6025969e-06
-0.0057927613
1.2641237e-05
-7.3772235e-06
-0.005793703
9.1319905e-06
-4.6030025e-06
-0.0057978236
-8.9183431e-07
-1.2083314e-06
-0.0058039822
-2.0068963e-05
2.8580053e-06
-0.0058078323
-4.3575575e-05
7.5840591e-06
-0.0057976952
-5.2288243e-05
1.2717794e-05
-0.0057481816
-2.0977439e-05
1.7623278e-05
-0.0056169587
5.1032537e-05
2.1288013e-05
-0.0053611118
0.00011394971
2.3161782e-05
-0.0049808847
2.3468441e-05
-0.0045637854
-0.00011498324
2.7208034e-05
-0.004559934
-5.2616873e-05
2.6771239e-05
-0.0049765936
1.8959592e-05
2.4454019e-05
-0.0053564188
5.0053181e-05
2.0021243e-05
-0.005612005
4.1337377e-05
1.4192405e-05
-0.0057431385
1.7976936e-05
8.1915361e-06
-0.0057926981
-9.7062359e-07
2.7477102e-06
-0.0058029711
-1.0730417e-05
-1.8740457e-06
-0.0057993075
-1.3970622e-05
-5.6596143e-06
-0.0057933587
-1.4268847e-05
-8.6884205e-06
-0.0057894538
-1.4471162e-05
-1.1060957e-05
-0.0057887238
-1.7296069e-05
-1.2875042e-05
-0.0057912282
-2.627033e-05
-1.4218411e-05
-0.0057959684
-4.3938973e-05
-1.5158362e-05
-0.0057987539
-6.5386846e-05
-1.5726665e-05
-0.0057880685
-7.1428617e-05
-1.5909527e-05
-0.005738702
-3.6831051e-05
-1.561682e-05
-0.0056084405
3.89746e-05
-1.4712918e-05
-0.0053542407
0.00010594201
-1.3469449e-05
-0.0049758466
-1.2236369e-05
-0.0045602589
-0.00010590031
-1.309268e-05
-0.0045580021
-3.896584e-05
-1.4447035e-05
-0.0049733502
3.6809778e-05
-1.5838646e-05
-0.0053515005
7.1410474e-05
-1.688967e-05
-0.0056054902
6.5412087e-05
-1.7313781e-05
-0.0057355754
4.4041158e-05
-1.724548e-05
-0.0057847796
2.647878e-05
-1.6774329e-05
-0.0057952952
1.7642461e-05
-1.5906989e-05
-0.0057923196
1.4992703e-05
-1.4598136e-05
-0.0057873635
1.5005274e-05
-1.276045e-05
-0.0057846188
1.4959753e-05