/*--------------------------------*- C++ -*----------------------------------*\
| =========                 |                                                 |
| \\      /  F ield         | OpenFOAM: The Open Source CFD Toolbox           |
|  \\    /   O peration     | Version:  v2012                                 |
|   \\  /    A nd           | Website:  www.openfoam.com                      |
|    \\/     M anipulation  |                                                 |
\*---------------------------------------------------------------------------*/
FoamFile
{
    version     2.0;
    format      ascii;
    class       volScalarField;
    location    "184";
    object      k;
}
// * * * * * * * * * * * * * * * * * * * * * * * * * * * * * * * * * * * * * //

dimensions      [0 2 -2 0 0 0 0];


internalField   nonuniform List<scalar> 
24787
(
0.34160769
0.33998594
0.3386285
0.33709469
0.33570007
0.33398453
0.33267566
0.33135823
0.32996827
0.32839736
0.32682176
0.32521616
0.32348983
0.32172403
0.32002075
0.31824669
0.31640776
0.31455631
0.31286367
0.31108168
0.30970896
0.30939446
0.30750154
0.30532017
0.30353607
0.30163025
0.2991004
0.29719956
0.29509469
0.29299522
0.29071124
0.2886545
0.28657119
0.28446389
0.28237051
0.28021677
0.27793951
0.27561799
0.27332452
0.27096475
0.26837132
0.26671531
0.26831082
0.26647893
0.26417645
0.26129617
0.25794586
0.25610144
0.25402517
0.2514244
0.24861129
0.24651622
0.24448301
0.24241161
0.24050072
0.23857753
0.2366166
0.23474734
0.23290487
0.2322313
0.23745666
0.24623402
0.251511
0.25245928
0.25526269
0.25153366
0.24704502
0.24247563
0.23785473
0.23335614
0.22894892
0.22467706
0.22052847
0.21650731
0.21260495
0.2591022
0.26068538
0.26228371
0.26389667
0.26552318
0.26716148
0.2688092
0.27046337
0.27212096
0.27377957
0.27543807
0.27709716
0.27875938
0.28042877
0.28211052
0.34199742
0.34018499
0.34075768
0.34399291
0.34495851
0.35086557
0.35216176
0.35963263
0.361373
0.37139547
0.37438297
0.37935639
0.38628976
0.39264194
0.39445453
0.40981296
0.41266797
0.42838974
0.43122784
0.44540833
0.44786314
0.45853802
0.46051355
0.45573644
0.45253563
0.44355172
0.43965907
0.4277751
0.42321532
0.40998454
0.4052865
0.39230806
0.3890773
0.38340385
0.38005645
0.37219731
0.3685347
0.36008257
0.35717923
0.35081817
0.34867582
0.34362348
0.34201853
0.33919927
0.33841005
0.33772811
0.33703614
0.33592518
0.33425829
0.3329701
0.33391577
0.3351796
0.33757438
0.33895991
0.34134139
0.34518655
0.34804317
0.35317325
0.35699457
0.3636789
0.36815173
0.37520259
0.38203521
0.38712477
0.39475123
0.40118712
0.41053798
0.41696384
0.42546925
0.43113747
0.43794526
0.4415272
0.44742309
0.45047503
0.44635583
0.43862145
0.43394419
0.42367587
0.41814153
0.40670015
0.40071347
0.38898789
0.38594436
0.38292234
0.3769806
0.36974805
0.36559958
0.35833164
0.35480218
0.34926291
0.34662543
0.34219845
0.34020432
0.33778528
0.33695699
0.33511852
0.33618871
0.33855531
0.34017564
0.33794248
0.33699267
0.33623041
0.3358214
0.33737331
0.33773644
0.33853717
0.33937712
0.33927653
0.34487842
0.34677267
0.30086079
0.29900093
0.29719044
0.29542443
0.29369657
0.29199947
0.29032522
0.28866598
0.28701426
0.28536357
0.28370908
0.28204756
0.28037767
0.27869976
0.27701557
0.27532779
0.27363956
0.27195416
0.27027465
0.26860372
0.26694361
0.26529609
0.26366247
0.26204365
0.26247383
0.26409491
0.26573081
0.26738068
0.26904322
0.27071664
0.27239865
0.27408645
0.2757769
0.27746658
0.27915212
0.28083065
0.28250027
0.28416049
0.28581258
0.28745976
0.28910688
0.29076041
0.2924279
0.29411716
0.29583611
0.29759206
0.29939135
0.30123884
0.30208258
0.30026167
0.29848628
0.29675164
0.29505155
0.29337878
0.29172553
0.29008399
0.28844659
0.28680686
0.28515992
0.28350258
0.28183372
0.28015404
0.27846582
0.27677231
0.27507727
0.2733844
0.27169709
0.27001828
0.26835038
0.2666952
0.26505403
0.2634277
0.26501252
0.26665071
0.26830363
0.26997048
0.27164999
0.27334029
0.27503886
0.27674255
0.27844757
0.28014972
0.28184469
0.28352858
0.28519854
0.28685347
0.28849436
0.2901244
0.29174851
0.29337315
0.29500591
0.29665452
0.29832654
0.30002891
0.30176754
0.30354691
0.3058353
0.30411083
0.30241942
0.30075718
0.29911883
0.29749797
0.29588753
0.29428002
0.2926679
0.29104469
0.28940535
0.28774663
0.28606765
0.28437002
0.28265745
0.28093485
0.27920741
0.27748005
0.27575708
0.27404197
0.27233742
0.27064534
0.26896699
0.26730309
0.27030498
0.27202015
0.27374937
0.27549205
0.27724696
0.2790121
0.28078458
0.28256044
0.28433468
0.28610136
0.28785399
0.28958617
0.29129288
0.29297202
0.2946246
0.29625413
0.29786598
0.29946667
0.30106355
0.30266362
0.30427311
0.30589742
0.30754074
0.30920585
0.31394977
0.31232597
0.31070877
0.30909744
0.30748972
0.30588192
0.30426925
0.3026457
0.30100431
0.29933838
0.2976418
0.2959101
0.2941414
0.29233791
0.29050639
0.28865551
0.28679365
0.28492816
0.28306506
0.28120892
0.27936294
0.27752922
0.27570899
0.27390277
0.27779386
0.27974547
0.28171189
0.28369273
0.28568676
0.28769159
0.28970362
0.29171749
0.29372574
0.29571909
0.29768652
0.29961589
0.30149818
0.30333255
0.30512398
0.30687925
0.30860598
0.31031132
0.31200136
0.31368019
0.31535024
0.31701234
0.31866561
0.32030742
0.32830576
0.32651868
0.32470406
0.32287001
0.32102203
0.31916344
0.31729536
0.31541656
0.31352238
0.31160461
0.30965237
0.30765382
0.30559609
0.30347488
0.30130205
0.2990951
0.29686895
0.29463543
0.29240382
0.29018072
0.28797046
0.28577572
0.2835979
0.28143746
0.28396187
0.28639885
0.28885768
0.29133806
0.29383793
0.29635387
0.29888056
0.30140956
0.30392884
0.30642287
0.30887121
0.31124719
0.31353512
0.31575302
0.3179324
0.3200949
0.32225739
0.32442816
0.32660933
0.32879846
0.33098934
0.3331737
0.33534128
0.3374787
0.3465164
0.34372857
0.3409528
0.33820077
0.33548066
0.33280179
0.33017441
0.32760402
0.32508661
0.32261382
0.32016171
0.31769765
0.31515363
0.31248232
0.30970592
0.30686666
0.30399223
0.30110289
0.29821502
0.29533986
0.2924848
0.28965525
0.28685385
0.28408146
0.27994163
0.28309159
0.28628079
0.28950891
0.29277034
0.29605867
0.29936434
0.30267141
0.30595432
0.30918382
0.31232042
0.31528824
0.31805032
0.32071629
0.32340976
0.32617186
0.32907368
0.33209266
0.33522673
0.3384706
0.34181255
0.34525436
0.34881143
0.35248533
0.28616662
0.28426061
0.28238005
0.28052336
0.2786889
0.27687505
0.2750803
0.27330332
0.271543
0.2697985
0.26806922
0.26635481
0.26465511
0.26297012
0.26129995
0.25964475
0.2580047
0.25637992
0.25477051
0.26202309
0.26198372
0.26192238
0.26183881
0.26173528
0.26161509
0.2614811
0.26133565
0.2611808
0.26101869
0.26085159
0.25503594
0.25491794
0.25483846
0.25479144
0.25640085
0.25644762
0.25652657
0.25664381
0.2568035
0.25700751
0.25725571
0.26113595
0.26130082
0.26146264
0.26162499
0.26178962
0.26195709
0.2621269
0.26229781
0.26246798
0.26263534
0.26279768
0.26295277
0.26309848
0.26323276
0.26335327
0.26345711
0.26354098
0.26360251
0.26364195
0.26527559
0.26523612
0.26517446
0.26509036
0.26498625
0.26486546
0.2647309
0.26458494
0.26442962
0.26426703
0.26409937
0.26392885
0.26375751
0.26358717
0.26341901
0.26325355
0.26309025
0.2629273
0.26276123
0.26258679
0.26239699
0.26218394
0.26193999
0.26165978
0.26134196
0.26099076
0.2606159
0.26023121
0.25985223
0.25949332
0.25916557
0.25887619
0.25862916
0.25842616
0.2582673
0.25815071
0.25807218
0.25802562
0.25966567
0.25971206
0.25979023
0.25990629
0.26006445
0.26026656
0.26051256
0.26080081
0.26112747
0.26148549
0.26186389
0.26224837
0.26262337
0.26297494
0.26329332
0.2635743
0.26381921
0.26403337
0.26422436
0.26440006
0.2645674
0.26473153
0.26489585
0.26506221
0.26523113
0.2654021
0.26557392
0.26574484
0.26591284
0.26607569
0.26623126
0.26637745
0.26651226
0.26663329
0.26673762
0.26682191
0.26688367
0.26692315
0.26858328
0.26854383
0.26848203
0.26839759
0.26829307
0.26817182
0.26803681
0.26789039
0.26773458
0.26757144
0.26740307
0.2672317
0.26705933
0.26688767
0.26671792
0.26655057
0.26638513
0.26621978
0.26605117
0.26587422
0.26568212
0.26546707
0.26522153
0.26494018
0.2646217
0.26427023
0.26389558
0.26351167
0.26313412
0.26277718
0.26245167
0.26216451
0.26191947
0.26171813
0.26156059
0.26144499
0.26136711
0.26132086
0.26299102
0.26303714
0.26311475
0.26322994
0.26338693
0.26358754
0.26383166
0.26411766
0.26444188
0.26479749
0.26517377
0.26555657
0.26593026
0.26628099
0.26659897
0.26688017
0.26712594
0.26734164
0.26753471
0.26771283
0.2678827
0.26804933
0.26821597
0.26838438
0.26855503
0.26872746
0.26890045
0.26907233
0.26924108
0.26940454
0.2695606
0.26970722
0.26984241
0.26996385
0.27006852
0.27015305
0.27021487
0.27025426
0.27193383
0.27189455
0.27183275
0.27174817
0.27164339
0.27152183
0.27138648
0.27123968
0.2710834
0.27091961
0.27075044
0.27057802
0.27040434
0.27023108
0.27005945
0.26988991
0.26972202
0.26955408
0.26938297
0.26920376
0.26900994
0.26879394
0.26854843
0.268268
0.26795127
0.26760211
0.26723018
0.2668492
0.26647476
0.26612092
0.26579826
0.26551354
0.26527042
0.26507055
0.26491411
0.26479932
0.26472198
0.26467598
0.26637565
0.26642148
0.26649853
0.26661287
0.26676871
0.26696774
0.26720971
0.26749287
0.26781356
0.26816506
0.26853687
0.26891509
0.26928426
0.26963082
0.26994538
0.27022424
0.27046889
0.27068477
0.27087906
0.27105922
0.27123152
0.27140075
0.27156991
0.27174063
0.27191329
0.27208744
0.27226183
0.27243483
0.27260442
0.27276853
0.27292503
0.27307197
0.2732074
0.27332904
0.27343388
0.27351845
0.27358019
0.27361933
0.27530769
0.27526872
0.27520711
0.27512261
0.27501777
0.27489614
0.27476068
0.27461367
0.274457
0.2742926
0.27412259
0.27394902
0.2737739
0.27359886
0.27342514
0.27325323
0.27308281
0.27291234
0.27273896
0.27255809
0.27236366
0.27214845
0.27190538
0.27162905
0.27131781
0.2709751
0.27060996
0.27023566
0.26986747
0.26951911
0.26920097
0.26891977
0.26867924
0.26848123
0.26832612
0.26821232
0.26813564
0.26809
0.26981918
0.26986455
0.26994077
0.27005389
0.27020806
0.27040477
0.27064348
0.27092217
0.271237
0.27158124
0.27194458
0.27231354
0.27267313
0.27301051
0.27331707
0.27358974
0.27383034
0.27404424
0.27423834
0.27441963
0.27459389
0.27476549
0.2749371
0.27511015
0.27528489
0.27546079
0.27563661
0.27581071
0.27598109
0.27614571
0.27630248
0.27644948
0.27658486
0.2767064
0.27681112
0.27689549
0.2769569
0.27699565
0.27868005
0.27864158
0.27858045
0.27849632
0.27839182
0.27827052
0.27813534
0.27798849
0.27783175
0.27766702
0.27749637
0.27732185
0.27714542
0.27696875
0.27679309
0.27661902
0.27644635
0.27627383
0.27609896
0.27591766
0.27572445
0.27551265
0.27527557
0.27500787
0.27470751
0.27437718
0.27402488
0.2736629
0.27330584
0.2729669
0.27265629
0.27238078
0.2721444
0.27194936
0.2717964
0.27168416
0.27160854
0.27156353
0.27332366
0.2733682
0.27344303
0.27355413
0.27370555
0.27389847
0.27413193
0.27440345
0.27470881
0.27504115
0.27539034
0.27574352
0.27608662
0.27640805
0.2767005
0.27696179
0.2771942
0.277403
0.27759464
0.27777544
0.27795054
0.27812368
0.27829715
0.27847203
0.27864842
0.27882569
0.27900254
0.27917732
0.27934806
0.27951272
0.27966925
0.27981578
0.27995056
0.28007146
0.28017558
0.28025933
0.28032009
0.28035823
0.28202844
0.2819907
0.28193044
0.28184722
0.28174367
0.2816234
0.28148928
0.28134333
0.28118726
0.28102292
0.28085236
0.28067759
0.28050057
0.28032299
0.28014617
0.27997079
0.27979687
0.27962351
0.27944869
0.27926899
0.27907969
0.27887486
0.27864837
0.278395
0.27811222
0.27780164
0.27746973
0.27712722
0.27678755
0.27646319
0.27616418
0.27589749
0.27566763
0.27547733
0.27532784
0.27521815
0.27514432
0.27510039
0.2768948
0.27693797
0.27701058
0.27711854
0.27726568
0.27745281
0.27767841
0.27793941
0.27823101
0.27854606
0.27887462
0.27920463
0.27952345
0.2798213
0.2800927
0.28033665
0.280556
0.28075582
0.28094195
0.28111985
0.2812938
0.28146685
0.28164075
0.28181618
0.28199303
0.28217052
0.28234731
0.2825217
0.28269174
0.2828554
0.28301067
0.28315571
0.28328887
0.28340821
0.28351094
0.28359345
0.28365306
0.28369031
0.28534518
0.28530853
0.28524972
0.28516817
0.28506656
0.2849485
0.28481668
0.28467295
0.28451892
0.28435638
0.28418736
0.28401384
0.28383778
0.2836609
0.28348457
0.28330965
0.28313638
0.28296427
0.28279188
0.28261655
0.28243446
0.28224062
0.28202958
0.28179636
0.28153786
0.28125436
0.2809503
0.28063435
0.28031829
0.28001371
0.27973051
0.279476
0.27925532
0.27907189
0.27892754
0.27882166
0.27875051
0.27870824
0.28054221
0.28058341
0.28065286
0.28075634
0.28089749
0.28107671
0.28129188
0.28153924
0.2818133
0.2821065
0.28240902
0.28270971
0.28299776
0.28326565
0.28351007
0.28373146
0.28393322
0.28412018
0.28429741
0.28446939
0.28463949
0.28480993
0.28498188
0.28515562
0.28533078
0.28550641
0.28568113
0.28585317
0.28602062
0.28618148
0.28633377
0.28647569
0.28660571
0.28672208
0.28682221
0.28690254
0.28696037
0.28699632
0.28864855
0.28861341
0.28855675
0.28847794
0.28837969
0.28826548
0.28813778
0.28799824
0.28784833
0.2876898
0.28752461
0.28735475
0.28718213
0.28700851
0.28683531
0.28666355
0.28649371
0.28632573
0.28615873
0.28599086
0.28581924
0.28563989
0.28544812
0.28523924
0.2850096
0.284758
0.28448664
0.28420184
0.28391342
0.28363209
0.28336762
0.28312787
0.28291865
0.28274408
0.28260654
0.28250579
0.2824383
0.28239833
0.28427825
0.28431683
0.28438212
0.28447981
0.28461337
0.28478291
0.28498583
0.28521773
0.28547246
0.2857419
0.28601625
0.28628522
0.28653993
0.28677521
0.28698999
0.28718614
0.28736759
0.28753886
0.28770425
0.28786729
0.28803042
0.28819512
0.28836198
0.28853091
0.28870129
0.28887206
0.28904176
0.28920864
0.28937079
0.28952626
0.28967311
0.28980964
0.28993442
0.29004593
0.29014186
0.29021882
0.2902741
0.29030834
0.29198318
0.29194995
0.29189626
0.2918215
0.29172837
0.29162011
0.29149886
0.29136601
0.29122292
0.29107126
0.29091293
0.29074988
0.29058395
0.2904169
0.29025021
0.29008498
0.28992194
0.28976132
0.28960277
0.28944516
0.28928641
0.28912344
0.2889523
0.28876858
0.28856817
0.28834852
0.2881097
0.28785581
0.28759488
0.28733689
0.28709169
0.28686765
0.2866712
0.28650699
0.28637773
0.2862834
0.28622056
0.28618353
0.29137284
0.29152618
0.29168198
0.29184041
0.29200109
0.29216322
0.29232566
0.29248695
0.29264535
0.29279903
0.2929461
0.2930847
0.29321319
0.29333029
0.29343475
0.29352462
0.29359684
0.29364874
0.29368087
0.29540934
0.29537837
0.29532845
0.29525911
0.29517294
0.29507281
0.29496045
0.29483697
0.29470356
0.2945618
0.29441352
0.29426055
0.29410468
0.29394762
0.29379082
0.29363543
0.2934823
0.29562537
0.29577625
0.29592731
0.29607713
0.29622404
0.2963663
0.29650214
0.29662977
0.29674769
0.2968548
0.29695014
0.29703221
0.29709839
0.29714619
0.29717593
0.29898698
0.29895848
0.29891291
0.2988501
0.29877242
0.29868222
0.29858075
0.29846878
0.29834733
0.29821783
0.29808199
0.29794155
0.29779815
0.29765343
0.30024279
0.30035791
0.30046375
0.30055941
0.3006443
0.30071744
0.30077676
0.30082008
0.30084735
0.30122834
0.29938033
0.29758046
0.29582391
0.29410438
0.29241456
0.29074654
0.28909251
0.28744497
0.28579742
0.28414499
0.28248447
0.28081456
0.27913577
0.27745001
0.27576016
0.27406955
0.27238161
0.27069951
0.26902603
0.26736343
0.26571352
0.26407759
0.2624565
0.2695188
0.27302801
0.2765919
0.28021162
0.28387597
0.28757777
0.29130483
0.29503543
0.29873348
0.3023612
0.30585249
0.3091007
0.31204412
0.31485037
0.31768885
0.32049009
0.32380436
0.3271212
0.33057449
0.33409919
0.33776836
0.34170589
0.3460077
0.35052904
0.35513685
0.35984975
0.30207924
0.30025782
0.29848189
0.29674669
0.29504607
0.2933728
0.29171909
0.29007712
0.28843938
0.28679934
0.2851521
0.28349447
0.28182529
0.28014531
0.2784568
0.27676304
0.27506775
0.27337465
0.27168716
0.2700082
0.26834016
0.26668487
0.26504361
0.26341723
0.25193532
0.25572884
0.2595912
0.26352541
0.26751885
0.27156519
0.27565278
0.27975926
0.28383231
0.28779426
0.29159234
0.29536892
0.29918572
0.30310965
0.3070997
0.30519685
0.30644759
0.3081053
0.30974645
0.31184786
0.31381405
0.31587792
0.31749685
0.31913198
0.32039189
0.32195361
0.32345305
0.32526565
0.32712572
0.33043201
0.33343204
0.33639081
0.33891726
0.34132782
0.34306781
0.35275874
0.35556107
0.35744564
0.35771494
0.36110752
0.30355602
0.30177619
0.30003704
0.29833414
0.29666161
0.29501251
0.29337927
0.29175418
0.29012974
0.28849938
0.28685812
0.28520279
0.2835324
0.28184807
0.28015264
0.27845004
0.2767446
0.27504053
0.27334161
0.27165103
0.26997127
0.26830422
0.26665114
0.2650128
0.21555312
0.21965904
0.22390307
0.22830343
0.23285697
0.23756778
0.24242531
0.24741661
0.25240209
0.25721799
0.26130843
0.26393515
0.26313274
0.25932342
0.25046153
0.25025211
0.25077465
0.252117
0.25395024
0.25597709
0.25809529
0.26022362
0.26232613
0.26438917
0.26634552
0.27002762
0.27262322
0.27600061
0.27809806
0.28055787
0.28240048
0.28510939
0.28713915
0.290041
0.29202494
0.29465253
0.29648229
0.2989556
0.3005579
0.30253177
0.30386373
0.30559324
0.30663623
0.30791881
0.30880291
0.31005133
0.31088466
0.31192865
0.31271124
0.31382198
0.31455792
0.31543793
0.31601877
0.31673294
0.31705052
0.31730331
0.31731287
0.31732242
0.31711463
0.31681624
0.3163355
0.31578367
0.31509979
0.31434607
0.31358834
0.3128679
0.312183
0.31165031
0.31115842
0.31083421
0.31061727
0.31064594
0.31068904
0.3110562
0.31149386
0.31218721
0.31283622
0.31383582
0.3146587
0.31569064
0.31653729
0.31756191
0.31833219
0.3192335
0.31989105
0.32069266
0.32133009
0.32217892
0.32299555
0.32417605
0.32545989
0.32721939
0.32879596
0.33085511
0.33500859
0.33736805
0.33977581
0.34159963
0.34355984
0.3451597
0.34705255
0.34876076
0.3507982
0.35266337
0.35509149
0.35751318
0.36065805
0.36367482
0.3675279
0.37118005
0.37582319
0.37993472
0.38481552
0.38891459
0.39345361
0.39641456
0.39864356
0.39898968
0.39720836
0.39311201
0.38467084
0.37515967
0.36205993
0.35586998
0.35076633
0.35304438
0.36872697
0.3788943
0.38721553
0.39155434
0.39353529
0.39337577
0.39150064
0.38862782
0.38451499
0.38047014
0.3759716
0.37187542
0.36747412
0.3637487
0.36006356
0.35699546
0.35402504
0.35162229
0.34923396
0.34720261
0.34520284
0.34344859
0.34160748
0.33997021
0.33804356
0.33611585
0.33359476
0.33088965
0.3281584
0.32609217
0.32428838
0.32253916
0.3212136
0.32006165
0.31923041
0.31843793
0.3178033
0.3170306
0.31632459
0.31545539
0.31463324
0.31363662
0.31275486
0.31178754
0.3109127
0.31000011
0.30938394
0.3087447
0.30824049
0.30792035
0.30785714
0.30782002
0.30801137
0.30836182
0.30884076
0.30935084
0.31001837
0.31071647
0.31144326
0.31220324
0.31285154
0.3133822
0.31384498
0.31419543
0.31443133
0.31445404
0.31442793
0.31422277
0.31388811
0.31321973
0.31262899
0.31180669
0.31100331
0.30994475
0.30915549
0.30820971
0.30739906
0.30626282
0.30537092
0.30420219
0.30314106
0.30152668
0.30018187
0.29836388
0.29674642
0.29444928
0.29257647
0.29011286
0.28806926
0.28532604
0.28324686
0.28066772
0.27875096
0.27631495
0.27411721
0.27086048
0.26810813
0.26602055
0.2639491
0.26182385
0.25976849
0.25779039
0.256001
0.25469345
0.25414676
0.25770769
0.25742706
0.25790688
0.25918493
0.26094287
0.26286583
0.26488478
0.26693984
0.26890333
0.2720733
0.27006655
0.26801146
0.2660543
0.26417497
0.26247765
0.26120845
0.2607149
0.26393244
0.26339613
0.26382772
0.26506417
0.26670046
0.26853844
0.27046571
0.27244837
0.27439525
0.27682355
0.27486898
0.27292737
0.27107267
0.26926734
0.2676989
0.2664908
0.26604904
0.26907441
0.26827974
0.26867607
0.26982199
0.2713412
0.27312649
0.27500107
0.27692587
0.27883387
0.28129966
0.27933123
0.27738016
0.27550951
0.27373661
0.2722017
0.27108207
0.27062698
0.27359315
0.27268135
0.27312163
0.27425294
0.27581765
0.27759257
0.27953112
0.28147358
0.28342619
0.28601968
0.28397387
0.28198276
0.28002092
0.27823196
0.27664269
0.27545065
0.27495161
0.27785986
0.27685144
0.27735199
0.27853204
0.28015902
0.28199848
0.28402299
0.28606226
0.28810378
0.29042895
0.28831334
0.28619016
0.28417434
0.28228576
0.28062002
0.27944802
0.27891057
0.28174065
0.28058796
0.2810813
0.28227133
0.28399814
0.28594775
0.28802554
0.29020507
0.29233101
0.29448599
0.29225968
0.28999925
0.28788629
0.28588457
0.28413189
0.28286304
0.28233582
0.28508374
0.28363527
0.28411052
0.28553172
0.28732328
0.28936763
0.29156419
0.29386071
0.29613301
0.29783905
0.29548236
0.2931529
0.29095608
0.28888307
0.28709017
0.28562799
0.28510434
0.28782054
0.28615987
0.28671654
0.28818914
0.29002072
0.29215109
0.294427
0.29680079
0.29920459
0.30069689
0.29824014
0.29582497
0.29350721
0.29132456
0.2894415
0.28796891
0.28737384
0.29007761
0.28819267
0.28876185
0.29025113
0.29220288
0.29440745
0.29680504
0.2992637
0.30173944
0.30280768
0.30030936
0.2978241
0.29544473
0.29327311
0.2913056
0.28981276
0.28921494
0.29193873
0.28988239
0.29043487
0.29197401
0.29399894
0.29617284
0.29857174
0.30116984
0.30374511
0.30486402
0.30225868
0.29958723
0.29719272
0.29498943
0.29292303
0.29136713
0.29081709
0.29363677
0.29145131
0.29200757
0.29359769
0.29561103
0.2978614
0.30039202
0.30304891
0.30561453
0.30642299
0.30390143
0.30130565
0.29876006
0.29651137
0.29458206
0.29299273
0.29237355
0.29527028
0.29301994
0.29355867
0.29517658
0.29719265
0.29941767
0.30196552
0.30466652
0.30729657
0.30834424
0.3056726
0.30291052
0.30039105
0.29814629
0.29606082
0.29446696
0.29394918
0.29693769
0.29455489
0.29507402
0.29664755
0.29871834
0.30106347
0.30364957
0.30639155
0.30908034
0.30980699
0.30710731
0.30442925
0.3018822
0.29950285
0.29747395
0.29593208
0.29537578
0.29839138
0.29586109
0.29638453
0.29792691
0.29994818
0.30232515
0.30492819
0.30765229
0.31042541
0.31105907
0.30829277
0.30556215
0.30295051
0.30058924
0.2985538
0.29700286
0.29648436
0.29948934
0.29670413
0.29718456
0.29876149
0.30082977
0.30320551
0.30586281
0.30862285
0.31140201
0.31157861
0.30882105
0.30610383
0.30353304
0.30117193
0.29912201
0.29756515
0.29707254
0.30012642
0.29705837
0.29752146
0.29904733
0.30107103
0.30347519
0.30606123
0.30879317
0.31162997
0.3116165
0.30879821
0.3060521
0.30349818
0.30110832
0.29908131
0.29757472
0.29712843
0.30020003
0.29684477
0.29724565
0.29873302
0.30074454
0.30310889
0.30576533
0.30858431
0.31136707
0.31095202
0.30825468
0.30547336
0.3028319
0.30055147
0.29852921
0.29705282
0.2966858
0.29984088
0.29621581
0.29653384
0.29799314
0.30002405
0.30232997
0.30493613
0.3077876
0.31057719
0.31011031
0.30728199
0.30443686
0.30197683
0.29968185
0.29762511
0.29618829
0.29591217
0.29923006
0.2953217
0.29554245
0.29695019
0.29893725
0.30124502
0.30378686
0.3066248
0.30947063
0.30866425
0.30587018
0.30316216
0.30066403
0.29839472
0.29645892
0.29508184
0.29489946
0.29837021
0.29423951
0.29438148
0.29571509
0.29761227
0.2998901
0.3024036
0.30515529
0.30794247
0.30722447
0.30452044
0.30181962
0.29937524
0.29712861
0.29522667
0.29393912
0.29384914
0.29754938
0.29322641
0.29325935
0.29452731
0.29640653
0.29864835
0.30113076
0.30385404
0.3065724
0.30605018
0.30337206
0.300703
0.29828107
0.29606178
0.29419777
0.29295854
0.29295985
0.29693497
0.29246463
0.29245484
0.29368022
0.29553979
0.29775844
0.30021049
0.30293784
0.30561958
0.30523667
0.30257628
0.29991916
0.2974858
0.2953089
0.29352317
0.29235684
0.29242456
0.29679336
0.29219492
0.29206125
0.29321489
0.29499048
0.29717535
0.2996591
0.3023455
0.30505534
0.30507486
0.30237015
0.29973343
0.29729374
0.29510885
0.29335725
0.29220484
0.29235635
0.296986
0.29237927
0.29220236
0.29336443
0.29508533
0.29731854
0.29973552
0.30243354
0.30521055
0.30553721
0.30278562
0.3001035
0.29776215
0.29551597
0.29384245
0.29271224
0.29292417
0.29783012
0.29324658
0.2930578
0.29415217
0.29580244
0.29809878
0.3005415
0.30319253
0.30598665
0.30654054
0.303773
0.30120192
0.29880949
0.29654174
0.29485116
0.2938179
0.29405447
0.29924486
0.29466544
0.29434797
0.29533528
0.29719179
0.29941039
0.30176713
0.30451907
0.3073133
0.30821998
0.305432
0.30266037
0.30030143
0.29812335
0.29625384
0.29527819
0.2956793
0.30119747
0.29638986
0.29598598
0.29699246
0.29883556
0.3010456
0.30349531
0.30628062
0.30903998
0.30991747
0.30718098
0.3044692
0.30206632
0.29986128
0.29805679
0.29704937
0.29745968
0.30330441
0.29824399
0.29783608
0.29883511
0.30064267
0.3028768
0.30532471
0.30805778
0.31084765
0.3118155
0.30900852
0.30631062
0.30385823
0.30161823
0.29986301
0.29888488
0.29931167
0.30528527
0.30002611
0.29959698
0.30058747
0.30235176
0.30461822
0.30710923
0.30985028
0.312676
0.31348339
0.3106967
0.30801076
0.3055509
0.30331416
0.30152199
0.30050276
0.30093485
0.30684641
0.30154821
0.30110555
0.30214457
0.30396651
0.30619591
0.3087163
0.31146385
0.3142334
0.3149419
0.31220208
0.30948641
0.30701167
0.30481854
0.30299732
0.30196595
0.30245468
0.30839622
0.30310123
0.30258069
0.30359748
0.30540593
0.3076139
0.31011322
0.31283887
0.31559988
0.31640407
0.31365542
0.31096052
0.30853944
0.30631487
0.3045125
0.30350966
0.30398059
0.31002029
0.30480882
0.3043565
0.30534939
0.30712598
0.30936772
0.31181042
0.31451826
0.31729004
0.31843554
0.31571711
0.3130501
0.31063393
0.3083973
0.30662216
0.30561686
0.30605286
0.31227524
0.30724874
0.30679961
0.30781921
0.30959319
0.31183408
0.31430683
0.31699155
0.31975794
0.32143168
0.31867563
0.31600271
0.31351781
0.31128285
0.30948459
0.30842472
0.30887345
0.3152146
0.31041108
0.31001693
0.3111122
0.3129307
0.31517654
0.31773457
0.32043856
0.32321253
0.32527632
0.32248932
0.31974774
0.31721627
0.3149775
0.31314887
0.31201703
0.31233281
0.31874258
0.31412058
0.31380426
0.31496251
0.31685799
0.31914538
0.32173964
0.32457216
0.32744528
0.33051519
0.33289483
0.32975426
0.32679122
0.32388357
0.32125595
0.31890151
0.31692653
0.31576285
0.31603657
0.3223198
0.31774252
0.31751849
0.31871028
0.32071643
0.32312755
0.32578556
0.32871514
0.33170873
0.33486548
0.33679936
0.33366846
0.33064747
0.32771457
0.32505799
0.32265823
0.32068511
0.31946571
0.31964415
0.32580426
0.32128551
0.32108694
0.32232851
0.32427357
0.32669446
0.32937861
0.33230993
0.33535909
0.33850417
0.34032476
0.33720425
0.33414511
0.33121245
0.32852447
0.32605714
0.32408516
0.3228896
0.3230617
0.32918804
0.32472501
0.32453038
0.32566601
0.32776183
0.33027465
0.33291007
0.3359391
0.33902559
0.34207321
0.34404167
0.34098877
0.33795966
0.33494319
0.33226219
0.32976559
0.32764446
0.32645271
0.32660101
0.33288299
0.32841869
0.32822626
0.32957979
0.33167035
0.33409383
0.33690304
0.33990896
0.34288908
0.34608585
0.34841675
0.34519147
0.34221999
0.33922809
0.33639712
0.33396632
0.3318584
0.33042856
0.33052816
0.33689352
0.33249901
0.33255661
0.33402839
0.33622464
0.33874572
0.34152375
0.34452545
0.34763284
0.35088558
0.35379839
0.35053042
0.34736685
0.34435059
0.34156984
0.33895407
0.33660254
0.33449705
0.3340083
0.3401757
0.33265959
0.33196442
0.3331756
0.33590716
0.33842671
0.34141953
0.34437755
0.34750106
0.35033424
0.35310563
0.35504944
0.35632902
0.35622808
0.35508235
0.35186155
0.34685995
0.33915213
0.32968937
0.31820822
0.30801516
0.30494211
0.29965733
0.30024949
0.31353989
0.32539285
0.33492986
0.34250972
0.34770817
0.35105415
0.35249187
0.35271224
0.35159711
0.34979712
0.34729239
0.34462918
0.34174805
0.33881092
0.33567834
0.3343012
0.33500177
0.34395022
0.33790676
0.33735725
0.34019555
0.34079753
0.34966549
0.34348414
0.34296145
0.34541776
0.34611937
0.35496886
0.34817176
0.34773002
0.34935781
0.34973123
0.35777124
0.35033752
0.35025195
0.34975027
0.34979999
0.35659406
0.34796863
0.34808253
0.34466253
0.34469027
0.35076222
0.33960455
0.33944484
0.33211227
0.33262682
0.33788585
0.32353588
0.32218706
0.31028399
0.30788061
0.31709876
0.32443099
0.33497744
0.35627223
0.36473384
0.37096054
0.37364962
0.37162109
0.3663153
0.36067335
0.35678723
0.35352816
0.34951148
0.34588231
0.34258362
0.33914283
0.33568506
0.33226514
0.32936735
0.3272759
0.32582151
0.32433643
0.32269541
0.32008009
0.31743595
0.31488839
0.31292669
0.31144804
0.31070934
0.31044033
0.31070345
0.31107166
0.31151787
0.31188784
0.31197979
0.31164922
0.31080931
0.3094393
0.30782725
0.30595848
0.30418669
0.30236984
0.30042881
0.29809761
0.29525905
0.29184738
0.28800332
0.28360411
0.27906855
0.27358115
0.26716933
0.27038503
0.27038554
0.27182303
0.2766794
0.27714032
0.28232139
0.28166106
0.28066564
0.28620009
0.28705505
0.29126647
0.29030461
0.28840001
0.29413884
0.29524561
0.2985906
0.29750826
0.29524489
0.30041845
0.30145836
0.30383345
0.30292663
0.30078946
0.30506056
0.30587358
0.30776739
0.30709385
0.30551239
0.3090745
0.30966904
0.31162542
0.31109266
0.30987974
0.31292903
0.31342397
0.31492575
0.31442817
0.31321061
0.31554591
0.31599546
0.31650223
0.31608674
0.31487185
0.31635144
0.3166644
0.31650412
0.31621493
0.31528913
0.31610742
0.3163034
0.31625785
0.31621844
0.31571294
0.31631551
0.3163546
0.31692355
0.31680568
0.31695661
0.31791456
0.31804639
0.31982625
0.3195401
0.32004153
0.32186541
0.32226931
0.32514153
0.32449925
0.32464133
0.32744929
0.32828011
0.33117
0.3299495
0.32886142
0.33153629
0.33278944
0.3342363
0.33311237
0.3320022
0.334585
0.3357226
0.33778685
0.33655936
0.33594872
0.33926421
0.3406571
0.34407309
0.34261249
0.34174225
0.3458895
0.34754671
0.35098593
0.34919759
0.34807578
0.3525453
0.35438054
0.35806208
0.35619761
0.35528046
0.36024737
0.36225088
0.36594658
0.36428853
0.3638661
0.3690819
0.37036822
0.37621601
0.37471526
0.37438046
0.38045747
0.38203691
0.38440206
0.38342875
0.38102907
0.38464969
0.38631134
0.38458397
0.38373203
0.38105615
0.37766928
0.37411153
0.3750725
0.3687204
0.35864313
0.35012646
0.3429886
0.33676959
0.33120009
0.32726478
0.32406868
0.32004957
0.31573774
0.31274466
0.31139601
0.3107978
0.3101361
0.30827662
0.30480979
0.30029278
0.29535676
0.28968118
0.28289043
0.27545825
0.26713355
0.26201116
0.25669458
0.25136375
0.24615638
0.24110575
0.23622443
0.23151956
0.22698463
0.22260977
0.22896606
0.23350529
0.2382146
0.24311421
0.2481938
0.25345866
0.25895352
0.26449075
0.27004306
0.27725884
0.27155976
0.26589706
0.26038259
0.25504756
0.24990092
0.24494215
0.24016369
0.23555786
0.24121091
0.24592077
0.25080735
0.25589306
0.26116458
0.26663515
0.27235951
0.27814627
0.28396811
0.28971872
0.28396516
0.2782361
0.27265003
0.26723675
0.26200296
0.25695218
0.2520762
0.24736421
0.25228076
0.25703297
0.26194459
0.26703938
0.2722993
0.27773479
0.283408
0.28911339
0.29479523
0.29940162
0.29379703
0.28817034
0.28265727
0.2772934
0.27208997
0.26704835
0.26216833
0.25743612
0.26080833
0.26555783
0.2704587
0.27552477
0.28075125
0.2861429
0.29175821
0.29738317
0.30295945
0.30496881
0.29954661
0.29406943
0.28868345
0.28342699