/*--------------------------------*- C++ -*----------------------------------*\
| =========                 |                                                 |
| \\      /  F ield         | OpenFOAM: The Open Source CFD Toolbox           |
|  \\    /   O peration     | Version:  v2012                                 |
|   \\  /    A nd           | Website:  www.openfoam.com                      |
|    \\/     M anipulation  |                                                 |
\*---------------------------------------------------------------------------*/
FoamFile
{
    version     2.0;
    format      ascii;
    class       volScalarField;
    location    "184";
    object      nut;
}
// * * * * * * * * * * * * * * * * * * * * * * * * * * * * * * * * * * * * * //

dimensions      [0 2 -1 0 0 0 0];


internalField   nonuniform List<scalar> 
24787
(
0.0089585378
0.0089537245
0.0089531421
0.008992256
0.0090933049
0.0091648313
0.0091871462
0.0092203218
0.0092934849
0.0093466132
0.0093853922
0.0094174421
0.0094437544
0.0094667277
0.0094875046
0.0095045433
0.0095185894
0.0095317107
0.0095529208
0.0095773051
0.0096822559
0.009951557
0.01001555
0.010024131
0.0099943171
0.0099564816
0.0099304453
0.0099603762
0.009972265
0.0099432818
0.0099120973
0.009915258
0.0099098562
0.0098953771
0.0098763672
0.0098520712
0.0098224818
0.0097882355
0.0097516413
0.0097145168
0.0096709614
0.0096970026
0.0099377865
0.0099288638
0.0098625543
0.00976977
0.0096806542
0.0096744794
0.0096526627
0.0095801845
0.0094997183
0.0094646084
0.0094272041
0.009382446
0.00933532
0.0092833354
0.0092283469
0.0091737574
0.0076698494
0.0078503133
0.0062160492
0.0016488732
0.0025727274
0.0063383723
0.0095299915
0.0096384463
0.009660433
0.0096645904
0.0096641955
0.0096632721
0.0096616038
0.0096590769
0.0096551291
0.0096496918
0.0096426077
0.031778918
0.031810598
0.031841864
0.03187271
0.031903101
0.031932967
0.031962212
0.031990717
0.032018362
0.032045066
0.032070816
0.032095687
0.032119849
0.032143539
0.032167046
0.0089102087
0.0089220131
0.0089190334
0.0088961052
0.0089005717
0.0088820878
0.008880898
0.0087350496
0.0087174928
0.008445029
0.0084118486
0.0083500162
0.0082569584
0.0082177254
0.0082441287
0.0083698682
0.0084158493
0.0086789982
0.0087342862
0.0090129106
0.0090693199
0.0093414388
0.0094013427
0.0094620954
0.0093620147
0.0091220016
0.0090299735
0.0087885546
0.008698147
0.0084707148
0.0083945403
0.0082836681
0.0082376614
0.0083233228
0.0083768936
0.0084546126
0.0084988123
0.0087445133
0.0087843125
0.0089181729
0.0089260599
0.0089467553
0.0089429483
0.0089695814
0.0089535008
0.0089578225
0.0089778881
0.0090867224
0.0091429859
0.0091523468
0.0091395505
0.0091246978
0.0090879805
0.0090586384
0.0090138595
0.009000238
0.0089829191
0.0088654508
0.0087969211
0.0085845685
0.0085222798
0.0084494429
0.0084714489
0.0084869838
0.0084834692
0.0085969178
0.0087753312
0.0089147457
0.0091064193
0.0092557382
0.0094573883
0.0095158678
0.0095604423
0.0095286411
0.0094049726
0.0091854722
0.0090701256
0.0088543983
0.0087412677
0.0085384824
0.0084421917
0.0083471113
0.0083903865
0.0084612205
0.0084362933
0.0085140699
0.0085712434
0.0087953676
0.0088541812
0.0089765934
0.00898964
0.0090031645
0.0090168978
0.0090582941
0.0090645683
0.0091193943
0.0091082985
0.0090810178
0.0094523419
0.0094950799
0.0095218269
0.0095448015
0.0095372106
0.0094187913
0.0091160817
0.0089877486
0.0089973927
0.0093369183
0.01074178
0.010261789
0.032487326
0.032461232
0.032436861
0.032414027
0.032392461
0.032371838
0.03235179
0.032331946
0.032311937
0.032291439
0.032270197
0.03224803
0.032224848
0.032200642
0.032175475
0.032149457
0.032122726
0.032095429
0.032067709
0.032039689
0.032011477
0.031983156
0.031954787
0.03192641
0.03195349
0.031981862
0.032010206
0.032038487
0.032066646
0.032094599
0.03212224
0.03214944
0.032176055
0.03220193
0.03222692
0.032250907
0.032273821
0.032295666
0.032316531
0.032336598
0.032356122
0.032375431
0.032394894
0.032414886
0.032435772
0.032457878
0.032481472
0.032506741
0.032550789
0.032527312
0.032505392
0.032484843
0.032465399
0.032446737
0.032428493
0.032410293
0.032391763
0.032372573
0.032352463
0.032331249
0.032308844
0.032285255
0.032260563
0.032234902
0.032208435
0.032181327
0.032153732
0.032125785
0.032097594
0.032069242
0.032040786
0.032012259
0.032103872
0.032133323
0.032162602
0.032191685
0.032220516
0.032249014
0.032277067
0.032304531
0.032331237
0.032357001
0.032381637
0.032404983
0.032426935
0.032447478
0.032466695
0.032484777
0.03250199
0.032518669
0.032535194
0.032551938
0.032569257
0.032587467
0.032606824
0.032627508
0.032746028
0.032728762
0.032712403
0.032696794
0.032681701
0.03266683
0.032651844
0.032636373
0.03262004
0.032602503
0.032583481
0.032562772
0.032540288
0.03251606
0.032490225
0.032462985
0.032434563
0.032405174
0.03237501
0.032344226
0.032312941
0.032281239
0.032249171
0.03221676
0.032312514
0.032352031
0.032390966
0.032429295
0.032466964
0.032503879
0.032539909
0.032574874
0.032608549
0.032640672
0.032670963
0.032699158
0.032725067
0.032748651
0.03277002
0.032789399
0.032807095
0.032823456
0.032838855
0.032853635
0.032868094
0.032882476
0.032896962
0.032911663
0.033108378
0.033091597
0.033074068
0.033055797
0.033036717
0.03301668
0.03299547
0.032972792
0.032948286
0.03292158
0.032892316
0.032860196
0.032825041
0.032786875
0.032745954
0.032702644
0.032657312
0.032610291
0.032561866
0.032512255
0.032461621
0.03241008
0.032357705
0.03230454
0.032033504
0.032108048
0.032181786
0.032254641
0.032326499
0.032397193
0.03246651
0.032534169
0.032599797
0.032662956
0.032723146
0.032779836
0.032832676
0.032881739
0.032927404
0.032970148
0.033010491
0.033048912
0.033085807
0.033121435
0.033155927
0.033189292
0.03322141
0.03325205
0.033091463
0.033027336
0.032963054
0.032899115
0.032835711
0.032772754
0.032709943
0.032646792
0.032582574
0.032516366
0.032447203
0.032374226
0.032296657
0.03221423
0.032127506
0.032037318
0.031944387
0.031849298
0.031752537
0.031654479
0.031555405
0.031455552
0.031355102
0.031254198
0.029659125
0.029782448
0.029905911
0.030029321
0.030152412
0.030274881
0.030396395
0.030516502
0.030634581
0.030749825
0.030861142
0.030967022
0.031066226
0.031159038
0.031246574
0.031330049
0.031411386
0.031492766
0.031576018
0.03166261
0.031753957
0.031851336
0.031955343
0.032065594
0.029284202
0.029166105
0.029064842
0.028981072
0.028911488
0.028850695
0.028794192
0.028738786
0.02868075
0.028615027
0.028538214
0.028450055
0.028350776
0.028241252
0.028124484
0.028003217
0.027879085
0.027753139
0.027626113
0.027498421
0.027370345
0.027242201
0.027114266
0.026986785
0.023237341
0.023340588
0.023443453
0.02354574
0.023647136
0.023747541
0.023846974
0.023945228
0.024041494
0.024134332
0.024221652
0.024299481
0.024362156
0.024406644
0.024425713
0.024414171
0.024380792
0.024334812
0.024278436
0.024215465
0.024158592
0.024124258
0.02411762
0.024122491
0.032101077
0.032066887
0.032033132
0.031999761
0.031966711
0.031933919
0.031901324
0.031868869
0.031836509
0.031804206
0.031771936
0.031739684
0.031707447
0.031675226
0.031643029
0.031610865
0.031578744
0.031546672
0.031514651
0.031925276
0.031923159
0.031919864
0.031915333
0.031909648
0.03190299
0.031895543
0.031887469
0.0318789
0.031869967
0.031860807
0.03153253
0.031524657
0.031519278
0.031516068
0.031548076
0.031551227
0.031556494
0.031564194
0.031574543
0.031587664
0.031603554
0.031820856
0.03182878
0.031836728
0.031844893
0.03185335
0.03186211
0.031871118
0.031880286
0.031889489
0.031898598
0.03190748
0.031916005
0.031924046
0.031931469
0.031938109
0.031943779
0.031948296
0.031951573
0.031953674
0.031982062
0.031979982
0.031976728
0.031972232
0.031966584
0.031959966
0.031952571
0.031944567
0.031936088
0.031927257
0.0319182
0.031909049
0.03189993
0.031890962
0.031882231
0.031873791
0.031865631
0.03185767
0.031849723
0.031841496
0.031832566
0.031822427
0.031810526
0.031796397
0.03177977
0.031760714
0.031739666
0.031717386
0.03169481
0.031672925
0.031652593
0.031634457
0.031618897
0.031606059
0.031595933
0.031588395
0.031583231
0.031580134
0.03161224
0.031615289
0.031620358
0.031627745
0.031637658
0.031650224
0.031665464
0.031683247
0.031703214
0.03172475
0.031747008
0.031769017
0.031789846
0.031808736
0.03182525
0.031839319
0.031851203
0.031861353
0.031870307
0.031878562
0.031886534
0.031894507
0.031902664
0.031911089
0.031919793
0.031928723
0.031937796
0.031946896
0.031955901
0.03196468
0.031973112
0.031981076
0.031988439
0.03199503
0.032000652
0.03200512
0.032008345
0.032010401
0.032038631
0.032036603
0.032033411
0.032028974
0.032023383
0.032016822
0.032009495
0.032001574
0.031993192
0.031984466
0.031975513
0.031966463
0.031957434
0.03194854
0.031939862
0.031931449
0.031923291
0.031915305
0.031907312
0.031899031
0.031890059
0.03187991
0.031868061
0.031854072
0.031837693
0.031818993
0.031798407
0.03177669
0.031754766
0.031733591
0.03171399
0.031696557
0.03168163
0.031669326
0.031659617
0.031652373
0.031647392
0.031644389
0.031676572
0.031679531
0.031684429
0.031691536
0.031701049
0.031713097
0.031727717
0.0317448
0.031764028
0.031784827
0.031806396
0.031827792
0.031848102
0.031866582
0.031882797
0.031896682
0.031908475
0.031918608
0.031927589
0.031935889
0.0319439
0.0319519
0.03196006
0.031968463
0.031977118
0.031985979
0.031994965
0.032003967
0.032012867
0.032021539
0.03202987
0.032037745
0.032045032
0.032051559
0.032057117
0.032061517
0.032064672
0.032066669
0.032094409
0.032092447
0.032089332
0.032084973
0.032079453
0.032072964
0.032065719
0.032057894
0.032049617
0.032040999
0.032032153
0.032023199
0.032014254
0.032005425
0.031996791
0.031988396
0.031980233
0.03197222
0.031964193
0.031955881
0.031946906
0.031936807
0.031925094
0.031911347
0.031895331
0.031877112
0.031857118
0.031836077
0.031814895
0.031794492
0.031775649
0.031758919
0.031744606
0.031732809
0.031723488
0.031716514
0.031711697
0.031708778
0.031741001
0.031743879
0.031748617
0.031755461
0.031764591
0.031776136
0.03179014
0.031806508
0.031824948
0.031844926
0.031865685
0.031886323
0.031905952
0.031923859
0.03193963
0.031953201
0.031964802
0.031974843
0.031983797
0.031992111
0.032000149
0.032008172
0.032016339
0.032024726
0.03203334
0.032042139
0.032051043
0.032059949
0.032068741
0.032077302
0.032085522
0.032093295
0.032100491
0.032106938
0.032112418
0.032116732
0.032119802
0.032121726
0.03214848
0.032146597
0.032143576
0.032139311
0.032133877
0.032127477
0.032120332
0.032112617
0.032104458
0.032095956
0.03208722
0.032078364
0.032069501
0.032060733
0.032052139
0.03204376
0.032035593
0.032027564
0.032019523
0.03201122
0.032002306
0.031992352
0.031980901
0.031967553
0.031952084
0.031934549
0.031915345
0.031895166
0.031874881
0.031855363
0.03183735
0.031821359
0.031807673
0.031796383
0.031787445
0.031780734
0.031776075
0.031773237
0.031805491
0.031808288
0.031812865
0.031819441
0.031828182
0.031839208
0.031852563
0.031868156
0.03188571
0.031904722
0.031924478
0.03194413
0.031962835
0.031979927
0.03199503
0.032008099
0.032019356
0.032029189
0.032038037
0.032046313
0.032054345
0.032062373
0.032070536
0.032078903
0.032087475
0.032096209
0.032105027
0.032113831
0.032122507
0.032130945
0.032139038
0.032146689
0.032153775
0.032160123
0.032165506
0.032169718
0.032172685
0.032174523
0.032199718
0.032197928
0.03219502
0.032190867
0.032185542
0.032179254
0.032172234
0.032164655
0.032156635
0.032148268
0.032139658
0.032130913
0.032122144
0.032113449
0.032104906
0.032096558
0.032088407
0.032080392
0.032072383
0.032064157
0.032055403
0.032045731
0.032034719
0.032021994
0.032007332
0.031990764
0.031972639
0.031953591
0.031934431
0.031915976
0.031898919
0.031883749
0.031870742
0.031859991
0.031851457
0.031845023
0.03184053
0.031837777
0.03187012
0.031872826
0.031877228
0.031883514
0.03189183
0.03190229
0.031914929
0.031929645
0.031946164
0.031964004
0.031982497
0.032000858
0.032018314
0.03203427
0.032048412
0.032060725
0.032071434
0.032080901
0.032089526
0.032097676
0.032105642
0.032113628
0.032121754
0.032130072
0.032138577
0.032147223
0.032155933
0.03216461
0.032173145
0.03218143
0.032189367
0.032196864
0.032203807
0.032210026
0.032215287
0.032219374
0.032222218
0.032223955
0.032247171
0.032245491
0.032242719
0.032238705
0.032233518
0.03222738
0.032220526
0.032213125
0.032205285
0.032197094
0.032188648
0.032180053
0.032171416
0.032162832
0.032154381
0.03214611
0.032138027
0.03213009
0.032122192
0.032114149
0.032105692
0.032096478
0.032086131
0.032074301
0.032060763
0.032045507
0.032028811
0.03201122
0.031993467
0.031976298
0.031960361
0.031946129
0.031933882
0.031923729
0.031915642
0.031909515
0.03190521
0.031902554
0.031935127
0.031937728
0.03194193
0.031947888
0.03195573
0.031965559
0.031977393
0.031991111
0.032006427
0.032022872
0.03203982
0.032056561
0.032072414
0.032086884
0.032099741
0.032111018
0.032120945
0.032129856
0.032138105
0.032146008
0.032153808
0.03216167
0.032169687
0.03217789
0.032186266
0.032194767
0.032203312
0.032211808
0.032220146
0.032228225
0.032235951
0.03224324
0.032249989
0.032256032
0.032261133
0.032265063
0.032267758
0.032269375
0.032290656
0.032289109
0.032286501
0.032282664
0.032277664
0.032271732
0.032265108
0.032257951
0.03225036
0.032242416
0.032234208
0.032225837
0.032217408
0.032209016
0.03220074
0.032192633
0.032184712
0.032176956
0.032169287
0.032161561
0.032153561
0.032144998
0.032135545
0.032124881
0.032112771
0.032099156
0.032084217
0.032068389
0.0320523
0.032036621
0.032021959
0.032008779
0.031997379
0.03198789
0.031980305
0.031974527
0.031970437
0.031967895
0.032000918
0.032003397
0.032007369
0.032012957
0.032020273
0.032029407
0.03204036
0.032052985
0.032066974
0.03208186
0.032097056
0.032111927
0.032125904
0.032138614
0.032149928
0.032159933
0.032168869
0.032177043
0.032184757
0.03219227
0.032199773
0.032207389
0.03221518
0.03222316
0.032231304
0.032239557
0.032247839
0.032256057
0.032264107
0.032271891
0.032279321
0.032286322
0.032292799
0.032298599
0.032303483
0.032307214
0.032309725
0.032311198
0.032331253
0.032329863
0.032327456
0.032323844
0.032319095
0.03231345
0.032307143
0.032300327
0.032293087
0.032285495
0.032277636
0.032269605
0.032261503
0.032253426
0.032245451
0.032237637
0.032230012
0.032222574
0.032215274
0.032208009
0.032200615
0.032192862
0.03218447
0.032175149
0.032164656
0.032152871
0.032139873
0.032125971
0.032111678
0.032097589
0.032084277
0.032072211
0.032061713
0.032052942
0.032045907
0.032040518
0.032036671
0.032034261
0.032067985
0.032070323
0.032074037
0.032079217
0.032085964
0.032094365
0.032104407
0.03211592
0.032128569
0.03214188
0.032155293
0.032168247
0.032180285
0.032191158
0.032200838
0.032209473
0.032217311
0.032224627
0.032231675
0.03223866
0.032245721
0.032252945
0.032260363
0.032267971
0.032275737
0.0322836
0.032291481
0.032299288
0.032306921
0.032314287
0.032321305
0.032327907
0.032334014
0.032339482
0.032344076
0.032347553
0.032349845
0.032351149
0.03237125
0.03237004
0.032367873
0.032364544
0.032360126
0.032354862
0.032348983
0.032342625
0.032335862
0.032328756
0.032321386
0.032313842
0.032306219
0.032298611
0.032291094
0.032283731
0.032276557
0.032269585
0.032262793
0.032256113
0.032249426
0.032242552
0.03223526
0.032227287
0.032218382
0.032208374
0.03219724
0.032185177
0.032172592
0.032160015
0.032147998
0.03213702
0.032127425
0.032119395
0.032112943
0.032107979
0.032104405
0.032102143
0.032288024
0.032294521
0.03230121
0.032308104
0.032315185
0.032322413
0.032329729
0.032337053
0.032344298
0.032351369
0.032358179
0.032364655
0.032370737
0.032376361
0.032381397
0.032385619
0.032388783
0.032390817
0.03239193
0.032413553
0.03241254
0.032410648
0.032407661
0.032403654
0.032398869
0.032393528
0.032387748
0.03238159
0.032375107
0.032368368
0.032361456
0.032354463
0.032347475
0.032340568
0.032333801
0.032327216
0.032367492
0.032374055
0.032380691
0.032387327
0.032393879
0.032400261
0.032406393
0.032412209
0.032417662
0.032422701
0.032427216
0.032430992
0.03243379
0.032435535
0.032436445
0.032460873
0.032460067
0.032458471
0.03245587
0.032452334
0.032448104
0.032443382
0.03243827
0.03243281
0.032427045
0.032421034
0.032414854
0.032408587
0.032402313
0.032460967
0.032466067
0.032470835
0.032475236
0.032479179
0.03248247
0.032484872
0.032486319
0.032487024
0.032506539
0.032481214
0.032457564
0.032435402
0.032414462
0.032394418
0.032374906
0.032355551
0.032335985
0.03231588
0.03229498
0.032273101
0.032250156
0.032226142
0.032201126
0.032175227
0.032148591
0.032121372
0.032093713
0.032065744
0.03203757
0.032009276
0.031980919
0.031952535
0.018907948
0.018969535
0.019028976
0.019086144
0.019140551
0.01919234
0.019241794
0.019288739
0.019331848
0.019370053
0.019401011
0.019421844
0.019421308
0.019383243
0.019287688
0.019082553
0.018950041
0.018777111
0.018567318
0.018291213
0.018018167
0.017835882
0.017776416
0.017743587
0.017623097
0.017458104
0.032550854
0.032527326
0.032505355
0.032484755
0.032465265
0.032446558
0.032428273
0.032410035
0.032391471
0.03237225
0.032352109
0.032330867
0.032308435
0.03228482
0.032260104
0.032234421
0.032207934
0.032180808
0.032153197
0.032125235
0.032097031
0.032068669
0.032040203
0.032011667
0.014894613
0.014935047
0.014973314
0.015009491
0.015043167
0.015074678
0.015104399
0.01513183
0.015153735
0.015165792
0.015174674
0.015253602
0.015492685
0.01571997
0.01588097
0.014616811
0.014433612
0.014298965
0.014139762
0.01406378
0.013934713
0.013820135
0.013575676
0.013329691
0.012972731
0.012701949
0.012408934
0.012202701
0.012000027
0.012045382
0.012036269
0.012018291
0.011856296
0.011648632
0.011205521
0.014498988
0.014607687
0.013856513
0.013183476
0.01628599
0.032628041
0.032607315
0.032587914
0.03256966
0.032552298
0.032535514
0.03251895
0.032502233
0.032484988
0.032466875
0.032447626
0.032427052
0.032405068
0.03238169
0.032357024
0.032331231
0.032304498
0.032277009
0.032248934
0.032220414
0.032191563
0.032162463
0.032133166
0.032103698
0.0097455052
0.0097570947
0.0097676419
0.0097777377
0.0097872253
0.0097965832
0.0098059508
0.0098151567
0.0098187184
0.009803838
0.0097066545
0.0051849023
0.0027522415
0.0019847503
0.0061957581
0.0095289844
0.0096478816
0.009765619
0.0098005903
0.0098396252
0.0098776902
0.0099143386
0.0099456946
0.0099705108
0.0099872285
0.010070385
0.010126832
0.01015773
0.010177628
0.010149118
0.010157616
0.010156646
0.010192617
0.01025362
0.010330214
0.010473904
0.010591927
0.010795281
0.010941729
0.01117352
0.011340008
0.011594264
0.011771168
0.012020802
0.012204621
0.012464725
0.012651221
0.012894286
0.013078538
0.013321743
0.013500244
0.013719589
0.013888971
0.014103286
0.014260396
0.014445516
0.014585693
0.014756863
0.014879171
0.015018283
0.015118921
0.015239013
0.01532035
0.015413337
0.015480204
0.01556556
0.015625421
0.015702692
0.015761526
0.01584122
0.01590532
0.015989901
0.016059609
0.016154603
0.016236258
0.016336482
0.016421932
0.016528891
0.016613993
0.016710132
0.016786244
0.016871199
0.016934353
0.017002524
0.017051966
0.017106941
0.017148253
0.017197437
0.017242136
0.017302239
0.017364248
0.017442906
0.017503583
0.017571036
0.01770976
0.017810718
0.017904996
0.017972921
0.018035773
0.018081856
0.018123889
0.018154826
0.018173299
0.018181138
0.01816892
0.01814841
0.018089347
0.018023975
0.017899267
0.017768042
0.017547898
0.017341206
0.017029328
0.016745889
0.016338412
0.016001509
0.015554411
0.015179301
0.014666584
0.014224092
0.013626963
0.01316108
0.012644176
0.012465819
0.012344422
0.012435021
0.013044736
0.013553643
0.014141375
0.01460822
0.015107144
0.015503528
0.015935384
0.016288348
0.01667781
0.016973736
0.017272112
0.017487665
0.017695583
0.017830883
0.017947929
0.018015445
0.01807078
0.018093338
0.018101401
0.018089252
0.018068029
0.018034725
0.017990859
0.017941743
0.017876292
0.017801846
0.017699194
0.017581719
0.017520144
0.017433912
0.017357587
0.017277765
0.017212892
0.017153025
0.01710644
0.017058886
0.017016733
0.016963196
0.016911176
0.016845157
0.016779165
0.016696384
0.016618052
0.016526499
0.016438957
0.016337106
0.016251429
0.016156473
0.016072052
0.015982607
0.015912017
0.015831202
0.015766301
0.015692406
0.015633432
0.015560567
0.0155008
0.015420941
0.015353718
0.01526759
0.015185708
0.015072303
0.014971197
0.014841021
0.014718971
0.01455691
0.014415288
0.014239453
0.014080026
0.013875183
0.013702815
0.013492686
0.013309306
0.013076178
0.012887553
0.012655549
0.0124644
0.012216262
0.012026382
0.011787885
0.011604043
0.011360947
0.01118731
0.010966172
0.010812995
0.01061892
0.010494864
0.010356714
0.010275888
0.010215008
0.01017668
0.010172846
0.010162906
0.010184729
0.010162026
0.010124825
0.010061941
0.01004251
0.010016944
0.0099853745
0.0099535599
0.0099207283
0.0098919586
0.0098598128
0.0094235075
0.0066636365
0.0094572403
0.009977581
0.0099873653
0.010010824
0.010038101
0.010065597
0.010091829
0.010111686
0.01015484
0.010141292
0.010122047
0.010102875
0.01008304
0.010067097
0.010063382
0.0094718753
0.0067955457
0.0096668944
0.0101164
0.010114764
0.010125329
0.010140393
0.010155769
0.010170892
0.010181132
0.010166901
0.010164209
0.010157513
0.010150907
0.010143535
0.010140672
0.010148825
0.0095759281
0.0068609025
0.0098375783
0.01018065
0.010167608
0.010165913
0.010169665
0.010173918
0.010178443
0.010178975
0.010187637
0.010192358
0.010193295
0.010194538
0.010196057
0.01020228
0.010220002
0.010044585
0.0069845535
0.0102152
0.010275048
0.010254737
0.010246131
0.010241832
0.010238764
0.010235402
0.010228418
0.010289856
0.010298505
0.010304273
0.010309742
0.010316611
0.010327452
0.010349044
0.010146145
0.0070589759
0.010383526
0.010446823
0.010423224
0.01041059
0.010401797
0.010394081
0.010386147
0.010374462
0.010508123
0.010517066
0.010522746
0.010529422
0.010536978
0.010548766
0.010367041
0.01024109
0.007132883
0.0099890925
0.0102838
0.010689474
0.010676805
0.010667835
0.010658762
0.01065045
0.01063754
0.010823879
0.010831031
0.010834822
0.010840356
0.010846564
0.010857289
0.010718252
0.0099746242
0.007082701
0.0098816456
0.011048983
0.011028567
0.011016945
0.01100918
0.011001483
0.010994497
0.01098332
0.011195703
0.011200123
0.011202232
0.011205771
0.011210104
0.011219332
0.011236575
0.010004418
0.0071392316
0.010289421
0.011426196
0.011408971
0.011399523
0.011394515
0.011389373
0.011384319
0.011375817
0.011608564
0.011609453
0.011608295
0.011608071
0.011608755
0.011614537
0.011396569
0.010319436
0.0071839903
0.010327427
0.011335856
0.011810182
0.01180536
0.011804146
0.011803558
0.011802531
0.011797868
0.012026628
0.01202439
0.012019571
0.012015717
0.012013882
0.012015407
0.011316698
0.010349497
0.0072401707
0.010246337
0.011491551
0.012212836
0.012213043
0.012214879
0.012217867
0.012222385
0.012222361
0.012460944
0.012452824
0.012440585
0.012432463
0.012425919
0.01242148
0.011808736
0.010104418
0.0072799673
0.010407972
0.011733123
0.012616691
0.012621418
0.012629304
0.012639588
0.012650412
0.012655316
0.012876741
0.012866329
0.012851123
0.012835736
0.012824186
0.012739207
0.011596036
0.010712233
0.0074059764
0.010345803
0.011897484
0.013006355
0.013015683
0.013027822
0.0130435
0.013059946
0.013070465
0.013294862
0.013276578
0.013253012
0.013233085
0.013216419
0.013202155
0.01200918
0.010131972
0.0074511932
0.010434173
0.011496981
0.013381174
0.013397122
0.013417189
0.013439225
0.013462306
0.013479737
0.013680759
0.013657501
0.0136309
0.013605542
0.013581274
0.013563229
0.011368528
0.010595999
0.0075538389
0.010579686
0.011485504
0.013644319
0.013749764
0.013775775
0.013803603
0.013831578
0.013855828
0.014051837
0.01402125
0.013987381
0.01395455
0.013924703
0.013727895
0.011682991
0.010549758
0.0076007554
0.010648254
0.011765641
0.013798971
0.014077741
0.014110191
0.014145939
0.014181605
0.014212744
0.014380664
0.014344241
0.014304558
0.014266667
0.014230773
0.013871463
0.011811974
0.010789854
0.007588385
0.010813736
0.011723368
0.013915919
0.014362136
0.014401757
0.014442452
0.01448418
0.014523473
0.014677877
0.0146327
0.014584852
0.014540161
0.014496649
0.013980716
0.011721309
0.010881429
0.0076435513
0.010978157
0.011769585
0.014136249
0.014606099
0.014651881
0.014701874
0.014753809
0.014799673
0.014921425
0.014872333
0.014816723
0.014763435
0.01471621
0.014262442
0.011917927
0.010943843
0.0077296088
0.010956243
0.012017382
0.014644093
0.014805166
0.014855946
0.014911474
0.014971271
0.015024394
0.015132423
0.015072905
0.015008579
0.01495292
0.014898682
0.014850693
0.012109197
0.010955357
0.0076891672
0.011002689
0.012127648
0.014757635
0.014967265
0.015024621
0.015085429
0.015152333
0.015214165
0.015293124
0.015228376
0.015161306
0.015098949
0.015039867
0.014498955
0.012237884
0.011033876
0.0078515101
0.011212689
0.012263647
0.014572808
0.015094944
0.015156893
0.015222669
0.015293392
0.015360026
0.015433573
0.015365096
0.015292236
0.015225507
0.015161452
0.014770872
0.012333294
0.011383624
0.008019825
0.011557858
0.012380159
0.014894761
0.015209863
0.015276129
0.015346646
0.015422674
0.015493456
0.015561306
0.015488264
0.015411109
0.015340348
0.015272504
0.015077904
0.012502334
0.011662215
0.0080939081
0.011765041
0.01256052
0.015229216
0.015321552
0.015391326
0.015465555
0.015547075
0.015621757
0.015689668
0.015612428
0.015530614
0.015454556
0.015384123
0.015326227
0.012726413
0.011867312
0.0081826232
0.012141636
0.012820492
0.015377083
0.015436735
0.015509448
0.015589211
0.015674177
0.01575463
0.015831135
0.015748562
0.015663284
0.015583599
0.015509111
0.015329974
0.013061274
0.012269141
0.0084844463
0.012250068
0.013407645
0.015212535
0.015570368
0.015648067
0.015729246
0.015817689
0.015903594
0.015989763
0.015903035
0.015813663
0.015733664
0.015654131
0.01525961
0.013589716
0.012356441
0.0088844941
0.013074196
0.013404561
0.015355409
0.015725712
0.015808171
0.015893275
0.015984289
0.016073504
0.016162659
0.01607273
0.015983689
0.015899913
0.015817402
0.01575368
0.013456016
0.013112212
0.0092842745
0.012795932
0.013642158
0.01582879
0.015898776
0.015981061
0.016065725
0.016161569
0.016253471
0.016352355
0.016259205
0.016161897
0.01607584
0.01599386
0.015923256
0.014118907
0.012814245
0.0094267958
0.01330569
0.014530498
0.016001882
0.016072927
0.016157448
0.016247335
0.016346657
0.016439559
0.016526082
0.016433362
0.01633651
0.016248923
0.016164501
0.016094109
0.014825261
0.013886434
0.0096016491
0.014160941
0.015032951
0.016165677
0.016237389
0.016323286
0.01641362
0.016512095
0.016606895
0.016687306
0.01659169
0.016494158
0.016403279
0.016317343
0.016247372
0.015219751
0.014498995
0.010047436
0.014694591
0.015335761
0.016308018
0.016378969
0.016466495
0.016559387
0.016659436
0.016755783
0.01681878
0.016723805
0.016626585
0.016535677
0.016449023
0.016376964
0.015534754
0.014586635
0.010080426
0.01449096
0.015704352
0.016425078
0.016498388
0.016585616
0.016679324
0.016779265
0.016873781
0.016924216
0.016830807
0.016732881
0.016641943
0.016556338
0.016483508
0.015839908
0.014245687
0.010089603
0.014109995
0.015703999
0.016525116
0.016597174
0.016683047
0.016775421
0.01687367
0.016967754
0.017015757
0.016923206
0.016827028
0.016738667
0.016653099
0.016581436
0.015581494
0.014289661
0.010028388
0.014538725
0.015486315
0.016630738
0.016701046
0.016786777
0.016876154
0.01697239
0.017065184
0.017125683
0.017036658
0.016943389
0.016856542
0.01677205
0.016702543
0.015589978
0.014607311
0.0099580836
0.014424986
0.015740694
0.016767874
0.01683648
0.016920294
0.017008483
0.017101917
0.017192249
0.01727114
0.017183328
0.017092264
0.017005945
0.01692385
0.016855721
0.016030616
0.014304677
0.0099995941
0.014528281
0.016151739
0.016938689
0.017005764
0.01708661
0.017174037
0.017263967
0.017349994
0.017439286
0.017355509
0.0172672
0.017184116
0.017106394
0.0170415
0.016228611
0.01483199
0.0099730786
0.01484913
0.016144204
0.017130667
0.017196249
0.017273843
0.01735749
0.017446671
0.017531771
0.017619692
0.017718124
0.017628795
0.017542132
0.017452674
0.01736976
0.017291407
0.017224737
0.016131457
0.014875142
0.010009152
0.014904862
0.016147337
0.017305241
0.017371708
0.017450686
0.017533108
0.017621573
0.017707613
0.017796126
0.0178644
0.01777973
0.017695083
0.017608349
0.017528499
0.017452625
0.017389128
0.016337208
0.014997583
0.010175141
0.015155277
0.016388057
0.017449134
0.017510347
0.017585182
0.017664407
0.017749854
0.017833871
0.017917446
0.017963063
0.017882747
0.017800776
0.017717763
0.017640004
0.017565152
0.017504927
0.016255966
0.015136783
0.010335927
0.015192584
0.015788746
0.017541092
0.017603991
0.017679226
0.017754351
0.017838887
0.017920301
0.017997482
0.018020569
0.017946289
0.017869445
0.017787902
0.017713571
0.017640921
0.017579019
0.016338319
0.015437426
0.010281329
0.015560519
0.017559833
0.017596252
0.017655797
0.017724726
0.017800881
0.01788104
0.017955755
0.018033555
0.018027347
0.017952325
0.01788085
0.017803887
0.017729681
0.017662911
0.017604801
0.017567889
0.015977645
0.01036724
0.016486464
0.017280284
0.017578357
0.017638859
0.017708226
0.017780134
0.017856246
0.01793069
0.01800646
0.017954931
0.017883916
0.017812122
0.017739074
0.017668334
0.017594277
0.017518259
0.017461707
0.016592079
0.010783695
0.011410735
0.012328762
0.017150117
0.017277366
0.017192136
0.017073097
0.0168991
0.016692799
0.016436334
0.016146373
0.015802354
0.015434293
0.015024521
0.014594672
0.014113802
0.013603381
0.013039287
0.012471839
0.011897213
0.011421625
0.011295619
0.011125473
0.01117561
0.011787356
0.012395442
0.012975961
0.013538572
0.014053469
0.014532421
0.014965158
0.015370553
0.015735833
0.016073274
0.016361683
0.016613294
0.016817948
0.016698498
0.017088774
0.012605578
0.012887761
0.010739323
0.014059333
0.013449555
0.014385489
0.014726514
0.010878391
0.015460043
0.015689263
0.016317839
0.016093451
0.011600408
0.016068752
0.016031211
0.015700518
0.015738113
0.012338919
0.015379868
0.015335757
0.014933958
0.014981087
0.013714474
0.014552058
0.014498338
0.01402535
0.0140863
0.014122837
0.01358119
0.013510272
0.012957587
0.013030282
0.013067013
0.012463221
0.012354965
0.011722083
0.011630756
0.012141596
0.0093029513
0.0034616503
0.0057444302
0.0066672698
0.0062538371
0.0055878854
0.0053114283
0.004943243
0.0047226432
0.004631737
0.0045820865
0.0045157745
0.0044455408
0.0043947589
0.004366476
0.0043261071
0.0042892783
0.0042722514
0.0042398903
0.004212389
0.0042057495