/*--------------------------------*- C++ -*----------------------------------*\
| =========                 |                                                 |
| \\      /  F ield         | OpenFOAM: The Open Source CFD Toolbox           |
|  \\    /   O peration     | Version:  v2012                                 |
|   \\  /    A nd           | Website:  www.openfoam.com                      |
|    \\/     M anipulation  |                                                 |
\*---------------------------------------------------------------------------*/
FoamFile
{
    version     2.0;
    format      ascii;
    class       volScalarField;
    location    "184";
    object      omega;
}
// * * * * * * * * * * * * * * * * * * * * * * * * * * * * * * * * * * * * * //

dimensions      [0 0 -1 0 0 0 0];


internalField   nonuniform List<scalar> 
24787
(
38.132081
37.971455
37.822308
37.487221
36.917279
36.441973
36.21099
35.937817
35.505332
35.13544
34.822388
34.533385
34.254368
33.984714
33.730761
33.483638
33.241035
33.001034
32.750577
32.481129
31.987273
31.090055
30.702412
30.458519
30.370867
30.294863
30.119536
29.838186
29.591541
29.466652
29.328933
29.112152
28.917795
28.747151
28.590524
28.442422
28.296262
28.158088
28.028565
27.892767
27.750221
27.504923
26.999053
26.838815
26.785805
26.745375
26.645499
26.471858
26.31659
26.244213
26.170385
26.046109
25.933777
25.836717
25.762451
25.699548
25.640193
25.589006
25.577697
25.524362
25.592697
29.541419
30.929494
29.027272
26.785196
26.096909
25.572872
25.089075
24.611953
24.148771
23.696782
23.260717
22.840551
22.436707
22.048491
8.153273
8.1949223
8.2370714
8.2797059
8.3228015
8.366322
8.4102188
8.454433
8.4989033
8.5435794
8.5884337
8.6334703
8.6787263
8.7242655
8.7701718
38.382649
38.128725
38.205673
38.66781
38.756894
39.502601
39.653845
41.171218
41.453776
43.977998
44.506623
45.431815
46.783542
47.779881
47.846721
48.962893
49.03462
49.359354
49.371847
49.418922
49.382219
49.086445
48.983807
48.164431
48.337419
48.624385
48.688855
48.674113
48.655802
48.40023
48.279772
47.35922
47.231524
46.063797
45.369617
44.022988
43.363083
41.178115
40.661034
39.337449
39.062679
38.407608
38.244494
37.816622
37.796394
37.702031
37.540692
36.968795
36.558986
36.380843
36.535251
36.733227
37.145148
37.418417
37.868505
38.353047
38.744996
39.837032
40.581763
42.364261
43.198738
44.405602
45.096797
45.61394
46.531816
46.666389
46.78319
46.772376
46.721904
46.58056
46.307209
46.399048
46.799413
47.275894
47.459556
47.751649
47.843239
47.849199
47.835342
47.631433
47.465574
46.601498
45.998401
45.256159
44.685573
43.427885
42.654205
40.740951
40.07171
38.90818
38.558322
38.008686
37.729642
37.290165
37.172978
36.747893
36.910155
37.281648
35.988503
35.591326
35.391598
35.226548
35.2117
35.819173
37.048422
37.666516
37.719497
36.337099
32.106262
33.792615
9.2608666
9.211016
9.1621207
9.1140923
9.0668185
9.0201698
8.9740079
8.9281971
8.8826075
8.8371276
8.7916749
8.746195
8.7006668
8.6550994
8.6095256
8.563995
8.5185661
8.4732989
8.4282496
8.3834682
8.3389968
8.2948688
8.25111
8.2077393
8.2142459
8.2576464
8.30144
8.3456087
8.3901265
8.4349596
8.4800639
8.5253879
8.5708736
8.6164581
8.6620787
8.7076824
8.753233
8.7987191
8.8441604
8.8896107
8.9351525
8.9808972
9.0269751
9.0735214
9.1206742
9.1685619
9.2172963
9.2669651
9.280346
9.2310631
9.1826696
9.1350801
9.0881851
9.041858
8.9959631
8.950366
8.9049364
8.8595632
8.8141641
8.7686865
8.7231135
8.677461
8.6317719
8.5861068
8.540535
8.4951251
8.4499395
8.4050331
8.3604517
8.3162302
8.2723948
8.228963
8.2548459
8.2982615
8.3420996
8.3863421
8.4309633
8.4759269
8.5211852
8.5666791
8.6123387
8.6580866
8.7038433
8.7495365
8.7951123
8.8405475
8.8858555
8.9310882
8.9763275
9.0216837
9.0672862
9.1132677
9.1597587
9.2068801
9.2547355
9.3034048
9.3396151
9.2918526
9.2447935
9.1983689
9.1524865
9.1070352
9.0618936
9.0169337
8.9720275
8.9270659
8.8819655
8.8366748
8.7911838
8.7455252
8.699769
8.6540054
8.6083297
8.5628317
8.5175904
8.4726706
8.4281224
8.3839826
8.3402763
8.2970196
8.3653345
8.408132
8.4514112
8.4951599
8.5393559
8.5839631
8.6289294
8.6741837
8.7196361
8.7651799
8.8106981
8.8560743
8.9012156
8.9460791
8.990675
9.0350582
9.0793157
9.1235569
9.1679066
9.212485
9.2574005
9.3027491
9.3486061
9.3950236
9.4824872
9.4382259
9.3943321
9.3507787
9.3075145
9.2644662
9.2215461
9.1786494
9.1356593
9.0924668
9.0489766
9.0051229
8.9608844
8.9163089
8.8715199
8.8266721
8.7819125
8.7373692
8.6931462
8.6493206
8.6059452
8.5630527
8.5206596
8.4787703
8.6719786
8.7126278
8.7537682
8.7954079
8.8375408
8.8801393
8.9231523
8.966496
9.0100481
9.0536536
9.0971242
9.1402499
9.1828695
9.2249547
9.2665668
9.3077913
9.3487245
9.3894564
9.4300663
9.4706099
9.5111272
9.5516452
9.5921759
9.6327121
9.9211618
9.8863162
9.8505452
9.8139421
9.7766127
9.7386825
9.7002725
9.6614871
9.6223945
9.5830083
9.5432683
9.5030481
9.4621586
9.4205224
9.3783205
9.3358344
9.2933059
9.250924
9.2088333
9.1671301
9.125868
9.0850646
9.0447131
9.0047888
9.5741823
9.6163639
9.6588827
9.7017866
9.7450888
9.7887705
9.8327633
9.8769366
9.9211029
9.9650281
10.008418
10.050924
10.092475
10.133593
10.174952
10.216866
10.259254
10.301672
10.343588
10.38444
10.423562
10.460274
10.49406
10.524636
11.832878
11.785206
11.730764
11.669712
11.603715
11.535313
11.466702
11.399369
11.334662
11.27428
11.218702
11.166855
11.116226
11.064748
11.011968
10.958264
10.903953
10.849327
10.794679
10.740248
10.686193
10.632594
10.579444
10.526688
12.04706
12.128726
12.211546
12.295596
12.380795
12.466919
12.553557
12.640156
12.726095
12.810954
12.894266
12.975102
13.055098
13.140532
13.240546
13.35994
13.497252
13.646815
13.807591
13.977456
14.148695
14.311502
14.462929
14.612311
8.9145489
8.8646152
8.8152492
8.7664204
8.7180974
8.6702495
8.622849
8.5758712
8.5292957
8.4831076
8.4372959
8.3918545
8.3467809
8.3020758
8.2577416
8.2137821
8.1702015
8.1270038
8.0841927
8.2073867
8.206698
8.2056234
8.2041697
8.2023869
8.2003313
8.198045
8.1955597
8.192905
8.1901147
8.1872249
8.0880265
8.0863033
8.085162
8.0844933
8.1273054
8.1279761
8.1291216
8.1308527
8.1332452
8.1363256
8.1400879
8.2064401
8.2095768
8.2126103
8.2156027
8.2185898
8.2215866
8.2245906
8.2275865
8.2305483
8.2334447
8.2362406
8.2388998
8.2413888
8.2436785
8.2457377
8.2475249
8.248984
8.2500635
8.2507553
8.294512
8.2938172
8.2927327
8.2912683
8.2894765
8.2874137
8.2851204
8.2826272
8.2799628
8.2771606
8.2742564
8.2712854
8.2682789
8.2652624
8.2622513
8.2592482
8.2562387
8.2531868
8.2500318
8.2466852
8.2430361
8.2389675
8.2343809
8.2292272
8.2235321
8.2174085
8.2110472
8.2046867
8.1985735
8.192907
8.1878148
8.1833612
8.1795756
8.1764753
8.1740678
8.1723275
8.1711773
8.1705043
8.2140862
8.2147617
8.2159171
8.2176676
8.2200917
8.223214
8.227025
8.2315053
8.2366246
8.2423183
8.2484588
8.2548469
8.2612344
8.2673811
8.2730951
8.2782645
8.282865
8.2869477
8.2906126
8.2939771
8.2971516
8.3002233
8.3032517
8.3062727
8.3092998
8.3123305
8.315349
8.3183304
8.3212437
8.3240532
8.3267234
8.3292211
8.3315181
8.3335846
8.3353809
8.3368508
8.3379402
8.3386381
8.3831073
8.3824066
8.3813124
8.3798373
8.3780366
8.3759664
8.3736656
8.3711629
8.3684862
8.3656684
8.3627453
8.359752
8.3567199
8.3536733
8.3506284
8.3475877
8.3445384
8.3414455
8.3382508
8.3348683
8.3311893
8.3270958
8.3224871
8.3173096
8.3115854
8.3054243
8.2990188
8.2926091
8.2864451
8.2807262
8.2755801
8.2710722
8.2672346
8.264089
8.2616473
8.2598859
8.2587251
8.2580471
8.3023826
8.3030629
8.304229
8.3060014
8.308461
8.3116304
8.3154946
8.3200291
8.3251999
8.33094
8.3371211
8.3435434
8.3499564
8.3561203
8.3618437
8.3670199
8.3716298
8.3757298
8.379421
8.3828208
8.386036
8.3891516
8.3922234
8.3952856
8.39835
8.4014142
8.4044616
8.4074681
8.4104022
8.4132291
8.4159129
8.4184208
8.4207254
8.4227992
8.4246042
8.4260844
8.4271834
8.427887
8.4729349
8.4722288
8.4711251
8.4696401
8.4678311
8.4657542
8.463446
8.4609327
8.4582414
8.4554045
8.4524585
8.4494375
8.4463733
8.4432899
8.4402042
8.437119
8.4340231
8.4308842
8.4276482
8.4242322
8.4205321
8.4164313
8.4118288
8.4066651
8.400956
8.3948041
8.3883977
8.3819748
8.3757864
8.3700321
8.3648411
8.3602827
8.3563935
8.3532015
8.3507244
8.3489417
8.3477708
8.3470887
8.3921628
8.3928458
8.3940202
8.3958118
8.3983045
8.4015168
8.4054273
8.4100044
8.415208
8.4209664
8.4271488
8.4335561
8.439938
8.4460596
8.4517379
8.4568751
8.4614601
8.4655544
8.4692591
8.4726892
8.4759454
8.479108
8.4822287
8.4853382
8.4884464
8.4915503
8.4946324
8.4976688
8.5006275
8.5034748
8.5061739
8.5086924
8.5110038
8.5130832
8.5148955
8.5163849
8.517493
8.5182014
8.5636302
8.5629197
8.5618076
8.5603145
8.5584997
8.5564186
8.5541047
8.5515815
8.548875
8.5460174
8.5430456
8.5399935
8.5368929
8.533768
8.5306363
8.527502
8.5243564
8.5211707
8.5178958
8.514455
8.5107511
8.5066722
8.5021176
8.4970236
8.4913964
8.4853273
8.4789922
8.4726211
8.4664621
8.4607136
8.4555082
8.4509203
8.4469944
8.4437662
8.441261
8.4394627
8.4382868
8.4376042
8.483415
8.4840955
8.4852705
8.4870719
8.4895852
8.4928234
8.4967566
8.5013443
8.5065377
8.5122583
8.5183719
8.5246817
8.530943
8.5369333
8.5424854
8.5475163
8.5520253
8.5560779
8.5597735
8.5632201
8.5665107
8.5697178
8.5728875
8.5760462
8.5792009
8.5823467
8.5854657
8.5885333
8.5915177
8.5943851
8.5970984
8.5996252
8.6019405
8.6040218
8.6058377
8.6073334
8.6084486
8.609161
8.6547358
8.6540219
8.6529048
8.6514079
8.6495926
8.647513
8.6451984
8.6426696
8.639951
8.6370754
8.6340797
8.630998
8.6278619
8.6246964
8.6215201
8.6183389
8.6151473
8.6119219
8.6086201
8.6051743
8.6014968
8.5974839
8.5930384
8.5880935
8.5826434
8.5767623
8.5706056
8.5643865
8.5583439
8.5526726
8.5475086
8.5429345
8.5390042
8.5357639
8.5332485
8.5314482
8.530277
8.5296009
8.576173
8.5768421
8.5780051
8.5797989
8.5823093
8.5855425
8.5894576
8.5940024
8.5991172
8.6047151
8.6106579
8.6167539
8.622772
8.6285107
8.6338288
8.6386627
8.6430247
8.6469827
8.6506308
8.6540671
8.6573736
8.6606122
8.6638216
8.6670218
8.6702167
8.6733989
8.6765494
8.6796427
8.6826471
8.6855284
8.6882496
8.6907777
8.6930889
8.695164
8.6969762
8.6984724
8.6995902
8.7003049
8.745835
8.7451202
8.7440035
8.7425106
8.7407048
8.7386378
8.736334
8.7338104
8.7310906
8.7282077
8.7251988
8.7220983
8.7189378
8.7157434
8.7125348
8.709321
8.7060998
8.7028549
8.6995521
8.6961356
8.6925301
8.6886438
8.6843868
8.6796904
8.6745355
8.6689732
8.6631292
8.6571902
8.6513772
8.6458786
8.640834
8.6363356
8.6324495
8.6292342
8.6267366
8.6249554
8.6238053
8.6231462
8.6705401
8.6711857
8.6723183
8.6740801
8.6765558
8.679742
8.6835851
8.6880198
8.6929732
8.6983473
8.7040008
8.7097499
8.7153856
8.7207378
8.7256997
8.7302325
8.7343632
8.7381601
8.7417086
8.7450934
8.7483821
8.7516242
8.754849
8.7580691
8.7612843
8.7644842
8.7676482
8.7707497
8.7737572
8.776636
8.7793491
8.7818627
8.7841541
8.7862082
8.7880033
8.7894898
8.7906034
8.7913172
8.8367725
8.836061
8.8349531
8.8334769
8.8316975
8.8296623
8.8273896
8.8248925
8.8221934
8.8193263
8.8163282
8.8132339
8.810075
8.8068787
8.8036663
8.8004499
8.7972319
8.7940038
8.7907411
8.7874015
8.783925
8.7802345
8.77625
8.7719037
8.7671618
8.7620485
8.7566512
8.7511209
8.7456528
8.7404259
8.7355837
8.7312296
8.7274436
8.7242982
8.7218536
8.7201182
8.7190084
8.7183796
8.7666925
8.7673011
8.7683827
8.7700847
8.7724891
8.7755826
8.7792985
8.7835574
8.7882724
8.7933337
8.7985959
8.8038849
8.8090207
8.8138725
8.8183733
8.8225141
8.8263351
8.8299033
8.8332935
8.8365745
8.839798
8.8429997
8.8461986
8.8493998
8.8525981
8.8557798
8.858923
8.8619998
8.8649788
8.8678251
8.8705014
8.872974
8.8752204
8.8772297
8.8789872
8.8804483
8.8815478
8.8822557
8.9278491
8.9271462
8.9260581
8.9246171
8.9228885
8.9209131
8.9187019
8.9162638
8.9136208
8.9108065
8.9078586
8.9048117
8.9016972
8.8985434
8.8953729
8.892201
8.8890352
8.885874
8.8827035
8.879495
8.8762044
8.8727711
8.869126
8.8652032
8.8609559
8.8563785
8.8515173
8.8464825
8.8414384
8.8365543
8.8319778
8.827825
8.82419
8.8211586
8.8188032
8.817142
8.8160939
8.8155094
8.8648616
8.8654184
8.8664274
8.8680409
8.870339
8.8732994
8.8768446
8.8808831
8.8853151
8.8900183
8.894842
8.8996215
8.9042072
8.9085089
8.9125005
8.9162012
8.919664
8.9229539
8.926134
8.9292573
8.932361
8.9354671
8.9385847
8.9417122
8.9448397
8.9479507
8.9510221
8.9540251
8.9569287
8.9596983
8.9622963
8.9646891
8.9668551
8.9687873
8.9704791
8.9718941
8.9729673
8.973664
9.0198301
9.019141
9.0180862
9.0167034
9.0150567
9.0131772
9.0110672
9.008731
9.0061901
9.0034784
9.000633
8.9976883
8.9946751
8.9916221
8.988553
8.9854852
8.9824307
8.979394
8.9763702
8.9733427
8.9702809
8.9671388
8.9638581
8.9603752
8.9566314
8.9525948
8.9482731
8.9437383
8.9391268
8.9346006
8.9303131
8.9263926
8.9229437
8.9200618
8.9178287
8.9162696
8.9153049
8.9147795
9.0241768
9.0271096
9.0300636
9.0330405
9.0360333
9.0390285
9.0420079
9.0449476
9.0478189
9.0505917
9.053232
9.0557029
9.0579706
9.0600142
9.0618312
9.0634248
9.0647692
9.0658022
9.0664826
9.1137599
9.1130893
9.1120812
9.1107811
9.1092487
9.1075032
9.1055366
9.1033488
9.1009601
9.0984041
9.0957172
9.0929329
9.0900807
9.0871889
9.0842814
9.0813769
9.07849
9.1334037
9.1362126
9.1390055
9.1417588
9.1444446
9.1470342
9.1494951
9.1517912
9.1538893
9.15577
9.1574356
9.1588998
9.1601504
9.161131
9.161791
9.210688
9.210039
9.2090878
9.2078906
9.2065
9.2049207
9.2031327
9.2011314
9.1989355
9.1965775
9.1940926
9.1915129
9.1888657
9.1861783
9.2493483
9.251441
9.2533421
9.2550341
9.256524
9.2578378
9.2589793
9.2599006
9.260539
9.2666999
9.2170301
9.1682933
9.1204023
9.0732458
9.0266957
8.9806142
8.9348661
8.8893216
8.8438692
8.7984262
8.7529383
8.707386
8.6617807
8.6161588
8.5705738
8.5250875
8.4797629
8.4346587
8.3898265
8.3453093
8.3011413
8.2573484
8.2139492
14.25426
14.392973
14.535302
14.681415
14.831128
14.983987
15.139172
15.295734
15.452919
15.609725
15.764771
15.915106
16.067101
16.243431
16.47107
16.794927
17.087264
17.421275
17.804106
18.265557
18.745989
19.15834
19.464424
19.755253
20.151784
20.61219
9.2802245
9.2309408
9.1825451
9.1349523
9.0880538
9.0417234
8.9958255
8.9502255
8.904794
8.8594194
8.8140188
8.7685391
8.7229632
8.6773075
8.6316153
8.5859473
8.5403724
8.4949592
8.4497712
8.404863
8.3602798
8.3160568
8.2722201
8.2287882
16.914526
17.122734
17.336924
17.557251
17.783413
18.01466
18.249835
18.488132
18.730188
18.976541
19.215724
19.363881
19.311419
19.281821
19.337591
20.879852
21.231525
21.547385
21.906058
22.173829
22.52031
22.856356
23.387186
23.941438
24.697336
25.346787
26.066144
26.655216
27.260416
27.432256
27.702275
27.989903
28.585425
29.301967
30.615963
24.329887
24.340682
25.796219
27.133583
22.172894
9.3035319
9.2548617
9.2070038
9.159879
9.1133845
9.0673998
9.021794
8.976435
8.9311942
8.8859606
8.8406504
8.7952119
8.7496316
8.7039332
8.6581706
8.6124167
8.5667512
8.521252
8.4759892
8.4310222
8.3863983
8.342154
8.2983151
8.2548996
22.118209
22.512751
22.92294
23.34931
23.791929
24.250065
24.722265
25.207607
25.706215
26.236459
26.920545
28.582479
30.42013
29.142724
25.695628
25.63095
25.734069
25.816797
25.911729
26.014922
26.129114
26.247199
26.375848
26.517114
26.668612
26.814031
26.920878
27.171485
27.324446
27.643573
27.801847
28.071216
28.171289
28.286692
28.269013
28.132064
27.991345
27.693174
27.468959
27.07578
26.795724
26.357279
26.04977
25.615495
25.302129
24.874302
24.573491
24.191231
23.910259
23.557127
23.300166
22.991792
22.753216
22.458096
22.232939
21.965522
21.755076
21.50338
21.312655
21.095371
20.923153
20.722055
20.567402
20.39442
20.257377
20.100009
19.979174
19.846935
19.741643
19.621861
19.529143
19.427634
19.345991
19.254957
19.185077
19.109819
19.049904
18.987107
18.939379
18.892169
18.856946
18.822723
18.798013
18.775653
18.759775
18.746347
18.738357
18.734124
18.73292
18.736075
18.743103
18.759454
18.784494
18.829573
18.916608
18.941856
18.976593
19.00635
19.048801
19.088732
19.148901
19.210361
19.302946
19.397211
19.543897
19.699422
19.937594
20.177282
20.533126
20.890318
21.416992
21.90936
22.597223
23.224482
24.081508
24.773574
25.628972
26.285116
27.082541
27.637056
28.228655
28.505234
28.634522
28.547661
28.414967
28.391138
28.266341
27.955162
27.381745
26.8037
26.049616
25.373306
24.568008
23.859254
23.055484
22.415226
21.767553
21.265013
20.766433
20.399926
20.061566
19.816078
19.591022
19.433799
19.293201
19.193862
19.105728
19.043738
18.987836
18.94856
18.910161
18.880954
18.84802
18.820097
18.730349
18.704475
18.682802
18.667875
18.661222
18.659196
18.661417
18.666982
18.675929
18.689321
18.705062
18.72677
18.751424
18.784704
18.820188
18.865916
18.913165
18.975216
19.037337
19.10966
19.178665
19.265966
19.347462
19.443882
19.536058
19.650384
19.755148
19.880435
20.000153
20.148995
20.28455
20.448758
20.601709
20.791926
20.963252
21.170743
21.362317
21.601702
21.812116
22.067053
22.293148
22.574098
22.814947
23.109312
23.367357
23.703007
23.988689
24.353721
24.662163
25.070092
25.391753
25.806342
26.123745
26.54063
26.832355
27.207659
27.443499
27.72874
27.878062
28.012057
28.033516
27.932044
27.832933
27.589892
27.428272
27.130319
26.974661
26.752114
26.645767
26.489448
26.350262
26.220734
26.098049
25.985026
25.879708
25.78746
25.679998
25.766964
25.733903
25.848638
25.951282
26.066073
26.186808
26.315853
26.451085
26.593323
26.792475
26.630389
26.477991
26.334513
26.199932
26.072823
25.956329
25.830223
25.931744
25.943878
26.079211
26.205671
26.339929
26.482055
26.631731
26.787068
26.951349
27.227919
27.04283
26.869507
26.704281
26.545711
26.398537
26.25829
26.112698
26.215907
26.237579
26.390856
26.53741
26.691278
26.85698
27.030008
27.207094
27.393119
27.611864
27.405947
27.212021
27.025208
26.8473
26.680476
26.524658
26.358323
26.418196
26.41122
26.581057
26.744026
26.919199
27.103801
27.301257
27.500002
27.709681
27.796276
27.574282
27.365614
27.160807
26.969318
26.787119
26.616047
26.442462
26.451416
26.375135
26.548931
26.722254
26.910966
27.110555
27.325456
27.542675
27.770481
27.638518
27.413858
27.197289
26.988599
26.790011
26.602165
26.434941
26.266005
26.229845
26.079187
26.238505
26.406474
26.599545
26.804665
27.02242
27.248152
27.481074
27.207065
26.983553
26.765485
26.556904
26.357155
26.169689
26.002311
25.852388
25.799736
25.573836
25.713725
25.890194
26.080123
26.284214
26.502263
26.727982
26.962067
26.602979
26.382063
26.16915
25.964842
25.769884
25.588882
25.419489
25.284319
25.231431
24.962355
25.092913
25.259871
25.441478
25.639626
25.851027
26.071019
26.301811
25.903022
25.689422
25.48393
25.284753
25.095246
24.920623
24.764763
24.64112
24.600341
24.308202
24.423755
24.576346
24.751712
24.941021
25.145388
25.355893
25.575759
25.178103
24.975018
24.778263
24.58819
24.411186
24.244339
24.100811
23.990803
23.967884
23.666271
23.765201
23.907142
24.072538
24.24689
24.437306
24.640841
24.85159
24.465564
24.272301
24.081442
23.904572
23.739847
23.581975
23.448056
23.357311
23.356343
23.052373
23.140619
23.270577
23.42138
23.584942
23.765967
23.955656
24.149102
23.796627
23.619903
23.445861
23.275648
23.121262
22.982244
22.86059
22.774072
22.79625
22.502491
22.575984
22.694796
22.833427
22.982942
23.15065
23.328314
23.51076
23.192738
23.023448
22.855975
22.700002
22.55878
22.425188
22.315723
22.249123
22.291009
22.001433
22.067098
22.169022
22.297202
22.43864
22.594276
22.759217
22.929256
22.645453
22.486348
22.33376
22.188178
22.052633
21.932384
21.837834
21.773932
21.83321
21.551179
21.608555
21.69941
21.814787
21.946144
22.090477
22.242747
22.403959
22.136542
21.987538
21.845558
21.709802
21.586761
21.477395
21.391595
21.339142
21.412782
21.132093
21.180643
21.263419
21.36918
21.488406
21.621951
21.762195
21.910056
21.666497
21.529271
21.399042
21.275681
21.163427
21.063953
20.987191
20.941021
21.035454
20.756124
20.79772
20.868799
20.962832
21.072095
21.191778
21.31934
21.456987
21.230352
21.103297
20.984245
20.873096
20.770891
20.682491
20.617344
20.579584
20.687231
20.410932
20.445041
20.506199
20.590339
20.687371
20.797711
20.91557
21.03878
20.839297
20.72672
20.616797
20.512293
20.423158
20.343167
20.286036
20.255975
20.379189
20.108717
20.134221
20.18757
20.264822
20.350772
20.449764
20.558549
20.671528
20.493103
20.386381
20.28419
20.195174
20.114655
20.04116
19.992228
19.970814
20.11225
19.841
19.85943
19.904936
19.972736
20.050091
20.137768
20.236145
20.340954
20.183205
20.085542
19.995782
19.912911
19.84025
19.778021
19.735939
19.71994
19.869945
19.604767
19.618781
19.657326
19.716024
19.785724
19.865347
19.953408
20.048304
19.906244
19.818974
19.736788
19.662744
19.597635
19.542133
19.507442
19.495544
19.653937
19.393241
19.403549
19.435319
19.487784
19.550001
19.621927
19.701773
19.787218
19.667383
19.587221
19.512094
19.444219
19.38528
19.335639
19.306691
19.29853
19.469868
19.209327
19.215516
19.241942
19.289155
19.345861
19.411557
19.485198
19.563713
19.454628
19.380476
19.311481
19.249069
19.195693
19.151692
19.127754
19.124004
19.306337
19.042883
19.046118
19.068304
19.109642
19.160923
19.222211
19.289401
19.362901
19.270561
19.199858
19.136053
19.077348
19.028095
18.98971
18.968509
18.966768
19.152491
18.896442
18.895336
18.916231
18.951724
19.000336
19.055937
19.119958
19.191294
19.108301
19.039487
18.977482
18.925163
18.877827
18.844922
18.825876
18.828122
19.0124
18.762916
18.763476
18.779499
18.810115
18.857259
18.909979
18.968159
19.036711
18.965972
18.899901
18.84433
18.793152
18.747815
18.716335
18.702931
18.704424
18.893392
18.652992
18.646404
18.658108
18.692747
18.735326
18.783287
18.842172
18.907549
18.848661
18.785174
18.726785
18.680294
18.639863
18.605104
18.59304
18.603024
18.804047
18.556213
18.54704
18.559845
18.592479
18.632003
18.679698
18.736591
18.798557
18.753233
18.692522
18.637347
18.589928
18.550605
18.51962
18.506983
18.51528
18.732568
18.482426
18.473844
18.485778
18.515457
18.554892
18.601912
18.656493
18.717988
18.685791
18.624295
18.570855
18.524238
18.484518
18.456093
18.444941
18.453643
18.67534
18.429519
18.420746
18.431882
18.459756
18.499275
18.54593
18.599085
18.660782
18.63889
18.57811
18.525197
18.478282
18.439646
18.411348
18.39941
18.409049
18.633681
18.393458
18.382707
18.39532
18.424013
18.461534
18.508922
18.562425
18.622584
18.608951
18.549441
18.495704
18.448066
18.410988
18.381847
18.368829
18.381062
18.607825
18.372407
18.35964
18.371882
18.40108
18.438712
18.486167
18.540061
18.599979
18.594769
18.534042
18.479824
18.432737
18.393866
18.364664
18.352777
18.364295
18.593861
18.358421
18.348663
18.360543
18.389625
18.42925
18.476391
18.531172
18.592829
18.594034
18.531634
18.476239
18.428094
18.387573
18.357813
18.344857
18.354107
18.588267
18.353092
18.343285
18.357677
18.388238
18.42959
18.479416
18.535439
18.598959
18.610913
18.545629
18.488055
18.435777
18.393146
18.360804
18.343806
18.353552
18.587675
18.355212
18.34766
18.366959
18.40145
18.445821
18.500867
18.56112
18.628971
18.651929
18.58138
18.517637
18.459854
18.412853
18.375663
18.35402
18.358831
18.597069
18.366164
18.362965
18.385887
18.425994
18.475645
18.53607
18.603673
18.67725
18.758285
18.788379
18.705434
18.628934
18.557819
18.495128
18.442774
18.399498
18.375228
18.377155
18.618014
18.392353
18.391437
18.41698
18.461997
18.51661
18.581164
18.654132
18.732549
18.816763
18.853102
18.76679
18.685839
18.611317
18.544542
18.487662
18.441702
18.41395
18.413367
18.655596
18.441512
18.443349
18.472464
18.518968
18.577827
18.646457
18.721841
18.804616
18.892434
18.945809
18.856401
18.771379
18.693807
18.623832
18.562728
18.51394
18.484681
18.481746
18.731859
18.534689
18.538565
18.565891
18.61861
18.681511
18.7509
18.831842
18.918521
19.006726
19.09161
19.000517
18.912711
18.829831
18.757493
18.693219
18.638381
18.607327
18.602158
18.873366
18.687438
18.691878
18.730113
18.785352
18.849027
18.9262
19.009463
19.096333
19.191216
19.327124
19.228232
19.138911
19.053597
18.97367
18.907773
18.850449
18.808666
18.801335
19.102555
18.948731
18.960375
19.002253
19.061587
19.129286
19.208165
19.294394
19.387589
19.48665
19.704804
19.600316
19.501711
19.411982
19.332317
19.265018
19.214383
19.156034
19.141132
19.450617
19.398155
19.429832
19.427016
19.442036
19.684972
19.997516
20.378455
20.817423
21.314622
21.869037
22.468136
23.086838
23.709779
24.329587
24.930317
25.498069
26.010021
26.434704
26.746451
26.967718
26.996493
26.934346
26.866496
26.599679
26.251008
25.811566
25.298806
24.741803
24.156619
23.554169
22.947271
22.343724
21.762655
21.225958
20.744181
20.320437
19.950753
19.643208
19.634201
19.630253
19.982079
19.934272
19.935551
20.294125
20.300353
20.708942
20.701167
20.705945
21.168107
21.17016
21.606757
21.66763
21.690814
22.251356
22.221929
22.623799
22.778968
22.838909
23.419797
23.34944
23.658232
23.911987
24.008443
24.574255
24.469894
24.687318
25.005508
25.124944
25.630719
25.527215
25.718267
25.959251
26.077536
26.470038
26.471246
26.116727
26.368496
28.335454
27.033884
25.553711
24.701062
23.99932
23.172194
22.411995
21.778092
21.294096
20.981703
20.776205
20.670816
20.625142
20.601688
20.608543
20.625984
20.637054
20.674132
20.718744
20.756466
20.808123
20.896569
21.024973
21.154401
21.310551
21.460151
21.635282
21.846316
22.082769
22.317364
22.574318
22.898109
23.244647
23.629545
24.058828
24.513369
25.029051
25.573194
26.187779
26.864701
27.583491
28.320837
28.994082
29.545243
29.918856
29.92728
29.858351
29.518283
29.432806
30.507801
28.652456
27.111035
28.729768
30.666592
30.897681
28.983206
27.508889
29.110028
30.988783
30.903963
29.080348
27.469957
28.79261
30.535303
29.917152
28.280049
26.658809
27.656935
29.198873
28.429554
26.959336
25.454336
26.288253
27.693134
26.999298
25.628235
24.254141
25.05069
26.376919
25.817468
24.503994
23.222431
24.029001
25.30375
24.840717
23.571685
22.352115
23.175706
24.411399
24.020851
22.791426
21.625403
22.469671
23.674243
23.34531
22.153905
21.036061
21.904254
23.077689
22.833962
21.663658
20.571579
21.454561
22.600233
22.384089
21.249946
20.19238
21.086739
22.204116
22.041575
20.928571
19.897553
20.795466
21.889532
21.748264
20.669056
19.673408
20.569127
21.622981
21.522905
20.485945
19.528574
20.433144
21.455642
21.412964
20.392004
19.450155
20.362586
21.372775
21.338672
20.336292
19.410334
20.327261
21.324972
21.31145
20.320578
19.411557
20.327954
21.308016
21.333804
20.359419
19.493852
20.422233
21.384709
21.493586
20.545034
19.77563
20.757862
21.705736
22.035049
21.090181
20.462186
21.564036
22.516222
23.133446
22.182601
21.714418
22.954847
23.873557
24.671392
23.799864
23.563619
24.788866
25.615521
27.03259
26.927528
25.210956
24.691143
24.554783
23.116218
21.26514
20.028525
19.34377
19.053825
18.965422
18.961899
19.00048
19.077774
19.2179
19.434505
19.722443
20.092309
20.54741
21.12184
21.829331
22.676864
23.678836
24.834959
25.9838
26.749071
26.787431
26.425481
25.877756
25.359349
24.856558
24.369802
23.899306
23.445567
23.008839
22.588741
22.184592
22.270516
22.694884
23.136828
23.597616
24.077315
24.576645
25.097967
25.636016
26.194934
26.144207
25.572316
25.022331
24.494347
23.987334
23.500687
23.033768
22.585637
22.155383
21.574676
21.98812
22.418707
22.868062
23.33579
23.82335
24.335087
24.861904
25.40902
24.302026
23.794111
23.304674
22.834649
22.383443
21.950409
21.535006
21.136267
20.753163
19.860035
20.217809
20.590489
20.979556
21.384871
21.807575
22.251102
22.709042
23.183124
22.208494
21.762026
21.332018
20.919356
20.523535
20.144003
19.780074
19.431031
19.095825
18.424833
18.742345
19.073295
19.418607
19.778928
20.155114
20.5493
20.958323
21.383352
20.694799
20.289272
19.899792
19.526604
19.168988
18.826284
18.497764
18.182887
17.880704
17.425678
17.715896
18.01848
18.334421
18.664101
19.008364
19.368551
19.744007
20.135209
19.690035
19.309465
18.944874
18.596131
18.262399
17.942963
17.637044
17.343902
17.041922
17.327167
17.625016
17.936146
18.261365
18.601496
18.957323
19.329109
19.047628
18.682649
18.333733
18.000442
17.681843
17.37718
17.085663
16.806505
16.633002
16.907488
17.194046
17.49358
17.806833
18.134446
18.477731
18.836998
18.700179
18.344081
18.003811
17.678787
17.368108
17.07105
16.786903
16.514812
16.443694
16.714757
16.997964
17.294084
17.603875
17.927943
18.26767
18.623369
18.584953
18.229306
17.88962
17.565359
17.255644
16.959736
16.676901
16.406256
16.417645
16.687114
16.968799
17.263508
17.572095
17.895384
18.234339
18.589378
18.681517
18.329619
17.993454
17.672608
17.366225
17.073483
16.793472
17.093856
17.375193
17.66845
17.974591
18.29463
18.627799
18.976304
19.658067
19.312195
18.97453
18.645152
18.327317
18.022074
17.728404
18.806053
19.125942
19.458011
19.804587
20.170474
20.543151
20.886352
22.726963
22.351068
21.881617
21.504641
21.149445
20.809428
20.478882
23.4928
23.784273
24.042188
24.267544
24.479043
25.631577
26.276547
26.5349
26.757855
27.062465
27.464457
27.965374
28.436621
28.768722
29.190949
32.343204
31.473067
29.176906
29.574585
32.00912
34.519226
34.695851
32.51543
31.3243
32.785457
34.606284
34.616587
33.445018
30.788146
27.25924
26.777359
26.779543
26.887219
26.867599
27.156485
28.660025
30.520601
31.553726
31.502034
31.624978
33.092102
33.512974
32.25877
31.605879
31.620243
32.216222
31.666193
31.694396
31.363165
29.153176
29.551769
29.938522
31.640982
32.519622
32.308953
31.866276
31.647635
30.709119
30.229242
29.5318
29.163435
29.199213
29.504668
29.751006
30.471959
27.338677
28.058104
30.041685
31.101304
41.678657
41.380746
40.339402
38.970665
39.111612
38.435301
37.856518
36.924585
35.536574
34.654255
33.814104
32.763141
33.106672
35.25786
37.324404
38.379633
40.669434
45.259432
49.575371
45.097518
42.638132
44.952177
45.6917
47.768378
45.990403
46.516607
43.954132
47.083683
48.587889
39.609664
33.032767
29.094703
25.881689
24.563438
23.571346
23.95014
24.058966
25.793149
26.218986
26.608376
25.051624
24.02285
22.439782
20.15698
18.657361
17.867224
17.53478
17.419564
17.391076
17.411944
17.477241
17.59713
17.795223
18.086762
18.476574
18.971363
19.590085
20.346627
21.227691
22.215437
23.248249
24.088054
24.396489
24.051041
23.383276
22.965705
22.346407
24.154719
23.937018
23.559969
23.599126
23.666576
23.832782
24.115744
24.697429
25.195631
25.72961
26.087451
27.047747
27.377904
27.540671
27.665657
27.792629
27.925236
28.070043
28.22047
28.385421
28.559397