/*--------------------------------*- C++ -*----------------------------------*\
| =========                 |                                                 |
| \\      /  F ield         | OpenFOAM: The Open Source CFD Toolbox           |
|  \\    /   O peration     | Version:  v2012                                 |
|   \\  /    A nd           | Website:  www.openfoam.com                      |
|    \\/     M anipulation  |                                                 |
\*---------------------------------------------------------------------------*/
FoamFile
{
    version     2.0;
    format      ascii;
    class       surfaceScalarField;
    location    "184";
    object      phi;
}
// * * * * * * * * * * * * * * * * * * * * * * * * * * * * * * * * * * * * * //

dimensions      [0 3 -1 0 0 0 0];
oriented        oriented;


internalField   nonuniform List<scalar> 
71947
(
0.001187691
0.00042120092
0.00025172101
0.00039675234
0.00020395336
0.00058698528
0.00019741148
0.00013376422
6.557664e-05
0.00023058994
3.9428481e-06
-3.7121305e-05
0.0003023738
-3.0841116e-05
-4.0942744e-05
0.00035362049
-2.6720796e-05
-2.4525897e-05
0.00024434985
-4.3476759e-06
0.00011361832
0.0002572473
-1.5564171e-06
-1.1341036e-05
0.00029872624
-4.0596426e-05
-8.8251691e-07
0.00033080673
-2.8043748e-05
-4.0367402e-06
0.00034981486
-1.6840579e-05
-2.1675479e-06
0.00036197833
-1.1067144e-05
-1.0963278e-06
0.00037021361
-7.8292511e-06
-4.0602952e-07
0.00037498089
-5.3122235e-06
5.449439e-07
0.00037659761
-3.348373e-06
1.7316588e-06
0.00037352203
-9.2725632e-07
4.002831e-06
0.00036288098
1.750639e-06
8.8904152e-06
0.00034193377
2.3679776e-06
1.857923e-05
0.00032774413
-1.3070125e-05
2.7259767e-05
0.00038141403
-2.3020959e-05
-3.0648943e-05
0.00086008213
-0.00015741842
-0.00032124968
0.0015357252
-0.00036491992
-0.00031072317
0.0016477222
-0.00011514808
3.1511084e-06
0.0010887752
0.00020869119
0.00035025579
0.00037021293
0.00053344677
0.00018511552
0.00018441522
5.9905398e-05
0.00012589231
0.000216474
-3.5596702e-05
3.5379246e-06
0.00028637958
-3.9646908e-05
-3.0258674e-05
0.000337088
-2.5101995e-05
-2.5606426e-05
0.00023339549
0.00010711628
-3.4237627e-06
0.00024538232
-2.0551314e-06
-9.9317005e-06
0.00028450787
-3.9413929e-05
2.8837785e-07
0.00031511091
-2.760382e-05
-2.9992199e-06
0.00033315853
-1.6742228e-05
-1.305387e-06
0.00034391844
-1.0789668e-05
2.9756432e-08
0.00034947574
-6.994562e-06
1.4372637e-06
0.00034932163
-3.7380814e-06
3.8921899e-06
0.00034108884
-5.9161239e-07
8.8243967e-06
0.00032313447
-1.0757702e-07
1.8061952e-05
0.00030902915
-1.4047863e-05
2.815318e-05
0.00035911749
-2.2540615e-05
-2.7547729e-05
0.00079966311
-0.00014310607
-0.00029743954
0.0013541004
-0.00032232477
-0.00023211257
0.00099401393
0.00011184158
0.00024824494
0.00034231624
0.00016474947
0.00048694822
0.00017184851
0.00011727202
5.3195709e-05
0.00020331407
3.2141819e-06
-3.4679743e-05
0.00027137392
-2.950271e-05
-3.8557138e-05
0.00032116196
-2.4820713e-05
-2.4967325e-05
0.00022298121
-3.4690801e-06
0.00010164983
0.00023469608
-2.2078746e-06
-9.5069955e-06
0.0002721342
-3.7967816e-05
5.2969346e-07
0.000300177
-2.5924051e-05
-2.1187482e-06
0.00031410328
-1.4300836e-05
3.7455095e-07
0.00031805947
-6.9938864e-06
3.0377009e-06
0.00031210371
-1.5030392e-06
7.4588003e-06
0.00029492479
1.5389725e-06
1.5639944e-05
0.00028103268
-9.0898586e-06
2.298197e-05
0.00032284971
-1.4560411e-05
-2.7256619e-05
0.00071531529
-0.00011787861
-0.00027458697
0.0012195018
-0.00023454767
-0.00026963888
0.0013158029
5.1780856e-07
-9.6818844e-05
0.0015009695
-5.9319201e-05
-0.00012584739
0.0031774203
-0.00045935162
-0.0012170992
0.0055529474
-0.0012155484
-0.0011599787
0.0061502687
-0.00034429455
-0.00025302674
0.0063145051
-0.00010492461
-5.9311807e-05
0.0063628836
-2.9974806e-05
-1.840365e-05
0.0063797419
-6.4277314e-06
-1.0430592e-05
0.0063924219
-1.3141572e-06
-1.1365824e-05
0.0064039164
1.0459095e-06
-1.254046e-05
0.0064165084
8.8160571e-07
-1.3473599e-05
0.0064277053
1.6775897e-06
-1.287444e-05
0.0064378563
1.8857183e-06
-1.2036741e-05
2.2662344e-06
-1.0882497e-05
-0.0068451149
-6.6680486e-07
8.2369091e-07
3.1578959e-06
-0.0068488134
-1.5053471e-06
2.4567975e-06
2.7470909e-06
-0.0068529485
-2.4803286e-06
4.3329523e-06
2.2824212e-06
-0.0068576257
-3.6253443e-06
6.5381928e-06
1.7643956e-06
-0.0068630315
-4.987346e-06
9.2021862e-06
1.1909947e-06
-0.0068694547
-6.6137181e-06
1.2476294e-05
5.6062058e-07
-0.0068772812
-8.5173943e-06
1.6456471e-05
-1.1256505e-07
-0.0068869004
-1.0646329e-05
2.1068671e-05
-8.0314417e-07
-0.0068985617
-1.287688e-05
2.6020831e-05
-1.4827075e-06
-0.0069122927
-1.5038202e-05
3.088174e-05
-2.11257e-06
-0.0069278954
-1.6945768e-05
3.519189e-05
-2.6433933e-06
-0.0069450029
-1.8451548e-05
3.8594416e-05
-3.0353654e-06
-0.0069631482
-1.9470706e-05
4.0888458e-05
-3.2724583e-06
-0.0069818421
-1.9970883e-05
4.2016161e-05
-3.3513622e-06
-1.9954666e-05
4.2010365e-05
-3.2708537e-06
0.0009170469
0.00096481372
0.00013160771
0.00047699313
4.9780563e-05
0.0004964361
0.00057478359
3.3161322e-05
0.00044186408
0.00053956889
3.8220421e-06
0.00045376929
0.00053074246
-0.00095517247
-6.3784113e-06
0.00046207436
0.0005353221
-0.00098719601
-1.1718824e-05
0.00046505797
0.00053448319
-0.00099420074
-1.9704012e-05
0.00046217132
0.00053336274
-0.00098754888
-1.5225592e-05
0.00045807087
0.00052871178
-0.00099126107
-2.7147412e-05
0.00045156691
0.00052238212
-0.0009620272
-7.5134062e-05
0.00045420505
0.00051633887
-0.00092255727
-0.00036793965
0.00051109226
0.00056340956
-0.00078169623
-0.00038076037
0.00020056188
-0.00030436633
0.00011662517
-0.00041088092
6.4671954e-05
-8.4940586e-05
5.0389185e-05
-7.1392732e-05
0.00026264678
0.00042098706
-3.6522684e-05
0.00039062051
0.00049362312
-1.4686724e-05
0.00042728179
0.0005133505
-1.430056e-05
0.00044074104
0.00052021292
-7.6142893e-06
0.00044610588
0.00052317657
-8.4638527e-06
0.00044857229
0.00052539687
-5.1312997e-06
0.00045039416
0.00052702268
-9.7659398e-06
0.00045184395
0.00052902443
-9.593175e-06
0.00045166356
0.00052943467
0.00044976668
0.00052739887
9.096755e-06
0.0005343018
-7.761919e-05
1.6720604e-06
0.00053832878
-7.9240526e-05
1.2109388e-06
0.00053453489
-8.2229817e-05
3.0342453e-06
0.00053157806
-8.3007207e-05
4.7393424e-06
0.00052942846
-8.2561263e-05
5.8088649e-06
0.00052670656
-8.1670201e-05
5.0502456e-06
0.00052117632
-7.9676656e-05
6.3041935e-07
0.00050727374
-7.5572126e-05
-1.4240467e-05
0.00047009576
-6.4604358e-05
0.00034626844
-3.3190175e-05
0.00055093149
5.0715091e-05
-5.481626e-05
-4.7691111e-06
3.5815939e-05
0.00059194839
-7.2063728e-05
3.0573359e-05
0.00056776883
-9.2019041e-05
2.2969174e-05
0.00054612639
-8.4317157e-05
1.7523901e-05
0.00054102205
-8.4009868e-05
1.7074875e-05
0.00054318433
-8.4664436e-05
1.7584976e-05
0.00054653561
-8.487439e-05
1.8259016e-05
0.00054809889
-8.371496e-05
1.1108776e-05
0.00055115635
-8.193175e-05
4.9765039e-06
0.00054262715
-8.2725589e-05
1.5862694e-05
0.00051575251
-8.4774628e-05
0.00010080551
0.00046189338
-5.0400089e-05
0.00022575825
8.8114851e-06
0.00024956621
-1.9865121e-05
0.00036650024
-0.00010165169
-4.6123452e-05
0.00037811388
-2.2135135e-05
-1.61993e-05
-9.0718378e-07
0.00023413681
0.00014053658
-2.4959717e-05
-0.00050838985
0.00027863704
0.00025380535
-4.5309917e-05
-0.00055626567
0.00029123236
0.00028538351
-0.00018745572
-0.00053063008
0.00034335442
0.00032942146
-0.00019069539
-0.00015787589
0.00011568435
4.5431205e-05
-3.6363514e-05
-0.00056684653
0.00018451166
0.000228003
-1.6470652e-05
-0.00057349229
0.00027965248
0.00027394695
-1.2416116e-05
-0.00058232525
0.00029809969
0.00028017102
-1.1693705e-05
-0.00058454146
0.0003023047
0.00028151435
-1.2315031e-05
-0.00058521023
0.00030363945
0.0002821921
-1.2581772e-05
-0.0005881587
0.00030469018
0.00028373526
-1.2949447e-05
-0.00059272934
0.00030624665
0.00028685036
-2.9025816e-05
-0.00058847845
0.00031140576
0.00029314906
-0.00017584142
-0.00053431659
0.00034933521
0.00033179698
-0.00017904644
-0.0001757238
0.00012054482
5.8384004e-05
-2.3114456e-05
0.00018274282
-0.00057073909
0.00023206428
-6.0234118e-06
0.00027745601
-0.0005758282
0.00028128114
-4.2785308e-06
0.00029707824
-0.00058829711
0.00028947399
-4.9420155e-06
0.00030251575
-0.00059391823
0.00029206597
-8.1779701e-06
0.00030452318
-0.00059443846
0.00029315123
-2.8306747e-05
0.00030856169
-0.00058378954
0.00029535664
-0.0001747266
0.00034383743
-0.00052625911
0.00032884153
-0.00018004803
0.00011618252
5.2566087e-05
-0.00016342719
-0.00055208221
0.00017861037
0.00022299725
2.7663912e-05
-1.5625496e-05
-8.2325007e-06
0.00061025883
-3.6033635e-05
-1.5811038e-06
0.00058826387
-6.0380377e-05
3.2131562e-06
0.00058537334
-5.8589548e-05
5.9038418e-06
0.00058439332
-5.7655546e-05
7.3942755e-06
0.00058171084
-5.6494713e-05
5.8809136e-06
0.00057637966
-5.3689983e-05
-1.0590826e-05
0.00057365051
-4.9905029e-05
0.00055887282
-4.8652794e-05
0.00062223658
-1.0284947e-05
-1.7262876e-05
-2.272065e-05
-6.5083168e-05
1.0774963e-05
-3.0025673e-05
2.4400394e-05
-3.8585941e-05
2.4244493e-05
-4.1876404e-05
2.2020855e-05
-4.1964537e-05
2.2602042e-05
-4.1938321e-05
2.7884129e-05
-4.1071728e-05
3.8939721e-05
-3.6448995e-05
4.3861264e-05
-2.0611716e-05
1.1318402e-05
0.00062007681
-4.4906797e-05
3.8188697e-05
0.000560993
-7.2110779e-05
0.00047454362
-7.6113233e-05
-3.6735544e-05
-1.924583e-05
-4.8122194e-06
-2.7196001e-05
-7.3241373e-05
1.6088937e-05
3.6318144e-05
0.00064683476
3.0531438e-05
-0.00080301466
2.5328779e-05
4.3214376e-05
0.00064521235
-0.00072486257
-1.6291406e-05
-0.00068449791
3.0345019e-05
0.00067652724
2.5258745e-05
-0.00043991037
-3.4433457e-05
0.00041659438
-0.00025714417
0.00031910685
-6.1229832e-05
-0.00019632365
-1.7065396e-05
-8.4697864e-05
-0.00014261991
-7.9417835e-05
-1.1407211e-05
-0.00011898596
4.1942688e-05
0.00035104022
0.0001169591
-7.9352651e-05
5.4881657e-05
0.00029609337
-0.0021897629
0.0018727156
-0.00035346532
0.0004594026
0.00013175732
-9.4307384e-05
0.0003410706
0.0068233103
1.8888455e-05
-4.9985066e-06
0.0068068025
2.1489562e-05
-4.9818095e-06
0.0067880667
2.366378e-05
-4.9279643e-06
0.0067675179
2.5395398e-05
-4.8466072e-06
0.0067455898
2.6672046e-05
-4.7439582e-06
0.0067227186
2.7495988e-05
-4.6247243e-06
0.0066993374
2.7874912e-05
-4.4937109e-06
0.0066758715
2.7819865e-05
-4.3539911e-06
0.0066527347
2.7345689e-05
-4.2089037e-06
0.006630311
2.6484657e-05
-4.0609752e-06
0.0066089382
2.5285037e-05
-3.9122213e-06
0.0065888982
2.3806837e-05
-3.7668545e-06
0.0065704071
2.2115863e-05
-3.6247399e-06
0.0065536088
2.0283775e-05
-3.4854259e-06
0.0065385726
1.8385056e-05
-3.348898e-06
0.0065253035
1.6490877e-05
-3.2217347e-06
0.0065137495
1.4651344e-05
-3.0973343e-06
0.0065038181
1.2902845e-05
-2.9714719e-06
0.0064953871
1.1282197e-05
-2.8512556e-06
0.0064883148
9.8116272e-06
-2.7392977e-06
0.0064824551
8.4928166e-06
-2.6330587e-06
0.0064776643
7.3185405e-06
-2.5277645e-06
0.0064737998
6.2855158e-06
-2.4210618e-06
5.3930243e-06
-2.3211101e-06
-0.0066237474
1.0685581e-05
-2.2459007e-06
-0.0066275986
1.2460181e-05
-2.323444e-06
-0.0066323801
1.450984e-05
-2.4098024e-06
-0.0066382503
1.6852211e-05
-2.4891924e-06
-0.0066453777
1.9499512e-05
-2.5605035e-06
-0.0066539167
2.2454398e-05
-2.6332346e-06
-0.006664002
2.5706344e-05
-2.7181454e-06
-0.0066757682
2.9222907e-05
-2.8053695e-06
-0.0066893392
3.294494e-05
-2.8831086e-06
-0.006704777
3.6786762e-05
-2.9638451e-06
-0.0067220739
4.0638624e-05
-3.0580049e-06
-0.006741166
4.4365476e-05
-3.157524e-06
-0.0067619106
4.7816444e-05
-3.2649984e-06
-0.0067840819
5.0838896e-05
-3.3825412e-06
-0.00680738
5.3296025e-05
-3.5133061e-06
-0.006831448
5.5067451e-05
-3.653728e-06
-0.006855883
5.6056618e-05
-3.8017642e-06
-0.0068802532
5.6199735e-05
-3.9545885e-06
-0.0069041101
5.5464893e-05
-4.1120343e-06
-0.0069269947
5.3828041e-05
-4.2713702e-06
-0.0069484537
5.1280818e-05
-4.4264407e-06
-0.0069680449
4.7823188e-05
-4.5681953e-06
-0.0069853374
4.3474192e-05
-4.6921064e-06
3.8263187e-05
-4.7916618e-06
0.0072657213
5.9416948e-05
-5.2758001e-06
0.0072469735
6.7381443e-05
-5.1595233e-06
0.0072258044
7.4007924e-05
-5.0156132e-06
0.0072026722
7.9258376e-05
-4.8453253e-06
0.0071780457
8.3114267e-05
-4.6597173e-06
0.0071524107
8.5570232e-05
-4.4704165e-06
0.0071262627
8.6631457e-05
-4.2837179e-06
0.0071000901
8.6330805e-05
-4.1015738e-06
0.0070743671
8.471614e-05
-3.9256093e-06
0.0070495403
8.1893496e-05
-3.7706919e-06
0.0070260018
7.8003495e-05
-3.6261095e-06
0.0070040735
7.3229577e-05
-3.4848621e-06
0.0069839966
6.7800138e-05
-3.357751e-06
0.0069659136
6.196209e-05
-3.2404283e-06
0.0069498753
5.5956853e-05
-3.1318075e-06
0.0069358664
4.9992385e-05
-3.038588e-06
0.0069237987
4.4242554e-05
-2.9519424e-06
0.0069135218
3.8840781e-05
-2.8574811e-06
0.0069048776
3.3864202e-05
-2.7655954e-06
0.0068977145
2.935187e-05
-2.6893009e-06
0.0068918553
2.5324527e-05
-2.6130964e-06
0.0068871145
2.177842e-05
-2.5278344e-06
0.0068833229
1.8689007e-05
-2.4371526e-06
1.6014788e-05
-2.356173e-06
-0.0071272963
2.1293131e-05
-2.5364502e-06
-0.0071308458
2.4872536e-05
-2.6339425e-06
-0.0071353515
2.9023878e-05
-2.7397904e-06
-0.0071409856
3.3803604e-05
-2.8450098e-06
-0.0071479417
3.9253583e-05
-2.9455556e-06
-0.007156417
4.5388272e-05
-3.048784e-06
-0.0071666062
5.2193399e-05
-3.1634224e-06
-0.007178704
5.9623763e-05
-3.2834591e-06
-0.0071928894
6.7582277e-05
-3.4044474e-06
-0.0072093008
7.5902747e-05
-3.5345383e-06
-0.0072280117
8.4351902e-05
-3.678833e-06
-0.0072490099
9.2634375e-05
-3.8360328e-06
-0.0072721666
0.00010039229
-4.0060778e-06
-0.0072972299
0.00010725719
-4.190365e-06
-0.0073238433
0.00011289617
-4.3893319e-06
-0.007351566
0.00011702752
-4.58867e-06
-0.0073799031
0.00011945123
-4.7833045e-06
-0.0074082977
0.00012003184
-5.0057768e-06
-0.0074362067
0.00011870515
-5.225905e-06
-0.0074630942
0.00011543978
-5.4380515e-06
-0.0074884365
0.0001102352
-5.6344365e-06
-0.0075117253
0.00010310538
-5.8087147e-06
-0.007532462
9.4071011e-05
-5.9528447e-06
8.3168597e-05
-6.0629025e-06
0.0076867386
0.00010998021
-6.8780477e-06
0.0076636152
0.00012395281
-6.7583948e-06
0.0076378557
0.00013546079
-6.5958995e-06
0.0076099959
0.00014449115
-6.3961731e-06
0.007580575
0.00015103092
-6.1701819e-06
0.0075501607
0.00015504959
-5.9301675e-06
0.0075193453
0.00015651909
-5.6718815e-06
0.0074887562
0.00015544919
-5.4088193e-06
0.0074590533
0.00015190293
-5.1725461e-06
0.0074308115
0.00014605067
-4.9127118e-06
0.0074045417
0.00013818765
-4.6606075e-06
0.0073806287
0.00012872813
-4.4228608e-06
0.007359307
0.00011816107
-4.2050015e-06
0.0073406477
0.00010701943
-4.0082496e-06
0.0073245707
9.5813293e-05
-3.833549e-06
0.0073109014
8.4928565e-05
-3.6769423e-06
0.0072994207
7.4637699e-05
-3.5332917e-06
0.0072898936
6.5117994e-05
-3.3974275e-06
0.0072820832
5.6468097e-05
-3.2695144e-06
0.0072757628
4.8722787e-05
-3.1487328e-06
0.0072707223
4.1875583e-05
-3.0314977e-06
0.0072667675
3.5891799e-05
-2.9131573e-06
0.0072637233
3.0712782e-05
-2.7960685e-06
2.6267816e-05
-2.6846019e-06
-0.0072887975
3.0677861e-05
-2.7897172e-06
-0.0072910676
3.5892147e-05
-2.9092305e-06
-0.0072941337
4.1989064e-05
-3.0311275e-06
-0.0072981585
4.9052964e-05
-3.1525995e-06
-0.0073033195
5.7156079e-05
-3.2723393e-06
-0.0073098141
6.6355336e-05
-3.3926303e-06
-0.00731787
7.6690881e-05
-3.5169142e-06
-0.0073277526
8.8170168e-05
-3.6499204e-06
-0.0073397688
0.00010074049
-3.7957107e-06
-0.007354263
0.00011426876
-3.9613288e-06
-0.0073715858
0.00012849967
-4.1573984e-06
-0.0073920207
0.00014299139
-4.3954274e-06
-0.0074156518
0.00015703719
-4.6779155e-06
-0.0074423285
0.00016986056
-4.9962528e-06
-0.0074716725
0.00018072649
-5.3318201e-06
-0.0075030904
0.00018898837
-5.6675427e-06
-0.0075358671
0.00019419616
-5.9702619e-06
-0.0075691857
0.00019612361
-6.28587e-06
-0.0076022704
0.00019472956
-6.5952958e-06
-0.0076344243
0.00019007485
-6.8900175e-06
-0.007665036
0.00018227568
-7.1728654e-06
-0.007693575
0.00017142326
-7.4234346e-06
-0.0077195156
0.00015751461
-7.6211823e-06
0.00014045702
-7.7611038e-06
0.0076786022
0.00017562516
-8.7329348e-06
0.0076492148
0.00019548499
-8.5829671e-06
0.0076175353
0.00021144022
-8.3374861e-06
0.0075838941
0.00022390865
-7.9917445e-06
0.0075486926
0.00023287743
-7.6010835e-06
0.0075126277
0.00023801156
-7.2170439e-06
0.0074766319
0.00023896428
-6.8448615e-06
0.0074417544
0.00023553753
-6.4638883e-06
0.0074090901
0.00022773348
-6.08079e-06
0.0073795991
0.00021586004
-5.642598e-06
0.0073539739
0.00020065915
-5.1733543e-06
0.0073324909
0.00018324204
-4.7218409e-06
0.0073150485
0.00016476959
-4.3358288e-06
0.0073012095
0.00014638388
-4.0451914e-06
0.0072902929
0.00012902883
-3.8435469e-06
0.0072816453
0.00011308489
-3.6967189e-06
0.0072747474
9.8649099e-05
-3.5810393e-06
0.0072692316
8.5688949e-05
-3.4822961e-06
0.0072648487
7.4128965e-05
-3.390748e-06
0.0072614312
6.3870438e-05
-3.2968886e-06
0.0072588526
5.4827293e-05
-3.1957311e-06
0.0072569955
4.6932379e-05
-3.0861715e-06
0.0072557422
4.0115279e-05
-2.9697883e-06
3.4290917e-05
-2.8502753e-06
-0.0072229402
3.6909893e-05
-2.8736258e-06
-0.0072229569
4.3118782e-05
-2.9868207e-06
-0.0072232959
5.0358825e-05
-3.0875052e-06
-0.0072239811
5.868219e-05
-3.1696083e-06
-0.0072250194
6.8135986e-05
-3.2273079e-06
-0.0072263328
7.8704611e-05
-3.262284e-06
-0.0072279451
9.058315e-05
-3.2818124e-06
-0.0072299971
0.00010400298
-3.3019518e-06
-0.0072328646
0.00011929223
-3.3398262e-06
-0.0072372674
0.00013685338
-3.4217697e-06
-0.0072443079
0.00015702371
-3.599327e-06
-0.007255367
0.00017978264
-3.9538994e-06
-0.0072715949
0.00020397309
-4.5031416e-06
-0.0072937006
0.00022794163
-5.1767771e-06
-0.0073217487
0.00024975001
-5.8418638e-06
-0.0073549068
0.00026729877
-6.4071967e-06
-0.0073917932
0.00027929429
-6.870404e-06
-0.0074308923
0.00028533365
-7.2702226e-06
-0.0074706381
0.00028544512
-7.6877809e-06
-0.0075094937
0.0002799354
-8.2024229e-06
-0.0075464625
0.00026967433
-8.7968906e-06
-0.0075815203
0.00025581945
-9.3213844e-06
-0.0076151341
0.00023871934
-9.6205597e-06
0.00021713213
-9.7196344e-06
0.0075553275
0.00026744881
-1.0803368e-05
0.0075173121
0.00028754252
-1.0807794e-05
0.0074796079
0.00030391588
-1.0392173e-05
0.0074392988
0.00031949303
-9.5096337e-06
0.0073956545
0.0003321326
-8.5528652e-06
0.007350823
0.00033813543
-7.8588278e-06
0.0073078599
0.00033576606
-7.4693084e-06
0.007269082
0.00032530728
-7.2351409e-06
0.0072364351
0.00030685334
-6.9075972e-06
0.0072120722
0.00028034235
-6.2294615e-06
0.0071971696
0.00024804577
-5.2015817e-06
0.00719078
0.00021450224
-4.1395103e-06
0.007190826
0.00018307843
-3.3417831e-06
0.0071948913
0.00015588045
-2.9220454e-06
0.0072005624
0.00013398084
-2.7985708e-06
0.0072062274
0.00011643064
-2.8033725e-06
0.0072110754
0.00010202036
-2.865453e-06
0.0072148245
8.9780399e-05
-2.9463441e-06
0.007217576
7.8972831e-05
-3.0196978e-06
0.0072196424
6.9131438e-05
-3.0618735e-06
0.0072212898
6.0097387e-05
-3.0625893e-06
0.0072227629
5.1907797e-05
-3.0220493e-06
0.0072241845
4.4644114e-05
-2.9469542e-06
3.8344589e-05
-2.8478923e-06
-0.0072591132
3.8488311e-05
-2.8175674e-06
-0.0072561119
4.4555287e-05
-2.9124469e-06
-0.0072526272
5.1397292e-05
-2.9742577e-06
-0.0072483636
5.8824963e-05
-2.9912013e-06
-0.0072428458
6.6568705e-05
-2.955019e-06
-0.0072354391
7.4433134e-05
-2.8669911e-06
-0.0072254748
8.2565355e-05
-2.7492644e-06
-0.0072124834
9.1683573e-05
-2.6546038e-06
-0.0071963651
0.00010295206
-2.6396863e-06
-0.00717784
0.00011817483
-2.7191341e-06
-0.0071586237
0.00013954202
-2.8778591e-06
-0.0071422383
0.00016999149
-3.2984811e-06
-0.0071329409
0.00020955773
-4.3528733e-06
-0.0071352925
0.00025661993
-6.2225982e-06
-0.0071524419
0.00030556892
-8.0771281e-06
-0.0071825843
0.00034551468
-8.5189759e-06
-0.007222284
0.00037272265
-7.715606e-06
-0.0072699309
0.00039052004
-7.1070665e-06
-0.0073224919
0.00039806654
-7.3701897e-06
-0.0073731933
0.00039122246
-8.3884031e-06
-0.0074159625
0.00037214266
-9.8804424e-06
-0.0074523575
0.00035155655
-1.1245708e-05
-0.0074918137
0.00033879395
-1.1795186e-05
0.00032879627
-1.1588746e-05
0.0073810077
0.00040036781
-1.1300869e-05
0.0073535608
0.00037821358
-1.1972696e-05
0.0073318523
0.00038503337
-1.1768347e-05
0.0072902158
0.00042387199
-1.0092857e-05
0.0072278127
0.00046110266
-7.477038e-06
0.0071625533
0.0004683384
-5.0124492e-06
0.0071111733
0.00044653961
-4.6396223e-06
0.007074521
0.00041787978
-8.5047855e-06
0.0070456125
0.00038946818
-1.5045077e-05
0.0070365339
0.00033070537
-1.6057806e-05
0.007055151
0.00024878828
-1.0785432e-05
0.0070881268
0.00018366088
-7.0789267e-06
0.0071265004
0.00013814494
-6.5271085e-06
0.0071637611
0.00010872337
-6.4419812e-06
0.0071953331
9.1885105e-05
-5.2823623e-06
0.0072205937
8.1501679e-05
-3.8101311e-06
0.0072405349
7.4720838e-05
-2.9785072e-06
0.0072558933
6.9915816e-05
-2.7088179e-06
0.0072675505
6.5468086e-05
-2.6922075e-06
0.0072763634
6.0491324e-05
-2.7354643e-06
0.0072831932
5.4757381e-05
-2.7622172e-06
0.0072887002
4.8643546e-05
-2.7532741e-06
0.0072933141
4.2646835e-05
-2.705465e-06
3.7143301e-05
-2.622282e-06
-0.0072664541
3.4303274e-05
-2.4026759e-06
-0.0072603181
3.9040397e-05
-2.5295446e-06
-0.0072530362
4.3995325e-05
-2.633679e-06
-0.007244182
4.8629981e-05
-2.7268243e-06
-0.0072331211
5.2269743e-05
-2.8393317e-06
-0.0072191195
5.4515511e-05
-3.0489943e-06
-0.0072015095
5.5929187e-05
-3.6233984e-06
-0.0071797325
5.8267268e-05
-5.3234743e-06
-0.0071503412
6.1767339e-05
-9.6569176e-06
-0.0071075285
6.6807762e-05
-1.773536e-05
-0.0070521441
7.847357e-05
-2.5134561e-05
-0.0069849776
9.4074743e-05
-2.3096303e-05
-0.0069190002
0.00013502625
-1.7342818e-05
-0.0068599098
0.00021506872
-2.5370865e-05
-0.0068131303
0.00034111694
-5.7191016e-05
-0.0067999623
0.00042544244
-4.9142299e-05
-0.0068131668
0.00043591292
-4.8285902e-06
-0.0068586077
0.00048025655
1.172394e-05
-0.0069470695
0.00054524039
1.1559832e-05
-0.0070354737
0.00054675922
2.7475885e-06
-0.0070656116
0.00046025428
-6.2443975e-06
-0.0070338976
0.00036120204
-7.8826355e-06
-0.0070092088
0.00035557944
-2.0546905e-06
0.00046136664
4.3518941e-06
0.0065855512
7.6637494e-06
1.0933409e-06
0.0065757351
8.2636025e-06
1.5524098e-06
0.0065650749
8.7432052e-06
1.9170625e-06
0.0065537902
9.1027824e-06
2.1818837e-06
0.0065420942
9.3475554e-06
2.3484535e-06
0.0065301919
9.4808046e-06
2.4214844e-06
0.0065182741
9.5089575e-06
2.4089094e-06
0.0065065096
9.4480956e-06
2.3163748e-06
0.006495046
9.310546e-06
2.1530802e-06
0.0064840068
9.1054349e-06
1.9337525e-06
0.0064734923
8.8467062e-06
1.6677413e-06
0.0064635791
8.5468754e-06
1.3663134e-06
0.0064543175
8.2182809e-06
1.0433264e-06
0.0064457352
7.873027e-06
7.0932946e-07
0.0064378398
7.5208907e-06
3.7449261e-07
0.0064306234
7.1698566e-06
4.6542801e-08
0.0064240679
6.8242102e-06
-2.686929e-07
0.0064181448
6.489818e-06
-5.6672439e-07
6.1730438e-06
-8.4358623e-07
-4.8549914e-06
-0.006913188
5.8153505e-06
-7.6955908e-06
-0.0075778014
6.4459157e-06
-1.0725233e-05
-0.0082412245
6.9653741e-06
-1.3786559e-05
-0.0087114852
7.2477813e-06
-1.6807402e-05
-0.0089482833
7.356719e-06
-1.9785461e-05
-0.0090252371
7.3944427e-06
-2.2731445e-05
-0.0090289263
7.4151019e-06
-2.5661027e-05
-0.0090113494
7.4459666e-06
-2.8597451e-05
-0.008993718
7.5048903e-06
-3.1571153e-05
-0.0089812674
7.6009358e-06
-0.0089731944
7.7365233e-06
-2.8266452e-05
-0.0086396974
-1.100835e-06
-2.0283083e-05
-0.0081718987
-1.2531522e-06
-1.2855363e-05
-0.0075131948
-1.207145e-06
-0.0068538382
-9.9577385e-07
1.3507681e-05
-0.0068601603
-6.9576536e-07
2.1296179e-05
-0.0075201153
-8.6801347e-07
2.9652558e-05
-0.0081793963
-8.5877645e-07
3.8162958e-05
-0.0086475655
-6.4222121e-07
4.6539066e-05
-0.00888459
-3.7507522e-07
5.4599555e-05
-0.0089634383
-9.0371634e-08
-0.0089699707
3.0440424e-07
6.239344e-05
-0.0089472908
1.0766833e-05
5.8091327e-05
-0.0089507112
1.0602428e-05
5.3950241e-05
-0.008954176
1.0369882e-05
5.0003949e-05
-0.0089577325
1.0104595e-05
4.6259064e-05
-0.0089614344
9.8326582e-06
4.2703872e-05
-0.0089651976
9.5724711e-06
3.9315402e-05
-0.0089691204
9.3362295e-06
3.6063724e-05
-0.008973491
9.1311618e-06
3.291351e-05
-0.0089790054
8.9611705e-06
2.9829905e-05
-0.008987013
8.8292034e-06
2.6779412e-05
-0.0089994045
8.7369765e-06
2.3731338e-05
-0.0090169836
8.6822905e-06
2.0662842e-05
-0.0090345132
8.6553982e-06
1.7558515e-05
-0.0090307691
8.6363261e-06
1.4405818e-05
-0.008953723
8.5923824e-06
1.1206853e-05
-0.008716745
8.4587143e-06
8.038359e-06
-0.0082461757
8.1196206e-06
5.0670161e-06
-0.007582339
7.508969e-06
-0.0069173181
6.7760291e-06
-5.2894167e-06
-0.0069224436
7.8871007e-06
-8.3976598e-06
-0.0075879661
8.7353545e-06
-1.171319e-05
-0.0082523092
9.4491191e-06
-1.5056245e-05
-0.0087232539
9.8519583e-06
-1.8347155e-05
-0.0089604448
1.0012791e-05
-2.1582768e-05
-0.0090375964
1.0062917e-05
-2.4777765e-05
-0.0090413978
1.0079623e-05
-2.7947427e-05
-0.0090239152
1.0101301e-05
-3.1115274e-05
-0.0090063871
1.0150464e-05
-3.4310636e-05
-0.008994055
1.0237388e-05
-3.7567784e-05
-0.008986112
1.0363759e-05
-4.092456e-05
-0.0089806622
1.0527968e-05
-4.4415279e-05
-0.008976358
1.0728289e-05
-4.8071063e-05
-0.0089725024
1.0960643e-05
-5.1916805e-05
-0.0089688059
1.1217285e-05
-5.5965944e-05
-0.008965169
1.1485681e-05
-6.0214347e-05
-0.0089616752
1.1747569e-05
-6.4627433e-05
-0.0089582741
1.1975997e-05
-6.9134568e-05
-0.0089549187
1.2134982e-05
-7.3628025e-05
-0.0089517047
1.2180497e-05
-7.7945761e-05
-0.0089487412
1.2060768e-05
-8.1858263e-05
-0.0089460036
1.172098e-05
-8.5092708e-05
-0.0089434362
1.1119551e-05
-8.7367813e-05
-0.0089412367
1.023941e-05
-8.8423707e-05
-0.0089393615
9.1023009e-06
-8.8057088e-05
-0.0089379621
7.7704398e-06
-8.6168337e-05
-0.008937365
6.3510051e-06
-8.2763599e-05
-0.0089382682
4.9472469e-06
-7.7957918e-05
-0.0089420165
3.664913e-06
-7.1931354e-05
-0.0089504927
2.5672351e-06
-6.4900665e-05
-0.0089644915
1.6873681e-06
-5.7090713e-05
-0.0089788052
1.0245955e-06
-4.8722806e-05
-0.0089723604
5.541568e-07
-3.999605e-05
-0.0088935144
1.9768888e-07
-3.1105538e-05
-0.0086563137
-1.4232123e-07
-2.2360311e-05
-0.00818771
-4.3152634e-07
-1.4194869e-05
-0.0075277786
-5.0213591e-07
-0.0068671581
-3.7289384e-07
1.4905287e-05
-0.0068748641
-2.9473186e-08
2.3462344e-05
-0.0075362249
-1.1076404e-07
3.2612757e-05
-0.0081968877
2.7295731e-08
4.1897887e-05
-0.0086659958
3.9695868e-07
5.0989605e-05
-0.0089034257
8.1957473e-07
5.9677966e-05
-0.0089823085
1.2598313e-06
6.7754109e-05
-0.0089887002
1.8188115e-06
7.4988084e-05
-0.0089743024
2.5768711e-06
8.1153417e-05
-0.0089602148
3.5567273e-06
8.6033127e-05
-0.0089516515
4.7552841e-06
8.9451078e-05
-0.00894782
6.1338625e-06
9.1299309e-05
-0.0089468395
7.6262459e-06
9.1581748e-05
-0.0089473668
9.1222595e-06
9.0412079e-05
-0.0089487091
1.0517177e-05
8.8010289e-05
-0.0089505373
1.1702378e-05
8.4668944e-05
-0.0089527125
1.261762e-05
8.0594622e-05
-0.0089551737
1.3244432e-05
7.6118814e-05
-0.0089578665
1.3601084e-05
7.152858e-05
-0.0089608462
1.3731749e-05
6.6932606e-05
-0.0089640168
1.3694134e-05
6.2383847e-05
-0.0089672673
1.3541884e-05
5.8030611e-05
-0.0089706405
1.331863e-05
5.3881572e-05
-0.0089740813
1.3061357e-05
4.9938398e-05
-0.00897766
1.2797263e-05
4.6184051e-05
-0.0089812931
1.2545083e-05
4.2592186e-05
-0.008985083
1.2316872e-05
3.9130254e-05
-0.0089893204
1.212015e-05
3.5762675e-05
-0.0089947047
1.1960363e-05
3.2453438e-05
-0.0090025863
1.1840527e-05
2.9166477e-05
-0.0090148615
1.1761272e-05
2.5871491e-05
-0.0090323399
1.1719661e-05
2.254632e-05
-0.0090497772
1.170453e-05
1.9174784e-05
-0.0090459156
1.1690727e-05
1.5741316e-05
-0.0089686444
1.163304e-05
1.2245926e-05
-0.0087311986
1.1440156e-05
8.7741902e-06
-0.0082598
1.0962539e-05
5.5183034e-06
-0.0075948387
1.0128476e-05
-0.0069287061
9.1477528e-06
-5.7554829e-06
-0.006936258
1.0568071e-05
-9.1682917e-06
-0.0076031264
1.1700526e-05
-1.280543e-05
-0.0082688342
1.2671326e-05
-1.6459579e-05
-0.0087407777
1.3233226e-05
-2.0041524e-05
-0.0089785237
1.3461257e-05
-2.3553481e-05
-0.0090559294
1.3525779e-05
-2.7013266e-05
-0.0090598521
1.3534645e-05
-3.0436438e-05
-0.009042458
1.3541276e-05
-3.3845112e-05
-0.0090250267
1.357394e-05
-3.7270085e-05
-0.0090128063
1.3644971e-05
-4.0746836e-05
-0.009004986
1.3757992e-05
-4.4312218e-05
-0.0089996669
1.391194e-05
-4.8002906e-05
-0.0089954949
1.4102629e-05
-5.1852422e-05
-0.0089917682
1.4324555e-05
-5.5889169e-05
-0.0089881936
1.4570309e-05
-6.0132938e-05
-0.0089846656
1.4828083e-05
-6.4584886e-05
-0.0089812676
1.5079009e-05
-6.9214467e-05
-0.0089779332
1.5295486e-05
-7.3952692e-05
-0.008974719
1.5440329e-05
-7.8692649e-05
-0.0089715739
1.5467703e-05
-8.327248e-05
-0.0089686095
1.5322853e-05
-8.7458257e-05
-0.0089659348
1.494693e-05
-9.0941538e-05
-0.0089635218
1.4292577e-05
-9.3481603e-05
-0.0089613348
1.3337559e-05
-9.4798515e-05
-0.0089594898
1.2097686e-05
-9.4607038e-05
-0.0089581895
1.0631169e-05
-9.2805764e-05
-0.0089576878
9.0469944e-06
-8.9378349e-05
-0.0089586986
7.4512182e-06
-8.4426121e-05
-0.0089625634
5.9596984e-06
-7.8120841e-05
-0.0089711641
4.6440875e-06
-7.0678015e-05
-0.0089852941
3.5488454e-06
-6.2328594e-05
-0.0089997308
2.6811732e-06
-5.3310149e-05
-0.0089933472
2.0201671e-06
-4.3844909e-05
-0.008914376
1.4850749e-06
-3.4153824e-05
-0.0086766576
9.7066835e-07
-2.4586383e-05
-0.0082069687
5.1347554e-07
-1.5627959e-05
-0.0075454853
3.0200828e-07
-0.0068833027
3.3153729e-07
1.6351885e-05
-0.0068924835
7.0194717e-07
2.5713637e-05
-0.0075555737
7.2661936e-07
3.5700978e-05
-0.0082179715
1.0154585e-06
4.5801056e-05
-0.0086883247
1.5670578e-06
5.5644954e-05
-0.0089264018
2.1819022e-06
6.4997007e-05
-0.0090055217
2.8224884e-06
7.3624823e-05
-0.0090119567
3.5981542e-06
8.1280251e-05
-0.0089975402
4.5906656e-06
8.7728163e-05
-0.0089834293
5.8172287e-06
9.2752179e-05
-0.0089748531
7.2656416e-06
9.6185796e-05
-0.0089710173
8.8850718e-06
9.7936604e-05
-0.0089700366
1.0597989e-05
9.8034776e-05
-0.0089705698
1.228215e-05
9.6620035e-05
-0.0089719041
1.3829022e-05
9.3961213e-05
-0.0089738058
1.5129797e-05
9.0276402e-05
-0.0089759657
1.612869e-05
8.5952337e-05
-0.0089784242
1.6813404e-05
8.1247717e-05
-0.0089811159
1.7210958e-05
7.6388377e-05
-0.0089840879
1.7373248e-05
7.1536859e-05
-0.0089872263
1.7358839e-05
6.6805291e-05
-0.0089904254