/*--------------------------------*- C++ -*----------------------------------*\
| =========                 |                                                 |
| \\      /  F ield         | OpenFOAM: The Open Source CFD Toolbox           |
|  \\    /   O peration     | Version:  v2012                                 |
|   \\  /    A nd           | Website:  www.openfoam.com                      |
|    \\/     M anipulation  |                                                 |
\*---------------------------------------------------------------------------*/
FoamFile
{
    version     2.0;
    format      ascii;
    class       volVectorField;
    location    "184";
    object      U;
}
// * * * * * * * * * * * * * * * * * * * * * * * * * * * * * * * * * * * * * //

dimensions      [0 1 -1 0 0 0 0];


internalField   nonuniform List<vector> 
24787
(
(5.6545868 -0.34118684 0.0023781629)
(5.6303195 -0.35831126 0.00055259272)
(5.6168589 -0.373604 0.00078828355)
(5.606108 -0.39157318 0.0020953968)
(5.5951621 -0.39744865 0.0014087863)
(5.5905373 -0.40010374 0.00059558055)
(5.5858618 -0.40646526 0.00073912726)
(5.575237 -0.42107797 0.0021032765)
(5.5616268 -0.42495793 0.0017679115)
(5.5567492 -0.4266759 0.0008130998)
(5.5500686 -0.43359041 0.00037322062)
(5.537321 -0.44367502 0.0015097646)
(5.5242838 -0.44830088 0.0011154571)
(5.5189799 -0.45096461 8.5028109e-05)
(5.5088033 -0.46120733 0.00077871864)
(5.4936743 -0.46844138 0.0012449495)
(5.4825451 -0.47264198 0.00054495087)
(5.4763809 -0.4757629 -0.00046946207)
(5.4639516 -0.4875669 0.0012398044)
(5.4475181 -0.49222722 0.0010791578)
(5.4394357 -0.49292066 0.0010664363)
(5.4299103 -0.49565334 0.0019394877)
(5.4128755 -0.50139298 0.0024093139)
(5.3954636 -0.5054814 0.001336656)
(5.3792894 -0.51264491 5.912515e-05)
(5.3658763 -0.52978865 0.0016486432)
(5.3515179 -0.53624587 0.00033469174)
(5.342471 -0.53689 0.00043011112)
(5.3351875 -0.5371893 -6.2230299e-06)
(5.3286396 -0.54042095 -9.4173434e-05)
(5.3163005 -0.55388807 0.001519822)
(5.2999615 -0.55555753 0.0013005691)
(5.2899655 -0.55579736 0.00059947726)
(5.2813294 -0.55639319 -0.00015631248)
(5.2694607 -0.56247267 0.00027543788)
(5.2530984 -0.56792829 0.00093418313)
(5.2382977 -0.57007431 0.00047807692)
(5.2276258 -0.57161552 -0.00038494513)
(5.2128095 -0.57885197 0.00049038747)
(5.1945396 -0.58265897 0.00077321201)
(5.1799204 -0.583547 0.00085997148)
(5.1695761 -0.58205678 0.00031585944)
(5.1519451 -0.58389631 0.0021087879)
(5.127113 -0.58242259 0.0016873221)
(5.1022562 -0.58807448 -0.00013876625)
(5.0877592 -0.59945114 0.00052894197)
(5.0719117 -0.6109856 0.0015064903)
(5.0534921 -0.61175288 0.00066064327)
(5.0351356 -0.6091579 -0.00023745194)
(5.0208855 -0.60948643 -7.6495928e-05)
(5.003518 -0.61993208 0.0018372187)
(4.9811607 -0.62221149 0.0018309211)
(4.9578198 -0.62150656 0.00035751814)
(4.936313 -0.61931806 -8.1770041e-05)
(4.9108012 -0.62289717 0.0011374444)
(4.8784587 -0.62462978 0.00043368836)
(4.8434091 -0.62325643 -0.00028872652)
(4.8079416 -0.61979341 1.9396289e-05)
(4.7665311 -0.62139467 0.0034005531)
(4.7137965 -0.61296827 0.0041149966)
(4.6767992 -0.5894667 0.01261076)
(4.4480377 -0.61085509 0.0098696645)
(4.3061285 -0.15808492 -0.029883762)
(4.627221 -0.034046633 -0.0090772341)
(4.7768351 -0.020039189 -0.019670106)
(4.8181531 -0.011723165 -0.014033701)
(4.8670344 -0.0047220907 -0.0078677513)
(4.9099013 -0.0031665894 -0.0046503165)
(4.9379089 -0.0027876001 -0.0030600372)
(4.9597927 -0.0025529774 -0.0021543993)
(4.977607 -0.0025298905 -0.001603718)
(4.9916936 -0.0025317735 -0.0013131553)
(5.0029916 -0.0025192133 -0.0011389461)
(5.0121808 -0.0024871273 -0.0010620202)
(5.0197244 -0.0024357168 -0.0010175495)
(4.9936086 0.001021122 0.00083748768)
(4.9965905 0.00087845112 0.0017611464)
(5.0001201 0.00071660084 0.0028524556)
(5.0043181 0.00053619179 0.0041258625)
(5.0093199 0.00033926761 0.0055860399)
(5.0152693 0.000129778 0.0072227582)
(5.0223094 -8.5792871e-05 0.0090025332)
(5.030554 -0.00029855139 0.010855968)
(5.0400477 -0.00049776947 0.01268092)
(5.0507526 -0.00067252126 0.014367393)
(5.0625485 -0.00081339341 0.015811973)
(5.0752465 -0.00091351501 0.016933213)
(5.0886011 -0.00096870858 0.017675951)
(5.1023702 -0.00097801436 0.018011016)
(5.1162548 -0.00094197593 0.017930099)
(5.6493863 -0.34067452 0.0061272912)
(5.627644 -0.35806054 0.0066388346)
(5.6277631 -0.35689646 0.0070086694)
(5.6280269 -0.35498666 0.007281789)
(5.6278225 -0.35216246 0.0090420715)
(5.6262359 -0.3502964 0.0093833769)
(5.6244442 -0.34801311 0.01147102)
(5.622728 -0.34546287 0.012959165)
(5.6213704 -0.3423258 0.014943927)
(5.6189106 -0.33883689 0.015342727)
(5.6142327 -0.33799581 0.017725608)
(5.6192137 -0.33567552 0.020530708)
(5.6287944 -0.32562883 0.018273865)
(5.632463 -0.31689372 0.019958885)
(5.6290624 -0.31361833 0.021923721)
(5.6254285 -0.31062564 0.024015911)
(5.6235068 -0.30688769 0.027126266)
(5.6215797 -0.303539 0.028438529)
(5.6204699 -0.3002528 0.030982991)
(5.6184486 -0.29792212 0.033164837)
(5.6180215 -0.29494777 0.03673363)
(5.6175422 -0.29204789 0.038459601)
(5.6182858 -0.28895456 0.041442367)
(5.6074245 -0.31123005 0.040132976)
(5.6070474 -0.31368249 0.037214711)
(5.6070699 -0.31586804 0.035276003)
(5.6073375 -0.31908003 0.032525385)
(5.6086781 -0.32259347 0.030105764)
(5.6102508 -0.32513758 0.027335666)
(5.6124798 -0.32695747 0.025533425)
(5.6148328 -0.33024281 0.02347811)
(5.6181039 -0.3341552 0.022022695)
(5.6232362 -0.33601926 0.019239109)
(5.6113799 -0.34626841 0.020515311)
(5.6010503 -0.35644856 0.021607117)
(5.6054352 -0.35478258 0.019989749)
(5.6079723 -0.35837165 0.016291841)
(5.6097492 -0.36153731 0.014014148)
(5.611436 -0.36314145 0.012195096)
(5.6131822 -0.36519819 0.011093201)
(5.614627 -0.36841639 0.0096252368)
(5.6158998 -0.37129909 0.0082648222)
(5.6164042 -0.37288746 0.0060978123)
(5.6162438 -0.3730161 0.0054816828)
(5.615862 -0.3738779 0.005577434)
(5.6130474 -0.37861189 0.0031435946)
(5.6078128 -0.38733429 0.0043280796)
(5.5996198 -0.39342322 0.0043833836)
(5.5924017 -0.39843244 0.0028151672)
(5.5855744 -0.40545631 0.0030364299)
(5.5856461 -0.40252643 0.0041107909)
(5.5859554 -0.40099247 0.0049963633)
(5.5860698 -0.39855184 0.005345934)
(5.5900511 -0.39575556 0.0065917776)
(5.5920552 -0.3898732 0.0073388028)
(5.5917349 -0.38738932 0.0084451007)
(5.5906898 -0.3849259 0.010059541)
(5.5887977 -0.38285006 0.011653168)
(5.5868529 -0.38041857 0.013379691)
(5.5852877 -0.37699125 0.015218889)
(5.5836711 -0.37441486 0.017580698)
(5.5819329 -0.3733629 0.018895655)
(5.5795823 -0.37147521 0.018522227)
(5.5834699 -0.36794184 0.020292924)
(5.5846256 -0.36161476 0.021397913)
(5.5826434 -0.35929296 0.022931956)
(5.5812005 -0.35603888 0.025177594)
(5.5800393 -0.3530143 0.026952059)
(5.5787549 -0.35084915 0.028952536)
(5.5780832 -0.34887122 0.031724944)
(5.5783081 -0.3456817 0.03387189)
(5.5825362 -0.34228541 0.035875993)
(5.584771 -0.33561843 0.038017379)
(5.5948045 -0.32499957 0.039184141)
(5.5925392 -0.32829488 0.035919523)
(5.5937992 -0.32959196 0.033761196)
(5.5946468 -0.33162177 0.031046852)
(5.5956155 -0.33440144 0.029149648)
(5.5966493 -0.33754935 0.027092499)
(5.5987795 -0.34059754 0.024945709)
(5.601977 -0.3434074 0.022736481)
(5.6062618 -0.34584374 0.021932817)
(5.5959626 -0.35646445 0.021216092)
(5.5903209 -0.36420003 0.020142514)
(5.5925639 -0.3654072 0.020559808)
(5.5939213 -0.36617043 0.018832315)
(5.5954554 -0.36820725 0.015610615)
(5.5978242 -0.37078062 0.013741646)
(5.599971 -0.37293452 0.012076348)
(5.6016271 -0.37515386 0.010703773)
(5.6026066 -0.37771999 0.0092238741)
(5.6023685 -0.38121497 0.007986614)
(5.6013952 -0.38385671 0.0058001732)
(5.603311 -0.38373924 0.005629634)
(5.6032742 -0.38633992 0.0050051904)
(5.5942788 -0.39520791 0.0041742531)
(5.5952713 -0.39280424 0.0053917501)
(5.5946381 -0.39174614 0.0054519747)
(5.5973023 -0.38995037 0.0075267064)
(5.5976211 -0.3911161 0.0054446859)
(5.5973446 -0.39234365 0.0048577648)
(5.5973633 -0.39239216 0.0032807891)
(5.5956424 -0.39430511 0.0015530703)
(5.6064369 -0.38770133 0.0022202991)
(5.6141253 -0.38436269 0.0016559643)
(5.6178698 -0.3759633 0.00095738722)
(5.6248385 -0.36452399 0.00051348135)
(5.6224742 -0.37045363 0.0011556313)
(5.6248526 -0.35646236 0.0017218042)
(5.6418506 -0.34745952 0.0017381044)
(5.3226413 -0.0064658307 0.0015323673)
(5.310719 -0.0073595651 0.0015349154)
(5.2969027 -0.0081056237 0.0015257322)
(5.2815123 -0.0086997897 0.0015070736)
(5.264877 -0.0091392455 0.0014805413)
(5.2473338 -0.0094235353 0.0014475883)
(5.229222 -0.0095539524 0.0014096011)
(5.2108888 -0.0095355622 0.001367548)
(5.19263 -0.009374586 0.0013226182)
(5.1748079 -0.0090817601 0.0012757887)
(5.1576678 -0.0086732123 0.0012276589)
(5.1414688 -0.0081688139 0.0011795866)
(5.1264063 -0.0075914415 0.0011320066)
(5.1126214 -0.0069659478 0.0010851937)
(5.1001977 -0.0063173043 0.0010394637)
(5.0891632 -0.0056681574 0.00099506026)
(5.0794973 -0.0050373641 0.00095214637)
(5.0711413 -0.0044394265 0.00091080203)
(5.0640085 -0.0038844216 0.00087108175)
(5.0579942 -0.0033783635 0.00083303202)
(5.0529842 -0.0029238512 0.00079666098)
(5.0488626 -0.0025208549 0.00076194518)
(5.0455159 -0.0021674082 0.00072885689)
(5.0428375 -0.0018602506 0.00069733747)
(5.0431167 -0.0056465417 0.00067637473)
(5.0457129 -0.0065834017 0.00070602035)
(5.0489736 -0.0076630451 0.00073712439)
(5.053008 -0.0088957145 0.00076991247)
(5.0579337 -0.010287916 0.00080453828)
(5.0638721 -0.011840189 0.00084123214)
(5.0709436 -0.013544975 0.00088019255)
(5.0792609 -0.015384148 0.00092151424)
(5.0889192 -0.017326852 0.00096529162)
(5.0999854 -0.019328362 0.0010116643)
(5.1124872 -0.0213303 0.001060549)
(5.1264017 -0.023262535 0.0011115176)
(5.1416455 -0.025047531 0.0011639929)
(5.1580738 -0.026607781 0.0012178775)
(5.1754844 -0.027872791 0.001273044)
(5.1936112 -0.028779922 0.0013277941)
(5.2121979 -0.029280003 0.001380781)
(5.2308752 -0.029340834 0.0014306767)
(5.2493365 -0.028943964 0.0014764824)
(5.2672304 -0.028075027 0.0015172305)
(5.2842113 -0.026730751 0.0015514203)
(5.2999373 -0.024913499 0.001577489)
(5.3140746 -0.022632781 0.0015938892)
(5.3263001 -0.019902326 0.0015983844)
(5.3330428 -0.034609826 0.0017349294)
(5.320248 -0.039300167 0.0017108132)
(5.3055136 -0.04321234 0.0016748626)
(5.2891687 -0.046323326 0.0016296806)
(5.2715543 -0.048618658 0.0015765679)
(5.2530206 -0.050094866 0.0015171921)
(5.2339248 -0.050756713 0.0014532005)
(5.2146249 -0.050625666 0.0013853542)
(5.1954494 -0.049730025 0.0013133578)
(5.17678 -0.048128625 0.0012391906)
(5.1588966 -0.045903971 0.0011670514)
(5.1420774 -0.043161917 0.0011011673)
(5.1265354 -0.04002804 0.001040181)
(5.1124226 -0.036641442 0.00098386174)
(5.0998188 -0.033141123 0.00093247718)
(5.0887355 -0.029651483 0.00088595464)
(5.0791294 -0.026275045 0.00084398382)
(5.0709165 -0.023089114 0.00080601567)
(5.0639845 -0.020145772 0.00077147885)
(5.0582062 -0.017474417 0.00073983336)
(5.0534488 -0.015086044 0.0007105398)
(5.049582 -0.012977617 0.00068311727)
(5.0464818 -0.011136106 0.00065723017)
(5.0440344 -0.0095422455 0.00063263075)
(5.0455653 -0.013476688 0.00059595767)
(5.0477672 -0.015743462 0.00061478479)
(5.0505976 -0.01837198 0.00063437305)
(5.0541758 -0.021393709 0.0006550861)
(5.0586355 -0.024831897 0.00067748074)
(5.0641213 -0.028696042 0.00070233156)
(5.0707856 -0.032975688 0.00073059889)
(5.0787807 -0.037632989 0.00076351254)
(5.0882477 -0.042595413 0.00080247251)
(5.0993017 -0.047751285 0.00084859447)
(5.1120153 -0.052948491 0.00090257396)
(5.1264006 -0.057998006 0.00096504544)
(5.1423849 -0.062684268 0.0010354869)
(5.1598076 -0.066793014 0.0011131791)
(5.1784299 -0.070133111 0.001198192)
(5.1979454 -0.072548934 0.001290921)
(5.2180505 -0.073925741 0.0013889635)
(5.2383402 -0.074180468 0.0014789902)
(5.2584451 -0.073274205 0.0015661637)
(5.2779994 -0.071180826 0.0016509308)
(5.2966311 -0.067895012 0.00173049)
(5.3139791 -0.063423831 0.0018029051)
(5.32969 -0.057786809 0.0018658866)
(5.3434234 -0.051015467 0.0019168533)
(5.3577728 -0.069421513 0.0020838302)
(5.3426663 -0.078366902 0.0020098219)
(5.3255361 -0.08579697 0.0019246925)
(5.3067369 -0.091674397 0.0018312295)
(5.2866343 -0.095973405 0.0017317977)
(5.265604 -0.098679951 0.0016272823)
(5.2440397 -0.099794798 0.0015221785)
(5.2223213 -0.099343194 0.0014150906)
(5.2008711 -0.097372835 0.0013008648)
(5.180121 -0.093980334 0.0011967962)
(5.1604242 -0.089315928 0.0011015365)
(5.142136 -0.08359489 0.0010146992)
(5.1255313 -0.077085207 0.00093714422)
(5.1107888 -0.070098008 0.00086960086)
(5.0979683 -0.062950899 0.00081338488)
(5.087016 -0.055911792 0.00076757822)
(5.0778099 -0.049188712 0.0007307292)
(5.0701853 -0.042928197 0.00070103161)
(5.0639561 -0.0372197 0.00067663902)
(5.0589322 -0.032103252 0.00065589256)
(5.054933 -0.027581862 0.00063745797)
(5.0517938 -0.023632889 0.00062026025)
(5.0493685 -0.020217132 0.00060363181)
(5.0475307 -0.017286282 0.00058730224)
(5.0496744 -0.020764928 0.00061234068)
(5.0510212 -0.024318036 0.00063111901)
(5.0528938 -0.028486323 0.00065029658)
(5.0554252 -0.033341195 0.00067018684)
(5.0587758 -0.038945917 0.00069126519)
(5.0631343 -0.045346168 0.00071422395)
(5.0687184 -0.052558041 0.00074052433)
(5.0757705 -0.060550494 0.00077185078)
(5.0845418 -0.069224941 0.00081010174)
(5.0952706 -0.078402813 0.000857198)
(5.1081587 -0.087815115 0.00091466431)
(5.123335 -0.097095264 0.00098420371)
(5.1407603 -0.10577976 0.0010648866)
(5.1602195 -0.11342487 0.0011553286)
(5.1813756 -0.1196701 0.0012548945)
(5.2038029 -0.12423831 0.0013640264)
(5.2270701 -0.12694392 0.0014838934)
(5.2506993 -0.12768319 0.0015975043)
(5.27421 -0.12641381 0.0017099063)
(5.2971981 -0.12312272 0.0018232891)
(5.3192469 -0.1178217 0.0019327596)
(5.3399673 -0.11053417 0.002037579)
(5.3589812 -0.10129145 0.0021358879)
(5.3759189 -0.090133612 0.0022247178)
(5.397215 -0.11348796 0.0023838027)
(5.3779865 -0.12685982 0.002281495)
(5.3566337 -0.13790585 0.0021721506)
(5.3335376 -0.14658618 0.0020584175)
(5.3090824 -0.15286341 0.0019417617)
(5.2836646 -0.15669891 0.001825063)
(5.2577199 -0.15806007 0.0017106486)
(5.2316858 -0.15693115 0.0015967959)
(5.2060975 -0.15333261 0.0014762697)
(5.1815119 -0.14735921 0.0013638291)
(5.1584674 -0.13921712 0.0012625183)
(5.137498 -0.12925086 0.0011711809)
(5.1190448 -0.11793076 0.0010888068)
(5.1033952 -0.10589201 0.0010172778)
(5.0905536 -0.093820061 0.00095780806)
(5.0802572 -0.082203268 0.00090673728)
(5.0721791 -0.071371934 0.00086294524)
(5.0659739 -0.061526246 0.00082496025)
(5.0613024 -0.052759742 0.00079129072)
(5.0578547 -0.045076125 0.0007606565)
(5.0553686 -0.038423126 0.00073220142)
(5.05363 -0.032718884 0.000705455)
(5.0524657 -0.027865719 0.00067997242)
(5.0517385 -0.023761565 0.00065540745)
(5.0535111 -0.026102068 0.00070538815)
(5.0534935 -0.030652315 0.00073729741)
(5.0537899 -0.036084504 0.00077096288)
(5.0545348 -0.04253931 0.00080687239)
(5.0559083 -0.050160917 0.00084552725)
(5.058147 -0.05908566 0.00088668101)
(5.0615599 -0.069425661 0.00093050423)
(5.0665395 -0.081232153 0.00097770579)
(5.07354 -0.094441249 0.001029109)
(5.0830541 -0.10885705 0.0010854572)
(5.0956029 -0.12409796 0.0011470043)
(5.1116928 -0.13953138 0.0012204173)
(5.1313838 -0.15410591 0.0013043802)
(5.1542448 -0.1668892 0.0013972092)
(5.1796632 -0.17729113 0.0015039568)
(5.2069367 -0.18491046 0.0016202671)
(5.2353728 -0.18955007 0.0017390568)
(5.2643075 -0.19114954 0.0018578146)
(5.293164 -0.18974264 0.001978543)
(5.3214599 -0.18539809 0.0021016943)
(5.3487533 -0.17818329 0.0022274902)
(5.3746518 -0.1681615 0.0023552183)
(5.3987762 -0.15538108 0.0024814279)
(5.4207493 -0.13987223 0.0026027328)
(5.4454125 -0.16985981 0.002919636)
(5.4202669 -0.18744479 0.0027611202)
(5.3929973 -0.20189206 0.0026036938)
(5.3639459 -0.21319281 0.0024496551)
(5.3334547 -0.22129629 0.0023015457)
(5.3018905 -0.22610989 0.0021593492)
(5.2696784 -0.22751335 0.0020227483)
(5.2373458 -0.2253686 0.0018913449)
(5.2054933 -0.21953618 0.001764505)
(5.1749319 -0.20999607 0.0016463478)
(5.1465427 -0.19689521 0.0015419933)
(5.1212955 -0.1806657 0.0014527571)
(5.1001068 -0.16198179 0.0013709313)
(5.0837076 -0.14227306 0.00129966)
(5.0718989 -0.12321743 0.0012382503)
(5.0637247 -0.10559842 0.0011747446)
(5.0583618 -0.08979878 0.0011122887)
(5.0551208 -0.075966435 0.0010515698)
(5.0534077 -0.064095396 0.00099289584)
(5.0527368 -0.054032318 0.00093676207)
(5.0527563 -0.045573801 0.00088401669)
(5.0532186 -0.038508812 0.00083509816)
(5.0539494 -0.032634904 0.00078980721)
(5.0548289 -0.027764535 0.00074779934)
(5.0554376 -0.028436922 0.00079551934)
(5.0536037 -0.033430359 0.000853518)
(5.0517055 -0.039528126 0.00091767024)
(5.0498318 -0.046967585 0.0009883137)
(5.0481315 -0.056026979 0.0010653913)
(5.0468384 -0.067016912 0.0011472848)
(5.0463229 -0.080276851 0.0012303662)
(5.0471632 -0.096121664 0.0013115248)
(5.0501166 -0.1146682 0.0013877957)
(5.0561138 -0.135973 0.0014515878)
(5.0664218 -0.15969869 0.001494753)
(5.0828501 -0.18502238 0.001539136)
(5.1059148 -0.20910769 0.0015969858)
(5.1342464 -0.22961693 0.0016600029)
(5.1663784 -0.24590829 0.0017543669)
(5.2009694 -0.25757946 0.001879276)
(5.2368443 -0.26461875 0.0020226043)
(5.2731347 -0.2672524 0.0021731846)
(5.3091382 -0.26577981 0.0023326211)
(5.3443364 -0.26045421 0.0025004902)
(5.3783477 -0.25147242 0.002677783)
(5.4108835 -0.23896961 0.0028657526)
(5.4416877 -0.2230128 0.0030594231)
(5.470448 -0.20364958 0.0032520977)
(5.4948599 -0.24237713 0.0037157977)
(5.4622436 -0.26336221 0.0034470709)
(5.4277455 -0.28068282 0.0031653778)
(5.3915786 -0.29424617 0.0029054047)
(5.3538699 -0.30397674 0.0026834397)
(5.3147601 -0.30971506 0.0024864087)
(5.274539 -0.31123815 0.0023023383)
(5.2336718 -0.30813144 0.002127816)
(5.1928856 -0.29985021 0.0019574987)
(5.1532489 -0.28596877 0.0018182639)
(5.1161362 -0.2661071 0.0017450385)
(5.0834821 -0.24039738 0.0017386219)
(5.0577911 -0.20897782 0.0017442655)
(5.0418646 -0.17616008 0.0017570132)
(5.0343114 -0.14676528 0.0017250331)
(5.0317726 -0.12145294 0.0016320429)
(5.0322964 -0.10006908 0.0015263688)
(5.0346824 -0.082441801 0.0014056014)
(5.0380545 -0.068093671 0.0012814628)
(5.0417548 -0.05647411 0.0011622166)
(5.0454322 -0.047086936 0.0010538474)
(5.0489084 -0.039507136 0.00095813065)
(5.0520914 -0.033381541 0.00087421776)
(5.0549487 -0.028419738 0.00080057854)
(5.052239 -0.026654782 0.00081277138)
(5.0482941 -0.031191023 0.00092271411)
(5.0437368 -0.036868826 0.0010516485)
(5.0385236 -0.044022373 0.0012019698)
(5.0326571 -0.053088954 0.001376105)
(5.0262092 -0.064629951 0.0015731273)
(5.0194049 -0.079346054 0.0017814587)
(5.0128354 -0.098145561 0.0019854477)
(5.0075311 -0.12208168 0.0021776238)
(5.0048925 -0.15173517 0.0023179574)
(5.0075973 -0.18794242 0.0023051229)
(5.0219836 -0.23157741 0.002108314)
(5.0516343 -0.27394172 0.0019356277)
(5.0908978 -0.30634155 0.001750664)
(5.13472 -0.33029662 0.0016633603)
(5.180797 -0.34665564 0.0016412703)
(5.2274604 -0.35595242 0.0018134119)
(5.2735291 -0.35884805 0.0019996829)
(5.3184113 -0.35679088 0.0021702628)
(5.3617205 -0.35034193 0.0023523697)
(5.4033048 -0.33967496 0.0025688301)
(5.4432836 -0.32502021 0.0028505179)
(5.4818242 -0.30642992 0.0031332812)
(5.5190967 -0.28417612 0.0033101762)
(5.1349046 -0.00039953242 0.002240132)
(5.1276261 -0.0005597589 0.0024145177)
(5.1196054 -0.00068628304 0.0025539809)
(5.1110136 -0.00077850154 0.0026585046)
(5.1020196 -0.00083684895 0.0027290965)
(5.0927889 -0.00086248241 0.002767425)
(5.0834752 -0.00085794207 0.0027765672)
(5.0742113 -0.00082599967 0.0027594551)
(5.0651357 -0.00076971886 0.0027190891)
(5.0563438 -0.00069309067 0.0026593952)
(5.0479286 -0.00060030283 0.0025841122)
(5.0399576 -0.00049568246 0.0024970111)
(5.0324791 -0.00038338221 0.0024016219)
(5.0255233 -0.00026728246 0.0023011324)
(5.0191041 -0.00015088208 0.0021986711)
(5.0132207 -3.6833042e-05 0.0020967586)
(5.0078613 7.2998993e-05 0.0019970122)
(5.0030062 0.00017685396 0.0019006235)
(4.9986285 0.00027314534 0.0018086902)
(5.0427025 -0.0018798033 0.0021162173)
(5.0423776 -0.0019037091 0.0036142733)
(5.0418237 -0.0019166694 0.0052077679)
(5.041015 -0.0019174805 0.0068696536)
(5.0399544 -0.0019115053 0.008565227)
(5.0386667 -0.0019075586 0.010256306)
(5.0371841 -0.001910256 0.011925897)
(5.0355373 -0.0019207687 0.013574899)
(5.0337533 -0.0019393977 0.015216436)
(5.0318567 -0.0019665639 0.016868434)
(5.0298709 -0.0020026326 0.018550363)
(4.9986657 0.00025289886 0.018187692)
(4.9985768 0.00027640157 0.013729505)
(4.9985388 0.00028555771 0.0094854731)
(4.9985567 0.00028274099 0.0055199515)
(5.0029294 0.00018334622 0.0057991374)
(5.002901 0.000180247 0.0099617008)
(5.0029177 0.00016300321 0.014410326)
(5.0029715 0.00012941822 0.019073544)
(5.0030573 7.9777133e-05 0.023802518)
(5.0031802 7.8713319e-06 0.028441692)
(5.0033522 -9.7673254e-05 0.032852878)
(5.0165472 -0.002772705 0.036221555)
(5.018464 -0.0027334301 0.033769493)
(5.0204489 -0.0026761312 0.031394819)
(5.0224846 -0.0026098198 0.02912461)
(5.0245537 -0.0025412275 0.026968675)
(5.026638 -0.0024751161 0.02492449)
(5.0287187 -0.002414638 0.022981404)
(5.030776 -0.0023617238 0.021123859)
(5.0327896 -0.0023174111 0.019333541)
(5.0347377 -0.0022820687 0.017590872)
(5.0365984 -0.0022556048 0.01587588)
(5.0383486 -0.0022376376 0.014168812)
(5.0399643 -0.002227794 0.012451497)
(5.0414191 -0.0022258995 0.010710767)
(5.0426828 -0.0022308099 0.0089460609)
(5.0437242 -0.0022373401 0.0071757001)
(5.0445189 -0.0022355363 0.0054400098)
(5.0450639 -0.0022193458 0.0037754109)
(5.0453836 -0.0021907189 0.0022107783)
(5.0487329 -0.0025487331 0.0023100199)
(5.0484184 -0.0025827901 0.0039448332)
(5.0478824 -0.0026027109 0.0056841798)
(5.0471023 -0.0026055748 0.0074974242)
(5.0460809 -0.0025982935 0.0093460393)
(5.044842 -0.0025921686 0.011187518)
(5.0434161 -0.0025930327 0.013002133)
(5.0418323 -0.0026019834 0.014790089)
(5.0401166 -0.0026190469 0.01656458)
(5.0382924 -0.0026445371 0.018343997)
(5.0363822 -0.0026788627 0.020148388)
(5.0344076 -0.0027221504 0.021998129)
(5.0323896 -0.0027740608 0.023913284)
(5.0303482 -0.0028335583 0.025912831)
(5.0283029 -0.0028987388 0.028013095)
(5.0262722 -0.0029664242 0.030225621)
(5.0242744 -0.0030317653 0.032553767)
(5.022327 -0.0030879433 0.034988705)
(5.0204476 -0.0031258507 0.037504016)
(5.018654 -0.0031340665 0.040049883)
(5.0169643 -0.0030995827 0.042548338)
(5.015396 -0.0030094969 0.044889263)
(5.013966 -0.0028538364 0.046933874)
(5.0126885 -0.0026283959 0.048521719)
(5.0115746 -0.0023388624 0.049493583)
(5.0106301 -0.0020011184 0.049708276)
(5.0098581 -0.0016419228 0.04908267)
(5.0092436 -0.001286109 0.047589238)
(5.0087703 -0.0009601562 0.045267277)
(5.0084197 -0.00068031344 0.042206098)
(5.0081695 -0.00045494663 0.038519813)
(5.0079987 -0.00028310302 0.034331906)
(5.0078869 -0.00015825993 0.029762323)
(5.0078158 -6.9402865e-05 0.024937786)
(5.0077713 -5.5081453e-06 0.020003396)
(5.0077464 3.9711356e-05 0.015124803)
(5.007746 6.6108202e-05 0.010461242)
(5.0077812 7.5821783e-05 0.0060920931)
(5.0131401 -3.8863158e-05 0.0063961482)
(5.0131029 -5.5781477e-05 0.010979009)
(5.0130939 -9.2299456e-05 0.01586567)
(5.0130995 -0.00015070555 0.020968048)
(5.0131146 -0.00023099711 0.026116134)
(5.013148 -0.00033960228 0.031133555)
(5.0132153 -0.00048701856 0.035867761)
(5.0133365 -0.00068348689 0.040187071)
(5.0135335 -0.00093445922 0.043969274)
(5.0138293 -0.0012400194 0.047089692)
(5.0142479 -0.0015905191 0.049435604)
(5.0148095 -0.0019689076 0.050920509)
(5.0155322 -0.0023475234 0.051510349)
(5.016432 -0.0027013484 0.051239536)
(5.0175053 -0.0030031898 0.050198147)
(5.0187462 -0.0032376299 0.048534297)
(5.0201429 -0.0033997535 0.04641221)
(5.02168 -0.0034943012 0.043995739)
(5.0233396 -0.0035318685 0.041425569)
(5.0251031 -0.0035258619 0.03881243)
(5.0269516 -0.0034896656 0.03623408)
(5.028867 -0.0034348983 0.033739701)
(5.0308313 -0.0033708567 0.031354653)
(5.0328268 -0.0033044178 0.02908667)
(5.0348354 -0.0032405225 0.026931348)
(5.036839 -0.0031823597 0.024876089)
(5.0388185 -0.0031318286 0.022903686)
(5.0407546 -0.0030899471 0.020994409)
(5.0426267 -0.0030570027 0.019127666)
(5.044414 -0.0030328257 0.017282656)
(5.0460947 -0.0030169774 0.015439048)
(5.0476458 -0.0030091996 0.01357825)
(5.0490422 -0.0030096441 0.01168708)
(5.0502553 -0.0030172858 0.0097657076)
(5.051256 -0.0030255576 0.0078353355)
(5.0520211 -0.0030215765 0.0059406788)
(5.0525478 -0.0029973871 0.0041228383)
(5.052857 -0.0029571114 0.0024140735)
(5.0578692 -0.003417892 0.0025230445)
(5.0575653 -0.0034652071 0.0043096271)
(5.057048 -0.0034942187 0.006209831)
(5.0562984 -0.0034993316 0.0081898321)
(5.0553191 -0.0034897706 0.010205471)
(5.0541323 -0.0034802549 0.012209809)
(5.0527661 -0.0034781549 0.014180104)
(5.0512482 -0.0034844104 0.016115779)
(5.0496029 -0.0034986572 0.018029968)
(5.0478526 -0.0035210887 0.019941426)
(5.0460182 -0.0035521952 0.02187074)
(5.04412 -0.0035922042 0.023839151)
(5.0421776 -0.003640858 0.025867819)
(5.0402098 -0.0036972045 0.027977297)
(5.0382349 -0.0037593385 0.030185786)
(5.0362707 -0.0038240598 0.032507084)
(5.0343348 -0.0038863642 0.034946819)
(5.0324449 -0.0039392848 0.037498627)
(5.030619 -0.0039733331 0.040138314)
(5.0288758 -0.0039766019 0.042817821)
(5.0272348 -0.0039353495 0.045459636)
(5.0257154 -0.0038356395 0.047952818)
(5.0243367 -0.0036660871 0.05015475)
(5.0231153 -0.0034212406 0.051898343)
(5.0220637 -0.0031052161 0.053013697)
(5.0211881 -0.0027329785 0.05334572)
(5.020493 -0.0023319581 0.052796249)
(5.0199614 -0.0019273586 0.051323589)
(5.019574 -0.0015483394 0.04895558)
(5.019309 -0.001213032 0.045775814)
(5.0191413 -0.00093238322 0.041895832)
(5.0190464 -0.00070752678 0.037441432)
(5.0190018 -0.00053414767 0.032537804)
(5.0189867 -0.00040301301 0.027321896)
(5.0189845 -0.00030415434 0.021954341)
(5.0189856 -0.00023113833 0.016622587)
(5.0189948 -0.00018356756 0.011507743)
(5.0190276 -0.00015890959 0.0067071154)
(5.0254565 -0.00028174013 0.0070189298)
(5.0254358 -0.00031463028 0.012037776)
(5.0254381 -0.00037407041 0.017381853)
(5.0254466 -0.00046302379 0.022944744)
(5.025457 -0.00058242726 0.028534071)
(5.0254792 -0.00073874013 0.033951283)
(5.0255296 -0.00094132084 0.0390271)
(5.0256284 -0.0011982783 0.043619036)
(5.0257984 -0.00151262 0.047598227)
(5.0260641 -0.0018818416 0.050837609)
(5.0264514 -0.002293431 0.053226445)
(5.0269828 -0.0027278787 0.054684471)
(5.0276785 -0.0031545831 0.055190466)
(5.0285558 -0.0035478283 0.054793893)
(5.0296095 -0.0038799766 0.053601916)
(5.0308329 -0.0041367478 0.051777033)
(5.0322124 -0.0043148765 0.049494934)
(5.0337305 -0.0044206692 0.046925982)
(5.035367 -0.0044663551 0.044214468)
(5.0371016 -0.0044664732 0.041471451)
(5.0389145 -0.0044351992 0.038773751)
(5.0407868 -0.0043847242 0.036168103)
(5.0427006 -0.0043247624 0.033677237)
(5.0446385 -0.0042623768 0.03130596)
(5.0465834 -0.0042026369 0.029047219)
(5.0485181 -0.0041487395 0.026885865)
(5.0504253 -0.0041025803 0.024802619)
(5.052287 -0.0040650606 0.02277606)
(5.0540844 -0.0040363632 0.020784412)
(5.055798 -0.0040162053 0.018806014)
(5.0574078 -0.0040040398 0.016820058)
(5.0588924 -0.0039997358 0.014807664)
(5.060228 -0.0040039037 0.012755825)
(5.061388 -0.0040157154 0.010665533)
(5.0623455 -0.0040269259 0.0085611485)
(5.0630794 -0.0040207082 0.0064918429)
(5.0635873 -0.0039863716 0.0045053577)
(5.0638859 -0.0039311939 0.0026369742)
(5.0710208 -0.0044944149 0.0027558272)
(5.0707275 -0.0045582297 0.0047100718)
(5.070229 -0.0045983564 0.0067867405)
(5.0695109 -0.0046055884 0.0089492968)
(5.0685754 -0.0045923002 0.011145812)
(5.0674423 -0.0045777071 0.01332491)
(5.0661373 -0.0045709846 0.01546052)
(5.064686 -0.0045728155 0.017551218)
(5.0631111 -0.0045823102 0.019609797)
(5.0614332 -0.004599548 0.021655205)
(5.0596715 -0.0046251247 0.023708423)
(5.0578445 -0.0046594146 0.025791496)
(5.0559698 -0.0047023032 0.027926833)
(5.0540645 -0.0047529611 0.030136748)
(5.0521449 -0.0048095092 0.032441697)
(5.0502274 -0.0048687365 0.034858249)
(5.0483282 -0.0049255601 0.037395076)
(5.0464641 -0.0049727893 0.040049195)
(5.0446526 -0.0050004507 0.042799441)
(5.0429125 -0.004996101 0.045600879)
(5.0412638 -0.0049450423 0.048377526)
(5.0397275 -0.0048320718 0.051018706)
(5.0383243 -0.0046440199 0.05337849)
(5.0370729 -0.0043736452 0.055283429)
(5.0359878 -0.0040232565 0.056551929)
(5.0350764 -0.0036064222 0.057013851)
(5.034345 -0.0031507285 0.0565524)
(5.0337764 -0.0026827685 0.055109806)
(5.0333503 -0.0022347497 0.052700242)
(5.0330442 -0.001827674 0.049400884)
(5.0328325 -0.0014759531 0.04532167)
(5.0326915 -0.0011835483 0.040591641)
(5.0325999 -0.00094890907 0.035343577)
(5.0325392 -0.00076512978 0.029726101)
(5.0324945 -0.00062353471 0.023917111)
(5.0324562 -0.00051757434 0.018126314)
(5.0324284 -0.00044568791 0.012556883)
(5.0324275 -0.00040415826 0.0073240695)
(5.0399274 -0.00052274463 0.0076139321)
(5.0399604 -0.00057287989 0.013050529)
(5.0400304 -0.00065748108 0.018835375)
(5.0401222 -0.00078103065 0.024844864)
(5.0402323 -0.00094591934 0.030865818)
(5.0403688 -0.0011587986 0.036677902)
(5.0405438 -0.0014276804 0.042094593)
(5.0407725 -0.0017581574 0.046960974)
(5.0410735 -0.0021503092 0.051139821)
(5.0414681 -0.0025985218 0.054499694)
(5.0419803 -0.0030864387 0.056931136)
(5.0426313 -0.0035912611 0.058359641)
(5.0434411 -0.004078983 0.058778316)
(5.0444254 -0.0045220205 0.058253563)
(5.0455769 -0.0048928009 0.056912045)
(5.0468874 -0.0051785105 0.054931856)
(5.0483414 -0.0053779439 0.05250035)
(5.0499192 -0.0054993573 0.049793903)
(5.0515997 -0.0055569748 0.046959735)
(5.0533617 -0.0055666502 0.044107741)
(5.0551854 -0.0055436297 0.041312779)
(5.0570524 -0.0055007084 0.03861778)
(5.0589461 -0.0054480458 0.036041934)
(5.0608506 -0.0053929641 0.033586308)
(5.0627507 -0.0053406138 0.031240496)
(5.0646312 -0.0052941604 0.028986391)
(5.0664769 -0.0052554828 0.026802336)
(5.0682721 -0.0052253133 0.0246651)
(5.0700002 -0.005203706 0.022551675)
(5.0716439 -0.0051901634 0.020439681)
(5.073185 -0.0051840428 0.018308009)
(5.0746039 -0.0051853115 0.016137743)
(5.0758789 -0.0051951687 0.013916386)
(5.0769853 -0.0052131088 0.011645851)
(5.077899 -0.0052289714 0.0093539807)
(5.0786015 -0.005220899 0.0070943346)