/*--------------------------------*- C++ -*----------------------------------*\
| =========                 |                                                 |
| \\      /  F ield         | OpenFOAM: The Open Source CFD Toolbox           |
|  \\    /   O peration     | Version:  v2012                                 |
|   \\  /    A nd           | Website:  www.openfoam.com                      |
|    \\/     M anipulation  |                                                 |
\*---------------------------------------------------------------------------*/
FoamFile
{
    version     2.0;
    format      ascii;
    class       volScalarField;
    location    "200";
    object      nut;
}
// * * * * * * * * * * * * * * * * * * * * * * * * * * * * * * * * * * * * * //

dimensions      [0 2 -1 0 0 0 0];


internalField   nonuniform List<scalar> 
229778
(
0.0006783343
0.00068029452
0.00068194539
0.00068307804
0.00068369772
0.00068378081
0.00068333799
0.00068237572
0.00068090457
0.00067893638
0.00067647932
0.00067354228
0.00067012811
0.0006662455
0.00066189793
0.00065709491
0.00065184439
0.00064615523
0.00064003735
0.00063350153
0.00062655695
0.00061921627
0.00061149616
0.00060341126
0.00059497468
0.00058620564
0.00057711971
0.00056773678
0.00055807386
0.00054815016
0.00053798542
0.00052760226
0.00051702053
0.00050626377
0.00049535317
0.00048431315
0.00047316541
0.00046193442
0.00045064227
0.00043931184
0.0058134304
0.0060050814
0.006200387
0.0063990455
0.0066018536
0.0068096942
0.0070211613
0.0072371345
0.0074550939
0.0076773037
0.0079053425
0.0081351622
0.0083696068
0.0086077906
0.0088499451
0.0090979338
0.0093508434
0.0096043055
0.0098615454
0.010121469
0.010387092
0.010660657
0.0109394
0.011219423
0.011504268
0.011792792
0.01208543
0.012384491
0.012687319
0.012994907
0.0133034
0.013614343
0.013931403
0.014252137
0.014575031
0.014903573
0.015238054
0.015577918
0.015918048
0.016261184
0.016609344
0.016961351
0.017316115
0.017673616
0.018033053
0.018395627
0.018759907
0.01912632
0.019495495
0.019866641
0.020238957
0.020612283
0.020988749
0.021363062
0.021736304
0.022112162
0.022488733
0.022864845
0.023239748
0.023613678
0.023986201
0.024354892
0.024720896
0.025081533
0.025438415
0.025794494
0.018533742
0.018174644
0.017818437
0.017465066
0.017115071
0.016768302
0.016425176
0.016085531
0.015749743
0.01541765
0.015089588
0.01476539
0.014445353
0.014129309
0.013817517
0.013509808
0.013206409
0.012907152
0.012612235
0.012321492
0.012035095
0.011752883
0.011475004
0.011201303
0.010931906
0.010666666
0.010405688
0.010148831
0.009896186
0.0096476176
0.0094032012
0.0091628101
0.0089265059
0.0086941689
0.0084658486
0.0082414327
0.0080209601
0.0078043249
0.0075915543
0.0073825477
0.0071773255
0.0069757958
0.0067779735
0.0065837756
0.0063932134
0.0062062119
0.0060227779
0.0058428422
0.0056663668
0.0054930269
0.0054246362
0.005598793
0.0057756758
0.005955998
0.0061398172
0.0063271633
0.0065180673
0.0067125572
0.0069106631
0.007112414
0.0073178431
0.0075269815
0.0077398705
0.0079565524
0.0081770767
0.0084014821
0.0086298074
0.0088620875
0.0090983591
0.0093386542
0.0095830052
0.0098314414
0.010083992
0.010340681
0.010601535
0.010866575
0.011135821
0.011409291
0.011686996
0.011968947
0.012255149
0.012545604
0.012840308
0.013139256
0.013442431
0.013749814
0.014061377
0.01437709
0.014696906
0.015020778
0.015348638
0.015680418
0.016016019
0.016355344
0.01669826
0.017044649
0.017394491
0.017747568
0.018103985
0.018467947
0.018519575
0.01816126
0.017806371
0.017454695
0.017106224
0.01676105
0.016419312
0.016081194
0.015746841
0.015416355
0.015089815
0.014767274
0.014448777
0.014134365
0.013824071
0.013517922
0.013215943
0.012918153
0.012624567
0.012335193
0.012050036
0.011769093
0.01149236
0.011219831
0.010951495
0.010687336
0.010427334
0.010171468
0.0099197186
0.0096720618
0.0094284704
0.0091889127
0.0089533579
0.0087217717
0.008494109
0.0082703288
0.00805038
0.0078342288
0.0076217572
0.0074129827
0.0072078933
0.0070064756
0.0068087054
0.006614568
0.0064240418
0.0062371041
0.006053723
0.0058738707
0.0056974796
0.0055242053
0.0054995312
0.0056759781
0.0058550626
0.0060375239
0.0062234578
0.0064128903
0.0066059093
0.0068024585
0.0070027533
0.0072066233
0.0074142357
0.007625634
0.0078408466
0.0080598205
0.0082826038
0.0085089705
0.0087390886
0.0089728528
0.0092104978
0.0094520526
0.0096975515
0.0099470309
0.010200539
0.010458092
0.010719702
0.010985388
0.01125517
0.011529062
0.011807072
0.012089205
0.012375466
0.012665854
0.012960364
0.013258989
0.013561716
0.013868521
0.014179375
0.014494251
0.014813123
0.015135971
0.015462783
0.015793561
0.016128306
0.01646705
0.016809895
0.017156454
0.017506301
0.017859232
0.018215187
0.018576634
0.019061279
0.01869739
0.018336102
0.017977584
0.017621933
0.017270028
0.016922048
0.016580084
0.01624268
0.015909273
0.015579661
0.015253789
0.014931665
0.014613325
0.014298816
0.013988188
0.013681499
0.013378803
0.013080134
0.012785484
0.012494852
0.012208244
0.011925669
0.011647115
0.011372598
0.011102105
0.010835644
0.010573202
0.010314783
0.010060379
0.0098099686
0.0095632053
0.0093204177
0.0090815757
0.0088465507
0.0086147019
0.0083855149
0.008160031
0.007939632
0.0077234217
0.0075113027
0.0073031077
0.007098673
0.0068976158
0.0067003823
0.006506225
0.0063160553
0.0061289355
0.0059447442
0.0057638476
0.0055860656
0.0054893803
0.0056689652
0.0058514966
0.0060382858
0.0062298176
0.0064248014
0.0066232216
0.0068259795
0.0070305634
0.0072383188
0.0074497927
0.0076663052
0.0078860343
0.0081090204
0.0083357836
0.0085676567
0.0088025478
0.0090406264
0.0092826684
0.0095301407
0.0097809723
0.010035475
0.010293896
0.010556216
0.010822632
0.011092897
0.011367337
0.011645621
0.011928022
0.012214135
0.012504187
0.012798149
0.013096046
0.01339774
0.013703436
0.014013112
0.014326739
0.014644282
0.014965732
0.015291053
0.015620249
0.015953301
0.016290243
0.016631176
0.016976103
0.017324891
0.017679362
0.018036299
0.018395206
0.018756268
0.019123458
0.019222663
0.018856331
0.018492475
0.018130679
0.01777352
0.017418881
0.017069435
0.016723965
0.016382482
0.016044575
0.015710513
0.015380025
0.015053432
0.014730512
0.014411579
0.014096397
0.013785063
0.013477618
0.013174126
0.012874277
0.012578245
0.012286446
0.011998436
0.011713944
0.011432157
0.011154285
0.010882026
0.010613264
0.010347646
0.010085953
0.0098284202
0.0095765657
0.0093295545
0.009086181
0.0088457612
0.0086091955
0.0083765289
0.0081476579
0.0079227251
0.0077015952
0.0074844094
0.0072710716
0.0070616299
0.006856025
0.0066553035
0.0064582774
0.006265613
0.0060768859
0.0058920411
0.0057107069
0.0055328829
0.0055751918
0.005759048
0.0059467831
0.006139428
0.0063361345
0.0065367317
0.0067411935
0.0069496221
0.0071617829
0.0073778757
0.0075977486
0.0078211301
0.0080482055
0.0082799403
0.0085134181
0.008750944
0.0089946506
0.0092405007
0.0094907101
0.0097468718
0.010007371
0.010272082
0.01054089
0.01081353
0.011089888
0.011371253
0.011654125
0.011941457
0.012232256
0.012527474
0.012829789
0.013133803
0.013440967
0.013752291
0.014067451
0.014386722
0.0147097
0.015036757
0.015367353
0.015701858
0.016039699
0.016381361
0.016726289
0.017074786
0.017428218
0.017788121
0.018152053
0.018516487
0.018881361
0.019251874
0.019306697
0.018937208
0.01856974
0.018204624
0.017841789
0.017481752
0.01712843
0.016777658
0.016429369
0.016084068
0.015742462
0.01540419
0.015069905
0.014739259
0.014412805
0.014090183
0.013771912
0.013457567
0.01314752
0.012841747
0.012542379
0.012247237
0.011957543
0.011671124
0.011389628
0.011111113
0.010837253
0.010566507
0.010300433
0.010037585
0.0097794688
0.0095246536
0.0092733703
0.0090259341
0.0087826508
0.0085435866
0.0083100876
0.0080803821
0.0078553465
0.0076336991
0.0074151345
0.0072001619
0.0069889591
0.0067815399
0.0065791411
0.0063806266
0.0061866731
0.0059968356
0.0058110565
0.0056289179
0.0055039515
0.005687503
0.0058752251
0.0060663155
0.006261039
0.0064605887
0.0066652137
0.0068738648
0.0070862416
0.0073024361
0.0075224665
0.0077462083
0.0079740717
0.0082061906
0.0084420675
0.0086821512
0.0089266289
0.0091730995
0.0094238215
0.0096801702
0.00994088
0.010205751
0.010474747
0.01074805
0.011025168
0.011306329
0.011592449
0.011880344
0.012171509
0.012467307
0.012768812
0.013077186
0.013390498
0.013708917
0.014031252
0.014358306
0.014689411
0.015024596
0.01536352
0.015706287
0.016052214
0.016401356
0.016754306
0.017107809
0.017464222
0.017828422
0.018192855
0.018559586
0.018931055
0.01930729
0.01935502
0.018980064
0.018607265
0.018236932
0.017869435
0.017504786
0.017147023
0.016791722
0.016438255
0.016087744
0.015740552
0.015396808
0.015056865
0.014720801
0.014388856
0.014061264
0.013740188
0.013422957
0.013111344
0.012804643
0.012502666
0.012204904
0.011910367
0.011620427
0.011336444
0.011056643
0.010782193
0.01051127
0.010243545
0.0099797565
0.0097200447
0.0094644592
0.0092133404
0.0089665323
0.0087237747
0.0084850767
0.0082518649
0.0080226352
0.0077982199
0.0075771791
0.0073591669
0.0071448889
0.0069343982
0.0067276631
0.0065248754
0.0063260787
0.0061313259
0.0059405207
0.0057535796
0.0055701504
0.0056806024
0.0058685472
0.0060594783
0.006254093
0.0064524886
0.0066547445
0.006860995
0.0070709081
0.0072854689
0.0075060091
0.0077285458
0.0079547097
0.008185715
0.0084219245
0.0086631631
0.0089058587
0.009152053
0.0094021233
0.0096563671
0.0099143768
0.010176339
0.010442367
0.010712399
0.010986662
0.011266944
0.011551661
0.011841733
0.012135937
0.012435041
0.012740647
0.013051287
0.01336686
0.013687079
0.014011732
0.014341023
0.014674369
0.015011823
0.015353022
0.015698179
0.016046602
0.016398611
0.01675485
0.017112633
0.017473408
0.017841535
0.018212531
0.018586254
0.018962321
0.019342558
0.019373142
0.018995116
0.018618833
0.018244564
0.017873017
0.017504545
0.017143217
0.016785134
0.016431592
0.016080843
0.015735006
0.015391275
0.015050029
0.014712173
0.014378315
0.014048402
0.013722949
0.013401803
0.013085323
0.012773569
0.012468917
0.012169027
0.011875086
0.011584915
0.011300528
0.011020964
0.010746195
0.01047586
0.010210099
0.0099488118
0.0096918021
0.0094387082
0.0091900113
0.0089447971
0.0087043751
0.0084669007
0.0082324994
0.0080017842
0.0077749833
0.0075519882
0.0073330041
0.0071180674
0.0069072984
0.0067005481
0.0064979692
0.0062994752
0.0061050402
0.0059143887
0.0057273133
0.0057973238
0.0059889246
0.0061833158
0.0063817991
0.0065851571
0.0067938122
0.0070064359
0.0072229838
0.0074434282
0.0076678251
0.007895805
0.0081275925
0.0083638774
0.00860171
0.008842769
0.0090896017
0.0093398695
0.0095940905
0.0098526311
0.010115798
0.010384643
0.01065995
0.010939679
0.011223832
0.011513457
0.011805151
0.012100502
0.012400815
0.012707246
0.013021039
0.013339526
0.013662598
0.013989964
0.014321753
0.01465723
0.014996365
0.015340038
0.015684093
0.01603034
0.016381622
0.016739798
0.017099628
0.017463135
0.017834159
0.018208111
0.018584809
0.018963906
0.019347295
0.019368837
0.018988174
0.018609485
0.018232906
0.017859091
0.017488374
0.017124802
0.01676383
0.016405715
0.01605131
0.015701159
0.015354818
0.015012102
0.014673707
0.014339683
0.01400962
0.013683749
0.013362525
0.013045983
0.012733827
0.01242681
0.012124502
0.011827053
0.011534101
0.0112455
0.01096126
0.010681476
0.010406162
0.010135776
0.0098700835
0.009609236
0.0093529968
0.0091028009
0.0088566643
0.0086141364
0.0083757524
0.0081415118
0.0079113372
0.0076865448
0.0074655054
0.0072476412
0.0070336552
0.0068236183
0.0066175326
0.0064155382
0.0062175473
0.0060235291
0.0058330325
0.0057270596
0.0059192921
0.006114087
0.0063133673
0.0065145235
0.0067193542
0.0069281913
0.007142079
0.0073615798
0.0075849865
0.0078124666
0.008045049
0.008279948
0.0085194667
0.0087649892
0.0090149319
0.0092694985
0.0095290677
0.0097929736
0.010061463
0.010334406
0.010611702
0.010893668
0.011180272
0.011471456
0.011767474
0.01206767
0.012372656
0.012682716
0.012994492
0.013309272
0.013629581
0.013957353
0.014286883
0.014619386
0.01495759
0.015302379
0.015651435
0.016004272
0.01636162
0.016723149
0.017085642
0.017451738
0.017825548
0.018202435
0.018582271
0.018964843
0.019352269
0.019391603
0.019005279
0.018621809
0.018240915
0.01786269
0.017487964
0.017120758
0.016756455
0.016395124
0.016037465
0.015685838
0.015337208
0.014992032
0.014651237
0.014315338
0.013983766
0.013657065
0.01333514
0.013018219
0.012705714
0.012397936
0.012094689
0.011797825
0.011504847
0.011215347
0.010930008
0.010649159
0.010372679
0.010100616
0.0098329094
0.0095699405
0.0093115737
0.0090593301
0.0088111992
0.0085668341
0.0083268885
0.008092708
0.0078625856
0.0076373791
0.007415908
0.0071993928
0.0069875204
0.0067800333
0.0065764544
0.0063770865
0.0061810769
0.0059890858
0.0058892905
0.0060821725
0.0062792934
0.0064795862
0.0066836943
0.0068919109
0.0071045554
0.0073224347
0.007545841
0.007773694
0.0080058986
0.0082424315
0.008483744
0.0087293737
0.0089794528
0.0092342088
0.0094938593
0.0097578916
0.010026517
0.010299589
0.010577419
0.010859681
0.011146484
0.01143784
0.011733387
0.012033677
0.012339105
0.012648917
0.012963022
0.013281688
0.013605652
0.013933879
0.014266767
0.014604167
0.014946887
0.015293741
0.015644924
0.016000348
0.016360571
0.016725248
0.017091065
0.017460875
0.017838744
0.01822
0.01860453
0.018992211
0.019385115
0.019425227
0.019035113
0.018647763
0.018263478
0.017882539
0.017504973
0.017135065
0.016768745
0.016405088
0.016045222
0.015689587
0.015338491
0.014994221
0.014653867
0.014319231
0.013987824
0.013661794
0.013339139
0.013021921
0.012708154
0.012397666
0.012091426
0.01178981
0.011492878
0.011200709
0.010913625
0.010631591
0.01035453
0.010082426
0.0098151782
0.0095527156
0.0092949259
0.0090418021
0.00879339
0.0085511142
0.0083131455
0.0080803506
0.0078513015
0.0076256192
0.0074037453
0.0071859638
0.0069725484
0.0067646438
0.0065607596
0.006361521
0.0061657625
0.0059729322
0.0059129632
0.0061093762
0.0063086194
0.0065123873
0.0067184876
0.0069279102
0.0071421801
0.0073625947
0.0075849138
0.0078107936
0.0080407902
0.0082749894
0.0085136139
0.008756502
0.009003911
0.0092557461
0.0095120366
0.0097728529
0.010038333
0.010308559
0.010583854
0.010864219
0.011150575
0.011443642
0.011741455
0.012043993
0.012351279
0.012663158
0.012979995
0.013301361
0.013627569
0.013959435
0.01429351
0.014631017
0.014973391
0.015320272
0.015672057
0.016027862
0.016388025
0.016751933
0.017119509
0.017493486
0.017872675
0.018254012
0.018638862
0.019026755
0.019421563
0.01945407
0.019059446
0.018668562
0.018280884
0.017897176
0.017517356
0.017145327
0.01677682
0.016411894
0.016050691
0.015693949
0.015341274
0.014993386
0.014649847
0.01431114
0.013977117
0.013649707
0.013326758
0.013009795
0.012696813
0.012389602
0.012085747
0.011785264
0.01148877
0.011196902
0.010910334
0.010628901
0.01035443
0.01008568
0.0098219254
0.0095630403
0.0093087062
0.0090590604
0.0088140099
0.0085733678
0.0083364468
0.0081025627
0.007872472
0.0076463604
0.0074240921
0.0072058874
0.0069917826
0.0067818666
0.0065760101
0.0063741592
0.0061762037
0.0059818308
0.0058813067
0.0060778939
0.0062773038
0.0064805243
0.0066876075
0.0068986984
0.0071139688
0.0073331018
0.0075563959
0.0077833158
0.0080142603
0.0082498963
0.0084873346
0.0087285342
0.0089744008
0.0092259679
0.0094836816
0.0097462825
0.010014374
0.010285012
0.010561375
0.010842678
0.011128879
0.011421203
0.011718022
0.012020087
0.012323388
0.012630385
0.012942346
0.013259094
0.01358231
0.013912873
0.014248568
0.014589067
0.014935244
0.015285342
0.015640233
0.01599996
0.016361035
0.016726475
0.017096195
0.017470474
0.017852762
0.018239005
0.018630206
0.01902487
0.019425259
0.019404781
0.019010977
0.018620015
0.018231935
0.017849767
0.017470516
0.017097856
0.016728327
0.016362721
0.016001584
0.01564445
0.015291557
0.014945254
0.01460313
0.014266957
0.013933969
0.013605038
0.013281212
0.01296262
0.012648818
0.012340078
0.012036015
0.011736458
0.011441231
0.01115088
0.010865285
0.01058449
0.010310707
0.010042359
0.0097781225
0.0095191787
0.009264983
0.0090156018
0.0087701947
0.0085280382
0.0082902121
0.008057986
0.0078298378
0.0076065841
0.0073868553
0.0071717278
0.0069600544
0.0067528022
0.0065489262
0.006348123
0.0061505028
0.0060442773
0.006243299
0.0064450086
0.0066504354
0.0068594677
0.0070722629
0.0072897511
0.0075092193
0.0077322746
0.0079596783
0.0081911872
0.0084280335
0.0086713649
0.008917158
0.0091677175
0.0094241926
0.0096854105
0.0099520146
0.010221212
0.010495782
0.010777323
0.011063705
0.011354648
0.011650286
0.011950597
0.012255039
0.012563905
0.012878946
0.01319557
0.013515804
0.01384235
0.014172941
0.014507199
0.014847399
0.015194186
0.01554695
0.015900922
0.01625789
0.016620534
0.016987404
0.017358327
0.017736313
0.018118825
0.018502541
0.018887536
0.019278519
0.019076977
0.018699592
0.018324225
0.017950696
0.017579538
0.017211294
0.016849961
0.016491466
0.016136318
0.015785345
0.015440396
0.015098132
0.014758835
0.014423491
0.014092704
0.013766219
0.013444774
0.013128345
0.012818586
0.012512716
0.012212322
0.01191539
0.011621497
0.011331349
0.011045649
0.010764177
0.01048709
0.010216711
0.0099507467
0.0096881875
0.009429936
0.0091759279
0.0089266764
0.0086819698
0.0084417607
0.0082059979
0.0079747815
0.0077478166
0.007525148
0.0073066778
0.0070934956
0.006884346
0.0066798835
0.0064788099
0.0062805086
0.0061504126
0.0063496055
0.0065499576
0.0067538401
0.0069627029
0.007176889
0.0073951176
0.0076174631
0.0078437407
0.0080736137
0.0083084679
0.0085452782
0.0087857839
0.0090315954
0.0092830765
0.0095384631
0.0097986449
0.010060799
0.010327384
0.010600539
0.010877626
0.011158336
0.011444316
0.01173159
0.012022258
0.012317064
0.01261653
0.012920312
0.013228755
0.013542751
0.013862722
0.0141865
0.014515631
0.014845225
0.015177256
0.015512354
0.01585104
0.016194363
0.016540823
0.016890295
0.017246221
0.017604196
0.017963497
0.018324396
0.018688953
0.018145434
0.017811564
0.01747917
0.017145783
0.016811526
0.016477755
0.016148583
0.015820529
0.015493849
0.015169408
0.014847804
0.014529112
0.014215289
0.013903734
0.013596331
0.013291301
0.012989048
0.012690812
0.012396791
0.012107023
0.011823096
0.01154305
0.011267951
0.010995675
0.010728109
0.010463279
0.010201074
0.0099444356
0.0096911586
0.0094405376
0.0091933851
0.0089498078
0.0087101795
0.0084746147
0.0082444208
0.0080179012
0.0077959266
0.0075772921
0.0073630119
0.0071518791
0.0069437954
0.0067392939
0.0065385395
0.0063414072
0.0061475782
0.0059507666
0.0061408118
0.0063333963
0.0065293368
0.0067288216
0.0069316536
0.0071377698
0.0073474704
0.007560812
0.0077777509
0.007998363
0.0082225461
0.0084504306
0.0086818069
0.0089164119
0.00915414
0.0093958181
0.0096386016
0.0098849522
0.010136972
0.010390146
0.010647186
0.010907189
0.01117004
0.011437424
0.011709842
0.011986609
0.012264424
0.012545578
0.012831531
0.013120557
0.013412572
0.01370753
0.014004958
0.014305187
0.014607135
0.014910849
0.015216285
0.015520516
0.015825554
0.016131476
0.016435328
0.016736656
0.017040196
0.016056519
0.015793141
0.015526133
0.015256506
0.014984731
0.014714083
0.014442152
0.014170524
0.013898413
0.013627727
0.013356911
0.013087976
0.012819628
0.012553669
0.012288923
0.01202735
0.01176783
0.011511793
0.011257418
0.011004857
0.010754878
0.010507846
0.010263606
0.010022412
0.0097841864
0.0095490054
0.0093186147
0.0090911379
0.0088657147
0.0086430938
0.0084233138
0.0082077489
0.0079951594
0.0077863712
0.0075801858
0.0073776288
0.0071778142
0.0069816708
0.0067880293
0.0065968015
0.0064084297
0.0062239599
0.006042315
0.0058628266
0.0055337625
0.0057043388
0.005876836
0.0060516598
0.0062289749
0.0064092787
0.0065905179
0.00677384
0.0069604798
0.0071515809
0.0073437729
0.0075382425
0.0077363176
0.0079383352
0.0081428853
0.0083496442
0.008559361
0.008769831
0.008983027
0.0092003063
0.0094197993
0.0096417197
0.0098655714
0.010091129
0.010319591
0.010547581
0.010776741
0.011007588
0.011240304
0.011475494
0.011713579
0.011952734
0.012192513
0.012433325
0.01267255
0.012910543
0.013148864
0.013388411
0.013624814
0.013859451
0.014093927
0.014325799
0.012739174
0.012547689
0.012354082
0.012156846
0.011956503
0.011754188
0.011550605
0.011346145
0.011140978
0.010935406
0.01072985
0.010524484
0.010320054
0.010116634
0.0099144206
0.0097133206
0.0095145513
0.009316618
0.0091204584
0.0089250328
0.0087302563
0.008536715
0.0083447778
0.0081558978
0.0079687622
0.0077827656
0.0075984999
0.0074159109
0.0072352907
0.0070567283
0.00688037
0.00670611
0.0065340648
0.0063642834
0.0061968435
0.0060316689
0.0058687126
0.0057079672
0.0055494902
0.0053932147
0.0052389996
0.0046974453
0.0048369538
0.0049778309
0.0051204682
0.0052649
0.0054110991
0.0055590112
0.0057086634
0.005860098
0.0060131517
0.0061677554
0.0063239083
0.0064816598
0.0066408235
0.0068011778
0.0069626559
0.0071258225
0.0072889924
0.0074536253
0.0076205342
0.0077884723
0.0079572672
0.0081267898
0.0082969687
0.0084677588
0.0086396622
0.0088107415
0.0089817567
0.0091531755
0.0093254584
0.0094987053
0.009671422
0.00984383
0.010014005
0.010183007
0.010351214
0.010517388
0.010681191
0.010840203
0.010996573
0.011149991
0.0093264338
0.0092094431
0.0090880769
0.0089625647
0.0088337064
0.0087022702
0.0085687148
0.0084334585
0.0082967075
0.0081588453
0.0080200746
0.0078808521
0.0077412847
0.0076015893
0.0074618515
0.0073229189
0.0071840123
0.0070457114
0.0069073787
0.0067689054
0.0066306881
0.0064929699
0.0063567497
0.0062212413
0.0060860476
0.0059515817
0.0058178403
0.0056850268
0.0055531812
0.0054230431
0.0052939032
0.00516555
0.0050382912
0.0049128547
0.0047886123
0.0046653062
0.0045432058
0.0044223935
0.0043028672
0.0041846015
0.0034171416
0.0035165884
0.0036167675
0.0037177083
0.0038195027
0.0039223892
0.0040254615
0.0041295235
0.0042349744
0.0043410154
0.0044476317
0.0045551689
0.0046626637
0.0047708936
0.0048800984
0.004989668
0.0050999191
0.0052097558
0.005320122
0.0054314367
0.005542959
0.0056545647
0.0057661873
0.0058778641
0.0059894709
0.0061009316
0.0062121426
0.006322898
0.0064331841
0.0065426288
0.0066512025
0.0067585691
0.0068645124
0.0069687013
0.007070915
0.0071705625
0.0072674074
0.0073613323
0.0074509535
0.0075377215
0.005802376
0.0057429461
0.0056799251
0.0056134229
0.005543967
0.0054719051
0.0053975852
0.0053213538
0.0052434681
0.0051642322
0.0050838508
0.0050030085
0.0049213618
0.0048393155
0.004756583
0.0046731115
0.0045891964
0.0045049852
0.0044205998
0.004336594
0.0042525754
0.0041683881
0.0040847739
0.0040012986
0.0039177794
0.0038344226
0.0037512856
0.0036684577
0.0035859893
0.0035038917
0.0034221977
0.0033409439
0.0032601681
0.0031803089
0.0031010518
0.0030222099
0.0029439469
0.0028662949
0.0027892706
0.0027128796
0.0018476786
0.0019037513
0.0019601589
0.0020168758
0.0020739203
0.002131393
0.0021889072
0.0022467049
0.00230491
0.0023634952
0.002421848
0.0024803521
0.0025390445
0.0025979157
0.0026569304
0.0027160912
0.0027756052
0.0028351407
0.0028949657
0.0029546912
0.0030144263
0.0030742365
0.003134122
0.0031942125
0.0032544947
0.0033146502
0.0033746295
0.003434333
0.00349371
0.0035528362
0.0036111783
0.0036691931
0.003726387
0.0037828185
0.0038384659
0.0038931325
0.0039467442
0.003999475
0.0040509523
0.004101576
0.025366792
0.025013169
0.02465454
0.024293608
0.023928826
0.023562715
0.023193425
0.022822561
0.022450048
0.022078056
0.021704586
0.021331425
0.020957969
0.020586369
0.020215804
0.01984725
0.019479337
0.019114198
0.018750225
0.018389336
0.018030018
0.017674098
0.017320138
0.01696985
0.016621695
0.016276576
0.015934274
0.015596203
0.015260866
0.014929292
0.014601017
0.014277336
0.013957134
0.013641128
0.013328758
0.013020614
0.012716346
0.01241697
0.012121552
0.011831032
0.011544478
0.011262714
0.010984814
0.010711104
0.010441367
0.010176264
0.0099150649
0.0096584594
0.009405773
0.0091572801
0.0089126898
0.0086722181
0.0084356919
0.008203593
0.0079754546
0.0077517074
0.0075318845
0.0073163379
0.0071046169
0.0068968309
0.006692708
0.0064919696
0.0048199862
0.0048381586
0.0048479838
0.0048609599
0.0048643688
0.0048803591
0.0048975726
0.0049305212
0.0049615837
0.0050154742
0.0050756619
0.0053362521
0.0052483486
0.0051886122
0.0051351784
0.0051039401
0.0050710373
0.0050537793
0.0050372093
0.0050335962
0.0050202634
0.0050102777
0.0049930581
0.0049826784
0.0049812454
0.0049866937
0.0049872177
0.0051871434
0.0051746222
0.0051694
0.005162877
0.005162157
0.0051567853
0.0051584559
0.0051689932
0.0051852097
0.0051953536
0.005209033
0.0052140623
0.0052298237
0.0052472657
0.0052801385
0.0053115131
0.0053644487
0.0054236023
0.0055114994
0.0056886491
0.0056022487
0.005543665
0.0054912719
0.0054597883
0.0054269626
0.0054092827
0.0053936331
0.0053878895
0.0053739923
0.0053635793
0.0053475359
0.0053368426
0.0053351458
0.005340407
0.005341228
0.0053481278
0.0053535818
0.0053667139
0.0053774059
0.0053933529
0.0055812689
0.0055763251
0.0055599028
0.0055484299
0.0055353702
0.0055309357
0.0055231435
0.0055222388
0.0055170616
0.005518735
0.0055293664
0.0055454907
0.0055561089
0.0055714907
0.0055765338
0.0055922557
0.0056102
0.0056429551
0.0056745112
0.0057263565
0.0057843518
0.0058701046
0.0060541392
0.0059699577
0.0059126056
0.0058612628
0.0058296625
0.0057969871
0.0057788252
0.0057629653
0.0057578623
0.0057417747
0.00573111
0.005714742
0.0057042056
0.0057025395
0.0057076632
0.0057085902
0.005716492
0.0057206902
0.005733608
0.0057452739
0.0057619057
0.0057682873
0.0057138245
0.0057235967
0.00574217
0.0057608377
0.0057940846
0.0058535292
0.0058923452
0.0059061366
0.0059145352
0.0059144532
0.0059126771
0.0058984575
0.0058938518
0.0058873423
0.0058936911
0.0059133204
0.0059377027
0.0059565752
0.0059685394
0.0059679301
0.0059648912
0.0059576024
0.005951003
0.0059343286
0.0059223777
0.005909592
0.0059053405
0.0058975902
0.0058966937
0.0058916511
0.0058933274
0.005903724
0.0059202709
0.0059323692
0.0059475958
0.005952937
0.0059689985
0.0059873733
0.0060199595
0.0060515515
0.0061023592
0.0061590658
0.0062426198
0.0064336819
0.0063517284
0.0062956316
0.0062454044
0.0062138724
0.0061813732
0.0061627415
0.006146518
0.0061408666
0.0061258175
0.0061130293
0.0060964033
0.006086112
0.0060843888
0.0060893417
0.0060902069
0.0060978008
0.0061021229
0.0061148154
0.0061269999
0.0061437035
0.0061503503
0.0061584764
0.0061613521
0.0061621083
0.0061503058
0.0061311085
0.0061065759
0.0060869354
0.0060806374
0.0060870602
0.0060916856
0.0061057079
0.0061072491
0.0061073015
0.0060987532
0.0060848364
0.0060461044
0.0059876781
0.0059536142
0.0059345126
0.0059158919
0.0059067339
0.0058890067
0.005892749
0.0058816944
0.0058604617
0.0058681025
0.0058588575
0.0058623922
0.0058550499
0.0060268805
0.0060184999
0.0060130692
0.006011761
0.0060321229
0.006048838
0.0060674437
0.0060748422
0.0060986375
0.0061076236
0.0060948916
0.0060719925
0.0060837447
0.0060673268
0.0060724224
0.0060524018
0.0060583662
0.0060563246
0.0060645099
0.0060578716
0.0060776807
0.0060877205
0.0060860683
0.0061025387
0.0061115733
0.0061318775
0.0061496701
0.0061850411
0.0062416838
0.006280327
0.0062942288
0.0063029114
0.0063028607
0.0063015406
0.0062877647
0.0062831778
0.0062768148
0.0062830896
0.0063025923
0.0063272951
0.0063465162
0.0063585239
0.0063575578
0.0063548895
0.0063468285
0.0063400566
0.006323374
0.0063110093
0.0062983616
0.0062939207
0.0062865243
0.0062856471
0.0062808298
0.006282624
0.0062927061
0.0063108324
0.0063226978
0.0063377702
0.0063437827
0.0063602038
0.0063790429
0.0064114559
0.006442853
0.0064925095
0.006547947
0.0066293062
0.0068275113
0.0067477538
0.0066930828
0.0066439267
0.006612737
0.0065803865
0.0065614227
0.0065447295
0.0065383922
0.0065232632
0.0065115504
0.0064926857
0.0064828777
0.0064809541
0.0064857213
0.0064865329
0.006493784
0.0064982976
0.0065109738
0.0065234218
0.0065401347
0.0065469669
0.0065549523
0.0065574485
0.0065585506
0.0065463505
0.0065285663
0.0065022522
0.0064829089
0.0064766227
0.0064830016
0.0064874657
0.0065009689
0.006502168
0.0065021673
0.0064934285
0.0064794372
0.0064409214
0.0063837974
0.006350681
0.006330805
0.0063123192
0.0063012297
0.006286216
0.006285481
0.0062762897
0.0062583011
0.0062635239
0.0062567895
0.0062568708
0.0062525851
0.0062724017
0.0062683514
0.0062837893
0.0062723134
0.0062926509
0.0063051982
0.0062962636
0.0062728011
0.0062678439
0.0062482572
0.0062327296
0.0062103739
0.0062134275
0.0062169678
0.0062284153
0.0062308765
0.006245468
0.0062532343
0.0062697014
0.0062885414
0.0063210227
0.0063363981
0.0063629118
0.006358266
0.0063293436
0.0063062982
0.0062936255
0.0062829719
0.0062914549
0.0062957879
0.0063048517
0.006309138
0.0063263366
0.0063117432
0.0063019045
0.0062864147
0.0063394075
0.0065417298
0.0064896907
0.0065044527
0.0065159409
0.0065296307
0.0065137446
0.0065080584
0.0065009162
0.0064952952
0.0064881002
0.0064971818
0.0065078335
0.0065330435
0.0065593285
0.0065641128
0.0065373499
0.0065254876
0.0064900213
0.0064737588
0.0064548217
0.0064498088
0.0064324846
0.0064321128
0.0064178755
0.0064172988
0.0064114605
0.0064370307
0.0064516602
0.0064717561
0.0064735029
0.0064980465
0.0065058436
0.0064944399
0.0064758845
0.0064869852
0.0064725336
0.006475676
0.0064566559
0.0064594895
0.0064611595
0.0064667153
0.0064626739
0.0064792426
0.0064869248
0.0064900055
0.0065034436
0.0065167588
0.0065331474
0.0065554218
0.0065859401
0.0066439585
0.0066824229
0.0066964195
0.006705178
0.0067052315
0.0067040833
0.0066909526
0.0066866085
0.0066802421
0.0066866618
0.0067070712
0.0067329479
0.0067499911
0.0067623436
0.0067611783
0.0067587446
0.0067508667
0.0067440514
0.0067272336
0.0067147325
0.0067020046
0.0066974994
0.006690317
0.0066895905
0.0066848327
0.0066869394
0.0066978581
0.0067157825
0.0067275029
0.0067428066
0.0067494243
0.0067663968
0.0067854552
0.0068177722
0.0068486485
0.006897271
0.0069511425
0.007030397
0.0072358682
0.0071581328
0.0071050759
0.0070570282
0.0070265862
0.0069942467
0.0069750722
0.0069578398
0.006951026
0.00693549
0.0069237439
0.0069060255
0.0068948211
0.0068924424
0.0068972007
0.0068978396
0.0069050665
0.0069094579
0.0069222163
0.0069347572
0.0069517917
0.0069584811
0.0069663446
0.0069686031
0.0069698843
0.0069572723
0.0069407029
0.0069148314
0.0068942114
0.0068876616
0.0068939026
0.0068981762
0.0069109315
0.0069119944
0.0069119982
0.0069031217
0.0068892348
0.006850825
0.0067919162
0.0067638145
0.0067394338