/*--------------------------------*- C++ -*----------------------------------*\
| =========                 |                                                 |
| \\      /  F ield         | OpenFOAM: The Open Source CFD Toolbox           |
|  \\    /   O peration     | Version:  v2012                                 |
|   \\  /    A nd           | Website:  www.openfoam.com                      |
|    \\/     M anipulation  |                                                 |
\*---------------------------------------------------------------------------*/
FoamFile
{
    version     2.0;
    format      ascii;
    class       volScalarField;
    location    "200";
    object      p;
}
// * * * * * * * * * * * * * * * * * * * * * * * * * * * * * * * * * * * * * //

dimensions      [0 2 -2 0 0 0 0];


internalField   nonuniform List<scalar> 
229778
(
0.99787521
0.89503096
0.80797208
0.73266252
0.66663964
0.60847565
0.55708977
0.51154705
0.4709774
0.43471348
0.40213702
0.37267438
0.34590429
0.32155543
0.29939883
0.27921011
0.26075551
0.24384185
0.22830129
0.21400002
0.20081798
0.18865419
0.17741736
0.16702718
0.15740172
0.1484753
0.14017983
0.13246295
0.12527162
0.11857249
0.11231739
0.10647747
0.10101575
0.095903795
0.091115489
0.086626319
0.082407835
0.078443658
0.074715606
0.071210528
-0.052957848
-0.054965582
-0.057066265
-0.059263043
-0.061565893
-0.063977815
-0.066507716
-0.069163138
-0.07196027
-0.074910295
-0.078019555
-0.081306809
-0.084788486
-0.088482054
-0.09241014
-0.096591235
-0.10104926
-0.10580743
-0.11089421
-0.1163424
-0.12219003
-0.12847262
-0.13522633
-0.14249552
-0.15032753
-0.15876793
-0.16786969
-0.17768189
-0.1882581
-0.19965101
-0.21191352
-0.22509944
-0.23925832
-0.25443131
-0.27065961
-0.28797655
-0.30640621
-0.32596269
-0.34665062
-0.36846279
-0.39137994
-0.41536944
-0.4403858
-0.46637211
-0.49326164
-0.52097674
-0.54943049
-0.57852773
-0.60816733
-0.63824365
-0.66863863
-0.69926441
-0.73000709
-0.76072831
-0.79131805
-0.82166174
-0.85164598
-0.88115833
-0.91008818
-0.93832703
-0.96576744
-0.99230285
-1.0178276
-1.0422389
-1.0654367
-1.0873177
-0.36446207
-0.33636284
-0.30956599
-0.28407643
-0.25990415
-0.23703772
-0.21546019
-0.19514834
-0.17607294
-0.15820042
-0.14149317
-0.12591084
-0.11141027
-0.097946559
-0.085473123
-0.07394275
-0.063307622
-0.053520212
-0.044533188
-0.036300137
-0.028775508
-0.021915113
-0.015676019
-0.010017061
-0.0048985594
-0.00028273174
0.0038666183
0.0075836081
0.010900766
0.013848524
0.016455901
0.018749915
0.020756116
0.022498036
0.023998083
0.025276687
0.026353292
0.027245528
0.027970317
0.028542672
0.02897735
0.029286992
0.029484916
0.029582144
0.029590445
0.029511006
0.02935371
0.029137244
0.028866024
0.028543776
0.028596868
0.028922446
0.029197825
0.029417925
0.029575535
0.029660552
0.02966304
0.029574937
0.02938509
0.029083681
0.028657871
0.028095063
0.02738045
0.026499219
0.025434319
0.024168291
0.022681631
0.020954112
0.01896321
0.016685531
0.014095502
0.011166156
0.0078684328
0.004171994
4.4288765e-05
-0.0045487608
-0.0096434351
-0.015277622
-0.021490983
-0.028324709
-0.035821829
-0.044026674
-0.052984967
-0.062743397
-0.073349391
-0.084850757
-0.097295535
-0.11073141
-0.12520514
-0.14076197
-0.15744545
-0.17529661
-0.19435316
-0.21464908
-0.23621422
-0.25907269
-0.28324187
-0.30873422
-0.33553611
-0.36364372
-0.36183093
-0.33370054
-0.30688557
-0.28139183
-0.25723205
-0.23439306
-0.21285658
-0.19259709
-0.17358347
-0.15578056
-0.13914997
-0.12364997
-0.10923597
-0.095862091
-0.083480855
-0.072043845
-0.061502382
-0.051808162
-0.042913312
-0.034770744
-0.027334348
-0.020559574
-0.014403101
-0.0088236965
-0.0037815804
0.00076122732
0.0048412061
0.0084922917
0.011747176
0.014635913
0.017187716
0.019429391
0.021386597
0.023082403
0.024539567
0.025777915
0.026817048
0.027674136
0.028366379
0.028908271
0.029314576
0.029597957
0.029771141
0.029844627
0.02982881
0.029732357
0.029563886
0.029332161
0.029045307
0.028708646
0.028892768
0.029246138
0.029550156
0.029800334
0.029988868
0.030107479
0.03014694
0.030098843
0.029952674
0.029699047
0.029324317
0.028817169
0.028162143
0.027345389
0.026349194
0.025157069
0.023749067
0.02210618
0.02020522
0.018023663
0.015535628
0.012714615
0.0095312411
0.0059559476
0.0019557357
-0.0025031544
-0.0074574299
-0.012945089
-0.019006217
-0.025682136
-0.033016685
-0.041054861
-0.049843274
-0.059429491
-0.069862338
-0.081190945
-0.093465083
-0.10673418
-0.12104717
-0.1364514
-0.15299272
-0.17071399
-0.18965522
-0.20985341
-0.231341
-0.25414469
-0.27828504
-0.30377809
-0.33061386
-0.35877842
-0.38391753
-0.35432706
-0.32610182
-0.29923526
-0.27374967
-0.24963888
-0.22688785
-0.20547307
-0.18536603
-0.1665319
-0.14893088
-0.13252128
-0.11725828
-0.10309386
-0.089978579
-0.077861393
-0.066691397
-0.056417345
-0.046988949
-0.038356019
-0.030470222
-0.023284311
-0.016752802
-0.010831122
-0.0054774683
-0.00065133156
0.0036852396
0.0075693235
0.011034221
0.014113553
0.016835975
0.019231529
0.02132574
0.023144814
0.024710754
0.026047378
0.027172635
0.028106623
0.028865834
0.029467352
0.02992395
0.030251926
0.030463226
0.030569991
0.03058251
0.030508975
0.030359336
0.030140255
0.029861759
0.029531788
0.029154782
0.029506667
0.029914899
0.030277824
0.030590636
0.030848155
0.03103977
0.031158758
0.031195536
0.031141933
0.03098792
0.030721723
0.030329895
0.029799651
0.029117422
0.028266873
0.027229269
0.025987073
0.024522191
0.02281162
0.020831955
0.018559284
0.015967018
0.013025836
0.009707102
0.0059776948
0.0018039458
-0.0028512965
-0.0080264692
-0.013762384
-0.020101244
-0.027088573
-0.034770348
-0.043194885
-0.052411698
-0.062472592
-0.073429409
-0.085335352
-0.098243437
-0.11220719
-0.1272786
-0.14350856
-0.16094532
-0.17963473
-0.19961781
-0.2209319
-0.24361085
-0.2676821
-0.29316184
-0.32005971
-0.34836043
-0.37806504
-0.37069742
-0.34085555
-0.31246933
-0.28553522
-0.26006585
-0.23604883
-0.21346316
-0.19227867
-0.17245614
-0.15395324
-0.13672633
-0.12072507
-0.10589707
-0.092188034
-0.079542644
-0.067904284
-0.057217169
-0.047425617
-0.038475391
-0.030313243
-0.02288754
-0.016149464
-0.010051815
-0.0045491204
0.00040327631
0.0048456342
0.0088174447
0.012353808
0.015489583
0.018258748
0.020689297
0.022809728
0.024645625
0.026221018
0.027561454
0.02868622
0.029614634
0.030363075
0.030951579
0.031393555
0.031703317
0.031893219
0.031977385
0.031965401
0.031868474
0.031694127
0.031451425
0.031145712
0.030788078
0.030383794
0.029938542
0.030939981
0.031391887
0.031799876
0.032160992
0.032464637
0.032705421
0.032874335
0.0329638
0.032962421
0.032860935
0.032647454
0.032309618
0.031833545
0.031205764
0.030408068
0.029421497
0.028230599
0.026812949
0.025146199
0.023206348
0.020968437
0.018403547
0.015484001
0.012176045
0.0084461183
0.0042586323
-0.00042595948
-0.0056513642
-0.011459554
-0.017900049
-0.025017391
-0.0328644
-0.041493022
-0.050960057
-0.06132126
-0.072635505
-0.084961605
-0.098360053
-0.11289023
-0.12861085
-0.14557941
-0.16385128
-0.18347363
-0.20449472
-0.22696076
-0.25090533
-0.27635342
-0.30332322
-0.33180728
-0.36181024
-0.35140274
-0.3212184
-0.2926267
-0.26562035
-0.24020335
-0.21635198
-0.19403501
-0.17321391
-0.15383476
-0.13584386
-0.11918676
-0.10380252
-0.089627522
-0.076598584
-0.064650591
-0.05371934
-0.043741947
-0.034656869
-0.026404346
-0.018925809
-0.012166914
-0.0060753561
-0.0006020799
0.0043008983
0.0086782662
0.01257322
0.01602428
0.019067584
0.02173787
0.024066889
0.026083803
0.027814925
0.029286361
0.030521583
0.031542846
0.032369981
0.033020502
0.033511211
0.033859086
0.034076536
0.034178679
0.034177783
0.034084428
0.033907252
0.033657016
0.033341309
0.032967997
0.032542625
0.032073683
0.031566329
0.032269175
0.032838079
0.033372389
0.033869032
0.034320008
0.034719125
0.035059917
0.035335333
0.03553493
0.035650186
0.035671188
0.035587124
0.035383376
0.035047251
0.034562513
0.033914737
0.033086264
0.032056918
0.030804276
0.029307273
0.027539566
0.025476249
0.023087804
0.020344558
0.017210336
0.013650071
0.0096223706
0.0050865828
-3.9911625e-06
-0.0056972162
-0.012044805
-0.019099603
-0.026918705
-0.03556284
-0.04509546
-0.05558172
-0.067088495
-0.079685437
-0.093443062
-0.10843067
-0.12471826
-0.14237455
-0.16146118
-0.18204006
-0.20417311
-0.22790437
-0.25327156
-0.28030726
-0.30901152
-0.33939498
-0.32569467
-0.29509767
-0.26628274
-0.23923233
-0.21393751
-0.19036039
-0.1684566
-0.14817072
-0.12943301
-0.11217231
-0.096317995
-0.08179304
-0.068520257
-0.056422848
-0.045424265
-0.03544925
-0.026425532
-0.018284814
-0.010959482
-0.0043872327
0.0014931039
0.0067364239
0.011395956
0.015519081
0.019153458
0.022339721
0.025119423
0.027527295
0.029599689
0.031366748
0.032856237
0.034093064
0.035102403
0.035904908
0.036522297
0.036972905
0.037273982
0.037439575
0.037484755
0.037421206
0.037263141
0.037021405
0.036704551
0.036321106
0.03588049
0.035388983
0.034852744
0.034278115
0.033670187
0.033033276
0.034576365
0.035262968
0.035923021
0.036551545
0.037143011
0.037691888
0.038193065
0.038637151
0.03901544
0.039320965
0.039544525
0.039672206
0.039692011
0.039591425
0.039357345
0.038972583
0.038419034
0.037676955
0.036725706
0.035541838
0.034100414
0.032374098
0.030334949
0.027947235
0.02517536
0.021979335
0.018316196
0.014139793
0.0093991428
0.0040419078
-0.001989255
-0.0087570497
-0.01632749
-0.024771829
-0.03416307
-0.044579799
-0.056102951
-0.068815868
-0.08280282
-0.098150668
-0.11494667
-0.13327131
-0.15320547
-0.17482937
-0.1982091
-0.22340012
-0.25044907
-0.27937234
-0.3101938
-0.29277054
-0.26171528
-0.23269352
-0.20567197
-0.18062383
-0.15749244
-0.13620956
-0.11669663
-0.098860818
-0.082610373
-0.067851154
-0.054486459
-0.042417702
-0.031551973
-0.021798066
-0.013068272
-0.0052775298
0.0016519832
0.0077951625
0.013221789
0.017996336
0.022177513
0.025820069
0.028975586
0.031690495
0.034007982
0.035966457
0.037602971
0.03894965
0.040035179
0.040886597
0.041527649
0.041980814
0.042264664
0.042398266
0.042398356
0.042281953
0.042061547
0.041747884
0.041352742
0.04088727
0.040360487
0.039779558
0.039152386
0.03848665
0.037787019
0.037059612
0.036307835
0.035537255
0.037417412
0.038266523
0.039099771
0.039913163
0.040702244
0.041462759
0.042188577
0.042872398
0.043508217
0.044087194
0.044599617
0.045035072
0.045382836
0.045632372
0.045767723
0.045773158
0.045631537
0.045325041
0.044832596
0.044131577
0.043195595
0.041997223
0.040504356
0.038682803
0.036492627
0.033892933
0.030835728
0.027270022
0.023138601
0.018382496
0.012934105
0.0067203398
-0.00033736909
-0.0083219781
-0.017324979
-0.027442788
-0.038775529
-0.05142521
-0.06550207
-0.081116095
-0.098372894
-0.11738014
-0.13824652
-0.16106572
-0.1859202
-0.21288039
-0.24198418
-0.27327428
-0.25154244
-0.2200204
-0.19086187
-0.16401115
-0.13941425
-0.11698519
-0.096624275
-0.078219512
-0.061645014
-0.046775771
-0.033488756
-0.021659188
-0.011166119
-0.0018951492
0.0062630557
0.013413209
0.019653647
0.025072774
0.029752551
0.033769533
0.03719374
0.040086373
0.04250482
0.044500515
0.046120297
0.047405823
0.048395216
0.049121854
0.049616908
0.049906403
0.050015387
0.049964643
0.049774046
0.049460088
0.049038734
0.048524816
0.047931262
0.047268211
0.046545508
0.045772004
0.044956056
0.044106029
0.043226716
0.04232544
0.041406352
0.040473589
0.03952915
0.038577504
0.039787599
0.040845743
0.041906546
0.042964871
0.044020672
0.045069927
0.046109285
0.04713232
0.048135711
0.049112808
0.050056317
0.050959231
0.05181189
0.052604599
0.053326912
0.053966527
0.05450879
0.054938855
0.055238072
0.055387149
0.055363183
0.055140938
0.054690799
0.053980854
0.052974586
0.051631923
0.049905954
0.047745422
0.04509284
0.041885717
0.0380516
0.033510502
0.028177549
0.021958913
0.014749352
0.0064350766
-0.0031025687
-0.01399138
-0.026367738
-0.040372074
-0.056145178
-0.073832429
-0.093581342
-0.11552483
-0.13978396
-0.16646555
-0.19564137
-0.22738088
-0.20058058
-0.16864575
-0.13950615
-0.11307346
-0.08925204
-0.067910573
-0.04890189
-0.032066987
-0.017233768
-0.0042341891
0.0070938433
0.016908554
0.025362656
0.03259775
0.038745362
0.043927706
0.048255602
0.051828554
0.054736736
0.057062268
0.058878046
0.06024745
0.061227849
0.061869438
0.062218344
0.062313353
0.062189394
0.061876406
0.061402303
0.060790424
0.060061682
0.059233541
0.058322194
0.057340602
0.056301926
0.055216946
0.054094633
0.052942598
0.051768685
0.050578848
0.049379216
0.048174912
0.046969097
0.045767632
0.044571532
0.043383718
0.04220331
0.043594866
0.044897926
0.046219664
0.04756123
0.04892099
0.050298286
0.051688904
0.053089862
0.054497858
0.055909437
0.057319548
0.058721865
0.060110637
0.061478318
0.062815859
0.064112539
0.065357746
0.066537233
0.067634951
0.068632572
0.069509686
0.070240781
0.070797751
0.071147964
0.071254185
0.071072591
0.070554464
0.069643524
0.068275696
0.066376763
0.063863543
0.060642935
0.056609802
0.05164602
0.045620379
0.03838914
0.029796233
0.019672531
0.0078389682
-0.0058911234
-0.021713746
-0.039830137
-0.060429474
-0.083691884
-0.10977889
-0.13881415
-0.17091
-0.13809198
-0.10588088
-0.077038825
-0.051422547
-0.028870897
-0.0091849678
0.0078552449
0.022478486
0.034918318
0.045401598
0.054142679
0.061344936
0.06719671
0.071869159
0.075517968
0.078282919
0.080289475
0.081646751
0.08245056
0.082784579
0.082723381
0.082330547
0.081660342
0.08075992
0.079670314
0.078426055
0.077056629
0.075587988
0.074042517
0.07243782
0.070789765
0.06911208
0.067416057
0.065710594
0.064003872
0.062302329
0.060611548
0.058935062
0.057278003
0.055644883
0.054036945
0.052456247
0.050904353
0.049383273
0.047893385
0.046434464
0.045005467
0.046433869
0.047988884
0.049586019
0.051226979
0.052913104
0.054643625
0.056417888
0.058237094
0.060100177
0.06200625
0.063953512
0.06593918
0.067961387
0.070016591
0.072100437
0.074207705
0.076331865
0.078464162
0.080593778
0.082708021
0.084792755
0.086828748
0.088792905
0.090659857
0.092398219
0.093970459
0.095332312
0.096431605
0.097207196
0.097585863
0.097483757
0.096803245
0.095431941
0.093239071
0.090076649
0.085776954
0.080152256
0.072993229
0.06407145
0.053141809
0.039941853
0.024195698
0.0056286768
-0.016026142
-0.041016335
-0.069549949
-0.10180593
-0.061700957
-0.029496753
-0.0014274635
0.022736235
0.043262647
0.060459567
0.07465196
0.086168556
0.095334472
0.10245276
0.10780432
0.11164589
0.11420756
0.11569311
0.1162816
0.11612852
0.11536859
0.1141165
0.11246879
0.11050813
0.10830548
0.10591863
0.10339636
0.10077931
0.098100447
0.095386499
0.092659199
0.089937943
0.087237052
0.084567414
0.08193837
0.079357084
0.076829113
0.074358449
0.071947976
0.069599425
0.067314177
0.065091786
0.062932738
0.060836729
0.058803927
0.056833066
0.054922567
0.053071109
0.051278533
0.049542014
0.047859514
0.049281747
0.051091335
0.052967023
0.054911024
0.056927715
0.059018214
0.061185784
0.063432733
0.065762117
0.068175622
0.070675952
0.073264432
0.07594289
0.078712752
0.081574707
0.084528995
0.087574968
0.090710565
0.093932676
0.097235805
0.10061192
0.10405158
0.10754055
0.11106223
0.11459471
0.11810997
0.12157243
0.12493882
0.1281564
0.13115904
0.1338672
0.13618702
0.13800209
0.13917575
0.13954724
0.1389275
0.13709763
0.13380636
0.1287666
0.12165865
0.1121322
0.099807456
0.084290262
0.065180888
0.042095524
0.014688118
-0.017339326
0.031765616
0.063449944
0.089941532
0.11162794
0.128961
0.14242404
0.15250553
0.15967845
0.16438838
0.16703899
0.16798946
0.16755653
0.1660145
0.16359605
0.16049661
0.15688079
0.1528849
0.14861964
0.14417743
0.13963263
0.13504398
0.13045789
0.12591071
0.12143128
0.11704105
0.11275585
0.10858696
0.10454314
0.1006289
0.09684736
0.093198956
0.089683178
0.086297963
0.083041865
0.079910932
0.076901924
0.074010658
0.071233366
0.068565891
0.06600375
0.063543068
0.061179819
0.058909585
0.056728458
0.054633483
0.052619989
0.0541233
0.056272571
0.058516468
0.06085929
0.063307122
0.065863968
0.068536542
0.071329291
0.074248944
0.077301214
0.080493223
0.083830427
0.087320983
0.090970146
0.094785395
0.098771976
0.1029358
0.10728101
0.11181239
0.11653197
0.12144109
0.12653728
0.13181596
0.13726803
0.14288009
0.1486309
0.15449299
0.16042769
0.16638582
0.17230058
0.17808753
0.18364292
0.18883464
0.19349887
0.19743627
0.20040167
0.20210247
0.20219382
0.20027401
0.19587972
0.18849014
0.17753772
0.16242319
0.1425361
0.11729001
0.086176009
0.146544
0.17678332
0.20034905
0.21792379
0.23026873
0.23815506
0.24232015
0.24344301
0.24212892
0.23890374
0.23421259
0.22842754
0.22185336
0.2147411
0.20729107
0.19966072
0.19197118
0.18431948
0.17677671
0.16939705
0.16221936
0.15527183
0.14857145
0.14212895
0.13594921
0.13003344
0.12437867
0.11898006
0.11383053
0.10892229
0.10424499
0.09979032
0.095548157
0.091509593
0.087663886
0.084001948
0.080513463
0.077190058
0.074022847
0.071003222
0.068123298
0.06537616
0.062754938
0.060253094
0.057863844
0.059407174
0.061937554
0.064593827
0.067383516
0.070315228
0.073396419
0.076636407
0.080045336
0.083632922
0.087411537
0.091390991
0.095584703
0.10000485
0.10466666
0.10958249
0.11476673
0.12023158
0.12599381
0.13206778
0.138467
0.14520342
0.15228893
0.15973001
0.16753412
0.17570115
0.18422615
0.19309313
0.20227877
0.21174447
0.2214348
0.23126818
0.24113715
0.25089453
0.26035015
0.26925618
0.27730146
0.28409189
0.28914368
0.29186712
0.29156428
0.28742773
0.27855335
0.26396353
0.24265852
0.21370564
0.28864265
0.31573638
0.33400825
0.34475431
0.34928504
0.34883793
0.34451951
0.33728543
0.32792917
0.31710101
0.30531517
0.29297589
0.28039078
0.2677952
0.25535996
0.24321193
0.23143667
0.22009399
0.20922023
0.19883469
0.18894432
0.17954818
0.17063664
0.16219689
0.15421073
0.1466615
0.13952713
0.132787
0.1264223
0.12041188
0.11473203
0.10936639
0.1042958
0.09950321
0.094970851
0.090683368
0.086625127
0.08278233
0.079141762
0.075689164
0.072414907
0.069304657
0.06635179
0.063545544
0.060879453
0.062287719
0.065082124
0.068029548
0.071137145
0.07441777
0.077878063
0.081534049
0.085397855
0.089485876
0.093812656
0.098394489
0.10325135
0.10840092
0.11386496
0.1196645
0.12582344
0.1323614
0.13931076
0.14669918
0.15455154
0.16289865
0.17177159
0.18119671
0.19120527
0.20182763
0.21308775
0.2250015
0.23758548
0.25084407
0.26476783
0.27932221
0.2944528
0.31006249
0.32601249
0.34209211
0.35801499
0.37338161
0.38766258
0.40016174
0.40999039
0.41603097
0.41695124
0.41118634
0.39701053
0.48771116
0.49632779
0.49563066
0.48788112
0.47502368
0.45864554
0.44002709
0.42014322
0.39971368
0.37925588
0.35913824
0.33960713
0.3208288
0.30289698
0.28586695
0.26975415
0.25455856
0.24025628
0.22681816
0.2142034
0.20237275
0.19128617
0.1808989
0.17116639
0.16204667
0.1535003
0.14548797
0.13797736
0.13093205
0.12431584
0.11810139
0.1122628
0.10677322
0.10161002
0.096749188
0.092169683
0.087849403
0.083777273
0.07992981
0.07629565
0.072853709
0.069599795
0.066518541
0.063603225
0.064842082
0.06787061
0.071075511
0.074464884
0.078055227
0.081853366
0.085877544
0.090145614
0.094683606
0.09950149
0.10462409
0.11007458
0.11588474
0.12207598
0.128682
0.135731
0.14325499
0.15129642
0.15990013
0.16910663
0.17896485
0.18952329
0.20083573
0.21296261
0.22596151
0.23989532
0.25482627
0.27081868
0.28793545
0.30623557
0.32576296
0.34654711
0.36859044
0.39185825
0.41625241
0.44159766
0.46759364
0.49376955
0.51942791
0.54354921
0.56468557
0.58100753
0.64664913
0.61547719
0.58225288
0.54853669
0.51533316
0.48325381
0.45266721
0.4237678
0.39662652
0.37124696
0.34758278
0.32556419
0.30510185
0.28610254
0.26846393
0.25209092
0.23689053
0.22277624
0.20966506
0.19748092
0.18614824
0.17559843
0.16577343
0.15661898
0.14808355
0.14011688
0.13266978
0.12570545
0.11918922
0.11308646
0.10736877
0.10200424
0.096967762
0.092233243
0.087784149
0.083594203
0.079647216
0.075922292
0.072410376
0.069091533
0.065959591
0.06699555
0.070220747
0.073640506
0.077264237
0.081111566
0.085192279
0.089529932
0.094142985
0.099056761
0.10429021
0.10987298
0.11583307
0.12220374
0.12901606
0.13630882
0.1441216
0.15249444
0.16148316
0.1711447
0.18153818
0.1927269
0.20477899
0.21777422
0.23180096
0.24695311
0.26333348
0.28105502
0.30023905
0.32101859
0.34353889
0.36794564
0.39439334
0.42302941
0.45400064
0.48742438
0.52337004
0.56179876
0.60251868
0.64511874
0.68873336
0.73177211
0.76323698
0.70764941
0.65519204
0.60636097
0.56125848
0.51981231
0.48183657
0.44707929
0.41527705
0.38616944
0.35951359
0.33508098
0.31266239
0.29206748
0.27312611
0.25568802
0.23961374
0.22478052
0.21107759
0.19840104
0.18665544
0.17576632
0.16566383
0.15628126
0.14755701
0.13942992
0.13185537
0.12478896
0.11818869
0.1120202
0.10624823
0.10084529
0.095775478
0.09102122
0.086556981
0.082363833
0.078409328
0.074690267
0.071182278
0.067878054
0.068685825
0.072059228
0.075640082
0.079440977
0.083484058
0.087774064
0.092346439
0.0972196
0.10241945
0.10796638
0.11389985
0.12024084
0.12703775
0.13432381
0.14214528
0.15054866
0.1595792
0.16930337
0.17979177
0.19111006
0.20334152
0.21656676
0.23089706
0.24644167
0.26333471
0.28170654
0.3017219
0.32355362
0.34740721
0.37351289
0.402136
0.43357216
0.46815382
0.50625312
0.54828096
0.59469361
0.64594818
0.70243395
0.76448929
0.83227422
0.8952711
0.81470049
0.74299022
0.67903535
0.62195052
0.57096633
0.52532654
0.48433425
0.44741824
0.41408181
0.3838912
0.35648023
0.33153378
0.30878218
0.28798468
0.26893799
0.2514522
0.23538659
0.22059909
0.20697141
0.19438853
0.18276105
0.17199587
0.16202433
0.15277159
0.14416955
0.13616948
0.12872012
0.12177757
0.11530481
0.1092554
0.10360069
0.098304126
0.093344521
0.088692323
0.084329319
0.080221885
0.076362401
0.072726436
0.06930356
0.069963875
0.073424901
0.0771019
0.081009162
0.085168366
0.089587724
0.094300873
0.099329992
0.10470263
0.11044263
0.11658783
0.12316881
0.13023085
0.13781229
0.14594818
0.15470828
0.16413832
0.17431253
0.18530125
0.19718954
0.21006749
0.22403521
0.2392083
0.25571272
0.27369819
0.29332923
0.31481565
0.33838799
0.36430195
0.39282874
0.42430858
0.45916352
0.49792442
0.54115797
0.58952969
0.64388103
0.70522175
0.77471674
0.85387296
0.94478364
-0.91821687
-0.90360138
-0.88808954
-0.87174955
-0.8546522
-0.83686807
-0.81846786
-0.79952248
-0.7801039
-0.76028325
-0.74012924
-0.7197102
-0.69909336
-0.67834379
-0.65752398
-0.63669216
-0.61591667
-0.59524949
-0.57473061
-0.55441164
-0.53433727
-0.51454872
-0.4950841
-0.47597751
-0.45725979
-0.43895725
-0.42109456
-0.40369334
-0.38677008
-0.3703375
-0.35440787
-0.33898936
-0.32408712
-0.30970217
-0.29583539
-0.28248501
-0.26964761
-0.25731718
-0.24548654
-0.23414631
-0.22328661
-0.21289573
-0.20296089
-0.19346885
-0.18440538
-0.17575839
-0.16751324
-0.15965546
-0.15217075
-0.14504399
-0.13825881
-0.13180259
-0.12566024
-0.11981922
-0.11426498
-0.10898579
-0.10396698
-0.099197433
-0.094661785
-0.090350737
-0.08625068
-0.082355051
0.025480933
0.02589849
0.026282968
0.026632936
0.02695035
0.027231812
0.027480143
0.027690741
0.027863608
0.027995726
0.028088597
0.028516949
0.028456887
0.028361495
0.028226257
0.028049332
0.027833448
0.027579483
0.027290356
0.026964711
0.02660529
0.02621136
0.025782759
0.025318263
0.024815513
0.024277334
0.023704872
0.02192825
0.02262408
0.023282578
0.023903827
0.024491027
0.02504296
0.025558649
0.026036123
0.026476405
0.026880752
0.02725023
0.027583792
0.027881003
0.028141403
0.02836278
0.028544095
0.028682369
0.028779537
0.028838618
0.029109196
0.029049634
0.028950198
0.028808873
0.028623131
0.028396373
0.028129216
0.027824664
0.027482164
0.027103098
0.026687712
0.026235593
0.025745644
0.025217115
0.024650835
0.024049325
0.023410765
0.02273524
0.022021771
0.021274601
0.020488441
0.019641746
0.020482334
0.021288323
0.02205475
0.022786065
0.023478286
0.024133112
0.024750183
0.025330923
0.025873058
0.026375619
0.026839796
0.027266947
0.027654684
0.028006068
0.028318623
0.028592639
0.028825287
0.029015711
0.029160743
0.029262921
0.029323578
0.029474635
0.029411159
0.029306105
0.029156823
0.028961282
0.028722608
0.028441622
0.028120857
0.027760791
0.027362909
0.0269248
0.026448431
0.025933909
0.025378366
0.024783022
0.024150197
0.023477975
0.022767922
0.022018609
0.021232742
0.020408239
0.019547958
-0.0073929649
-0.0057941248
-0.0042215947
-0.0026800727
-0.0011694151
0.00031091668
0.001759139
0.0031769305
0.0045607722
0.0059116948
0.0072284125
0.0085126916
0.0097611731
0.010974007
0.012152659
0.013292804
0.014398579
0.015467302
0.016501069
0.017496076
0.018454919
0.019373821
0.020255535
0.021100947
0.021907051
0.022674898
0.023402845
0.024091903
0.024740921
0.025351012
0.025920552
0.026448216
0.026937592
0.027385465
0.027793344
0.028162742
0.028491808
0.028779731
0.029024676
0.02922574
0.029379147
0.029486092
0.029552245
0.029547141
0.029478692
0.029369246
0.029212515
0.029006614
0.028755381
0.028459906
0.02812255
0.027743844
0.027325949
0.026866501
0.02636467
0.02582355
0.025239809
0.024614401
0.02394904
0.023242761
0.022496798
0.021710177
0.020883985
0.020018056
0.019113859
0.018170996
0.017188585
0.016167836
0.015108466
0.014013733
0.012879873
0.01171071
0.010502312
0.0092581235
0.0079777666
0.0066604575
0.0053093626
0.0039229782
0.0025025245
0.0010473737
-0.00043983797
-0.0019599491
-0.0035119552
-0.0050970157
-0.0067124512
-0.0083579885
-0.010031894
-0.011736281
-0.013463507
-0.015219809
-0.016998334
-0.018802777
-0.020625764
-0.022469779
-0.05322665
-0.051344746
-0.049436079
-0.047502818
-0.045552392
-0.043585885
-0.04161626
-0.039634853
-0.037654769
-0.035676855
-0.033699318
-0.031727291
-0.029764048
-0.027812176
-0.025874522
-0.023956027
-0.022052364
-0.020173643
-0.018314199
-0.016482844
-0.014674813
-0.012898225
-0.011144223
-0.0094225953
-0.0077321948
-0.0060729239
-0.0044454154
-0.0028517152
-0.0012914309
0.00023539507
0.001728832
0.0031860882
0.0046079282
0.0059938654
0.0073447236
0.0086575359
0.0099331094
0.011172014
0.01237092
0.013531887
0.014654036
0.01573848
0.016784287
0.017791195
0.018757274
0.019684319
0.020571594
0.021418475
0.022224367
0.022988923
0.023712252
0.024394402
0.025035513
0.025634585
0.026190079
0.026702979
0.02717362
0.027602063
0.027990042
0.028336012
0.028638849
0.028896547
0.02910723
0.029268216
0.029380218
0.029450793
0.029252445
0.029180006
0.029065431
0.02890027
0.028684923
0.028420568
0.02811029
0.027755625
0.027358349
0.026918989
0.026437058
0.025911158
0.025341922
0.024727647
0.024071081
0.023371823
0.022631157
0.021847641
0.02102249
0.020154719
0.019246286
0.018296054
0.017306302
0.016274501
0.015203135
0.014092348
0.012943236
0.011753598
0.010524948
0.0092557515
0.0079483849
0.0066029352
0.0052180964
0.0037972068
0.0023397707
0.00084504455
-0.00068631387
-0.0022529856
-0.0038539111
-0.0054908528
-0.0071613569
-0.0088664525
-0.010603285
-0.012373183
-0.014172797
-0.016001684
-0.017861421
-0.019747421
-0.021661866
-0.023598166
-0.025558801
-0.027539682
-0.029539108
-0.031554639
-0.033582775
-0.035622468
-0.037665759
-0.039713029
-0.041763817
-0.043815709
-0.045859579
-0.047899733
-0.049921439
-0.051929012
-0.053910343
-0.055866292
-0.057785981
-0.059670539
-0.061511071
-0.06330795
-0.065048825
-0.066735221
-0.068357484
-0.06991476
-0.071398909
-0.072811221
-0.074138324
-0.07537968
-0.076534957
-0.0775931
-0.078560411
-0.079427547
-0.080196085
-0.080851687
-0.081393926
-0.081808856
-0.082104465
-0.082280117
-0.086173508
-0.085987999
-0.085682504
-0.085246397
-0.084683014
-0.083995973
-0.083196534
-0.082289085
-0.081282111
-0.080175757
-0.078973991
-0.077676623
-0.076292689
-0.074820812
-0.073277457
-0.071653355
-0.069966052
-0.068207911
-0.066397156
-0.064525867
-0.062612621
-0.06065086
-0.058656076
-0.056624506
-0.054569094
-0.052487213
-0.050388757
-0.048276527
-0.046157649
-0.044032797
-0.04190838
-0.039791838
-0.037677643
-0.035571578
-0.033476666
-0.031397185
-0.029333382
-0.027292511
-0.025270127
-0.023276573
-0.021304139
-0.019364756
-0.017450805
-0.015571703
-0.013720803
-0.011902508
-0.010120383
-0.0083694361
-0.006656391
-0.0049764962
-0.0033350868
-0.0017285969
-0.00015846029
0.0013735245
0.0028671023
0.0043228986
0.0057421437
0.0071205879
0.0084601718
0.0097598739
0.0110178
0.012235959
0.013413501
0.014550824
0.01564776
0.016704629
0.017718287
0.018691715
0.019622272
0.02051122
0.021356443
0.022159034
0.022917552
0.02363376
0.024306187
0.024935517
0.02551894
0.026057708
0.026551478
0.027001861
0.027408809
0.027772285
0.028090077
0.028361044
0.028581402
0.028750683
0.028867749
0.028941881
0.028506236
0.02843013
0.028310037
0.028137073
0.027911003
0.02763384
0.027307839
0.026935997
0.026518561
0.026057529
0.025551239
0.024999278
0.0244017
0.023757694
0.023068504
0.022335552
0.021558214
0.020736863
0.019870858
0.018961144
0.018007846
0.017011609
0.015973106
0.01489149
0.013767809
0.01260381
0.011398044
0.010150932
0.0088632028
0.0075325372
0.0061606649
0.0047493088
0.0032957637
0.0018050115
0.00027473439
-0.0012946319
-0.0029039976
-0.0045496258
-0.0062334551
-0.0079563703
-0.0097142051
-0.011510699
-0.013340405
-0.01520809
-0.017106174
-0.019038349
-0.021005148
-0.023000761
-0.025030209
-0.027083235
-0.029165414
-0.03127023
-0.033397811
-0.035543847
-0.037706033
-0.039883087
-0.042065682
-0.044254735
-0.046453882
-0.048652945
-0.050847988
-0.053036488
-0.055212712
-0.057370957
-0.05950718
-0.061617095
-0.063690139
-0.065728084
-0.067717868
-0.069663265
-0.071547537
-0.073375941
-0.075133273
-0.076824399
-0.078432331
-0.079965798
-0.081409391
-0.082761059
-0.084013241
-0.085167552
-0.086217788
-0.087165311
-0.087998742
-0.08871659
-0.089303585
-0.089759133
-0.090077357
-0.090270431
-0.094577065
-0.094376935
-0.094043817
-0.09357023
-0.092956102
-0.092209475
-0.091338047
-0.090352559
-0.089255874
-0.088053949
-0.086748348
-0.085341045
-0.083837144
-0.0822402
-0.080564125
-0.078804438
-0.076973904
-0.075072594
-0.073110624
-0.071089315
-0.069018981
-0.066902888
-0.064748053
-0.062560947
-0.06034406
-0.058106799
-0.05584986
-0.053583569
-0.051311255
-0.049036296
-0.046760957
-0.044498263
-0.042240801
-0.039995061
-0.037763284
-0.035550958
-0.033357034
-0.031190032
-0.029044684
-0.026933625
-0.024845244
-0.022793896
-0.020771985
-0.018787879
-0.016836678
-0.014921846
-0.013043177
-0.011202677
-0.0093993787
-0.0076353288
-0.0059090174
-0.0042235141
-0.0025745296
-0.00096781419
0.0005993574
0.0021249517
0.0036127162
0.0050573805