/*--------------------------------*- C++ -*----------------------------------*\
| =========                 |                                                 |
| \\      /  F ield         | OpenFOAM: The Open Source CFD Toolbox           |
|  \\    /   O peration     | Version:  v2012                                 |
|   \\  /    A nd           | Website:  www.openfoam.com                      |
|    \\/     M anipulation  |                                                 |
\*---------------------------------------------------------------------------*/
FoamFile
{
    version     2.0;
    format      ascii;
    class       volScalarField;
    location    "100";
    object      k;
}
// * * * * * * * * * * * * * * * * * * * * * * * * * * * * * * * * * * * * * //

dimensions      [0 2 -2 0 0 0 0];


internalField   nonuniform List<scalar> 
24441
(
0.27963141
0.28226705
0.28476559
0.28715999
0.28947365
0.29172671
0.29393306
0.29610686
0.29825923
0.30039719
0.30252289
0.30463503
0.36195255
0.36209712
0.36214366
0.36009
0.36006563
0.36496157
0.37290949
0.37341456
0.37497689
0.37537066
0.37777028
0.37788156
0.37789725
0.37766669
0.37740856
0.3750474
0.3745198
0.379175
0.38688591
0.38713584
0.38682408
0.38593638
0.38257784
0.37926298
0.37786788
0.38173728
0.38891097
0.38856482
0.38600705
0.3821388
0.3797263
0.38265583
0.38926749
0.3873237
0.3798387
0.37583793
0.37488808
0.37949123
0.38666882
0.39244221
0.39965687
0.40652775
0.41381467
0.41961498
0.43028789
0.44058524
0.45080178
0.46162643
0.47483259
0.48940153
0.50399079
0.51814259
0.53212428
0.54607859
0.56002742
0.57384064
0.58744727
0.60091946
0.61423374
0.62776624
0.64331746
0.66262524
0.67617855
0.70615911
0.69186131
0.6776206
0.66397658
0.64511931
0.63012703
0.61670827
0.60355841
0.59025056
0.57676828
0.56309702
0.54929013
0.53541477
0.52151002
0.5075548
0.4935882
0.47915455
0.46457275
0.45382372
0.45140059
0.4409665
0.43134225
0.42065918
0.41047996
0.40062111
0.39145808
0.38332122
0.3753206
0.3682777
0.36037926
0.36527509
0.36935896
0.37522718
0.37818307
0.37075675
0.3623658
0.37084858
0.37495278
0.37733422
0.37824626
0.37021298
0.3617472
0.36832008
0.37184813
0.37498587
0.37621422
0.37632689
0.37625952
0.36771654
0.35914546
0.3645378
0.36667157
0.36716592
0.36754606
0.36766689
0.36743964
0.36547665
0.36474971
0.363274
0.36266922
0.35418791
0.34585084
0.35028189
0.35219299
0.35248883
0.35232452
0.33418325
0.33434296
0.33363211
0.33170615
0.32840517
0.32637251
0.32876677
0.33669574
0.33788383
0.33899243
0.33901656
0.3375303
0.33942911
0.34703774
0.34666153
0.34457347
0.3407101
0.33760836
0.33935402
0.34641807
0.34527539
0.34238626
0.3374899
0.33734292
0.34262083
0.33991168
0.33568739
0.33555605
0.34038898
0.33395647
0.33277183
0.3372039
0.33179001
0.33142171
0.33616368
0.33195309
0.3314542
0.33654498
0.33716964
0.34274008
0.34553813
0.35367065
0.36174456
0.36957951
0.3771142
0.38667927
0.3945365
0.40440932
0.41767382
0.43174344
0.44588709
0.45974821
0.47366581
0.48757444
0.50158626
0.51564067
0.52957572
0.54343602
0.55720406
0.57072641
0.58417362
0.59740232
0.61060948
0.62445178
0.63810923
0.65511281
0.66945082
0.6838719
0.69796729
0.71192111
0.72665629
0.74919192
0.7584234
0.76302569
0.76271977
0.76925487
0.70817611
0.69401559
0.67967621
0.664778
0.64729514
0.63338799
0.61941279
0.60616473
0.59293932
0.57952059
0.56588887
0.55221641
0.53833495
0.52440142
0.5104313
0.49647946
0.48247033
0.46802921
0.45353043
0.44341014
0.44087465
0.43089144
0.42105312
0.41155196
0.40159091
0.39210096
0.38310987
0.37427883
0.36616218
0.35694827
0.3478931
0.35174065
0.35646894
0.36058855
0.36591824
0.35708527
0.34807388
0.35354084
0.36128624
0.36545389
0.36793506
0.35898382
0.34983265
0.35266342
0.35795495
0.36226588
0.36510469
0.36640882
0.3666471
0.35694884
0.3474807
0.3502716
0.35430192
0.35642316
0.35701746
0.35762777
0.35830744
0.35801096
0.35636636
0.35544859
0.35404263
0.34485167
0.3358214
0.33741513
0.34080239
0.34265267
0.34316732
0.3430328
0.20524773
0.21131158
0.21793874
0.22501785
0.23263366
0.24052153
0.2489164
0.2575762
0.26665768
0.27601002
0.28578565
0.29580512
0.30623242
0.31691458
0.32799675
0.33928197
0.3509443
0.36283068
0.37498662
0.38732596
0.40009259
0.41308923
0.42638151
0.43987351
0.45380219
0.46795493
0.4823739
0.49693948
0.51187548
0.52697764
0.54232315
0.55780699
0.57368419
0.58976154
0.60613488
0.62269242
0.63971801
0.65703162
0.67475303
0.69284163
0.71163301
0.73102309
0.75121523
0.77217921
0.79433954
0.81762918
0.84227939
0.86836962
0.89640843
0.92640181
0.95864457
0.99315785
1.0304765
1.0705147
1.1134209
1.1592356
1.2083767
1.2606345
1.3159262
1.3737456
1.4334535
1.4929965
1.5495071
1.5953254
1.6276426
1.6371934
1.6197275
1.6212814
1.6140312
1.5001365
1.438939
1.2819202
1.1014992
0.8385416
0.62456239
0.55511004
0.50288146
0.55606719
0.64273765
0.73351401
1.002941
1.2056485
1.3697032
1.5364712
1.6938346
1.7501489
1.7255766
1.6792348
1.6206562
1.5586802
1.4943024
1.4311011
1.3696349
1.3111125
1.255639
1.2034658
1.1545485
1.1090498
1.066714
1.0273835
0.99067646
0.95658565
0.92476091
0.89513423
0.867394
0.84154186
0.81723626
0.79429925
0.77242247
0.7515929
0.73151906
0.7121655
0.69333426
0.67513135
0.65738118
0.64007709
0.62303955
0.60638634
0.5899403
0.57377961
0.55777652
0.54213415
0.52674769
0.51164113
0.49668487
0.48208984
0.46776178
0.45373236
0.43986742
0.42638186
0.41318561
0.40035634
0.38773701
0.37549338
0.36346726
0.35177392
0.34028813
0.32915344
0.31822042
0.30764295
0.29729955
0.2873348
0.27761821
0.26829719
0.25922894
0.25055244
0.2421237
0.23409797
0.22632795
0.21896857
0.21194418
0.20547339
0.19937745
0.20609306
0.21252171
0.21912682
0.22631033
0.23365749
0.24148836
0.24945726
0.25791024
0.26649685
0.27556806
0.28477281
0.29447255
0.3043094
0.31462558
0.32506989
0.33599424
0.34703697
0.35855349
0.37013552
0.38214274
0.39427071
0.40683941
0.41952154
0.4326352
0.44595859
0.45972476
0.4735707
0.4877812
0.50220309
0.51704074
0.5319662
0.54722728
0.56270965
0.5785938
0.59459033
0.61090874
0.62741187
0.64430753
0.66145275
0.67904993
0.69709436
0.71575373
0.73491512
0.75477018
0.77537968
0.79696653
0.81961475
0.84353737
0.86902498
0.89624903
0.92536378
0.95648442
0.98995472
1.0258225
1.0644713
1.1058126
1.1505808
1.1983508
1.2497885
1.3040914
1.3620616
1.4226512
1.4856402
1.5494561
1.6091573
1.6622799
1.6911694
1.6872398
1.5652143
1.3776311
1.1943406
1.0432848
0.84710265
0.69638082
0.85167853
0.97052154
1.033463
1.3129416
1.4338437
1.4977848
1.526648
1.5124615
1.4764414
1.430605
1.3770962
1.3274055
1.2739562
1.2275844
1.1790255
1.1376311
1.0952123
1.0586935
1.0219108
0.98957812
0.95747163
0.92896476
0.90087767
0.87563445
0.85091279
0.82845156
0.80639334
0.78589812
0.76578953
0.74682965
0.72818531
0.71034984
0.69286399
0.67598932
0.65941997
0.64313167
0.62723291
0.61146701
0.59614641
0.58081519
0.56607617
0.55128945
0.53711689
0.52267834
0.50901843
0.49511304
0.48201025
0.46846806
0.4558837
0.44290355
0.43091404
0.41834812
0.40687571
0.39480668
0.38395077
0.37240788
0.36206714
0.35102012
0.34130084
0.33081392
0.32161766
0.31164352
0.30307551
0.29367803
0.28563263
0.27674586
0.26925619
0.26090806
0.253976
0.24616776
0.2398375
0.23256254
0.20886145
0.21556569
0.22292698
0.22986568
0.23720378
0.24482102
0.25304538
0.26151395
0.27040914
0.27969703
0.28944987
0.29938063
0.30973266
0.32043779
0.33156919
0.34294977
0.35468462
0.36662001
0.37889021
0.39120565
0.40379095
0.41652934
0.42956849
0.4427688
0.45629341
0.46997517
0.48394602
0.49806918
0.51248601
0.52704731
0.54188432
0.55687428
0.57217038
0.58768889
0.6036151
0.61978708
0.63641527
0.65327433
0.67057651
0.68831387
0.70671849
0.72579085
0.74583003
0.76677474
0.78896436
0.81225613
0.83695343
0.86317326
0.891248
0.92129532
0.9537445
0.98857199
1.0261569
1.0663182
1.1092759
1.1551534
1.2041186
1.2561657
1.3114279
1.3693071
1.4291237
1.4896329
1.5491344
1.6033047
1.650656
1.6904375
1.7298551
1.7703807
1.6647678
1.5438308
1.5340895
1.4377072
1.4093168
1.3037657
1.1465174
0.93578853
0.68685469
0.54860595
0.41992075
0.3751302
0.35588217
0.35179716
0.34605713
0.34245972
0.34489918
0.34899933
0.35593576
0.3654875
0.39345034
0.46437752
0.40753212
0.37330498
0.35927224
0.37617869
0.40308297
0.4647871
0.613008
0.72842055
1.0653879
1.1390303
1.1620021
1.2153467
1.1944894
1.2194424
1.1740559
1.1811299
1.1303656
1.1261502
1.0780461
1.0671594
1.0241175
1.0100542
0.97212149
0.95641274
0.92304233
0.90684801
0.87745437
0.86149061
0.83548494
0.82012002
0.79684098
0.7819135
0.76074513
0.74629201
0.72686117
0.71276284
0.69479635
0.68105655
0.66432191
0.65066043
0.63493865
0.62136249
0.60659237
0.59302896
0.57918727
0.56574081
0.55276359
0.53925528
0.52708649
0.51368174
0.50231671
0.48888507
0.47829296
0.46501369
0.45520343
0.44196536
0.4328566
0.41974893
0.41141779
0.39851886
0.39084151
0.37812509
0.37117385
0.35873876
0.35238401
0.3401866
0.33450374
0.32264939
0.31751006
0.30594144
0.3013642
0.29014112
0.28610572
0.27522886
0.27170243
0.26119694
0.29653371
0.3109724
0.32608163
0.34191725
0.35848023
0.37578125
0.39380018
0.41249995
0.43191528
0.45195337
0.47266285
0.49393139
0.51587285
0.53833886
0.56149382
0.58519904
0.60968417
0.63481713
0.66085391
0.68770216
0.71571073
0.7447364
0.77491964
0.80583393
0.83712276
0.86764872
0.89552711
0.91778064
0.92997155
0.9264909
0.90311586
0.85980996
0.79865631
0.56283245
0.51648925
0.455592
0.39247579
0.40687873
0.4409709
0.44760916
0.59088163
0.60894978
0.62041785
0.62913555
0.63183437
0.63368709
0.62854775
0.62408846
0.61334695
0.604545
0.59079369
0.57952279
0.5643925
0.55186009
0.53620446
0.52302309
0.50739323
0.49402982
0.47867647
0.46529783
0.45036332
0.43712625
0.42275295
0.40980661
0.39609119
0.3835632
0.37060559
0.3585251
0.34640431
0.33498188
0.32372172
0.31286239
0.27942735
0.28203552
0.28451409
0.28689408
0.28919756
0.29144347
0.29364751
0.29582332
0.2979814
0.30012821
0.30226679
0.30439563
0.30430512
0.30217127
0.30002635
0.29787161
0.29570372
0.29351577
0.29129656
0.28903222
0.28670914
0.28430663
0.28180098
0.27916205
0.27731144
0.27769689
0.27806457
0.27847036
0.27880076
0.28148077
0.2811722
0.28079404
0.28045109
0.28008891
0.28271094
0.28304691
0.28337472
0.28372863
0.28402432
0.2864563
0.28617315
0.28583896
0.28552408
0.28521276
0.28734513
0.28761389
0.28791084
0.28821204
0.28852913
0.2888057
0.29108363
0.29081861
0.29051294
0.29021881
0.28993269
0.28968258
0.29195451
0.2921928
0.29246987
0.29275968
0.29305652
0.29331376
0.29550989
0.29525806
0.29496867
0.29468187
0.29441324
0.29418346
0.29638185
0.29660556
0.29686816
0.29715222
0.2974375
0.29768503
0.29984559
0.29960129
0.29931918
0.29903832
0.29878003
0.29856215
0.30073193
0.30094404
0.3011969
0.30147464
0.30175339
0.30199526
0.30413372
0.3038956
0.3036214
0.3033488
0.30310303
0.3028982
0.3291737
0.34068771
0.35215623
0.36335872
0.37411986
0.3842088
0.39334988
0.40130678
0.40770517
0.41222006
0.41453007
0.41428878
0.41147412
0.40556945
0.39530703
0.37831213
0.36065861
0.34739418
0.33900165
0.32116065
0.32677158
0.33208401
0.33704052
0.3415648
0.34556642
0.34895681
0.35167554
0.35367558
0.35491277
0.35539499
0.35482256
0.35292571
0.34931402
0.34392813
0.32986324
0.33098402
0.33157072
0.33156148
0.33100614
0.32998621
0.32861308
0.32692862
0.32494454
0.3226696
0.32010859
0.31727218
0.31417584
0.31085011
0.30731787
0.29749475
0.3002762
0.30287471
0.30531002
0.30758605
0.30971062
0.31169127
0.31353488
0.3152474
0.31683093
0.31825823
0.3194992
0.31263115
0.3110311
0.30934099
0.30757531
0.30575191
0.30386613
0.30190962
0.29987105
0.29773968
0.29549809
0.29312867
0.29060816
0.28577403
0.28826462
0.29061733
0.29286168
0.29501543
0.29709678
0.29912042
0.3010975
0.30303871
0.30494886
0.30681878
0.30864068
0.30641942
0.304451
0.30245503
0.30043653
0.29839798
0.29633427
0.29423601
0.29209034
0.28988079
0.28758913
0.28519449
0.28267596
0.28068144
0.28327501
0.28573715
0.28809539
0.29037183
0.29258495
0.29475112
0.2968846
0.29899597
0.30109108
0.30317058
0.30523225
0.18622185
0.18774508
0.1888702
0.19237529
0.19555806
0.20164886
0.20463936
0.20803783
0.20928764
0.21051419
0.21121852
0.21351075
0.21499535
0.21760809
0.21865734
0.22193804
0.23061139
0.23543141
0.24235748
0.24649761
0.25208062
0.25583282
0.26067917
0.26444806
0.26996361
0.27145872
0.26892399
0.26242765
0.24597153
0.23131056
0.20311404
0.17492832
0.16666341
0.15944331
0.16474471
0.19578847
0.22275963
0.23768166
0.25337075
0.25993076
0.26262929
0.26123757
0.25641255
0.25256221
0.24818265
0.24427032
0.23911096
0.23478287
0.22799175
0.22158301
0.21673626
0.21345869
0.21196239
0.20941837
0.20795004
0.20569202
0.20489567
0.20362897
0.20235904
0.19919748
0.19627027
0.19083514
0.18761136
0.18440367
0.18323411
0.1816398
0.098591055
0.1044999
0.10051579
0.10655128
0.097053917
0.10077531
0.095992274
0.092259269
0.087009837
0.089735254
0.085916683
0.08460266
0.081621529
0.079819663
0.078264031
0.21703224
0.2214174
0.22800846
0.23514829
0.24254838
0.25007165
0.25781384
0.26575655
0.27396339
0.28231718
0.29088002
0.29956785
0.30852048
0.31761684
0.32671283
0.33551093
0.33585922
0.32638799
0.31719006
0.30817426
0.29926324
0.29059672
0.28215869
0.27398372
0.26591619
0.25810746
0.25047717
0.24307999
0.23580499
0.2288485
0.22246952
0.21837131
0.21871537
0.21701753
0.22078149
0.22702106
0.23388863
0.24111621
0.24846723
0.25605116
0.26383923
0.27186729
0.28007667
0.28850362
0.29707898
0.30598859
0.31511801
0.32455259
0.3341627
0.33085185
0.32181714
0.31287125
0.3040889
0.29541404
0.28696071
0.27873883
0.27077807
0.26292426
0.25531338
0.24787657
0.24065872
0.23354933
0.22681643
0.22070754
0.21702587
0.21772376
0.21534271
0.21880274
0.22476175
0.23141753
0.23844885
0.24563056
0.25303172
0.26057754
0.26839129
0.27634424
0.2845625
0.29294082
0.30155998
0.31033565
0.31934473
0.32834523
0.32650425
0.33541855
0.33511228
0.32569475
0.31672652
0.31796348
0.30927757
0.3007113
0.2921897
0.28390266
0.27576337
0.26786966
0.26012063
0.25272285
0.24541848
0.23830781
0.23134478
0.22468885
0.21879104
0.21540126
0.21641631
0.213931
0.21723472
0.22307986
0.22967084
0.23654156
0.24359464
0.25088129
0.25831554
0.26599077
0.27383927
0.28204378
0.29049937
0.29915533
0.30790449
0.30521504
0.31409075
0.32306018
0.33257481
0.32847902
0.31947856
0.31084062
0.30225594
0.29388227
0.2968826
0.28856648
0.28050412
0.27251879
0.26475537
0.25714305
0.24978264
0.24263056
0.2356815
0.22892257
0.22246306
0.21673511
0.21354366
0.2144516
0.21139158
0.21441164
0.2200266
0.22637361
0.2331225
0.24001161
0.24711282
0.2544355
0.2619485
0.26967548
0.27763427
0.28570177
0.28226773
0.29030008
0.29841981
0.30678041
0.3153198
0.32396449
0.33208627
0.32997808
0.32132814
0.31272142
0.30430105
0.29596199
0.28785017
0.279861
0.27215436
0.27481643
0.26733659
0.2599647
0.25264703
0.24560821
0.23871095
0.23199776
0.22540014
0.21909606
0.21355242
0.21061658
0.21167489
0.20808293
0.21091811
0.21635023
0.22255923
0.22918118
0.23591388
0.24283504
0.25005464
0.25730995
0.26463728
0.26138996
0.26884307
0.27642921
0.28437008
0.29244308
0.30064724
0.30898662
0.31773495
0.32653924
0.32191452
0.3302713
0.32544578
0.31710614
0.3089891
0.31383041
0.30562596
0.29751443
0.28945164
0.28159679
0.27385829
0.2663496
0.25898785
0.25197734
0.25451268
0.24763383
0.24091732
0.234256
0.22769824
0.22111483
0.21484147
0.2095291
0.20657095
0.20744715
0.20090588
0.20528506
0.2110111
0.217982
0.22476035
0.23153632
0.23827176
0.24509561
0.24146427
0.24833076
0.25530868
0.26255403
0.26996605
0.27754616
0.28528165
0.29313404
0.30105639
0.29589087
0.30375683
0.31170036
0.31978527
0.32709702
0.32306002
0.3152771
0.30741252
0.29977258
0.29208394
0.28463518
0.2885244
0.28111778
0.27379628
0.26653324
0.25954256
0.2526169
0.24593746
0.23930348
0.23285431
0.23524534
0.22901406
0.22276202
0.21624455
0.20925222
0.20127825
0.19976338
0.19715856
0.19535201
0.19369738
0.19093463
0.19007574
0.19117666
0.1908509
0.1915939
0.19309835
0.19141243
0.19315233
0.20007398
0.20159682
0.19751165
0.19321238
0.19116434
0.18566449
0.18557945
0.18653794
0.1853757
0.1846712
0.18486118
0.18408911
0.18494795
0.18741642
0.18900847
0.19073623
0.19276928
0.19338273
0.19629296
0.19074411
0.18761024
0.18756801
0.18654041
0.18600829
0.19833569
0.1970724
0.20522485
0.20520706
0.20634444
0.20658785
0.20838874
0.20898834
0.21431243
0.21589721
0.22627994
0.22779015
0.23306645
0.2337069
0.23490913
0.23528081
0.23812841
0.23887815
0.24290842
0.24418641
0.25217422
0.25429246
0.26489207
0.26704625
0.27530676
0.27719942
0.28479345
0.28684332
0.29652894
0.29747456
0.29609578
0.29271559
0.27265777
0.26238874
0.25284336
0.25198527
0.26162875
0.26265539
0.27322335
0.27538999
0.28655566
0.28916174
0.30036587
0.30321307
0.31477635
0.31792878
0.32942561
0.33198618
0.34351216
0.34798566
0.36716828
0.37316379
0.38916103
0.40541134
0.42421736
0.40380276
0.39254605
0.3914953
0.37598957
0.34622061
0.33142614
0.32228261
0.31268224
0.30472268
0.29579395
0.28795506
0.27934486
0.27203781
0.26388837
0.25676311
0.24875917
0.24219225
0.23494206
0.22967326
0.22482411
0.22561487
0.21903319
0.24982063
0.2628121
0.2811405
0.28644686
0.28836604
0.28705016
0.27931412
0.27623506
0.26998131
0.26711602
0.2601541
0.25684666
0.24804645
0.2446818
0.23794791
0.23602244
0.23263124
0.23147714
0.22893848
0.2282626
0.22717954
0.22616366
0.22170005
0.21932179
0.21068873
0.20819998
0.20367002
0.20269933
0.20113895
0.2007162
0.19964978
0.1996776
0.17017823
0.17554924
0.18091177
0.186025
0.18278023
0.17975017
0.17851205
0.16644077
0.17160588
0.17703546
0.18263873
0.18840049
0.19391594
0.19095669
0.18560108
0.1801735
0.17495347
0.1697249
0.16469332
0.16764126
0.1728336
0.17794959
0.17497383
0.17370093
0.19608277
0.19613764
0.1971548
0.19188513
0.1924642
0.19775785
0.19916703
0.19390766
0.19507916
0.20033463
0.20426092
0.19873029
0.20186913
0.2072537
0.21453518
0.20834877
0.21140976
0.21740978
0.22123842
0.21488822
0.21619982
0.22251796
0.22355541
0.21734063
0.2181102
0.22438592
0.22672549
0.22040584
0.22191456
0.22815861
0.23113595
0.22473058
0.2263597
0.23308414
0.23861523
0.24295355
0.25049311
0.25439982
0.26051513
0.26398251
0.26936053
0.2729176
0.2791885
0.2806544
0.27828505
0.27204447
0.2548471
0.24051556
0.21109733
0.18421095
0.19152081
0.19805051
0.20346902
0.20970973
0.21668075
0.22412821
0.23175237
0.23988109
0.24807909
0.25640029
0.26470849
0.27327465
0.28181627
0.29027012
0.29824116
0.3052346
0.30763652
0.31634545
0.3262695
0.32019637
0.31337181
0.30462179
0.29557222
0.28639067
0.2772385
0.26824834
0.25951933
0.25085774
0.24222488
0.23382317
0.22599139
0.21841212
0.21076155
0.20377901
0.19798541
0.19071334
0.18305807
0.1747789
0.17040525
0.16697862
0.16214904
0.15449603
0.15959766
0.1894519
0.21538966
0.23054852
0.24537911
0.25205787
0.25476336
0.25357207
0.24931096
0.24562522
0.24146021
0.23757787
0.23257146
0.22826003
0.2220357
0.21614093
0.21141315
0.20792924
0.20630202
0.20385265
0.20233763
0.20024378
0.19930428
0.19806912
0.19673614
0.19114806
0.18552079
0.18009751
0.17473677
0.16958699
0.16454239
0.15983086
0.15584861
0.15479739
0.15948741
0.15561965
0.15652738
0.16044146
0.16519673
0.17028722
0.17551522
0.18117915
0.18679649
0.19255291
0.19370759
0.18804787
0.18261218
0.1772139
0.17202154
0.1669479
0.16226193
0.15839844
0.15750764
0.16205863
0.15784995
0.15864418
0.16255539
0.16735301
0.17246026
0.17770463
0.18339946
0.18902882
0.19476066
0.19680996
0.19120005
0.1856326
0.18011618
0.17488461
0.16974265
0.16495845
0.16095737
0.15996508
0.16506411
0.16099201
0.16185795
0.16586684
0.17077081
0.17592375
0.18116224
0.18692368
0.19263086
0.1983439
0.20071009
0.19502615
0.18939283
0.18382568
0.17855826
0.17337745
0.1685734
0.16459652
0.16360048
0.16882563
0.16513336
0.16598337
0.16997423
0.17483728
0.18007746
0.18544176
0.19115476
0.19688419
0.20257232
0.20600445
0.20043977
0.19492301
0.18946809
0.18414724
0.17889087
0.17395164
0.16978601
0.16870298
0.17434546
0.17122096
0.17236408
0.176665
0.18176306
0.18720776
0.19277796
0.19872354
0.20456085
0.2104426
0.21534436
0.22176612
0.22594445
0.21955554
0.21320929
0.2092135
0.203338
0.19751562
0.19192396
0.18643253
0.18129573
0.17691208
0.1754961
0.18075275
0.17806856
0.17956384
0.1841312
0.18942739
0.19522642
0.20107912
0.20714547
0.21099424
0.21749988
0.22415759
0.23080312
0.23461539
0.22799274
0.22134466
0.21488588
0.20857415
0.20510316
0.19932158
0.1935991
0.1882731
0.18364318
0.1819206
0.18676861
0.18411439
0.18593158
0.19094093
0.19654923
0.20255069
0.2049645
0.21133175
0.21788093
0.22471191
0.23167538
0.23862038
0.24216615
0.23512702
0.22817215
0.2213973
0.21468521
0.20822449
0.20193421
0.19916266
0.19370869
0.18891257
0.18691558
0.19106021
0.18879425
0.19100752
0.19609971
0.19701987
0.20309964
0.20959926
0.21634461
0.22336133
0.23065608
0.23825552
0.24589915
0.24684844
0.23915264
0.23154024
0.22422804
0.2170867
0.21025467
0.20362169
0.19742683
0.19198261
0.19208953
0.18981226
0.19237949
0.18936296
0.18539085
0.18820241
0.19378304
0.2001736
0.206882
0.21377984
0.22099161
0.22852636
0.23633405
0.24419755
0.23747531
0.22985016
0.2223604
0.21515259
0.20810174
0.20134131
0.19477809
0.18861594
0.18314998
0.18027556
0.1854201
0.18190113
0.18904541
0.1881514
0.18420059
0.17833731
0.17218323
0.16675615
0.16306082
0.16002025
0.15742751
0.19219906
0.19372925
0.1824382
0.18305803
0.18477445
0.18423013
0.19294936
0.19469239
0.19642314
0.21833761
0.22035851
0.22406975
0.22602593
0.2278592
0.22895672
0.23034813
0.23100836
0.23180713
0.23207971
0.2331613
0.23320591
0.23403307
0.23311897
0.23208931
0.21580228
0.22115842
0.22856014
0.23596752
0.24343529
0.25100615
0.25878513
0.2668001
0.27506008
0.28340251
0.29197711
0.30072181
0.3098661
0.31908879
0.32839137
0.32938062
0.32927795
0.32790924
0.32559005
0.31702231
0.31736509
0.31897574
0.32181821
0.32378468
0.32457902
0.32411848
0.30666981
0.31534607
0.31574945
0.30704159
0.29838761
0.29832491
0.28844942
0.29727189
0.30605468
0.31492833
0.31296566
0.30427307
0.29573679
0.28721108
0.27891959
0.28017474
0.2706784
0.26836361
0.2764534
0.28463901
0.29325439
0.30187711
0.31045468
0.30896336
0.30055908
0.29227911
0.28395361
0.27587467
0.26787525
0.25999041
0.2607395
0.2591615
0.26705744
0.27510572
0.28329023
0.29181046
0.30035018
0.3088872
0.30987864
0.31868776
0.31994988
0.31106548
0.30227942
0.30136989
0.29292868
0.28448822
0.2763051
0.26815567
0.26017554
0.23667199
0.24422882
0.25196084
0.25987603
0.26799441
0.27648642
0.28487609
0.29360387
0.29306835
0.30202647
0.31104368
0.32012827
0.32578939
0.32561556
0.32455802
0.32348978
0.32224428
0.32387628
0.32628609
0.32797346
0.32862749
0.32827053
0.32499559
0.34533154
0.32317977
0.35531006
0.36042928
0.31174226
0.31353251
0.31118303
0.31063881
0.34556053
0.34458525
0.34495968
0.34522321
0.3483015
0.34848137
0.35141914
0.35115658
0.35373709
0.35411634
0.36996352
0.36534135
0.36570821
0.36089142
0.35581901
0.35599386
0.3610869
0.34797917
0.33537688
0.33324977
0.33262243
0.32252281
0.32430958
0.33470005
0.34754542
0.36104324
0.35598413
0.35554134
0.35574931
0.35531993
0.35439474
0.29277315
0.32872421
0.32871908
0.29243162
0.29725596
0.29787952
0.29826436
0.29798625
0.3358503
0.32453323
0.35126678
0.35203775
0.32510598
0.29422209
0.29406161
0.29464008
0.22983674
0.26324312
0.30879869
0.30828102
0.31010998
0.30963934
0.30783995
0.30556347
0.30535235
0.30722282
0.30746953
0.30925365
0.30897849
0.31063414
0.31093767
0.31134939
0.3118412
0.31238809
0.31295449
0.31463857
0.31523645
0.31686337
0.31841993
0.31990803
0.31778135
0.31624613
0.31563523
0.31405064
0.31348583
0.3129733
0.31253543
0.31220426
0.31369282
0.31405651
0.31452059
0.31505418
0.31715344
0.3186023
0.31925027
0.3155039
0.31599564
0.31655148
0.31797878
0.31739968
0.31687838
0.31644275
0.33106372
0.32973631
0.32827804
0.32669773
0.33732696
0.33907678
0.33824445
0.32750864
0.32597132
0.33658011
0.35021463
0.35073842
0.35319425
0.37029807
0.37025364
0.37437228
0.37426164
0.35652254
0.35857258
0.37809982
0.37796088
0.35785202
0.34189709
0.34060865
0.33968781
0.32892441
0.3302079
0.34088289
0.35601008
0.35698636
0.35530026
0.35599313
0.37426094
0.37759726
0.37697527
0.37391254
0.35450444
0.35255271
0.37013866
0.36580933
0.36589031
0.37462599
0.37385887
0.37268369
0.37069024
0.36808527
0.35635735
0.36156279
0.34494065
0.34560794
0.36278977
0.35735909
0.33540792
0.33476312
0.35841718
0.36386269
0.34518377
0.34578241
0.36489675
0.35923256
0.33542329
0.30616241
0.30581504
0.30643912
0.30729892
0.30811852
0.28808725
0.29589034
0.31268026
0.31164717
0.29451306
0.28706131
0.27934428
0.29904084
0.29824663
0.277772
0.27089002
0.26997873
0.27698439
0.29766299
0.29782882
0.27673482
0.26990045
0.27003914
0.29416245
0.2977678
0.27715855
0.27727606
0.29792946
0.32554032
0.35294017
0.36352241
0.34783813
0.34047353
0.30668229
0.30665501
0.34046669
0.33595293
0.33613773
0.34066417
0.30595027
0.3050916
0.34062654
0.33611266
0.33596202
0.32866378
0.29208375
0.29076878
0.32805017
0.32758588
0.28955913
0.28753836
0.32677817
0.34600632
0.35053557
0.34098897
0.32973399
0.31996444
0.31932139
0.32909378
0.3312415
0.3319454
0.32184708
0.32359613
0.33395817
0.33318324
0.32287051
0.32116474
0.32046841
0.31867027
0.32843573
0.32776097
0.31802306
0.31612577
0.3255678
0.33649228
0.34053836
0.3503814
0.35554656
0.35578673
0.34411858
0.34698585
0.36082401
0.36049616
0.34632953
0.34358146
0.34300271
0.33050942
0.33237403
0.32213814
0.32140695
0.31978245
0.3297595
0.33154212
0.34488624
0.34564868
0.36034956
0.35556388
0.35052505
0.34008549
0.33957428
0.35060984
0.35551921
0.34239363
0.34168717
0.32900473
0.31911666
0.31740161
0.31554474
0.34081923
0.34588654
0.32070087
0.32118698
0.32190237
0.32639356
0.28600929
0.28238852
0.28088478
0.28448067
0.32556523
0.32497478
0.28307975
0.27986408
0.32074382
0.3250931
0.28309926
0.27977997
0.23034892
0.18761695
0.1891182
0.17845386
0.17892012
0.17832834
0.17919423
0.18149057
0.18103781
0.19077466
0.17902955
0.17819579
0.18709985
0.18781111
0.1897961
0.19112206
0.21313071
0.21491026
0.21659741
0.25201134
0.25348821
0.25459063
0.25626907
0.25791352
0.25910999
0.26005526
0.2608551
0.26142907
0.26210732
0.26235165
0.26315188
0.26326641
0.26374231
0.26356802
0.2635195
0.26319239
0.26514095
0.26517985
0.2355728
0.22193654
0.22961268
0.22913144
0.23652058
0.24410065
0.25178725
0.25970749
0.26799383
0.27630672
0.28463218
0.29229473
0.29234068
0.29203123
0.2914025
0.29169783
0.29251836
0.31068392
0.30995841
0.31859913
0.31938526
0.32034249
0.32139958
0.32140996
0.32138639
0.33460395
0.35453783
0.36815518
0.37700506
0.37361141
0.37962759
0.37025689
0.37151963
0.38181963
0.32575639
0.32663617
0.32753209
0.32842881
0.32932871
0.32809004
0.32671794
0.32522008
0.33576571
0.33735403
0.33640965
0.32590631
0.32445167
0.33491163
0.34876982
0.34955443
0.35177223
0.36975268
0.36552953
0.36508085
0.36915662
0.35083599
0.352455
0.35357883
0.33870793
0.33980376
0.33866269
0.33766851
0.32723493
0.32637905
0.32509247
0.3236787
0.33402177
0.33543578
0.33442041
0.32427819
0.32290631
0.33310155
0.34702606
0.34795101
0.34984328
0.36855892
0.36475389
0.36431
0.36015614
0.36676427
0.3654016
0.36463984
0.36479126
0.36506718
0.36517985
0.36458931
0.34826512
0.34796891
0.35331099
0.32569064
0.31611283
0.31608004
0.2834954
0.27553789
0.27307583
0.24324518
0.24975108
0.24936964
0.27540714
0.2729677
0.24316754
0.23581253
0.22182542
0.23054534
0.23590922
0.26501901
0.26486919
0.23654919
0.24233048
0.24300183
0.2728718
0.27547903
0.24945101
0.24848363
0.27487856
0.2725454
0.2722002
0.26479106
0.23717897
0.23599259
0.26386182
0.27132703
0.27365356
0.27464179
0.24859449
0.24276295
0.24137725
0.24715741
0.24665571
0.27321232
0.27113141
0.26380658
0.23588851
0.23458104
0.26269618
0.27002781
0.27209498
0.2450182
0.23970853
0.24114791
0.23905613
0.26969209
0.30410508
0.34044986
0.33976228
0.33543536
0.29528497
0.29674639
0.26255242
0.23423138
0.23344237
0.26171016
0.26901954
0.27106323
0.27190153
0.24468814
0.24389587
0.23853374
0.23742143
0.26832439
0.30269014
0.3116186
0.31319315
0.31436649
0.31528179
0.32497609
0.35359912
0.35346047
0.34819922
0.3481612
0.35348905
0.3227156
0.32397797
0.29154906
0.29231004
0.29327155
0.29367346
0.29430112
0.29433756
0.29461865
0.28646925
0.26316454
0.25667412
0.25627954
0.28343619
0.28633435
0.26286851
0.27016999
0.27044953
0.27729284
0.2980174
0.29801315
0.27681144
0.26987804
0.26276425
0.28630426
0.28353408
0.25631968
0.25525786
0.2828854
0.28568975
0.26169967
0.26877973
0.2757493
0.29725337
0.29689158
0.27545305
0.26862344
0.26161223
0.28531207
0.28260024
0.25528264
0.25372095
0.28165345
0.28436023
0.26002028
0.26697339
0.27379908
0.29575369
0.29496732
0.27279955
0.26617824
0.25934103
0.28365704
0.28111785
0.25318765
0.25139641
0.28000639
0.28254508
0.25759179
0.2643546
0.29068147
0.29384177
0.27093967
0.27023474
0.2934367
0.29034286
0.28233673
0.27977459
0.25114337
0.25726266
0.2560571
0.28116649
0.278856
0.2501811
0.24878572
0.27786473
0.27030965
0.24279837
0.24090471
0.26910754
0.26740503
0.26038002
0.26130178
0.23267088
0.23112664
0.23588579
0.23460561
0.266282
0.30090306
0.33927064
0.33501821
0.29388539
0.29169768
0.33425329
0.33862232
0.29892586
0.30759475
0.30961013
0.34698348
0.34749375
0.35276903
0.32095228
0.3186841
0.35225864
0.35145194
0.34635048
0.34565585
0.33800068
0.3553528
0.33382072
0.28992253
0.29687146
0.29480005
0.337011
0.33293912
0.2882373
0.28662883
0.33238764
0.35519656
0.33640119
0.29322468
0.29306167
0.33648602
0.33245687
0.28667854
0.24834906
0.24820798
0.2489997
0.24976452
0.25110836
0.231826
0.23474215
0.23840974
0.24250964
0.24469939
0.24617116
0.24708904
0.24759679
0.23582896
0.18959753
0.23117285
0.23317923
0.3126578
0.32181618
0.32173402
0.31248398
0.3194073
0.3295521
0.33264942
0.33246865
0.3417337
0.34264104
0.33792879
0.33433915
0.33094216
0.33490278
0.32721969
0.31733112
0.32528533
0.32815945
0.3274127
0.34209785
0.34171887
0.33773004
0.33668845
0.32891051
0.33908394
0.29930392
0.29669109
0.30406052
0.34137503
0.34869377
0.34644081
0.34449384
0.34287667
0.34583584
0.33607192
0.32497554
0.3270989
0.32647568
0.31683819
0.31502104
0.32443054
0.33566457
0.33849816
0.33902729
0.35069563
0.35075735
0.34609201
0.34648758
0.33545478
0.32402113
0.31460448
0.31638372
0.32599398
0.32571215
0.31608985
0.31436904
0.32384085
0.33548994
0.33803767