/*--------------------------------*- C++ -*----------------------------------*\
| =========                 |                                                 |
| \\      /  F ield         | OpenFOAM: The Open Source CFD Toolbox           |
|  \\    /   O peration     | Version:  v2012                                 |
|   \\  /    A nd           | Website:  www.openfoam.com                      |
|    \\/     M anipulation  |                                                 |
\*---------------------------------------------------------------------------*/
FoamFile
{
    version     2.0;
    format      ascii;
    class       volScalarField;
    location    "100";
    object      omega;
}
// * * * * * * * * * * * * * * * * * * * * * * * * * * * * * * * * * * * * * //

dimensions      [0 0 -1 0 0 0 0];


internalField   nonuniform List<scalar> 
24441
(
8.8325053
8.8751646
8.9196084
8.9656334
9.0130876
9.0618393
9.1117729
9.1627652
9.2146898
9.2674021
9.3207321
9.3744878
36.677497
36.451958
35.31455
34.950692
34.621723
34.718785
35.019311
34.866646
34.09034
33.933968
33.287644
33.131073
32.404331
32.235531
31.573908
31.346357
31.165206
31.326721
31.594303
31.47901
30.964187
30.816921
30.260774
30.072943
29.918652
30.058231
30.27181
30.157228
29.721092
29.556577
29.415218
29.535107
29.715332
29.602718
29.23755
29.153906
29.142711
29.425075
29.720236
30.081611
30.414921
30.868351
31.317143
31.987586
32.568048
33.158475
33.833473
34.534282
35.279559
36.09538
36.983438
37.909467
38.874094
39.88076
40.920733
41.993408
43.088233
44.213801
45.37109
46.596885
48.088252
50.032693
51.315204
53.696968
52.194517
50.782506
49.520919
47.567226
46.174765
44.978897
43.852453
42.757565
41.689471
40.641544
39.62288
38.63253
37.680783
36.766383
35.90082
35.070172
34.312892
33.952789
33.617641
32.94812
32.349114
31.766008
31.20152
30.626076
30.161431
29.719896
29.337218
28.923481
28.566718
28.785137
28.890442
29.187174
29.378097
29.027466
28.655545
29.088864
29.28317
29.662015
29.878889
29.471234
29.042739
29.537942
29.75768
30.219839
30.437968
30.878936
31.10367
30.609139
30.075244
30.698142
30.957458
31.506552
31.76036
32.369229
32.605929
33.154817
33.398613
34.075099
34.380809
33.790636
33.096683
34.101773
34.524661
35.492795
35.864763
34.443019
33.951653
33.182272
32.704531
31.9381
31.438236
31.373836
31.605869
31.277055
30.858621
30.541255
30.100181
30.105746
30.363103
29.945323
29.659732
29.22111
28.928192
28.909872
29.091356
28.848854
28.546487
28.328912
28.294671
28.387823
28.146976
27.919789
27.930778
28.073157
27.84922
27.854828
27.95415
27.822984
27.858504
27.992747
27.91229
27.999467
28.153519
28.233526
28.409089
28.543118
28.77321
29.031035
29.275204
29.458071
29.780166
30.180959
30.548571
31.049905
31.638313
32.287251
32.969106
33.706227
34.483764
35.307848
36.168905
37.064584
37.987786
38.942685
39.917377
40.921339
41.947844
43.019187
44.195802
45.359532
47.004603
48.304276
49.647272
51.026586
52.485475
54.059689
56.973966
58.469421
60.041712
61.807692
65.987722
53.072422
51.634479
50.250946
48.863017
47.117304
45.886569
44.658841
43.539856
42.464865
41.416182
40.387284
39.387842
38.409951
37.46767
36.55856
35.694054
34.872523
34.091179
33.375713
33.065568
32.745679
32.142977
31.595787
31.050932
30.527682
30.069187
29.623227
29.22944
28.834156
28.490944
28.202139
28.228299
28.406142
28.511628
28.769732
28.426179
28.101777
28.274101
28.633443
28.82762
29.172085
28.759795
28.365688
28.621604
28.987373
29.234928
29.630801
29.874067
30.275344
29.737686
29.219926
29.542314
30.037569
30.317956
30.801156
31.066883
31.621914
31.897853
32.384397
32.681355
33.296759
32.595131
31.905901
32.406665
33.242366
33.697237
34.539034
34.999917
64.698164
65.078514
65.475682
65.908586
66.356706
66.809226
67.265472
67.719122
68.163265
68.600017
69.022399
69.434435
69.828841
70.207117
70.561528
70.900256
71.212322
71.500452
71.768549
72.013105
72.212221
72.37854
72.518
72.628358
72.686085
72.707339
72.697438
72.655935
72.558891
72.427644
72.27142
72.094972
71.87824
71.647321
71.413971
71.192677
70.965365
70.766109
70.610451
70.511082
70.460995
70.492352
70.619205
70.86248
71.219334
71.719415
72.372125
73.191017
74.177052
75.347018
76.699807
78.243331
79.973762
81.897346
84.002875
86.29654
88.77212
91.434545
94.265425
97.266782
100.40335
103.64336
106.89724
109.99611
112.91338
115.53872
117.8979
121.9011
127.09388
117.03045
114.70965
107.02277
91.334808
70.517113
49.466791
43.316985
35.536731
42.324393
53.111158
63.018754
85.965915
100.19715
111.30333
124.41323
125.01736
122.87371
119.12292
115.20447
111.29837
107.5355
103.90815
100.45666
97.195603
94.12607
91.260972
88.588494
86.120187
83.848357
81.780608
79.907205
78.231769
76.7471
75.457561
74.356519
73.442422
72.698323
72.115026
71.676215
71.374132
71.184754
71.101421
71.106112
71.188957
71.31811
71.480993
71.666418
71.872639
72.07811
72.285457
72.484854
72.676103
72.833847
72.95454
73.044646
73.109208
73.128567
73.101824
73.038806
72.94716
72.812581
72.635134
72.419396
72.174414
71.896441
71.594366
71.270269
70.930626
70.568279
70.183201
69.774192
69.34651
68.901761
68.442462
67.969115
67.484159
66.989557
66.485449
65.975734
65.459708
64.941626
64.429579
63.923658
63.4485
61.347637
61.95778
62.584845
63.18616
63.794115
64.374782
64.958869
65.515213
66.073538
66.601887
67.130971
67.626808
68.121822
68.581614
69.038152
69.455219
69.867507
70.235354
70.602732
70.927876
71.242939
71.508614
71.760107
71.955264
72.125377
72.234297
72.335263
72.381497
72.401126
72.358389
72.311163
72.214643
72.098676
71.931177
71.775155
71.592986
71.427837
71.2464
71.099307
70.956951
70.860165
70.792687
70.8155
70.908391
71.115616
71.419127
71.866312
72.440061
73.180858
74.073753
75.160723
76.41725
77.878472
79.512812
81.358383
83.377138
85.618114
88.031711
90.675937
93.487729
96.538024
99.753875
103.18786
106.74568
110.34546
113.85829
116.75865
118.58352
116.28644
109.14599
95.185951
87.983621
73.149017
58.720745
71.981751
78.412962
82.234892
100.19159
104.47384
106.18434
106.13743
104.58718
102.01873
99.358833
96.290727
93.624721
90.736967
88.33515
85.787071
83.701972
81.525798
79.752143
77.931894
76.465256
74.981586
73.82605
72.667143
71.815864
70.954478
70.376182
69.768963
69.430119
69.031169
68.884181
68.643044
68.640929
68.500323
68.577921
68.485278
68.617789
68.545743
68.69314
68.610692
68.746845
68.624313
68.710297
68.528955
68.57507
68.334852
68.31104
67.999183
67.922206
67.54649
67.396002
66.948391
66.741991
66.237042
65.973636
65.406944
65.087442
64.473999
64.108088
63.443447
63.029187
62.324692
61.870538
61.121434
60.624396
59.838364
59.304775
58.480319
57.908972
57.04516
56.435893
55.532184
54.885434
64.415416
64.845638
65.322456
65.692005
66.066128
66.453796
66.863351
67.290388
67.712147
68.12832
68.52925
68.928901
69.310778
69.669042
70.001323
70.313453
70.598131
70.856807
71.071546
71.270046
71.432824
71.56246
71.649758
71.702209
71.707646
71.678676
71.607092
71.50408
71.360254
71.19134
70.991494
70.776419
70.539496
70.292233
70.028498
69.780931
69.54421
69.362875
69.232658
69.168877
69.173853
69.267608
69.45398
69.762393
70.19686
70.784415
71.525037
72.430914
73.501648
74.749365
76.172614
77.78003
79.567072
81.535158
83.674474
85.993031
88.480372
91.14545
93.978058
96.97795
100.11495
103.37935
106.72955
110.09781
113.49834
117.0388
120.94489
125.18957
124.75477
116.65484
111.24312
101.58079
103.26952
102.35792
90.691201
75.301429
54.599749
38.928811
23.114191
15.223773
12.217198
11.612292
11.131681
10.719087
10.902475
11.359701
12.216171
13.478446
18.307202
29.166408
20.270967
14.758675
12.568541
15.012336
19.488157
30.218109
46.872215
56.71174
82.76301
86.76237
86.256503
88.91143
86.557291
87.803353
84.692096
85.085028
82.004187
81.878853
79.082747
78.667769
76.195816
75.670646
73.50266
72.975959
71.084814
70.643616
69.0036
68.708341
67.281828
67.160918
65.906994
65.969671
64.839794
65.08283
64.03855
64.443475
63.438101
63.969035
62.975925
63.612703
62.606454
63.317716
62.279203
63.035023
61.939811
62.704864
61.554631
62.325374
61.115242
61.859143
60.592791
61.312399
59.989726
60.660831
59.288953
59.916869
58.500156
59.077873
57.62012
58.139224
56.648721
57.115675
55.595833
56.002874
54.459235
54.811773
53.245284
53.536696
51.949073
52.185231
50.581631
50.759162
49.136023
49.256968
47.623262
47.685581
43.748773
45.057144
46.312762
47.477174
48.583052
49.592309
50.540247
51.397054
52.198495
52.906291
53.560921
54.131373
54.662566
55.133089
55.594494
56.037068
56.5199
57.043515
57.673221
58.416929
59.350849
60.469281
61.799266
63.293341
64.949599
66.680942
68.379781
69.848363
70.810567
70.879687
69.723337
67.069012
62.712086
39.195245
34.168705
26.965952
17.435372
19.734975
24.163829
25.08471
42.650253
44.94673
46.504605
47.644174
48.163101
48.535098
48.22635
48.053641
47.292212
46.838142
45.939556
45.426351
44.557521
44.094463
43.309321
42.91148
42.193412
41.831756
41.138296
40.77227
40.063857
39.65734
38.903377
38.43171
37.618374
37.073052
36.207885
35.586424
34.644603
33.940112
32.937954
32.163554
8.8254369
8.8685758
8.9134206
8.9597901
9.0075496
9.0565797
9.1067689
9.1580046
9.2101672
9.2631208
9.3167206
9.3707737
9.3694831
9.3154317
9.2618528
9.2089289
9.1568094
9.105629
9.0555082
9.0065598
8.9588878
8.9126156
8.8678844
8.8248746
8.8042361
8.8090159
8.8143384
8.8190445
8.8230375
8.8658398
8.8619194
8.8572804
8.8521322
8.8474865
8.8925015
8.897033
8.9019925
8.9065653
8.9104082
8.9565655
8.9527715
8.9482578
8.943454
8.9390312
8.9831413
8.9869176
8.9912252
8.9959174
9.0003884
9.0041427
9.0530379
9.0492836
9.0448465
9.0402475
9.0360311
9.0323383
9.0826283
9.0862413
9.0903936
9.0949295
9.0993518
9.1031109
9.1542497
9.1504786
9.1460555
9.1415561
9.1374441
9.1338972
9.1860607
9.1895516
9.1936337
9.198115
9.2025437
9.206332
9.2592275
9.2554265
9.2509929
9.2465254
9.2424745
9.2390362
9.2927468
9.2961202
9.3001258
9.3045622
9.3089857
9.3127873
9.3668408
9.3630633
9.3586857
9.3543187
9.3503957
9.3471166
22.352431
22.90901
23.38068
23.749026
24.030333
24.244482
24.377107
24.403826
24.28826
23.985683
23.438629
22.576604
21.381342
19.801929
17.766384
15.154777
12.68593
11.147497
10.476345
15.025929
15.19048
15.336523
15.438181
15.470543
15.413809
15.26129
15.015388
14.677085
14.248793
13.745831
13.145694
12.452941
11.693172
10.98992
10.020042
10.141442
10.306676
10.483477
10.654745
10.811362
10.955426
11.085776
11.196844
11.283401
11.339769
11.360938
11.346307
11.307859
11.260869
9.7220506
9.7411457
9.7554719
9.7641513
9.7670581
9.7652735
9.7603548
9.7539196
9.7475554
9.7427455
9.7379322
9.7335862
9.5190594
9.4814898
9.4444379
9.4080388
9.3731926
9.3398223
9.3077508
9.2767198
9.246436
9.2166203
9.187105
9.1578701
8.9552998
8.9928987
9.0320041
9.0725243
9.1144116
9.1576175
9.202084
9.2477323
9.2944479
9.3420447
9.3900978
9.4383258
9.4014573
9.3498374
9.2984422
9.2475156
9.1973192
9.1480266
9.0997755
9.0526896
9.0068877
8.9624889
8.9196176
8.8783976
8.846851
8.8891167
8.9331302
8.9787131
9.0257184
9.0740146
9.1234759
9.1739762
9.2253852
9.2775492
9.3302678
9.3833306
24.490647
24.440918
24.418448
24.310993
24.20736
23.976925
23.891309
23.810018
23.806476
23.826239
23.848558
23.828837
23.823841
23.803425
23.861133
23.858332
23.754032
23.663025
23.61532
23.670378
23.901957
24.107726
24.566822
24.986437
25.875852
26.549311
27.84263
28.948943
31.073918
32.385776
34.650019
37.638139
38.337302
38.712566
38.026703
34.679375
32.394417
30.973123
28.911583
27.755335
26.53668
25.828594
24.99871
24.561585
24.142043
23.933164
23.721669
23.668786
23.737578
23.884799
23.856412
23.873683
23.841183
23.864557
23.872473
23.893726
23.867082
23.850311
23.854907
23.933273
24.021057
24.234037
24.344493
24.444165
24.467402
24.522401
36.444597
36.143927
37.064009
36.760546
38.412321
38.446006
39.824582
40.402283
40.788346
40.11255
40.100136
39.805221
39.750696
39.530023
39.241215
26.096131
26.361288
26.495897
26.608753
26.72975
26.869563
27.027358
27.209144
27.413268
27.64406
27.900782
28.188256
28.507577
28.874957
29.299271
29.818162
29.446238
28.989888
28.607535
28.270372
27.972673
27.702844
27.462567
27.246192
27.054698
26.8832
26.733697
26.600878
26.484484
26.372563
26.231133
25.946994
25.330603
25.891205
26.178892
26.31441
26.415042
26.518817
26.637115
26.771187
26.926603
27.10046
27.29926
27.521659
27.771395
28.049541
28.367422
28.73069
29.169544
28.791816
28.408584
28.092645
27.811795
27.562855
27.336417
27.134883
26.953813
26.794564
26.651653
26.528153
26.418442
26.322197
26.226841
26.094939
25.806227
25.189795
25.777211
26.063219
26.187095
26.271846
26.354875
26.450851
26.559522
26.685884
26.82846
26.991687
27.1742
27.381443
27.611109
27.871901
28.169123
28.527726
28.266585
28.668441
28.424745
28.06402
27.760141
27.937746
27.665636
27.424565
27.211479
27.019362
26.850859
26.699091
26.567088
26.449823
26.348333
26.258945
26.182336
26.102991
25.983514
25.698457
25.080493
25.679817
25.962147
26.075024
26.146115
26.213838
26.292305
26.382303
26.486788
26.605688
26.744238
26.898882
27.076723
27.276654
27.504619
27.334848
27.562937
27.83072
28.156018
27.963781
27.664913
27.417738
27.206968
27.018524
27.130627
26.94973
26.785921
26.643197
26.515638
26.406225
26.309674
26.226728
26.153818
26.090229
26.022718
25.911459
25.626656
25.014231
25.640051
25.925123
26.031562
26.091059
26.144588
26.207588
26.278424
26.362902
26.460407
26.573059
26.702034
26.852143
26.74777
26.894336
27.060247
27.245203
27.464317
27.730496
28.078076
27.836699
27.546383
27.31248
27.114081
26.944251
26.791666
26.658146
26.538013
26.61114
26.493631
26.38901
26.299891
26.221267
26.155158
26.095675
26.045689
25.990322
25.886227
25.599488
24.9802
25.631605
25.917826
26.015642
26.063015
26.101398
26.148474
26.202099
26.264326
26.34167
26.434021
26.396927
26.487873
26.593935
26.711357
26.847273
26.998891
27.174279
27.37857
27.636098
27.491182
27.785488
27.574215
27.342539
27.147178
27.256729
27.073214
26.91318
26.775065
26.650886
26.543294
26.446018
26.363086
26.289052
26.309436
26.236448
26.171796
26.120216
26.07712
26.044153
26.003833
25.908453
25.625317
24.996639
25.809747
26.017614
26.086492
26.095716
26.108417
26.132807
26.172318
26.225752
26.252927
26.305131
26.367558
26.438503
26.523153
26.617656
26.725832
26.847001
26.989001
26.951004
27.088765
27.253378
27.456595
27.727487
27.592048
27.373481
27.198823
27.051383
26.925603
26.808363
26.820357
26.708516
26.606433
26.51794
26.436484
26.367487
26.305428
26.254269
26.210052
26.195278
26.15211
26.120271
26.111843
26.129552
26.318815
26.339218
26.404145
26.453258
26.493019
26.610877
26.642503
26.565009
26.5552
26.504928
26.424596
26.528373
26.51414
26.366887
26.285375
26.215729
26.456724
26.560959
26.587818
26.591677
26.514088
26.573125
26.615023
26.626539
26.688356
26.654664
26.545932
26.505123
26.459866
26.419708
26.445547
26.330709
26.322746
26.290432
26.537667
26.519421
26.25073
25.165075
24.86484
24.27627
24.283039
24.257406
24.252439
24.214459
24.202233
24.075385
24.03332
23.72657
23.691816
23.603028
23.599635
23.646375
23.6504
23.647499
23.645474
23.631972
23.625648
23.587195
23.579297
23.587619
23.62334
23.971006
24.080124
24.785753
24.995944
26.242654
26.569252
28.299288
28.827937
31.42375
32.12258
32.835981
33.322433
33.239359
33.68009
33.591959
34.025114
33.95927
34.427622
34.396126
34.901635
34.91148
35.490493
35.544338
36.234119
36.356106
37.058567
36.884422
37.503147
38.032403
38.513047
39.164733
40.136774
40.008445
39.588007
39.261
39.064974
38.743235
38.076826
37.684793
37.302119
37.073626
36.785516
36.605811
36.373674
36.245239
36.052597
35.95676
35.795428
35.705285
35.493669
35.249879
34.543225
34.452603
32.265394
31.269166
28.929125
28.083343
26.57965
26.064549
24.991106
24.663649
24.079507
23.914383
23.622287
23.570532
23.58459
23.606928
23.65143
23.662857
23.681927
23.690312
23.696413
23.685279
23.644105
23.649969
23.733754
23.792625
24.069681
24.140601
24.25698
24.276158
24.312461
24.321193
24.350671
24.338234
24.565504
24.455153
24.355681
24.279564
24.394254
24.489867
24.515266
24.497397
24.396843
24.290559
24.180161
24.071686
23.98899
24.082034
24.161934
24.257568
24.350637
24.447441
24.540764
24.651984
24.551305
24.460267
24.557828
24.58759
24.276555
24.290357
24.261284
24.309161
24.295734
24.247067
24.212067
24.255189
24.232206
24.187753
24.081229
24.127069
24.029308
23.991542
23.745318
23.798029
23.714285
23.671519
23.594691
23.63883
23.631909
23.585385
23.620509
23.657058
23.675464
23.634004
23.626588
23.661313
23.650136
23.612305
23.590325
23.624693
23.628939
23.589859
23.572261
23.517483
23.487907
23.545959
23.80579
24.002504
24.505174
24.902031
25.870773
26.497017
27.856409
28.875556
31.060349
32.257455
34.484908
37.274579
37.207921
37.204127
37.359862
37.472019
37.530999
37.569798
37.613711
37.666883
37.744317
37.832843
37.954686
38.093561
38.253828
38.4224
38.633778
38.898549
39.377775
39.254703
39.61107
39.456816
39.084726
38.817274
38.603158
38.426476
38.267456
38.126815
38.006355
37.915506
37.849114
37.802415
37.761652
37.731124
37.724626
37.70344
37.626534
37.669642
37.712361
37.947237
38.211644
38.119546
38.411344
38.734961
37.947395
34.653891
32.357534
30.845189
28.855497
27.668824
26.508877
25.781005
24.99674
24.549391
24.158683
23.946258
23.753308
23.700509
23.763335
23.812414
23.8857
23.916411
23.890691
23.917024
23.927112
23.946159
23.925223
23.91087
23.918254
23.999351
24.095845
24.189867
24.286184
24.378351
24.467494
24.540991
24.557573
24.343054
23.740704
24.368918
24.591437
24.575093
24.496933
24.403229
24.305645
24.191657
24.089428
23.988915
24.003057
24.097712
24.189153
24.284974
24.376471
24.465876
24.536468
24.54548
24.320423
23.731335
24.382073
24.613942
24.599359
24.517322
24.425395
24.328724
24.216484
24.115696
24.017203
23.99654
24.087539
24.180084
24.276534
24.369232
24.458071
24.532637
24.546677
24.32599
23.712578
24.348936
24.575047
24.556126
24.478881
24.388436
24.291237
24.182532
24.085192
23.987583
23.960898
24.050391
24.139394
24.231923
24.322894
24.40938
24.474663
24.483899
24.265045
23.655884
24.268904
24.495695
24.488587
24.419495
24.331711
24.243751
24.144281
24.056803
23.976223
23.940734
24.007065
24.075417
24.151637
24.224315
24.300348
24.362214
24.367383
24.156309
23.563217
24.134911
24.343675
24.333074
24.265953
24.185291
24.10571
24.014575
23.940525
23.869648
23.830104
23.759616
23.813833
23.880278
23.952704
23.900602
23.967752
24.040865
24.111447
24.183808
24.242575
24.249723
24.0551
23.546239
24.138272
24.330199
24.31716
24.253381
24.170958
24.096044
24.020299
24.183626
24.113862
24.047587
23.989698
24.203626
24.256264
24.316072
24.374778
24.438582
24.240412
24.299256
24.362451
24.415891
24.420528
24.238895
23.822615
24.454686
24.63539
24.619073
24.561861
24.497706
24.827376
24.76931
24.711676
24.655971
24.606589
24.570543
25.020465
25.051872
25.091774
25.132643
25.180116
25.226393
25.273586
24.870824
24.906901
24.899295
24.716782
24.402273
25.119349
25.301574
25.308622
25.93542
25.9101
25.87674
25.845242
25.815205
25.788871
25.76898
25.765491
26.505759
26.509439
26.5234
26.538967
26.558437
26.576931
26.598576
26.611216
26.584778
25.905056
25.719219
25.542912
26.396268
27.307107
27.514066
27.556665
27.55703
27.553943
27.556247
27.561063
27.567539
27.583363
27.61615
28.823458
28.794082
28.770152
28.745465
28.723461
28.700973
28.68301
28.656122
28.5899
28.355274
27.228187
26.998324
25.362455
24.245481
23.673333
23.401142
23.411801
23.503434
23.558369
23.579958
23.59365
24.950996
25.229577
26.310965
26.586437
26.543508
26.269796
25.864822
25.848661
25.826813
24.48488
24.532198
24.454561
24.463491
24.475585
24.529529
24.56089
24.626558
24.681768
24.771359
24.834727
24.938699
25.028164
25.191766
25.371238
26.29168
26.510138
26.613916
26.724714
26.854435
27.005676
27.176431
27.37307
27.592422
27.838562
28.111044
28.414625
28.752386
29.137003
29.578616
29.964312
30.272438
30.665712
30.998655
30.442254
30.868369
31.329319
32.009257
32.495735
33.194076
33.702986
32.4263
33.025524
32.523639
31.946715
31.41918
31.889239
30.412712
30.864388
31.352527
31.884307
31.402499
30.889464
30.427403
30.004399
29.615503
30.004047
29.258151
28.860563
29.180324
29.529782
29.915702
30.336196
30.793961
30.367153
29.935181
29.544654
29.185808
28.856088
28.556225
28.281346
28.569848
28.000738
28.253057
28.533046
28.843908
29.184594
29.560926
29.974478
29.676605
30.137371
29.773882
29.347512
28.973072
29.279665
28.916972
28.587614
28.28852
28.016867
27.771773
27.016394
27.165874
27.34252
27.541701
27.772016
28.029691
28.312483
28.628032
28.368729
28.701452
29.065163
29.48033
29.171216
29.45148
29.834164
30.131965
30.630131
31.059962
31.751451
32.214191
32.919083
33.402467
9.7850103
11.523357
9.7485582
14.14438
14.336407
9.4325547
9.4739914
9.4192246
9.4066923
12.587877
11.291875
11.358699
11.431384
11.485842
11.583988
11.633181
11.529893
11.560624
11.669768
14.650808
14.507868
14.265875
14.119415
13.949845
13.7796
13.937747
11.409586
10.277299
10.244971
10.203723
9.7251545
9.7613603
10.23493
11.339155
13.756373
13.612365
17.498967
17.973935
18.475042
19.059005
22.045706
19.735966
19.535833
21.783672
22.262363
22.543388
22.92595
23.303546
20.521346
26.130535
22.710158
22.410083
25.579694
26.400923
26.735098
26.96958
25.713961
24.279892
9.3654756
9.3540983
9.3952241
9.3851973
9.3441633
9.2954717
9.2897677
9.3299814
9.3359554
9.3767938
9.3705301
9.4112794
9.417846
9.4264422
9.4365825
9.4481298
9.460676
9.5022424
9.5155298
9.5570536
9.5984339
9.6395299
9.5851869
9.543791
9.5312039
9.4896782
9.4780515
9.4677817
9.4589681
9.4520764
9.4927711
9.500016
9.5090757
9.519494
9.5725712
9.6136272
9.6262941
9.5408344
9.5501746
9.5607666
9.6017082
9.5909104
9.5812476
9.5731608
9.9171544
9.8865513
9.8542253
9.8203432
10.305686
10.329137
10.28318
9.8299359
9.7963566
10.261715
11.373738
11.449331
11.47581
14.175524
14.38886
14.476864
14.764366
11.692109
11.697263
14.835157
14.522488
11.575507
10.359039
10.347134
10.299559
9.8620624
9.8925365
10.310103
11.390956
11.484215
11.488154
11.576722
14.247543
14.274956
14.023125
14.016895
11.400811
11.39481
13.966044
13.877027
14.072233
18.987091
19.589266
20.306297
21.016048
21.749634
23.787337
24.622266
29.427718
28.575368
24.275978
23.503605
27.658962
26.890605
22.939286
23.705546
27.76649
27.09949
23.374843
22.664007
26.293932
27.1308
27.498986
27.76316
28.242288
28.544584
29.492681
29.958303
29.19485
28.839493
29.557031
29.123006
28.733669
27.905471
27.478228
28.335459
27.990211
27.703546
28.032233
27.205263
26.870948
27.72458
27.417184
27.183834
26.199439
26.636115
27.482799
27.221625
26.321648
25.020255
21.941687
19.678889
21.303503
21.1105
23.845755
23.449889
20.82433
20.285659
19.891973
20.43153
23.047259
22.744317
20.203546
19.702284
19.376797
19.247617
21.528274
21.318596
19.059396
18.794521
21.106324
20.937238
18.624906
16.647924
13.268604
11.154265
10.123726
9.6641408
9.6393942
10.073214
10.105278
10.157338
9.7010999
9.7370812
10.187176
10.133655
9.711852
9.6760913
9.6520364
9.6155386
10.024467
9.9803647
9.593532
9.5566059
9.948037
10.808152
11.046823
13.063895
13.196801
13.421833
11.205597
11.246795
13.552921
13.307915
11.124285
11.091066
10.980506
10.055193
10.08253
9.6877762
9.6655421
9.629916
10.010127
10.036616
10.908374
11.009465
13.080657
12.988863
12.874115
10.942767
10.850196
12.704949
12.807284
10.884422
10.795566
9.9689526
9.6096933
9.5735682
9.5369019
15.427113
16.309728
17.712218
17.927284
18.05813
18.395618
20.750922
20.375241
20.227592
20.595904
18.241424
18.025719
20.431493
20.0636
17.601482
17.895491
20.289123
19.929917
22.373805
25.036686
25.311185
26.426073
26.723355
26.777599
26.738035
26.63005
26.343818
25.281243
26.430143
26.462311
26.000971
25.987179
25.918408
25.899266
24.443229
24.439742
24.457979
22.581406
22.611179
22.710244
22.736377
22.814826
22.853609
22.964376
23.015594
23.131439
23.192467
23.334217
23.406053
23.556491
23.651015
23.859419
23.969261
24.155474
24.496168
24.638878
25.925744
26.80263
26.891914
26.748433
26.861419
27.001234
27.165545
27.351788
27.568189
27.80822
28.075242
27.613116
27.841538
28.132457
28.39294
28.746525
29.082981
28.349296
28.039816
28.409696
28.708889
29.258435
29.597762
30.184766
30.541765
31.921444
30.597588
24.863099
22.55273
25.770212
38.221489
37.208374
35.887268
36.872033
9.7764804
9.7973959
9.819372
9.8429688
9.8681577
9.8376228
9.8055052
9.7719557
10.212714
10.233407
10.177482
9.7801086
9.7465919
10.157917
11.146936
11.276373
11.29333
13.73331
13.659277
13.393957
13.448588
11.157137
11.152869
11.295226
10.248899
10.2586
10.201673
10.192286
9.8122964
9.7884739
9.7561431
9.7225301
10.10612
10.125422
10.078252
9.7339189
9.7002769
10.059512
10.921989
11.027536
11.032776
13.181168
13.147821
12.937738
12.886765
16.442498
16.722243
17.08069
17.496662
17.961461
18.482648
19.032483
20.604451
21.040772
21.636833
24.558572
23.972045
24.397295
25.293299
25.137284
24.770502
26.063421
26.255761
26.096851
24.979755
24.63416
25.914915
25.780766
26.661887
25.549799
25.603439
24.30163
24.17621
25.443301
25.62234
25.755195
24.41862
24.772604
25.935758
25.804044
24.633129
24.296743
24.089328
23.99157
25.296592
25.209482
23.886794
23.989677
24.321721
24.435716
25.662375
25.480392
25.391314
25.565921
25.456635
24.170448
23.832884
23.748261
25.106992
25.040938
23.663168
23.750846
24.074714
25.38006
25.214588
25.285088
25.122811
23.600187
22.446811
19.878199
19.66416
19.201153
21.767308
21.990822
23.531342
24.951732
24.891138
23.457918
23.529836
23.847443
23.931436
25.279025
25.207306
25.054108
24.989256
23.406102
22.204003
22.612333
22.87881
23.206239
23.532685
24.084167
21.193944
20.92794
20.386396
20.029538
20.573241
23.367029
23.723835
24.737567
24.93009
25.056693
25.305043
25.457997
25.716391
25.887216
25.696214
26.696888
26.457306
26.288635
25.142884
25.521029
26.516315
26.748741
26.94033
27.020198
26.131954
25.877645
26.809145
26.552923
26.335113
25.291091
24.910288
26.117442
25.978416
24.775016
25.134966
26.184173
26.389465
26.630756
25.694777
25.45209
26.450378
26.220347
26.026641
24.916485
24.550401
25.828541
25.723705
24.43921
24.787549
25.910368
26.092181
26.308024
25.30071
25.110587
26.160192
25.955498
25.784773
24.618671
24.267429
25.605921
25.520315
24.173108
24.508188
25.687865
25.847373
24.630296
24.982247
26.038973
25.905706
24.805776
24.449173
24.350081
24.008969
25.410023
25.571115
25.49002
24.254103
23.927445
25.334464
25.2601
23.792302
23.729921
25.137156
25.097999
23.660142
23.347189
23.287755
23.349583
24.827058
24.793866
24.951365
24.893204
23.22688
21.956937
19.368903
18.905987
21.541807
21.36303
18.746835
19.185581
21.76037
22.121146
22.339266
19.49305
19.823652
20.326789
23.069751
22.771335
19.998071
19.78348
19.317267
19.023626
18.924711
17.081753
18.488672
21.169716
21.555534
21.388309
18.75073
18.341831
21.011104
20.842337
18.102823
16.705756
18.513203
21.212586
21.05664
18.366566
17.979581
20.694614
22.272958
22.358137
22.389364
22.472977
22.498745
23.063831
23.134328
23.201542
23.225517
23.340916
23.481077
23.659254
23.870177
22.618141
24.990822
22.459479
22.536909
9.4703057
9.8200877
9.8025553
9.4612768
9.7705698
10.506361
10.545788
10.580298
12.180736
12.130407
12.027364
14.455865
14.195982
11.908035
10.454972
9.7340816
11.436492
12.534569
13.040342
18.118433
16.646283
14.14751
17.253767
20.856766
14.783715
17.809517
17.417582
17.780967
14.742446
15.041693
15.086335
15.150552
15.230584
12.45571
10.730094
9.9094288
9.9406197
9.9078371
9.5566994
9.52027
9.8776467
10.667801
10.70147
10.767246
12.561201
12.454914
12.359692
12.281767
10.617571
9.8516201
9.5067106
9.5427944
9.8808065
9.8607343
9.5327325
9.4971674
9.8328261
10.579755
10.606416
10.647504
12.36893
12.303048
12.224335
12.188324
10.557779
9.8235147
9.4930905
9.3270055
9.2997146
9.2897089
9.2872191
9.4581209
9.7654608
9.7954647
9.8126629
9.4659715
9.7291266
9.7019335
10.412977
11.805403
11.889964
10.463589
10.501247
9.758199
9.7862264
10.535354
10.494456
10.529265
12.104785
12.009682
12.083719
11.988756
12.304471
10.68402
9.8430141
9.8201875
10.053939
10.069137
10.080558
9.8643398
9.4942072
9.8834305
10.087119
9.5653664
9.3226579
9.357147
9.3371433
9.3286458
9.3670327
9.441158
71.040617
69.20329
67.489142
67.473303
67.83792
68.142945
68.267384
68.523017
68.825153
69.09553
69.298588
69.408621
69.429596
69.350668
69.239074
68.996185
68.731573
68.452186
68.060477
67.620108
67.150168
66.622257
66.08078
65.516721
64.933535
64.321293
63.708519
63.100257
62.500255
61.907936
61.346283
60.807987
60.324543
59.906187
59.571432
59.307684
59.147268
59.091263
59.161615
59.356302
59.694809
60.175854
60.815432
61.606452
62.563542
63.678708
64.963118
66.406677
68.021563
69.798062
71.748654
73.858514
76.145483
78.599436
81.241299
84.063819
87.090036
90.318863
93.779772
97.48859
101.50727
105.91777
110.50699
112.59619
111.07538
107.94664
112.56655
108.7433
112.22894
107.19205
109.88988
102.25846
109.42412
106.73145
106.73263
102.86632
97.295442
98.350916
98.324502
98.14272
91.382824
86.521374
79.248142
59.96636
46.98085
27.533503
16.80244
12.73794
11.563893
25.998743
23.335656
26.899215
33.994128
33.391504
32.094667
31.023164
25.375149
24.543586
29.656225
28.778709
23.934817
21.740553
24.775425
30.05832
29.147882
24.400227
23.627828
28.020879
29.002685
29.508921
29.835946
30.503776
30.85739
31.558846
30.996248
31.407126
32.011731
31.422708
30.976735
31.556342
30.961112
30.375146
29.985162
30.520426
30.010764
30.433916
29.498457
29.965684
29.403505
29.054306
29.584091
29.141785
28.76269
27.98064
27.662928
27.396482
26.908079
27.788518
28.039329
28.369607
28.689025
27.512064
26.560069
25.696695
22.15727
22.866551
26.465548
25.892733
22.510561
21.864542
25.187116
24.667886
21.379792
22.025252
25.331091
24.877803
21.710197
21.121933
24.266143
25.260617
25.480189
25.630319
25.907932
26.088924
26.379117
26.852581
27.063519
27.361998
27.730255
28.315389
28.608425
29.183848
28.900841
28.494585
28.185862
28.579579
27.949915
27.704452
27.155232
27.944362
28.323053
28.024064
27.363045
26.819293
26.559817
27.368218
27.068347
27.298638
26.877049
27.162559
26.344563
26.612119
27.12359
27.789965
27.455751
27.6747
27.216209
26.28778
26.068169
26.948148
26.679495
26.524196
26.778632
25.889567
26.115956
26.58191
26.78534
27.535276
27.33522