/*--------------------------------*- C++ -*----------------------------------*\
| =========                 |                                                 |
| \\      /  F ield         | OpenFOAM: The Open Source CFD Toolbox           |
|  \\    /   O peration     | Version:  v2012                                 |
|   \\  /    A nd           | Website:  www.openfoam.com                      |
|    \\/     M anipulation  |                                                 |
\*---------------------------------------------------------------------------*/
FoamFile
{
    version     2.0;
    format      ascii;
    class       surfaceScalarField;
    location    "100";
    object      phi;
}
// * * * * * * * * * * * * * * * * * * * * * * * * * * * * * * * * * * * * * //

dimensions      [0 3 -1 0 0 0 0];
oriented        oriented;


internalField   nonuniform List<scalar> 
71712
(
-0.0070306347
-2.0304953e-05
4.2634216e-05
-4.1709611e-06
-0.0070478887
-1.8912996e-05
3.9710091e-05
-3.5430159e-06
-0.0070639031
-1.7115468e-05
3.5935469e-05
-2.8056514e-06
-0.0070783691
-1.4936123e-05
3.1367977e-05
-1.9658376e-06
-0.0070909901
-1.2389585e-05
2.6045088e-05
-1.0345191e-06
-0.007101465
-9.4836707e-06
1.9978991e-05
-2.0380389e-08
-0.0071094764
-6.2184838e-06
1.3162801e-05
1.067014e-06
-0.0071146993
-2.6094901e-06
5.604259e-06
2.2281982e-06
-0.0071167985
1.2917905e-06
-2.6508581e-06
3.4581911e-06
-0.0071154263
5.2966377e-06
-1.1361924e-05
4.6931627e-06
-0.0071103894
9.9296721e-06
-2.0961069e-05
5.9944958e-06
1.4707705e-05
-3.0951891e-05
7.3398237e-06
-1.6608631e-05
0.00044994718
-0.00097806682
0.00052608821
-2.8854743e-05
0.0004456047
-0.00095335399
0.0005199954
-7.7456269e-05
0.00045053673
-0.00091721293
0.00051527773
-0.00037005135
0.00050926649
-0.00078018078
0.00056350937
-0.00038196317
0.00019804074
-0.00030076644
0.00011463751
-0.0004167834
6.3295189e-05
-7.7741943e-05
4.9266987e-05
-7.4602233e-05
0.00026384067
-0.0010295467
0.00042352491
-4.1722155e-05
0.00039327056
-0.00092374701
0.00049759637
-1.8893702e-05
0.00043089836
-0.00097177934
0.00051805252
-2.1185055e-05
0.00044449417
-0.00096764031
0.0005254375
-1.3611012e-05
0.00044990141
-0.00098649643
0.00052902097
-2.1513609e-05
0.00045179961
-0.0009751535
0.00053125649
-1.9374127e-05
0.00045106635
-0.00098356382
0.00053035799
-3.6110668e-05
0.00044734203
-0.00095601647
0.00052541098
-8.3746767e-05
0.00045207182
-0.00092434995
0.00051991423
-0.00037684928
0.00050873265
-0.00078183834
0.00056620821
-0.00038615594
0.00019318277
-0.00029385696
0.00010998085
-0.0004250901
6.0259571e-05
-6.6827128e-05
4.550172e-05
-8.0925804e-05
0.000264255
-0.0010336996
0.00042528034
-5.2215758e-05
0.00039144488
-0.00091768431
0.00049752938
-2.8662957e-05
0.00042645271
-0.00096557556
0.00051557005
-4.4105645e-05
0.00043731503
-0.00094033389
0.00051846154
-8.915555e-05
0.00044840903
-0.0009217514
0.00051839228
-0.00038327929
0.00050499021
-0.00077629597
0.00056542949
-0.00038819986
0.00018327771
-0.00028028203
0.00010192488
-0.00043264762
5.4225895e-05
-4.8597277e-05
3.8819139e-05
-9.0973646e-05
0.00026129094
-0.0010259177
0.00042295277
-7.5646473e-05
0.00038544278
-0.00089257261
0.00049180265
-9.9921993e-05
0.00042689301
0.00050816444
-0.00091078193
-0.00038878833
0.00049303554
0.00055927732
-0.00076344652
-0.00039169333
0.00017045674
-0.00025719137
8.9639624e-05
-0.00044639587
4.4502746e-05
-1.6237853e-05
2.6437654e-05
-0.00011232891
0.000257641
-0.001011611
0.00041990299
-0.00012182122
0.00037869807
-0.00085855921
0.00048935345
-0.00013745319
0.00042173474
-0.00091445153
0.00050834876
-0.00044791043
0.0004908557
-0.00075049093
0.00057009247
-0.00048062401
0.00014945395
-0.00019125341
7.4513036e-05
-0.00073188617
1.8736111e-05
0.00022107156
1.1454489e-05
-0.00051735954
1.7905047e-06
-0.0002042072
-1.2109931e-05
-0.00073885763
-2.1310015e-05
0.00025606539
-1.3257284e-05
-0.00048470317
-3.54876e-05
-0.00018449748
-3.4169386e-05
-0.0004394869
-0.0001614864
0.00021060369
-9.433355e-05
-0.00044895606
0.00073547823
-0.00017115663
-0.00055485244
-0.00050090495
1.7931994e-05
-2.771669e-05
6.1733582e-05
-0.00056285923
-1.6957577e-06
2.4885601e-05
3.876444e-05
-0.00061890959
3.6240231e-05
1.7264805e-05
2.5453234e-06
-0.00049773854
-0.00012028089
-3.000554e-05
2.9115388e-05
-0.00021172992
0.00020501903
-0.00027598772
-0.00021503994
-0.00034283382
-1.8618984e-05
5.3315931e-05
9.6406955e-05
-0.00039926843
-2.2828495e-05
2.1757611e-05
5.7505497e-05
-0.0004445732
-2.0716956e-05
2.4646016e-05
4.137571e-05
-0.00047456032
-1.9800726e-05
2.0483424e-05
2.9304423e-05
-0.00049742157
-1.9175558e-05
1.8916647e-05
2.3120156e-05
-0.00051707931
-1.8936463e-05
1.8584446e-05
2.0009756e-05
-0.00053647489
-1.9247473e-05
1.8961942e-05
1.9681117e-05
-0.00055735821
-1.9529997e-05
1.9409793e-05
2.1003527e-05
-0.00057987797
-1.9899167e-05
1.9617962e-05
2.2800957e-05
-0.00060283368
-1.9783093e-05
1.8659624e-05
2.4079187e-05
-0.00062502324
-1.412743e-05
1.3786073e-05
2.2530913e-05
-0.00060398948
6.7646535e-06
-1.219623e-05
-1.5602181e-05
-0.00019581351
2.8573004e-05
-0.00024366376
-0.00019308522
-0.00037396086
-1.6539938e-05
6.69452e-05
0.00012774209
-2.2672963e-05
2.8917461e-05
8.5123946e-05
0.00055635396
-2.0437931e-05
5.2636436e-05
0.00049649494
-1.7413761e-05
5.6523329e-05
0.00041256786
-1.2274177e-05
7.3528286e-05
0.00030741786
1.7551858e-06
8.685488e-05
0.00060588839
2.9771713e-05
-0.00029966924
0.00063091822
-2.5181882e-05
6.9166984e-06
0.00061424411
-2.5739256e-05
2.8285939e-05
0.00059116856
-2.0882123e-05
2.4174585e-05
0.00056827441
-2.0358725e-05
2.3353701e-05
0.00054731668
-1.9867235e-05
2.1294969e-05
0.00052778596
-1.965089e-05
1.9934136e-05
0.00050933269
-1.9090563e-05
1.8607373e-05
0.00048983959
-1.8988117e-05
1.9305661e-05
0.00046842313
-1.9444455e-05
2.1060186e-05
0.0004381216
-1.9276974e-05
2.8861549e-05
0.00039477371
-1.9057043e-05
3.9576435e-05
0.00034091283
-2.0410009e-05
5.5651909e-05
9.3415198e-05
0.00021007423
-1.4639758e-05
5.2063162e-05
0.00021729779
-3.9144454e-05
0.00049364265
0.00021007596
-0.00027634659
0.00061363442
-0.00010709273
2.3341194e-05
0.00055910792
4.8294676e-05
4.5360712e-06
0.00056609906
-3.8930962e-05
4.9871818e-05
0.00042602281
-4.9990812e-05
2.8580661e-05
0.00042200996
-3.8119493e-05
6.6447425e-06
0.00041813256
-2.0358493e-05
2.9258759e-06
0.00042038541
-2.6679774e-07
-1.9554164e-07
0.00042162374
2.3356865e-05
-5.8590871e-06
0.00057121429
2.7105196e-05
-2.7241797e-05
4.8190115e-05
-1.5001683e-05
0.00058368551
-4.5659653e-05
6.3510762e-05
0.00054935007
-7.3815017e-05
4.4435603e-05
0.00051028429
-6.9474392e-05
1.5294822e-05
0.00046608511
-5.8246259e-05
0.0003458879
-2.8449336e-05
0.00054391499
1.83632e-05
-4.5933552e-05
1.9983381e-05
-4.2473487e-06
0.00058345725
-5.5278291e-05
3.9930673e-05
0.00055290793
-7.981968e-05
2.4454968e-05
0.00051515194
-7.278323e-05
1.1124e-06
0.00047024863
-6.1463282e-05
0.0003472809
-3.0651663e-05
0.00054819321
3.2037824e-05
-4.9672419e-05
1.5962093e-05
3.8028356e-06
0.00058685929
-5.8431011e-05
3.616962e-05
0.00056743771
-8.2655026e-05
2.5607876e-05
0.00053869625
-7.972548e-05
1.7674254e-05
0.00052330532
-7.8056664e-05
9.9280224e-06
0.00050837514
-7.4176197e-05
-7.4754975e-06
0.00047183905
-6.2990655e-05
0.00034883417
-3.1795102e-05
0.0005519715
4.1852564e-05
-5.1807114e-05
4.4982534e-06
2.5400215e-05
0.00059037315
-6.8300117e-05
3.844385e-05
0.00056290921
-8.812216e-05
3.1144883e-05
0.00053829295
-7.8922162e-05
1.9082779e-05
0.00053593293
-7.6528792e-05
9.6065634e-06
0.00053897396
-7.8431398e-05
7.9927489e-06
0.00053494722
-8.1533795e-05
8.9138329e-06
0.00053081798
-8.1837651e-05
8.0875572e-06
0.00052517589
-7.9855452e-05
3.3032966e-06
0.00051121125
-7.5528625e-05
-1.2116156e-05
0.00047283757
-6.4147558e-05
0.00034762972
-3.2610021e-05
0.00055161166
4.7816126e-05
-5.3757325e-05
-2.4479434e-06
3.2384987e-05
0.00059191995
-7.0245331e-05
3.186758e-05
0.00056520998
-9.0259011e-05
2.3953978e-05
0.00054084988
-8.2399544e-05
1.8287423e-05
0.0005322405
-8.0969241e-05
0.00053075298
-7.9493592e-05
-1.4679101e-05
-0.00055771837
0.00027243377
0.00026955381
-1.4109136e-05
-0.00057008979
0.00029231459
0.00027720524
-1.4662912e-05
-0.00057998319
0.00029916041
0.00028137656
-1.5554239e-05
-0.00058842934
0.00030336982
0.00028595085
-3.2221485e-05
-0.0005865407
0.00030994018
0.00029326777
-0.00017873927
-0.00053417742
0.00034821754
0.00033247767
-0.00018254416
-0.00017146994
0.00011873172
5.654311e-05
-2.713379e-05
0.0001832022
-0.00057212152
0.00023350895
-1.1321857e-05
0.00027749508
-0.00057622443
0.00028291742
-1.2900989e-05
0.00029670713
-0.00058624087
0.00029111288
-3.3187591e-05
0.00030539339
-0.0005805755
0.00029546872
-0.00017890782
0.0003418943
-0.00052572022
0.00032954615
-0.00018600127
0.0001133662
-0.00015530016
4.9027408e-05
-3.697215e-05
-0.00055373394
0.0001792387
0.00022546612
-2.0797821e-05
-0.00056152159
0.0002728864
0.00027246086
-1.9362249e-05
-0.00057843148
0.00029413992
0.00028285599
-3.5545206e-05
-0.00058092665
0.00030503228
0.00029207732
-0.00018057471
-0.00053068203
0.00034421045
0.00033150108
-0.00018557219
-0.00016456208
0.00011559581
5.3963762e-05
-3.2964385e-05
0.0001817259
-0.00056860396
0.00023427025
-2.0224142e-05
0.00027607902
-0.00057266314
0.00028384388
-3.9272132e-05
0.00029945304
-0.00057467118
0.00029426613
-0.00018405788
0.00033940971
-0.00052552877
0.0003309048
-0.00019293274
0.00011104247
-0.00015028441
4.8116795e-05
-4.1691499e-05
-0.00056684984
0.00018120112
0.00023440748
-4.2612406e-05
-0.00056545274
0.00027869218
0.00028768147
-0.00018598047
0.00033373537
0.00033131588
-0.00052168318
-0.00019543775
0.000107878
-0.00014715395
4.8733231e-05
-6.1998844e-05
0.00018274704
-0.00055531495
0.000239129
-0.00018658572
0.0003094019
-0.00050618979
0.00032137477
-0.00019839282
0.00010267587
4.4031543e-05
-0.0001349003
-6.5260274e-05
-0.00055216482
0.00018069371
0.00023833856
-0.0001885918
0.00030667532
0.00032057277
-0.00050391656
-0.00020247367
9.9508923e-05
-0.00012714117
4.1514112e-05
-7.6258799e-05
0.00017989139
-0.00054457381
0.00023846755
-0.00020393401
0.0003063069
-0.00050210651
0.00032347482
-0.00022581065
9.3527756e-05
-0.00010456426
3.2913139e-05
-0.00021676654
-0.00048947984
0.00020582958
0.00027460615
-0.00024018251
-8.3981996e-05
8.0724498e-05
2.6673472e-05
-0.00025226304
0.00021151716
-0.00048545083
0.0002860142
-0.00035559491
9.3489449e-05
-3.2406728e-05
4.2249155e-05
-0.00034328829
1.8079051e-05
-3.1060773e-05
6.7509982e-07
-0.00026807318
4.1667641e-06
-6.3916374e-05
-1.5465498e-05
-0.00026811884
0.00018774534
0.00028041833
-0.00046811802
-0.00035143875
5.3889361e-05
7.3197269e-06
2.2110824e-05
-0.00025835497
-7.5237633e-05
2.2121593e-05
-3.9967737e-05
-0.00019663608
0.00047776407
-0.00028362905
-0.00025585391
-0.00024980192
9.3402832e-06
2.460997e-05
1.9215582e-05
-0.00034783203
-2.5774689e-05
9.254156e-05
3.1263239e-05
-0.00036783548
-2.0084214e-05
3.4389029e-06
3.6648759e-05
-0.00040949884
-2.1041325e-05
3.5196012e-05
2.750868e-05
-0.00043748268
-2.1446173e-05
2.4458758e-05
2.4971249e-05
-0.00045774722
-1.916116e-05
1.8352785e-05
2.1072919e-05
-0.0004752263
-1.7837582e-05
1.777084e-05
1.7545825e-05
-0.00049058263
-1.7751023e-05
1.803111e-05
1.5076244e-05
-0.00050582274
-1.7890394e-05
1.814915e-05
1.4981352e-05
-0.00052215659
-1.814512e-05
1.842342e-05
1.6055549e-05
-0.00053967491
-1.8813479e-05
1.8869704e-05
1.7462089e-05
-0.00055845044
-1.9713375e-05
1.9372957e-05
1.911595e-05
-0.00057939065
-2.0208193e-05
1.9928459e-05
2.1219946e-05
-0.00060111321
-2.1316705e-05
2.0823576e-05
2.2215694e-05
-0.00062411346
-1.9237409e-05
2.1203765e-05
2.1033892e-05
-0.00065650212
1.1135269e-05
2.3069485e-05
-1.8160995e-06
-0.00055287232
-0.00017784921
1.2655492e-05
6.1563921e-05
-0.00035283213
0.00019136231
-4.9317955e-05
-0.00034208456
-0.00043212621
-2.7733573e-05
1.3036393e-05
9.3991258e-05
-0.00051197071
-2.0427739e-05
2.3232162e-05
7.7040087e-05
-0.00056704563
-2.0093765e-05
1.8723976e-05
5.6444706e-05
-0.00060457886
-2.4216235e-05
1.16983e-05
5.0051161e-05
-0.00060641041
-2.2549972e-05
-7.4928203e-06
3.1874348e-05
-0.00031146308
3.3086115e-05
-0.00029768468
-3.0348766e-05
-0.00041862698
5.3423094e-06
8.8924139e-05
1.2897449e-05
-0.00051874923
-3.5015916e-06
1.2697668e-05
9.0926169e-05
-0.00055006517
8.7722991e-06
-2.2074674e-05
4.4618315e-05
-0.00019609648
6.6678742e-05
-0.0002254912
-0.00019515623
6.6469711e-06
6.6017165e-05
0.00011050662
0.00057826171
1.0889892e-05
2.7102735e-05
0.0005220698
-1.0851752e-05
4.9629899e-05
0.00045266735
-1.3539334e-05
7.0667612e-05
0.00037707444
-2.7109684e-05
0.00010445777
0.00056653744
-0.00035148142
0.00019179013
0.0006615067
-0.00018625416
6.6103023e-05
0.00062572654
8.0422991e-06
1.9986061e-06
0.00060211305
-1.9765903e-05
2.2497268e-05
0.00057916477
-2.121305e-05
2.38026e-05
0.000558467
-2.0432327e-05
2.1262864e-05
0.00053800754
-1.9797316e-05
2.060589e-05
0.00051955284
-1.9126658e-05
1.849079e-05
0.00050199851
-1.887847e-05
1.7444684e-05
0.00048381889
-1.8912107e-05
1.764727e-05
0.00046232897
-1.8530264e-05
2.0743211e-05
0.00043455988
-1.8183536e-05
2.6895585e-05
0.00039399611
-1.7724257e-05
3.7878012e-05
0.00034455862
-1.8825169e-05
5.3622909e-05
9.0189094e-05
0.00021750968
-1.2326516e-05
4.9186358e-05
0.00022961646
-3.6444147e-05
0.00049273607
-0.00028545683
0.0002398469
0.00059401299
-6.7167794e-05
1.4185555e-05
0.00062531431
-0.00011168104
4.1448756e-05
0.00055005618
4.5185405e-05
-1.9918093e-05
0.00054452123
-3.7527136e-05
4.942598e-06
0.00053958753
-1.7775463e-05
2.3506674e-06
0.00054566303
-6.7956089e-06
4.5330593e-07
0.00055236986
2.2568351e-05
-5.9183114e-06
0.0005758273
1.5396792e-05
-1.1749031e-05
0.00062682252
1.3911107e-05
-7.9908011e-05
7.1340886e-05
-1.7980208e-05
4.3710366e-05
0.0006177787
-6.4626741e-06
4.8151625e-05
0.00058570825
-4.0799436e-05
2.6647984e-05
0.00057444381
-4.2655879e-05
0.00055303947
-4.1943182e-05
0.00059653675
-3.0381427e-05
-1.7363199e-05
5.070527e-05
2.0917467e-05
-2.7250804e-05
2.1130608e-05
0.00062313735
-1.0105429e-05
2.5996821e-05
0.00059351912
-4.547741e-05
8.200348e-06
0.00057998059
-4.7032177e-05
0.00055675204
-4.6265231e-05
0.00059611313
7.9821781e-07
-3.6356478e-05
3.351011e-05
-3.4924098e-06
6.4268764e-07
4.7325116e-05
6.194449e-06
1.8668754e-05
0.0006243692
-2.8275126e-05
2.3483188e-05
0.00059002832
-5.6146502e-05
2.0531189e-05
0.00057781034
-5.1553019e-05
1.3421398e-06
-4.7169021e-05
0.00057473321
0.000560817
-4.5783242e-05
0.00062378952
-1.3437814e-05
-2.4134488e-05
-1.140449e-05
-6.0050106e-05
2.2131568e-05
-2.4089559e-05
3.8054575e-05
-3.1445273e-05
4.4514861e-05
-2.9688922e-05
4.0122724e-05
-1.340888e-05
1.2141983e-06
0.00061274537
-3.4862888e-05
7.0758002e-06
0.00058769252
-5.8606899e-05
1.1020459e-05
0.00058281039
-5.5937069e-05
1.0130291e-05
0.00057858006
-5.2513996e-05
-6.589344e-06
0.00057651915
-4.8588262e-05
0.0005615671
-4.7502745e-05
0.00062478237
-1.5536452e-05
-1.5293833e-05
-1.8171681e-05
-6.2693312e-05
1.4471019e-05
-2.7263452e-05
2.7142305e-05
-3.5890645e-05
2.6734688e-05
-3.8725699e-05
2.6111962e-05
-3.7226563e-05
-3.1970775e-05
-0.00039452261
-1.1521761e-05
2.2316373e-05
-7.6093742e-06
-0.00039760975
-1.061796e-05
2.1086275e-05
-7.3811828e-06
-0.00039927579
-9.7487726e-06
1.8783464e-05
-7.3686443e-06
-0.00040047461
-9.0941167e-06
1.7239268e-05
-6.9463306e-06
-0.00040120658
-8.4994495e-06
1.6002513e-05
-6.7711005e-06
-0.00040191172
-7.8611404e-06
1.4721237e-05
-6.1549571e-06
-0.00040233196
-7.4028526e-06
1.3847035e-05
-6.0239383e-06
-0.00040284984
-6.9188378e-06
1.2978395e-05
-5.5416732e-06
-0.00040304789
-6.5412515e-06
1.217642e-05
-5.4371256e-06
-0.00040335138
-6.1519364e-06
1.1475669e-05
-5.0202372e-06
-0.00040338763
-5.8583449e-06
1.084868e-05
-4.9540866e-06
-0.00040353305
-5.5218272e-06
1.0233568e-05
-4.5663214e-06
-0.00040342486
-5.2849629e-06
9.7118016e-06
-4.5350277e-06
-0.00040343718
-5.0033622e-06
9.2108352e-06
-4.195153e-06
-0.00040321815
-4.8171706e-06
8.7949232e-06
-4.196782e-06
-0.00040315507
-4.5801179e-06
8.3951558e-06
-3.8781163e-06
-0.00040288488
-4.4400286e-06
8.0774136e-06
-3.9075782e-06
-0.00040277556
-4.2489262e-06
7.7611153e-06
-3.6215124e-06
-0.00040247201
-4.152217e-06
7.5215384e-06
-3.672868e-06
-0.00040235691
-3.993683e-06
7.2732005e-06
-3.3946216e-06
-0.00040205999
-3.9254129e-06
7.0942745e-06
-3.4657734e-06
-0.00040194542
-3.7885975e-06
6.8948885e-06
-3.2208664e-06
-0.00040164687
-3.7434953e-06
6.7630583e-06
-3.3181174e-06
-0.00040154479
-3.628137e-06
6.605373e-06
-3.0793093e-06
-0.00040126455
-3.6065345e-06
6.5139466e-06
-3.1876496e-06
-0.00040117266
-3.5095305e-06
6.3917205e-06
-2.9740869e-06
-0.00040090174
-3.5099696e-06
6.3382913e-06
-3.0992404e-06
-0.00040084005
-3.4311459e-06
6.249998e-06
-2.8805397e-06
-0.0004006102
-3.4538141e-06
6.2310689e-06
-3.0071015e-06
-0.00040058177
-3.3907588e-06
6.1770263e-06
-2.8146971e-06
-0.00040037919
-3.4305938e-06
6.1879477e-06
-2.9599393e-06
-0.00040038374
-3.3803465e-06
6.1617059e-06
-2.7768066e-06
-0.00040020767
-3.4375103e-06
6.1985553e-06
-2.9371172e-06
-0.0004002223
-3.4007527e-06
6.1982527e-06
-2.782872e-06
-0.00040004844
-3.4771512e-06
6.263775e-06
-2.9604794e-06
-0.00040007566
-3.4540452e-06
6.2855854e-06
-2.8043217e-06
-0.00039989981
-3.5471204e-06
6.37866e-06
-3.0073951e-06
-0.00039991538
-3.5366586e-06
6.4161659e-06
-2.8639365e-06
-0.00039970576
-3.6475018e-06
6.538303e-06
-3.1004201e-06
-0.00039969213
-3.6468519e-06
6.5940162e-06
-2.9607961e-06
-0.00039943432
-3.7764513e-06
6.7420104e-06
-3.2233605e-06
-0.00039935792
-3.7852604e-06
6.8141014e-06
-3.105243e-06
-0.00039900571
-3.933324e-06
6.9861758e-06
-3.4050662e-06
-0.00039882431
-3.9541078e-06
7.0773531e-06
-3.3046408e-06
-0.00039833188
-4.1208721e-06
7.2683682e-06
-3.6399252e-06
-0.00039797664
-4.1551199e-06
7.3771031e-06
-3.5772306e-06
-0.00039725907
-4.3407027e-06
7.5838967e-06
-3.9607591e-06
-0.00039664665
-4.3875606e-06
7.7086832e-06
-3.9335427e-06
-0.00039561396
-4.5907651e-06
7.9237262e-06
-4.3656537e-06
-0.00039465256
-4.6459481e-06
8.0622447e-06
-4.3776924e-06
-0.00039322858
-4.8664731e-06
8.2870732e-06
-4.8445794e-06
-0.00039183243
-4.9309373e-06
8.434194e-06
-4.8994095e-06
-0.00038992483
-5.1675416e-06
8.6714682e-06
-5.4115243e-06
-0.00038799641
-5.2357928e-06
8.8256162e-06
-5.5182481e-06
-0.00038551024
-5.4965317e-06
9.0849136e-06
-6.0745482e-06
-0.00038297636
-5.5971581e-06
9.2603532e-06
-6.1970789e-06
-0.00037983436
-5.9042487e-06
9.5619438e-06
-6.7996964e-06
-0.00037658974
-6.0670465e-06
9.7839119e-06
-6.9614799e-06
-0.00037274613
-6.4704401e-06
1.0150202e-05
-7.5233737e-06
-0.00036860237
-6.7873905e-06
1.0490617e-05
-7.8469864e-06
-0.00036383886
-7.4123688e-06
1.1042911e-05
-8.3940525e-06
-0.0003585268
-8.0952545e-06
1.1709689e-05
-8.9264982e-06
-0.00035277705
-9.1685717e-06
1.2751528e-05
-9.3327062e-06
-0.00034611182
-1.0801218e-05
1.4255405e-05
-1.0119412e-05
-0.00033886426
-1.3259397e-05
1.6312853e-05
-1.0301012e-05
-0.0003317388
-1.6586974e-05
1.8766691e-05
-9.3051851e-06
-0.00032903272
-2.0585243e-05
2.2767772e-05
-4.8886046e-06
-0.00033825054
-2.2753455e-05
2.8115201e-05
3.8560755e-06
-0.00032280392
2.0145063e-05
7.2516922e-07
-3.6316858e-05
-9.3845408e-05
3.1773893e-05
-9.3897162e-05
-0.00016683524
-0.00022477278
0.00022723315
2.4033211e-05
-0.00012033899
-0.00011702455
0.00039019512
-0.00034335202
-0.00015459132
-0.00023490969
0.0003720169
-0.00025065252
-3.4792396e-06
-0.00023444222
0.00020292727
-0.00018148484
-2.1909903e-05
0.00027611626
-0.00018938487
-0.00062315588
0.00030198227
0.00021418643
0.00026664312
-0.0005187564
0.00031404311
0.00048099342
0.00019906125
-0.00079944976
0.00033358151
-6.3409493e-05
0.00038164603
0.00028661773
-0.00012386084
-0.00015672329
0.00029985731
-7.482254e-06
0.00033777845
-2.4931344e-05
0.00050143221
0.0002101552
-1.7920655e-06
-0.00012616966
0.00042829365
0.0001932577
6.0505148e-06
0.00028721149
0.00020404712
0.00031326488
2.5778909e-05
-3.1687238e-05
0.00029750825
-6.505593e-06
-4.9122862e-07
0.00029201747
-1.2366271e-05
-2.7281999e-06
0.00029199957
-1.1946965e-05
-4.6221026e-06
0.00029381679
-1.0163497e-05
-4.9131162e-06
0.00029632897
-8.3135495e-06
-4.9998524e-06
0.00029934683
-7.2922031e-06
-4.8942336e-06
0.00030232787
-6.4264772e-06
-4.6498155e-06
0.00030534041
-5.8695368e-06
-4.5553683e-06
0.00030797871
-5.2495894e-06
-4.176101e-06
0.00031063894
-5.0124278e-06
-4.1182474e-06
0.00031284385
-4.5783909e-06
-3.6935584e-06
0.00031510237
-4.500029e-06
-3.6627433e-06
0.00031687264
-4.1044276e-06
-3.2629969e-06
0.00031868317
-4.0668523e-06
-3.2402135e-06
0.00032001549
-3.6983651e-06
-2.8697444e-06
0.00032140529
-3.6929588e-06
-2.8643849e-06
0.00032235602
-3.3565611e-06
-2.5251065e-06
0.00032339045
-3.3591658e-06
-2.5417355e-06
0.00032402718
-3.053742e-06
-2.2289359e-06
0.00032477378
-3.0711243e-06
-2.2662437e-06
0.00032517131
-2.8023814e-06
-1.9827042e-06
0.00032571104
-2.839969e-06
-2.0404633e-06
0.00032595102
-2.6042141e-06
-1.7908919e-06
0.00032635292
-2.6559796e-06
-1.8667939e-06
0.00032649666
-2.4488177e-06
-1.6490301e-06
0.00032682048
-2.5150132e-06
-1.7421259e-06
0.00032691374
-2.3297713e-06
-1.5487505e-06
0.00032719205
-2.4045877e-06
-1.6501762e-06
0.00032726624
-2.2409486e-06
-1.4800881e-06
0.00032753012
-2.3223662e-06
-1.5890152e-06
0.0003276063
-2.178209e-06
-1.4346354e-06
0.000327869
-2.264063e-06
-1.5457577e-06
0.00032795683
-2.1340188e-06
-1.4078546e-06
0.00032824077
-2.2313318e-06
-1.5297562e-06
0.00032835411
-2.1125896e-06
-1.4015038e-06
0.00032865667
-2.2158887e-06
-1.5241856e-06
0.00032879554
-2.1125194e-06
-1.4066945e-06
0.00032912761
-2.2264702e-06
-1.5361961e-06
0.00032929892
-2.1355902e-06
-1.426478e-06
0.00032965615
-2.2537871e-06
-1.5572568e-06
0.00032985915
-2.1766985e-06
-1.4574507e-06
0.00033024865
-2.3051178e-06
-1.5943495e-06
0.00033048095
-2.2399616e-06
-1.5018625e-06
0.00033088611
-2.3735947e-06
-1.6381011e-06
0.00033113539
-2.323119e-06
-1.5542997e-06
0.00033155754
-2.4680407e-06
-1.6976032e-06
0.00033182145
-2.4302358e-06
-1.6222725e-06
0.00033224467
-2.5821179e-06
-1.7665163e-06
0.00033250822
-2.5576798e-06
-1.69955e-06
0.00033293144
-2.721843e-06
-1.8535973e-06
0.00033318964
-2.7120175e-06
-1.7951069e-06
0.00033359045
-2.8885512e-06
-1.9522925e-06
0.00033382347
-2.9053434e-06
-1.9077932e-06
0.0003341937
-3.1033811e-06
-2.0840172e-06
0.00033437322
-3.1360031e-06
-2.0468753e-06
0.00033466362
-3.3472088e-06
-2.2281551e-06
0.00033474989
-3.4039472e-06
-2.2041548e-06
0.00033493754
-3.6412144e-06
-2.4047814e-06
0.00033490715
-3.725822e-06
-2.3957177e-06
0.00033496449
-3.9875665e-06
-2.6110279e-06
0.00033477812
-4.1109103e-06
-2.6215635e-06
0.00033465704
-4.4164059e-06
-2.8653669e-06
0.00033426849
-4.5772107e-06
-2.8953712e-06
0.00033388519
-4.9422084e-06
-3.1739488e-06
0.00033320377
-5.1713897e-06
-3.2413016e-06
0.00033258151
-5.5775362e-06
-3.5489816e-06
0.00033157532
-5.9302016e-06
-3.6815596e-06
0.00033044662
-6.4021582e-06
-3.990908e-06
-6.777615e-06
-4.0221975e-06
-0.0003074289
-9.4422438e-06
3.0716822e-06
-0.00030758135
-9.1051093e-06
2.8553983e-06
-0.00030788122
-8.3286771e-06
2.6983426e-06
-0.00030787766
-8.0860485e-06
2.5049585e-06
-0.00030801097
-7.4085094e-06
2.3704295e-06
-0.00030789481
-7.2692475e-06
2.2108746e-06
-0.00030788855
-6.66841e-06
2.0849455e-06
-0.00030765422
-6.5980154e-06
1.9472708e-06
-0.00030755563
-6.0622888e-06
1.8527902e-06
-0.00030723597
-6.0394096e-06
1.732183e-06
-0.00030705898
-5.5604236e-06
1.6576101e-06
-0.00030667628
-5.5797899e-06
1.5558784e-06
-0.00030644514
-5.1307937e-06
1.4957098e-06
-0.00030601817
-5.1824632e-06
1.4082797e-06
-0.00030574481
-4.7699107e-06
1.3605484e-06
-0.0003052857
-4.8500033e-06
1.2875192e-06
-0.00030499611
-4.4497052e-06
1.2547668e-06
-0.00030452483
-4.5540188e-06
1.194192e-06
-0.00030422465
-4.1790817e-06
1.1668828e-06
-0.00030374927
-4.3127074e-06
1.1154822e-06
-0.0003034591
-3.946149e-06
1.0983022e-06
-0.00030299751
-4.099306e-06
1.0555939e-06
-0.00030271461
-3.7581673e-06
1.0450329e-06
-0.00030226476
-3.9286958e-06
1.0108039e-06
-0.00030200699
-3.5909825e-06
1.0100979e-06
-0.00030158371
-3.7780486e-06
9.8117148e-07
-0.00030134766
-3.4612858e-06
9.8527447e-07
-0.00030094357
-3.6704515e-06
9.6124249e-07
-0.00030073957
-3.3524358e-06
9.7173887e-07
-0.00030036973
-3.5757739e-06
9.5214591e-07
-0.00030019682
-3.2743442e-06
9.658401e-07
-0.0002998524
-3.5210009e-06
9.5011495e-07
-0.00029971236
-3.2207844e-06
9.6822286e-07
-0.00029940147
-3.4835312e-06
9.567543e-07
-0.00029928974
-3.2026581e-06
9.7833838e-07
-0.00029900099
-3.4915992e-06
9.7151696e-07
-0.00029891706
-3.2173634e-06
9.9941639e-07
-0.00029865393
-3.5230348e-06
9.9583523e-07
-0.00029858456
-3.2707799e-06
1.0232049e-06
-0.00029832584
-3.6056211e-06
1.0245375e-06
-0.0002982632
-3.353621e-06
1.0500291e-06
-0.00029800157
-3.7250289e-06
1.0588124e-06
-0.00029793225
-3.4766872e-06
1.0775905e-06
-0.00029764126
-3.8970094e-06
1.0910133e-06
-0.00029753878
-3.6589323e-06
1.107631e-06
-0.00029719203
-4.1266011e-06
1.1238708e-06
-0.00029701832
-3.9143662e-06
1.1364429e-06
-0.00029656095
-4.4498978e-06
1.1525635e-06
-0.00029626252
-4.2611867e-06
1.1603698e-06
-0.00029563904
-4.8690054e-06
1.1744011e-06
-0.00029515858
-4.7119444e-06
1.1777462e-06
-0.00029432008
-5.3853511e-06
1.1876837e-06
-0.00029360128
-5.2631891e-06
1.1878239e-06
-0.0002924858
-6.0029358e-06
1.1944984e-06
-0.00029147064
-5.8990501e-06
1.1855314e-06
-0.00029004219
-6.6790101e-06
1.1837042e-06
-0.00028870708
-6.6117077e-06
1.1721745e-06
-0.00028697211
-7.3977034e-06
1.1627034e-06
-0.00028538421
-7.3244462e-06
1.1581529e-06
-0.0002834985
-8.028776e-06
1.1306381e-06
-0.00028182396
-8.0763955e-06
1.1522623e-06
-0.0002801243
-8.764191e-06
1.1949927e-06
-0.00027888496
-8.8927082e-06
1.2268946e-06
-0.00027834138
-9.1871674e-06
1.3513816e-06
-0.00027936954
-8.7429044e-06
1.4575159e-06
-0.00028427228
-7.1364725e-06
1.8757169e-06
-0.00029563097
-3.2205588e-06
2.6322857e-06
-0.00032171508
8.088542e-06
5.6292908e-06
-0.00036818386
2.7870629e-05
1.2092559e-05
7.2830482e-05
1.3058225e-05
-0.0004164161
7.4840001e-05
0.00039496067
1.9445903e-05
-0.00038248604
0.00013605692
2.327072e-05
0.00011122589
1.6300579e-05
0.00062327444
-3.3605937e-05
-9.6796584e-05
0.00049780766
0.00044373309
-0.00018220939
0.0006973283
-8.3055202e-05
-4.162544e-05
-5.0276341e-05
0.00034900115
0.00048985715
-9.1253662e-05
0.00035826237
1.4292593e-05
0.00033481085
2.4183408e-05
7.3566473e-06
0.00031250086
1.6003846e-05
3.085589e-06
0.00030262237
1.6833618e-06
1.0586522e-06
0.00029142044
2.0595575e-06
3.9946935e-07
0.00028938639
-7.107039e-06
-4.6072691e-08
0.00028308732
-2.7417297e-06
1.4808955e-07
0.00028458679
-1.0287539e-05
2.3876969e-08
0.00028039989
-4.1700631e-06
2.8056901e-07
0.0002833082
-1.1144179e-05
2.0709209e-07
0.00027995753
-4.4102021e-06
4.3642421e-07
0.00028340124
-1.1214124e-05
3.727124e-07
0.00028033881
-4.131994e-06
5.8271369e-07
0.00028385381
-1.0697879e-05
5.0386916e-07
0.00028083981
-3.5822707e-06
6.9722631e-07
0.00028433428
-1.0091554e-05
5.9414734e-07
0.00028128643
-2.9942213e-06
7.7887411e-07
0.00028470477
-9.4808151e-06
6.7712477e-07
0.0002816093
-2.4516922e-06
8.3522181e-07
0.00028497076
-8.9647794e-06
7.3431712e-07
0.00028183776
-1.9971616e-06
8.6897111e-07
0.0002851493
-8.5263024e-06
7.6486426e-07
0.00028199872
-1.6419726e-06
8.781906e-07
0.00028527976
-8.1788356e-06
7.7119611e-07
0.00028212928
-1.3807236e-06
8.7227034e-07
0.00028540934
-7.9424372e-06
7.653608e-07
0.00028227177
-1.1959594e-06
8.5684536e-07
0.00028554988
-7.757558e-06
7.5441621e-07
0.00028244556
-1.0836291e-06
8.3433066e-07
0.00028575017
-7.6424866e-06
7.3225605e-07
0.00028266469
-1.0015856e-06
8.1628618e-07
0.00028597832
-7.5489298e-06
7.1226324e-07
0.0002829229
-9.5786278e-07
7.9592263e-07
0.00028627316
-7.5333488e-06
6.9148994e-07
0.00028325083
-9.558991e-07
7.7557022e-07
0.00028662483
-7.5348856e-06
6.7735737e-07
0.000283634
-9.9215225e-07
7.6219646e-07
0.00028704846
-7.6001845e-06
6.6471954e-07
0.00028408573
-1.0635253e-06
7.5191106e-07
0.0002875249
-7.6751106e-06
6.6016783e-07
0.00028459112
-1.1674252e-06
7.4877057e-07
0.00028807345
-7.8114764e-06
6.5869391e-07
0.00028516644
-1.3049035e-06
7.5063081e-07
0.0002886696
-7.949572e-06
6.6836105e-07
0.00028578407
-1.467633e-06
7.621779e-07
0.00028932699
-8.1529425e-06
6.8132907e-07
0.00028646507
-1.6739973e-06
7.7774678e-07
0.00029002225
-8.3648302e-06
7.0834196e-07
0.00028716365
-1.8960444e-06
8.0850445e-07
0.00029075472
-8.6502129e-06
7.4643411e-07
0.00028791166
-2.1854842e-06
8.4945755e-07
0.00029151033
-8.9523706e-06
7.9968402e-07
0.00028866327
-2.504153e-06
9.0151223e-07
0.00029227838
-9.3257129e-06
8.6059856e-07
0.00028942768
-2.885521e-06
9.6630267e-07
0.00029303507
-9.7307664e-06
9.409179e-07
0.00029016233
-3.3094953e-06
1.05144e-06
0.0002937661
-1.0219819e-05
1.0362654e-06
0.00029086962
-3.8151535e-06
1.1512003e-06
0.00029444808
-1.0765845e-05
1.1479808e-06
0.00029150955
-4.3913538e-06
1.2675895e-06
0.00029505963
-1.1422863e-05
1.2747744e-06
0.00029207349
-5.0808452e-06
1.39857e-06
0.00029556712
-1.2182445e-05
1.4195736e-06
0.00029250534
-5.8954278e-06
1.548693e-06
0.0002959565
-1.3099507e-05
1.5623065e-06
0.0002928151
-6.8856141e-06
1.6983312e-06
0.00029620685
-1.4193144e-05
1.6962833e-06
-8.0762833e-06
1.8223017e-06
-0.0004103254
3.2391052e-05
-9.003083e-06
-0.0004108033
3.0164232e-05
-8.6000632e-06
-0.0004136625
2.8604744e-05
-6.9620755e-06
-0.00041685757
2.7041585e-05
-6.607248e-06
-0.00041959385
2.556365e-05
-6.8248542e-06
-0.00042135364
2.2937798e-05
-6.456775e-06
-0.00042236516
2.1383919e-05
-6.5253619e-06
-0.00042343217
2.0002537e-05
-5.9571363e-06
-0.00042408155
1.862473e-05
-5.7989277e-06
-0.00042487668
1.7602105e-05
-5.3313086e-06
-0.00042539277
1.6611828e-05
-5.2470496e-06
-0.00042597717
1.5610011e-05
-4.792045e-06
-0.00042626433
1.4743856e-05
-4.7448983e-06
-0.00042665373
1.3958308e-05
-4.3580721e-06
-0.00042679242
1.3275126e-05
-4.3415108e-06
-0.00042707696
1.2667024e-05
-3.9873247e-06
-0.00042715024
1.2152228e-05
-4.0015424e-06
-0.00042736414
1.1669873e-05
-3.6948487e-06
-0.00042737432
1.1257248e-05
-3.7255355e-06
-0.00042755666
1.0876576e-05
-3.4210306e-06
-0.00042754663
1.0562399e-05
-3.4781547e-06