/*--------------------------------*- C++ -*----------------------------------*\
| =========                 |                                                 |
| \\      /  F ield         | OpenFOAM: The Open Source CFD Toolbox           |
|  \\    /   O peration     | Version:  v2012                                 |
|   \\  /    A nd           | Website:  www.openfoam.com                      |
|    \\/     M anipulation  |                                                 |
\*---------------------------------------------------------------------------*/
FoamFile
{
    version     2.0;
    format      ascii;
    class       volVectorField;
    location    "100";
    object      U;
}
// * * * * * * * * * * * * * * * * * * * * * * * * * * * * * * * * * * * * * //

dimensions      [0 1 -1 0 0 0 0];


internalField   nonuniform List<vector> 
24441
(
(5.138589 -0.0012448981 0.018199176)
(5.1516266 -0.0010406107 0.016939192)
(5.1638655 -0.00080324142 0.015323276)
(5.1750788 -0.00053671873 0.0133717)
(5.185047 -0.00024378735 0.011097055)
(5.1935511 7.3648667e-05 0.0085027013)
(5.2003752 0.00041385482 0.0055880314)
(5.205293 0.00077610455 0.0023622208)
(5.2080159 0.0011588017 -0.0011573122)
(5.2082686 0.0015410427 -0.0048740414)
(5.2059241 0.0019458615 -0.0090185501)
(5.2006508 0.0023656244 -0.013396871)
(5.6471188 -0.28779405 0.056233614)
(5.6485626 -0.28474842 0.059838507)
(5.6500518 -0.28095554 0.061473134)
(5.6491931 -0.28002416 0.063471966)
(5.6583054 -0.27716756 0.067351948)
(5.6692092 -0.26264576 0.067526991)
(5.6729173 -0.25273602 0.06975279)
(5.672331 -0.25130253 0.07151079)
(5.6755464 -0.24830099 0.074186784)
(5.6787371 -0.24353135 0.077626276)
(5.6808739 -0.23835283 0.079934352)
(5.6829891 -0.23445209 0.081857243)
(5.6841298 -0.23176926 0.083488289)
(5.6860223 -0.22844099 0.085977749)
(5.6876861 -0.22389908 0.087654987)
(5.6882495 -0.22197355 0.089878182)
(5.6966201 -0.21730707 0.093976686)
(5.7071478 -0.20159857 0.093956783)
(5.7119411 -0.19020323 0.095523534)
(5.7126113 -0.18739492 0.096910927)
(5.7169099 -0.18259363 0.099639947)
(5.7185789 -0.17901449 0.10255532)
(5.7199816 -0.1745835 0.10520164)
(5.7212465 -0.17061115 0.10799028)
(5.7309799 -0.16184944 0.11190619)
(5.7417997 -0.1445693 0.110876)
(5.7469545 -0.1307617 0.11300422)
(5.7457258 -0.12784089 0.11484557)
(5.7472283 -0.12159861 0.11827235)
(5.7477122 -0.11548338 0.12007611)
(5.7573553 -0.10844318 0.12390545)
(5.7703044 -0.088376477 0.12471054)
(5.7757471 -0.072938788 0.12612333)
(5.7742448 -0.069664771 0.12707656)
(5.777986 -0.062783878 0.12921578)
(5.7796376 -0.05388214 0.13154552)
(5.7885966 -0.040122368 0.13639452)
(5.7981536 -0.017812952 0.13763748)
(5.8078348 0.003257771 0.13874875)
(5.8158414 0.026143898 0.13906616)
(5.8246812 0.047885102 0.13975342)
(5.8313648 0.068002664 0.14217419)
(5.838479 0.07905014 0.14289129)
(5.837414 0.097193924 0.14132526)
(5.845994 0.12927541 0.14352236)
(5.8523001 0.16409904 0.14423173)
(5.8564933 0.1937794 0.1438901)
(5.8625452 0.22090757 0.14612319)
(5.8627291 0.24229774 0.14417866)
(5.865798 0.28092329 0.14513405)
(5.867056 0.32441158 0.14845583)
(5.8707851 0.36032655 0.14678487)
(5.8733937 0.41499927 0.14742967)
(5.870049 0.46190905 0.14532972)
(5.8686272 0.51185715 0.14478873)
(5.8654185 0.56933426 0.14229258)
(5.8588962 0.62903467 0.14035504)
(5.8520163 0.69015088 0.13717164)
(5.8394221 0.76082678 0.13437035)
(5.8193182 0.83165988 0.12405534)
(5.8045482 0.89126297 0.11581062)
(5.7696505 0.95481226 0.10350572)
(5.7457463 1.0335444 0.09600587)
(5.6543026 1.2705345 0.069754244)
(5.7004591 1.1694356 0.085354015)
(5.7386171 1.0686423 0.097176736)
(5.764726 0.97317268 0.10517389)
(5.7971416 0.9080679 0.11551471)
(5.81062 0.84756029 0.12308381)
(5.8331319 0.78374521 0.13355032)
(5.8493298 0.71056595 0.13704941)
(5.8561036 0.64831454 0.14012137)
(5.8620034 0.58457663 0.14154945)
(5.8657337 0.53015218 0.14666296)
(5.868689 0.47557003 0.1463183)
(5.8712835 0.42862087 0.14662138)
(5.8691182 0.37286829 0.14940523)
(5.8661407 0.33787659 0.14794722)
(5.8665262 0.29351166 0.14646588)
(5.8598152 0.2486301 0.14560576)
(5.8562768 0.21818392 0.14605125)
(5.8593064 0.20371124 0.14668178)
(5.8586601 0.19405385 0.14721247)
(5.8504435 0.16906142 0.14214159)
(5.8453345 0.13806963 0.1449154)
(5.8389004 0.10506729 0.14246332)
(5.8301063 0.072599311 0.14006016)
(5.8228824 0.046402601 0.13712641)
(5.8135251 0.018128249 0.13696509)
(5.8056122 -0.0035976997 0.13595749)
(5.7955024 -0.030055455 0.13530414)
(5.7856274 -0.050735671 0.13447333)
(5.7720163 -0.07841001 0.13224378)
(5.7706923 -0.083098578 0.13018999)
(5.7664682 -0.09125377 0.12699149)
(5.7639265 -0.094393706 0.12645394)
(5.7679409 -0.09950095 0.12541483)
(5.7530146 -0.12034153 0.12509362)
(5.7428428 -0.13668935 0.1204389)
(5.7429833 -0.13553751 0.11990643)
(5.7387428 -0.14494785 0.11854226)
(5.73614 -0.15234549 0.11544979)
(5.7390614 -0.15712552 0.11191009)
(5.726194 -0.17408827 0.11157309)
(5.7117501 -0.19388587 0.11001681)
(5.7096054 -0.19707755 0.10776752)
(5.7059686 -0.20154925 0.10483009)
(5.7038299 -0.20919549 0.10202392)
(5.7025995 -0.21536639 0.096891215)
(5.702571 -0.21250484 0.093518831)
(5.7060541 -0.211049 0.093086532)
(5.6934655 -0.23022791 0.093994022)
(5.6766666 -0.24860641 0.095399033)
(5.6774624 -0.2485901 0.090983245)
(5.6762101 -0.25086694 0.086486351)
(5.6743601 -0.25397475 0.083969029)
(5.6721488 -0.25769434 0.082254288)
(5.6698566 -0.26202797 0.080041781)
(5.6671892 -0.26625249 0.077274963)
(5.6640903 -0.26983462 0.074269016)
(5.6626505 -0.27192079 0.072041406)
(5.6633025 -0.272105 0.070669773)
(5.6674437 -0.27299624 0.068145801)
(5.6525503 -0.2906311 0.068571825)
(5.6391356 -0.30069775 0.068095663)
(5.6409592 -0.30003023 0.06609775)
(5.6392831 -0.30485134 0.061730439)
(5.6375044 -0.3070019 0.057996435)
(5.6365107 -0.3095593 0.055066202)
(5.614272 -0.33337547 0.052698028)
(5.6155705 -0.3302893 0.055377163)
(5.6170422 -0.32840778 0.057973688)
(5.6196557 -0.3269847 0.060657271)
(5.6229169 -0.32551765 0.063673584)
(5.6245423 -0.32051618 0.065346257)
(5.6293821 -0.31491694 0.066281452)
(5.6325739 -0.31088974 0.067451594)
(5.6362905 -0.30542305 0.070503425)
(5.638813 -0.29997077 0.072625162)
(5.6394927 -0.29671257 0.074158589)
(5.6407298 -0.29398905 0.075490478)
(5.6468805 -0.29006685 0.078290634)
(5.6508088 -0.2800444 0.080929781)
(5.6526593 -0.27716161 0.083012225)
(5.6562664 -0.27429166 0.086390533)
(5.6604281 -0.27062525 0.088324511)
(5.6629793 -0.26611824 0.087801285)
(5.6723558 -0.25904629 0.090202336)
(5.6764256 -0.2440434 0.093598512)
(5.677245 -0.24487544 0.09031852)
(5.6785799 -0.24594221 0.093942767)
(5.6812371 -0.24045284 0.097195988)
(5.6886476 -0.23323026 0.099503311)
(5.6930937 -0.22135244 0.10325516)
(5.6961668 -0.21566066 0.10411309)
(5.697385 -0.21118576 0.10336214)
(5.7061267 -0.20606657 0.10413787)
(5.7125894 -0.19351692 0.11113435)
(5.7156169 -0.18825563 0.11220741)
(5.72103 -0.17738564 0.11547266)
(5.7229694 -0.16451919 0.11577107)
(5.7240324 -0.16059547 0.11524988)
(5.7337362 -0.15300062 0.11878767)
(5.7407801 -0.13816996 0.12040819)
(5.7414614 -0.13309366 0.11974525)
(5.7511712 -0.12343531 0.12292272)
(5.7566739 -0.10211018 0.12533073)
(5.7591211 -0.092282477 0.125123)
(5.76513 -0.079652747 0.12724575)
(5.7741964 -0.065030911 0.13109424)
(5.787663 -0.03968064 0.13304761)
(5.7946245 -0.014510965 0.13417738)
(5.798618 0.0010539446 0.13517507)
(5.8065795 0.018434218 0.13866185)
(5.8137129 0.042029486 0.13839643)
(5.8182401 0.055445628 0.14314126)
(5.8239185 0.069563531 0.14173672)
(5.8300904 0.10352398 0.140887)
(5.8365029 0.13150378 0.1454087)
(5.8446182 0.16873811 0.14476929)
(5.8494929 0.20646428 0.14792274)
(5.8559138 0.24032464 0.14910109)
(5.8597127 0.28599431 0.1487741)
(5.8618161 0.3242739 0.15076743)
(5.8659616 0.37072612 0.14967959)
(5.8656283 0.42063446 0.14871013)
(5.8641905 0.46899408 0.14970065)
(5.8630139 0.52255852 0.14834045)
(5.8572482 0.58274919 0.14296387)
(5.8510664 0.64040832 0.14427708)
(5.8440333 0.70710443 0.13995281)
(5.8269732 0.77899745 0.13116182)
(5.80333 0.84067059 0.12248725)
(5.7970792 0.89570785 0.11932736)
(5.7618772 0.96849176 0.10352825)
(5.7309655 1.0578536 0.099003271)
(5.69896 1.1541773 0.083904906)
(5.6477402 1.2714807 0.065608112)
(5.5789133 1.38365 0.04112153)
(5.5273442 1.4835914 0.014785229)
(5.4199258 1.6281206 -0.017430469)
(5.3083415 1.8054166 -0.055990281)
(5.138988 1.9994713 -0.12443114)
(4.9848514 2.1554316 -0.21119915)
(4.6048739 2.4637883 -0.34116102)
(5.6311611 1.3148558 0.054942235)
(5.6862031 1.2024274 0.073717772)
(5.7266706 1.0957007 0.089565935)
(5.755733 0.99371474 0.10159843)
(5.7919031 0.92773757 0.11121012)
(5.8007538 0.8662232 0.11603367)
(5.8239128 0.80943984 0.12702863)
(5.8448421 0.7318327 0.13611287)
(5.852702 0.66902072 0.13889369)
(5.8575366 0.5977897 0.14156774)
(5.8610912 0.55014497 0.14606031)
(5.8680022 0.49253643 0.14600017)
(5.8681782 0.4393514 0.14642185)
(5.8667711 0.39117731 0.15002826)
(5.8672359 0.34943278 0.14722166)
(5.8651576 0.30110049 0.14699289)
(5.8591334 0.26097737 0.14855942)
(5.8555702 0.22443406 0.14438575)
(5.8514823 0.1843469 0.14478768)
(5.8517381 0.17426023 0.14643865)
(5.8477192 0.16669339 0.14664073)
(5.8440606 0.14446546 0.14365346)
(5.837824 0.11133427 0.13989017)
(5.8304287 0.083974993 0.14313017)
(5.8226137 0.05413922 0.14018042)
(5.8131202 0.026808809 0.14067371)
(5.8046626 0.0012610375 0.13787746)
(5.7944909 -0.024400274 0.13742778)
(5.786358 -0.046146678 0.13475408)
(5.7733068 -0.074201866 0.1304675)
(5.7623877 -0.092419429 0.12710752)
(5.7606188 -0.096906085 0.12868664)
(5.7590121 -0.10273048 0.12689145)
(5.7565784 -0.1064795 0.12481809)
(5.7548211 -0.11155309 0.12617705)
(5.746783 -0.13434386 0.12147095)
(5.7329988 -0.15460963 0.11790751)
(5.7320273 -0.1570915 0.11688574)
(5.7340972 -0.15877936 0.11648482)
(5.7294066 -0.16409172 0.11514518)
(5.7256906 -0.1707343 0.11414662)
(5.7131927 -0.1908384 0.10994208)
(5.7041344 -0.20303831 0.10668287)
(5.7012518 -0.20843635 0.10588108)
(5.6966091 -0.21136232 0.10396903)
(5.6930881 -0.21502576 0.10259716)
(5.6876585 -0.22372727 0.099890413)
(5.6855085 -0.22871301 0.096804332)
(5.6887793 -0.23040599 0.095632805)
(5.6776417 -0.24372231 0.095841662)
(5.6725016 -0.25549306 0.090729231)
(5.6694888 -0.25723886 0.091321232)
(5.6666909 -0.25969043 0.089865483)
(5.6633672 -0.26398007 0.085977284)
(5.6594882 -0.269218 0.082415786)
(5.6571681 -0.27223279 0.079931179)
(5.6559986 -0.27433894 0.077642682)
(5.6542592 -0.27674181 0.074810504)
(5.653082 -0.27878204 0.07296115)
(5.6524777 -0.28183198 0.072743443)
(5.6513469 -0.28765711 0.072208159)
(5.6395277 -0.30132751 0.067856088)
(5.6346261 -0.30996896 0.065753232)
(5.6344238 -0.31116431 0.066013547)
(5.6319202 -0.3131039 0.064133068)
(5.6282041 -0.3159353 0.060430083)
(5.6258776 -0.31918008 0.057166603)
(5.6246614 -0.32231006 0.05417255)
(4.3904259 0.15379712 0.034339291)
(4.3796401 0.14312448 0.032750672)
(4.3719808 0.12836281 0.030877602)
(4.3645258 0.1204079 0.028276247)
(4.3580872 0.11483296 0.026764077)
(4.3511273 0.10857217 0.023930587)
(4.3448563 0.10356163 0.023276985)
(4.3391213 0.098410114 0.021121078)
(4.3337825 0.093762995 0.02064004)
(4.328361 0.089719668 0.018794084)
(4.3234578 0.086143382 0.018659217)
(4.3185011 0.082576858 0.016991462)
(4.3139641 0.079528501 0.017044779)
(4.3092783 0.076483573 0.015552846)
(4.3049204 0.073918047 0.015694379)
(4.3005023 0.071316026 0.014307739)
(4.2964874 0.069194633 0.014588163)
(4.2923325 0.066987294 0.013320159)
(4.2885888 0.065321145 0.013685315)
(4.2848552 0.06353267 0.012453018)
(4.2816573 0.062241249 0.012918224)
(4.2783611 0.06074542 0.011838461)
(4.2755354 0.059706927 0.012528637)
(4.2726426 0.058434204 0.011531933)
(4.2702665 0.057658661 0.012174277)
(4.2676984 0.056655585 0.011109399)
(4.2655423 0.056196398 0.011752589)
(4.2633251 0.055518694 0.010599852)
(4.2617292 0.055447653 0.011198141)
(4.2599787 0.055066344 0.010098816)
(4.2587536 0.05523655 0.010879345)
(4.2574355 0.055036532 0.0098862766)
(4.2566215 0.055432015 0.010802131)
(4.2555153 0.055436355 0.0099079202)
(4.2547227 0.056101876 0.010885255)
(4.2537901 0.056332835 0.0099493773)
(4.2530802 0.057249396 0.011042024)
(4.2521243 0.057607136 0.010162897)
(4.2511071 0.058806523 0.01137021)
(4.2498844 0.059338953 0.010503497)
(4.248481 0.06078953 0.011833103)
(4.2467264 0.061475552 0.011051172)
(4.2444235 0.063165732 0.012539707)
(4.2416863 0.064042738 0.011818582)
(4.2380912 0.065943655 0.013488734)
(4.2337327 0.066998168 0.012907806)
(4.2280134 0.069077646 0.014781852)
(4.2211183 0.070282962 0.014300863)
(4.2124029 0.072500905 0.016369397)
(4.2018841 0.073827991 0.016009838)
(4.189444 0.076194547 0.018278906)
(4.1744425 0.077684088 0.018048362)
(4.1573946 0.080230834 0.020599943)
(4.1369165 0.081833103 0.020604528)
(4.1143218 0.08473704 0.023417175)
(4.0877478 0.086972116 0.023549898)
(4.0591374 0.090953288 0.026628463)
(4.025775 0.094654927 0.026855294)
(3.9912592 0.10071673 0.030147358)
(3.9507793 0.10708153 0.031354484)
(3.9090401 0.11668116 0.035646382)
(3.8597256 0.12746379 0.038799642)
(3.8101628 0.14264425 0.043624189)
(3.7500843 0.16056592 0.05176567)
(3.6929758 0.18045947 0.062790515)
(3.628701 0.20030771 0.057309072)
(3.5420885 0.22234292 0.024436024)
(3.5717571 0.21352131 -0.18018641)
(4.8135996 -0.0064107917 -1.7782244)
(4.4434046 0.51331747 -5.4123568)
(3.253307 0.10352052 -5.033568)
(2.8408757 0.42009986 -4.5453678)
(2.915542 0.029625536 -3.7540953)
(3.345455 0.084336981 -2.8139759)
(3.5129683 0.088604298 -2.1847501)
(4.1376309 0.074716476 -2.061491)
(4.5769545 0.043837256 -1.8359692)
(4.6520773 0.048705118 -1.9237349)
(4.6547272 0.047362356 -2.221466)
(4.2921103 0.069088757 -2.6224312)
(4.2968905 0.038369803 -3.5094826)
(5.4836238 0.25670418 -3.8443522)
(4.7634014 0.21105183 -4.6971524)
(5.3477521 0.58525695 -0.86436224)
(3.9214003 0.36516122 -0.012791454)
(3.8085952 0.25395854 0.042000045)
(3.8082207 0.16419805 0.051035266)
(3.8081855 0.10917931 0.042668172)
(3.8246106 0.078536695 0.034054607)
(3.8586259 0.060750328 0.029931112)
(3.8895102 0.051045731 0.026149039)
(3.9253708 0.044819673 0.024429154)
(3.9570486 0.040174941 0.021315146)
(3.9897915 0.037449875 0.020911994)
(4.0186117 0.034973144 0.018169222)
(4.0470043 0.033748476 0.018199733)
(4.0718531 0.032130963 0.0156527)
(4.0949052 0.031548479 0.015737856)
(4.1145313 0.030283864 0.013380541)
(4.1321732 0.029940264 0.013689829)
(4.1468529 0.028791568 0.01172063)
(4.1597278 0.028442281 0.012083228)
(4.170256 0.027391569 0.010165525)
(4.1791832 0.02708705 0.010507627)
(4.1863803 0.02612375 0.0087921044)
(4.1924053 0.02584219 0.0092410417)
(4.1973342 0.024940716 0.0077796747)
(4.2014478 0.024688877 0.0083272132)
(4.2048774 0.023857256 0.0070513451)
(4.2078949 0.023656357 0.0076978583)
(4.2105202 0.022895214 0.0065475374)
(4.2129531 0.022749148 0.0072493829)
(4.2151223 0.022067665 0.0062053803)
(4.2173836 0.021967293 0.0069500949)
(4.2194907 0.021371031 0.006000493)
(4.2217884 0.02132745 0.0067655034)
(4.2239278 0.020815256 0.005882852)
(4.2264662 0.020857846 0.0067146674)
(4.2289358 0.02042344 0.0058873272)
(4.2318013 0.02055399 0.0067295445)
(4.2345378 0.020236922 0.0059569766)
(4.2377677 0.020437266 0.0068196106)
(4.2409666 0.02020715 0.0060993665)
(4.2446117 0.020484219 0.0069600823)
(4.2482003 0.02036423 0.0062765875)
(4.2523037 0.020729492 0.0071299391)
(4.2563894 0.020729542 0.0064747096)
(4.2608829 0.021215114 0.0073139272)
(4.2652652 0.021353494 0.0066963125)
(4.2701056 0.021932394 0.0075561267)
(4.2749036 0.022170668 0.0070107238)
(4.2800644 0.022851849 0.0078901212)
(4.2851099 0.023192682 0.0073723602)
(4.2905628 0.023950384 0.0082269284)
(4.2959635 0.024377139 0.007666174)
(4.3017059 0.025281989 0.0085050007)
(4.3073066 0.025961897 0.008170354)
(4.3134706 0.027102887 0.0092749931)
(4.3193626 0.027917589 0.0089470272)
(4.3256729 0.029159657 0.00993929)
(4.3317086 0.030115064 0.0096468157)
(4.3382101 0.031536504 0.0107134)
(4.3445379 0.032703584 0.010504057)
(4.351333 0.034332752 0.011639122)
(4.3579548 0.035825805 0.011565971)
(4.3649911 0.037729467 0.012853802)
(4.3720381 0.039376603 0.012913048)
(4.3796157 0.041879388 0.014476368)
(4.3869031 0.044238721 0.01485498)
(4.3951675 0.046746559 0.016531636)
(4.4036919 0.049738656 0.017363095)
(4.4123302 0.052394932 0.019277501)
(4.4218082 0.058399222 0.02043513)
(4.46203 0.01546744 0.066949439)
(4.4520014 0.014350189 0.063541195)
(4.442595 0.013282594 0.057617937)
(4.4340122 0.012531446 0.055120886)
(4.4248822 0.011698689 0.050316721)
(4.4172386 0.011295114 0.048980219)
(4.408601 0.010418832 0.044800493)
(4.401257 0.010150238 0.044105088)
(4.3931483 0.0094309126 0.040446263)
(4.386213 0.0092224219 0.040190084)
(4.3783593 0.0085833873 0.036934279)
(4.3716823 0.0084764966 0.037031481)
(4.364142 0.0078812923 0.033972055)
(4.3577716 0.0078304104 0.034336931)
(4.3504664 0.0072804093 0.031499778)
(4.34426 0.0072967157 0.032084004)
(4.337259 0.0068023922 0.029352077)
(4.3314138 0.0068721393 0.030141322)
(4.3246537 0.0064029154 0.027572716)
(4.3189607 0.0065217597 0.02851486)
(4.3125113 0.0060783025 0.025951912)
(4.3072322 0.0062226348 0.027050567)
(4.301097 0.005806084 0.024584775)
(4.2960616 0.0059941994 0.025802259)
(4.2903809 0.0056294379 0.023366072)
(4.2858151 0.0058497739 0.024740806)
(4.2805796 0.005511611 0.022431869)
(4.2762777 0.0057758708 0.023965926)
(4.2715173 0.0054669836 0.0216363)
(4.2677276 0.0057534638 0.023285192)
(4.263475 0.0054661028 0.021045588)
(4.2600715 0.0057885439 0.02287131)
(4.2562703 0.0055270801 0.02063625)
(4.2533757 0.0058736579 0.022609373)
(4.2500415 0.0056331737 0.020490817)
(4.2474589 0.0060156572 0.022663433)
(4.244524 0.0058073144 0.020560636)
(4.2423519 0.0062041844 0.022892879)
(4.2397232 0.0060081316 0.020914705)
(4.2376402 0.0064335603 0.023468128)
(4.2351177 0.0062321902 0.021475655)
(4.2330428 0.0066961878 0.024287268)
(4.2305674 0.0064822043 0.022384651)
(4.2281332 0.0069631921 0.025538687)
(4.2252784 0.0067499723 0.023731902)
(4.2222116 0.0072327304 0.027224399)
(4.2185088 0.0070142943 0.025635137)
(4.2141409 0.0075015856 0.02960088)
(4.2087466 0.0072653733 0.028234948)
(4.2023991 0.0077561001 0.032733713)
(4.1944203 0.0074975689 0.031695526)
(4.1853836 0.007992736 0.03677451)
(4.1741371 0.0077136658 0.036035396)
(4.1615472 0.0082559168 0.041729354)
(4.1462171 0.0079433215 0.041168447)
(4.129434 0.0084985087 0.047397285)
(4.1096991 0.0082371997 0.047232193)
(4.0887272 0.008793273 0.05384538)
(4.0651293 0.0087414938 0.054120631)
(4.0424315 0.0092275554 0.061277116)
(4.0172429 0.0098377274 0.063458248)
(3.9966253 0.010953907 0.072958934)
(3.975167 0.012919341 0.078491754)
(3.9679637 0.01552879 0.088706692)
(3.9655807 0.020963041 0.092999591)
(4.0108418 0.031799835 0.095241264)
(4.1270509 0.056043023 0.060415795)
(4.3184096 0.11246575 -0.094903661)
(4.8526545 0.25731285 -0.53859621)
(5.9253894 0.51895988 -1.710327)
(6.2395467 0.21587532 -1.6144827)
(5.7307662 0.14632428 -2.7285622)
(4.9305766 0.075737488 -2.5775439)
(4.9904298 0.086041632 -1.9844977)
(5.5241681 0.11523072 -2.163051)
(6.1141529 0.11165514 -1.496442)
(6.0525724 0.081750227 -1.0330414)
(5.8312105 0.11893856 -0.8606842)
(5.3374123 0.054167879 -0.38861792)
(4.9893962 0.024820801 -0.11190676)
(4.7459576 0.010645092 0.016650946)
(4.5610438 0.008479848 0.0776028)
(4.4759438 0.0046217867 0.10716388)
(4.3918685 0.0077312337 0.10976057)
(4.3710162 0.0068130984 0.11923976)
(4.3362808 0.0089396823 0.10933434)
(4.3370633 0.0086882773 0.11508491)
(4.3247838 0.0096743036 0.10289965)
(4.3318699 0.0096388232 0.10824389)
(4.3298031 0.010163044 0.094332845)
(4.3372763 0.0098537487 0.098385328)
(4.3373243 0.010309832 0.0846003)
(4.3444877 0.0098179164 0.088708537)
(4.3445527 0.010203115 0.07557007)
(4.3505915 0.0097685152 0.079682041)
(4.3498649 0.010009303 0.067672463)
(4.3549749 0.0096590812 0.072042375)
(4.3537007 0.0097745327 0.061188455)
(4.357981 0.0094245648 0.065835364)
(4.3563137 0.009471922 0.056225015)
(4.3601329 0.00911834 0.061134051)
(4.3583176 0.0091580871 0.05266446)
(4.362022 0.0088371416 0.057862528)
(4.3604774 0.008865881 0.050168639)
(4.3641806 0.0085628061 0.055445857)
(4.362673 0.0086079948 0.048660814)
(4.3672953 0.0082715122 0.053816576)
(4.36581 0.0084130548 0.047610882)
(4.3707912 0.0080405513 0.052805239)
(4.3694517 0.0082183566 0.047062904)
(4.3750949 0.0078705782 0.052536745)
(4.3742255 0.0080715978 0.047026)
(4.3804273 0.0077637575 0.052557801)
(4.379807 0.0079954654 0.047446857)
(4.3867156 0.0077205919 0.053252045)
(4.3865551 0.0079832658 0.04834105)
(4.3939773 0.0077389958 0.054160002)
(4.3940882 0.0080352223 0.049608383)
(4.4021945 0.0078224696 0.05567634)
(4.4028547 0.0081440195 0.051311006)
(4.4113833 0.0079748608 0.057319903)
(4.4123283 0.0083304819 0.053301211)
(4.4213576 0.0082017276 0.059576728)
(4.4229336 0.008582555 0.055809362)
(4.4323242 0.0085253217 0.062077999)
(4.4340704 0.0089430132 0.058615429)
(4.4438033 0.0089599041 0.065252516)
(4.4461508 0.0094182486 0.062147544)
(4.4562228 0.0094937076 0.068855781)
(4.4587069 0.0099743407 0.066098048)
(4.4690632 0.010118779 0.073121655)
(4.4720233 0.010622779 0.070720334)
(4.4826599 0.010848565 0.077910494)
(4.4857758 0.011392969 0.07594062)
(4.4966727 0.011708607 0.08358896)
(4.500236 0.012291903 0.08212594)
(4.5113976 0.012691327 0.090146053)
(4.5151826 0.013323818 0.089303611)
(4.5265534 0.013832979 0.098042129)
(4.5308069 0.014495805 0.097959071)
(4.5424343 0.015137595 0.10750479)
(4.5469219 0.015861906 0.10844964)
(4.5587012 0.016570157 0.11911789)
(4.5639463 0.017391049 0.1216208)
(4.5756289 0.018214284 0.13378076)
(4.5816292 0.019067256 0.13827851)
(4.388756 0.23673378 0.069086188)
(4.3844496 0.22505872 0.056606401)
(4.3744425 0.20674647 0.035847901)
(4.3606389 0.1935513 0.031169177)
(4.3535139 0.18123167 0.030745711)
(4.3480199 0.16418203 0.027361592)
(4.3427464 0.15597857 0.026459999)
(4.3384005 0.14903142 0.023530333)
(4.3339151 0.1416543 0.022271336)
(4.3294849 0.13542563 0.020106829)
(4.326093 0.12944176 0.019640331)
(4.3228219 0.12379324 0.017793675)
(4.3199797 0.118926 0.017748941)
(4.3171201 0.11438992 0.016243997)
(4.3146609 0.11024662 0.016281971)
(4.312213 0.10635081 0.014826342)
(4.3102822 0.10292826 0.014981799)
(4.308198 0.099712824 0.013640785)
(4.3064924 0.097086047 0.013720909)
(4.3048444 0.094653933 0.012320677)
(4.3037812 0.092717058 0.012607739)
(4.3025649 0.090720158 0.011468416)
(4.3018507 0.089235349 0.01191179)
(4.3011568 0.087713122 0.010818681)
(4.3010601 0.086690026 0.011356328)
(4.3008519 0.085531466 0.010356659)
(4.3010636 0.084916545 0.010974688)
(4.3012969 0.084117366 0.0099780619)
(4.3019207 0.083841935 0.01064024)
(4.3025414 0.083387264 0.0097186354)
(4.3033795 0.083403118 0.010437507)
(4.3041364 0.083304008 0.0095511021)
(4.3052859 0.083649295 0.01033559)
(4.3060466 0.083854337 0.0095374932)
(4.3071505 0.084566471 0.010399903)
(4.3078172 0.085040589 0.0095984086)
(4.3088638 0.086104826 0.010559129)
(4.3092802 0.086805846 0.0098461671)
(4.309845 0.088216457 0.010923119)
(4.3097755 0.089139642 0.010238299)
(4.3096656 0.09085578 0.011427516)
(4.3088624 0.091989811 0.010843186)
(4.3075311 0.093977348 0.012187723)
(4.3055229 0.095340443 0.011670953)
(4.3026036 0.097518367 0.013188963)
(4.298807 0.099116772 0.012825709)
(4.2936291 0.10146637 0.014552457)
(4.2872274 0.10328383 0.014323731)
(4.2791316 0.1057407 0.016297006)
(4.2692269 0.10771598 0.016212212)
(4.2575428 0.11027558 0.018391835)
(4.243544 0.11241155 0.018438868)
(4.227791 0.11515071 0.020882579)
(4.2089889 0.11763609 0.021182113)
(4.1885425 0.12090127 0.023858345)
(4.1646066 0.12400935 0.024266261)
(4.1392009 0.12824396 0.02714506)
(4.1097973 0.13251158 0.027634696)
(4.0801751 0.13824069 0.03048603)
(4.0461907 0.14491253 0.032362046)
(4.0121198 0.15390355 0.036574329)
(3.972164 0.16497493 0.040366643)
(3.9360613 0.18010664 0.046933687)
(3.8981063 0.20060243 0.055576191)
(3.8776282 0.22643973 0.061967827)
(3.8709657 0.25666894 0.049753688)
(3.8892434 0.3198537 -0.022186088)
(4.3525535 0.35758631 -0.446583)
(5.2483034 0.12290256 -2.9064564)
(3.9247766 1.1027896 -5.3137582)
(2.5600684 1.1454133 -3.9215982)
(2.2826561 1.2443103 -3.2887437)
(2.0572298 0.9380418 -3.5443016)
(1.7535268 0.31456548 -3.7053952)
(2.1165966 0.07903249 -3.2891135)
(2.6513626 0.10878173 -2.6774141)
(2.9719677 0.14714841 -2.1698291)
(3.5531185 0.13848369 -1.6441204)
(3.9418681 0.11770312 -1.139265)
(4.1678602 0.11257511 -0.84047806)
(4.3492724 0.099526598 -0.65300658)
(4.5081232 0.075063135 -0.64663872)
(4.6722759 0.057210954 -0.6294401)
(4.7902474 0.040595864 -0.57902286)
(4.8072352 0.03297127 -0.62924156)
(4.7544403 0.040955578 -0.69726813)
(4.6386541 0.04853416 -0.77579856)
(4.4221178 0.071621755 -0.82439963)
(4.3361633 0.07798711 -1.088688)
(4.3586928 0.075927809 -1.5057266)
(4.7218481 0.042314906 -1.2321868)
(4.6408239 0.045334665 -0.95145225)
(4.7872676 0.04769998 -0.80589194)
(4.8941434 0.056562401 -0.94736453)
(5.0952408 0.059031694 -1.0618782)
(4.992194 0.041555492 -1.4248448)
(5.5784717 -0.013467387 -1.3648468)
(5.9197701 -0.029813812 -0.91989038)
(5.86304 0.031524452 -0.68273084)
(5.5911204 0.011150871 -0.37870699)
(5.4233875 0.0013366693 -0.2325168)
(5.1617409 -0.0019941364 -0.071049337)
(5.0860498 0.00087778164 -0.024274423)
(4.9015041 0.0013380885 0.053277418)
(4.8882793 0.0056190652 0.06537344)
(4.7632364 0.005422654 0.097013018)
(4.7713679 0.0097893412 0.097837185)
(4.6849699 0.0083732667 0.11034198)
(4.7014141 0.011988272 0.10965973)
(4.6390305 0.01054699 0.11079257)
(4.6573536 0.013616556 0.10710641)
(4.6095206 0.011783951 0.10487984)
(4.6282635 0.014324458 0.10136666)
(4.5898023 0.012325924 0.097112966)
(4.6076633 0.014650178 0.094391198)
(4.575103 0.012540026 0.089549682)
(4.592829 0.014652299 0.088525476)
(4.5645347 0.012516677 0.083084605)
(4.5816958 0.014528862 0.083050654)
(4.5563315 0.012318988 0.077907171)
(4.573796 0.014164526 0.078418428)
(4.5506147 0.012009752 0.073918907)
(4.5681551 0.01380029 0.075371281)
(4.5468035 0.011689985 0.071094377)
(4.5644554 0.013392359 0.07285434)
(4.5444153 0.011377303 0.069227686)
(4.5623245 0.013042999 0.07135429)
(4.5435583 0.011142641 0.067923915)
(4.5616153 0.012735812 0.06979434)
(4.5436664 0.010929956 0.067143037)
(4.56221 0.01250432 0.069642389)
(4.5450941 0.010777487 0.067053477)
(4.5639317 0.01233178 0.069626834)
(4.5473227 0.010690244 0.067557449)
(4.5666825 0.012231895 0.070720956)
(4.5507893 0.010689253 0.068619366)
(4.5703262 0.012193257 0.071821846)
(4.5549142 0.010738436 0.070232321)
(4.5750064 0.012225474 0.074074201)
(4.5603454 0.010888968 0.072377113)
(4.5803308 0.012355505 0.076190587)
(4.5661773 0.011100465 0.074966486)
(4.5867729 0.012559233 0.079505565)
(4.5733588 0.011433401 0.078220219)
(4.5937623 0.012882687 0.082797343)
(4.5808433 0.011881853 0.081655202)
(4.601636 0.013292958 0.087493799)
(4.5894322 0.012425151 0.086304833)
(4.6100055 0.013813835 0.092271263)
(4.5982315 0.0130488 0.091354667)
(4.6191759 0.014433566 0.098371902)
(4.6080572 0.013804895 0.097475874)
(4.6286721 0.01513638 0.10485422)
(4.6180308 0.014645852 0.1042344)
(4.6388249 0.015950106 0.11285254)
(4.6288771 0.01561704 0.11234809)
(4.6492683 0.016801669 0.12164873)
(4.6398763 0.016637086 0.12149466)
(4.6602197 0.017742803 0.13234748)
(4.6515612 0.017753895 0.1324805)
(4.6714478 0.018661749 0.14460449)
(4.6633103 0.018890558 0.14533019)
(4.6828899 0.019517868 0.1595003)
(4.6754905 0.02000062 0.16097763)
(4.6941119 0.020230918 0.1772356)
(4.6873119 0.020960496 0.17997591)
(4.8036366 0.013322463 0.20762027)
(4.8020296 0.013585497 0.19088439)
(4.7990132 0.013643971 0.17518096)
(4.7963161 0.013344914 0.16254337)
(4.7925197 0.012957875 0.15020914)
(4.789619 0.012456574 0.14062596)
(4.7858362 0.012016687 0.13087386)
(4.7834383 0.011500103 0.12369023)
(4.7801801 0.011122986 0.11599115)
(4.7786402 0.010646928 0.11073817)
(4.7762609 0.010357204 0.10472368)
(4.7759673 0.0099523068 0.10108588)
(4.7749913 0.0098540794 0.09654749)
(4.7762075 0.0095354896 0.094331002)
(4.7773092 0.0095365924 0.091257768)
(4.7798732 0.009328998 0.090252561)
(4.7831623 0.0093463255 0.088460728)
(4.7882153 0.0091014951 0.088658279)
(4.7944687 0.0091424111 0.088045848)
(4.8031269 0.0090061349 0.089279619)
(4.8135486 0.0090679684 0.089883305)
(4.8275797 0.0087779299 0.092281317)
(4.8448275 0.0085078482 0.094108929)
(4.8673391 0.0079874851 0.096746873)
(4.8971564 0.0069795732 0.09922491)
(4.9374687 0.0053901684 0.10009472)
(4.9899559 0.0032576266 0.098096781)
(5.0605512 -0.00022745947 0.088047226)
(5.153578 -0.0051634834 0.065152904)
(5.2791353 -0.011921416 0.014912255)
(5.439231 -0.02021068 -0.078020915)
(5.6333634 -0.02648299 -0.25316203)
(5.8379853 -0.030708738 -0.53991139)
(5.7293207 -0.041388385 -0.53481808)
(5.6732163 -0.037322387 -0.78081617)
(5.4017144 0.011370022 -1.016382)
(5.3015809 0.055071354 -0.79271659)
(5.4877245 0.027153598 -0.60024)
(5.5654052 0.021139395 -0.46368387)
(5.579525 -0.0019997679 -0.33879522)
(5.6921348 -0.035028189 -0.36158806)
(5.6176626 -0.029704772 -0.2119983)
(5.5397599 -0.024272274 -0.12257574)
(5.4501922 -0.019142896 -0.046390054)
(5.3792353 -0.015314968 -0.004349118)
(5.3094809 -0.011297909 0.029921035)
(5.2592258 -0.009190996 0.048732103)
(5.2086245 -0.0058320393 0.064244033)
(5.1748271 -0.0051268028 0.07379887)
(5.1390674 -0.0026533622 0.080893726)
(5.1167037 -0.002458316 0.086303334)
(5.0912528 -0.00032057986 0.089620597)
(5.0763994 -0.00047472387 0.093820832)
(5.0578891 0.0013827909 0.095752363)
(5.0478251 0.001074884 0.099674317)
(5.0341086 0.0026791846 0.10180713)
(5.0271916 0.0022620094 0.10621801)
(5.0170693 0.003662526 0.10891791)
(5.0121156 0.0032061794 0.11414519)
(5.0045402 0.0044240526 0.11779198)
(5.0007906 0.0039561958 0.12433075)
(4.9948785 0.0050064926 0.1291938)
(4.9919413 0.0045541079 0.13710609)
(4.9870616 0.0054571088 0.14347331)
(4.9845512 0.0049780404 0.15269571)
(4.9800992 0.0057255643 0.16085363)
(4.977459 0.0051789634 0.17165129)
(4.9728458 0.0057282536 0.18185637)
(4.9694592 0.0050247651 0.19446188)
(4.9639402 0.0052829662 0.20687048)
(4.9589914 0.0042494297 0.22135943)
(4.9516458 0.0039749523 0.23604046)