/*--------------------------------*- C++ -*----------------------------------*\
| =========                 |                                                 |
| \\      /  F ield         | OpenFOAM: The Open Source CFD Toolbox           |
|  \\    /   O peration     | Version:  v2012                                 |
|   \\  /    A nd           | Website:  www.openfoam.com                      |
|    \\/     M anipulation  |                                                 |
\*---------------------------------------------------------------------------*/
FoamFile
{
    version     2.0;
    format      ascii;
    class       volScalarField;
    location    "400";
    object      k;
}
// * * * * * * * * * * * * * * * * * * * * * * * * * * * * * * * * * * * * * //

dimensions      [0 2 -2 0 0 0 0];


internalField   nonuniform List<scalar> 
227544
(
0.3852693
0.39801076
0.42235794
0.47181924
0.54891235
0.72723086
0.82418146
0.78941037
0.82644031
0.79837579
0.79346267
0.75801627
0.75201139
0.74411749
0.71872527
0.70547086
0.67882919
0.66970771
0.66069607
0.6497447
0.63422263
0.62507749
0.61825624
0.60718415
0.59897289
0.5925101
0.58675144
0.57876891
0.57296611
0.56793978
0.56353771
0.55946518
0.55350791
0.54830947
0.54396356
0.54025698
0.53690926
0.53231257
0.52810343
0.52422114
0.52065592
0.5174696
0.51438337
0.51085156
0.50723406
0.50383362
0.50062814
0.49779843
0.49467646
0.49196864
0.48976704
0.48696811
0.48377913
0.48093298
0.47837811
0.47585483
0.47275569
0.46905451
0.46610679
0.46384906
0.46111365
0.45840709
0.45596597
0.45362313
0.45120769
0.44900461
0.4470564
0.4448401
0.44270009
0.44072976
0.43895882
0.43702416
0.43525475
0.43387052
0.43266628
0.43076368
0.42889652
0.42705931
0.4254995
0.42385664
0.42186793
0.41908004
0.41626101
0.41335901
0.41052817
0.4076033
0.40467955
0.40182852
0.39893664
0.39626551
0.39348341
0.39082854
0.38821909
0.38562964
0.38327801
0.3808086
0.3784433
0.37622362
0.37398697
0.37191305
0.36994958
0.36801306
0.36621049
0.36469951
0.3636638
0.36259857
0.3616581
0.36068415
0.36008164
0.35935853
0.35852301
0.35761361
0.35668815
0.35576353
0.35489558
0.35411542
0.35320914
0.35227013
0.3513213
0.35038561
0.34948649
0.34873722
0.34787355
0.34695956
0.34601214
0.34505554
0.34408117
0.3431549
0.34221762
0.34120941
0.33996137
0.33857996
0.33722977
0.33592249
0.33458553
0.33332926
0.33248524
0.33173359
0.33107305
0.33023134
0.32958723
0.32891372
0.3282244
0.32749279
0.32676109
0.32607287
0.32540271
0.32466301
0.32390003
0.32313045
0.32236188
0.32159075
0.32081733
0.32000368
0.31933934
0.31856609
0.31775126
0.31715111
0.31660528
0.31561914
0.31456525
0.31359935
0.31284657
0.31201156
0.31117423
0.31035255
0.30951273
0.30877778
0.30801598
0.30729359
0.30661727
0.30583411
0.3050032
0.30415895
0.3032779
0.3023899
0.30150099
0.30071532
0.30007707
0.29911374
0.2980976
0.29717405
0.29618974
0.29540259
0.29458411
0.29378
0.29298011
0.29202069
0.29123232
0.29040773
0.28958601
0.2887171
0.28783379
0.28691672
0.28602468
0.28521223
0.28455599
0.28403684
0.2831634
0.2821639
0.28113281
0.28001567
0.27920279
0.27825416
0.27727477
0.27613819
0.27522033
0.27435441
0.27347741
0.27259629
0.27170644
0.27082694
0.26994276
0.26892071
0.26758921
0.26605639
0.26476391
0.26439805
0.26512876
0.26446646
0.26344984
0.26243166
0.26202954
0.26119823
0.26017077
0.25899354
0.25814891
0.25737019
0.25656443
0.25575978
0.25494717
0.25428581
0.25359495
0.25315219
0.2531101
0.25237477
0.25127047
0.25009628
0.24956107
0.24870257
0.2476156
0.24635116
0.24546379
0.2446831
0.24389323
0.24312219
0.24236197
0.24184514
0.24135112
0.24116857
0.24151697
0.24111072
0.24022357
0.23937925
0.23944785
0.2392244
0.23866175
0.23794236
0.23764358
0.23749243
0.23740471
0.23738006
0.23791794
0.24140017
0.24778315
0.27477228
0.29033121
0.28579457
0.27756424
0.2662425
0.25692274
0.24972092
0.24279369
0.23639034
0.23028594
0.39138407
0.4092886
0.40925235
0.42224861
0.46913789
0.51330831
0.57908643
0.65097533
0.69730934
0.56545696
0.52946053
0.45457993
0.44100952
0.40701056
0.4037585
0.38930372
0.38494482
0.4052608
0.39944694
0.4195516
0.42875207
0.47369649
0.49719232
0.54103673
0.52313508
0.55560789
0.59735009
0.62309323
0.66367808
0.57586599
0.66038127
0.62765363
0.7527501
0.92111584
0.83688677
0.73295005
0.73616413
0.77351187
0.85912147
0.82016287
0.8671942
0.83482965
0.84113373
0.79823208
0.7839679
0.77484876
0.74208799
0.72545036
0.69660584
0.68533896
0.67259281
0.66303442
0.64503207
0.63343944
0.62649848
0.61501556
0.60689759
0.59845668
0.59232873
0.58418809
0.57830323
0.57208473
0.56681534
0.56256137
0.55674113
0.55117633
0.54647161
0.54218964
0.53845934
0.53437809
0.53039172
0.5259849
0.52213689
0.51851663
0.51529282
0.51206591
0.50859074
0.5048832
0.50154055
0.49850788
0.49544604
0.49246007
0.48998098
0.48771684
0.4848537
0.48171478
0.47904182
0.47671121
0.47427836
0.470771
0.47564396
0.47772073
0.48014818
0.48310038
0.48647384
0.48916932
0.49104791
0.49378449
0.49716338
0.50027721
0.50352844
0.50701391
0.51092001
0.51481463
0.51740844
0.52078332
0.52504267
0.529142
0.53385042
0.53879165
0.54168109
0.54579558
0.55080348
0.55633948
0.56102881
0.56672297
0.57133885
0.57755362
0.58419092
0.59386327
0.59855713
0.60480398
0.61450809
0.62710256
0.63224269
0.63950317
0.64944073
0.66936672
0.67906681
0.69331591
0.71859798
0.72369701
0.73699537
0.77898554
0.7908712
0.83709558
0.84356414
0.90194611
0.88442674
0.94252111
0.87293273
0.76359142
0.67104535
0.67922977
0.61880552
0.77859206
0.64366969
0.62901376
0.58639351
0.50498444
0.44860191
0.4138623
0.39612412
0.38730266
0.33098313
0.33003948
0.32909934
0.32816155
0.32722502
0.32628882
0.32535218
0.3244145
0.32347538
0.32253457
0.32159201
0.32064782
0.31970226
0.31875573
0.31780874
0.31686193
0.31591601
0.31497173
0.3140299
0.31309135
0.31215692
0.31122743
0.31030369
0.30938641
0.30847625
0.30757388
0.30667984
0.30579461
0.30491859
0.30405209
0.30319533
0.30234845
0.3015115
0.30068445
0.29986718
0.29905951
0.29826117
0.29747184
0.2966911
0.29591851
0.29515355
0.29439567
0.29364426
0.2928987
0.29215831
0.2914224
0.29069027
0.2899612
0.28923447
0.28850935
0.28778511
0.28706105
0.28633645
0.2856106
0.28488281
0.28415241
0.2834187
0.28268102
0.28193866
0.28119093
0.28043705
0.27967618
0.27890719
0.27896284
0.27973252
0.28049394
0.28124825
0.28199633
0.28273895
0.28347682
0.28421067
0.28494115
0.28566895
0.28639476
0.28711927
0.28784319
0.28856724
0.28929213
0.29001859
0.29074736
0.29147915
0.29221468
0.29295466
0.29369978
0.2944507
0.29520808
0.2959725
0.29674451
0.29752464
0.29831334
0.299111
0.29991796
0.30073449
0.30156077
0.30239691
0.30324297
0.30409886
0.30496446
0.30583955
0.30672381
0.30761685
0.3085182
0.3094273
0.31034353
0.31126621
0.3121946
0.31312792
0.31406534
0.31500602
0.31594914
0.31689388
0.3178395
0.31878526
0.31973056
0.32067488
0.32161781
0.3225591
0.32349864
0.3244365
0.32537289
0.32630826
0.32724319
0.32817845
0.32911498
0.33005386
0.33099629
0.33102491
0.33008516
0.32914903
0.3282153
0.32728284
0.32635071
0.32541816
0.3244846
0.32354958
0.32261287
0.32167439
0.32073426
0.31979272
0.31885018
0.31790713
0.3169642
0.31602211
0.31508161
0.3141435
0.31320862
0.3122778
0.31135186
0.31043156
0.30951767
0.30861086
0.30771177
0.30682093
0.30593881
0.3050658
0.3042022
0.30334824
0.30250404
0.30166968
0.30084512
0.30003025
0.29922485
0.29842869
0.29764143
0.29686267
0.29609195
0.29532875
0.29457254
0.29382271
0.29307864
0.29233964
0.29160503
0.29087411
0.29014616
0.28942046
0.28869629
0.28797291
0.28724962
0.28652572
0.28580047
0.28507321
0.28434326
0.28360993
0.28287261
0.28213054
0.28138302
0.2806293
0.27986848
0.2790996
0.27932911
0.28009694
0.28085675
0.28160948
0.28235609
0.28309719
0.28383357
0.284566
0.28529503
0.28602134
0.28674559
0.28746844
0.28819064
0.28891287
0.28963582
0.29036022
0.2910868
0.29181626
0.29254933
0.29328669
0.29402903
0.29477703
0.29553131
0.29629245
0.29706101
0.2978375
0.29862238
0.29941605
0.30021882
0.30103096
0.30185266
0.30268404
0.30352513
0.30437587
0.30523614
0.3061057
0.30698426
0.30787142
0.30876674
0.3096697
0.31057967
0.31149594
0.31241776
0.31334437
0.31427495
0.31520868
0.31614473
0.31708231
0.31802068
0.3189591
0.31989697
0.32083379
0.32176916
0.32270285
0.32363476
0.32456496
0.32549372
0.32642149
0.32734885
0.32827658
0.32920565
0.3301372
0.33107247
0.33114258
0.33021392
0.32928911
0.32836692
0.32744618
0.3265259
0.32560527
0.32468366
0.32376062
0.32283586
0.3219093
0.32098099
0.3200512
0.31912028
0.31818873
0.31725717
0.31632629
0.31539683
0.3144696
0.31354539
0.31262502
0.31170929
0.31079896
0.3098948
0.30899751
0.30810771
0.30722591
0.30635256
0.30548804
0.30463264
0.3037866
0.30295003
0.30212299
0.30130545
0.30049728
0.29969831
0.29890827
0.29812684
0.29735363
0.29658818
0.29582999
0.29507851
0.29433317
0.29359332
0.29285831
0.29212747
0.2914001
0.2906755
0.28995296
0.28923175
0.28851117
0.28779052
0.28706911
0.28634625
0.28562128
0.28489352
0.28416236
0.28342725
0.28268744
0.28194217
0.28119082
0.2804323
0.28088057
0.281638
0.28238824
0.28313238
0.28387101
0.28460489
0.28533475
0.2860611
0.28678457
0.28750579
0.28822544
0.28894419
0.28966273
0.29038173
0.29110191
0.29182398
0.29254864
0.2932766
0.29400853
0.29474512
0.29548701
0.29623482
0.29698913
0.29775048
0.29851937
0.29929625
0.3000815
0.30087544
0.30167833
0.30249035
0.30331161
0.30414216
0.30498194
0.30583083
0.3066886
0.30755497
0.30842955
0.30931191
0.31020154
0.31109785
0.31200012
0.3129076
0.31381952
0.31473509
0.31565349
0.31657396
0.31749571
0.318418
0.31934016
0.32026159
0.32118181
0.32210046
0.32301731
0.3239323
0.32484556
0.32575738
0.32666825
0.32757887
0.32849008
0.32940289
0.3303185
0.33123819
0.33136195
0.33045389
0.32955018
0.32864951
0.32775064
0.32685251
0.32595421
0.32505501
0.32415436
0.32325195
0.32234763
0.32144142
0.32053354
0.31962432
0.31871423
0.31780385
0.31689382
0.31598488
0.31507777
0.31417325
0.31327212
0.31237516
0.31148317
0.31059686
0.30971696
0.30884404
0.30797859
0.30712106
0.3062718
0.30543111
0.30459919
0.30377619
0.30296214
0.30215701
0.3013607
0.30057302
0.29979371
0.29902248
0.29825893
0.29750264
0.29675311
0.29600981
0.29527217
0.29453958
0.29381139
0.29308694
0.29236556
0.29164654
0.29092921
0.29021284
0.28949674
0.28878023
0.28806262
0.28734325
0.28662147
0.28589667
0.2851682
0.28443559
0.28369813
0.28295512
0.28220598
0.28144967
0.28214293
0.28289894
0.28364754
0.28438985
0.28512648
0.28585807
0.28658526
0.28730855
0.28802861
0.28874604
0.28946146
0.29017554
0.29088895
0.29160236
0.29231648
0.293032
0.29374962
0.29447001
0.29519385
0.2959218
0.29665448
0.2973925
0.29813641
0.29888675
0.29964397
0.30040852
0.30118076
0.30196099
0.30274946
0.30354633
0.30435173
0.30516566
0.30598809
0.30681889
0.30765785
0.30850469
0.30935904
0.31022047
0.31108851
0.31196259
0.31284201
0.31372606
0.31461396
0.3155049
0.31639812
0.31729287
0.31818842
0.31908408
0.31997923
0.3208733
0.32176586
0.3226566
0.32354535
0.3244321
0.32531704
0.32620053
0.32708316
0.3279657
0.32884912
0.32973458
0.33062335
0.33151682
0.33258934
0.33170705
0.33083154
0.32996117
0.32909444
0.32822998
0.32736656
0.32650314
0.32563888
0.32477315
0.32390552
0.32303577
0.32216386
0.32128991
0.32041421
0.31953717
0.3186593
0.3177812
0.31690353
0.31602699
0.31515231
0.31428023
0.3134116
0.31254717
0.31168764
0.31083367
0.30998584
0.3091446
0.30831038
0.30748353
0.30666433
0.30585299
0.30504963
0.30425432
0.30346703
0.30268766
0.30191603
0.30115193
0.30039506
0.29964507
0.29890153
0.29816401
0.29743197
0.29670489
0.29598217
0.29526319
0.29454732
0.29383388
0.2931222
0.2924116
0.2917014
0.29099089
0.29027941
0.28956629
0.28885085
0.2881325
0.2874106
0.28668455
0.28595387
0.28521786
0.28447588
0.28372734
0.28297139
0.28394533
0.28470223
0.28545132
0.2861936
0.28692951
0.28765977
0.28838506
0.28910586
0.28982275
0.29053633
0.29124723
0.29195613
0.29266369
0.2933706
0.29407753
0.29478515
0.29549416
0.29620519
0.2969189
0.29763594
0.2983569
0.29908236
0.29981285
0.30054885
0.3012908
0.30203909
0.30279406
0.303556
0.3043251
0.30510154
0.30588539
0.30667667
0.30747532
0.30828121
0.30909412
0.30991378
0.31073985
0.3115719
0.31240949
0.31325206
0.31409895
0.3149495
0.31580297
0.31665849
0.31751532
0.31837275
0.31923012
0.3200868
0.32094222
0.32179591
0.3226475
0.32349676
0.3243436
0.32518812
0.32603059
0.32687152
0.32771161
0.32855177
0.32939314
0.33023705
0.33108498
0.33193857
0.33279958
0.33305454
0.33221947
0.33139258
0.33057194
0.32975576
0.3289424
0.32813041
0.32731855
0.32650578
0.3256913
0.32487455
0.32405515
0.32323296
0.32240798
0.32158042
0.32075058
0.3199189
0.31908589
0.31825217
0.31741835
0.31658512
0.31575321
0.31492358
0.31409691
0.31327384
0.312455
0.31164095
0.31083214
0.31002898
0.30923181
0.3084409
0.30765648
0.30687868
0.30610758
0.30534317
0.30458538
0.30383409
0.30308908
0.30235012
0.30161688
0.300889
0.30016606
0.29944758
0.29873307
0.29802198
0.29731372
0.29660768
0.29590321
0.29519967
0.2944964
0.2937927
0.29308793
0.29238138
0.29167242
0.29096038
0.29024468
0.28952464
0.28879966
0.28806931
0.28733293
0.28658984
0.28583956
0.28508116
0.28639128
0.28715265
0.28790543
0.28865054
0.28938845
0.29011988
0.2908454
0.2915655
0.29228079
0.29299195
0.29369956
0.29440427
0.29510673
0.29580762
0.29650759
0.29720733
0.2979075
0.29860874
0.29931164
0.30001682
0.30072483
0.3014362
0.30215139
0.30287086
0.30359498
0.30432412
0.30505855
0.3057985
0.30654412
0.30729554
0.30805279
0.30881587
0.30958468
0.31035906
0.3111388
0.31192361
0.31271314
0.31350698
0.31430468
0.31510569
0.3159094
0.31671517
0.31752239
0.31833001
0.31913728
0.31994355
0.3207482
0.32155069
0.32235052
0.32314731
0.3239408
0.32473088
0.32551758
0.32630114
0.32708203
0.32786092
0.32863875
0.32941666
0.33019605
0.33097857
0.33176602
0.33256039
0.33336381
0.33374004
0.33297532
0.33222065
0.33147364
0.33073204
0.3299938
0.32925706
0.32852024
0.32778198
0.32704122
0.32629715
0.32554918
0.32479699
0.32404044
0.32327959
0.32251464
0.32174592
0.32097389
0.32019907
0.31942203
0.31864345
0.31786409
0.31708515
0.31630713
0.31553067
0.31475638
0.31398479
0.31321641
0.31245162
0.31169077
0.31093419
0.31018209
0.30943467
0.30869205
0.30795425
0.30722128
0.30649304
0.30576942
0.30505021
0.30433517
0.30362398
0.30291631
0.30221174
0.30150984
0.30081011
0.30011202
0.29941501
0.29871848
0.29802181
0.29732436
0.29662547
0.2959245
0.29522073
0.29451355
0.29380226
0.29308626
0.29236491
0.29163762
0.29090395
0.29016326
0.28941485
0.28865828
0.28789265
0.28959561
0.29036793
0.29113059
0.29188439
0.29262986
0.29336771
0.29409858
0.29482291
0.29554127
0.29625431
0.29696268
0.29766704
0.29836804
0.29906637
0.29976267
0.3004576
0.30115178
0.3018458
0.30254023
0.30323562
0.30393244
0.30463115
0.30533214
0.30603577
0.30674235
0.30745214
0.30816533
0.30888208
0.30960247
0.31032654
0.31105428
0.31178559
0.31252032
0.31325826
0.31399914
0.31474264
0.31548838
0.31623594
0.31698483
0.31773447
0.31848427
0.31923359
0.31998188
0.32072803
0.3214711
0.32221041
0.32294539
0.32367552
0.32440038
0.3251197
0.3258333
0.32654122
0.32724366
0.32794106
0.32863413
0.32932384
0.33001146
0.33069854
0.33138693
0.33207879
0.33277647
0.33348257
0.33419982
0.33543936
0.33476496
0.33410611
0.33345955
0.33282206
0.33219059
0.33156239
0.33093492
0.33030603
0.32967389
0.32903702
0.32839427
0.32774479
0.32708804
0.32642375
0.32575183
0.3250724
0.32438574
0.32369224
0.32299242
0.32228688
0.32157636
0.32086207
0.3201449
0.3194255
0.31870454
0.31798263
0.31726036
0.31653824
0.31581674
0.31509626
0.31437716
0.31365975
0.31294429
0.31223097
0.31151992
0.31081122
0.3101049
0.30940092
0.3086992
0.3079996
0.30730191
0.30660589
0.30591124
0.30521763
0.30452465
0.30383187
0.30313877
0.30244484
0.30174951
0.3010522
0.30035225
0.29964903
0.29894185
0.29823006
0.29751298
0.29678998
0.29606038
0.29532358
0.29457913
0.29382635
0.29306462
0.29229339
0.29151197
0.29364362
0.29443792
0.29522121
0.29599426
0.2967576
0.29751191
0.29825787
0.29899595
0.29972678
0.30045104
0.3011694
0.30188256
0.30259118
0.30329593
0.30399745
0.30469638
0.30539325
0.3060886
0.30678289
0.30747659
0.30817008
0.30886368
0.30955764
0.3102522
0.31094752
0.31164374
0.3123409
0.31303902
0.31373805
0.31443789
0.31513839
0.31583934
0.31654049
0.31724152
0.31794206
0.31864172
0.31934003
0.32003648
0.32073053
0.32142154
0.32210887
0.32279185
0.32346976
0.3241419
0.32480671
0.32546334
0.32611116
0.32674963
0.32737833
0.32799699
0.32860549
0.32920394
0.32979265
0.33037226
0.33094371
0.33150833
0.33206784
0.33262435
0.33318039
0.33373893
0.33430323
0.33487693
0.3354639
0.33606807
0.33685052
0.33633309
0.33583422
0.33534909
0.334873
0.33440159
0.33393102
0.33345783
0.33297912
0.33249248
0.331996
0.33148822
0.33096813
0.33043506
0.3298887
0.32932897
0.32875601
0.32817013
0.32757179
0.32696157
0.32634018
0.3257086
0.32506883
0.32442135
0.32376689
0.32310617
0.32243987
0.32176866
0.32109315
0.32041392
0.3197315
0.31904637
0.31835895
0.31766966
0.31697885
0.31628683
0.31559384
0.31490009
0.31420573
0.31351085
0.3128155
0.31211966
0.31142328
0.31072622
0.31002831
0.30932931
0.30862893
0.30792679
0.30722249
0.30651555
0.30580544
0.30509157
0.30437333
0.30365003
0.302921
0.30218551
0.30144288
0.30069236
0.29993331
0.29916523
0.2983874
0.29759911
0.2967998
0.29598882
0.2985304
0.29936322
0.30018351
0.30099191
0.30178908
0.3025758
0.30335281
0.30412067
0.3048801
0.3056319
0.3063768
0.30711556
0.30784889
0.30857749
0.30930193
0.31002278
0.31074055
0.3114556
0.3121683
0.31287891
0.31358762
0.31429455
0.31499977
0.31570327
0.31640498
0.3171048
0.31780251
0.31849788
0.31919061
0.31988038
0.32056678
0.32124937
0.32192766
0.32260113
0.32326921
0.32393132
0.3245868
0.32523499
0.32587518
0.32650666
0.32712864
0.32774039
0.32834113
0.32893077
0.32950675
0.33006791
0.33061344
0.33114274
0.33165528
0.3321507
0.33262882
0.33308965
0.33353345
0.33396084
0.33437284
0.33477098
0.33515729
0.33553443
0.33590564
0.3362748
0.33664633
0.33702533
0.33741745
0.33782869
0.33905215
0.33876836
0.33850265
0.33824784
0.33799734
0.33774546
0.33748739
0.33721891
0.33693643
0.33663716
0.33631903
0.33598053
0.33562068
0.33523897
0.33483522
0.33440945
0.33396188
0.3334929
0.33300302
0.3324929
0.33196344
0.33141613
0.33085397
0.33027653
0.32968468
0.32907927
0.32846119
0.32783129
0.32719042
0.32653941
0.32587909
0.32521022
0.32453355
0.32384982
0.32315968
0.32246379
0.32176273
0.32105705
0.32034722
0.31963368
0.3189168
0.31819687
0.31747417
0.31674881
0.31602091
0.31529046
0.31455742
0.31382161
0.3130828
0.31234066
0.31159478
0.31084462
0.3100896
0.30932903
0.30856215
0.30778817
0.30700625
0.30621552
0.30541514
0.30460446
0.30378259
0.30294876
0.30210236
0.30124271
0.30407966
0.30497216
0.30585047
0.3067154
0.3075676
0.30840803
0.30923768
0.31005736
0.31086807
0.31167083
0.31246658
0.3132562
0.31404052
0.31482022
0.31559592
0.31636809
0.3171371
0.31790317
0.31866643
0.31942691
0.32018454
0.32093915
0.32169046
0.32243813
0.32318172
0.32392068
0.32465443
0.32538231
0.32610358
0.32681744
0.32752304
0.32821949
0.3289058
0.32958099
0.33024403
0.33089385
0.33152936
0.33214946
0.33275304
0.33333901
0.33390631
0.33445391
0.33498086
0.33548634
0.33596959
0.33642776
0.33685972
0.33726481
0.33764258
0.33799275
0.33831522
0.33861001
0.33887731
0.33911751
0.33933158
0.33952104
0.33968795
0.33983521
0.33996679
0.34008727
0.34020162
0.34031571
0.34043661
0.3405724
0.34073211
0.34241882
0.34242622
0.34245367
0.34249201
0.34253313
0.34256995
0.34259645
0.34260679
0.34259523
0.3425577
0.34249163
0.34239494
0.3422657
0.34210261
0.34190516
0.34167295
0.34140558
0.34110283
0.34076468
0.34039141
0.33998372
0.3395431
0.3390736
0.33857501
0.33804851
0.33749543
0.33691718
0.33631526
0.33569119
0.33504654
0.33438283
0.33370161
0.33300435
0.33229251
0.33156744
0.33083049
0.3300829
0.32932589
0.32856053
0.32778788
0.32700886
0.32622436
0.32543512
0.32464183
0.32384505
0.32304525
0.32224277
0.32143787
0.32063066
0.31982114
0.31900912
0.31819434
0.31737635
0.31655454
0.31572816
0.31489634
0.31405804
0.31321217
0.31235753
0.31149291
0.31061726
0.30972927
0.30882794
0.30791238
0.30698182
0.30986577
0.31083967
0.31179739
0.31273995
0.31366845
0.31458432
0.31548913
0.31638426
0.31727125
0.31815159
0.31902658
0.31989739
0.32076503
0.32163037
0.32249395
0.32335621
0.32421737
0.32507753
0.32593655
0.32679419
0.32765003
0.32850354
0.32935405
0.33020077
0.33104279
0.33187908
0.3327085
0.33352983
0.33434168
0.33514261
0.33593104
0.33670529
0.33746361
0.33820414
0.3389249
0.33962384
0.34029883
0.34094768
0.34156814
0.34215797
0.34271493
0.34323684
0.34372166
0.34416751
0.34457533
0.34493945
0.34525755
0.34552853
0.3457521
0.34592858
0.34605886
0.34614423
0.34618592
0.34618492
0.34614292
0.34606244
0.34594748
0.34580077
0.34562543
0.34543073
0.34522469
0.34501356
0.34480417
0.34460398
0.34442132
0.34635534
0.3466911
0.34705613
0.3474419
0.34784018
0.34824312
0.34864324
0.3490328
0.3494014
0.34973865
0.35004375
0.35031177
0.350528
0.35068996
0.35079476
0.3508402
0.35082375
0.35074287
0.35059622
0.35038383
0.35010702
0.34976839
0.3493728
0.34892647
0.34842918
0.34788415
0.34729472
0.34666425
0.34599609
0.34529346
0.34455952
0.3437973
0.34300966
0.34219932
0.34136885
0.34052063
0.33965689
0.33877973
0.33789112
0.33699288
0.33608669
0.33517407
0.33425642
0.33333502
0.33241102
0.33148538
0.33055901
0.32963256
0.32870663
0.32778159
0.32685767
0.3259349
0.32501311
0.32409188
0.32317063
0.32224842
0.32132408
0.32039624
0.31946329
0.31852342
0.31757466
0.31661514
0.31564279
0.31465577
0.31365255
0.3126319
0.31515406
0.31622369
0.31727398
0.31830671
0.31932409
0.32032869
0.3213232
0.32231012
0.323292
0.32427119
0.32524955
0.32622877
0.32721018
0.32819475
0.32918311
0.33017567
0.33117255
0.33217367
0.3331787
0.33418713
0.33519826
0.33621123
0.33722501
0.33823846
0.33925025
0.34025892
0.34126282
0.3422602
0.34324911
0.34422741
0.3451928
0.34614279
0.34707474
0.34798574
0.34887269
0.34973218
0.35056057
0.35135394
0.35210815
0.3528188
0.35348127
0.35409069
0.35464206
0.35513027
0.35555023
0.35590024
0.3561695
0.35635172
0.35644232
0.35643835
0.35633903
0.35614602
0.35586294
0.35550033
0.35507462
0.3545873
0.35405815
0.35349713
0.35291244
0.35230739
0.35168777
0.3510616
0.35043757
0.34982555
0.34923615
0.34868081
0.35062025
0.35139927
0.35223169
0.35310243
0.35399787
0.35490509
0.35581206
0.35670794
0.35758243
0.35842557
0.35922841
0.35998213
0.36067867
0.36131788
0.36188399
0.36234669
0.36267262
0.36285278
0.3628926
0.36280071
0.36258721
0.36226286
0.36183954
0.36133311
0.36074527
0.36008396
0.3593566
0.35857013
0.35773096
0.35684503
0.35591786
0.35495453
0.35395976
0.35293788
0.35189287
0.35082831
0.34974745
0.34865328
0.34754856
0.34643583
0.3453174
0.34419541
0.34307179
0.34194831
0.34082657
0.33970802
0.33859395
0.33748549
0.3363836
0.33528908
0.33420252
0.33312434
0.33205467
0.33099343
0.32994022
0.32889439
0.32785484
0.3268202
0.32578848
0.32475733
0.32372387
0.3226849
0.32163707
0.32057664
0.31950007
0.31840429
0.31728689
0.31885483
0.32001595
0.32115182
0.32226613
0.3233634
0.32444863
0.32552682
0.32660242
0.32767958
0.32876172
0.32985163
0.33095147
0.33206284
0.33318681
0.33432405
0.33547494
0.33663956
0.33781771
0.33900898
0.34021274
0.34142812
0.34265412
0.34388952
0.34513298
0.34638301
0.34763797
0.34889603
0.35015527
0.35141352
0.35266846
0.35391748
0.35515767
0.35638588
0.35759863
0.35879209
0.35996192
0.36110326
0.3622108
0.36327879
0.3643009
0.36527018
0.366179
0.36701893
0.36778075
0.36845429
0.36903323
0.3695047
0.36984937
0.37004978
0.37008742
0.36994312
0.36959702
0.36904717
0.36835287
0.3675325
0.36660444
0.36558422
0.36448565
0.36332271
0.36210978
0.36086187
0.35959405
0.3583216
0.35706001
0.35582597
0.35463713
0.35351263
0.35247319
0.35552873
0.35700301
0.3585843
0.36024502
0.36195935
0.36370324
0.36545442
0.3671902
0.36888633
0.37051873
0.37206333
0.37349581
0.37478858
0.37591156
0.37683129
0.37751733
0.37792567
0.37806506
0.37797989
0.37769808
0.3772451
0.37664365
0.37591456
0.37508217
0.37415003
0.37313107
0.37203669
0.37087717
0.36966186
0.36839918
0.36709666
0.36576104
0.36439837
0.36301422
0.36161367
0.36020111
0.35878038
0.35735498
0.35592809
0.35450269
0.35308131
0.35166599
0.35025857
0.34886076
0.34747427
0.34610066
0.34474139
0.34339774
0.3420709
0.34076192
0.33947172
0.33820095
0.33694996
0.33571885
0.33450749
0.3333155
0.33214228
0.33098675
0.32984734
0.32872174
0.32760682
0.32649856
0.32539186
0.32428077
0.32315849
0.32201809
0.32085307
0.31965798
0.31820377
0.3194601
0.32067393
0.32185043
0.32299807
0.32412634
0.32524492
0.32636301
0.32748807
0.32862619
0.32978206
0.33095903
0.33215933
0.33338424
0.3346346
0.33591096
0.33721374
0.33854326
0.33989978
0.34128317
0.34269282
0.34412754
0.34558619
0.34706768
0.34857097
0.35009494
0.35163831
0.35319978
0.35477825
0.35637286
0.35798237
0.35960449
0.36123582
0.36287307
0.36451291
0.36615194
0.36778629
0.36941121
0.3710214
0.37261111
0.37417366
0.37570127
0.37718509
0.37861506
0.37998034
0.38126903
0.38246747
0.38356948
0.38455868
0.3854125
0.38610704
0.38661495
0.3869029
0.38692713
0.38658888
0.38587517
0.38476548
0.38332932
0.38161029
0.37966623
0.37754692
0.37529702
0.37295921
0.37057655
0.36818652
0.36582078
0.36351549
0.36131275
0.35925101
0.35736766
0.36126141
0.36389363
0.36677542
0.36985866
0.37307522
0.37633213
0.3795819
0.38278262
0.38585938
0.38871943
0.39127223
0.39343072
0.39513103
0.3962621
0.3968532
0.39690857
0.39654756
0.39588438
0.3949754
0.39386778
0.39259687
0.39119207
0.38967862
0.38807882
0.38639456
0.38464136
0.38283264
0.38097983
0.37909397
0.37718572
0.37526421
0.37333718
0.37141095
0.36949026
0.36757919
0.36568088
0.36379705
0.3619295
0.3600809
0.35825545
0.35645909
0.3546945
0.35296037
0.35125495
0.3495781
0.34793048
0.3463125
0.34472442
0.34316647
0.34163946
0.34014512
0.33868568
0.33726197
0.33587354
0.33451909
0.33319765
0.33190852
0.33065131
0.32942564
0.32823108
0.32706606
0.32592739
0.32480976
0.32370588
0.32260662
0.32150007
0.32037261
0.31921063
0.31800106
0.31673559
0.31101594
0.31241699
0.3137471
0.31499918
0.31617499
0.31728793
0.31835867
0.31940668
0.32045037
0.32150487
0.32258171
0.3236901
0.32483573
0.32602049
0.32724341
0.32850304
0.32979906
0.33113195
0.33250323
0.33391539
0.3353723
0.33687659
0.33842568
0.34001288
0.34163451
0.34329088
0.34498412
0.34671613
0.34848788
0.35029962
0.35215452
0.35406148
0.35603105
0.35805308
0.3601109
0.36219876
0.36431709
0.36646895
0.36865866
0.37088737
0.37315332
0.37545294
0.37777983
0.38012634
0.38248406
0.38484223
0.38719062
0.38952002
0.39181863
0.39407076
0.39626709
0.39839721
0.40043481
0.40234711
0.40409685
0.40563631
0.40690151
0.40780793
0.40825877
0.40808667
0.4071385
0.4054297
0.40288448
0.39963879
0.3958197
0.3916398
0.38729853
0.38285491
0.3783008
0.37391657
0.36985005
0.36615205
0.36784435
0.37250762
0.37773985
0.38352731
0.38987739
0.39653978
0.40233371
0.40792094
0.41294742
0.41694995
0.41961564
0.42104438
0.42130827
0.42073168
0.41952231
0.41775328
0.41555198
0.41305492
0.41035074
0.40749759
0.40454169
0.40152025
0.39846928
0.39541263
0.39236004
0.389332
0.38634196
0.38339633
0.38049592
0.37764287
0.37484252
0.37209942
0.36942072
0.36682595
0.36432527
0.36190805
0.35956416
0.35727755
0.35502999
0.35280806
0.35061392
0.34849
0.34650347
0.34460162
0.34275741
0.34096142
0.33921465
0.3375144
0.33585409
0.33422565
0.33262468
0.331058
0.32954821
0.32810754
0.32672471
0.32538861
0.32409329
0.32283556
0.3216139
0.32042915
0.31928661
0.31819413
0.31715324
0.3161579
0.31519602
0.31425231
0.31330702
0.31233611
0.31131278
0.31020423
0.3089886
0.30766656
0.3062515
0.30475796
0.29801154
0.29954069
0.30097228
0.30228284
0.3034483
0.30446196
0.30535468
0.3061793
0.3069723
0.30776694
0.30858842
0.30945833
0.31039675
0.3114157
0.31250022
0.31362189
0.31477006
0.31594767
0.31716021
0.31841183
0.31971429
0.32109808
0.32260827
0.32417603
0.32574763
0.32732118
0.32891186
0.33053718
0.33221216
0.33392615
0.33564658
0.33736146
0.33922269
0.34163156
0.34397157
0.3462755
0.34854129
0.35082897
0.3532282
0.35575306
0.35840123
0.36131282
0.36432666
0.36742711
0.37059026
0.37380427
0.3771065
0.38058477
0.38423296
0.38803253
0.39198968
0.3960895
0.40028089
0.40452367
0.40878193
0.41302415
0.41720277
0.42128374
0.42523196
0.42888737
0.43204338
0.43459042
0.43637627
0.43715061
0.43651139
0.43396309
0.42915937
0.42274722
0.41634779
0.4060757
0.39679695
0.38846898
0.38115843
0.37428949
0.37481327
0.38277639
0.39314649
0.40334084
0.41552133
0.42889803
0.44076211
0.44597701
0.44607142
0.44587915
0.44873754
0.44957626
0.45126458
0.45099256
0.45141517
0.44964558
0.44951348
0.44684704
0.44629423
0.4433621
0.44228494
0.43939309
0.43794446
0.43512158
0.43330159
0.43044197
0.42824712
0.42541805
0.42311553
0.42060202
0.41831477
0.41595589
0.41360625
0.41132222
0.40890855
0.40670446
0.40425833
0.40214262
0.39967956
0.39765782
0.3952019
0.39328474
0.39086118
0.38902897
0.38666268
0.38494798
0.38264839
0.38106124
0.37880746
0.37731959
0.37510018
0.37377311
0.3716025
0.37040291
0.36826839
0.36709075
0.36498547
0.36382475
0.36174517
0.36062421
0.35857073
0.35751299
0.35551676
0.35455266
0.35272734
0.35170338
0.34991404
0.34900824
0.34722792
0.34649618
0.3447246
0.34410645
0.3423563
0.34172635
0.33999622
0.33931124
0.33760655
0.33689675
0.33527363
0.33407254
0.33089929
0.32623014
0.32336465
0.32758489
0.32564979
0.32377192
0.32189192
0.32004593
0.31836976
0.31676194
0.31521207
0.31362117
0.31196179
0.31021038
0.30899551
0.30792301
0.30681338
0.30570892
0.30463302
0.30357105
0.30250793
0.30145411
0.30047455
0.29963558
0.29890952
0.29825621
0.2976462
0.29704851
0.29641515
0.29569084
0.29478262
0.29366018
0.29234971
0.29089111
0.28931746
0.28765394
0.27725043
0.27898206
0.2806129
0.28211267
0.28343797
0.28450016
0.28541853
0.28594764
0.28630985
0.28663013
0.28698849
0.28740182
0.28784047
0.28847154
0.28972833
0.2909155
0.29204671
0.29318479
0.2943739
0.295729
0.29710248
0.29841595
0.2958881
0.29300461
0.29331273
0.29178714
0.29200656
0.29043221
0.29054402
0.28896519
0.28908875
0.2875476
0.2876361
0.28611578
0.28631796
0.28480924
0.28500825
0.28353707
0.283691
0.28228161
0.28176304
0.27787086
0.2715316
0.26843988
0.27573519