/*--------------------------------*- C++ -*----------------------------------*\
| =========                 |                                                 |
| \\      /  F ield         | OpenFOAM: The Open Source CFD Toolbox           |
|  \\    /   O peration     | Version:  v2012                                 |
|   \\  /    A nd           | Website:  www.openfoam.com                      |
|    \\/     M anipulation  |                                                 |
\*---------------------------------------------------------------------------*/
FoamFile
{
    version     2.0;
    format      ascii;
    class       volScalarField;
    location    "400";
    object      nut;
}
// * * * * * * * * * * * * * * * * * * * * * * * * * * * * * * * * * * * * * //

dimensions      [0 2 -1 0 0 0 0];


internalField   nonuniform List<scalar> 
227544
(
0.0040596375
0.0022568462
0.0016290393
0.0012116874
0.00097366099
0.00045026632
0.0005032796
0.00063277516
0.00084954675
0.00096723234
0.0015389403
0.0015979515
0.0020485755
0.0020372141
0.0023028214
0.0027347686
0.0028309966
0.0031177446
0.0031551512
0.0032269125
0.0034580442
0.0035153214
0.0035801343
0.0037896725
0.0038428922
0.003889827
0.003960871
0.0041683008
0.0042004613
0.004234757
0.0042739731
0.004325232
0.004470386
0.0045212518
0.0045590728
0.0045965313
0.0046443437
0.0047782692
0.0048094369
0.0048418908
0.0048752726
0.0049117049
0.0049542582
0.0050741924
0.0051202208
0.0051552123
0.0051898644
0.0052235508
0.0052551945
0.0052864363
0.0053229943
0.0054127733
0.0054482225
0.0054837609
0.0055185904
0.005572347
0.0057056312
0.0057558258
0.0057764739
0.0058026662
0.0058340206
0.0058613239
0.0058887017
0.0059146227
0.0059397845
0.0059653388
0.0059920416
0.0060168245
0.0060420463
0.0060677249
0.0060939716
0.0061184989
0.0061429212
0.0061686249
0.0062260925
0.0062682089
0.0062956838
0.0063271044
0.0063565634
0.0063968492
0.0064911388
0.006548348
0.0065699531
0.0065902377
0.0066136873
0.0066387202
0.0066657936
0.006694841
0.0067248278
0.0067571343
0.0067892783
0.0068227138
0.0068567624
0.0068910522
0.0069273628
0.006962681
0.00699873
0.0070359707
0.0070724501
0.0071092729
0.0071455402
0.0071780485
0.0072097366
0.0072406652
0.0072455062
0.0072621158
0.0073295956
0.0073684108
0.0073900168
0.0074152093
0.0074529062
0.0074829465
0.0075061889
0.0075281247
0.0075487804
0.007570244
0.0075896917
0.0076092369
0.0076279462
0.0076471476
0.0076659859
0.0076863724
0.007705123
0.0077239212
0.0077421217
0.0077610636
0.0077803274
0.0078024895
0.0078300966
0.0078753421
0.0079373355
0.0079616744
0.007981825
0.0080001476
0.0080166172
0.0080325708
0.0080343367
0.0080448291
0.0080862941
0.0081096481
0.0081220667
0.0081368733
0.0081601643
0.0081792769
0.0081943093
0.0082090255
0.0082226623
0.0082357936
0.0082480291
0.0082604254
0.008272163
0.0082841736
0.0082956627
0.0083083978
0.0083110441
0.0083138106
0.0083236292
0.0083553726
0.0084257385
0.0084454106
0.0084534936
0.0084611936
0.0084584958
0.0084597532
0.0084815398
0.0084820304
0.0084843864
0.008498652
0.0085081187
0.0085165961
0.0085240209
0.0085305473
0.0085362014
0.008542364
0.0085482789
0.0085558873
0.008567096
0.008592001
0.0086337922
0.008646477
0.0086515709
0.0086426764
0.0086367963
0.0086542824
0.0086620764
0.0086713945
0.0086648784
0.0086581178
0.0086653247
0.0086685864
0.0086706912
0.0086711172
0.0086717011
0.0086719299
0.0086742432
0.0086809856
0.0087019978
0.0087421927
0.0087539555
0.0087546727
0.0087389297
0.0087245658
0.008733724
0.0087309924
0.0087176652
0.0087017039
0.0086978478
0.0086947005
0.0086893881
0.0086841077
0.0086778416
0.0086719388
0.0086647508
0.0086536306
0.0086244189
0.0085888007
0.0085657165
0.0085821777
0.0086609348
0.0086651443
0.0086449468
0.0086275725
0.008642571
0.0086392479
0.0086210653
0.0085996336
0.0085946147
0.0085911763
0.0085853633
0.0085798695
0.0085739268
0.0085712002
0.0085717906
0.0085883858
0.0086297842
0.0086298577
0.0086043243
0.0085794633
0.0085872272
0.0085773492
0.008551965
0.0085221493
0.0085100781
0.0085011258
0.0084905485
0.008480832
0.0084712937
0.0084664055
0.0084656644
0.0084824759
0.0085260303
0.0085286027
0.0085035088
0.0084804668
0.0068790028
0.0066419328
0.0060564715
0.0060967479
0.0061910435
0.0060634702
0.0053723535
0.0057424192
0.003726005
0.00098225435
0.00048097519
0.00025623275
0.00057437138
0.0014999048
0.0016847572
0.0016513675
0.0021576249
0.0023246794
0.0024117726
0.0024749774
0.0025313653
0.003667416
0.0024813341
0.0025055591
0.0015169212
0.001313495
0.00079260474
0.00091342626
0.0006160397
0.00056813127
0.00064563491
0.0012563146
0.0013812656
0.0016132874
0.0025377068
0.002661352
0.0041254308
0.0044602964
0.003198003
0.003159638
0.0021289974
0.0019516753
0.0013759126
0.0012377158
0.00085618767
0.00098702041
0.0012285823
0.00068761279
0.00079509054
0.00068152208
0.00066354677
0.00070724236
0.00066755363
0.00040891246
0.00058289218
0.00061979262
0.00050919841
0.0006644361
0.00053850156
0.00064519034
0.00069735634
0.00084422269
0.00093296773
0.0013357882
0.0014276763
0.0021595454
0.0021766656
0.0022812302
0.0024726501
0.0027576629
0.0028151648
0.0028863293
0.0029409364
0.0031664273
0.0032526947
0.0033187014
0.0035189351
0.0035804378
0.0036592132
0.0037310315
0.0039238615
0.0039646676
0.0040247411
0.0040808379
0.0041332764
0.0042747361
0.0043369222
0.0043880733
0.0044407264
0.0044897239
0.0046147919
0.0046442949
0.0046943042
0.0047356377
0.0047796797
0.0048232216
0.0049322596
0.0049730304
0.0050260789
0.0050685059
0.0051082147
0.0051466366
0.0051847899
0.0052209641
0.005302856
0.0053324078
0.0053766682
0.005416454
0.0054565461
0.0055665052
0.0055786248
0.0054741918
0.0053513656
0.0053145286
0.0052734211
0.0052287311
0.0051296006
0.0051014294
0.005068427
0.0050240703
0.0049862207
0.0049496128
0.0049127882
0.004861806
0.0047268651
0.0046930356
0.0046562933
0.0046108173
0.0045747948
0.0045326783
0.0043901008
0.0043559601
0.0043171722
0.004267285
0.004218824
0.0041870141
0.0040316067
0.0039831516
0.0039322838
0.0038823859
0.0036858902
0.003644208
0.0035965524
0.0035324668
0.0033287016
0.003286776
0.003245156
0.0031914573
0.0029303713
0.0028786176
0.0025014686
0.0021393201
0.0025421544
0.0023036283
0.0020239403
0.0013182471
0.0014562175
0.00098253181
0.00089448407
0.00074828292
0.00052710256
0.0010813046
0.00085126555
0.0010524119
0.0011322381
0.00063501907
0.00054601998
0.00097834593
0.00081041094
0.00089259645
0.0011759675
0.0016600725
0.0020403524
0.002528101
0.0042818257
0.032926129
0.032914571
0.032902926
0.032891146
0.032879186
0.032867007
0.032854577
0.032841874
0.032828882
0.032815592
0.032802004
0.032788128
0.032773977
0.032759572
0.032744941
0.032730114
0.032715128
0.032700022
0.032684835
0.03266961
0.03265439
0.032639217
0.032624134
0.032609177
0.032594383
0.032579787
0.032565421
0.032551311
0.032537481
0.032523951
0.032510736
0.032497848
0.032485294
0.032473078
0.032461197
0.032449648
0.032438422
0.032427506
0.032416884
0.032406536
0.032396441
0.032386572
0.032376902
0.0323674
0.032358031
0.032348762
0.032339554
0.032330367
0.032321161
0.032311891
0.032302513
0.032292979
0.032283239
0.032273242
0.03226293
0.032252248
0.032241131
0.032229515
0.032217326
0.032204486
0.032190903
0.032176475
0.032161062
0.032164098
0.032179571
0.032194044
0.032207658
0.032220522
0.032232726
0.032244351
0.032255471
0.032266153
0.032276458
0.032286445
0.03229617
0.032305687
0.032315044
0.032324289
0.032333469
0.032342627
0.032351804
0.032361041
0.032370375
0.032379841
0.032389473
0.032399303
0.032409357
0.032419663
0.032430241
0.032441113
0.032452293
0.032463794
0.032475626
0.032487792
0.032500295
0.03251313
0.032526291
0.032539767
0.032553541
0.032567594
0.032581903
0.03259644
0.032611174
0.032626071
0.032641095
0.032656207
0.032671366
0.03268653
0.032701655
0.0327167
0.032731624
0.032746389
0.032760958
0.032775301
0.03278939
0.032803204
0.03281673
0.032829958
0.03284289
0.032855533
0.032867902
0.032880023
0.032891925
0.032903648
0.032915237
0.032926741
0.032928088
0.032916705
0.032905241
0.032893646
0.032881873
0.032869884
0.032857647
0.03284514
0.032832345
0.032819254
0.032805867
0.032792191
0.032778241
0.032764038
0.032749607
0.032734982
0.032720196
0.032705289
0.0326903
0.032675274
0.032660251
0.032645274
0.032630383
0.032615617
0.032601014
0.032586608
0.032572428
0.032558501
0.032544851
0.032531497
0.032518455
0.032505736
0.032493347
0.032481292
0.03246957
0.032458174
0.032447097
0.032436327
0.032425846
0.032415636
0.032405675
0.032395936
0.032386392
0.032377011
0.032367761
0.032358607
0.032349509
0.03234043
0.032331328
0.032322158
0.032312877
0.032303436
0.032293787
0.032283876
0.032273648
0.032263047
0.032252009
0.032240475
0.032228367
0.032215602
0.032202093
0.032187733
0.032172398
0.032186363
0.032201505
0.032215682
0.032229013
0.032241617
0.032253564
0.032264947
0.032275844
0.032286308
0.032296403
0.032306183
0.032315702
0.032325014
0.032334167
0.032343207
0.032352179
0.032361125
0.032370087
0.032379105
0.032388214
0.03239745
0.032406846
0.032416433
0.032426239
0.032436289
0.032446605
0.032457207
0.03246811
0.032479328
0.032490868
0.032502736
0.032514933
0.032527456
0.032540298
0.032553447
0.032566889
0.032580604
0.032594568
0.032608756
0.032623138
0.032637681
0.032652347
0.032667096
0.032681889
0.032696683
0.032711438
0.03272611
0.03274066
0.032755049
0.032769243
0.03278321
0.032796923
0.032810362
0.032823512
0.032836368
0.03284893
0.032861206
0.032873214
0.032884977
0.032896528
0.032907907
0.032919159
0.032930335
0.032933635
0.032922767
0.032911833
0.03290078
0.032889562
0.032878137
0.032866473
0.032854543
0.032842332
0.032829828
0.032817031
0.032803947
0.032790589
0.032776977
0.032763139
0.032749103
0.032734906
0.032720584
0.032706179
0.03269173
0.03267728
0.032662869
0.032648538
0.032634326
0.032620271
0.032606406
0.032592759
0.032579357
0.032566223
0.032553374
0.032540827
0.032528593
0.032516677
0.032505083
0.032493811
0.032482854
0.032472204
0.032461849
0.032451773
0.032441956
0.032432378
0.032423011
0.03241383
0.032404804
0.032395899
0.032387081
0.032378315
0.03236956
0.032360776
0.032351922
0.032342953
0.032333822
0.032324485
0.032314889
0.032304981
0.032294706
0.032284007
0.032272833
0.032261103
0.032248733
0.032235647
0.032221714
0.032248528
0.03226221
0.032275053
0.03228719
0.032298689
0.032309641
0.03232012
0.032330176
0.032339864
0.032349239
0.032358353
0.032367256
0.032375994
0.032384612
0.032393154
0.032401661
0.032410174
0.03241873
0.032427366
0.032436117
0.032445014
0.032454087
0.032463364
0.03247287
0.032482627
0.032492653
0.032502964
0.032513572
0.032524486
0.032535712
0.032547249
0.032559096
0.032571247
0.032583689
0.032596409
0.032609389
0.032622605
0.032636032
0.032649642
0.032663403
0.032677277
0.032691226
0.032705208
0.032719184
0.032733111
0.032746951
0.032760664
0.032774213
0.032787564
0.032800687
0.032813556
0.032826152
0.032838462
0.032850481
0.03286221
0.032873661
0.032884851
0.032895809
0.032906569
0.032917173
0.03292767
0.032938114
0.032943896
0.032934005
0.032924077
0.032914056
0.032903893
0.032893543
0.032882969
0.032872141
0.032861038
0.03284965
0.032837973
0.032826011
0.032813777
0.032801289
0.032788571
0.032775652
0.032762566
0.032749349
0.032736038
0.032722672
0.032709292
0.032695938
0.032682651
0.032669468
0.032656428
0.032643561
0.032630894
0.032618454
0.03260626
0.032594332
0.032582684
0.032571327
0.032560266
0.032549504
0.03253904
0.03252887
0.032518983
0.032509369
0.032500012
0.032490893
0.032481991
0.032473282
0.032464737
0.032456328
0.032448023
0.032439788
0.032431586
0.032423381
0.032415133
0.032406801
0.032398341
0.032389709
0.032380859
0.032371742
0.032362308
0.032352505
0.032342276
0.032331574
0.032320324
0.032308448
0.032295875
0.032282476
0.032323542
0.03233672
0.032349061
0.0323607
0.032371712
0.032382171
0.032392145
0.032401683
0.032410845
0.032419682
0.032428241
0.032436572
0.032444719
0.032452728
0.032460639
0.032468496
0.032476337
0.032484198
0.032492117
0.032500125
0.032508255
0.032516536
0.032524994
0.032533653
0.032542535
0.032551657
0.032561035
0.032570682
0.032580604
0.032590807
0.032601292
0.032612057
0.032623095
0.032634397
0.032645949
0.032657732
0.032669726
0.032681907
0.032694248
0.032706717
0.03271928
0.032731899
0.032744535
0.032757145
0.032769691
0.032782135
0.032794441
0.032806573
0.032818501
0.032830196
0.032841636
0.032852802
0.032863686
0.032874282
0.032884598
0.032894645
0.032904447
0.032914034
0.032923446
0.032932732
0.032941943
0.032951138
0.032968473
0.032960061
0.032951727
0.032943402
0.032935026
0.03292654
0.032917894
0.032909045
0.03289996
0.032890614
0.032880991
0.032871083
0.032860891
0.032850425
0.0328397
0.032828736
0.032817561
0.032806203
0.032794697
0.032783076
0.032771378
0.03275964
0.032747905
0.032736211
0.032724595
0.03271309
0.032701728
0.032690532
0.032679528
0.032668736
0.032658172
0.03264785
0.03263778
0.032627969
0.032618418
0.032609126
0.032600088
0.032591297
0.032582741
0.032574405
0.032566271
0.03255832
0.032550527
0.032542867
0.032535311
0.032527828
0.032520384
0.032512945
0.032505474
0.032497932
0.032490279
0.032482472
0.032474468
0.03246622
0.032457681
0.032448803
0.032439533
0.032429818
0.032419609
0.032408832
0.032397412
0.032385277
0.032372318
0.032429013
0.032441844
0.032453822
0.032465073
0.032475656
0.032485653
0.03249514
0.032504161
0.032512771
0.032521021
0.032528958
0.032536633
0.032544092
0.03255138
0.032558536
0.032565602
0.032572615
0.032579612
0.032586628
0.032593694
0.032600843
0.032608102
0.032615495
0.032623047
0.032630776
0.032638701
0.032646833
0.032655186
0.032663766
0.032672579
0.032681624
0.032690899
0.032700399
0.032710114
0.032720031
0.032730132
0.032740399
0.032750809
0.032761336
0.032771952
0.032782623
0.032793316
0.032803992
0.03281461
0.03282513
0.032835519
0.032845742
0.03285577
0.032865573
0.032875129
0.032884418
0.032893428
0.032902151
0.032910591
0.032918756
0.032926666
0.032934348
0.032941842
0.032949193
0.032956456
0.032963692
0.03297097
0.032978362
0.032990411
0.032984269
0.032978285
0.032972379
0.032966479
0.032960514
0.032954426
0.032948162
0.03294168
0.032934947
0.032927939
0.032920643
0.032913054
0.032905174
0.032897014
0.03288859
0.032879922
0.032871038
0.032861964
0.032852732
0.032843376
0.032833933
0.032824449
0.032814958
0.032805493
0.032796086
0.032786764
0.032777552
0.032768472
0.032759543
0.032750781
0.032742199
0.032733806
0.032725609
0.032717611
0.03270981
0.032702203
0.032694783
0.03268754
0.03268046
0.032673527
0.032666722
0.032660023
0.032653406
0.032646843
0.032640305
0.03263376
0.032627173
0.03262051
0.032613731
0.032606796
0.032599665
0.032592293
0.032584636
0.032576644
0.032568274
0.032559466
0.032550165
0.03254033
0.032529887
0.032518758
0.032506878
0.032494128
0.03256728
0.032580116
0.032592047
0.032603193
0.032613618
0.032623406
0.032632622
0.032641314
0.03264954
0.032657357
0.03266481
0.032671948
0.032678816
0.032685456
0.032691909
0.032698217
0.032704418
0.032710547
0.032716636
0.032722718
0.032728821
0.032734971
0.032741191
0.032747502
0.032753922
0.032760467
0.032767149
0.032773977
0.032780956
0.032788091
0.032795381
0.032802824
0.032810411
0.032818135
0.032825982
0.032833936
0.032841978
0.032850088
0.032858242
0.032866411
0.032874567
0.032882677
0.032890711
0.03289862
0.032906367
0.032913918
0.032921245
0.032928322
0.032935125
0.032941638
0.032947846
0.032953743
0.032959332
0.03296462
0.032969628
0.032974383
0.032978925
0.032983303
0.032987575
0.032991811
0.032996087
0.033000485
0.033005093
0.033023031
0.033020309
0.033017858
0.033015579
0.033013376
0.033011163
0.03300886
0.033006398
0.033003719
0.033000777
0.032997535
0.032993969
0.032990063
0.032985812
0.032981217
0.032976287
0.032971039
0.032965492
0.03295967
0.0329536
0.032947315
0.032940853
0.032934268
0.032927586
0.032920835
0.032914047
0.032907247
0.03290046
0.032893706
0.032887003
0.032880367
0.032873812
0.032867348
0.032860981
0.032854715
0.032848552
0.03284249
0.032836522
0.032830642
0.032824839
0.032819098
0.032813403
0.032807735
0.032802072
0.032796388
0.032790658
0.032784851
0.032778934
0.032772873
0.03276663
0.032760166
0.032753442
0.032746409
0.032739027
0.032731243
0.03272301
0.032714272
0.032704978
0.032695079
0.032684505
0.032673176
0.032661024
0.032647934
0.032733963
0.032747635
0.03276032
0.032772125
0.032783127
0.032793409
0.032803044
0.032812076
0.03282056
0.032828549
0.032836094
0.032843246
0.03285005
0.03285655
0.032862786
0.0328688
0.032874626
0.032880299
0.032885848
0.032891305
0.032896692
0.032902033
0.032907349
0.032912655
0.032917968
0.032923299
0.032928656
0.032934046
0.032939472
0.032944936
0.032950434
0.032955963
0.032961512
0.032967073
0.03297263
0.032978168
0.032983668
0.03298911
0.03299447
0.032999722
0.033004836
0.033009784
0.033014539
0.033019053
0.033023281
0.03302719
0.033030753
0.033033947
0.033036755
0.033039165
0.033041169
0.033042771
0.03304398
0.033044819
0.033045319
0.033045526
0.033045496
0.033045298
0.033045016
0.033044742
0.033044579
0.033044638
0.033045036
0.033070247
0.033072162
0.033074625
0.033077495
0.03308063
0.033083898
0.033087175
0.033090348
0.033093319
0.033096004
0.033098334
0.033100256
0.033101728
0.033102726
0.033103232
0.033103243
0.033102761
0.033101799
0.033100372
0.033098504
0.033096223
0.033093563
0.033090581
0.033087312
0.033083786
0.033080033
0.03307608
0.033071955
0.033067682
0.03306328
0.03305877
0.033054168
0.03304949
0.033044746
0.033039948
0.033035101
0.033030211
0.033025279
0.033020304
0.033015282
0.033010208
0.033005073
0.032999864
0.032994567
0.032989166
0.032983639
0.032977965
0.032972115
0.032966062
0.032959774
0.032953216
0.032946348
0.03293913
0.032931518
0.032923465
0.032914923
0.032905839
0.032896159
0.032885824
0.03287479
0.032862979
0.032850316
0.032836725
0.032822103
0.032906284
0.032922418
0.032937452
0.032951494
0.03296462
0.032976915
0.032988453
0.032999284
0.033009465
0.033019053
0.033028103
0.033036664
0.033044784
0.033052506
0.033059872
0.03306692
0.033073682
0.033080188
0.033086463
0.033092533
0.033098417
0.033104132
0.033109688
0.033115098
0.033120368
0.033125505
0.033130508
0.03313538
0.033140115
0.033144709
0.033149153
0.033153438
0.033157552
0.033161478
0.033165201
0.033168703
0.033171962
0.033174957
0.033177662
0.033180051
0.033182095
0.033183766
0.033185032
0.033185868
0.03318621
0.033186015
0.033185255
0.033183905
0.033181947
0.033179369
0.033176168
0.03317235
0.033167931
0.033162943
0.033157431
0.033151457
0.033145103
0.033138468
0.033131668
0.033124839
0.033118131
0.033111708
0.033105745
0.033100415
0.033137907
0.033147396
0.033157575
0.033168218
0.033179111
0.033190052
0.033200861
0.033211379
0.03322147
0.033231022
0.033239946
0.033248175
0.03325566
0.03326237
0.033268292
0.033273421
0.033277764
0.033281334
0.033284155
0.033286253
0.033287662
0.033288431
0.03328863
0.033288273
0.03328739
0.03328601
0.033284162
0.033281874
0.033279174
0.033276085
0.033272633
0.033268838
0.033264723
0.033260305
0.033255603
0.033250632
0.033245407
0.033239939
0.033234237
0.033228308
0.033222156
0.033215782
0.033209187
0.033202364
0.033195307
0.033188004
0.033180441
0.033172597
0.033164452
0.033155977
0.033147141
0.033137907
0.033128237
0.033118084
0.033107401
0.033096134
0.033084228
0.033071622
0.033058257
0.03304408
0.033029014
0.033012971
0.032995871
0.032977616
0.033022504
0.033043645
0.033063556
0.033082337
0.033100079
0.033116874
0.033132805
0.033147927
0.033162307
0.033176011
0.033189099
0.033201628
0.03321365
0.033225211
0.033236352
0.033247109
0.033257512
0.033267584
0.033277345
0.033286809
0.033295985
0.033304876
0.033313485
0.033321807
0.033329836
0.033337561
0.033344968
0.033352041
0.033358761
0.033365106
0.033371054
0.033376579
0.033381653
0.033386249
0.033390336
0.033393887
0.03339687
0.033399252
0.033401004
0.033402091
0.033402483
0.033402147
0.033401053
0.033399203
0.03339653
0.03339298
0.03338851
0.03338309
0.033376693
0.0333693
0.033360898
0.033351487
0.033341074
0.033329684
0.033317362
0.033304172
0.033290207
0.033275587
0.03326046
0.033245005
0.033229426
0.033213961
0.033198876
0.033184452
0.033241684
0.033261657
0.033282112
0.03330271
0.033323146
0.033343161
0.033362539
0.033381094
0.03339867
0.033415151
0.033430453
0.033444517
0.033457309
0.033468815
0.033479035
0.033487977
0.033495659
0.033502106
0.033507348
0.033511424
0.033514386
0.033516294
0.033517178
0.033517032
0.033515895
0.033513806
0.033510808
0.033506944
0.033502257
0.033496794
0.0334906
0.033483719
0.033476198
0.03346808
0.033459407
0.033450221
0.03344056
0.033430459
0.033419952
0.033409067
0.033397832
0.033386268
0.033374393
0.033362218
0.033349752
0.033336995
0.033323947
0.033310595
0.033296925
0.033282914
0.033268533
0.033253744
0.033238504
0.033222762
0.033206459
0.033189532
0.033171912
0.033153523
0.033134289
0.033114143
0.033092991
0.033070741
0.033047304
0.033022576
0.032952983
0.032981949
0.033009535
0.033035859
0.033061014
0.033085111
0.033108255
0.033130528
0.033152024
0.033172836
0.033193045
0.03321273
0.033231959
0.033250795
0.033269289
0.033287484
0.033305414
0.033323102
0.033340565
0.033357812
0.033374843
0.033391651
0.033408222
0.033424535
0.033440565
0.033456276
0.033471628
0.033486579
0.033501078
0.033515071
0.033528499
0.0335413
0.033553407
0.033564751
0.033575262
0.033584868
0.033593496
0.033601073
0.033607527
0.033612789
0.033616795
0.033619485
0.033620805
0.033620711
0.033619251
0.033616375
0.033612015
0.033606118
0.033598643
0.033589561
0.033578851
0.033566499
0.033552502
0.033536862
0.033519606
0.033500785
0.03348047
0.033458769
0.033435834
0.033411854
0.033387036
0.033361627
0.033335936
0.033310327
0.033285226
0.033358046
0.03338838
0.03341859
0.033448282
0.033477138
0.033504898
0.033531352
0.033556286
0.033579484
0.033600801
0.03362015
0.033637454
0.033652647
0.03366569
0.033676581
0.033685326
0.033691939
0.033696451
0.033698913
0.033699396
0.033697996
0.033694816
0.033689822
0.033682967
0.033674343
0.033664054
0.033652209
0.033638926
0.033624324
0.033608521
0.033591637
0.033573786
0.033555081
0.033535628
0.033515527
0.033494871
0.03347375
0.033452242
0.03343042
0.03340835
0.033386085
0.033363677
0.033341164
0.033318579
0.033295943
0.033273271
0.033250568
0.033227831
0.033205044
0.033182186
0.03315922
0.0331361
0.033112772
0.033089166
0.033065204
0.033040797
0.033015844
0.032990239
0.032963868
0.03293661
0.032908357
0.032878979
0.032848353
0.032816366
0.032782907
0.032475198
0.032512905
0.032548963
0.032583509
0.032616677
0.032648621
0.032679504
0.032709469
0.032738673
0.03276727
0.032795399
0.032823192
0.032850773
0.032878252
0.032905721
0.032933261
0.032960943
0.032988824
0.033016946
0.033045341
0.033074029
0.03310302
0.033132311
0.033161892
0.033191739
0.03322182
0.03325209
0.033282495
0.033312966
0.033343425
0.033373779
0.033403924
0.033433743
0.033463107
0.033491876
0.033519894
0.033546996
0.033573006
0.033597736
0.033620994
0.033642579
0.03366229
0.033679928
0.033695302
0.033708311
0.033719207
0.033727821
0.033733949
0.03373741
0.033738066
0.033735824
0.033730635
0.03372248
0.033711362
0.033697334
0.033680497
0.033661021
0.033639028
0.033614639
0.03358826
0.033560214
0.033530679
0.033499823
0.033467834
0.033434943
0.032589857
0.032116449
0.031867139
0.031820142
0.031946038
0.032227916
0.032650371
0.033214906
0.033679962
0.033696319
0.033709127
0.033718126
0.033722832
0.03372313
0.033718979
0.033710471
0.033697778
0.033681145
0.033660909
0.033637479
0.033611301
0.033582797
0.033552111
0.033518678
0.033482978
0.033445351
0.033406132
0.033365632
0.033324148
0.03328195
0.033239285
0.033196374
0.033153417
0.033110588
0.033068042
0.03302591
0.032984308
0.032943333
0.032903065
0.032863562
0.03282487
0.032787015
0.032750012
0.032713864
0.032678562
0.032644084
0.032610402
0.032577473
0.032545245
0.03251365
0.032482611
0.032452036
0.032421818
0.032391834
0.032361951
0.032332013
0.032301853
0.032271293
0.032240144
0.032208202
0.032175259
0.032141123
0.032105583
0.03206845
0.032029555
0.031988753
0.031280761
0.031322504
0.03136189
0.031399096
0.031434336
0.031467855
0.031499916
0.031530779
0.031560721
0.031590014
0.031618905
0.031647635
0.031676432
0.031705503
0.03173504
0.031765219
0.031796201
0.031828134
0.031861146
0.031895355
0.031930863
0.031967761
0.032006133
0.032046057
0.032087603
0.032130832
0.032175796
0.032222534
0.032271067
0.032321394
0.032373488
0.032427299
0.032482758
0.032539775
0.032598239
0.032658012
0.032718925
0.032780767
0.032843288
0.032906191
0.032969132
0.033031714
0.033093496
0.033153988
0.03321265
0.033269438
0.033325005
0.033378718
0.033429694
0.033476978
0.033519614
0.033556703
0.033587434
0.033611172
0.033559266
0.032639182
0.03181027
0.031065669
0.030392029
0.029811864
0.029329056
0.028957798
0.028729892
0.028660506
0.028770018
0.029097946
0.026282049
0.025841883
0.025655005
0.025672763
0.025853909
0.026178789
0.026625109
0.027169362
0.02779451
0.028498923
0.02927016
0.030086683
0.030937156
0.031840254
0.032833453
0.033113543
0.033022883
0.032927409
0.032829112
0.03272979
0.032630982
0.032533875
0.032438854
0.032343477
0.032248829
0.032155502
0.032063986
0.031974693
0.031887958
0.031804051
0.031723176
0.031645472
0.031571024
0.031499866
0.031432001
0.031367418
0.031306103
0.031248042
0.031193203
0.031141525
0.031092906
0.031047211
0.031004288
0.030963974
0.030926107
0.030890526
0.030857074
0.030825599
0.030795947
0.030767958
0.030741457
0.03071625
0.030692123
0.030668844
0.030646166
0.030623833
0.030601567
0.03057908
0.030556054
0.030532162
0.030507056
0.03048038
0.03045179
0.030420938
0.030387513
0.030351257
0.030311977
0.02905202
0.02908441
0.029112763
0.029137311
0.029158376
0.029176359
0.029191705
0.029204864
0.029216298
0.029226446
0.029235718
0.029244504
0.029253166
0.029262047
0.029271487
0.029281815
0.029293351
0.029306387
0.029321186
0.029337972
0.029356946
0.029378309
0.029402279
0.029429107
0.029459072
0.029492476
0.029529638
0.029570886
0.029616517
0.029666768
0.029721782
0.029781636
0.029846414
0.029916266
0.029991411
0.030072098
0.030158551
0.030250943
0.03034937
0.030453854
0.030564352
0.030680767
0.030802951
0.030930699
0.031063698
0.031200376
0.031343685
0.03149578
0.031656018
0.031822954
0.031994618
0.031649565
0.030481786
0.029484264
0.028586565
0.027752104
0.026944158
0.02616594
0.025426098
0.024742862
0.024129
0.023605032
0.023185994
0.022902972
0.022778031
0.022839851
0.023137156
0.023706751
0.020599277
0.020169254
0.02001685
0.020087572
0.020335649
0.020736344
0.021254942
0.021866761
0.022553701
0.023285556
0.024048394
0.024836654
0.025679832
0.026631548
0.027704849
0.028910352
0.03026558
0.03015144
0.029898769
0.029664439
0.029449205
0.029253279
0.029075364
0.028907041
0.028749667
0.028603043
0.028466825
0.028340642
0.028224179
0.028117184
0.028019431
0.027930633
0.027850409
0.027778252
0.02771355
0.027655672
0.027604096
0.027558563
0.027519073
0.027485703
0.027458354
0.027436648
0.027420037
0.027407936
0.027399806
0.027395163
0.027393582
0.027394711
0.027398286
0.027404124
0.027412059
0.027421863
0.027433218
0.027445723
0.027458943
0.027472433
0.027485766
0.027498522
0.027510286
0.027520616
0.027529023
0.027534961
0.027537839
0.02753706
0.027532034
0.027522254
0.027507329
0.02748701
0.02561569
0.025626064
0.025629303
0.025625386
0.025614573
0.025597341
0.025574355
0.025546414
0.025514323
0.02547886
0.025440693
0.025400357
0.025358302
0.025314947
0.025270767
0.025226316
0.025182209
0.025139081
0.025097499
0.025057833
0.025020195
0.024984529
0.024950862
0.024919454
0.024890788
0.024865489
0.024844273
0.024827994
0.024817662
0.024814275
0.024818386
0.024829717
0.024847447
0.024871091
0.024900998
0.024938191
0.024983926
0.025039303
0.025105138
0.025181968
0.025270142
0.025369989
0.025482044
0.025607203
0.025746721
0.025901977
0.026074189
0.026260213
0.0264703
0.026710728
0.026983285
0.027289458
0.027630766
0.028009339
0.026801399
0.02544444
0.024217062
0.023123468
0.022187661
0.021367083
0.020594623
0.01984932
0.01915157
0.018524526
0.018001891
0.017631163
0.017435351
0.017434198
0.017708357
0.018317153
0.015511879
0.015057455
0.014945429
0.015090872
0.015424202
0.015945961
0.016591996
0.0172964
0.01803727
0.018839679
0.019777236
0.02090365
0.022181947
0.023605588
0.025114165
0.024704102
0.024229037
0.023816985
0.023460434
0.023152971
0.022889624
0.022666746
0.022480712
0.022315667
0.022173246
0.022051938
0.021949487
0.021863108
0.021790276
0.021729416
0.02168
0.021642163
0.021616072
0.021601454
0.02159741
0.021602243
0.021613624
0.021629425
0.021648952
0.021673825
0.021707035
0.021750038
0.021801819
0.021860398
0.021924023
0.021991429
0.022061622
0.022133698
0.022206911
0.022280995
0.022356342
0.022433659
0.022513213
0.022594549
0.022676743
0.022758787
0.022839772
0.022918976
0.022995887
0.023070194
0.02314159
0.023209569
0.023273311
0.023331746
0.023383715
0.023428081
0.023463933
0.023490717
0.023508231
0.023516692
0.021259994
0.021251126
0.021233281
0.021205383
0.021166439
0.021115783
0.021053409
0.020979923
0.020896616
0.020805207
0.020707493
0.020605102
0.020499081
0.020389687
0.020276722
0.020160177
0.020040582
0.019918916
0.019796543
0.019675154
0.019556459
0.01944121
0.019328171
0.019214976
0.019100434
0.018985127
0.01887044
0.018757671
0.018647903
0.018542665
0.018445098
0.018359517
0.018288813
0.01822839
0.018169399
0.018108946
0.018049442
0.017995382
0.017950802
0.017917939
0.017897273
0.01788823
0.017889078
0.017898233
0.017915993
0.017945163
0.017990656
0.018057478
0.018148793
0.018265937
0.018402217
0.018574263
0.018786564
0.019043514
0.019352157
0.019723226
0.020172455
0.020719208
0.021375757
0.021985885
0.020402692
0.01891957
0.017619269
0.016524602
0.015652064
0.014883437
0.014151547
0.013503568
0.013004552
0.012695485
0.012644571
0.012960009
0.011227836
0.010665021
0.010511686
0.010768244
0.011259442
0.011795399
0.012395789
0.013212118
0.014324001
0.015690431
0.017283259
0.018952871
0.018048929
0.01725378
0.016543563
0.015949593
0.015491277
0.015140457
0.014862255
0.014636651
0.014453021
0.01430515
0.01418938
0.014097549
0.014032292
0.013994814
0.013985932
0.014003247
0.014038514
0.014081017
0.014124664
0.014169813
0.014220754
0.014283154
0.014359197
0.014448962
0.014550704
0.014659197
0.014764702
0.014859353