/*--------------------------------*- C++ -*----------------------------------*\
| =========                 |                                                 |
| \\      /  F ield         | OpenFOAM: The Open Source CFD Toolbox           |
|  \\    /   O peration     | Version:  v2012                                 |
|   \\  /    A nd           | Website:  www.openfoam.com                      |
|    \\/     M anipulation  |                                                 |
\*---------------------------------------------------------------------------*/
FoamFile
{
    version     2.0;
    format      ascii;
    class       volScalarField;
    location    "400";
    object      omega;
}
// * * * * * * * * * * * * * * * * * * * * * * * * * * * * * * * * * * * * * //

dimensions      [0 0 -1 0 0 0 0];


internalField   nonuniform List<scalar> 
227544
(
13.849633
17.254412
26.408788
51.808536
104.27449
370.99977
495.64037
406.11671
436.13796
379.78737
370.44023
318.33493
312.61417
303.68621
269.73077
257.96364
220.96876
214.80519
209.40235
201.35182
183.40501
177.81518
172.69079
160.22074
155.86513
152.32299
148.13697
138.85008
136.40552
134.1139
131.85336
129.34917
123.81658
121.27382
119.31451
117.5358
115.60498
111.4028
109.80567
108.26786
106.79524
105.35438
103.82652
100.67643
99.06488
97.732856
96.462663
95.298859
94.130953
93.062437
92.009687
89.96647
88.795774
87.701304
86.684836
85.395764
82.857738
81.492132
80.690538
79.93723
79.038743
78.208797
77.430645
76.695194
75.963646
75.26892
74.60836
73.932703
73.269893
72.635092
72.031648
71.426696
70.854686
70.335046
69.492427
68.721972
68.125486
67.496801
66.938608
66.260221
64.991359
63.997826
63.358292
62.722928
62.072511
61.397873
60.709883
60.020621
59.322953
58.644019
57.956588
57.283443
56.618425
55.960922
55.328126
54.692812
54.073139
53.471459
52.879407
52.313796
51.773493
51.269235
50.793879
50.368233
50.191634
49.930156
49.342162
48.95006
48.725416
48.462359
48.105129
47.790481
47.519207
47.257922
47.013631
46.777279
46.538009
46.295066
46.057128
45.819124
45.589243
45.370846
45.148346
44.920132
44.69216
44.459827
44.224511
43.980181
43.705415
43.326297
42.830666
42.526226
42.249707
41.989537
41.736498
41.497208
41.383035
41.23563
40.942494
40.720798
40.579232
40.422618
40.222769
40.039332
39.876587
39.721264
39.573887
39.420975
39.269991
39.117895
38.969479
38.819895
38.6729
38.515691
38.423492
38.317699
38.174605
37.957745
37.575968
37.371674
37.211272
37.063251
36.986076
36.881875
36.688412
36.589417
36.480273
36.332559
36.202595
36.081738
35.970966
35.85164
35.730553
35.605946
35.478241
35.342904
35.192904
34.999451
34.756115
34.593713
34.455893
34.384493
34.293936
34.133689
34.008486
33.87921
33.812375
33.727964
33.608933
33.501163
33.398262
33.296413
33.19231
33.085682
32.974021
32.854821
32.700076
32.490344
32.346909
32.230091
32.170165
32.095084
31.968355
31.869706
31.806081
31.733806
31.642348
31.554211
31.472574
31.390248
31.310372
31.230264
31.154129
31.076056
31.026926
30.977129
30.909721
30.807804
30.612026
30.520722
30.474432
30.417786
30.318471
30.233909
30.178495
30.116811
30.036124
29.957503
29.883934
29.809285
29.73517
29.667468
29.584827
29.476109
29.329829
29.244373
29.202812
29.150574
29.061893
28.995271
28.954235
28.907164
28.843894
28.782435
28.725261
28.667257
28.609794
28.565268
28.509413
28.431389
28.327013
28.270835
28.249935
28.227132
28.192678
28.179977
28.187759
28.192678
28.186575
28.194481
28.227333
28.271701
28.527219
31.223255
40.470551
112.6472
192.41706
171.49524
164.75029
161.22547
119.07665
107.42166
100.67022
95.512123
90.973019
15.029061
19.590322
20.085271
25.575476
48.547212
80.549193
131.27008
207.49091
282.91061
131.96312
88.820524
40.018401
32.106473
18.844902
17.823001
14.465563
13.682779
17.696648
16.470257
22.305633
25.939061
47.085936
62.567037
101.52539
83.439068
105.54767
152.69022
180.47474
233.40007
138.47892
247.36854
245.82291
439.79737
615.82178
488.82043
361.95981
334.79516
392.94766
499.89091
425.18969
473.44228
427.8771
430.68656
376.0057
363.02451
352.26322
308.97442
293.38981
252.60732
243.44541
233.02705
225.45011
203.70974
194.74297
188.7782
174.7732
169.50374
163.54791
158.75736
148.88092
145.86424
142.14199
138.89681
136.10543
130.23988
127.08928
124.53566
122.09481
119.9315
115.79679
114.20285
112.04747
110.25693
108.48355
106.83582
103.81974
102.26978
100.4527
98.952347
97.589454
96.265985
94.981683
93.848756
91.972484
90.925848
89.593548
88.441961
87.365011
85.202177
84.38836
86.888434
89.270808
90.346336
91.610432
93.038603
95.362067
96.256926
97.423617
98.956295
100.33194
101.73087
103.20289
105.08852
108.91249
110.25027
111.84504
113.87193
115.66464
117.77814
122.72876
124.35401
126.42432
129.07586
131.87075
133.99258
140.57
143.43889
146.87486
150.47214
161.118
164.2489
168.16215
173.96005
188.39254
192.35953
197.06392
203.49348
228.42386
235.90032
245.54534
278.55748
284.67862
294.80932
350.08832
362.35822
430.34143
439.8391
533.54343
522.82868
637.74927
496.99851
371.56821
236.90436
251.08486
183.8453
399.59099
201.84853
173.92055
137.69224
69.625441
35.980194
21.583512
16.184497
14.09934
10.052294
10.027154
10.00213
9.9772001
9.9523455
9.927549
9.9027961
9.8780752
9.8533779
9.8286988
9.8040353
9.7793878
9.7547594
9.7301554
9.7055831
9.6810519
9.6565724
9.6321565
9.6078166
9.5835656
9.5594166
9.5353828
9.5114767
9.48771
9.4640925
9.4406349
9.4173461
9.3942335
9.3713031
9.3485597
9.3260064
9.3036452
9.2814766
9.2594995
9.2377116
9.2161094
9.1946881
9.1734418
9.1523635
9.1314453
9.1106784
9.0900533
9.0695602
9.0491884
9.0289271
9.0087651
8.9886913
8.9686948
8.9487648
8.9288908
8.9090627
8.8892713
8.869508
8.849765
8.8300354
8.8103134
8.7905942
8.7708741
8.7511502
8.7314212
8.7116863
8.6919459
8.672201
8.6731124
8.6928604
8.7126036
8.7323408
8.752072
8.7717976
8.7915191
8.8112391
8.8309613
8.8506907
8.8704332
8.8901954
8.9099851
8.9298111
8.9496826
8.9696095
8.9896024
9.0096721
9.0298294
9.0500854
9.0704514
9.0909383
9.1115566
9.1323162
9.1532265
9.1742963
9.1955334
9.216945
9.238537
9.2603139
9.2822795
9.3044361
9.3267848
9.3493246
9.3720543
9.3949702
9.4180678
9.4413409
9.4647823
9.4883829
9.5121331
9.5360223
9.5600387
9.5841699
9.6084027
9.6327242
9.6571212
9.6815812
9.706093
9.7306453
9.7552289
9.7798367
9.8044633
9.8291057
9.8537635
9.8784394
9.9031385
9.9278699
9.952645
9.9774778
10.002386
10.027388
10.052507
10.052965
10.027892
10.002936
9.9780763
9.9532909
9.9285629
9.9038788
9.8792271
9.8545986
9.8299878
9.8053922
9.780812
9.7562502
9.7317119
9.7072043
9.6827363
9.6583196
9.6339652
9.6096854
9.5854935
9.5614024
9.5374252
9.5135741
9.4898608
9.4662962
9.4428904
9.419652
9.3965878
9.373704
9.3510052
9.3284949
9.3061742
9.2840444
9.2621044
9.2403518
9.2187826
9.1973924
9.1761755
9.1551248
9.1342322
9.1134889
9.0928857
9.0724127
9.0520596
9.0318153
9.0116683
8.991608
8.9716233
8.9517036
8.9318381
8.9120171
8.8922312
8.8724718
8.8527311
8.8330024
8.8132799
8.7935587
8.773835
8.7541061
8.7343709
8.7146289
8.6948801
8.6751258
8.6784923
8.6982562
8.7180135
8.7377629
8.757504
8.7772373
8.7969639
8.8166866
8.836409
8.8561359
8.8758732
8.8956275
8.9154066
8.9352192
8.9550743
8.9749819
8.9949529
9.0149976
9.0351272
9.0553525
9.0756845
9.0961344
9.1167126
9.1374287
9.1582922
9.1793116
9.2004953
9.22185
9.2433816
9.2650943
9.2869922
9.3090776
9.3313517
9.3538134
9.3764613
9.3992921
9.4223011
9.4454825
9.4688292
9.4923333
9.5159847
9.539772
9.5636834
9.5877068
9.6118296
9.6360386
9.660321
9.6846647
9.7090581
9.73349
9.7579517
9.7824358
9.8069375
9.831454
9.8559852
9.8805339
9.9051058
9.9297102
9.9543584
9.9790645
10.003847
10.028725
10.053723
10.054844
10.029956
10.005189
9.9805208
9.9559303
9.9313993
9.9069126
9.8824586
9.8580278
9.8336142
9.8092145
9.7848286
9.760459
9.7361106
9.7117904
9.6875072
9.6632717
9.6390954
9.6149905
9.5909696
9.5670453
9.5432304
9.5195368
9.4959765
9.472561
9.4492999
9.4262013
9.403272
9.3805179
9.3579436
9.3355523
9.3133456
9.2913242
9.2694869
9.2478314
9.2263541
9.2050503
9.1839144
9.1629394
9.1421176
9.1214401
9.1008978
9.0804809
9.0601789
9.039981
9.0198764
8.9998539
8.9799028
8.9600125
8.9401722
8.9203722
8.900603
8.8808563
8.8611244
8.8414004
8.8216787
8.8019545
8.7822242
8.7624853
8.7427365
8.7229774
8.7032086
8.7098726
8.7296561
8.7494276
8.7691864
8.7889326
8.8086676
8.8283938
8.8481146
8.8678347
8.8875597
8.9072964
8.9270525
8.9468365
8.9666575
8.9865256
9.0064511
9.0264447
9.0465171
9.0666794
9.0869423
9.1073166
9.1278124
9.1484396
9.1692073
9.1901242
9.2111979
9.2324351
9.2538415
9.2754217
9.2971793
9.3191167
9.3412347
9.363533
9.3860098
9.408662
9.4314852
9.4544735
9.47762
9.500917
9.5243551
9.5479227
9.5716081
9.595399
9.6192829
9.6432475
9.6672805
9.6913698
9.7155041
9.7396733
9.7638685
9.7880831
9.8123124
9.836554
9.8608085
9.8850794
9.9093733
9.9337003
9.9580732
9.9825077
10.007023
10.031639
10.05638
10.058372
10.03382
10.009398
9.9850806
9.9608467
9.9366768
9.9125542
9.8884648
9.8643981
9.8403468
9.816307
9.7922778
9.768261
9.744261
9.7202844
9.6963394
9.672436
9.6485852
9.6247985
9.6010879
9.5774656
9.5539441
9.5305356
9.5072518
9.484104
9.4611014
9.4382517
9.4155615
9.3930367
9.3706815
9.348499
9.3264911
9.304658
9.2829988
9.2615115
9.2401925
9.2190371
9.19804
9.1771945
9.1564931
9.1359273
9.1154882
9.095166
9.0749507
9.0548318
9.0347985
9.0148399
8.9949454
8.9751045
8.9553067
8.9355422
8.9158019
8.8960771
8.8763603
8.8566449
8.8369252
8.8171966
8.7974559
8.7777007
8.7579298
8.7381433
8.7183421
8.7287134
8.7485353
8.7683393
8.7881243
8.8078901
8.8276376
8.847369
8.8670873
8.8867973
8.9065045
8.9262154
8.9459375
8.9656793
8.98545
9.0052594
9.0251177
9.0450354
9.0650231
9.0850915
9.1052511
9.1255124
9.1458852
9.1663789
9.1870024
9.2077639
9.2286706
9.2497292
9.2709448
9.2923218
9.3138637
9.3355725
9.3574491
9.3794929
9.4017024
9.4240745
9.4466047
9.4692876
9.4921165
9.515084
9.5381811
9.5613965
9.584719
9.6081366
9.6316363
9.6552062
9.6788348
9.7025109
9.726224
9.7499646
9.7737246
9.797498
9.8212809
9.845072
9.8688726
9.8926872
9.9165239
9.9403939
9.9643118
9.9882959
10.012367
10.036547
10.060861
10.088103
10.063909
10.039885
10.016001
9.9922326
9.9685537
9.9449424
9.9213798
9.8978501
9.8743413
9.8508444
9.8273542
9.8038685
9.7803882
9.7569166
9.7334594
9.7100238
9.6866192
9.6632554
9.6399433
9.616694
9.5935192
9.5704323
9.547445
9.5245683
9.5018131
9.4791883
9.4567012
9.4343582
9.4121648
9.3901253
9.3682428
9.346519
9.3249544
9.3035484
9.2822991
9.261203
9.2402562
9.2194535
9.1987887
9.1782547
9.1578436
9.1375469
9.1173554
9.0972595
9.077249
9.0573136
9.0374426
9.0176257
8.9978526
8.978113
8.9583975
8.9386966
8.9190021
8.8993065
8.8796033
8.8598869
8.840153
8.8203985
8.8006215
8.7808211
8.7609978
8.7411532
8.7559041
8.7757721
8.7956149
8.8154306
8.8352183
8.8549787
8.8747137
8.894426
8.91412
8.9338011
8.9534756
8.9731512
8.9928361
9.0125396
9.0322711
9.0520406
9.0718585
9.0917346
9.1116793
9.1317031
9.1518155
9.1720263
9.1923439
9.2127767
9.2333321
9.254017
9.2748372
9.2957975
9.3169018
9.3381531
9.3595531
9.3811024
9.4028002
9.4246447
9.4466329
9.4687605
9.4910219
9.513411
9.5359204
9.5585415
9.5812636
9.604076
9.6269676
9.6499241
9.6729341
9.6959867
9.7190716
9.7421793
9.7653012
9.7884304
9.8115619
9.834693
9.8578236
9.8809566
9.9040983
9.9272585
9.9504506
9.9736916
9.9970019
10.020405
10.043929
10.067601
10.091453
10.095495
10.072058
10.048812
10.025723
10.00276
9.9798929
9.9570969
9.9343491
9.911631
9.8889276
9.8662279
9.8435245
9.8208134
9.7980939
9.7753681
9.7526402
9.7299164
9.7072048
9.6845146
9.6618554
9.6392378
9.6166733
9.5941772
9.57176
9.5494323
9.527204
9.5050842
9.4830799
9.4611974
9.439442
9.4178183
9.3963293
9.3749771
9.3537626
9.3326855
9.3117442
9.2909363
9.2702582
9.2497056
9.2292729
9.2089539
9.1887414
9.1686275
9.1486039
9.1286616
9.1087912
9.0889826
9.0692259
9.0495112
9.0298284
9.0101676
8.9905194
8.9708747
8.9512253
8.9315639
8.9118841
8.8921803
8.8724483
8.8526855
8.8328903
8.8130622
8.7932025
8.7733132
8.7938348
8.8137393
8.8336099
8.853444
8.8732398
8.8929979
8.9127194
8.9324069
8.9520646
8.9716981
8.9913137
9.0109186
9.0305211
9.05013
9.0697547
9.0894049
9.1090906
9.1288214
9.1486068
9.1684565
9.1883795
9.2083844
9.228479
9.2486705
9.2689658
9.2893706
9.30989
9.3305277
9.3512868
9.3721692
9.3931762
9.4143076
9.4355623
9.4569379
9.478431
9.5000372
9.5217509
9.5435658
9.5654748
9.5874687
9.6095379
9.6316723
9.653862
9.6760899
9.6983446
9.7206158
9.7428941
9.7651709
9.7874387
9.8096917
9.8319267
9.8541423
9.8763404
9.8985258
9.9207075
9.942898
9.9651141
9.9873764
10.00971
10.032143
10.054708
10.07744
10.100375
10.106281
10.083955
10.061847
10.039916
10.018122
9.9964306
9.9748087
9.953229
9.9316679
9.9101067
9.8885308
9.8669298
9.8452975
9.8236309
9.8019303
9.7801985
9.7584405
9.7366632
9.7148749
9.6930845
9.6713024
9.6495404
9.6278182
9.6061441
9.5845282
9.5629801
9.5415089
9.5201224
9.4988269
9.4776278
9.4565301
9.4355376
9.4146531
9.3938781
9.3732133
9.3526582
9.332211
9.3118698
9.2916308
9.2714901
9.2514421
9.2314811
9.2116003
9.1917926
9.1720498
9.1523635
9.1327245
9.1131237
9.0935516
9.0739988
9.0544556
9.034913
9.0153618
8.9957941
8.9762023
8.9565802
8.9369222
8.9172244
8.8974843
8.8777007
8.8578735
8.8380046
8.8180971
8.8469461
8.8668366
8.8866836
8.9064834
8.9262339
8.945935
8.9655881
8.9851951
9.0047603
9.0242892
9.0437882
9.0632648
9.0827272
9.1021842
9.1216449
9.1411185
9.1606145
9.1801417
9.1997089
9.2193248
9.2389971
9.2587333
9.2785398
9.2984225
9.3183866
9.3384367
9.3585761
9.3788076
9.3991327
9.4195522
9.4400661
9.4606731
9.4813708
9.5021558
9.5230239
9.5439699
9.5649877
9.5860707
9.6072108
9.6283986
9.6496244
9.6708779
9.6921504
9.7134229
9.7346809
9.7559138
9.7771126
9.7982695
9.8193779
9.8404334
9.8614339
9.8823801
9.9032761
9.9241295
9.9449525
9.9657618
9.9865791
10.007431
10.028348
10.049369
10.070532
10.091882
10.113465
10.143237
10.122258
10.101584
10.081161
10.060935
10.040854
10.020873
10.00095
9.9810487
9.9611388
9.9411958
9.9212002
9.9011382
9.8810003
9.8607817
9.8404808
9.8200992
9.7996408
9.7791118
9.7585201
9.7378749
9.7171873
9.6964774
9.6757603
9.655047
9.6343479
9.6136734
9.5930329
9.5724353
9.5518877
9.5313969
9.5109688
9.4906081
9.4703191
9.4501047
9.4299672
9.4099073
9.3899253
9.3700205
9.3501912
9.3304349
9.3107479
9.291126
9.2715642
9.2520568
9.2325972
9.2131783
9.193792
9.1744302
9.1550844
9.1357458
9.1164051
9.0970534
9.077682
9.0582827
9.038848
9.0193712
8.9998466
8.98027
8.9606393
8.9409529
8.9212114
8.9014173
8.8815748
8.9236335
8.9433867
8.9630859
8.9827266
9.002306
9.0218236
9.0412807
9.0606799
9.0800254
9.0993232
9.1185802
9.137804
9.157003
9.1761857
9.1953609
9.2145376
9.2337241
9.2529281
9.2721573
9.291419
9.3107194
9.3300643
9.3494581
9.3689048
9.3884077
9.4079695
9.4275914
9.4472743
9.4670175
9.48682
9.5066798
9.5265938
9.546558
9.5665674
9.5866163
9.6066981
9.6268054
9.6469299
9.6670624
9.6871925
9.7073096
9.7274025
9.7474597
9.7674679
9.7874001
9.8072439
9.8269898
9.8466299
9.866158
9.8855704
9.9048658
9.9240464
9.9431181
9.9620912
9.9809818
9.9998118
10.018609
10.037409
10.056252
10.075186
10.094266
10.11355
10.133102
10.152987
10.165112
10.146591
10.128431
10.110555
10.092886
10.075356
10.057902
10.040469
10.02301
10.005485
9.987862
9.9701179
9.9522346
9.9342006
9.9160096
9.8976589
9.8791498
9.860486
9.8416736
9.8227209
9.8036378
9.7844384
9.7651609
9.7458149
9.7264127
9.7069661
9.6874865
9.667985
9.6484713
9.6289549
9.6094439
9.589946
9.5704677
9.5510147
9.5315925
9.5122049
9.4928554
9.473546
9.4542784
9.4350532
9.41587
9.3967276
9.3776243
9.358557
9.3395222
9.3205158
9.301532
9.2825651
9.2636082
9.2446546
9.225696
9.2067243
9.1877311
9.1687078
9.149646
9.1305381
9.111377
9.0921563
9.0728714
9.0535196
9.0340996
9.0146117
8.9950589
8.9754463
9.0402109
9.0596307
9.0789844
9.0982662
9.1174731
9.1366049
9.1556633
9.1746511
9.1935733
9.2124365
9.2312478
9.2500151
9.2687463
9.28745
9.3061335
9.3248042
9.3434695
9.3621348
9.3808056
9.3994866
9.4181814
9.4368929
9.4556234
9.4743742
9.4931456
9.5119375
9.5307486
9.5495768
9.5684194
9.5872729
9.6061329
9.6249941
9.6438503
9.6626949
9.6815201
9.7003177
9.7190785
9.7377924
9.7564488
9.7750363
9.7935427
9.8119557
9.8302627
9.8484616
9.8664965
9.8843503
9.9020125
9.9194754
9.9367328
9.9537811
9.9706193
9.9872503
10.003681
10.019922
10.035994
10.051923
10.067744
10.083501
10.099248
10.115048
10.13097
10.147098
10.16352
10.180331
10.199608
10.184951
10.170708
10.156766
10.14302
10.129377
10.115759
10.102093
10.088319
10.074387
10.060259
10.045908
10.031311
10.016458
10.00134
9.9859555
9.9703034
9.9543863
9.9382089
9.9217775
9.9051029
9.8882091
9.8711763
9.8539911
9.8366665
9.8192151
9.8016493
9.7839806
9.7662201
9.7483781
9.7304644
9.7124879
9.6944567
9.6763787
9.6582609
9.6401095
9.6219303
9.6037285
9.5855083
9.5672734
9.5490269
9.530771
9.5125076
9.4942371
9.4759599
9.4576749
9.4393807
9.4210748
9.402754
9.3844146
9.366051
9.3476577
9.3292284
9.3107559
9.2922328
9.273652
9.2550061
9.2362889
9.2174949
9.1986212
9.1796655
9.1606284
9.1415132
9.1223263
9.2276823
9.2466385
9.265519
9.2843174
9.3030298
9.3216562
9.3401987
9.3586604
9.3770465
9.395363
9.413616
9.4318114
9.4499549
9.468051
9.4861035
9.5041155
9.5220885
9.5400231
9.5579191
9.5757753
9.5935896
9.6113593
9.6290805
9.6467497
9.6643618
9.681911
9.6993917
9.7167975
9.7341218
9.7513574
9.768497
9.7855327
9.8024562
9.8192593
9.835933
9.8524682
9.8688556
9.8850851
9.9011463
9.9170291
9.9327227
9.9482163
9.9634991
9.9785616
9.9933692
10.007854
10.022003
10.035816
10.049292
10.062434
10.075247
10.087737
10.099912
10.111784
10.123376
10.134719
10.145853
10.156835
10.167738
10.178641
10.189632
10.200813
10.212301
10.224229
10.236737
10.264954
10.25585
10.247401
10.23945
10.231852
10.224474
10.217198
10.209914
10.202516
10.194926
10.187094
10.178979
10.170543
10.161758
10.152609
10.14308
10.133153
10.122812
10.112038
10.100816
10.089138
10.077013
10.064571
10.051817
10.038756
10.025395
10.01174
9.9978
9.983582
9.9690949
9.9543477
9.9393499
9.924111
9.9086412
9.8929503
9.877049
9.860948
9.8446581
9.8281902
9.8115555
9.7947651
9.7778298
9.7607605
9.7435678
9.7262616
9.7088515
9.6913463
9.6737544
9.6560829
9.6383384
9.6205257
9.602649
9.584711
9.5667125
9.548653
9.5305309
9.5123432
9.4940861
9.4757549
9.457346
9.4388563
9.4202828
9.4016264
9.3828906
9.3640817
9.5416128
9.5605013
9.5793339
9.5981052
9.616812
9.635455
9.6540366
9.6725587
9.6910235
9.7094324
9.7277848
9.7460779
9.764307
9.7824656
9.8005437
9.8185298
9.8364106
9.8541715
9.871796
9.8892668
9.9065654
9.923673
9.9405698
9.9572356
9.97365
9.9897922
10.005642
10.021179
10.036383
10.051235
10.065718
10.079813
10.093504
10.106776
10.119615
10.132008
10.143944
10.155411
10.166403
10.176914
10.18694
10.196479
10.205534
10.21411
10.222266
10.229762
10.23658
10.242754
10.24833
10.253361
10.257904
10.262014
10.265731
10.269087
10.272116
10.274861
10.277391
10.279749
10.281992
10.28427
10.286725
10.289489
10.292716
10.296573
10.301239
10.348519
10.34878
10.35035
10.352954
10.356349
10.360324
10.364703
10.369344
10.374162
10.379135
10.384242
10.38942
10.394382
10.399093
10.403481
10.407455
10.410887
10.413627
10.41553
10.416471
10.416348
10.415106
10.412841
10.409911
10.406159
10.401569
10.396137
10.38986
10.382744
10.374797
10.366033
10.356471
10.346133
10.335042
10.323226
10.310712
10.29753
10.283711
10.26929
10.254302
10.238782
10.222768
10.206299
10.189411
10.172143
10.154532
10.136612
10.11842
10.09999
10.081353
10.062543
10.043589
10.024518
10.005358
9.9861295
9.9668531
9.9475432
9.9282118
9.9088669
9.8895128
9.8701506
9.8507802
9.8313988
9.8120045
9.7925977
9.7731819
10.075013
10.095735
10.116545
10.137448
10.158449
10.179553
10.200764
10.222079
10.243492
10.26499
10.286553
10.308156
10.329768
10.35135
10.37286
10.394251
10.415475
10.43648
10.45721
10.477611
10.497626
10.517197
10.536262
10.554761
10.572627
10.589795
10.606197
10.621766
10.636435
10.650141
10.662824
10.674426
10.684891
10.694166
10.702194
10.708924
10.714306
10.718295
10.720855
10.721958
10.721583
10.719719
10.716367
10.71154
10.705265
10.697513
10.687755
10.676016
10.662446
10.647268
10.630762
10.61326
10.595121
10.57685
10.559006
10.541638
10.524806
10.508571
10.492966
10.477901
10.463392
10.449548
10.43653
10.424575
10.413977
10.405075
10.465489
10.484235
10.505816
10.529779
10.555776
10.583544
10.612923
10.643842
10.67628
10.710215
10.745632
10.782475
10.820655
10.860371
10.901254
10.942553
10.982464
11.019779
11.053988
11.084725
11.111747
11.134944
11.154511
11.171746
11.186306
11.198207
11.207484
11.214185
11.218371
11.220113
11.21949
11.216598
11.211539
11.204425
11.19537
11.184481
11.171861
11.157604
11.141804
11.124562
11.105987
11.086194
11.065301
11.043424
11.020675
10.997159
10.972977
10.948222
10.922983
10.897346
10.871395
10.845215
10.818889
10.792498
10.766117
10.739818
10.713662
10.687706
10.661995
10.636565
10.611442
10.586643
10.562173
10.538026
10.51419
10.490646
10.467377
10.975307
11.003007
11.031307
11.060256
11.089897
11.120258
11.151347
11.183151
11.215643
11.248775
11.282487
11.316706
11.351347
11.386312
11.421492
11.456767
11.492013
11.527102
11.561913
11.596328
11.630233
11.663507
11.696016
11.727606
11.75811
11.787344
11.815114
11.841217
11.865458
11.88766
11.90768
11.925392
11.94066
11.953318
11.963161
11.969964
11.973495
11.973538
11.969896
11.962391
11.950856
11.935132
11.915057
11.890477
11.86125
11.827846
11.788809
11.742823
11.689713
11.629575
11.562667
11.489355
11.410774
11.331139
11.25199
11.174648
11.100086
11.028917
10.961517
10.898058
10.838554
10.782896
10.730937
10.682561
10.637823
10.596962
10.560411
10.528769
10.641156
10.698056
10.762756
10.834829
10.914172
11.001061
11.096162
11.200204
11.313624
11.436465
11.568282
11.708085
11.853972
12.003089
12.151212
12.293645
12.423076
12.538873
12.641988
12.732352
12.810027
12.875263
12.928972
12.97546
13.014065
13.045153
13.069132
13.086407
13.097347
13.102278
13.101503
13.095336
13.08413
13.068289
13.048262
13.024493
12.99736
12.967112
12.933869
12.897713
12.858794
12.817382
12.773818
12.728458
12.681633
12.633641
12.58475
12.535184
12.485121
12.434695
12.384029
12.333259
12.282553
12.232101
12.182096
12.132726
12.084156
12.036529
11.989964
11.944563
11.900416
11.8576
11.816173
11.776158
11.737545
11.70028
11.664276
11.62942
12.422221
12.466218
12.512004
12.559828
12.609934
12.6625
12.71762
12.775297
12.83546
12.897994
12.962778
13.0297
13.098642
13.169463
13.241965
13.315894
13.390951
13.466811
13.543174
13.61982
13.696649
13.773626
13.850671
13.92758
14.004015
14.079552
14.153697
14.225868
14.295394
14.361607
14.424079
14.482827
14.538147
14.590155
14.638486
14.682377
14.720917
14.753254
14.778704
14.796743
14.806947
14.808886
14.801995
14.78549
14.758398
14.719688
14.668432
14.606488
14.527931
14.429128
14.309119
14.167191
14.002612
13.814218
13.59608
13.350937
13.083782
12.811036
12.542133
12.28524
12.044965
11.824176
11.624344
11.445554
11.286188
11.143822
11.016893
10.904805
10.80681
10.722941
10.917274
11.060415
11.22988
11.429437
11.663365
11.930386
12.235473
12.585573
12.981242
13.416067
13.880209
14.36069
14.843987
15.299341
15.711409
16.066505
16.366625
16.621935
16.835809
17.011544
17.151739
17.258413
17.333909
17.39042
17.426161
17.442519
17.44153
17.425694
17.397392
17.358299
17.309234
17.250456
17.182166
17.104879
17.019595
16.927913
16.831839
16.7332
16.632717
16.529406
16.421363
16.307764
16.189492
16.068095
15.944979
15.821185
15.697509
15.574642
15.453138
15.333223
15.214704
15.09721
14.980624
14.865247
14.751638
14.640396
14.532042
14.426967
14.325416
14.227495
14.133258
14.042802
13.95632
13.874053
13.796209
13.722851
13.653832
13.588799
13.527222
13.468543
14.629164
14.701197
14.776195
14.85468
14.937562
15.026103
15.121478
15.224397
15.335037
15.453096
15.578019
15.709221
15.846356
15.98948
16.138872
16.294651
16.456561
16.623994
16.796025
16.971424
17.148928
17.327964
17.509452
17.695202
17.886217
18.082095
18.28172
18.483965
18.687779
18.891547
19.092038
19.284902
19.467149
19.642606
19.819638
20.001096
20.184396
20.364611
20.537169
20.699221
20.849731
20.988826
21.117904
21.238204
21.348751
21.445457
21.521761
21.57112
21.58924
21.574079
21.533661
21.448883
21.314958
21.127777
20.88123
20.566428
20.171144
19.682602
19.099149
18.424542
17.678496
16.885837
16.054385
15.229796
14.446776
13.744205
13.140835
12.618093
12.150726
11.771957
11.468047
11.219622
11.36087
11.717823
12.162067
12.735943
13.514402
14.548193
15.551415
16.757211
18.144416
19.590021
20.96236
22.215335
23.342563
24.3849
25.358643
26.192096
26.824901
27.281536
27.610261
27.840904
27.990113
28.068231
28.08222
28.048325
27.961223
27.819735
27.623611
27.379102
27.103719
26.819289
26.538156
26.26001
25.977577
25.682419
25.372259
25.047339
24.711117
24.372246
24.045863
23.743164
23.460354
23.167894
22.847574
22.511326
22.173635
21.841514
21.51639
21.199263
20.891881
20.596845
20.3156
20.045539
19.779663
19.514516
19.252011
18.995564
18.747841
18.510227
18.283589
18.068225
17.863357
17.667557
17.480161
17.301932
17.134378
16.978967
16.836616
16.707257
16.589517
16.480739
16.378036
16.279553
16.184467
16.0925
17.911549
18.030789
18.152747
18.277183
18.405018
18.539832
18.688162
18.856024
19.045908
19.257365
19.488124
19.734622
19.992958
20.260944
20.540889
20.838065
21.154286
21.488358
21.838754
22.204269
22.580155
22.955478
23.323716
23.697095
24.098309
24.529678
24.986883
25.466253
25.968688
26.499538
27.068402
27.685945
28.273147
28.649472
29.057482
29.551047
30.129022
30.750544
31.349897
31.908816
32.449206
32.95751
33.466483
33.990253
34.564781
35.224971
35.932723
36.549178
37.035767
37.421122
37.714349
37.909985
38.029761
38.079967
38.045471
37.905959
37.633379
37.169593
36.381702
35.249234
33.992075
32.67058
31.19424
29.450095
27.469016
25.260629
22.784272
20.435555
18.744417
16.260559
14.571663
13.409907
12.604215
11.927249
12.043561
12.895062
14.261679
15.781978
18.332111
22.019154
26.256729
28.407685
28.938435
29.414225
31.280998
32.579155
34.439022
35.594508
37.268879
37.529131
39.242126
38.571151
40.407935
39.488405
41.163092
40.278813
41.959558
41.311042
43.084306
42.566029
44.195173
43.221654
44.311307
42.951551
43.782971
42.564131
43.317074
42.217169
42.890468
41.872592
42.467778
41.525206
42.045695
41.1638
41.615722
40.783453
41.171898
40.376017
40.705311
39.92594
40.201302
39.423415
39.658147
38.843473
39.002141
38.098383
38.180147
37.279802
37.377794
36.560579
36.682999
35.935132
36.062611
35.356798
35.479511
34.79304
34.901139
34.227076
34.277332
33.704423
33.764373
33.164653
33.219499
32.549863
32.597899
31.906447
31.953987
31.311793
31.367783
30.796641
30.86442
30.364381
30.450493
30.311761
31.579776
33.52542
33.958863
31.597899
31.052692
30.486502
29.939289
29.403377
28.868042
28.334591
27.803604
27.316283
26.889498
26.488562
25.963353
25.421229
24.92415
24.459831
24.022041
23.612127
23.233415
22.883158
22.545765
22.213726
21.892754
21.59329
21.322201
21.084052
20.881804
20.712277
20.562182
20.415103
20.266383
20.116843
19.968712
19.823453
21.972936
22.13687
22.306027
22.478628
22.648389
22.805631
22.924909
23.089326
23.30803
23.58281
23.905402
24.271082
24.682589
25.091285
25.428322
25.78895
26.192228
26.616996
27.05444
27.494081
27.935205
28.393705
29.738952
29.901531
29.336742
29.270632
28.776727
28.721592
28.284027
28.233713
27.81934
27.774972
27.385104
27.345113
26.958828
26.924277
26.560792
26.535124
26.207081
26.197449
26.031294
26.544463
27.336033
27.421433
26.366552
26.036087
25.729518
25.446808
25.204385
25.023865
24.936303
24.890229
24.757588
24.602368
24.460766
24.335478
24.22317
27.774911
27.579889
27.370579
27.160929
26.963346
27.446711
30.341918
49.168641
47.489321
45.127689
41.2815
37.465449
30.010213
29.185909
28.333455
28.191764
28.14584
28.114506
28.108728
28.129477
28.10767
27.998393
28.06129
28.074961
28.189868
28.19548
27.951987
28.0704
28.161003
28.349997
28.425866
28.483256
28.544048
28.60227
28.666244
28.722889
28.788848
28.855855
28.857868
28.774715
28.882015
28.937174
29.102098
29.121203
28.806961
28.988397
29.133392
29.380103
29.484049
29.565321
29.64861
29.723745
29.807058
29.880832
29.967976
30.052896
30.058264
29.962772
30.105507
30.178117
30.362143
30.385157
30.04025
30.254723
30.418696
30.716896
30.847805
30.944261
31.03757
31.118918
31.211618
31.294924
31.388592
31.471604
31.568752
31.663835
31.673101
31.571286
31.729745
31.815258
32.031486
32.060193
31.660169
31.862434
32.032372
32.226837
32.565336
32.713963
32.832209
32.95496
33.060048
33.174749
33.275442
33.389968
33.49168
33.641293
33.659115
33.537888
33.632419
33.835718
33.936756
34.209825
34.2445
33.735077
34.013332
34.204556
34.408978
34.822434
35.007691
35.153229
35.302183
35.428105
35.566498
35.687063
35.821904
35.938672
36.077316
36.20166
36.385548
36.410925
36.294516
36.425244
36.777271
36.815485
36.179645
36.526755
36.701712
36.894668
37.185944
37.774347
38.032965
38.214722
38.382177
38.527222
38.693293
38.84001
39.007079
39.154638
39.323308
39.470777
39.645308
39.802488
40.0029
40.21198
40.216927
39.917745
40.301744
40.466125
41.051958
41.107676
39.986276
40.478045
40.730693
41.028331
41.337306
41.673013
42.013276
42.847969
43.192172
43.445687
43.706124
43.918699
44.161633
44.367681
44.607852
44.812585
45.054176
45.265139
45.518759
45.736593
45.995818
46.215686
46.479769
46.706538
46.991274
47.237773
47.57649
47.959941
47.916134
47.176787
47.941255
48.181937
49.521596
49.614446
46.917084
47.746558
48.059784
48.460097
48.935382
49.45039
49.975857
50.522011
51.072199
51.637633
52.210458
52.79505
53.386505
54.000114
54.618036
55.25497
55.897254
56.552776
57.21473
57.882929
58.551937
59.229874
59.928761
60.664095
61.362888
61.331516
61.470381
61.346096
61.371006
61.550097
61.74206
61.866771
61.806356
61.34714
60.012089
59.81224
59.358359
58.122542
56.243861
54.221641
51.974334
49.61562
46.288073
41.822675
33.787384
40.957948
56.641939
54.165248
50.126656
45.144428
40.063403
34.621343
29.312729
24.043926
18.670991
17.129617
14.521191
13.039489
12.754276
14.479493
15.518798
16.53966
18.451355
21.74947
24.721324
21.680406
31.674275
40.15493
48.336228
55.555907
60.923776
66.755762