/*--------------------------------*- C++ -*----------------------------------*\
| =========                 |                                                 |
| \\      /  F ield         | OpenFOAM: The Open Source CFD Toolbox           |
|  \\    /   O peration     | Version:  v2012                                 |
|   \\  /    A nd           | Website:  www.openfoam.com                      |
|    \\/     M anipulation  |                                                 |
\*---------------------------------------------------------------------------*/
FoamFile
{
    version     2.0;
    format      ascii;
    class       volScalarField;
    location    "400";
    object      p;
}
// * * * * * * * * * * * * * * * * * * * * * * * * * * * * * * * * * * * * * //

dimensions      [0 2 -2 0 0 0 0];


internalField   nonuniform List<scalar> 
227544
(
5.2342319
6.3053311
7.5891121
9.3513242
11.31675
13.04641
12.344218
10.254563
8.9348674
7.4610831
6.2019092
4.9602453
4.1488444
3.0153106
2.4963136
1.9974548
1.5620471
1.2647765
0.37245307
-0.029273002
-0.10869283
-0.50885799
-0.76144346
-1.0945841
-1.1182901
-1.5559947
-1.7208417
-1.9156702
-1.89652
-2.2612009
-2.2907855
-2.7021181
-2.5274023
-2.7546402
-2.8954274
-2.9491158
-3.2646989
-3.0858758
-3.2347207
-3.3802809
-3.3711773
-3.6190584
-3.6191474
-3.5527732
-3.763694
-3.7644514
-3.754858
-4.0212024
-3.9311849
-3.8817633
-4.1625634
-4.1060226
-4.0293369
-4.1531578
-4.2720515
-4.2183963
-4.2655586
-4.265605
-4.2949007
-4.4462986
-4.4376148
-4.344859
-4.495172
-4.5264644
-4.4513848
-4.4666227
-4.6778641
-4.5245555
-4.4954252
-4.5905988
-4.6827976
-4.5613782
-4.5407179
-4.5752707
-4.7728792
-4.5955217
-4.5575838
-4.5734681
-4.7393019
-4.6698007
-4.5654645
-4.5891788
-4.6469901
-4.5743327
-4.6489384
-4.5950125
-4.578568
-4.6089186
-4.5207978
-4.615043
-4.4966785
-4.5078448
-4.4917281
-4.4100069
-4.5047888
-4.3708588
-4.3570638
-4.3814687
-4.2760896
-4.2854214
-4.2680921
-4.1788798
-4.1733282
-4.2054663
-4.1343584
-4.0879963
-4.0552295
-4.0721559
-4.1626874
-4.068703
-3.9893325
-3.9603276
-3.9369163
-3.9307669
-3.984145
-4.0109488
-3.8906039
-3.8439976
-3.8130007
-3.8012568
-3.784971
-3.911475
-3.7873863
-3.731478
-3.6944124
-3.6709846
-3.6498285
-3.679141
-3.6605546
-3.5811442
-3.5352526
-3.4941829
-3.5009422
-3.4529783
-3.3900896
-3.3455134
-3.316377
-3.3768273
-3.3274488
-3.2563813
-3.2281313
-3.2000949
-3.1693459
-3.1552416
-3.1378339
-3.1847847
-3.1605656
-3.079594
-3.0396938
-3.0086744
-2.9822958
-2.9662876
-2.9562449
-2.9595733
-2.989229
-2.8923669
-2.8543039
-2.8282381
-2.7928497
-2.7632467
-2.73711
-2.7428104
-2.6988438
-2.6671057
-2.602409
-2.5769884
-2.5612515
-2.5411895
-2.5297833
-2.515779
-2.5558453
-2.4504162
-2.4174432
-2.3889798
-2.353369
-2.3256377
-2.3022268
-2.2787255
-2.2988305
-2.1960114
-2.1514683
-2.1212835
-2.1040391
-2.0679284
-2.0509897
-2.0323659
-2.0709922
-1.9814882
-1.9441038
-1.9116774
-1.8808088
-1.8480799
-1.8208997
-1.7973917
-1.7743736
-1.792732
-1.741099
-1.6596901
-1.6071595
-1.5638935
-1.5286906
-1.5177265
-1.4787735
-1.4918173
-1.4434698
-1.3900066
-1.3556882
-1.3224782
-1.2873549
-1.2586099
-1.2329124
-1.2103954
-1.2003794
-1.1846308
-1.1207494
-1.0857652
-1.0499007
-1.0057494
-0.98060395
-0.93695435
-0.90383105
-0.89165849
-0.91071763
-0.81542496
-0.77070099
-0.73333265
-0.6849628
-0.64649794
-0.60639983
-0.57251003
-0.52881197
-0.55336138
-0.45345824
-0.38999281
-0.32529216
-0.2591645
-0.20386047
-0.16696987
-0.15447931
-0.096069939
-0.026086568
0.026043419
0.094839296
0.15179997
0.21101708
0.26407301
0.33791489
0.33508131
0.45232609
0.55044373
0.650217
0.74962302
0.84436707
0.90345016
0.96498105
1.1016299
1.2228284
1.3211603
1.4498152
1.5730539
1.7106845
1.8284147
2.0221678
1.9642771
3.5586782
-0.5306913
5.9733549
2.8722696
2.295105
2.3634589
1.913965
1.6448434
1.4470915
1.2704264
1.1234121
5.6217066
7.1783526
7.1196617
8.0442708
9.4067195
11.094249
11.764647
12.845758
12.775215
11.54146
10.792954
8.9306818
8.2512253
6.7728916
6.5111998
5.3332385
5.0407563
6.1779237
6.1929073
7.3485895
7.7363924
9.0306993
9.7239281
11.45276
10.810833
10.775935
11.708825
11.966132
12.629172
12.116632
13.130317
12.992051
13.404529
13.077963
12.833396
13.142449
13.039012
13.205806
12.363321
10.550591
9.031355
7.5284319
6.2334537
4.9473499
4.2349663
2.9661441
2.3143791
1.8783988
1.425998
1.2401569
0.38611246
-0.11610373
-0.25450402
-0.51288157
-0.90471356
-1.2308817
-1.1159064
-1.5565589
-1.8110039
-2.0413678
-1.9008553
-2.220114
-2.3849913
-2.6304851
-2.6511761
-2.7324459
-2.9081508
-3.0108023
-3.2405143
-3.2068951
-3.2183275
-3.3710288
-3.4478151
-3.5517063
-3.658147
-3.6384546
-3.704722
-3.7923018
-3.7942503
-3.9609836
-3.9871346
-3.9172951
-4.0773747
-4.2017031
-4.0556552
-4.0994943
-4.2326036
-4.3125953
-4.2377538
-4.2269358
-4.2868202
-4.3488642
-4.1756124
-4.0860419
-4.2552533
-4.1377566
-4.0215585
-3.9875817
-4.0280813
-3.8737698
-3.8340745
-3.7930176
-3.7386735
-3.7848006
-3.6373116
-3.5154778
-3.511658
-3.3229624
-3.4242922
-3.1986992
-3.238398
-3.0091642
-2.9232289
-2.7197061
-2.787415
-2.5363429
-2.4986604
-2.1344499
-2.0806491
-2.121316
-1.818546
-1.5399913
-1.4295557
-1.2302931
-0.9190757
-0.45953733
-0.3803501
-0.081819115
0.45393834
0.5625091
1.3899462
1.9216865
2.28058
3.1270515
3.8351161
4.9892577
6.1444421
7.5503679
9.3999545
11.004973
10.221288
10.278424
8.475621
8.3773531
9.0296874
9.2861964
8.8028343
8.9587655
9.1650879
8.2891036
7.6701211
6.7792947
6.0713761
5.2237519
-0.85186954
-0.90424395
-0.95625568
-1.0076422
-1.0581541
-1.1075509
-1.155594
-1.2020483
-1.2466937
-1.2893237
-1.3297462
-1.3677852
-1.4032816
-1.4360944
-1.4661007
-1.4931965
-1.5172947
-1.5383296
-1.5562479
-1.5710244
-1.5826281
-1.5910898
-1.5963566
-1.5986135
-1.5979932
-1.5941813
-1.5872941
-1.5775655
-1.5650537
-1.5498487
-1.5320611
-1.5118026
-1.4891906
-1.4643494
-1.437408
-1.4084994
-1.3777626
-1.345337
-1.3113656
-1.2759935
-1.2393674
-1.2016354
-1.1629458
-1.1234475
-1.0832886
-1.0426162
-1.0015753
-0.96031173
-0.91895804
-0.87767707
-0.83660458
-0.79584001
-0.75551221
-0.71573773
-0.6766266
-0.63828185
-0.60079857
-0.56426338
-0.52875429
-0.49434021
-0.46108083
-0.42902636
-0.39821785
-0.39737429
-0.42820331
-0.46028409
-0.49357577
-0.52802849
-0.56358207
-0.60016717
-0.6377057
-0.67611085
-0.71528735
-0.7551318
-0.79553359
-0.83637554
-0.87752935
-0.91889413
-0.96033387
-1.0016861
-1.0428171
-1.0835807
-1.1238318
-1.1634231
-1.2022063
-1.2400324
-1.2767522
-1.3122168
-1.3462798
-1.378796
-1.4096226
-1.4386204
-1.4656498
-1.4905772
-1.5132733
-1.5336129
-1.5514781
-1.5667575
-1.5793409
-1.5891351
-1.5960933
-1.6000663
-1.6006925
-1.5984038
-1.5931376
-1.5847174
-1.5731412
-1.5583836
-1.5404712
-1.5194312
-1.4953159
-1.4681913
-1.4381445
-1.4052793
-1.3697187
-1.331604
-1.2910947
-1.2483671
-1.2036134
-1.1570404
-1.1088684
-1.0593302
-1.0086674
-0.95712803
-0.90496338
-0.85243125
-0.85349427
-0.90636696
-0.95886462
-1.0107379
-1.061734
-1.1115917
-1.160059
-1.2069036
-1.2519062
-1.2948593
-1.3355691
-1.3738579
-1.4095661
-1.4425525
-1.4726944
-1.4998885
-1.5240487
-1.5451092
-1.5630207
-1.5777575
-1.5893035
-1.5976923
-1.6029492
-1.6051995
-1.6043363
-1.6002268
-1.5931561
-1.5832238
-1.5704901
-1.5550533
-1.5370235
-1.5165127
-1.4936397
-1.4685304
-1.4413154
-1.4121276
-1.3811062
-1.3483926
-1.3141306
-1.2784661
-1.2415456
-1.2035178
-1.164533
-1.1247411
-1.0842909
-1.0433298
-1.0020041
-0.96046044
-0.91883375
-0.87728763
-0.83595818
-0.79494694
-0.75438361
-0.71438633
-0.67506655
-0.63652852
-0.59886811
-0.56217268
-0.52652065
-0.49198194
-0.45861728
-0.42647635
-0.39560004
-0.3926425
-0.42359907
-0.45584222
-0.48933074
-0.52401424
-0.55983196
-0.59671371
-0.63457997
-0.67334227
-0.71290361
-0.75315834
-0.79399382
-0.83529029
-0.8769151
-0.91876588
-0.9607066
-1.0025715
-1.0442241
-1.0855166
-1.1263014
-1.1664295
-1.2057515
-1.2441162
-1.2813725
-1.3173713
-1.3519648
-1.3850066
-1.4163514
-1.4458583
-1.4733866
-1.4988014
-1.5219714
-1.5427699
-1.5610764
-1.5767772
-1.58976
-1.5999262
-1.6072022
-1.6115
-1.6126185
-1.6105392
-1.6053703
-1.5970426
-1.5855365
-1.5708197
-1.5528992
-1.5317968
-1.5075569
-1.480243
-1.449939
-1.4167472
-1.3807897
-1.3422075
-1.3011611
-1.2578288
-1.2124061
-1.1651017
-1.1161349
-1.0657542
-1.0142159
-0.96177765
-0.90869804
-0.85523212
-0.85776549
-0.91211054
-0.96605159
-1.0193265
-1.0716643
-1.1228069
-1.172498
-1.2204808
-1.2665247
-1.310418
-1.3519628
-1.3909793
-1.4273062
-1.4608027
-1.4913479
-1.5188413
-1.5432022
-1.5643709
-1.5823069
-1.596993
-1.6084268
-1.6166335
-1.621625
-1.6234461
-1.6220204
-1.6174385
-1.6098512
-1.5993412
-1.5859924
-1.5699079
-1.5511991
-1.5299824
-1.5063802
-1.4805205
-1.4525364
-1.422565
-1.3907466
-1.3572247
-1.3221453
-1.2856569
-1.247909
-1.2090514
-1.1692363
-1.1286157
-1.0873411
-1.0455635
-1.003432
-0.96109594
-0.91869482
-0.87639635
-0.83433693
-0.79262202
-0.75138706
-0.7107535
-0.67083565
-0.63174211
-0.5935717
-0.55641464
-0.52035191
-0.48545443
-0.45178339
-0.41938969
-0.41372543
-0.44631896
-0.48023283
-0.51541634
-0.55180715
-0.58933298
-0.62791092
-0.66744844
-0.7078439
-0.74898693
-0.79076003
-0.83303812
-0.87568217
-0.91858171
-0.96159989
-1.0045682
-1.0473417
-1.0897696
-1.1317
-1.1729799
-1.2134559
-1.2529747
-1.2913823
-1.328526
-1.3642546
-1.3984184
-1.4308698
-1.4614639
-1.4900584
-1.5165143
-1.5406966
-1.5624753
-1.5817248
-1.5983258
-1.6121645
-1.6231343
-1.6311434
-1.6361095
-1.6379092
-1.6364211
-1.6316882
-1.6236714
-1.6123588
-1.5977298
-1.579782
-1.5585316
-1.5340145
-1.5062862
-1.4754236
-1.4415244
-1.4047077
-1.365114
-1.3229048
-1.2782624
-1.2313884
-1.1825023
-1.1318485
-1.0796738
-1.0262462
-0.9718384
-0.91673406
-0.8611964
-0.86552908
-0.92257872
-0.97916305
-1.0350083
-1.0898115
-1.1432925
-1.1951772
-1.2452029
-1.2931201
-1.3387014
-1.3817405
-1.4220532
-1.4594773
-1.4938733
-1.5251246
-1.5531371
-1.5778384
-1.5991778
-1.6171244
-1.6316673
-1.6428078
-1.6505674
-1.6549641
-1.6560393
-1.6537817
-1.6483212
-1.639773
-1.6282206
-1.6137621
-1.5965089
-1.5765777
-1.554092
-1.5291799
-1.5019743
-1.4726132
-1.4412376
-1.4079918
-1.3730228
-1.3364803
-1.298516
-1.2592834
-1.2189369
-1.177632
-1.1355255
-1.0927726
-1.049529
-1.0059494
-0.962187
-0.91839369
-0.87473868
-0.83135951
-0.78837448
-0.74592627
-0.70414325
-0.66314683
-0.62305111
-0.58396101
-0.54597197
-0.50916957
-0.47362801
-0.43940985
-0.40656694
-0.39790784
-0.43104721
-0.4656288
-0.5016003
-0.53889723
-0.57744308
-0.61714928
-0.65791689
-0.6996369
-0.74219066
-0.78545161
-0.82928547
-0.87354836
-0.91811131
-0.9628357
-1.0075514
-1.052098
-1.0963197
-1.1400583
-1.1831552
-1.2254515
-1.2667885
-1.3070088
-1.3459551
-1.3834718
-1.419405
-1.4536026
-1.4859153
-1.5161963
-1.5443018
-1.5700914
-1.5934283
-1.6141809
-1.6322221
-1.6474304
-1.6596886
-1.6688938
-1.6749646
-1.6777698
-1.677189
-1.673205
-1.6657705
-1.6548591
-1.6404467
-1.622525
-1.6011001
-1.5761968
-1.5478605
-1.5161583
-1.4811799
-1.4430387
-1.4018725
-1.3578435
-1.3111383
-1.261969
-1.2105688
-1.1571949
-1.1021255
-1.0456441
-0.98805043
-0.92967015
-0.87079304
-0.81579939
-0.87703008
-0.93807198
-0.99857377
-1.0582324
-1.1166975
-1.1736464
-1.2287715
-1.281783
-1.3324139
-1.3804229
-1.4255949
-1.4677413
-1.5067001
-1.5423361
-1.5745403
-1.6032284
-1.6283406
-1.6498384
-1.6677033
-1.6819365
-1.6925538
-1.6995863
-1.7030716
-1.7030656
-1.6996163
-1.69282
-1.6828379
-1.6697499
-1.6536599
-1.6346944
-1.6129798
-1.5886478
-1.5618345
-1.5326798
-1.5013277
-1.4679247
-1.4326201
-1.3955664
-1.3569187
-1.3168324
-1.2754652
-1.2329765
-1.1895271
-1.1452785
-1.1003929
-1.0550321
-1.0093588
-0.96353156
-0.91772032
-0.87209648
-0.82680034
-0.78197189
-0.73776018
-0.6943048
-0.65173814
-0.61018429
-0.56975711
-0.53056033
-0.49268669
-0.45621535
-0.42121258
-0.38773165
-0.37597701
-0.40984405
-0.44532626
-0.4823692
-0.52090419
-0.56084867
-0.60210549
-0.64456511
-0.6881072
-0.732601
-0.77790694
-0.82387839
-0.87036072
-0.91720186
-0.96425889
-1.0113585
-1.0583205
-1.1049827
-1.1511778
-1.1967403
-1.2415046
-1.2853059
-1.3279808
-1.3693671
-1.4093047
-1.4476351
-1.4842012
-1.518848
-1.5514237
-1.5817781
-1.6097638
-1.6352369
-1.6580573
-1.6780863
-1.6951908
-1.7092421
-1.7201337
-1.7277726
-1.7319803
-1.732674
-1.7297808
-1.7232346
-1.712985
-1.698991
-1.6812267
-1.6596819
-1.6343648
-1.605305
-1.572555
-1.5361918
-1.4963188
-1.4530676
-1.4065989
-1.3571026
-1.3047984
-1.2499357
-1.1927935
-1.1336765
-1.0729124
-1.010853
-0.94786793
-0.88429002
-0.82051061
-0.82593028
-0.89266187
-0.95917541
-1.0250316
-1.0898544
-1.1532552
-1.2148512
-1.2742919
-1.3312547
-1.3854478
-1.4366134
-1.4845279
-1.5290009
-1.5698747
-1.6070229
-1.6403497
-1.6697873
-1.6952935
-1.7168499
-1.7344596
-1.7481448
-1.7579437
-1.7639094
-1.7661066
-1.7646136
-1.7595202
-1.7509192
-1.7389726
-1.7238161
-1.7055522
-1.6843133
-1.6602386
-1.6334733
-1.604163
-1.5724549
-1.5385
-1.5024515
-1.464465
-1.4246981
-1.3833103
-1.3404626
-1.2963177
-1.2510401
-1.2047964
-1.1577544
-1.1100834
-1.0619532
-1.0135358
-0.96499809
-0.91653065
-0.86830959
-0.82048169
-0.77321198
-0.72666211
-0.68098713
-0.63633514
-0.59284498
-0.55064445
-0.50985005
-0.47056472
-0.43287555
-0.39685413
-0.36255615
-0.34735876
-0.3821323
-0.41875429
-0.45716739
-0.49729636
-0.53904866
-0.58231416
-0.62696803
-0.67287311
-0.71988087
-0.76783318
-0.816565
-0.86590602
-0.91567789
-0.96572779
-1.0158757
-1.065921
-1.1156912
-1.165009
-1.2137003
-1.2615921
-1.3085132
-1.354294
-1.3987676
-1.441769
-1.4831348
-1.5227032
-1.5603139
-1.5958085
-1.6290304
-1.6598248
-1.6880387
-1.7135234
-1.736127
-1.755703
-1.7721188
-1.7852651
-1.7949641
-1.8010789
-1.8034973
-1.8021153
-1.7968398
-1.7875909
-1.7743007
-1.7569164
-1.7354012
-1.7097379
-1.6799312
-1.6460103
-1.6080314
-1.5660802
-1.5202753
-1.4707698
-1.4177526
-1.3614505
-1.3021293
-1.2400942
-1.1756871
-1.1092838
-1.0413025
-0.97215407
-0.90226568
-0.83213316
-0.83921537
-0.91324999
-0.98699969
-1.059903
-1.1314746
-1.2012754
-1.2688485
-1.3337898
-1.3957369
-1.4543711
-1.5094198
-1.5606549
-1.6078909
-1.6509825
-1.6898222
-1.724337
-1.7544859
-1.7802555
-1.801658
-1.8187279
-1.8315188
-1.8401012
-1.8445599
-1.8449914
-1.841505
-1.83422
-1.823265
-1.8087766
-1.7909302
-1.7698795
-1.7457496
-1.7186922
-1.6888645
-1.6564223
-1.6215227
-1.5843243
-1.5449868
-1.5036715
-1.4605411
-1.4157595
-1.3694922
-1.3219062
-1.2731711
-1.2234589
-1.1729442
-1.1218035
-1.0702158
-1.0183632
-0.96642676
-0.91461413
-0.86311044
-0.81207983
-0.76171219
-0.71218866
-0.66368606
-0.61637438
-0.57041394
-0.52595323
-0.48312743
-0.44205535
-0.40283641
-0.36555047
-0.33025688
-0.31110716
-0.34696556
-0.38498165
-0.42509341
-0.46721523
-0.51123926
-0.55703581
-0.60445716
-0.6533411
-0.70351304
-0.7547887
-0.80697745
-0.85988508
-0.9133102
-0.96707474
-1.0209867
-1.0748322
-1.1284206
-1.1815648
-1.2340813
-1.2857896
-1.3365124
-1.3860751
-1.4343063
-1.4810371
-1.5261006
-1.5693308
-1.610563
-1.6496334
-1.6863793
-1.7206387
-1.7522499
-1.78105
-1.8068768
-1.8295846
-1.8490283
-1.8650204
-1.8774023
-1.8860217
-1.8907356
-1.8914081
-1.8879127
-1.8801339
-1.8679674
-1.8513232
-1.8301273
-1.8043246
-1.773883
-1.7387959
-1.6990856
-1.6548081
-1.6060563
-1.552964
-1.4957097
-1.4345198
-1.3696718
-1.3014972
-1.2303797
-1.1567539
-1.0811195
-1.0039506
-0.92579773
-0.84729811
-0.77318041
-0.85653562
-0.94013565
-1.0232981
-1.1052983
-1.1855136
-1.2634265
-1.3384909
-1.4102396
-1.478268
-1.5422338
-1.6018577
-1.6569187
-1.7072507
-1.7527361
-1.7933016
-1.8289131
-1.8595713
-1.8853068
-1.9061761
-1.922258
-1.93365
-1.9404653
-1.9428295
-1.940879
-1.9347598
-1.9246248
-1.9106331
-1.89295
-1.8717424
-1.8471913
-1.8194808
-1.7887605
-1.7551903
-1.7189392
-1.680174
-1.6390601
-1.5957626
-1.5504473
-1.5032808
-1.4544299
-1.4040629
-1.3523498
-1.2994636
-1.2455806
-1.1908809
-1.135548
-1.0797702
-1.0237395
-0.96765629
-0.91174116
-0.85619494
-0.80121038
-0.74700205
-0.69377942
-0.64174941
-0.5911133
-0.54206288
-0.49477698
-0.44941878
-0.40613141
-0.36503345
-0.32621778
-0.2897498
-0.26600571
-0.30312826
-0.34281717
-0.38500259
-0.42958245
-0.47642462
-0.52536914
-0.57623378
-0.62881924
-0.68291307
-0.73829361
-0.79473489
-0.85200981
-0.90988857
-0.96816321
-1.0266223
-1.0850369
-1.1431984
-1.2009091
-1.2579768
-1.314215
-1.369442
-1.42348
-1.4761553
-1.5272977
-1.5767385
-1.62431
-1.6698453
-1.7131769
-1.7541378
-1.7925593
-1.8282687
-1.861097
-1.8908912
-1.9174659
-1.9406284
-1.9602001
-1.9760003
-1.9878497
-1.9955724
-1.9989966
-1.9979556
-1.9922899
-1.9818499
-1.966496
-1.9461043
-1.9205677
-1.8898014
-1.8537458
-1.8123719
-1.7656862
-1.7137368
-1.656618
-1.5944774
-1.5275247
-1.456036
-1.3803606
-1.3009233
-1.2182247
-1.1328601
-1.0454009
-0.95654755
-0.86712458
-0.77791135
-0.78339383
-0.87932055
-0.97539164
-1.0707048
-1.1643215
-1.2554579
-1.3434773
-1.4277346
-1.5076958
-1.5829185
-1.6530526
-1.7178321
-1.7770662
-1.8306351
-1.8784755
-1.9205726
-1.9569533
-1.9876814
-2.0128504
-2.0325785
-2.0470049
-2.0562844
-2.0605858
-2.060085
-2.0549673
-2.0454218
-2.0316404
-2.0138165
-1.9921448
-1.9668178
-1.9380291
-1.9059628
-1.8708195
-1.8327829
-1.7920104
-1.748675
-1.7029499
-1.6550037
-1.6050042
-1.5531183
-1.4995134
-1.4443572
-1.3878198
-1.3300746
-1.2712994
-1.2116768
-1.1513955
-1.0906512
-1.0296473
-0.96859893
-0.90774452
-0.84730881
-0.7875148
-0.72860999
-0.67084146
-0.61445782
-0.55970483
-0.50682025
-0.45602836
-0.4075351
-0.36152155
-0.31813705
-0.27749557
-0.23967285
-0.21052292
-0.24909267
-0.29077359
-0.33548212
-0.38308876
-0.43342225
-0.4862746
-0.54141036
-0.59857447
-0.65749838
-0.71790736
-0.77952667
-0.84208582
-0.90531755
-0.96898369
-1.0328439
-1.0966489
-1.1601794
-1.2232266
-1.2855922
-1.3470864
-1.4075266
-1.4667364
-1.5245437
-1.5807805
-1.6352808
-1.6878787
-1.7384086
-1.7867031
-1.8325914
-1.8759007
-1.9164706
-1.9541214
-1.9886502
-2.0198682
-2.0475772
-2.0715743
-2.0916535
-2.1076044
-2.1192149
-2.1262715
-2.1285608
-2.1258703
-2.1179943
-2.1047321
-2.0858936
-2.0613036
-2.0308048
-1.9942638
-1.9515759
-1.9026727
-1.8475287
-1.7861646
-1.7186603
-1.6451779
-1.5659625
-1.4813545
-1.3918103
-1.2978965
-1.2003058
-1.0997535
-0.99711215
-0.89344928
-0.78982076
-0.79746875
-0.90996184
-1.0223099
-1.1332637
-1.2416116
-1.3463883
-1.4467902
-1.5420896
-1.6316934
-1.715133
-1.7920926
-1.8623608
-1.9258133
-1.9824295
-2.0322457
-2.0753363
-2.111819
-2.1418465
-2.1655983
-2.183276
-2.1950959
-2.2012871
-2.2020859
-2.1977307
-2.1884633
-2.174523
-2.1561455
-2.1335626
-2.1070005
-2.0766796
-2.0428134
-2.005608
-1.9652625
-1.9219679
-1.8759216
-1.8273001
-1.7762628
-1.7229784
-1.6676143
-1.6103338
-1.5512993
-1.4906739
-1.428622
-1.3653126
-1.3009193
-1.2356229
-1.169613
-1.1030892
-1.0362644
-0.96936142
-0.90263879
-0.83635501
-0.77076527
-0.70615728
-0.64282869
-0.58108492
-0.52123514
-0.46358527
-0.40842856
-0.35603772
-0.30665485
-0.26047978
-0.21766237
-0.17829649
-0.14269667
-0.1829114
-0.22697633
-0.27478365
-0.3261568
-0.38085841
-0.43860231
-0.49906875
-0.5619168
-0.62679536
-0.69335428
-0.76125212
-0.83015952
-0.89977194
-0.96980836
-1.0399913
-1.1100609
-1.1797881
-1.248958
-1.3173713
-1.3848408
-1.4511893
-1.5162479
-1.5798532
-1.6418456
-1.7020673
-1.7603606
-1.8165646
-1.8705165
-1.9220617
-1.97103
-2.0172313
-2.0604786
-2.1005755
-2.1373172
-2.1704895
-2.199868
-2.2252192
-2.2462998
-2.2628585
-2.2746361
-2.2813659
-2.2827754
-2.2785905
-2.2685357
-2.2523396
-2.2297386
-2.2004825
-2.1643391
-2.1210991
-2.0705884
-2.0126756
-1.947251
-1.8742545
-1.7937629
-1.7059293
-1.6110056
-1.5094623
-1.4019169
-1.2891235
-1.1719921
-1.051599
-0.92932082
-0.8066417
-0.68508187
-0.68455642
-0.81814849
-0.95268116
-1.086333
-1.2173489
-1.3441871
-1.4656777
-1.5808739
-1.689118
-1.7897214
-1.8821268
-1.9661668
-2.0417764
-2.1089487
-2.1678816
-2.2187851
-2.2618463
-2.2973007
-2.3254217
-2.3465004
-2.3608413
-2.3687597
-2.3705744
-2.3666032
-2.3571579
-2.3425438
-2.3230557
-2.2989769
-2.2705788
-2.2381209
-2.2018498
-2.1619998
-2.1187927
-2.0724383
-2.0231357
-1.971073
-1.9164296
-1.8593854
-1.8001011
-1.7387235
-1.6754068
-1.6103035
-1.5435642
-1.4753409
-1.4057895
-1.335072
-1.2633594
-1.1908337
-1.1176918
-1.0441482
-0.9704378
-0.89681739
-0.82358319
-0.75104407
-0.67952437
-0.60938717
-0.54101603
-0.47480973
-0.41117439
-0.35051041
-0.29319789
-0.23958
-0.18994336
-0.14450097
-0.10337996
-0.059944056
-0.10203631
-0.14901183
-0.20071667
-0.25688744
-0.31717197
-0.38115236
-0.44837099
-0.51835347
-0.59062652
-0.66473263
-0.74024052
-0.81675899
-0.89392705
-0.97140801
-1.0489049
-1.1261549
-1.2029223
-1.2789959
-1.3541847
-1.4283145
-1.5012238
-1.5727604
-1.6427786
-1.7111363
-1.7776913
-1.8423008
-1.9048279
-1.9651251
-2.0230254
-2.0783613
-2.1309564
-2.1806227
-2.2271596
-2.270354
-2.3099775
-2.3457869
-2.3775234
-2.4049119
-2.4276612
-2.445464
-2.4579967
-2.4649199
-2.4658832
-2.4605208
-2.448465
-2.4293426
-2.402789
-2.3684488
-2.3259776
-2.2750766
-2.2154963
-2.1468669
-2.0688067
-1.981391
-1.8846388
-1.7784356
-1.6633458
-1.5397827
-1.4082966
-1.2701501
-1.1267741
-0.97996029
-0.83184043
-0.68460218
-0.5215123
-0.6812103
-0.84438265
-1.008305
-1.1703294
-1.3279036
-1.4789976
-1.6219817
-1.7557647
-1.8795466
-1.9925024
-2.0937756
-2.1839277
-2.2637187
-2.3331801
-2.3929043
-2.4433413
-2.4847375
-2.5174613
-2.5419453
-2.5586185
-2.5679025
-2.5702341
-2.566046
-2.5557444
-2.5397222
-2.518354
-2.4919924
-2.4609682
-2.4255912
-2.3861507
-2.3429167
-2.2961403
-2.2460546
-2.1928743
-2.1368003
-2.0780184
-2.0167015
-1.9530093
-1.8870943
-1.8191078
-1.7491812
-1.6774377
-1.6040071
-1.5290199
-1.4526087
-1.3749124
-1.2960794
-1.2162722
-1.1356717
-1.0544818
-0.97293477
-0.89129615
-0.80987008
-0.72900182
-0.64909159
-0.57057645
-0.49393243
-0.41968503
-0.34839066
-0.28061641
-0.21691927
-0.15781592
-0.10374796
-0.055048053
-0.011908701
0.041308585
-0.0029680294
-0.053631801
-0.11043428
-0.17294475
-0.24059887
-0.31274834
-0.38870778
-0.46779257
-0.54934648
-0.63277782
-0.71754182
-0.80314844
-0.88918313
-0.97528563
-1.061148
-1.1465077
-1.2311413
-1.3148571
-1.3974896
-1.4788927
-1.5589353
-1.6374957
-1.714457
-1.7897037
-1.8631268
-1.9346187
-2.0040449
-2.0712691
-2.1361526
-2.198544
-2.2582766
-2.3151686
-2.3690194
-2.4196158
-2.4667211
-2.5100778
-2.5494069
-2.5844061
-2.6147487
-2.6400824
-2.6600254
-2.6741673
-2.6820746
-2.6832874
-2.6773206
-2.6636705
-2.6418322
-2.6112893
-2.5715218
-2.5222033
-2.4633019
-2.3938842
-2.3119928
-2.2173057
-2.1101813
-1.9902111
-1.8573555
-1.7126286
-1.5570586
-1.3916891
-1.2181424
-1.0384887
-0.85560551
-0.67294006
-0.49420814
-0.2692461
-0.46322078
-0.66601572
-0.87241512
-1.0776489
-1.2775612
-1.4690498
-1.6498094
-1.8181081
-1.9729268
-2.1137434
-2.240147
-2.3526613
-2.451174
-2.5354233
-2.6057254
-2.6636997
-2.7112413
-2.7486995
-2.7763932
-2.7949425
-2.8049477
-2.8069907
-2.8016534
-2.7894881
-2.7710038
-2.7466735
-2.7169468
-2.6822334
-2.6429046
-2.5993018
-2.5517374
-2.5004974
-2.4458441
-2.3880156
-2.3272195
-2.2636572
-2.1975039
-2.128919
-2.0580392
-1.9849912
-1.9098888
-1.8328587
-1.7540067
-1.673414
-1.5911759
-1.5073911
-1.4221599
-1.3355909
-1.2478087
-1.1589573
-1.0692088
-0.97877092
-0.88789559
-0.79688813
-0.70611628
-0.61601924
-0.52711651
-0.44001798
-0.35542283
-0.27409172
-0.19685422
-0.12456365
-0.05804461
0.0019681065
0.054902238
0.1004261
0.16634353
0.11943478
0.063830108
-1.2687347e-05
-0.071313116
-0.14909595
-0.23229829
-0.3198537
-0.4107646
-0.50410722
-0.59909405
-0.69505497
-0.79143553
-0.88778253
-0.9837306
-1.0789875
-1.1733212
-1.266549
-1.3585265
-1.4491396
-1.5382909
-1.6258997
-1.7118917
-1.7961907
-1.8787289
-1.9594454
-2.0382376
-2.1149993
-2.1896309
-2.2620262
-2.3320725
-2.399619
-2.4645011
-2.5265105
-2.5854503
-2.6410851
-2.6931477
-2.7413479
-2.7853693
-2.8248602
-2.8594352
-2.8886583
-2.9120346
-2.9290511
-2.9391555
-2.9417315
-2.9360844
-2.9215241
-2.8973227
-2.8626003
-2.8166743
-2.7595035
-2.6891723
-2.6040038
-2.504161
-2.3886471
-2.2568923
-2.1084355
-1.9432426
-1.7615583
-1.5641768
-1.3527196
-1.129757
-0.89862103
-0.66409254
-0.43227093
-0.20981372
-0.0035234403
0.095072928
-0.14377784
-0.40158627
-0.66899657
-0.93711528
-1.1984083
-1.447528
-1.6808014
-1.8957185
-2.0909313
-2.2661465
-2.4215465
-2.5575691
-2.6749911
-2.7749051
-2.8575689
-2.9260164
-2.9831462
-3.0270272
-3.0580494
-3.077814
-3.0874988
-3.0879538
-3.0799783
-3.0643765
-3.0418401
-3.0129503
-2.9782604
-2.9383292
-2.8936188
-2.8445229
-2.7913951
-2.7345449
-2.6742634
-2.6108206
-2.544438
-2.4752955
-2.4036277
-2.3295805
-2.2533001
-2.17485
-2.0943083
-2.0117617
-1.9273011
-1.8410215
-1.7529661
-1.6631732
-1.5716919
-1.4785644
-1.3838378
-1.2875768
-1.1898541
-1.090777
-0.99049186
-0.88919849
-0.7871619
-0.68472935
-0.58235288
-0.48060825
-0.38022424
-0.28209598
-0.1872812
-0.097029521
-0.012673393
0.064411239
0.13290645
0.19171852
0.24019347
0.36092513
0.32343866
0.27315537
0.21040195
0.13614435
0.051957894
-0.040362073
-0.13901087
-0.2422834
-0.34869483
-0.45700605
-0.5662233
-0.67557128
-0.78447832
-0.89251714
-0.99938136
-1.1048506
-1.2087704
-1.311045
-1.4116119
-1.5104583
-1.6075541
-1.7028911
-1.796469
-1.8882704
-1.9782824
-2.0664871
-2.1527979
-2.2371266
-2.3193948
-2.3995515
-2.4776462
-2.553523
-2.627073
-2.6979874
-2.7661061
-2.8312481
-2.8931375
-2.95147
-3.0059688
-3.0562996
-3.1020774
-3.1428262
-3.1778858
-3.2066517
-3.2285484
-3.2428335
-3.2486014
-3.2450017
-3.2311192
-3.2056187
-3.166729
-3.1124174
-3.0438484
-2.9619068
-2.8647859
-2.7481176
-2.6094142
-2.4487653
-2.2647197
-2.0566075
-1.8239859
-1.5675004
-1.2892897
-0.99329044
-0.68527298
-0.37408853
-0.071566941
0.20912982
0.45526575
0.63257351
0.34083309
0.0054799661
-0.35377714
-0.71898319
-1.0746536
-1.41031
-1.719364
-1.9991226
-2.2484696
-2.4675101
-2.6583542
-2.8210588
-2.95839
-3.0760652
-3.1750001
-3.2562326
-3.3201296
-3.3669158
-3.3985291
-3.4168671
-3.4234924
-3.4199281
-3.4069607
-3.3854289
-3.3564019
-3.3206131
-3.2785563
-3.2309529
-3.1786766
-3.122218
-3.061935
-2.9981265
-2.9309876
-2.8608234
-2.7878894
-2.7122598
-2.6341078
-2.5539138
-2.4717204
-2.3877804
-2.3017059
-2.2135407
-2.1233747
-2.0313763
-1.9376271
-1.8420911
-1.7447627
-1.6456166
-1.5445997
-1.4416824
-1.3368622
-1.2300509
-1.1212715
-1.0105526
-0.89798965
-0.7837296
-0.66800457
-0.55118378
-0.4337897
-0.31661329
-0.20072832
-0.087569524
0.021080371
0.12312366
0.21614098
0.29769976
0.36545929
0.41793701
0.45443683
0.57982206
0.57733673
0.56084414
0.52615714
0.47091584
0.39660974
0.30565371
0.20146682
0.087490153
-0.033134087
-0.15780279
-0.28448019
-0.41150996
-0.53780929
-0.66255685
-0.7853697
-0.90599404
-1.0243309
-1.1403398
-1.2539268
-1.3651737
-1.4740661
-1.5808999
-1.6856727
-1.7884276
-1.8892989
-1.9883897
-2.0856813
-2.1812785
-2.2751254
-2.3668234
-2.4565323
-2.5439492
-2.6301448
-2.7146284
-2.7974767
-2.8778874
-2.955549
-3.0307205
-3.1033158
-3.1727476
-3.2388292
-3.3015559
-3.3606123
-3.4155782
-3.4651921
-3.5085048
-3.5452555
-3.5748305
-3.5959065
-3.6077276
-3.6098931
-3.6005798
-3.5781222
-3.5409081
-3.4872373
-3.4145706
-3.3189316
-3.2001426
-3.058764
-2.8929715
-2.7019104
-2.4765855
-2.2122932
-1.9098706
-1.5690012
-1.1903778
-0.77864415
-0.34895505
0.08388382
0.49196915
0.84530993
1.4346307
1.1052408
0.66314885
0.15527779
-0.37124694
-0.87941911
-1.3557819
-1.7775844
-2.1471186
-2.4668392
-2.7396194
-2.9743646
-3.1728864
-3.3415778
-3.4814208
-3.5928075
-3.6776566
-3.7386807
-3.780821
-3.8069454
-3.8186617
-3.8174339
-3.8053841
-3.7844716
-3.7541389
-3.715532
-3.6703325
-3.6183791
-3.5594843
-3.4955765
-3.428733
-3.3591535
-3.2869633
-3.2121361
-3.1340553
-3.0538307
-2.971438
-2.8857219
-2.7976984
-2.708636
-2.6184827
-2.5287406
-2.4348671
-2.3382833
-2.2401331
-2.1408713
-2.0400011
-1.9372679
-1.832892
-1.7266246
-1.6181964
-1.5076032
-1.3949203
-1.2793513
-1.161335
-1.0403094
-0.91642512
-0.78957431
-0.6596638
-0.52687213
-0.39119081
-0.25349954
-0.1146633
0.023364396
0.15835502
0.28712112
0.40563174
0.50910889
0.59239034
0.65142778
0.68294821
0.69133369
0.68345671
0.66465532
0.76376096
0.79693631
0.81941094
0.82412514
0.79814262
0.73361706
0.63793851
0.51758789
0.38082105
0.23396845
0.082164398
-0.070775528
-0.22333525
-0.3726285
-0.51823926
-0.65955391
-0.79655972
-0.92964814
-1.0589363
-1.1853919
-1.3086941
-1.4288249
-1.5442189
-1.6581753
-1.7699257
-1.8791629
-1.9862915
-2.0919627
-2.1956745
-2.2980827
-2.4002304
-2.5020665
-2.5926918
-2.6886737
-2.7830865
-2.8768076
-2.9705009
-3.0622947
-3.1491054
-3.2325126
-3.3165347
-3.3981919
-3.4764222
-3.5523577
-3.6263734
-3.6999782
-3.7688265
-3.8281189
-3.8806244
-3.9284606
-3.9687029
-3.998663
-4.021236
-4.0347517
-4.0359405
-4.0239385
-3.9972771
-3.9523632
-3.8801975
-3.7795091
-3.6528531
-3.4981045
-3.3082383
-3.0789588
-2.8012146
-2.4721309
-2.0861544
-1.608683
-1.0458974
-0.43613944
0.21082474
0.86313685
1.4246698
1.8264282
2.597277
2.3356725
1.7776887
1.0782329
0.20334403
-0.58582688
-1.2854291
-1.7575424
-1.5892557
-2.0107467
-2.2002003
-2.4745566
-2.6111808
-2.8783185
-2.985422
-3.2094695
-3.2639478
-3.472849
-3.5014096
-3.6728301
-3.6849392
-3.8334564
-3.8356408
-3.9646322
-3.9603474
-4.0751019
-4.0624053
-4.1586416
-4.1325821
-4.2031296
-4.1691949
-4.2238323
-4.1895479
-4.2289626
-4.1945148
-4.2231192
-4.1864477
-4.2074711
-4.1623364
-4.1826352
-4.1323341
-4.1505269
-4.1019083
-4.1033413
-4.0578753
-4.0538087
-4.0025827
-4.0007336
-3.9472902
-3.9391323
-3.8885001
-3.8684613
-3.811185
-3.7898903
-3.7301328
-3.7090872
-3.6523948
-3.6289845
-3.5719685
-3.5490413
-3.4917473
-3.4649014
-3.4078718
-3.3801096
-3.324572
-3.295105
-3.2416423
-3.2081888
-3.1535429
-3.1163132
-3.0587985
-3.0179654
-2.960245
-2.9202506
-2.8635678
-2.8237127
-2.7677241
-2.7299665
-2.6731236
-2.6592609
-2.6075328
-2.6276505
-2.6463998
-2.5595922
-2.4608969
-2.3559571
-2.2494434
-2.1418576
-2.0324014
-1.9228987
-1.8097542
-1.6941143
-1.5771495
-1.456461
-1.3389913
-1.2104137
-1.078808
-0.94521834
-0.80704425
-0.66406463
-0.51531153
-0.36000287
-0.19945599
-0.030674044
0.14007698
0.312321
0.48166409
0.64267306
0.78689604
0.90109536
0.97341451
0.98945468