/*--------------------------------*- C++ -*----------------------------------*\
| =========                 |                                                 |
| \\      /  F ield         | OpenFOAM: The Open Source CFD Toolbox           |
|  \\    /   O peration     | Version:  v2012                                 |
|   \\  /    A nd           | Website:  www.openfoam.com                      |
|    \\/     M anipulation  |                                                 |
\*---------------------------------------------------------------------------*/
FoamFile
{
    version     2.0;
    format      ascii;
    class       volScalarField;
    location    "100";
    object      omega;
}
// * * * * * * * * * * * * * * * * * * * * * * * * * * * * * * * * * * * * * //

dimensions      [0 0 -1 0 0 0 0];


internalField   nonuniform List<scalar> 
19372
(
11.10987
11.109871
11.109871
11.109871
11.109871
11.109869
11.109867
11.109866
11.109866
11.109888
11.109924
11.110062
11.109961
11.110403
11.109549
11.110526
11.108747
11.109534
11.107991
11.109287
11.108381
11.109895
11.108935
11.109738
11.109431
11.109605
11.109641
11.109532
11.109884
11.109102
11.110061
11.108539
11.109429
11.108113
11.109666
11.10888
11.11065
11.10967
11.11052
11.110078
11.110177
11.110036
11.109992
11.109924
11.109752
11.109396
11.108925
11.108489
11.108421
11.108411
11.108405
11.1084
11.026848
11.026861
11.026878
11.026911
11.027133
11.028438
11.029898
11.031024
11.031595
11.031795
11.031899
11.032074
11.032028
11.032408
11.031643
11.032464
11.030999
11.031385
11.029397
10.950123
10.866708
10.787162
10.713658
10.657824
10.635339
10.692472
10.92269
11.905408
16.501045
38.08647
152.2413
216.50294
279.3493
245.2328
239.32894
188.08113
176.34859
178.59793
175.77148
171.50984
165.38701
139.53551
133.63278
128.69678
124.04578
119.20253
105.56375
101.72803
98.80878
96.192439
93.903635
87.868343
76.362714
73.996937
72.485755
70.909129
69.224858
67.553154
65.968318
64.495106
63.109522
61.812183
60.592187
59.433647
58.342675
57.305085
56.317733
55.387602
54.493068
53.648085
52.838178
52.069429
51.335339
50.636519
49.972261
49.33689
48.730994
48.150975
47.598874
47.072059
46.569886
46.096069
45.641323
45.215424
44.806307
44.422026
44.061155
43.72202
43.417569
43.135549
42.869013
42.621218
42.376107
42.127708
41.712502
40.543816
37.855697
37.096685
36.655893
36.366848
36.101833
36.105959
36.151724
36.095917
35.724468
35.679197
35.593924
35.27312
35.01204
34.802561
34.616095
34.453042
34.293476
34.141187
34.00157
33.8644
33.677966
33.464791
32.895067
31.409619
30.95947
10.940653
10.940681
10.940716
10.940791
10.941216
10.943353
10.945824
10.947761
10.948775
10.949154
10.949359
10.949608
10.949696
10.950069
10.949616
10.950379
10.949625
10.950358
10.867266
10.78645
10.712814
10.655684
10.63373
10.705662
11.042397
12.194599
18.495278
34.388617
62.441181
90.098146
235.97322
180.43096
167.266
202.64174
276.53908
262.5944
264.02573
238.6566
211.0855
199.78244
177.02435
227.58745
232.58685
211.14376
236.5723
219.92714
282.54915
163.1745
59.68284
31.916065
26.205294
16.152142
11.983181
11.751049
10.963837
10.681699
10.623137
10.650255
10.709936
10.784658
10.86627
10.866207
10.783508
10.706903
10.643308
10.606839
10.635138
10.821348
11.252703
11.464178
13.453966
14.471684
23.496132
20.774433
42.147777
52.284109
82.597665
117.25572
252.15461
215.63914
168.73261
84.988541
111.18861
159.38122
188.66613
138.39255
162.04253
85.485716
78.444649
203.32354
261.38328
224.94201
210.02807
215.26437
222.06556
164.12755
163.25969
170.62796
172.10574
170.79743
166.13664
141.65472
134.40113
129.26377
124.47877
120.59035
106.6761
102.20399
99.072386
96.247295
94.215663
91.401172
83.567063
80.257487
91.803159
93.895415
96.325005
99.181729
101.59294
117.05667
121.16787
125.52751
130.11883
133.57033
163.96659
158.3142
154.18232
133.23834
127.56212
123.11901
119.22606
115.5615
112.5904
101.5077
98.482449
95.403073
92.869406
90.226651
79.429572
76.900865
74.933783
72.56674
71.803847
70.725078
69.026888
67.381603
65.83637
64.374553
62.991668
61.680754
60.436576
59.258926
58.139441
57.078653
56.074298
55.115377
54.208842
53.343696
52.525583
51.745647
51.005846
50.303799
49.633347
48.993857
48.383443
47.802431
47.248475
46.721253
46.221724
45.744632
45.295385
44.866006
44.461216
44.081225
43.7233
43.396282
43.098031
42.830282
42.574336
42.311868
42.160501
42.32192
42.204891
42.200646
42.009289
41.704836
41.573756
41.305414
40.991347
40.577311
40.001363
39.363291
39.574165
40.043745
40.47487
40.82562
41.135923
41.335047
41.704574
42.075464
41.971022
42.29931
42.226995
41.797807
41.125607
38.177078
40.672307
41.58154
41.155402
40.264073
37.741973
39.970361
40.892598
40.537265
39.594867
37.098812
39.153672
40.135858
39.658419
38.619331
36.230005
38.154038
39.2111
38.40292
37.135805
38.248659
39.344304
40.092365
40.780851
41.490338
42.227182
42.988745
43.778126
44.592134
45.431277
46.296578
47.185919
48.097838
49.036044
49.996885
50.980831
51.986895
53.016025
54.069884
55.156365
56.271519
57.419138
58.599063
59.812053
61.058911
62.345729
63.668343
65.03267
66.443097
67.911216
69.445249
71.429761
73.130088
75.456628
76.84683
78.153917
79.731995
79.958039
78.36771
78.422968
78.091152
76.394618
74.86491
72.596179
72.265129
70.437284
68.338814
66.746112
65.244399
63.801664
62.407856
61.055646
59.748087
58.47816
57.244866
56.048775
54.889534
53.758895
52.664262
51.59814
50.561375
49.54966
48.563575
47.601821
46.669179
45.760709
44.878206
44.022242
43.193988
42.391238
41.615581
40.863883
40.135493
39.417642
38.63676
37.492593
35.444898
36.675607
37.782097
38.558802
39.359048
40.089919
40.839825
41.616126
42.42254
43.256834
44.121249
45.014505
45.93529
46.886589
47.867007
48.874236
49.91012
50.974159
52.073439
53.203405
54.372528
55.572945
56.810279
58.083573
59.394259
60.741183
62.128958
63.555845
65.025324
66.546212
68.158999
70.677129
73.507707
74.94311
76.619782
76.892009
76.229633
76.172255
74.646236
74.94095
74.809502
73.426878
70.764787
68.31953
66.595738
64.986319
63.440332
61.948097
60.501183
59.100277
57.740404
56.423707
55.146156
53.910985
52.713709
51.557937
50.437518
49.352277
48.299312
47.27468
46.281323
45.320549
44.389789
43.49034
42.622009
41.785905
40.980645
40.209184
39.467245
38.749273
38.006153
37.487512
36.882435
36.288755
35.54622
35.416219
35.564412
35.066605
34.206558
34.515701
34.996301
34.409683
34.957585
35.634763
36.228443
36.789852
37.087513
36.419549
35.772846
36.316191
35.756304
35.072447
33.933213
33.218569
34.573841
35.814638
35.033738
35.475827
36.338517
36.971925
37.379631
36.904348
36.545867
36.157986
36.146161
36.129475
35.701671
35.590275
35.354486
35.248922
35.229723
35.107625
34.20579
34.135457
33.581847
33.499415
32.417177
32.306796
31.207333
31.091838
30.10489
29.999471
29.278288
29.200013
28.781635
28.709268
28.181898
28.09955
27.617317
27.539221
27.137916
27.058362
26.64675
26.561708
26.177622
26.093641
25.78862
25.663526
25.562848
25.686068
25.862768
25.796828
25.543911
25.47308
25.174983
25.114116
24.905657
24.828533
24.437181
24.353229
24.075397
23.989205
23.632975
23.559328
23.365876
23.303335
23.088285
23.045643
23.075228
23.265589
23.461754
23.44967
23.456992
23.464486
23.526787
23.536484
23.562051
23.573063
23.624924
23.627634
10.851037
10.851089
10.851159
10.851307
10.851984
10.854925
10.858413
10.861198
10.862722
10.863366
10.863771
10.864219
10.864584
10.865171
10.865202
10.781792
10.703483
10.63598
10.590094
10.590941
10.709754
11.165195
11.05199
11.919498
12.552214
16.307942
19.570312
33.332881
40.149646
59.623595
150.68217
254.43977
197.1543
207.56135
203.97171
209.98876
171.14447
164.73706
159.17389
153.70738
127.37927
123.85515
119.40328
115.50939
111.65434
97.592077
95.354957
92.636443
90.116444
87.663357
79.605235
78.512714
77.320332
76.501873
75.409802
73.229143
70.38575
68.647888
67.059735
65.560978
64.137524
62.782748
61.492353
60.261994
59.090837
57.975545
56.91383
55.901198
54.9374
54.020766
53.148969
52.320409
51.529798
50.780835
50.063666
49.378745
48.72345
48.09938
47.502888
46.934551
46.393673
45.876889
45.387994
44.922683
44.481454
44.065734
43.674101
43.30992
42.977058
42.679907
42.40979
42.149144
42.02828
42.316314
42.604257
42.941688
43.31399
43.714639
44.142336
44.59559
45.072645
45.574763
46.101588
46.658449
47.238321
47.847497
48.484819
49.150289
49.846973
50.572605
51.328992
52.116105
52.943031
53.802854
54.707577
55.653631
56.642422
57.675777
58.74923
59.873407
61.04065
62.256668
63.522307
64.837218
66.205033
67.632761
69.128343
70.751199
73.984192
77.256302
77.928636
82.414062
84.436632
85.859108
88.050795
90.25985
92.66577
95.498004
107.9008
110.60807
113.94024
117.49608
121.6992
143.82627
148.03419
152.72624
154.78158
160.40238
156.04459
195.07734
198.01649
206.30538
191.54283
228.06781
103.55808
69.840815
176.58118
269.11717
215.38269
208.29615
205.75731
199.6035
160.12449
154.30343
150.16885
144.7336
122.43334
119.892
115.8333
112.33041
108.90761
96.90851
94.966913
92.269857
89.980122
87.633302
79.449968
78.439276
83.78848
82.045949
80.616925
74.322399
71.78032
70.182247
68.682092
67.245304
65.865661
64.534209
63.251649
62.017064
60.82549
59.676149
58.573966
57.509045
56.490233
55.508203
54.568263
53.670743
52.807108
51.97917
51.181875
50.413533
49.673876
48.962646
48.280001
47.624005
46.997413
46.393522
45.817643
45.266224
44.739618
44.236861
43.759271
43.306673
42.879922
42.483113
42.137048
41.793482
41.703529
42.091049
42.487562
42.931218
43.402882
43.899833
44.420793
44.966088
45.534563
46.127481
46.744413
47.387481
48.054485
48.749308
49.469994
50.218672
50.995016
51.799869
52.633967
53.496959
54.396675
55.334796
56.314262
57.337539
58.400217
59.511138
60.666625
61.870828
63.126104
64.433124
65.795482
67.220667
68.711518
70.282336
71.941193
73.683524
75.784198
77.818058
77.300771
80.445388
89.432928
91.543183
93.854038
96.7915
108.02362
110.91783
114.50927
118.39634
123.32859
144.22693
148.96294
150.45016
155.86873
158.31502
165.10425
161.86737
199.80539
205.9679
203.02031
249.18048
131.83612
82.261287
28.320094
25.985885
53.624289
91.361671
222.76221
188.0746
94.17145
124.26824
161.12032
204.57116
149.43221
162.8154
90.775114
216.4863
257.51233
217.44783
206.41433
200.47944
158.45497
155.51255
154.80912
148.28875
145.31536
124.82456
119.44985
115.06582
111.2736
107.64386
97.10652
95.024891
92.468382
90.265315
81.4618
79.728091
82.736146
90.905288
93.530854
96.474053
106.27182
109.23698
112.99747
117.32352
122.46979
126.60861
127.16393
124.39318
144.2075
149.46287
155.46649
162.92003
197.00698
203.04744
201.49003
255.35328
169.01761
61.798598
44.912009
21.25822
14.362691
12.718041
17.005432
26.676379
33.981361
91.656738
144.41832
259.74479
222.08123
96.595863
129.79829
161.58902
207.86996
197.41898
94.672369
149.78074
151.97472
90.716378
193.43091
262.65475
279.56841
219.78584
219.37031
209.07619
166.50779
159.17273
152.35294
148.43556
127.90093
123.71966
118.96176
114.56888
110.60393
107.22637
97.493321
94.698358
92.32137
90.181195
83.127013
82.485499
81.489015
88.278039
89.937961
92.18815
94.598554
97.646207
100.12261
109.87247
114.03804
118.50192
121.92267
127.725
146.59981
129.32897
114.77336
83.943962
83.191988
80.070781
81.293694
80.433533
83.022464
82.413057
82.355504
84.580446
86.776408
66.546621
65.071452
64.055727
68.491753
66.165183
60.150137
51.470829
45.726572
40.879393
34.006105
26.207569
23.679524
15.741601
12.885788
11.392014
10.839388
10.637574
10.610555
10.645354
10.70762
10.783317
10.865277
10.948814
11.030383
11.031447
11.030588
11.031273
11.030999
11.031076
11.030991
11.030756
11.030905
11.030132
11.030944
11.029847
11.030474
11.02889
10.948527
10.862538
10.777116
10.691025
10.607875
10.527315
10.449879
10.375267
10.303267
10.23359
10.165922
10.099878
10.035028
9.970942
9.9072677
9.8437858
9.780395
9.7171317
9.6541224
9.5915789
9.5297192
9.4687697
9.4088967
9.3502338
9.29285
9.2367551
9.1819062
9.1282136
9.0755518
9.0237768
9.0290886
9.0807446
9.1332778
9.1868281
9.2415176
9.2974346
9.3546207
9.4130666
9.4727056
9.5334082
9.5950112
9.6572797
9.719999
9.7829555
9.8460195
9.9091565
9.9724732
10.036201
10.100712
10.166456
10.233875
10.303368
10.375255
10.449793
10.527188
10.607588
10.690813
10.77645
10.862759
10.948366
10.947355
10.861703
10.775148
10.689698
10.606636
10.526495
10.449358
10.375116
10.303595
10.234568
10.167725
10.102653
10.038885
9.9759401
9.913416
9.8510592
9.7887482
9.726513
9.6644837
9.6028684
9.5418718
9.4817255
9.4226073
9.3646407
9.3078886
9.2523581
9.1980068
9.1447476
9.0924595
9.0410028
9.0626059
9.1137245
9.1656049
9.2183813
9.2721689
9.3270504
9.3830652
9.440205
9.4984097
9.5575629
9.6174811
9.6779217
9.738693
9.799607
9.8605495
9.9215062
9.98262
10.044179
10.106641
10.170541
10.236391
10.304634
10.375573
10.449402
10.526261
10.606241
10.689266
10.774826
10.861686
10.947816
10.947155
10.861131
10.774388
10.688977
10.606164
10.526497
10.450106
10.376968
10.307017
10.240113
10.175959
10.114063
10.053819
9.9945915
9.9358433
9.8772262
9.8185561
9.7598125
9.7010788
9.6425163
9.5843162
9.5267415
9.4699748
9.4141283
9.3592601
9.3053831
9.2524651
9.200434
9.149186
9.0985958
9.1568183
9.2065051
9.2567233
9.307578
9.3591505
9.411493
9.4646219
9.5185119
9.573104
9.6282842
9.6838668
9.7395492
9.7951132
9.8504271
9.9054488
9.9602546
10.015103
10.070444
10.126959
10.185468
10.246762
10.31145
10.379819
10.451906
10.527647
10.606943
10.689572
10.774922
10.861687
10.947797
10.947824
10.861866
10.775271
10.690163
10.607925
10.529288
10.454646
10.384325
10.318652
10.257797
10.20148
10.14885
10.098745
10.049998
10.001685
9.9532098
9.9041983
9.854479
9.8040243
9.7529293
9.7014963
9.6501308
9.5990212
9.5482861
9.4979905
9.4481729
9.3988419
9.3499757
9.3015266
9.2534201
9.4259243
9.4714378
9.5169422
9.5624537
9.6079515
9.6533834
9.6986805
9.7437712
9.7885896
9.8330411
9.8769675
9.9197415
9.9608444
10.000306
10.038364
10.075398
10.11197
10.148892
10.187484
10.229463
10.276682
10.330607
10.391561
10.458895
10.531742
10.609346
10.691012
10.775812
10.862245
10.948115
10.948276
10.862542
10.776365
10.692054
10.611319
10.53543
10.465647
10.403644
10.35153
10.31079
10.280652
10.258711
10.242363
10.229143
10.217118
10.205044
10.191408
10.174769
10.154097
10.129082
10.101029
10.070975
10.038844
10.00454
9.9680963
9.9297414
9.8898141
9.8486308
9.8063964
9.7632565
10.457591
10.506324
10.552124
10.594784
10.633611
10.667047
10.693176
10.710725
10.719596
10.720714
10.715009
10.701171
10.674204
10.634181
10.584345
10.530824
10.48117
10.437121
10.401464
10.379864
10.375254
10.389871
10.424863
10.476884
10.541224
10.614241
10.693467
10.776993
10.862769
10.9483
10.948561
10.863223
10.777983
10.695627
10.618782
10.550586
10.49597
10.462858
10.460849
10.499786
10.583675
10.721021
10.91327
11.126373
11.354122
11.591014
11.80417
11.977726
12.106297
12.195534
12.266952
12.317536
12.343822
12.339148
12.303239
12.242093
12.16566
12.083106
11.997445
11.906705
14.866691
15.090851
15.333705
15.628245
15.973561
16.280749
16.487817
16.558348
16.492506
16.397773
16.255871
16.019764
15.677777
15.211646
14.620943
13.925666
13.177555
12.369615
11.571538
11.062385
10.758798
10.584605
10.528441
10.527575
10.56515
10.625413
10.698534
10.779055
10.863362
10.948191
10.949078
10.864611
10.781274
10.70297
10.634906
10.586316
10.575602
10.638606
10.905084
11.066208
11.367893
11.791432
12.343921
13.15575
14.20255
15.512447
16.35018
17.108599
17.055365
17.803803
17.829325
18.555517
18.454847
19.061266
18.801711
19.285395
18.918175
19.297566
18.927852
19.218949
18.86516
19.10992
18.778126
19.020632
18.732508
19.086937
18.796598
18.914445
18.508277
18.59989
18.138957
18.204277
17.680259
17.729565
17.212047
17.251729
16.815847
16.849394
16.474481
16.503927
16.257231
19.729273
20.108259
20.397319
20.72349
20.976059
21.3978
21.863038
22.615874
23.384611
24.293797
24.968561
25.685975
26.256419
26.977138
27.4098
27.513787
27.67678
27.907923
28.129071
28.531269
28.772116
29.165158
29.357424
29.64064
29.763726
29.865906
29.867883
29.821265
29.663021
29.440001
29.094208
28.658866
28.069606
27.187932
26.39609
23.577007
20.097137
17.228271
15.088447
13.625796
12.596325
11.5765
12.971947
11.72713
11.047146
11.157648
10.970287
11.170917
10.811236
10.50772
10.374232
10.309437
10.275705
10.257127
10.246256
10.239686
10.236004
10.234281
10.233676
10.233417
10.232861
10.232163
10.231333
10.230479
10.229379
10.228087
10.226643
10.225135
10.223626
10.222151
10.22073
10.219375
10.218092
10.216888
10.215767
10.289329
10.290171
10.291081
10.292056
10.293093
10.294189
10.295336
10.296522
10.297716
10.298864
10.299879
10.300736
10.301368
10.302054
10.302637
10.303147
10.375229
10.374746
10.374269
10.373712
10.373292
10.37266
10.371902
10.371026
10.370117
10.369221
10.368365
10.367553
10.36679
10.366077
10.365416
10.364807
10.36425
10.441887
10.442273
10.442697
10.443159
10.443659
10.444197
10.444773
10.445388
10.446039
10.446708
10.447354
10.447893
10.448339
10.448572
10.449035
10.449429
10.449923
10.527439
10.526884
10.526552
10.526138
10.52606
10.525752
10.525386
10.524918
10.524439
10.523981
10.523558
10.523167
10.522805
10.522471
10.522163
10.521881
10.521625
10.603524
10.603669
10.603829
10.604007
10.604201
10.604412
10.604643
10.604895
10.605174
10.605486
10.605824
10.606162
10.606401
10.606622
10.606572
10.606975
10.607244
10.607927
10.691216
10.690449
10.690287
10.689867
10.690034
10.689858
10.689709
10.689457
10.689219
10.689011
10.688835
10.688683
10.688546
10.688422
10.688308
10.688205
10.688111
10.688026
10.774574
10.774619
10.774669
10.774724
10.774784
10.77485
10.774924
10.775009
10.775114
10.775251
10.775421
10.775617
10.775699
10.775864
10.775573
10.776026
10.77598
10.776878
10.863213
10.862564
10.86298
10.862478
10.862915
10.862731
10.862707
10.862543
10.862421
10.86233
10.862272
10.86223
10.862195
10.862165
10.862138
10.862113
10.86209
10.862069
10.948499
10.948508
10.948516
10.948525
10.948536
10.948545
10.948557
10.948575
10.948604
10.948664
10.948754
10.948902
10.948875
10.949113
10.948502
10.949093
10.948171
10.948789
11.03086
11.030501
11.032013
11.031234
11.032037
11.031687
11.03176
11.031611
11.031546
11.031506
11.031496
11.031491
11.03149
11.031489
11.031487
11.031485
11.031482
11.03148
11.108672
11.108673
11.108674
11.108674
11.108674
11.108674
11.108674
11.108677
11.108686
11.108714
11.108761
11.108841
11.108833
11.108888
11.108552
11.108748
11.108489
11.108948
11.108223
11.107503
11.10706
11.107007
11.107187
11.107283
11.107273
11.107213
11.10716
11.107128
11.107112
11.107106
11.107103
11.107102
11.107101
11.1071
11.107099
11.107098
11.106012
11.106015
11.106016
11.106018
11.106021
11.106023
11.106028
11.106037
11.106056
11.106091
11.106149
11.106211
11.106216
11.106091
11.105904
11.105992
11.10673
11.10812
11.107866
11.106544
11.105757
11.10568
11.105884
11.106015
11.106004
11.105934
11.105871
11.105831
11.10581
11.105799
11.105792
11.105788
11.105784
11.105781
11.105778
11.105775
11.106017
11.106021
11.106025
11.10603
11.106036
11.106043
11.106051
11.106065
11.106089
11.106132
11.106202
11.106282
11.106303
11.106178
11.105965
11.106017
11.106778
11.108205
11.108296
11.107026
11.106308
11.10627
11.106482
11.106599
11.106568
11.10648
11.106404
11.106357
11.10633
11.106314
11.106303
11.106294
11.106287
11.10628
11.106274
11.106268
11.10638
11.106387
11.106395
11.106403
11.106412
11.106423
11.106436
11.106454
11.106484
11.106534
11.106614
11.106707
11.106745
11.106635
11.106427
11.106461
11.107163
11.108424
11.108459
11.107197
11.106493
11.106456
11.106662
11.106771
11.106732
11.106636
11.106554
11.106502
11.106471
11.10645
11.106436
11.106424
11.106413
11.106404
11.106395
11.106387
11.106286
11.106295
11.106304
11.106314
11.106325
11.106338
11.106353
11.106374
11.106407
11.10646
11.106542
11.106636
11.106672
11.106559
11.106352
11.106394
11.107118
11.108394
11.108345
11.106909
11.106139
11.106081
11.106289
11.106409
11.106382
11.106295
11.106215
11.106144
11.106105
11.106083
11.106068
11.106055
11.106044
11.106033
11.106024
11.106016
11.105641
11.105648
11.105657
11.105667
11.105677
11.10569
11.105708
11.105748
11.105884
11.10597
11.106045
11.106121
11.106137
11.10601
11.105809
11.105892
11.10669
11.108024
11.108276
11.106871
11.106123
11.106031
11.106216
11.106341
11.106333
11.106266
11.106199
11.106112
11.105916
11.105667
11.105619
11.105602
11.105593
11.105584
11.105577
11.10557
11.106257
11.106264
11.10627
11.106277
11.106289
11.106335
11.106624
11.106988
11.107186
11.107267
11.10733
11.107393
11.107403
11.107307
11.107127
11.107183
11.107636
11.108371
11.109088
11.108621
11.108871
11.108671
11.109006
11.108951
11.108958
11.108875
11.108819
11.108746
11.108559
11.108192
11.107736
11.107519
11.107493
11.107485
11.10748
11.107473
11.02496
11.024974
11.02499
11.025015
11.025109
11.025785
11.027155
11.028282
11.028867
11.029076
11.029191
11.029314
11.029327
11.029354
11.029019
11.029361
11.029494
11.030437
11.031012
10.949937
10.866762
10.785845
10.711888
10.653972
10.629105
10.68525
10.968881
11.667953
14.326084
16.438615
19.287441
28.124154
35.956621
50.231428
53.888204
40.748749
25.313133
33.430565
18.675467
19.599015
15.244577
11.937601
12.350587
11.97044
11.591327
13.472015
11.960424
13.498999
11.80903
13.101219
11.585985
12.1815
11.192008
10.607214
10.381542
10.279634
10.228419
10.200703
10.184862
10.175441
10.170071
10.167363
10.166202
10.16572
10.165122
10.164316
10.163346
10.162286
10.160953
10.159392
10.157653
10.155828
10.153985
10.152166
10.150397
10.148694
10.147071
10.145536
10.144095
9.023695
9.0231408
9.0220564
9.0205132
9.0185816
9.0163353
9.0138069
9.0110034
9.0079708
9.0440754
9.0473941
9.0507029
9.0539838
9.0571923
9.0602843
9.06322
9.0659334
9.0683761
9.0705303
9.0723717
9.073849
9.0748915
9.0754369
9.1280798
9.1275476
9.1265503
9.1251446
9.1233991
9.121347
9.1190066
9.1163998
9.1135765
9.1105977
9.1075052
9.1043427
9.1011478
9.0979445
9.1529878
9.1560628
9.1591296
9.162161
9.1651226
9.1679744
9.1706726
9.1731598
9.1753859
9.177326
9.1789693
9.1802979
9.1812471
9.1817628
9.2366095
9.2361128
9.2352122
9.2339642
9.2324272
9.2306054
9.2285016
9.2261419
9.2235761
9.2208588
9.218034
9.2151396
9.2122066
9.2092634
9.2667719
9.2695904
9.2723946
9.2751566
9.2778478
9.2804324
9.2828668
9.2850984
9.2870783
9.2887811
9.2902112
9.2913785
9.2922314
9.292707
9.350096
9.3496405
9.3488327
9.3477431
9.3464158
9.3448265
9.342964
9.3408518
9.3385382
9.336074
9.3335016
9.3308554
9.3281621
9.325448
9.3851598
9.3878031
9.3904165
9.3929769
9.3954577
9.3978258
9.4000404
9.4020524
9.403814
9.4053036
9.406539
9.4075588
9.4083275
9.4087657
9.4686459
9.4682208
9.4674809
9.4665158
9.4653537
9.4639403
9.4622526
9.4603109
9.4581621
9.4558547
9.4534282
9.4509139
9.4483388
9.4457243
9.5069163
9.509556
9.5121454
9.5146615
9.5170796
9.5193696
9.5214926
9.5234007
9.5250469
9.5264131
9.5275281
9.5284596
9.5291845
9.5296026
9.5914685
9.5910478
9.5903218
9.5894027
9.5883042
9.5869452
9.5852942
9.5833697
9.5812203
9.5788947
9.5764327
9.5738653
9.571218
9.5685131
9.5657704
9.6275247
9.6303597
9.633157
9.6358952
9.6385498
9.6410941
9.6434956
9.6457132
9.6476962
9.649393
9.6507831
9.6518986
9.6528334
9.6535808
9.654016
9.7170278
9.7165674
9.7157804
9.7148053
9.7136414
9.7121843
9.7104047
9.7083275
9.7060092
9.703504
9.7008563
9.698101
9.6952673
9.6923814
9.6894671
9.7516842
9.7546308
9.7575677
9.7604691
9.7633065
9.7660482
9.7686557
9.7710812
9.7732655
9.7751456
9.7766903
9.7779224
9.7789552
9.7797953
9.7802905
9.843674
9.8431387
9.8422417
9.8411465
9.8398413
9.8382073
9.8362313
9.8339527
9.8314423
9.8287651
9.8259731
9.823107
9.8202008
9.8172836
9.8143816
9.8778515
9.880613
9.8834196
9.8862457
9.8890603
9.8918297
9.8945112
9.8970504
9.8993776
9.9014137
9.9031112
9.9044714
9.9056175
9.9065599
9.9071353
9.9707797
9.9701706
9.9692087
9.96804
9.9666631
9.9649507
9.9629144
9.9606084
9.9581185
9.95552
9.9528687
9.9502043
9.9475587
9.9449607
9.9424326
10.008429
10.010656
10.012968
10.015346
10.017768
10.020206
10.022624
10.024969
10.027164
10.029118
10.030775
10.03211
10.033261
10.034208
10.034835
10.099669
10.099045
10.098152
10.097069
10.095843
10.094317
10.092527
10.090529
10.088415
10.086258
10.084107
10.081992
10.079938
10.077962
10.076077
10.074292
11.022836
11.022853
11.022869
11.02289
11.022932
11.023101
11.02397
11.025056
11.025654
11.025874
11.025994
11.026096
11.026104
11.025967
11.025768
11.02611
11.027258
11.029057
11.028406
11.027924
11.028237
11.02835
11.028424
11.028342
11.028117
11.027886
11.027494
11.027934
11.028556
11.029917
10.946938
10.861155
10.774891
10.68983
10.607042
10.526956
10.449684
10.375158
10.303228
10.30337
10.374909
10.37525
10.304308
10.306671
10.376654
10.379467
10.311043
10.318117
10.383887
10.390908
10.329798
10.327655
10.316589
10.309804
10.305579
10.30332
10.302598
10.302645
10.233051
10.165527
10.099702
10.100419
10.035889
9.9721576
9.908848
9.8457201
9.7826624
9.7197105
9.6569936
9.5947241
9.5331158
9.4724061
9.4127582
9.3543024
9.2971072
9.2411828
9.1864895
9.132941
9.0804164
9.028777
24.174243
25.093882
25.721506
25.933052
26.151672
26.542364
27.177043
28.203457
29.662571
30.996758
31.171684
31.646805
32.206552
32.958086
37.093379
38.499846
39.050571
39.143355
39.294627
39.479024
39.707987
39.968119
40.265664
40.589321
40.941415
41.305248
41.692291
42.086641
42.500865
42.923056
43.363745
43.813033
44.277984
44.749957
45.235797
45.723977
46.225608
46.73032
47.246054
47.759495
48.276063
48.785945
49.288452
49.775642
50.238769
50.673973
51.06988
51.411696
51.702607
51.91787
52.070105
52.148634
52.155369
51.972538
50.810856
48.586604
41.71793
39.346208
31.462539
25.9859
21.138951
17.865436
15.836274
17.523801
21.281005
14.752666
16.916167
13.034669
14.16144
11.870463
10.777959
10.409547
10.258771
10.186567
10.148037
10.126282
10.113464
10.106089
10.102221
10.038399
9.9754207
9.9128768
9.8505119
9.788203
9.7259755
9.663953
9.6023407
9.541342
9.4811911
9.4220646
9.3640877
9.307325
9.2517851
9.1974278
9.1441675
9.0918853
9.0404433
28.054921
28.65482
31.190644
32.049995
32.327319
32.454979
32.576779
32.703343
32.853262
33.023364
33.220928
33.44074
33.711167
34.045791
34.775072
34.635352
33.610486
34.27028
35.721437
36.220313
36.112898
34.64569
31.679116
31.576161
30.000615
29.9574
28.861592
28.880486
28.093145
28.186773
27.589606
27.757688
27.345013
27.575227
27.397995
28.683386
30.101096
30.236415
30.287369
30.411422
30.539263
30.776599
30.969212
31.320282
31.611128
32.149629
32.674247
32.457723
32.145963
31.393318
31.213911
30.616816
30.461676
29.980782
29.85825
29.53026
29.530917
29.230656
31.20793
31.787341
32.117423
32.255669
33.589223
33.321489
32.779488
33.340767
33.537681
33.681371
33.830228
33.996334
34.169711
34.343952
34.519569
34.718451
34.957197
35.253666
35.524327
35.355821
34.876228
34.644158
33.835096
33.339672
32.414523
32.396939
32.589758
32.023074
31.735754
30.917041
30.590273
29.826686
29.50825
28.863158
28.584667
28.098383
27.887782
27.578402
27.39522
27.050634
26.862815
26.818886
26.859627
26.653964
26.323013
26.132063
25.815047
25.615798
25.304292
25.106701
24.844644
24.654482
24.347011
24.148054
24.132362
24.250383
24.100374
23.902491
23.774397
23.617216
23.471834
23.248082
23.097743
22.927057
22.784336
22.598213
22.609402
22.721418
22.585818
22.487709
22.368231
22.322314
22.272294
22.271898
22.328954
22.487065
22.48183
22.492616
22.507573
22.523772
22.566882
22.664864
22.847547
22.843891
22.805705
22.81569
22.619724
22.604144
22.623917
22.617645
22.380958
22.344665
22.305283
22.288332
22.272732
22.264394
22.271379
22.079498
22.097133
22.099626
22.135687
22.178181
22.278515
22.372862
22.494961
22.275666
22.381619
22.546195
22.682773
22.840664
22.990371
23.196157
23.343513
23.495271
23.628682
23.815145
23.974384
23.716036
23.895187
24.091785
24.368338
24.570228
24.82718
25.043013
25.343211
25.559466
25.860746
26.072331
26.397231
26.640531
26.339693
26.56199
26.746107
27.061414
27.254237
27.544416
27.767131
28.216763
28.506311
29.089098
29.422669
30.121258
30.468865
31.229813
31.556464
32.145737
31.663119
31.991255
32.878436
33.410466
34.24789
34.529256
35.029333
34.704434
34.456844
34.239527
34.037959
33.839944
33.642805
33.448745
33.262318
33.03764
32.814517
32.25715
31.309716
30.895204
11.22438
11.429423
11.97445
12.260925
12.996596
13.626538
14.729524
15.937879
17.827164
19.853978
22.191449
24.058779
27.049021
29.501811
32.894084
36.524595
39.841185
45.323861
48.558248
52.51579
54.861488
54.647216
52.530888
51.560614
51.202488
51.050605
47.718379
46.162099
45.222221
44.10253
43.327268
43.331448
43.458469
43.831066
42.699973
41.505116
36.303215
36.750702
34.527179
35.331289
33.969558
34.902954
33.852279
34.765962
33.802661
34.639815
33.705813
34.46058
33.542059
34.214097
33.315739
33.914606
33.048919
33.574498
32.734852
33.199705
32.393584
32.797851
31.994755
32.362995
31.606707
31.927228
31.160753
31.464313
30.75065
31.024519
30.31325
30.587682
29.951826
30.252564
29.697954
30.084548
29.663615
30.069297
29.985705
31.826728
33.928925
34.119946
34.244605
34.301802
34.350548
34.520942
34.700159
35.011978
35.219148
35.581514
35.809335
36.195195
36.433248
36.832444
37.074659
37.479403
37.733638
38.145041
38.412209
38.830265
39.113641
39.531223
39.817256
40.218576
40.493032
40.854393
41.10229
41.434033
41.643633
41.931691
42.09129
42.331778
42.432836
42.62821
42.69172
42.883448
42.960317
42.450566
42.358086
41.72863
41.727972
41.21121
41.229416
40.725963
40.727367
40.208483
40.183961
39.637434
39.588426
39.026281
38.956685
38.382236
38.295755
37.722031
37.629649
37.071649
36.982811
36.437575
36.349072
35.815099
35.725775
35.197592
35.106934
34.591808
34.501492
34.002944
33.916253
33.455674
33.382098
33.012197
33.038318
32.807552
32.759575
32.493993
37.869461
38.627516
38.899102
38.928356
39.106985
39.354468
39.637245
39.96862
39.655851
33.50809
30.298824
20.332678
17.625564
12.57322
10.784274
10.087099
9.7920025
9.6504577
9.5727009
9.5261162
9.4977425
9.4395323
9.3823843
9.3263604
9.2714705
9.2176765
9.1648975
9.1130197
9.0619095
9.0979815
9.1564435
9.2061191
9.148555
9.1997947
9.2563301
9.3503101
9.3018533
9.2537377
9.4286953
9.4743505
9.5199778
9.5655902
9.3991833
9.3071819
9.2518233
9.304743
9.3587544