/*--------------------------------*- C++ -*----------------------------------*\
| =========                 |                                                 |
| \\      /  F ield         | OpenFOAM: The Open Source CFD Toolbox           |
|  \\    /   O peration     | Version:  v2012                                 |
|   \\  /    A nd           | Website:  www.openfoam.com                      |
|    \\/     M anipulation  |                                                 |
\*---------------------------------------------------------------------------*/
FoamFile
{
    version     2.0;
    format      ascii;
    class       surfaceScalarField;
    location    "100";
    object      phi;
}
// * * * * * * * * * * * * * * * * * * * * * * * * * * * * * * * * * * * * * //

dimensions      [0 3 -1 0 0 0 0];
oriented        oriented;


internalField   nonuniform List<scalar> 
56280
(
-1.9707295e-06
0.0084926515
0.00028885897
-1.9820805e-06
0.0084926881
0.00028881684
-1.967326e-06
0.0084927305
0.00028877301
-1.9950104e-06
0.0084928022
0.00028872961
-2.0987892e-06
0.0084930029
0.00028869937
-2.5011748e-06
0.0084935763
0.00028869513
-3.5219672e-06
0.0084950829
0.00028875544
-5.3040492e-06
0.0084987052
0.00028896307
-8.4792793e-06
0.0085063555
0.00028942809
-8.8894535e-06
0.0085206641
0.00029030614
-6.133967e-06
0.0085404474
0.00029138783
2.8517613e-05
0.0085581029
0.00029226871
2.6040725e-05
0.0085384426
0.00028962832
0.00015321561
0.0084639745
0.0002823629
4.6109806e-05
0.0082186687
0.00026773759
0.00023155674
0.0078952028
0.00024972684
1.3161652e-06
0.0074103451
0.00021414218
0.00010197669
0.0070457322
0.0001320037
-9.9261591e-05
0.0068197977
-5.2270087e-06
0.0070846814
8.4022077e-05
-0.00022529913
0.0075251991
0.00013279477
-5.6209318e-05
0.0080931316
0.0001385085
-0.00016179135
0.008512822
0.00014124686
-4.8837285e-05
0.0088357242
0.00015075204
-4.6835385e-05
0.0089779769
0.00016051097
-6.8358294e-06
0.0090432074
0.00016555755
3.3582557e-05
0.0090427442
0.0001655323
3.6752364e-05
0.0089767121
0.00016042173
0.00015140191
0.008833891
0.0001505871
4.7938457e-05
0.0085105917
0.00014096218
0.00021913054
0.0080909493
0.00013810691
1.2568741e-06
0.007522929
0.00013235429
9.7172984e-05
8.3686371e-05
0.0070826115
-0.00010199952
0.0068171287
-1.5743482e-06
0.0070436044
0.00013383995
-0.00023169131
0.0074078705
0.00021597743
-4.6106257e-05
0.0078925456
0.00025171307
-0.0001527412
0.0082155182
0.00026989942
-2.5052025e-05
0.0084606749
0.00028463131
-2.6964162e-05
0.0085351085
0.0002919251
8.1719819e-06
0.0085549299
0.00029453509
1.1287149e-05
0.0085375122
0.000293584
1.109672e-05
0.0085179931
0.00029240757
8.0215251e-06
0.0085039401
0.00029141924
6.2463663e-06
0.0084965258
0.00029083677
5.1688299e-06
0.0084931106
0.00029050891
4.6708878e-06
0.0084917785
0.00029032785
4.4469779e-06
0.0084913611
0.00029021781
4.3030197e-06
0.0084913144
0.0002901436
4.1504256e-06
0.0084913944
0.00029008124
3.9849151e-06
0.0084914775
0.00029002229
0.0084915233
0.00028996684
-1.2334738e-05
0.0081824468
0.00030952331
-1.2910847e-05
0.0081823537
0.00030969991
-1.3349204e-05
0.0081819471
0.00030988564
-1.376225e-05
0.0081816387
0.0003100887
-1.4028679e-05
0.0081813029
0.00031032465
-1.4423411e-05
0.0081815604
0.00031061284
-1.4819443e-05
0.0081825191
0.00031098756
-1.5083762e-05
0.0081852764
0.00031151372
-1.4853326e-05
0.0081914457
0.00031226389
-1.2797334e-05
0.0082026722
0.00031326486
-7.9817929e-06
0.0082184437
0.00031425292
1.0136825e-06
0.0082312683
0.00031466619
2.5100649e-06
0.0082210975
0.00031251457
9.8203896e-06
0.0081469212
0.00030644345
-2.6341803e-05
0.0079571747
0.00029450569
-3.2941316e-05
0.0076252839
0.00027386116
-6.7750206e-05
0.0072079678
0.00023471154
-3.9511101e-05
0.0068567022
0.00015866312
0.0067259338
5.1683854e-05
0.0066172455
4.7245143e-05
6.1443113e-05
0.0065485093
2.6622956e-05
4.2113287e-05
0.0065030376
1.369553e-05
3.1776142e-05
0.0064475088
1.5668551e-05
3.9860223e-05
0.0063464834
3.3941573e-05
6.7083887e-05
0.0060659135
0.00011404403
0.00016652584
0.0052304198
0.0003661876
0.00046930608
0.0028756693
0.0010719823
0.0012827682
0.0014877332
0.00061750059
0.00077043551
0.00045502395
0.00048210136
0.00055060791
0.00014851915
0.00013729206
0.00016921274
8.8050255e-05
0.00011419511
-5.3726212e-05
0.00013629422
1.8902386e-05
-6.7146354e-05
0.00014494346
-1.2754591e-05
4.1053604e-06
0.00020972844
-8.4895588e-07
-6.3936029e-05
0.00017736832
3.8224105e-05
-5.8639803e-06
0.00026043656
7.0593661e-06
-9.0127607e-05
0.00045289
-0.00013634571
-5.6107737e-05
0.00054069898
-0.00015147672
6.3667747e-05
0.00028986404
0.00019824995
5.2584993e-05
0.00023767054
9.9695872e-06
4.2223905e-05
0.00025031076
-2.0234533e-05
7.594321e-06
0.00040579097
-2.2942501e-05
-0.00013253772
0.00041001771
-1.7995727e-05
1.3768993e-05
0.00037793447
-1.2426386e-05
4.4509626e-05
0.00032602636
-7.4532003e-06
5.9361306e-05
0.00030956335
1.3970595e-05
2.4924206e-06
0.00045451607
4.016003e-06
-0.00014896873
0.00041652865
1.2876575e-05
2.5110846e-05
0.00035389551
1.119735e-05
5.1435789e-05
0.00026710205
2.1985111e-05
6.4808349e-05
0.00020752994
3.780194e-05
2.1770167e-05
0.00031125082
-2.5482234e-05
-7.8238645e-05
0.0010991144
-0.00031048887
-0.00047737469
0.00096811613
-3.3328503e-05
0.00016432675
0.00046450482
0.00033079638
0.00017281493
0.00041844092
1.5646987e-05
3.0416916e-05
0.00045463539
-5.783974e-05
2.1645266e-05
0.00048802371
-3.4148048e-05
7.5973309e-07
0.00050143648
-1.3132859e-05
-2.7991296e-07
0.00050459424
-4.7716588e-06
1.6138965e-06
0.00050312868
-2.286035e-06
3.751595e-06
0.00049986527
-1.6235121e-06
4.8869228e-06
0.00049643788
-1.6167293e-06
5.0441134e-06
0.00049249841
-1.3809458e-06
5.3204222e-06
0.00048888164
-1.3452103e-06
4.961976e-06
0.0004859445
-1.2946217e-06
4.2317604e-06
0.0004825885
-9.7455536e-07
4.3305584e-06
0.00048071933
-1.1726736e-06
3.041844e-06
0.00047843357
-9.225382e-07
3.2083018e-06
0.00047722431
-1.0111535e-06
2.2204083e-06
0.00047600911
-8.7928536e-07
2.0944839e-06
0.00047550688
-8.6593796e-07
1.3681729e-06
0.00047528779
-8.1184977e-07
1.0309427e-06
0.00047560229
-8.5102178e-07
5.3651621e-07
0.00047626096
-8.628939e-07
2.0422727e-07
0.00047739302
-7.9854815e-07
-3.3351034e-07
0.00047876649
-7.8603116e-07
-5.8744677e-07
0.00048073625
-7.7299204e-07
-1.1967636e-06
0.00048268059
-7.3237771e-07
-1.211961e-06
0.00048551359
-7.7973619e-07
-2.0532688e-06
0.00048798724
-6.8403096e-07
-1.7896151e-06
0.00049155696
-8.1333759e-07
-2.7563787e-06
0.00049470077
-6.8580051e-07
-2.4580147e-06
0.00049862319
-8.083886e-07
-3.1140291e-06
0.00050242361
-6.2197336e-07
-3.1784437e-06
0.00050618147
-5.8898921e-07
-3.1688731e-06
0.00051008243
-4.9325939e-07
-3.4077049e-06
0.00051292186
-2.9152056e-07
-2.5479049e-06
0.00051505633
-2.5281328e-07
-1.8816595e-06
0.00051467003
4.633362e-07
-7.7032351e-08
0.0005099502
1.6420188e-06
3.0778098e-06
0.00049822089
4.3064751e-06
7.4228302e-06
0.00046827653
2.1063171e-05
8.8811966e-06
0.00044821864
-1.9435185e-06
2.2001403e-05
0.00045165995
2.9663692e-05
-3.3105002e-05
0.0011748833
-0.00045102882
-0.00027219448
0.0020472411
-0.00029951768
-0.00057284016
0.0023246805
-8.5406159e-05
-0.00019203328
0.0023830472
1.4832322e-05
-7.3199029e-05
0.0022466735
0.00013511044
1.2633054e-06
0.0014511204
0.00050320064
0.00029235241
0.00049510674
0.00024367459
0.00071233912
0.0002481029
8.1384808e-05
0.00016561903
0.00029140175
-4.6748495e-05
3.4496432e-06
0.00038821804
-4.6550253e-05
-5.0266038e-05
0.00028257096
0.00012089945
-1.5252372e-05
0.00030551568
-5.9642067e-06
-1.6980511e-05
0.00036178792
-5.3062607e-05
-3.2096295e-06
0.00040618361
-3.8047769e-05
-6.3479265e-06
0.00043322641
-2.3589823e-05
-3.4529745e-06
0.00045005084
-1.5318973e-05
-1.5054587e-06
0.00046156039
-1.0635347e-05
-8.7419683e-07
0.00046786089
-6.5068466e-06
2.063396e-07
0.00046815819
-2.6837851e-06
2.3864882e-06
0.0004588093
1.1626777e-06
8.1862154e-06
0.00043573224
1.90349e-06
2.117357e-05
0.00041799166
-1.7558471e-05
3.5299043e-05
0.00048801476
-3.0073458e-05
-3.9949637e-05
0.0011028626
-0.00020211938
-0.00041272843
0.0019548556
-0.00047429488
-0.00037769819
-0.00016061441
3.0032722e-05
-2.2120369e-05
0.0079963141
0.00018691125
-2.2763796e-05
0.0079957655
0.00018723166
-2.3513543e-05
0.0079951167
0.0001875801
-2.4224043e-05
0.0079943887
0.00018796047
-2.4973971e-05
0.0079936737
0.0001883791
-2.5387111e-05
0.0079931256
0.00018884799
-2.5553335e-05
0.0079932958
0.00018938954
-2.5136485e-05
0.007994821
0.00019003856
-2.3945514e-05
0.0079994193
0.00019083544
-2.1614205e-05
0.0080085471
0.00019179381
-1.8522927e-05
0.0080225439
0.00019280853
-1.6533117e-05
0.0080357643
0.00019351413
-1.8885965e-05
0.0080304535
0.00019299686
-2.9727111e-05
0.007967768
0.00018999431
-4.8206369e-05
0.0077929366
0.00018271733
-6.5502316e-05
0.0074739465
0.00016863342
-6.845073e-05
0.0070670153
0.00014390096
0.0067299218
0.00010557479
0.0066571867
4.0205095e-05
5.9152942e-05
0.0066073307
2.2343345e-05
4.1208172e-05
0.0065526955
2.391292e-05
4.6390808e-05
0.0064562019
5.4207344e-05
7.6227889e-05
0.0062341772
0.00015765016
0.0001784185
0.0056624096
0.00041718004
0.0005207752
0.0020244547
0.0023615536
0.00071214564
0.001636238
0.0015542608
0.00040359252
0.0006841019
0.00039139166
0.00058021645
0.00032099835
0.00074375573
0.00028385186
0.00011298572
0.00013184614
0.00013774726
0.00012370963
2.2394966e-05
0.00010993211
1.6825832e-05
1.0989321e-05
-9.1111363e-05
0.00021812906
5.51419e-05
-7.2227485e-05
-6.4931183e-05
9.5094101e-05
2.43535e-06
8.0675959e-05
-3.1412035e-05
0.00012820954
-2.8631196e-05
0.00017359725
3.69518e-05
0.00025584092
3.9264185e-05
-0.00012235681
0.00023357392
4.1647975e-05
1.8843136e-05
0.00029168039
-5.1047108e-05
0.00022435383
-6.9019145e-05
0.00022059336
-0.00011327054
-3.4445713e-05
-0.00021397793
6.287695e-05
0.00065327367
-0.00028157933
-0.00042608438
3.389719e-05
6.4938721e-05
-0.00039253762
-0.00012597709
0.0001340783
0.00015337961
-0.00028852398
0.00015075304
-9.028884e-05
-3.3061686e-05
-0.00018072721
0.0001322273
0.00043377429
-0.00023452133
-0.00027567506
-6.6212931e-05
7.0871937e-05
-0.00019113248
0.00012953989
-0.00015894057
-0.00034593832
7.3367191e-05
9.826448e-05
0.00010460624
0.00024265761
-0.00054718947
8.912732e-05
0.00036071422
0.00020195416
-0.0017021608
0.0001245479
0.00073380419
0.00061761763
0.00037830159
0.00068468372
-0.0022877578
0.0002184162
0.0017963595
0.0006512837
-0.0062949559
0.00044289891
0.0025652776
0.0017111673
-0.0066546537
0.00025836101
0.00051851678
-0.0068011846
0.0001243934
0.0001797877
-0.0068807671
5.2097364e-05
8.1692473e-05
-0.0069357877
2.6582076e-05
5.235143e-05
-0.006989525
2.5793438e-05
5.028721e-05
4.2427946e-05
7.5267426e-05
0.0073907608
3.7980661e-05
8.7632914e-05
0.0073329437
2.7312398e-05
5.6298137e-05
0.0072772375
2.7061761e-05
5.5226533e-05
0.0072070936
4.10241e-05
8.121714e-05
0.0070937877
7.2450046e-05
0.00016524929
0.0068227702
9.0719224e-05
0.00043865933
0.0025764531
-0.00013417037
0.0032084492
0.0016149371
-0.0002578628
0.0002053163
0.0020084375
0.00062056217
0.0018910184
0.00063481253
-0.00020712153
0.00017001558
0.0015907711
0.00033735332
0.0013150259
0.00039875996
-0.00025493899
7.390474e-06
0.00024289794
0.00045936444
0.00030066235
0.00055964973
0.00039227963
0.00017571289
-8.4893106e-05
0.00035709179
0.00012747142
0.00023787977
0.00011130854
0.00013873261
8.0204664e-05
1.8942488e-05
0.00010342676
5.3927697e-06
2.9913087e-05
-0.0001365377
-6.8058242e-05
8.627692e-05
0.00022174577
6.9939278e-06
-3.8891958e-05
-1.6185357e-05
3.2183852e-05
2.9887391e-05
2.0427635e-05
0.00010488446
5.2740257e-05
-0.00021694431
2.3184766e-05
2.0573332e-05
8.0042037e-06
-3.0881339e-06
-1.2212924e-05
-2.9007738e-05
0.00016069145
1.9523798e-05
-8.83855e-05
0.00014075885
0.00024696461
-0.00037802847
9.8214306e-05
0.00017047302
0.00012814636
0.00029913538
9.8373406e-05
6.7625131e-05
3.5914786e-05
0.00015024549
4.5349975e-05
-0.00021030946
0.00013878373
0.0001584737
-1.9322833e-05
0.00046509352
-0.00032142991
-1.4145663e-05
0.00045506162
0.00016296129
0.00037822446
7.5301358e-05
0.00059099821
0.00023105117
-0.00038094797
3.7982124e-05
0.00061163504
-0.0002110915
0.00015247255
8.2300702e-05
0.00052697661
8.1978478e-05
0.00026941478
1.1135869e-05
0.00027108114
8.3032278e-06
0.00027130938
-5.4430054e-05
3.3967287e-05
0.00043686539
-2.4017706e-05
-0.00016448081
0.00048283062
-8.0341511e-05
1.6380555e-05
0.00044335173
-3.0160769e-05
5.7213274e-05
0.00035949101
2.1435e-05
5.497252e-05
0.00031192366
2.1215603e-05
4.0322346e-05
0.00048220951
1.9682645e-05
-0.0001859525
0.00050436955
-2.9731179e-05
2.0447713e-05
0.00044184984
1.4795245e-05
5.8921816e-05
0.00032780837
7.7391835e-05
5.8634749e-05
0.0002290615
9.0433427e-05
4.6115381e-05
0.00023273589
-2.9156619e-05
6.061256e-05
-0.00013836554
-0.00042913489
0.00012628176
0.00089724061
-0.00053377492
-0.00051459539
7.1629174e-05
0.00010426476
-0.00057952423
5.6937152e-05
8.5383518e-05
-0.00066312553
5.4168104e-05
4.4228441e-05
-0.00060081581
-0.00018184915
8.9808254e-05
-0.00042585816
0.00022654121
-0.00038181621
-0.00049538407
-1.9143688e-05
0.00010988521
-0.00054304944
-1.1602332e-05
8.0702698e-05
-0.00060879618
-9.8853398e-06
4.5471313e-05
-0.00056322112
-0.00021794046
9.2023883e-05
-0.0004200254
0.00018979893
-0.00035701235
-6.9286573e-05
0.00012180773
0.00045339951
-1.5234118e-05
0.00010418307
0.00015788138
0.00023747683
-2.3695159e-05
8.1736466e-05
0.00020219971
-7.245986e-05
0.00066090176
4.9152258e-05
-0.00027037748
0.00063946574
-2.2868808e-05
3.4419492e-05
0.00056383683
-2.6708046e-05
9.0734624e-05
0.00045236727
-2.0215088e-05
0.00011254096
0.00013922379
0.00023890603
-5.839208e-06
8.0076654e-05
0.00023567231
-5.1756466e-05
0.00068894051
7.7810037e-05
-0.00029217221
0.00069326142
2.7534246e-05
2.2312951e-05
0.0006227186
3.4501668e-05
9.2978302e-05
0.00053662467
4.3638126e-05
0.00011408498
0.00081772449
0.00048784923
-0.00064266729
0.0010002097
-0.0002766612
4.3094942e-05
0.00055584369
0.00035914949
0.00015371665
-3.3513127e-05
0.0007114705
0.00016853566
0.00042500348
5.9509544e-05
0.00043701324
3.6372319e-06
0.0005395578
-0.00018810789
2.7723588e-05
0.00056152681
-5.8314773e-05
2.1977103e-06
0.00056491905
-1.8418042e-05
1.892947e-06
0.00056236634
-7.975536e-06
5.7565914e-06
0.00055712584
-4.6548608e-06
7.6093221e-06
0.00055101431
-3.589204e-06
8.0772224e-06
0.00054478116
-3.2753059e-06
7.8917277e-06
0.00053882804
-2.9877821e-06
7.5599531e-06
0.00053348334
-2.8409339e-06
6.8404235e-06
0.00052870053
-2.585e-06
6.0731907e-06
0.00052437947
-2.2569258e-06
5.6034346e-06
0.00052122259
-2.2920158e-06
4.2762152e-06
0.00051816437
-1.932269e-06
4.0679489e-06
0.00051622594
-2.0368306e-06
2.964111e-06
0.00051445962
-1.728685e-06
2.6157191e-06
0.00051370257
-1.8174875e-06
1.7086031e-06
0.00051331479
-1.5762314e-06
1.1521538e-06
0.00051364522
-1.6905499e-06
5.0910003e-07
0.00051439423
-1.6407054e-06
2.8807948e-08
0.00051589166
-1.5751781e-06
-7.2080616e-07
0.00051768621
-1.5003175e-06
-1.0802635e-06
0.00052026298
-1.4974896e-06
-1.8522737e-06
0.00052294858
-1.4162829e-06
-2.0016865e-06
0.0005265871
-1.453716e-06
-2.9645454e-06
0.00053011214
-1.3420822e-06
-2.866989e-06
0.00053464456
-1.4349924e-06
-3.9107623e-06
0.00053910514
-1.3449499e-06
-3.8014309e-06
0.00054422057
-1.4417305e-06
-4.4820855e-06
0.00054957384
-1.1743991e-06
-4.8008447e-06
0.0005548543
-1.0607684e-06
-4.8086874e-06
0.00056063246
-9.8894755e-07
-5.2824693e-06
0.00056560807
-6.0471082e-07
-4.6624149e-06
0.00056994945
-3.6400053e-07
-4.2301937e-06
0.00057267567
5.7493599e-07
-2.8378233e-06
0.00057121707
2.6215601e-06
4.7906147e-07
0.00056253786
4.3320246e-06
8.6536618e-06
0.00054994014
-5.9593725e-06
3.9620262e-05
0.0004087957
0.00013564343
3.5574887e-06
-0.00018059618
0.00015862668
0.00020067465
0.00023009054
-0.00018846477
8.7687273e-05
5.5824747e-05
-3.0577228e-05
0.00018190267
-0.00059243974
0.00025264953
-6.6651165e-07
0.0002974903
-0.00066426401
0.000336863
8.1467452e-06
0.00033870437
-0.00071349988
0.00036598225
1.378765e-05
0.0003510719
-0.00073060797
0.00037389517
2.2044443e-05
0.00034816539
-0.00072737293
0.00037095075
4.0443771e-05
0.00033436847
-0.00071390213
0.00036113433
9.9989224e-05
0.00030480679
-0.00070884551
0.00034449327
0.00035887977
0.00020147873
-0.00077919263
0.00031882335
4.7679813e-06
0.00032967403
8.0020527e-05
-5.5582767e-05
-2.1770498e-05
0.00025458168
-2.6564468e-05
-1.3170723e-05
0.00034608491
-4.9877899e-05
-9.2237279e-06
0.00038554252
-5.5121054e-05
-8.6773611e-06
0.00040460075
-5.6981727e-05
-9.3558739e-06
0.00040903315
-5.7282743e-05
-1.0908607e-05
0.0003955804
-5.5323301e-05
-1.9013562e-05
0.00035489902
-4.9303763e-05
0.00028371307
-3.3136682e-05
-1.8050588e-05
0.00027895229
2.480373e-05
-1.9923605e-06
-3.3825747e-06
0.0001504168
-6.4581342e-06
0.00022380709
3.1486791e-06
0.00019578424
-0.00027258917
0.00088546399
4.2050408e-05
-0.00045277787
-0.00086874193
-6.8887422e-05
0.0023242694
-0.00080069379
-0.00035433942
1.4908421e-05
-0.00048726052
1.3536744e-05
1.1826581e-05
0.00038527038
8.4583924e-06
1.5388369e-05
0.0008986388
7.3410489e-06
-0.00050580105
-0.0009191639
-2.3009942e-05
0.0025299437
-0.00075801845
-0.00039551968
-9.0552208e-07
-0.00051539764
5.8861568e-06
1.6085711e-05
0.00039251715
2.0695419e-06
1.5900212e-05
0.00091509637
-1.1082522e-05
-0.00051240221
-0.00091185936
-6.0747093e-05
0.002626334
-0.0007616411
-0.00037725515
-4.5242541e-05
-0.00050044419
-4.8540343e-06
1.5210954e-05
0.00034497617
-1.6486739e-05
1.2741443e-05
0.00086834642
-9.3653309e-05
-0.00047495948
-0.0010286506
-9.9554161e-05
0.0027072179
-0.00077141382
-0.00023162499
-0.0004579616
-0.00043271729
4.2745675e-06
2.1953771e-06
-0.00011212743
-1.1885576e-05
-0.0010381048
3.453345e-06
0.0024216206
-0.00096406922
-0.00045500676
-0.00085151285
1.3033101e-05
-2.8739479e-05
-0.00017088562
-0.00080663993
9.4267756e-06
-2.1101043e-05
-3.3198651e-05
-0.00078740519
6.0030091e-07
-8.4389323e-06
-1.1396102e-05
-0.00077192732
-6.6521892e-06
9.466763e-08
-8.9203486e-06
-0.00075857087
-8.0806324e-06
4.0459921e-06
-9.3218107e-06
-0.00074710783
-7.1908643e-06
5.324993e-06
-9.5971711e-06
-0.00073721891
-6.3517369e-06
5.558672e-06
-9.0958519e-06
-0.00072769702
-6.073205e-06
5.4563808e-06
-8.9050737e-06
-0.00071942056
-6.0664426e-06
5.6127926e-06
-7.8228108e-06
-0.00071196341
-6.1103755e-06
5.6856024e-06
-7.0323696e-06
-0.00070522035
-6.4082537e-06
5.9213406e-06
-6.2561527e-06
-0.00069912026
-6.712579e-06
6.0625592e-06
-5.4500635e-06
-0.00069430703
-7.0413744e-06
6.4541208e-06
-4.2259848e-06
-0.00069013552
-7.0068668e-06
6.4818696e-06
-3.6465037e-06
-0.00068728569
-7.3760928e-06
6.6959543e-06
-2.1696931e-06
-0.00068508874
-7.5674252e-06
7.0150508e-06
-1.6445796e-06
-0.00068446062
-7.9918004e-06
7.2906228e-06
7.3062172e-08
-0.00068437392
-8.2622242e-06
7.630749e-06
5.4476968e-07
-0.000686047
-8.7398259e-06
7.9653857e-06
2.4475227e-06
-0.00068842218
-8.9422357e-06
8.2003815e-06
3.1170383e-06
-0.00069259759
-9.6489499e-06
8.9381615e-06
4.8861986e-06
-0.00069782551
-1.0235625e-05
9.4006538e-06
6.0628908e-06
-0.0007043932
-1.1059624e-05
1.0073002e-05
7.5543069e-06
-0.0007127029
-1.2033907e-05
1.1249014e-05
9.0945942e-06
-0.00072238912
-1.3382703e-05
1.2185801e-05
1.0883125e-05
-0.00073314701
-1.5352708e-05
1.4102937e-05
1.2007653e-05
-0.00074583804
-1.7657079e-05
1.6293166e-05
1.4054945e-05
-0.0007593703
-2.0577758e-05
1.9319937e-05
1.4790084e-05
-0.00077161215
-2.4595656e-05
2.3303157e-05
1.3534349e-05
-0.00077692144
-3.4691131e-05
2.777686e-05
1.2223561e-05
-0.00077449515
-2.9181225e-06
2.5620781e-05
-2.5128945e-05
-0.00061436353
-0.00018323709
9.1144036e-07
2.2194026e-05
-0.00036173349
0.00021211617
-6.3895514e-05
-0.0004008507
-0.00039013563
-2.3548735e-05
-1.0917922e-06
5.3042667e-05
-0.00036717854
-4.839459e-07
-5.3254605e-06
-1.7147688e-05
2.0572127e-05
-0.00082732175
-4.8908773e-05
0.00048847986
5.2345515e-05
0.00035798905
-0.00087401213
0.00048424969
0.00039228604
0.00024652206
-0.0010287523
0.00044228969
5.2951228e-05
0.00035040709
-1.7554673e-05
6.4823932e-06
1.2597557e-05
0.00029967252
-1.2796784e-05
0.00039128584
-2.1183178e-05
0.00037921034
-5.0098643e-05
3.8625413e-05
0.00013051433
0.00024447329
-4.4604457e-05
4.8827178e-05
0.00023715178
-7.7758372e-05
0.0006111983
-0.00033150644
0.00020193322
0.00078917692
6.815913e-06
-0.00018771266
0.00077894289
7.4162545e-06
-3.1873352e-05
0.0007687198
-2.2754947e-05
8.3823763e-06
0.00075635896
-2.2471457e-05
1.4254543e-05
0.00074371214
-1.9202125e-05
1.4191869e-05
0.00073217763
-1.6432778e-05
1.2614576e-05
0.00072180543
-1.4426013e-05
1.1415511e-05
0.00071330755
-1.3086584e-05
9.5505574e-06
0.00070628318
-1.2086878e-05
8.0516201e-06
0.00070066177
-1.1146511e-05
6.5322949e-06
0.00069603215
-1.0459484e-05
5.4401621e-06
0.00069369064
-9.8815052e-06
3.2807736e-06
0.0006913478
-9.3965037e-06
2.9995214e-06
0.00069123317
-8.9964724e-06
8.4887641e-07
0.00069127386
-8.5756764e-06
5.4318957e-07
0.00069337026
-8.2647716e-06
-1.3990617e-06
0.00069569006
-7.96326e-06
-1.7326282e-06
0.00069990867
-7.6645497e-06
-3.5609232e-06
0.00070412411
-7.4797539e-06
-3.7770652e-06
0.00070985637
-7.3263428e-06
-5.1184993e-06
0.00071631653
-6.9294502e-06
-5.9389613e-06
0.00072377642
-6.6437697e-06
-6.926494e-06
0.0007317561
-6.4665474e-06
-7.57958e-06
0.00074080237
-6.5251966e-06
-8.5942717e-06
0.00075056824
-7.1937235e-06
-8.9238834e-06
0.00076169218
-9.1353471e-06
-9.1794548e-06
0.00077533281
-1.3646197e-05
-8.0750659e-06
0.00079418745
-2.041213e-05
-5.0946995e-06
0.00081774001
-1.3986205e-05
-8.9660559e-06
0.00085717694
1.0264884e-05
-4.0275038e-05
0.0010681208
-9.8025413e-06
-0.00018810821
-0.0010938724
0.00016330101
0.002649154
-0.00064700846
-0.00081298312
-0.00010423228
-0.00018645953
-0.0008502221
0.00010307893
-5.557506e-05
-0.00079025832
-0.00010912685
3.5176868e-05
-0.00077464627
-3.6832538e-05
8.0835457e-07
-0.00076378791
-1.733595e-05
-7.1686086e-06
-0.00075395551
-9.9794638e-06
-8.9882813e-06
-0.00074488028
-7.466769e-06
-8.802187e-06
-0.00073614493
-6.770545e-06
-8.4900025e-06
-0.0007283684
-6.8001147e-06
-7.44296e-06
-0.00072108849
-7.1439958e-06
-6.7796798e-06
-0.00071480101
-7.4425002e-06
-5.7744365e-06
-0.00070963996
-7.7079883e-06
-4.7793965e-06
-0.00070553732
-7.933343e-06
-3.6490597e-06
-0.00070157167
-8.318124e-06
-3.3120726e-06
-0.00069966265
-8.3898963e-06
-1.4823785e-06
-0.00069784574
-8.9763753e-06
-1.1053107e-06
-0.00069814564
-9.0528403e-06
7.7706122e-07
-0.0006986677
-9.6924753e-06
1.2180636e-06
-0.00070134548
-9.9973802e-06
3.278661e-06
-0.00070413844
-1.072689e-05
3.638341e-06
-0.00070889624
-1.1413107e-05
5.711428e-06
-0.00071482578
-1.2090226e-05
6.8732525e-06
-0.00072234557
-1.3115473e-05
8.5483872e-06
-0.00073137059
-1.4037291e-05
9.9757195e-06
-0.0007422431
-1.5311981e-05
1.1758483e-05
-0.00075448577
-1.7176013e-05
1.2985904e-05
-0.00076784699
-2.030251e-05
1.446161e-05
-0.0007793664
-2.5070234e-05
1.4118178e-05
-0.0007801864
-2.8142463e-05
6.207521e-06
-0.00069220913
-2.5039558e-05
-5.552146e-05
-0.00019653567
2.0666698e-06
-0.00028509714
-0.00021264299
-0.0003368181
-2.2228003e-05
3.9609075e-05
0.00012290136
-0.0003955161
-9.6632614e-06
2.3756804e-05
-0.00015075077
4.8085386e-06
0.00029321325
-0.00023498017
0.00014142324
0.00012995794
0.00035598006
-0.00062772384
0.0004349991
0.00042555504
0.00021492104
-0.00091728256
0.00040676442
-1.4987932e-06
0.00032100339
9.7462762e-05
8.5876769e-06
-2.7688844e-05
0.00024296212
-1.851031e-06
0.00032628308
-7.6551267e-06
0.00027467088
-1.5225892e-05
4.461009e-05
0.00069616614
-8.8252158e-05
-0.00033117643
0.00078449707
-7.5185506e-05
-3.8184984e-05
0.00079179416
-4.3362849e-05
7.9232979e-06
0.00078013601
-2.716974e-05
1.3757655e-05
0.00076542496
-1.9919356e-05
1.4327893e-05
0.00075235243
-1.7355187e-05
1.3251702e-05
0.00074109931
-1.6326437e-05
1.2267577e-05
0.00073182881
-1.5252575e-05
1.0485783e-05
0.00072367335
-1.4276394e-05
9.3163891e-06
0.00071744739
-1.3268377e-05
7.4041075e-06
0.00071222868
-1.2514301e-05
6.3199046e-06
0.00070870342
-1.1584451e-05
4.3828214e-06
0.0007060551
-1.0923615e-05
3.5745579e-06
0.00070474486
-1.0346051e-05
1.9638089e-06
0.00070469853
-9.9041214e-06
8.9761773e-07
0.00070562166
-9.563909e-06
-3.3560359e-07
0.00070773209
-9.1322384e-06
-1.3680842e-06
0.00071107482
-8.8932141e-06
-2.7676385e-06
0.00071522316
-8.6345442e-06
-3.4471376e-06
0.00072006042
-8.0607091e-06
-4.4845378e-06
0.00072612931
-8.050615e-06
-5.4607764e-06
0.00073316823
-7.7277005e-06
-6.4552222e-06
0.00074061075
-7.0652042e-06
-7.1774215e-06
0.00074915332
-7.0203143e-06
-8.2928052e-06
0.00075738701
-7.0443678e-06
-8.656088e-06
0.00076544121
-8.8876367e-06
-9.146027e-06
0.00077134925
-1.561499e-05
-7.6290002e-06
0.00076974725
2.259148e-06
-3.7489687e-05
0.00067572783
6.4320716e-05
-7.9428149e-05
-8.8074279e-05
0.00018592847
0.00029281232
0.00028506131
-3.9045473e-05
0.00028370948
0.0003306775
-0.00066341578
-3.8383468e-05
0.00031051255
0.0003424866
-0.00065366115
-0.00017759191
0.00035109327
0.00037688185
-0.00058876668
-0.00018646765
0.00012981793
-0.00020201786
8.1075658e-05
4.4828023e-05
0.00017985072
-0.00068267527
0.00027152888
0.00028518656
0.00018241687
-0.00070352372
0.00028074831
1.3677e-05
0.00047816696
-2.1204057e-05
-0.00018545334
-3.2435602e-05
0.0002558095
-2.7280033e-05
0.00031883797
-4.1604924e-05
-1.5830031e-05
1.4186554e-05
-3.8523228e-05
0.00035900468
1.7129732e-05
0.00037321787
-5.5084361e-05
1.7461915e-05
0.00036104726
-5.0866901e-05
2.0905044e-05
0.00032662725
-4.6360904e-05
-7.5577529e-06
0.00024001364
-2.5622372e-05
0.00040921411
-2.0880611e-05
0.00037403519
-1.2191919e-05
-5.6861443e-05
-0.0002165796
7.6306505e-05
0.00090578134
-0.00039147305
9.0813105e-06
2.160814e-06
0.00032542683
-1.3728458e-06
1.1654575e-05
0.00083399403
2.807277e-05
-0.00046033346
0.0026105866
4.4241676e-05
-0.00075175186
-3.2825521e-05
0.0028150415
1.4518617e-05
-0.00018614806
9.1728638e-06
0.0028247218
-0.0002175662
0.0027853024
-0.00045406311
3.8173985e-05
0.0028896845
-2.7619348e-05
-0.00011493671
3.8406895e-05
0.0028483646
-0.00014137963
2.8629456e-05
0.0027922997
-0.00015618826
6.2681542e-05
0.0026753609
-0.00017946933
0.00249557
-0.00019402521
0.0025541826
1.7388564e-05
-6.1168778e-05
0.002529541
0.00013637226
2.3379746e-05
0.0011186964
0.0011686014
0.00019510322
0.00055034056
4.8911717e-05
0.00061428025
0.00069917906
1.97348e-05
0.00054094779
0.00065683056
-7.9099221e-05
0.00055982872
-0.0011054311
0.00064443641
-0.00045289744
0.00063801174
-0.00096485305
0.00070063953
-0.00045977486
0.00025181728
-0.0003943739
0.00014943404
-0.00047445905
8.4182698e-05
-0.00014011135
7.0612842e-05
-7.7826155e-05
0.00031943918
-0.0012198697
0.00050379765
-4.1028679e-05
0.00048092948
-0.0011202541
0.00060252715
-1.6196696e-05
-0.0011824556
0.00052546463
0.00063215899
-2.1773351e-05
-0.0011707578
0.00054023983
0.00063609465
-1.4434775e-05
-0.001192555
0.0005459941
0.00063922236
-1.4973611e-05
-0.0011990657
0.00054894787
0.00065065666
-5.5452328e-06
-0.0012095683
0.00054958941
0.00065055048
-9.5797922e-06
-0.0011849396
0.00054808143
0.00064089269
-7.50312e-06
-0.0011915593
0.00054854455
0.0006409381
-6.829225e-06
-0.0012021946
0.00055065336
0.00065086733
-1.823208e-06
-0.0012074184
0.00055132605
0.00065108634
-5.7609258e-06
-0.0011878602
0.00055004288
0.00064175505
-6.0059438e-06
0.00055039943
0.0006419256
-0.00119208
-4.6040824e-06
0.00055233475
0.00065204685
-0.0012057835
-1.988535e-07
0.00055301187
0.00065260124
-0.0012100183
-3.7836418e-06
0.00055279883
0.00064471028
-0.0011939243
-6.7072662e-06
0.00055470842
0.00064717758
-0.0011989624
-1.0229984e-05
0.00055763355
0.00065878527
-0.0012128961
-7.606579e-06
0.00055825499
-0.0012193379
0.00065845948
-1.4529514e-05
0.00055633828
-0.001196957
0.00064754162
-1.2376165e-05
0.00055623542
-0.0012043545
0.00064596569
-1.2879915e-05
0.0005570893
-0.0012109682
0.00065438265
-6.6896451e-06
0.00055638146
-0.0012150598
0.00065248809
-1.2786725e-05
0.00055232219
-0.0011859337
0.00063970856
-1.4436666e-05
0.00054924682
-0.0011828552
0.00063525835
-2.4343554e-05
0.00054571882
-0.00117284
0.00063702811
-8.6099565e-05
0.00055109076
-0.0011200391
0.00063070433
-0.00044418379
0.00062044661
-0.00094165629
0.00067929391
-0.0004569536
0.00024419562
-0.00037459993
0.00014317412
-0.00048786432
8.0188539e-05
-0.00011330806
6.4030243e-05
-8.1467293e-05
0.00031713949
-0.0012236969
0.00050016038
-3.1288674e-05
0.00047455542
-0.0011218353
0.0005971013
-9.2623928e-06
0.00052012932
-0.0011637857
0.00062163006
-6.8990438e-06
0.00053615286
-0.0011609216
0.00062240544
-7.6338598e-06
0.00054403885
-0.0011711711
0.00062786709
-4.1188632e-06
0.00054953095
-0.0011955905
0.00064254456
-2.2424892e-06
0.00055227016
-0.0011997543
0.00064560781
-5.3378694e-06
0.00055212976
-0.0011886327
0.00063959829
-7.7122079e-06
0.00055327805
-0.001192324
0.00064142029
-8.1625008e-06
0.00055561476
-0.0012082832
0.00065311875
-5.2351831e-06
0.00055700653
-0.0012151817
0.00065524783
-1.6373669e-05
0.00055672611
-0.0011938782
0.00064829061
-1.8651346e-05
0.00055639628
-0.001202907
0.00064878841
-2.9455146e-05
0.00055550681
-0.0012008318
0.00065612882
-2.2697835e-05
0.00055303528
-0.0012113623
0.0006515697
-4.2741807e-05
0.00054637454
-0.0011607609
0.0006344303
-0.00010133994
0.0005527224
-0.0011223102
0.00062818596
-0.00045831389
0.00062548964
-0.00096556026
0.00069704457
-0.00047057652
0.00023937661
0.00013481194
-0.00036192592
-0.00051779627
7.394831e-05
-7.9105349e-05
5.2376788e-05
-9.6440736e-05
0.00032199565
-0.0012653299
0.00052197867
-6.5813215e-05
0.00047948163
-0.0011139922
0.00060388303
-3.3960494e-05
0.00052577443
-0.0011871888
0.00062956167
-3.9308097e-05
0.00054444183
-0.001187654
0.00064855976
-2.1111968e-05
0.000551317
0.00065261081
-0.0012221239
-3.3106934e-05
0.0005517864
0.00064568016
-0.0011854716
-2.7979748e-05
0.00055233436
0.00064625271
-0.0012037143
-4.8630628e-05
0.00055074365
0.0006522988
-0.0011823916
-0.00010442639
0.0005568451
0.00064664488
-0.0011476942
0.00062331214
0.00069219928
-0.00095207642
-3.2930951e-05
8.5569049e-05
0.0079119002
-3.4064299e-05
8.6072475e-05
0.0079108263
-3.5163161e-05
8.6622458e-05
0.0079095932
-3.6192853e-05