/*--------------------------------*- C++ -*----------------------------------*\
| =========                 |                                                 |
| \\      /  F ield         | OpenFOAM: The Open Source CFD Toolbox           |
|  \\    /   O peration     | Version:  v2012                                 |
|   \\  /    A nd           | Website:  www.openfoam.com                      |
|    \\/     M anipulation  |                                                 |
\*---------------------------------------------------------------------------*/
FoamFile
{
    version     2.0;
    format      ascii;
    class       volVectorField;
    location    "0";
    object      U;
}
// * * * * * * * * * * * * * * * * * * * * * * * * * * * * * * * * * * * * * //

dimensions      [0 1 -1 0 0 0 0];


internalField   nonuniform List<vector> 
49454
(
(5.6999999 -0.6272088 0.077188633)
(5.9499849 -0.53544915 0.020676157)
(5.879257 -0.49436574 0.052874088)
(5.4874768 -0.40080555 0.046104569)
(5.3000129 -0.58413189 -0.017329521)
(5.2874996 -0.3830135 0.03639672)
(4.9707896 -0.48996254 0.022404109)
(5.089448 -0.55059967 0.062038447)
(5.177408 -0.53702109 0.01083923)
(5.1631164 -0.5383977 -0.0045450946)
(5.145354 -0.54227211 -0.0043809745)
(5.1335587 -0.54302658 -0.0059718121)
(5.1402907 -0.56131579 -0.007091692)
(5.2066897 -0.59717843 0.0014227209)
(5.2877597 -0.5960579 0.004277258)
(5.4807769 -0.63083273 0.053780227)
(5.5672679 -0.52578357 0.064149166)
(5.3830168 -0.54481185 -0.052114866)
(5.356725 -0.57818635 0.046647482)
(5.4264355 -0.72925515 0.090518594)
(5.7316684 -0.61148443 0.0075971248)
(5.6439743 -0.60183971 0.027166307)
(5.3485817 -0.46022009 0.039097793)
(5.1430781 -0.65931603 -0.024202152)
(5.1354743 -0.47138826 0.02523068)
(4.8308048 -0.55885012 0.012275443)
(4.9350362 -0.61990099 0.057321108)
(5.0195871 -0.59756861 -0.0048641547)
(5.0213801 -0.6099089 -0.0024999066)
(5.0255124 -0.61755834 -0.0023868603)
(5.037195 -0.62275808 0.0031455996)
(5.0588278 -0.62938374 0.0044577801)
(5.0765267 -0.61940858 0.0067689662)
(5.1090862 -0.56686788 0.07118415)
(4.8692556 -0.52491338 0.038270041)
(5.1117722 -0.87127786 -0.055019151)
(5.5942804 -0.7766595 -0.041721451)
(5.3386454 -0.47179345 0.081617956)
(5.1077999 -0.49373456 -0.03964289)
(5.142806 -0.6729452 0.20522197)
(5.4016172 -0.61737894 0.0085787843)
(5.1950287 -0.68035534 0.02173126)
(4.990783 -0.48882175 0.039468345)
(4.7622349 -0.65025965 -0.014209712)
(4.7245533 -0.50581035 0.011979716)
(4.4428781 -0.57817713 0.014175003)
(4.5005837 -0.62375097 0.061312182)
(4.5485681 -0.60079342 0.0096500243)
(4.5384136 -0.60017722 0.02147773)
(4.5805874 -0.61487805 0.049318343)
(4.6048381 -0.58115816 0.066797326)
(4.5509535 -0.42779625 0.093016004)
(3.8854634 -0.88652223 0.29082107)
(4.0361197 -0.10199805 0.02754859)
(4.3066479 -0.019967774 0.030498632)
(4.4535283 -0.060710493 0.013048172)
(4.8112683 -0.063045253 0.06920083)
(5.033982 0.040801442 0.044694577)
(4.8189167 0.02563499 -0.077499771)
(4.818648 -0.0073365736 0.02947833)
(4.8970878 -0.019946447 0.02561668)
(4.9694099 -0.01237806 0.011916103)
(4.9963278 -0.0043861755 -0.0037750842)
(4.992864 -0.0014656341 -0.0060972607)
(4.979314 0.0013425512 -0.0061619734)
(4.9663228 0.00036677788 -0.0033073152)
(4.9598515 2.2220865e-05 -0.0019239612)
(4.9572276 -0.00074752758 -0.0011942018)
(4.9576758 -0.0012026049 -0.00064674065)
(4.9598255 -0.0012232985 -0.00025540807)
(4.9626186 -0.0011448325 -1.9925843e-05)
(4.9655723 -0.0010269777 0.0001092395)
(4.9684461 -0.00090329526 0.0001868216)
(4.9711431 -0.00078574788 0.0002311168)
(4.973624 -0.00067925205 0.00025476169)
(5.0177739 -0.00028271348 0.0027213574)
(5.0191493 -0.00032091898 0.0030414813)
(5.0206757 -0.00036348661 0.0034079559)
(5.0223786 -0.00041150998 0.0038301262)
(5.0242891 -0.00046556618 0.0043163553)
(5.0264433 -0.00052587199 0.0048743265)
(5.0288844 -0.00059356888 0.0055158843)
(5.0316621 -0.00066695354 0.0062436622)
(5.034829 -0.00074446693 0.0070592506)
(5.0384434 -0.00082686961 0.0079692988)
(5.0425673 -0.00091322754 0.0089701939)
(5.0472598 -0.0010020163 0.010051684)
(5.0525749 -0.0010918941 0.011198241)
(5.0585565 -0.0011814066 0.012387898)
(5.0652345 -0.0012684059 0.013591093)
(5.0726194 -0.0013501736 0.014772411)
(5.0807004 -0.0014237261 0.01589306)
(5.0894436 -0.0014858591 0.016912523)
(5.0987906 -0.0015331186 0.017790525)
(5.108661 -0.0015626131 0.018491782)
(5.1189548 -0.0015720012 0.018985994)
(5.1295557 -0.0015593771 0.019250521)
(5.1403367 -0.001523887 0.019272229)
(5.1511659 -0.0014661302 0.019049308)
(5.1619123 -0.0013873643 0.018586923)
(5.1724482 -0.0012885175 0.017892424)
(5.1826487 -0.0011697981 0.016972059)
(5.1923938 -0.0010347142 0.015843319)
(5.2015727 -0.00088603195 0.014520996)
(5.194465 -0.0062415561 0.00087505836)
(5.180063 -0.0062389191 0.00084922423)
(5.1656815 -0.0061801384 0.00082268196)
(5.1514628 -0.0060686237 0.00079634679)
(5.1375403 -0.0059084827 0.00077006632)
(5.1240353 -0.0057043416 0.00074351614)
(5.1110559 -0.0054619481 0.00071730936)
(5.0986954 -0.0051878597 0.00069218171)
(5.0870305 -0.0048886842 0.00066772773)
(5.0761191 -0.0045711465 0.00064346054)
(5.0660013 -0.0042422563 0.00061989083)
(5.0566999 -0.0039088649 0.00059753107)
(5.0482212 -0.0035770295 0.00057587511)
(5.0405554 -0.0032520072 0.00055452713)
(5.0336793 -0.0029385692 0.0005338813)
(5.0275597 -0.0026403278 0.00051408232)
(5.0221549 -0.0023600695 0.00049507783)
(5.0174169 -0.0020996058 0.00047666981)
(5.0132935 -0.0018598506 0.00045848891)
(5.0097308 -0.001641203 0.00044100919)
(5.0066755 -0.0014433642 0.00042424035)
(5.0040751 -0.0012654783 0.00040776287)
(5.0018793 -0.001106514 0.0003915086)
(5.0000407 -0.0009653309 0.00037573845)
(4.9985158 -0.00084063603 0.00036080489)
(4.9972649 -0.0007307848 0.0003462545)
(4.9962515 -0.00063413004 0.00033153148)
(4.9954425 -0.00054959102 0.00031718535)
(4.9961133 -0.0019169446 0.00034642267)
(4.9971074 -0.0022098053 0.00036233494)
(4.9983367 -0.0025430093 0.00037863075)
(4.9998377 -0.0029213278 0.00039545952)
(5.0016502 -0.0033496177 0.00041295023)
(5.0038179 -0.003832047 0.00043111235)
(5.0063885 -0.0043723141 0.00044993481)
(5.0094126 -0.00497354 0.00046940124)
(5.0129433 -0.0056382459 0.00048961034)
(5.0170348 -0.0063673879 0.00051060525)
(5.0217419 -0.0071601922 0.00053246099)
(5.0271178 -0.0080137399 0.00055518685)
(5.033212 -0.0089224724 0.00057880076)
(5.0400676 -0.0098778317 0.00060316703)
(5.0477194 -0.010868983 0.00062844241)
(5.0561918 -0.011881725 0.00065452586)
(5.0654954 -0.012899688 0.00068147582)
(5.0756253 -0.013903845 0.00070912004)
(5.0865593 -0.014873801 0.00073739512)
(5.0982575 -0.015788216 0.00076616333)
(5.1106615 -0.016626079 0.00079536318)
(5.1236944 -0.017366987 0.00082487027)
(5.1372622 -0.017991365 0.0008544311)
(5.1512557 -0.018481538 0.00088363527)
(5.1655519 -0.018823469 0.00091255939)
(5.1800165 -0.01900415 0.00094060429)
(5.1945062 -0.019013741 0.00096742156)
(5.194594 -0.032827706 0.0010667896)
(5.1799108 -0.032804112 0.0010380509)
(5.1652624 -0.032484667 0.0010075466)
(5.1507947 -0.031886408 0.00097568238)
(5.1366448 -0.031030495 0.000942993)
(5.1229385 -0.029943464 0.00090953074)
(5.1097875 -0.028654705 0.00087590814)
(5.0972874 -0.027198033 0.00084228401)
(5.0855162 -0.025609277 0.00080887341)
(5.0745327 -0.023925466 0.00077588469)
(5.0643765 -0.022183671 0.00074352086)
(5.0550684 -0.02041948 0.00071194722)
(5.0466108 -0.018665493 0.00068133989)
(5.0389907 -0.016950971 0.00065166362)
(5.0321811 -0.015299912 0.00062298718)
(5.0261439 -0.013731799 0.0005954519)
(5.0208323 -0.012260319 0.00056917171)
(5.016194 -0.010895262 0.00054401207)
(5.0121733 -0.009641223 0.00051990845)
(5.0087135 -0.0084993937 0.00049683374)
(5.0057585 -0.007467632 0.00047482783)
(5.0032537 -0.0065416709 0.00045381834)
(5.0011477 -0.0057156341 0.00043371205)
(4.9993925 -0.0049828182 0.0004143913)
(4.9979441 -0.0043356182 0.00039580539)
(4.9967624 -0.003766126 0.00037795786)
(4.995811 -0.0032664032 0.00036086295)
(4.9953077 -0.0046692883 0.0003655538)
(4.9961876 -0.0053858855 0.00038288599)
(4.9972897 -0.0062036923 0.00040091692)
(4.9986499 -0.0071343034 0.00041971333)
(5.0003087 -0.0081892099 0.00043930216)
(5.0023104 -0.0093796604 0.0004597532)
(5.0047038 -0.010716315 0.0004811505)
(5.0075418 -0.012208347 0.00050358863)
(5.010881 -0.01386269 0.00052713593)
(5.0147805 -0.015682955 0.00055185726)
(5.0193008 -0.017668259 0.0005777725)
(5.0245016 -0.019812251 0.00060501651)
(5.0304407 -0.022102214 0.0006335785)
(5.0371701 -0.02451789 0.00066349515)
(5.0447337 -0.027031362 0.00069458301)
(5.0531635 -0.029606672 0.00072684345)
(5.0624774 -0.032201165 0.00076018953)
(5.0726764 -0.03476629 0.00079446765)
(5.0837422 -0.037249179 0.00082950843)
(5.0956361 -0.039594649 0.00086510123)
(5.1082984 -0.041747409 0.00090099742)
(5.1216494 -0.04365416 0.00093697722)
(5.13559 -0.045265404 0.00097277317)
(5.1500044 -0.046537026 0.0010080529)
(5.1647624 -0.047430975 0.0010424456)
(5.1797219 -0.047915977 0.001075581)
(5.194732 -0.047967556 0.0011069942)
(5.1949141 -0.064482056 0.0010980135)
(5.1794174 -0.06437963 0.0010631727)
(5.1639945 -0.063692424 0.0010271914)
(5.1488035 -0.062452639 0.00099051909)
(5.1339941 -0.060702081 0.00095353296)
(5.1197037 -0.058491848 0.0009164882)
(5.1060548 -0.055881951 0.00087961476)
(5.0931514 -0.052940127 0.00084317476)
(5.0810767 -0.049739829 0.00080737766)
(5.0698913 -0.046357621 0.00077249999)
(5.0596325 -0.042869689 0.00073866401)
(5.050315 -0.039349041 0.00070600409)
(5.0419323 -0.035862454 0.00067463894)
(5.0344592 -0.032468325 0.00064462427)
(5.0278551 -0.029215157 0.00061599606)
(5.0220675 -0.026140348 0.00058877571)
(5.0170361 -0.023270165 0.00056291126)
(5.0126956 -0.020620469 0.00053838264)
(5.0089794 -0.018198163 0.00051507338)
(5.0058214 -0.016002869 0.0004929153)
(5.0031585 -0.014028241 0.00047177824)
(5.000931 -0.012263632 0.00045158539)
(4.9990841 -0.010695583 0.00043222915)
(4.9975678 -0.0093088914 0.00041366354)
(4.9963371 -0.0080877154 0.00039577596)
(4.995352 -0.00701628 0.00037852059)
(4.9945769 -0.0060788322 0.00036183724)
(4.993615 -0.0074287977 0.00035648044)
(4.9942505 -0.0085815495 0.00037235399)
(4.9950793 -0.0099014594 0.00038868055)
(4.9961359 -0.011408809 0.00040550863)
(4.9974602 -0.013124524 0.00042289838)
(4.9990973 -0.01506993 0.00044090849)
(5.0010986 -0.017265795 0.00045963059)
(5.0035213 -0.019731152 0.00047917929)
(5.0064288 -0.022481881 0.00049964928)
(5.0098898 -0.025528754 0.00052118649)
(5.0139778 -0.028875272 0.00054396262)
(5.0187688 -0.03251532 0.00056810918)
(5.0243387 -0.036431002 0.00059371203)
(5.0307601 -0.040590526 0.00062089142)
(5.0380981 -0.044946943 0.00064970556)
(5.0464054 -0.049437916 0.00068015307)
(5.055718 -0.053987028 0.00071221334)
(5.0660506 -0.058506061 0.00074578351)
(5.0773937 -0.062898641 0.00078084792)
(5.0897121 -0.067064266 0.00081746449)
(5.1029436 -0.070900602 0.00085503819)
(5.1170001 -0.074310624 0.00089326213)
(5.1317696 -0.077205606 0.0009319477)
(5.14712 -0.079508069 0.00097109368)
(5.1629034 -0.081153564 0.001010789)
(5.1789596 -0.082088944 0.0010505193)
(5.1951199 -0.082274469 0.0010898179)
(5.1953158 -0.10123939 0.0011134303)
(5.1783058 -0.10093023 0.0010681419)
(5.1614366 -0.099692268 0.0010230082)
(5.1448913 -0.097571617 0.00097864111)
(5.1288441 -0.094631228 0.00093185211)
(5.1134564 -0.090951728 0.0008869482)
(5.0988749 -0.086631077 0.00084493681)
(5.085223 -0.081782324 0.00080598367)
(5.0725974 -0.076529649 0.00077043928)
(5.0610619 -0.071003348 0.00073330269)
(5.050648 -0.065333952 0.00069797462)
(5.0413585 -0.059646326 0.00066473234)
(5.033167 -0.054053988 0.00063365661)
(5.0260225 -0.048654153 0.00060475218)
(5.0198552 -0.043524278 0.00057799671)
(5.0145824 -0.038720705 0.00055322895)
(5.0101149 -0.034279411 0.00053022942)
(5.0063622 -0.030218267 0.00050875805)
(5.0032363 -0.02654003 0.00048854907)
(5.0006545 -0.02323565 0.00046940822)
(4.9985413 -0.020287562 0.00045110809)
(4.996829 -0.017672691 0.0004335279)
(4.9954577 -0.015364755 0.00041654018)
(4.9943753 -0.013336108 0.00040006688)
(4.9935365 -0.011559045 0.00038404078)
(4.9929026 -0.010006812 0.00036840185)
(4.9924401 -0.0086541138 0.00035311943)
(4.9910814 -0.0097046435 0.00035113746)
(4.9913404 -0.0112339 0.0003658835)
(4.991744 -0.012993159 0.00038088814)
(4.9923234 -0.015013068 0.00039616087)
(4.9931159 -0.017326787 0.00041170635)
(4.9941659 -0.019969362 0.00042759972)
(4.9955258 -0.022976796 0.00044390601)
(4.9972576 -0.026384515 0.00046078242)
(4.9994334 -0.030225347 0.00047836665)
(5.0021363 -0.034526646 0.00049692912)
(5.0054599 -0.039306494 0.00051680087)
(5.009507 -0.044569225 0.0005384392)
(5.0143869 -0.050300578 0.00056231246)
(5.0202108 -0.056462868 0.00058889324)
(5.0270853 -0.062991556 0.00061866285)
(5.0351042 -0.069792766 0.0006517804)
(5.0443394 -0.076744866 0.00068821575)
(5.0548336 -0.083703692 0.00072769907)
(5.0665942 -0.090509819 0.0007700154)
(5.0795914 -0.09699611 0.00081492361)
(5.0937565 -0.10299822 0.00086166409)
(5.1089842 -0.10835946 0.00090983596)
(5.1251363 -0.11293827 0.00095920057)
(5.1420483 -0.11661378 0.0010097455)
(5.159537 -0.11928867 0.0010616122)
(5.1774078 -0.1208913 0.001114411)
(5.1954603 -0.12137116 0.0011677773)
(5.1955076 -0.14278164 0.0012406951)
(5.1762106 -0.14207926 0.0011764906)
(5.1571375 -0.14004278 0.0011132811)
(5.1385112 -0.13672356 0.0010511055)
(5.1205525 -0.1322007 0.00098998154)
(5.1034723 -0.12658573 0.00092982432)
(5.0874617 -0.12002438 0.00087096682)
(5.07268 -0.11269279 0.00081390491)
(5.0592469 -0.10478777 0.00075909337)
(5.0472368 -0.096519151 0.00070759516)
(5.0366762 -0.088098903 0.00066065846)
(5.0275449 -0.079729274 0.00061917168)
(5.0197787 -0.071592951 0.00058379573)
(5.013276 -0.063841314 0.00055453758)
(5.0079096 -0.056585387 0.00053059681)
(5.0035403 -0.049893862 0.00051035985)
(5.0000285 -0.043801861 0.00049282781)
(4.9972414 -0.038314376 0.00047702675)
(4.9950586 -0.033414365 0.00046213696)
(4.9933743 -0.029070076 0.00044770001)
(4.9920983 -0.025240613 0.00043348703)
(4.9911545 -0.02188049 0.00041934386)
(4.9904799 -0.018942947 0.00040520988)
(4.9900227 -0.016382247 0.00039108443)
(4.9897408 -0.014155109 0.0003769575)
(4.9895997 -0.012221578 0.00036286769)
(4.9895713 -0.010545421 0.00034883431)
(4.9879428 -0.011151093 0.00034538445)
(4.9877178 -0.012939143 0.0003583482)
(4.9875684 -0.015007556 0.00037104876)
(4.9875185 -0.017398069 0.00038336293)
(4.9875981 -0.020157591 0.00039514474)
(4.9878459 -0.023338173 0.00040623404)
(4.9883107 -0.026996451 0.00041639692)
(4.9890548 -0.031192449 0.00042543873)
(4.9901562 -0.035987259 0.00043313768)
(4.9917119 -0.041439399 0.00043934757)
(4.9938393 -0.047599642 0.0004443083)
(4.996678 -0.054506211 0.00044945986)
(5.0003897 -0.062173287 0.00045698869)
(5.0051497 -0.07057245 0.0004680122)
(5.0111407 -0.079646331 0.00048926801)
(5.0185395 -0.089268284 0.00052424902)
(5.0274902 -0.099248679 0.00057336784)
(5.0380863 -0.10935315 0.0006350863)
(5.0503644 -0.1193241 0.00070662998)
(5.0643021 -0.12888776 0.00078294762)
(5.0798155 -0.1377751 0.00086054473)
(5.096765 -0.14574168 0.00093913786)
(5.1149612 -0.15256601 0.0010173916)
(5.1341749 -0.15807285 0.0010946108)
(5.1541564 -0.16213915 0.0011716151)
(5.1746509 -0.16468449 0.0012493766)
(5.1954084 -0.16566376 0.0013286196)
(5.1951097 -0.19025441 0.0014412484)
(5.1726601 -0.1889444 0.0013393903)
(5.1504998 -0.18581222 0.00123959)
(5.128912 -0.18088344 0.0011386705)
(5.1081948 -0.17422797 0.0010325821)
(5.0886534 -0.16596546 0.00091611265)
(5.0705772 -0.15630911 0.00079202243)
(5.0541949 -0.14555375 0.00066526582)
(5.0396744 -0.13403693 0.00058066044)
(5.0271203 -0.12209125 0.00052490622)
(5.0165483 -0.110039 0.00046747046)
(5.0078993 -0.098200613 0.0004097156)
(5.0010408 -0.086888348 0.0003567426)
(4.9957634 -0.076355264 0.0003148552)
(4.9918069 -0.066752879 0.00028601606)
(4.9889337 -0.058134201 0.00031268044)
(4.9869323 -0.050481466 0.00034414227)
(4.9856029 -0.043730949 0.00036826706)
(4.9847886 -0.037809787 0.00038241585)
(4.9843634 -0.032646339 0.00038882914)
(4.9842265 -0.028161973 0.000389697)
(4.9843003 -0.02427813 0.00038654542)
(4.9845264 -0.020920505 0.00038052613)
(4.9848611 -0.018021214 0.00037243256)
(4.9852719 -0.015519552 0.00036283235)
(4.9857346 -0.013362066 0.00035213704)
(4.9862312 -0.011502078 0.00034069673)
(4.9844748 -0.011583672 0.00033480952)
(4.9836945 -0.013471092 0.000344237)
(4.9829025 -0.015665621 0.00035212272)
(4.9821096 -0.018217623 0.00035778955)
(4.9813321 -0.021185768 0.00036027531)
(4.9805938 -0.024638007 0.00035811847)
(4.9799303 -0.028652073 0.00034899082)
(4.9793928 -0.033314912 0.00032924431)
(4.9790553 -0.038720772 0.00029297731)
(4.9790214 -0.044964544 0.00023005873)
(4.9794145 -0.052179615 0.00018653806)
(4.9803821 -0.060507558 0.0001862687)
(4.9821413 -0.070086261 0.00022006286)
(4.9849845 -0.080999805 0.00028500988)
(4.9892644 -0.093215149 0.0003766065)
(4.9953587 -0.10653481 0.00047628683)
(5.0035728 -0.120577 0.00056317732)
(5.0140675 -0.13488881 0.00062491573)
(5.0268883 -0.14909077 0.00066806228)
(5.0420232 -0.16284942 0.00071418572)
(5.0594011 -0.17579984 0.00079355687)
(5.0788432 -0.18745859 0.00090042865)
(5.1000351 -0.19740994 0.0010248452)
(5.1225729 -0.20540504 0.0011798318)
(5.1460658 -0.21132807 0.0013257257)
(5.1701674 -0.21512536 0.0014637271)
(5.1945542 -0.21681443 0.0016036371)
(5.1936747 -0.24562501 0.0018679805)
(5.1671053 -0.24352904 0.0016567768)
(5.1407454 -0.23907522 0.0015310569)
(5.1149946 -0.23208463 0.0013935717)
(5.090277 -0.22258434 0.0012224341)
(5.0670885 -0.21066645 0.0010581717)
(5.0460161 -0.19664121 0.00095960694)
(5.0275244 -0.18115122 0.00093966769)
(5.0117345 -0.16493885 0.00097796606)
(4.9986075 -0.14825756 0.0010079993)
(4.9881791 -0.1313386 0.00096568716)
(4.9805114 -0.11455632 0.0008184412)
(4.9754747 -0.098680109 0.00060069503)
(4.9726026 -0.08439953 0.00038009221)
(4.9712847 -0.071997587 0.00021312184)
(4.9710004 -0.061419461 0.00012218764)
(4.971366 -0.052497607 9.9243034e-05)
(4.972124 -0.044948249 0.00011178559)
(4.9731217 -0.038535488 0.00014412885)
(4.9742798 -0.033068486 0.00023071014)
(4.9755368 -0.028381318 0.00028711498)
(4.9768231 -0.024360479 0.00031768866)
(4.9780966 -0.02091443 0.00033295867)
(4.9793329 -0.017960577 0.00033883724)
(4.9805184 -0.015427248 0.00033871067)
(4.9816467 -0.013253257 0.00033459603)
(4.9827152 -0.011386674 0.00032781037)
(4.9809971 -0.010908651 0.00031980013)
(4.9796448 -0.012703696 0.00032331038)
(4.9781845 -0.014795551 0.00032251009)
(4.97661 -0.017234532 0.0003150628)
(4.9749177 -0.020079838 0.00029700836)
(4.9731101 -0.023400145 0.00026098092)
(4.9712026 -0.027271877 0.00019254948)
(4.9692157 -0.031799836 0.00010844115)
(4.9671488 -0.037152219 6.4102724e-05)
(4.9650281 -0.043526327 -1.2775045e-05)
(4.962907 -0.051187068 -4.1955207e-05)
(4.9608402 -0.060564101 9.613875e-05)
(4.9591143 -0.07224064 0.00038270082)
(4.9582526 -0.086454901 0.00080779124)
(4.9590614 -0.10356117 0.0013566311)
(4.9626656 -0.12311737 0.0018793902)
(4.9698605 -0.14359294 0.0021619183)
(4.980495 -0.16332207 0.0020887016)
(4.994074 -0.18231653 0.0017879187)
(5.0104498 -0.20079543 0.0014534947)
(5.0300422 -0.21926454 0.001296619)
(5.0530499 -0.23615272 0.0013104409)
(5.0787291 -0.250337 0.0014588995)
(5.1061309 -0.26143441 0.0016401781)
(5.1345898 -0.26950537 0.0017992559)
(5.1635081 -0.2744759 0.0019980502)
(5.1923759 -0.27698313 0.0023410482)
(5.2210261 -0.2774856 0.002898555)
(5.249553 -0.27570406 0.0031677772)
(5.2523147 -0.31010312 0.0025752723)
(5.2211963 -0.31186674 0.002916692)
(5.1904245 -0.31112287 0.0032247195)
(5.1594632 -0.30825746 0.0025820666)
(5.1276978 -0.30338236 0.0024275227)
(5.0959883 -0.29396301 0.0020587175)
(5.0652845 -0.28103901 0.0015779193)
(5.036388 -0.26447567 0.0016287567)
(5.0110487 -0.24402661 0.0018469472)
(4.9908867 -0.22180287 0.0024585175)
(4.9744258 -0.20287343 0.0037124863)
(4.95993 -0.18296196 0.00483012)
(4.9479721 -0.16101065 0.0052936257)
(4.940451 -0.13471195 0.0046360634)
(4.938752 -0.10880933 0.0033075315)
(4.9412071 -0.087258419 0.001964432)
(4.9453221 -0.070690564 0.00094573126)
(4.9498837 -0.057555973 0.00028900782)
(4.9542744 -0.047888069 -0.00013279022)
(4.9580424 -0.040460018 -0.00020472881)
(4.9613549 -0.03447072 -0.00010000798)
(4.9643649 -0.029486557 3.5893827e-05)
(4.9671073 -0.025291789 9.5902008e-05)
(4.9696054 -0.021735968 0.00018265406)
(4.971909 -0.018676161 0.00025105218)
(4.9740297 -0.01604067 0.00028628929)
(4.9759713 -0.013774919 0.00030370621)
(4.9777459 -0.011828062 0.00031066101)
(4.9793674 -0.010155549 0.00031111596)
(4.9778747 -0.0091445575 0.00030185644)
(4.9760097 -0.010646411 0.00029679286)
(4.9739535 -0.01238863 0.00028244131)
(4.9716874 -0.014405455 0.0002525452)
(4.9691976 -0.016732439 0.00019433993)
(4.9664659 -0.019400337 0.00010364083)
(4.9634194 -0.022496086 3.5269294e-05)
(4.9599995 -0.026109552 -0.00013670332)
(4.9561338 -0.030341289 -0.00033588827)
(4.9515667 -0.035493889 -0.0004261796)
(4.9457657 -0.042286177 -7.7577247e-05)
(4.9379892 -0.051740133 0.0007521885)
(4.9293884 -0.067813975 0.0023884065)
(4.9217771 -0.088747469 0.0046724117)
(4.915789 -0.11642841 0.006987769)
(4.9131428 -0.15099404 0.009185913)
(4.9183102 -0.18833409 0.011208337)
(4.9353431 -0.21778871 0.011767359)
(4.9556439 -0.23067147 0.008269779)
(4.9699946 -0.2420258 0.0040329594)
(4.9882581 -0.27121831 0.0025449023)
(5.0168283 -0.29664276 0.0020737576)
(5.049849 -0.31585225 0.0027632029)
(5.0841935 -0.33093608 0.0033914414)
(5.1203693 -0.34316781 0.004078647)
(5.1555317 -0.34471101 0.0033518814)
(5.1885125 -0.34659437 0.0022485253)
(5.2218644 -0.34600317 0.00094583928)
(5.2550087 -0.34267683 -3.4381317e-05)
(5.2585152 -0.36787622 -0.0037533528)
(5.2252556 -0.37767079 -0.0010415519)
(5.1891886 -0.38337913 0.0038076715)
(5.1558557 -0.37830549 0.00029491742)
(5.1143342 -0.39274871 0.003083366)
(5.0694073 -0.36836198 0.00034650182)
(5.0319453 -0.3546295 0.0025335918)
(4.993201 -0.33481101 0.0029371965)
(4.9583969 -0.30235981 0.0032405589)
(4.940158 -0.25881111 0.0048745245)
(4.9234027 -0.27205755 0.012835008)
(4.8959469 -0.26975033 0.015370475)
(4.8812956 -0.21804574 0.012635569)
(4.8860143 -0.16389969 0.0090868722)
(4.8976834 -0.12161092 0.0066774864)
(4.9096973 -0.089166562 0.0046908774)
(4.9205289 -0.064102753 0.0029384418)
(4.9297299 -0.045542595 0.0015718463)
(4.9382974 -0.034757539 0.00031575902)
(4.9461201 -0.028442623 -0.00066312246)
(4.9519715 -0.024739589 -0.00064582003)
(4.9565118 -0.02169897 -0.00037417207)
(4.9603886 -0.018980922 -0.00010840967)
(4.9638326 -0.016511967 5.1442004e-05)
(4.9669052 -0.014329169 0.00012915419)
(4.969678 -0.012392369 0.00021397139)
(4.9722056 -0.010687329 0.00025837183)
(4.9744961 -0.0091996773 0.00028126088)
(4.9765682 -0.0079092312 0.00029160595)
(4.9754923 -0.0065055942 0.00027951989)
(4.9732579 -0.0075567688 0.00026355103)
(4.9707908 -0.0087575638 0.00023168124)
(4.9680796 -0.010113126 0.00017255972)
(4.9651171 -0.011616746 7.7137745e-05)
(4.9618587 -0.013261456 -3.5969083e-05)
(4.9582828 -0.0149475 -0.00030259281)
(4.9543041 -0.016522599 -0.00066815195)
(4.9494867 -0.017904791 -0.0010359809)
(4.9437815 -0.020528276 -0.00091636195)
(4.9375907 -0.027077065 -0.00044398092)
(4.9299162 -0.039256252 0.00057755327)
(4.9192778 -0.05800185 0.0020245843)
(4.9050231 -0.084344636 0.0042210569)
(4.8862198 -0.11708798 0.0057872399)
(4.8645669 -0.16009504 0.0038915858)
(4.8411782 -0.22395078 0.006244603)
(4.8455611 -0.33231035 0.019702698)
(4.870585 -0.31746832 0.015611933)
(4.8866018 -0.27319239 0.00095551532)
(4.9167834 -0.34014459 0.0012326693)
(4.966858 -0.38235583 0.0025001424)
(5.0167906 -0.39487682 0.0001462736)
(5.0470883 -0.3931054 0.00025125636)
(5.1040672 -0.40506362 -0.074395006)
(5.171091 -0.41100064 0.016010368)
(5.1928358 -0.42435178 0.0014234336)
(5.2475028 -0.40779393 -0.0027957496)
(5.2829954 -0.37833846 -0.0080049998)
(5.287372 -0.37547566 -0.0030653715)
(5.3190685 -0.35184855 -0.0089754711)
(5.3759554 -0.35050985 -0.01562771)
(5.3670951 -0.32517017 -0.015605128)
(5.2793777 -0.48308587 -0.0098359273)
(5.2682822 -0.38715689 0.0007834279)
(5.1804169 -0.52294002 -0.0036969406)
(5.1652632 -0.46640512 0.02965856)
(5.1081874 -0.47529968 -0.023360862)
(5.0286584 -0.37497412 -0.010257963)
(5.1011485 -0.43852775 -0.011432754)
(5.1725831 -0.49434648 0.020387647)
(5.2858093 -0.38635634 0.10352426)
(5.1907736 -0.43775564 -0.044485463)
(5.1226165 -0.36053839 -0.062434026)
(5.0667805 -0.4117902 0.0045139769)
(5.0127949 -0.44634083 0.010462634)
(4.9363203 -0.42906212 -0.023895644)
(4.8585643 -0.37284267 -0.027902406)
(4.8022337 -0.29334072 -0.0036889451)
(4.7693276 -0.33637745 -0.011972778)
(4.8045509 -0.3564475 0.0092927064)
(4.8205804 -0.15703629 -0.047617734)
(4.8486765 -0.13203261 -0.0081529421)
(4.8791224 -0.10164394 0.0064381262)
(4.9078674 -0.073653545 0.0044206046)
(4.9268973 -0.048069454 0.0012902997)
(4.9379673 -0.030058636 -0.0021456106)
(4.9434222 -0.01895032 -0.002878414)
(4.9466925 -0.01317036 -0.0023292584)
(4.9499204 -0.011011214 -0.001543151)
(4.9536638 -0.011128071 -0.00098750318)
(4.9572413 -0.010780759 -0.00051095996)
(4.9606191 -0.0098777719 -0.00017938891)
(4.963869 -0.0087906678 2.8773772e-05)
(4.9669206 -0.0077184563 0.00013657244)
(4.9697405 -0.006717163 0.00020648896)
(4.9723249 -0.0058123897 0.00024597629)
(4.9746747 -0.0050116062 0.00026696374)
(4.9741132 -0.003510161 0.0002580701)
(4.9716904 -0.0040653217 0.00023415481)
(4.9690389 -0.0046857674 0.00019020938)
(4.9661734 -0.0053578318 0.00011443332)
(4.9631313 -0.00604259 -6.9608753e-06)
(4.9600271 -0.0066443903 -0.00024414279)
(4.9571267 -0.0069272696 -0.00069678293)
(4.9547279 -0.0063080144 -0.0013757697)
(4.9536584 -0.0054396537 -0.0025384461)
(4.9542034 -0.0065086773 -0.0039824404)
(4.9547262 -0.0094883109 -0.0053144795)
(4.9529294 -0.0186032 -0.004959972)
(4.9429425 -0.03416607 -0.00070165191)
(4.9181405 -0.057234822 0.0062125009)
(4.8762247 -0.07856203 0.011908515)
(4.809322 -0.073068979 -0.0036246297)
(4.783044 -0.046292211 -0.063648064)
(4.8910106 -0.18932313 0.049368897)
(4.7438674 -0.12449231 -0.017594051)
(4.8918439 0.043008306 0.0064473647)
(4.7532593 -0.1595883 0.087736901)
(4.471192 -0.19276586 0.029976717)
(4.3425446 -0.08796506 -0.069174246)
(4.2937824 -0.15105912 0.024042954)
(4.6682216 -0.27754917 -0.0049689105)
(4.4393886 -0.38943141 -0.051785286)
(4.5478782 -0.34300193 0.011802633)
(4.4417758 -0.51654307 -0.043952181)
(4.4316885 -0.58280893 0.023015435)
(4.444754 -0.55828439 -0.002925683)
(4.5145412 -0.55696641 -0.014947535)
(4.6387438 -0.56934941 -0.023562693)
(4.7562926 -0.56425982 0.058521306)
(4.850322 -0.42434127 -0.043354561)
(4.6336959 -0.4329724 -0.0023266918)
(4.8110174 -0.64635925 -0.059615155)
(4.7448253 -0.12891758 0.12548963)
(4.4944452 -0.25438562 0.1088857)
(4.7704894 0.044934682 -0.078395399)
(4.902465 -0.30334573 -0.014120446)
(4.8861408 -0.56941634 -0.0045007459)
(4.9230566 -0.49486831 -0.043295549)
(4.977459 -0.53855359 -0.016668972)
(5.0062741 -0.8642488 0.022788115)
(5.0065835 -0.69795027 0.044592982)
(4.9002625 -0.61038242 -0.009801158)
(4.8631627 -0.60780019 0.010853368)
(4.8859959 -0.59402873 -0.0052302412)
(4.9076649 -0.61273666 0.0022345968)
(4.9140431 -0.59516002 0.0016953164)
(4.9536867 -0.57770189 -0.0043582981)
(5.0692914 -0.57826358 -0.026661105)
(5.1977497 -0.55636695 0.06998316)
(5.3107839 -0.38662877 -0.046164266)
(5.0140067 -0.4082374 -0.0018973501)
(5.2074436 -0.67544549 -0.056526064)
(5.1120562 -0.10489637 0.14304884)
(4.9459628 -0.14462504 0.051004444)
(5.070397 0.041260036 -0.090769158)
(5.2858568 -0.35140643 -0.0070033987)
(5.1963991 -0.5965696 0.066280772)
(5.1805698 -0.59172267 0.031609241)
(5.188779 -0.53730038 -0.098259596)
(5.342118 -0.46612341 0.02389933)
(5.3324085 -0.60338304 0.064966886)
(5.2582023 -0.69084009 -0.008706514)
(5.1636587 -0.62578745 0.010750308)
(5.1351904 -0.59905663 -0.0010477342)
(5.1210037 -0.5406083 -0.0097858584)
(5.1135713 -0.55806113 -0.0046689018)
(5.1049941 -0.52766359 -0.011258472)
(5.1419173 -0.50931125 -0.0036297648)
(5.2538626 -0.50318573 -0.023202763)
(5.3873224 -0.48631134 0.079176669)
(5.5090356 -0.29451849 -0.043076536)
(5.1667834 -0.32061257 0.0062100687)
(5.3713408 -0.5845126 -0.051222665)
(5.2798575 -0.054324023 0.15540879)
(5.2136114 0.014147198 0.037728425)
(5.2201856 0.15148138 -0.103276)
(5.4830943 -0.15974754 -0.018203456)
(5.4583317 -0.44284881 0.1218388)
(5.1743225 -0.00065316807 0.0017957774)
(5.1682669 -0.00074269967 0.0018840581)
(5.1618124 -0.0008193597 0.0019533444)
(5.1550361 -0.00088287588 0.0020040677)
(5.1480147 -0.00093326956 0.0020366444)
(5.1408232 -0.00097075076 0.0020518365)
(5.1335337 -0.00099565889 0.002050631)
(5.1262147 -0.0010085607 0.0020343979)
(5.1189292 -0.0010100935 0.0020048256)
(5.1117351 -0.0010013123 0.0019631762)
(5.1046843 -0.00098320538 0.0019107506)
(5.0978222 -0.00095680347 0.0018495898)
(5.091187 -0.00092319394 0.0017817173)
(5.08481 -0.00088381004 0.0017080886)
(5.0787164 -0.00083977963 0.0016300969)
(5.0729249 -0.00079231444 0.0015494677)
(5.0674476 -0.00074249935 0.0014675882)
(5.0622911 -0.00069140756 0.0013853569)
(5.0574571 -0.00064000683 0.001303764)
(5.0529428 -0.00058905673 0.0012238645)
(5.0487417 -0.00053927943 0.0011461042)
(5.0448444 -0.00049124911 0.0010709664)
(5.0412393 -0.00044548043 0.00099889566)
(5.0379123 -0.00040223047 0.00093043579)
(5.0348482 -0.00036163826 0.00086567469)
(5.0320314 -0.00032397172 0.00080444115)
(5.0294459 -0.0002892282 0.00074695072)
(5.0270755 -0.00025738728 0.00069317784)
(5.0249042 -0.00022831724 0.00064305117)
(5.0248164 -0.00022009498 0.0019618724)
(5.0246282 -0.00021755379 0.0033401493)
(5.0243268 -0.00022310415 0.0047634728)
(5.0239106 -0.00024491164 0.0061720275)
(5.0233761 -0.00025257373 0.0075194564)
(5.023989 -0.00030666285 0.010749933)
(5.0247547 -0.00029371927 0.0094753152)
(5.0254351 -0.00028433252 0.0081001873)
(5.0260072 -0.00027436282 0.0066456271)
(5.0264548 -0.00025422529 0.0051289781)
(5.0267788 -0.0002463425 0.0035988508)
(5.0269811 -0.00024862995 0.0021144133)
(5.0293448 -0.00027988156 0.0022780505)
(5.0291281 -0.00027785033 0.0038764317)