/*--------------------------------*- C++ -*----------------------------------*\
| =========                 |                                                 |
| \\      /  F ield         | OpenFOAM: The Open Source CFD Toolbox           |
|  \\    /   O peration     | Version:  v2012                                 |
|   \\  /    A nd           | Website:  www.openfoam.com                      |
|    \\/     M anipulation  |                                                 |
\*---------------------------------------------------------------------------*/
FoamFile
{
    version     2.0;
    format      ascii;
    class       volVectorField;
    location    "0";
    object      U;
}
// * * * * * * * * * * * * * * * * * * * * * * * * * * * * * * * * * * * * * //

dimensions      [0 1 -1 0 0 0 0];


internalField   nonuniform List<vector> 
75632
(
(5.1926408 -0.0047980102 0.00048576424)
(5.1803522 -0.0047908425 0.0004668756)
(5.168078 -0.0047550409 0.00045119774)
(5.1559061 -0.0046905164 0.00043741869)
(5.1439206 -0.0045981635 0.0004247433)
(5.1322005 -0.0044799171 0.00041311293)
(5.1208181 -0.0043383921 0.00040258568)
(5.1098382 -0.0041765263 0.0003930925)
(5.0993166 -0.0039974912 0.00038463719)
(5.0893001 -0.0038045607 0.00037723497)
(5.079826 -0.0036010677 0.00037080921)
(5.0709218 -0.0033902121 0.00036498842)
(5.0626055 -0.003175356 0.0003600252)
(5.0548861 -0.0029594109 0.0003554551)
(5.0477632 -0.0027451094 0.00035087118)
(5.041229 -0.0025353418 0.00034687804)
(5.0352683 -0.0023324011 0.00034312997)
(5.0298614 -0.0021347705 0.00033705957)
(5.0249844 -0.0019457389 0.00033025776)
(5.0206092 -0.0017670748 0.0003233349)
(5.0167047 -0.0015991892 0.00031550239)
(5.0132382 -0.0014426209 0.00030762377)
(5.0101771 -0.0012976012 0.00029961839)
(5.0074883 -0.0011638429 0.0002911232)
(5.0051394 -0.0010413855 0.00028267319)
(5.0030992 -0.00093003764 0.00027458924)
(5.001338 -0.00082902462 0.0002666853)
(4.9998274 -0.00073760823 0.00025845826)
(4.9985406 -0.00065531741 0.00025031579)
(4.9974533 -0.00058131844 0.00024233892)
(4.9965431 -0.00051502261 0.00023442448)
(4.9957895 -0.00045587134 0.00022672758)
(4.9951736 -0.00040304471 0.0002190431)
(4.9946785 -0.0003558759 0.00021127342)
(4.9942887 -0.00031395922 0.00020363195)
(4.9939906 -0.00027671781 0.00019612536)
(4.9937719 -0.00024365582 0.00018871685)
(4.9936216 -0.00021449577 0.00018151486)
(4.9935299 -0.00018874742 0.00017449171)
(4.9934882 -0.00016598341 0.00016759973)
(4.9934887 -0.00014587513 0.00016085094)
(4.9935249 -0.00012813444 0.00015425387)
(4.9935907 -0.00011255367 0.00014785772)
(5.0280843 -0.00022496458 0.00050831477)
(5.0301658 -0.00024711065 0.00054248497)
(5.0324068 -0.00027119781 0.00057822606)
(5.0348174 -0.00029719635 0.00061590752)
(5.037408 -0.00032503796 0.00065538568)
(5.0401883 -0.00035438225 0.00069683067)
(5.0431673 -0.00038520352 0.00073975403)
(5.0463536 -0.0004173171 0.00078481033)
(5.0497565 -0.00045072155 0.00083175036)
(5.0533826 -0.00048555464 0.00087906106)
(5.0572367 -0.00052080382 0.00092745827)
(5.061323 -0.00055605403 0.0009775172)
(5.0656444 -0.00059136162 0.0010280473)
(5.0702006 -0.00062627677 0.0010781552)
(5.0749884 -0.00066032774 0.0011277455)
(5.0800021 -0.00069279436 0.001176141)
(5.0852332 -0.00072284039 0.0012235861)
(5.0906706 -0.00075021243 0.0012690661)
(5.0962985 -0.00077449392 0.001310887)
(5.1020974 -0.00079479582 0.001349282)
(5.108045 -0.00081044906 0.001383715)
(5.1141156 -0.00082093356 0.0014131135)
(5.1202791 -0.00082561674 0.0014369015)
(5.1265025 -0.00082456172 0.0014538039)
(5.1327494 -0.00081699186 0.0014634538)
(5.1389804 -0.00080170714 0.001466044)
(5.1451539 -0.00077934323 0.0014602686)
(5.151226 -0.00074988824 0.0014451733)
(5.1571502 -0.00071235685 0.0014208426)
(5.1628792 -0.00066716255 0.001387021)
(5.168366 -0.0006148583 0.0013432924)
(5.1735629 -0.00055512778 0.0012894228)
(5.1736524 -0.00052743509 0.0039823933)
(5.1684405 -0.00058555343 0.0041462577)
(5.1629381 -0.00063652231 0.004278938)
(5.1571937 -0.00068009298 0.004381196)
(5.1512553 -0.00071612854 0.0044545904)
(5.1451694 -0.00074480846 0.004499875)
(5.1389825 -0.00076621137 0.0045166436)
(5.1327392 -0.00078057084 0.0045077701)
(5.1264811 -0.00078836813 0.0044766911)
(5.1202472 -0.00078964429 0.0044237663)
(5.1140742 -0.00078482661 0.0043501592)
(5.1079955 -0.00077469976 0.0042591975)
(5.1020406 -0.00075961128 0.0041529318)
(5.0962356 -0.00073952472 0.0040350025)
(5.0906031 -0.00071576877 0.0039064135)
(5.0851619 -0.00068999157 0.0037660095)
(5.0799277 -0.0006608367 0.0036202192)
(5.0749121 -0.00062909523 0.003471805)
(5.0701233 -0.00059636518 0.0033193914)
(5.0655671 -0.00056272579 0.0031653969)
(5.0612461 -0.00052932433 0.0030097793)
(5.0571604 -0.00049576204 0.0028556661)
(5.0533078 -0.00046139611 0.0027073184)
(5.0496838 -0.00042780389 0.0025622905)
(5.0462832 -0.00039629893 0.0024177632)
(5.043099 -0.00036531372 0.0022795123)
(5.0401228 -0.00033514164 0.0021482189)
(5.0373456 -0.00030700598 0.0020210601)
(5.034758 -0.00028059819 0.001899609)
(5.0323502 -0.00025577814 0.0017838453)
(5.0301118 -0.00023271185 0.0016742434)
(5.0280331 -0.000212116 0.001568145)
(4.9936014 -0.00011201695 0.00046658007)
(4.9936251 -0.00011271902 0.00081237396)
(4.9936649 -0.00011048377 0.0011844291)
(4.9937234 -0.00010840168 0.0015760227)
(4.9938018 -0.00010659358 0.0019794544)
(4.9938998 -0.0001060157 0.002386621)
(4.9940168 -0.00010609878 0.0027924485)
(4.9941521 -0.00010640027 0.0031943032)
(4.9943055 -0.00010661577 0.0035911474)
(4.9944767 -0.00010672019 0.0039824661)
(4.9946658 -0.00010676087 0.0043678609)
(4.9948726 -0.00010676939 0.0047468736)
(4.9948467 -0.00012132847 0.0049658673)
(4.9946333 -0.00012130699 0.0045688017)
(4.9944383 -0.00012125957 0.004165233)
(4.9942617 -0.00012113933 0.0037556268)
(4.9941035 -0.00012090385 0.0033403742)
(4.993964 -0.0001205861 0.002919964)
(4.9938434 -0.00012049617 0.0024954536)
(4.9937424 -0.00012112818 0.0020696117)
(4.9936617 -0.00012307929 0.0016477242)
(4.9936014 -0.00012537487 0.0012382201)
(4.9935604 -0.00012784226 0.00084914285)
(4.993536 -0.00012735821 0.0004874693)
(4.9935002 -0.00014475051 0.00050900405)
(4.9935254 -0.00014497565 0.00088699882)
(4.9935676 -0.00014225215 0.0012936189)
(4.9936297 -0.00013972055 0.0017215729)
(4.9937129 -0.00013760698 0.0021624731)
(4.993817 -0.00013691883 0.0026075499)
(4.9939412 -0.00013701575 0.0030512939)
(4.994085 -0.0001373668 0.0034908683)
(4.994248 -0.00013762399 0.0039251792)
(4.9944301 -0.00013775628 0.004353713)
(4.9946313 -0.00013781508 0.0047760834)
(4.9948514 -0.00013783806 0.0051918485)
(4.9954051 -0.00015657743 0.0062727989)
(4.995139 -0.00015655711 0.0058527933)
(4.9948925 -0.0001565471 0.0054249343)
(4.9946656 -0.00015650464 0.0049898382)
(4.9944582 -0.00015644609 0.0045480303)
(4.9942705 -0.00015629793 0.0040999527)
(4.9941025 -0.00015602074 0.0036459654)
(4.9939544 -0.00015563852 0.0031865886)
(4.9938263 -0.00015551637 0.0027229917)
(4.9937191 -0.0001562762 0.0022581191)
(4.9936334 -0.00015856982 0.0017976457)
(4.9935695 -0.00016136839 0.001350678)
(4.9935259 -0.00016437795 0.00092598566)
(4.9935 -0.00016445152 0.00053115449)
(4.9935421 -0.00018677075 0.00055390196)
(4.9935688 -0.00018633818 0.00096609939)
(4.9936137 -0.00018300477 0.0014094402)
(4.9936796 -0.0001799149 0.0018760313)
(4.9937678 -0.00017742182 0.002356725)
(4.9938783 -0.00017659423 0.0028420548)
(4.9940101 -0.00017672998 0.0033261272)
(4.9941628 -0.00017712826 0.0038058775)
(4.9943359 -0.00017744128 0.0042801021)
(4.9945293 -0.00017759956 0.0047483213)
(4.9947429 -0.00017768595 0.005210173)
(4.9949768 -0.00017772071 0.0056652357)
(4.9952309 -0.00017775716 0.0061129773)
(4.9955052 -0.00017777277 0.0065527883)
(4.9969941 -0.00020181184 0.0085893076)
(4.9966286 -0.00020181927 0.0081677415)
(4.9962838 -0.00020181374 0.0077354055)
(4.9959597 -0.00020178108 0.0072930556)
(4.9956563 -0.00020175855 0.0068414032)
(4.9953737 -0.00020171614 0.0063811283)
(4.9951119 -0.00020167927 0.0059128563)
(4.994871 -0.00020162414 0.0054371952)
(4.9946509 -0.00020153433 0.004954667)
(4.9944517 -0.00020134476 0.0044656909)
(4.9942734 -0.00020100576 0.0039706099)
(4.9941162 -0.00020056639 0.0034699085)
(4.9939804 -0.00020044022 0.002964757)
(4.9938667 -0.00020134632 0.0024583186)
(4.9937758 -0.00020405698 0.0019567741)
(4.993708 -0.00020747756 0.0014699456)
(4.9936618 -0.00021116828 0.0010073732)
(4.9936342 -0.00021201679 0.00057725612)
(4.9937849 -0.00024054313 0.00060127334)
(4.9938133 -0.00023921775 0.0010498219)
(4.9938609 -0.00023512918 0.0015322141)
(4.9939308 -0.00023133887 0.0020398911)
(4.9940243 -0.00022838008 0.0025628754)
(4.9941414 -0.00022738284 0.0030909723)
(4.9942812 -0.00022751829 0.0036178097)
(4.9944431 -0.00022799695 0.0041401403)
(4.9946266 -0.00022837424 0.004656753)
(4.9948317 -0.00022857636 0.0051671531)
(4.9950583 -0.00022868423 0.0056710023)
(4.9953064 -0.00022875021 0.0061678976)
(4.995576 -0.00022880218 0.0066573388)
(4.995867 -0.00022884835 0.0071387435)
(4.9961795 -0.00022889682 0.0076114878)
(4.9965133 -0.0002289349 0.008074909)
(4.9968686 -0.00022896645 0.0085283153)
(4.9972453 -0.00022898139 0.0089709378)
(5.0003632 -0.0002588965 0.011875469)
(4.9998406 -0.0002592005 0.011494938)
(4.9993407 -0.00025942704 0.011097614)
(4.9988634 -0.00025954162 0.010684782)
(4.9984086 -0.0002596299 0.010257569)
(4.9979762 -0.00025964872 0.0098170615)
(4.9975661 -0.00025964239 0.0093641731)
(4.9971782 -0.0002595984 0.0088997299)
(4.9968124 -0.00025956084 0.0084245611)
(4.9964687 -0.00025948359 0.0079393892)
(4.996147 -0.00025943713 0.0074448855)
(4.9958475 -0.00025936797 0.0069417085)
(4.99557 -0.00025930561 0.0064304496)
(4.9953147 -0.00025922515 0.0059116873)
(4.9950815 -0.00025910883 0.0053858923)
(4.9948704 -0.00025887731 0.0048534306)
(4.9946815 -0.00025848711 0.0043146376)
(4.9945149 -0.00025794805 0.0037700193)
(4.994371 -0.00025777274 0.0032208848)
(4.9942505 -0.00025890416 0.0026705222)
(4.9941542 -0.00026213591 0.0021254636)
(4.9940822 -0.00026632844 0.0015963116)
(4.9940333 -0.00027087196 0.0010935047)
(4.9940041 -0.00027270995 0.00062601818)
(4.9943026 -0.0003090694 0.00065141646)
(4.9943326 -0.00030656084 0.0011385082)
(4.994383 -0.00030148088 0.0016623054)
(4.994457 -0.00029685375 0.0022135227)
(4.9945562 -0.0002933346 0.0027812987)
(4.9946802 -0.00029205606 0.0033545945)
(4.9948283 -0.00029228086 0.0039267066)
(4.9949997 -0.00029285082 0.0044942698)
(4.995194 -0.00029328723 0.0050558585)
(4.9954112 -0.00029353208 0.0056109788)
(4.9956511 -0.00029366879 0.0061593464)
(4.9959138 -0.00029375818 0.0067006097)
(4.9961992 -0.00029384184 0.0072343094)
(4.9965073 -0.00029392017 0.0077599076)
(4.9968382 -0.0002940026 0.0082768129)
(4.9971918 -0.00029408211 0.008784404)
(4.9975681 -0.00029415552 0.0092820412)
(4.9979673 -0.00029421847 0.0097690107)
(4.9983894 -0.00029426097 0.010244521)
(4.9988346 -0.00029425916 0.010707774)
(4.9993029 -0.00029422027 0.011157848)
(4.9997947 -0.00029410733 0.011593692)
(5.00031 -0.00029392819 0.012014157)
(5.000849 -0.00029359647 0.01241796)
(5.001412 -0.00029317925 0.012803601)
(5.0032444 -0.00033079527 0.014147088)
(5.0026133 -0.00033166596 0.013778173)
(5.0020076 -0.00033228105 0.013387649)
(5.0014271 -0.00033273075 0.012977453)
(5.0008717 -0.00033299756 0.01254929)
(5.0003411 -0.00033317297 0.01210467)
(4.999835 -0.00033323655 0.011644905)
(4.9993531 -0.00033325032 0.011171111)
(4.9988953 -0.00033320782 0.010684329)
(4.9984612 -0.00033313636 0.010185444)
(4.9980508 -0.00033304187 0.0096752481)
(4.9976639 -0.00033293954 0.0091544836)
(4.9973004 -0.00033282879 0.0086238182)
(4.9969603 -0.00033273133 0.0080838709)
(4.9966435 -0.00033263139 0.0075352243)
(4.99635 -0.0003325418 0.0069784494)
(4.9960799 -0.00033243563 0.0064140671)
(4.9958332 -0.00033228351 0.0058425004)
(4.9956098 -0.00033201375 0.0052640823)
(4.9954099 -0.00033154399 0.004679069)
(4.9952336 -0.00033092596 0.0040879475)
(4.9950813 -0.00033069679 0.0034921674)
(4.9949537 -0.00033210009 0.002895204)
(4.9948517 -0.00033593952 0.0023040631)
(4.9947755 -0.00034104193 0.0017302512)
(4.9947237 -0.00034673743 0.0011849384)
(4.9946927 -0.00035005439 0.00067756935)
(4.9951883 -0.00039608712 0.00070429967)
(4.9952202 -0.00039192642 0.0012325068)
(4.9952735 -0.00038555652 0.0018000701)
(4.9953519 -0.00037990344 0.0023972059)
(4.9954568 -0.00037570743 0.0030124151)
(4.995588 -0.00037415287 0.0036337156)
(4.9957447 -0.00037439214 0.0042538035)
(4.995926 -0.00037504896 0.0048691246)
(4.9961316 -0.00037556794 0.0054782028)
(4.9963612 -0.00037586721 0.0060805499)
(4.9966148 -0.0003760336 0.0066759367)
(4.9968925 -0.00037614464 0.0072640668)
(4.997194 -0.0003762537 0.0078445289)
(4.9975196 -0.00037636591 0.008416836)
(4.997869 -0.00037648602 0.0089804449)
(4.9982425 -0.00037661775 0.0095348062)
(4.9986399 -0.00037675145 0.010079352)
(4.9990615 -0.00037688231 0.010613457)
(4.9995075 -0.00037699121 0.011136426)
(4.999978 -0.00037707343 0.011647514)
(5.0004732 -0.00037711243 0.012145842)
(5.0009936 -0.00037707438 0.012630437)
(5.0015394 -0.00037695712 0.013100184)
(5.0021109 -0.00037669229 0.013553783)
(5.0027086 -0.00037627764 0.013989725)
(5.0033329 -0.0003756383 0.014406237)
(5.0039838 -0.00037475068 0.014801314)
(5.0046618 -0.00037355643 0.015172626)
(5.0053668 -0.00037200713 0.015517573)
(5.0060988 -0.00037003878 0.015833247)
(5.0068576 -0.00036760083 0.016116401)
(5.0076424 -0.00036463554 0.016363519)
(5.0279173 -0.00019699281 0.0027079445)
(5.0277328 -0.00020237181 0.0039226367)
(5.0274591 -0.00020653539 0.0051819221)
(5.0270954 -0.00021386238 0.0064556272)
(5.026646 -0.00022119369 0.0077074599)
(5.0261178 -0.00022881697 0.0089139817)
(5.0255177 -0.00023738497 0.010061369)
(5.024852 -0.00024703095 0.01114145)
(5.0241267 -0.00025754183 0.012148772)
(5.0233475 -0.00026867805 0.013079078)
(5.0225207 -0.00028024189 0.013928861)
(5.0216528 -0.00029205285 0.014695392)
(5.0207504 -0.00030395664 0.0153768)
(5.0198205 -0.00031578235 0.015972165)
(5.0188698 -0.000327386 0.016481513)
(5.0179048 -0.00033861508 0.016905772)
(5.0169319 -0.00034937412 0.017246793)
(5.0159569 -0.00035951734 0.017507249)
(5.0149853 -0.00036898096 0.01769047)
(5.0140222 -0.00037768357 0.017800334)
(5.0130717 -0.00038560444 0.017841158)
(5.0121379 -0.00039269717 0.017817594)
(5.0112239 -0.00039897131 0.017734457)
(5.0103324 -0.00040443264 0.017596599)
(5.0094654 -0.00040911961 0.01740881)
(5.0086247 -0.00041308894 0.017175792)
(5.0078114 -0.00041636825 0.016901962)
(5.0070263 -0.00041905054 0.016591413)
(5.0062699 -0.00042117812 0.016247961)
(5.0055421 -0.00042285738 0.01587514)
(5.0048431 -0.00042408567 0.015476026)
(5.0041726 -0.00042502549 0.015053362)
(5.0035302 -0.00042563572 0.014609577)
(5.0029154 -0.00042605208 0.014146738)
(5.0023279 -0.00042625325 0.013666643)
(5.0017672 -0.00042634707 0.013170808)
(5.0012328 -0.00042631859 0.012660528)
(5.0007243 -0.00042623496 0.01213685)
(5.0002414 -0.00042610471 0.011600733)
(4.9997836 -0.00042595022 0.011052996)
(4.9993508 -0.00042578101 0.010494326)
(4.9989428 -0.0004256235 0.0099253745)
(4.9985595 -0.00042546266 0.0093467184)
(4.9982006 -0.00042532108 0.0087588558)
(4.9978663 -0.00042519274 0.0081622992)
(4.9975565 -0.00042507905 0.0075575492)
(4.9972713 -0.00042495323 0.0069450712)
(4.9970107 -0.00042477614 0.0063252482)
(4.9967747 -0.00042444963 0.0056983587)
(4.9965633 -0.00042388979 0.0050646137)
(4.9963769 -0.00042317036 0.0044244784)
(4.9962158 -0.00042295708 0.0037794122)
(4.9960808 -0.00042465104 0.0031331043)
(4.9959729 -0.00042927505 0.0024931051)
(4.9958924 -0.00043558617 0.001871698)
(4.9958375 -0.0004426994 0.0012809476)
(4.9958046 -0.00044773167 0.00073123769)
(4.9965587 -0.00050563165 0.00075865864)
(4.9965925 -0.00049960197 0.0013305823)
(4.9966489 -0.00049165032 0.0019452903)
(4.9967318 -0.00048460294 0.0025917113)
(4.9968427 -0.00047950117 0.0032572164)
(4.9969816 -0.00047764078 0.0039292232)
(4.9971472 -0.00047784108 0.0045999473)
(4.9973389 -0.00047861151 0.0052655581)
(4.9975561 -0.00047922088 0.0059246236)
(4.9977986 -0.00047955995 0.0065766888)
(4.9980663 -0.00047975541 0.0072215562)
(4.9983592 -0.00047989125 0.0078589724)
(4.9986773 -0.00048001405 0.0084885892)
(4.9990205 -0.00048015034 0.0091099777)
(4.9993887 -0.00048031671 0.0097226581)
(4.999782 -0.00048049732 0.010326198)
(5.0002006 -0.00048069743 0.010920145)
(5.0006445 -0.00048090472 0.011503977)
(5.0011139 -0.00048110566 0.012077128)
(5.0016092 -0.00048129227 0.012638973)
(5.0021307 -0.00048144383 0.013188734)
(5.0026789 -0.00048151528 0.013725549)
(5.0032542 -0.00048149111 0.014248391)
(5.0038573 -0.00048131607 0.014756002)
(5.0044887 -0.00048095695 0.015246877)
(5.0051489 -0.00048033255 0.015719214)
(5.0058386 -0.00047940465 0.016170877)
(5.0065582 -0.00047808731 0.016599347)
(5.0073082 -0.00047631533 0.017001773)
(5.0080888 -0.00047399808 0.017374847)
(5.0088999 -0.0004710637 0.017714793)
(5.0097413 -0.00046741964 0.018017494)
(5.0106124 -0.0004629965 0.018278464)
(5.011512 -0.00045772121 0.018492815)
(5.0124386 -0.00045153784 0.018655379)
(5.0133901 -0.00044440075 0.018760816)
(5.0143637 -0.0004362917 0.018803686)
(5.0153561 -0.00042720555 0.018778573)
(5.0163634 -0.00041717655 0.018680233)
(5.0173809 -0.00040625843 0.018503723)
(5.0184033 -0.00039451179 0.018244607)
(5.0194248 -0.0003820548 0.017899042)
(5.0204392 -0.00036900251 0.017463927)
(5.0214397 -0.0003555129 0.016937066)
(5.0224191 -0.00034174713 0.016317266)
(5.0233703 -0.00032788785 0.015604362)
(5.0242859 -0.0003141201 0.014799249)
(5.0251586 -0.0003006471 0.013903876)
(5.0259815 -0.00028766293 0.012921164)
(5.0267478 -0.00027540744 0.011854905)
(5.0274513 -0.00026414438 0.01070971)
(5.0280856 -0.0002541137 0.009491517)
(5.0286442 -0.00024518419 0.0082091082)
(5.0291195 -0.00023665177 0.0068772116)
(5.0295042 -0.00022819574 0.0055207096)
(5.0297939 -0.00022222845 0.0041764505)
(5.0299903 -0.00022405465 0.0028851176)
(5.0322245 -0.00024616311 0.0030725693)
(5.032015 -0.00024458694 0.0044474015)
(5.0317088 -0.00025174613 0.0058790567)
(5.0313027 -0.00026137595 0.007322553)
(5.0308011 -0.00027124942 0.0087388168)
(5.0302118 -0.00028165017 0.010101309)
(5.0295426 -0.00029335961 0.011394229)
(5.0288007 -0.00030648762 0.012608036)
(5.0279928 -0.00032075298 0.013736262)
(5.0271256 -0.00033585577 0.014773891)
(5.0262063 -0.0003515309 0.015716851)
(5.0252423 -0.00036754774 0.016562035)
(5.0242416 -0.00038365728 0.017307393)
(5.0232118 -0.00039965986 0.017952052)
(5.022161 -0.00041531631 0.018496339)
(5.0210966 -0.00043044893 0.018941706)
(5.0200259 -0.00044488772 0.019290789)
(5.0189556 -0.0004584532 0.01954717)
(5.0178918 -0.00047104874 0.019715216)
(5.0168403 -0.00048257765 0.019800022)
(5.0158058 -0.00049298471 0.019807196)
(5.0147924 -0.00050223918 0.019742666)
(5.0138037 -0.00051034906 0.019612515)
(5.0128423 -0.00051733509 0.019422815)
(5.0119104 -0.00052325829 0.019179499)
(5.0110094 -0.00052819393 0.018888282)
(5.0101404 -0.00053222089 0.018554496)
(5.0093038 -0.00053545581 0.018183077)
(5.0084997 -0.00053794973 0.017778492)
(5.0077281 -0.0005398493 0.017344761)
(5.0069884 -0.0005412071 0.016885378)
(5.0062801 -0.00054215611 0.016403318)
(5.0056025 -0.00054274449 0.015901191)
(5.004955 -0.00054306859 0.015381174)
(5.0043368 -0.00054317477 0.014845063)
(5.0037471 -0.00054314441 0.014294341)
(5.0031855 -0.00054299992 0.013730221)
(5.0026512 -0.00054279158 0.013153659)
(5.0021438 -0.00054254549 0.012565449)
(5.0016628 -0.00054229941 0.011966295)
(5.0012079 -0.00054204446 0.011356743)
(5.0007789 -0.00054181295 0.010737261)
(5.0003756 -0.0005416033 0.010108298)
(4.9999979 -0.00054142421 0.0094702367)
(4.9996459 -0.00054127803 0.0088234738)
(4.9993194 -0.00054114532 0.0081684327)
(4.9990187 -0.00054100958 0.0075054941)
(4.9987438 -0.00054081183 0.0068349636)
(4.9984947 -0.00054044982 0.0061570546)
(4.9982715 -0.00053980677 0.0054719591)
(4.9980745 -0.00053897861 0.0047801065)
(4.9979042 -0.00053877949 0.0040829893)
(4.9977614 -0.000540819 0.0033846204)
(4.9976473 -0.00054643489 0.0026930041)
(4.997562 -0.00055427935 0.0020210615)
(4.997504 -0.00056320408 0.0013818673)
(4.9974693 -0.0005703858 0.00078704979)
(4.998557 -0.00064269944 0.00081616031)
(4.9985926 -0.00063414194 0.0014346872)
(4.9986523 -0.00062409683 0.002099039)
(4.9987401 -0.00061540682 0.0027971232)
(4.9988575 -0.00060924915 0.0035155713)
(4.9990043 -0.00060699908 0.0042410664)
(4.9991793 -0.00060720131 0.0049652896)
(4.9993818 -0.0006080736 0.0056840616)
(4.9996111 -0.00060875895 0.0063958404)
(4.9998669 -0.00060913325 0.0071001956)
(5.0001492 -0.00060933113 0.0077969784)
(5.0004578 -0.00060946392 0.0084860093)
(5.0007927 -0.00060959388 0.0091670273)
(5.0011537 -0.00060974259 0.0098396841)
(5.0015408 -0.0006099313 0.010503624)
(5.001954 -0.000610163 0.011158526)
(5.0023935 -0.00061043277 0.01180404)
(5.0028593 -0.00061071386 0.01243983)
(5.0033516 -0.000611012 0.013065537)
(5.003871 -0.00061131628 0.013680681)
(5.0044177 -0.00061159351 0.014284676)
(5.0049925 -0.00061180618 0.014876819)
(5.0055959 -0.00061191879 0.015456225)
(5.0062288 -0.0006118823 0.01602175)
(5.0068919 -0.00061161733 0.016571959)
(5.0075861 -0.00061105311 0.017105073)
(5.0083123 -0.00061010871 0.017618875)
(5.0090714 -0.00060867922 0.018110721)
(5.009864 -0.00060668125 0.018577485)
(5.0106907 -0.00060397108 0.019015465)
(5.0115521 -0.00060043363 0.019420431)
(5.0124479 -0.00059598946 0.019787521)
(5.0133781 -0.00059048822 0.020111364)
(5.0143417 -0.00058384712 0.020386123)
(5.0153372 -0.00057595796 0.020605488)
(5.0163627 -0.0005667539 0.020762883)
(5.0174154 -0.000556202 0.020851538)
(5.0184917 -0.0005442941 0.020864642)
(5.0195873 -0.00053105524 0.020795511)
(5.0206972 -0.00051656623 0.020637766)
(5.0218154 -0.00050089751 0.02038565)
(5.0229354 -0.00048421609 0.020034165)
(5.02405 -0.0004666944 0.019579172)
(5.0251515 -0.00044853904 0.019017626)
(5.0262318 -0.0004299969 0.018347714)
(5.0272824 -0.00041128327 0.017568963)
(5.0282951 -0.00039270106 0.016682223)
(5.0292613 -0.00037450543 0.015689614)
(5.0301731 -0.00035696306 0.014594497)
(5.0310229 -0.00034038991 0.013401274)
(5.0318033 -0.00032512636 0.012115383)
(5.0325074 -0.00031148894 0.010743842)
(5.0331276 -0.00029940059 0.0092969832)
(5.0336555 -0.0002880462 0.0077917826)
(5.0340829 -0.00027716546 0.0062567941)
(5.0344055 -0.00026911819 0.0047339865)
(5.0346263 -0.00027036627 0.0032712984)
(5.0372074 -0.00029630514 0.0034800876)
(5.0369756 -0.00029535503 0.0050352489)
(5.0366371 -0.00030438214 0.006653896)
(5.0361887 -0.00031664307 0.0082850955)
(5.0356348 -0.00032970126 0.0098837723)
(5.034984 -0.00034370992 0.011419241)
(5.0342453 -0.00035954422 0.012873228)
(5.0334265 -0.00037723145 0.014234641)
(5.0325352 -0.00039643256 0.015495906)
(5.031579 -0.00041674128 0.016651078)
(5.0305661 -0.0004378195 0.017695374)
(5.0295051 -0.00045934634 0.018625199)
(5.0284047 -0.0004809933 0.019438285)
(5.0272742 -0.00050246705 0.020133785)
(5.0261224 -0.00052349494 0.020712412)
(5.0249579 -0.00054372166 0.021176323)
(5.023789 -0.00056298831 0.021529045)
(5.0226233 -0.00058101382 0.021775288)
(5.0214678 -0.00059768041 0.021920736)
(5.0203287 -0.00061285298 0.02197197)
(5.0192114 -0.00062646879 0.021936159)
(5.0181202 -0.00063847914 0.021820819)
(5.0170589 -0.00064890929 0.021633575)
(5.0160301 -0.00065779537 0.021381925)
(5.0150359 -0.00066527407 0.021073209)
(5.0140776 -0.00067136206 0.020714333)
(5.0131559 -0.0006763092 0.020311703)
(5.0122709 -0.00068014133 0.019871179)
(5.0114223 -0.00068304752 0.019397879)
(5.0106098 -0.00068518607 0.018896394)
(5.0098323 -0.00068665102 0.018370607)
(5.009089 -0.00068759912 0.017823737)
(5.0083789 -0.00068812084 0.017258513)
(5.0077009 -0.00068831839 0.016677142)
(5.007054 -0.00068827727 0.016081358)
(5.0064373 -0.00068808406 0.015472539)
(5.0058499 -0.00068779468 0.014851746)
(5.005291 -0.00068744651 0.014219758)
(5.00476 -0.00068708479 0.013577164)
(5.0042564 -0.00068673778 0.012924445)
(5.0037799 -0.00068641118 0.012261952)
(5.0033301 -0.00068611976 0.011589942)
(5.0029069 -0.0006858827 0.010908662)
(5.0025103 -0.00068569757 0.010218361)
(5.0021403 -0.0006855477 0.0095192974)
(5.0017969 -0.00068543196 0.0088117915)
(5.0014803 -0.0006853055 0.0080961321)
(5.0011906 -0.00068512466 0.0073725295)
(5.0009279 -0.00068473196 0.0066411413)
(5.0006924 -0.00068400937 0.0059021157)
(5.0004843 -0.00068307117 0.0051558544)
(5.0003043 -0.00068289829 0.0044038927)
(5.0001534 -0.00068541223 0.0036504748)
(5.0000327 -0.00069215839 0.0029043306)
(4.9999424 -0.00070178419 0.0021794156)
(4.999881 -0.00071264581 0.0014898536)
(4.9998442 -0.00072371609 0.00084681136)
(5.0013555 -0.00081337414 0.00087797406)
(5.0013937 -0.00079986291 0.0015460779)
(5.001457 -0.00078804698 0.0022618587)
(5.0015496 -0.00077733279 0.0030146539)
(5.0016737 -0.00076990112 0.0037892833)
(5.0018289 -0.00076708031 0.0045713102)
(5.0020139 -0.00076723747 0.0053517081)
(5.0022277 -0.00076822249 0.0061261367)
(5.0024696 -0.00076899371 0.0068930586)
(5.0027393 -0.0007693845 0.0076520737)
(5.0030366 -0.00076956217 0.0084030551)
(5.0033613 -0.00076965648 0.0091458799)
(5.0037133 -0.00076974866 0.0098803795)
(5.0040924 -0.00076987602 0.010606299)
(5.0044985 -0.00077006139 0.011323387)
(5.0049315 -0.00077030198 0.012031457)
(5.0053916 -0.0007706047 0.012730355)
(5.0058787 -0.00077096428 0.013419945)
(5.0063932 -0.00077135976 0.014100091)
(5.0069355 -0.00077178475 0.014770564)
(5.0075062 -0.0007722063 0.015431018)
(5.0081058 -0.00077258211 0.016080993)
(5.0087352 -0.00077285021 0.016719857)
(5.0093955 -0.00077297158 0.01734665)
(5.0100876 -0.00077284356 0.017960068)
(5.0108127 -0.00077237667 0.018558452)
(5.011572 -0.00077144921 0.01913959)
(5.0123668 -0.00076992474 0.019700746)
(5.0131982 -0.00076767076 0.020238587)
(5.0140671 -0.00076454013 0.020748995)
(5.0149745 -0.00076032146 0.021227182)
(5.0159208 -0.00075492399 0.021667569)
(5.0169059 -0.00074810721 0.022063862)
(5.0179293 -0.00073977049 0.022409086)
(5.0189899 -0.00072974472 0.022695616)
(5.0200858 -0.00071793859 0.022915401)
(5.0212142 -0.00070427559 0.023060058)
(5.0223714 -0.00068874637 0.02312108)
(5.0235527 -0.00067135694 0.023090063)
(5.0247527 -0.00065224104 0.022958922)
(5.0259647 -0.00063147221 0.022720252)
(5.0271816 -0.00060930794 0.022367557)
(5.028395 -0.00058593985 0.021895483)
(5.0295963 -0.00056170184 0.021299992)
(5.0307762 -0.00053689324 0.020578527)
(5.0319252 -0.00051188607 0.019730195)
(5.0330338 -0.00048701687 0.018755805)
(5.0340925 -0.00046267614 0.01765777)
(5.0350922 -0.00043922764 0.016439964)
(5.0360242 -0.00041705929 0.015107602)
(5.0368805 -0.0003966341 0.013667144)
(5.0376531 -0.00037832735 0.012126805)
(5.0383337 -0.0003621548 0.010498623)
(5.0389129 -0.00034718888 0.0088021225)
(5.0393819 -0.00033331194 0.0070700928)
(5.0397357 -0.00032318147 0.0053507667)
(5.0399782 -0.00032379901 0.003698513)
(5.0429486 -0.00035233689 0.0039250449)
(5.042696 -0.00035251491 0.0056797289)
(5.0423274 -0.00036395988 0.0075044611)
(5.0418388 -0.00037964066 0.0093416951)
(5.0412352 -0.00039668142 0.011140343)
(5.0405261 -0.000415299 0.012865444)
(5.039721 -0.00043637616 0.014495992)
(5.0388287 -0.00045990251 0.016018994)
(5.0378576 -0.00048540957 0.017425493)
(5.036816 -0.00051240653 0.018708473)
(5.0357131 -0.00054045177 0.019862285)
(5.0345586 -0.00056908504 0.020882727)
(5.0333625 -0.00059790705 0.021767204)
(5.0321348 -0.00062648564 0.022514959)
(5.0308858 -0.00065440575 0.023127096)
(5.0296251 -0.00068129124 0.023606548)
(5.0283622 -0.00070678766 0.023957936)
(5.0271054 -0.0007306093 0.024187318)
(5.0258627 -0.00075253469 0.02430204)
(5.0246409 -0.0007724007 0.024310498)
(5.0234457 -0.00079008795 0.024221726)
(5.0222819 -0.00080559704 0.024045093)
(5.0211533 -0.00081894485 0.02379008)
(5.0200626 -0.00083022252 0.023466013)
(5.0190117 -0.00083955192 0.023081774)
(5.0180015 -0.00084710526 0.022645673)
(5.0170325 -0.00085307902 0.022165333)
(5.0161044 -0.00085765768 0.021647541)
(5.0152164 -0.00086103849 0.021098245)
(5.0143677 -0.0008634237 0.020522551)
(5.0135568 -0.00086498773 0.019924716)
(5.0127826 -0.00086590866 0.019308179)
(5.0120436 -0.00086632105 0.018675705)
(5.0113383 -0.00086637104 0.018029458)
(5.0106655 -0.00086617444 0.017371042)
(5.010024 -0.00086581268 0.016701606)
(5.0094128 -0.00086536587 0.016021995)
(5.0088309 -0.00086486336 0.01533271)
(5.0082776 -0.00086438955 0.014634003)
(5.0077524 -0.00086396477 0.013926106)
(5.0072549 -0.00086357757 0.013209112)
(5.0067848 -0.00086325883 0.012482998)
(5.0063419 -0.00086302744 0.011747782)
(5.0059263 -0.0008628654 0.011003527)
(5.0055381 -0.00086277039 0.010250327)
(5.0051774 -0.00086272319 0.0094883864)
(5.0048445 -0.00086265789 0.0087178812)
(5.0045395 -0.00086252203 0.0079389455)
(5.0042626 -0.00086213379 0.0071516723)
(5.0040142 -0.00086134383 0.0063561473)
(5.0037946 -0.0008602961 0.0055527682)
(5.0036044 -0.00086016105 0.0047431763)
(5.0034448 -0.00086329446 0.0039318644)
(5.0033172 -0.0008715211 0.0031279816)
(5.0032219 -0.00088372155 0.0023458114)
(5.0031569 -0.00089653253 0.0016018546)
(5.0031174 -0.00091187748 0.00090823089)
(5.0051582 -0.0010205896 0.00093964541)
(5.0051986 -0.0010029637 0.0016596629)
(5.0052654 -0.00098898244 0.0024323497)
(5.0053636 -0.00097526684 0.0032444728)
(5.005495 -0.00096620473 0.0040784112)
(5.005659 -0.00096270388 0.0049198387)
(5.0058544 -0.0009628265 0.0057593688)
(5.0060801 -0.00096391303 0.0065923993)
(5.0063352 -0.0009647295 0.0074171811)
(5.0066193 -0.00096509026 0.0082333096)
(5.0069322 -0.00096519251 0.0090407281)
(5.0072735 -0.00096518412 0.0098393986)
(5.0076429 -0.00096517626 0.010629227)
(5.0080403 -0.00096522131 0.011410064)
(5.0084653 -0.00096533903 0.012181806)
(5.0089179 -0.00096554445 0.012944452)
(5.009398 -0.00096585332 0.013698038)
(5.0099057 -0.00096622997 0.014442681)
(5.0104413 -0.00096668117 0.015178572)
(5.0110051 -0.00096720181 0.01590574)
(5.0115978 -0.00096775233 0.016624149)
(5.01222 -0.00096827561 0.017333733)
(5.0128727 -0.00096873478 0.018034124)
(5.0135572 -0.00096900724 0.018724656)
(5.0142745 -0.00096904467 0.019404358)
(5.0150263 -0.00096868074 0.020071717)
(5.015814 -0.00096776526 0.020724628)