/*--------------------------------*- C++ -*----------------------------------*\
| =========                 |                                                 |
| \\      /  F ield         | OpenFOAM: The Open Source CFD Toolbox           |
|  \\    /   O peration     | Version:  v2012                                 |
|   \\  /    A nd           | Website:  www.openfoam.com                      |
|    \\/     M anipulation  |                                                 |
\*---------------------------------------------------------------------------*/
FoamFile
{
    version     2.0;
    format      ascii;
    class       volScalarField;
    location    "100";
    object      p;
}
// * * * * * * * * * * * * * * * * * * * * * * * * * * * * * * * * * * * * * //

dimensions      [0 2 -2 0 0 0 0];


internalField   nonuniform List<scalar> 
121056
(
1.5988708
1.4762856
1.291518
1.0684918
0.91441438
0.80493707
0.7108814
0.63029133
0.56253485
0.50467839
0.45455915
0.4109979
0.3729912
0.33957247
0.30999956
0.28370726
0.26026189
0.23925015
0.22032801
0.20326579
0.18785903
0.17394567
0.16135042
0.14989049
0.13946081
0.12989464
0.12115997
0.1131758
0.10587419
0.099176507
0.093039879
0.087392993
0.082165129
0.077308456
0.072762363
0.068491204
0.064479583
-0.079323166
-0.083465278
-0.08790549
-0.092671945
-0.097808988
-0.10335231
-0.10935075
-0.11586347
-0.12295142
-0.13067801
-0.1391208
-0.14836369
-0.15849718
-0.16961436
-0.18183037
-0.19525539
-0.20999706
-0.22618269
-0.24390873
-0.26329181
-0.2844119
-0.30735527
-0.33216256
-0.35887896
-0.38747248
-0.41792899
-0.45015528
-0.48406453
-0.51950271
-0.55631519
-0.5943061
-0.63326565
-0.67296968
-0.71316164
-0.75368934
-0.79423485
-0.83455246
-0.87439255
-0.91351486
-0.95167773
-0.98864793
-1.0241986
-1.0581051
-1.090138
-1.1200624
-1.1476674
-0.53005087
-0.4862632
-0.44437796
-0.40445751
-0.36659433
-0.3308396
-0.29721316
-0.26572197
-0.23635143
-0.20906591
-0.18381586
-0.16053756
-0.13915661
-0.11958986
-0.10174767
-0.0855357
-0.070857471
-0.057614871
-0.045710985
-0.035049562
-0.0255356
-0.017078876
-0.0095929155
-0.0029986725
0.0027822647
0.0078287051
0.012206253
0.015978529
0.01919817
0.021921964
0.024205399
0.026099365
0.027638999
0.028862077
0.029808325
0.030503635
0.030976909
0.031264521
0.031387866
0.031356647
0.031190685
0.030910996
0.031031787
0.03132245
0.031501427
0.031548473
0.031443417
0.031169555
0.030709049
0.030032848
0.029113164
0.027917097
0.026407905
0.024548474
0.022294301
0.019597539
0.016411448
0.012682218
0.0083515095
0.0033544893
-0.0023756933
-0.0089152824
-0.016341423
-0.024736809
-0.034188442
-0.044786515
-0.05662584
-0.06980333
-0.08441679
-0.10056574
-0.11834695
-0.13785706
-0.15918578
-0.18241851
-0.20763136
-0.23488954
-0.26424429
-0.29573319
-0.3293716
-0.36515264
-0.40305865
-0.44303943
-0.48499957
-0.52887824
-0.5262705
-0.48219866
-0.44008593
-0.39998526
-0.36199503
-0.3261634
-0.29250583
-0.26102857
-0.2317142
-0.20452039
-0.1793939
-0.15626402
-0.13505309
-0.1156707
-0.098025643
-0.082017152
-0.067546785
-0.054512488
-0.042814852
-0.032354952
-0.023037406
-0.014770875
-0.0074674053
-0.0010443224
0.0045770998
0.009470756
0.013704823
0.017342503
0.020441846
0.023057996
0.025240216
0.027036188
0.028487507
0.029631521
0.030502668
0.031133613
0.031551109
0.031783774
0.031852631
0.031776524
0.031571897
0.031258166
0.031639722
0.031996507
0.032246464
0.032373138
0.03235959
0.032188981
0.031837118
0.031280046
0.030489818
0.02943506
0.028080852
0.026390765
0.024322257
0.021830321
0.018865279
0.015373025
0.011295974
0.0065703807
0.0011282224
-0.0051050486
-0.012207732
-0.020264377
-0.029362807
-0.039597445
-0.051063983
-0.063865036
-0.078101576
-0.09388033
-0.11130274
-0.13047507
-0.15149323
-0.17445313
-0.19943684
-0.22652278
-0.25576861
-0.28722249
-0.32090487
-0.3568173
-0.39494518
-0.43524565
-0.47762001
-0.5220103
-0.51585014
-0.47098672
-0.42823704
-0.38764441
-0.34931265
-0.31327805
-0.2795565
-0.24813814
-0.21899436
-0.19206833
-0.16729579
-0.14458675
-0.12385254
-0.10498802
-0.087891246
-0.072447814
-0.058551891
-0.046090854
-0.034959391
-0.025052578
-0.016270821
-0.0085185365
-0.0017054366
0.0042529058
0.009436415
0.01391984
0.017771039
0.021053375
0.023823346
0.026135835
0.028039655
0.029578721
0.030794469
0.031722899
0.03239649
0.032847322
0.033102682
0.033184958
0.033117392
0.032917661
0.032601402
0.032188678
0.032891514
0.033385024
0.033789475
0.03408581
0.034259891
0.034292404
0.034163631
0.033851928
0.033330362
0.03256873
0.031536524
0.03019807
0.028512602
0.026437033
0.023924814
0.020918974
0.017367383
0.013204171
0.0083648671
0.0027696425
-0.0036574321
-0.011005836
-0.019362206
-0.02883209
-0.039511118
-0.051515899
-0.064950624
-0.079941464
-0.096594473
-0.11503985
-0.13538465
-0.15774985
-0.18222854
-0.20893204
-0.2379291
-0.26929168
-0.30305487
-0.33924501
-0.37783451
-0.41881375
-0.46206955
-0.50755983
-0.49707769
-0.45080612
-0.40692789
-0.36547898
-0.32657006
-0.29020345
-0.25640382
-0.22512914
-0.19633238
-0.16992809
-0.14583153
-0.12391497
-0.10406848
-0.086162915
-0.070072632
-0.055661068
-0.042805731
-0.031378639
-0.021263211
-0.012344384
-0.0045168332
0.002323541
0.0082716226
0.013412596
0.017827954
0.021594014
0.024777286
0.027440701
0.029637821
0.031423198
0.032841664
0.03393366
0.03474232
0.035299888
0.035633403
0.035772891
0.035745171
0.035572113
0.03526832
0.034854334
0.034344688
0.033757342
0.034770463
0.035466111
0.036094752
0.036641742
0.037091702
0.03742896
0.037636161
0.03769351
0.037577285
0.037259991
0.036715411
0.035912497
0.034811806
0.033366227
0.031544658
0.029283057
0.026538204
0.023241903
0.019333663
0.014730939
0.0093578758
0.003120845
-0.0040684153
-0.012325681
-0.02175198
-0.032478534
-0.044619453
-0.058325461
-0.073717473
-0.090954464
-0.11016924
-0.13151999
-0.15512267
-0.18113527
-0.20965528
-0.24079221
-0.27460415
-0.31115901
-0.35043196
-0.39243834
-0.43706407
-0.48427208
-0.46914783
-0.42084065
-0.37535238
-0.33270866
-0.29303147
-0.25628122
-0.22248566
-0.19154548
-0.16338731
-0.13787132
-0.11487889
-0.094226038
-0.075775447
-0.059348015
-0.044787604
-0.031930732
-0.020631196
-0.01073538
-0.0021125312
0.0053669243
0.011816067
0.017347981
0.022058078
0.026036626
0.029366874
0.032121283
0.034370044
0.036167054
0.037568494
0.03862063
0.039362262
0.039841295
0.040091864
0.040134874
0.040004592
0.039719378
0.039307249
0.038781696
0.038163784
0.037462741
0.036695806
0.035871938
0.037153115
0.038100318
0.039013478
0.039876981
0.040677603
0.041400256
0.042037261
0.042566041
0.042974902
0.043225939
0.043309798
0.043184984
0.042837199
0.042216325
0.041289796
0.040008511
0.038321129
0.036172965
0.033498392
0.030222385
0.026268921
0.021535706
0.015940023
0.0093493302
0.0016621649
-0.0072749949
-0.017584509
-0.029448796
-0.043015545
-0.058478298
-0.075998106
-0.095800373
-0.11803728
-0.1429272
-0.17061609
-0.2012747
-0.23500602
-0.27193468
-0.31204776
-0.35540326
-0.40188158
-0.45144662
-0.43095086
-0.37994712
-0.33235581
-0.28822152
-0.2476487
-0.21057392
-0.17697874
-0.14671044
-0.11962784
-0.095524236
-0.074211159
-0.055445278
-0.039026744
-0.024711714
-0.012309298
-0.0016082069
0.0075604049
0.015387496
0.022008747
0.027582815
0.03221836
0.03604775
0.039152874
0.04164161
0.043586223
0.045062507
0.046126127
0.04683747
0.047238325
0.047381017
0.047292478
0.047013584
0.046565965
0.045982726
0.04527448
0.044470349
0.043585401
0.042630752
0.041620813
0.040564197
0.03947766
0.038373661
0.04119435
0.042436206
0.043674724
0.044884859
0.046059731
0.047194544
0.048275309
0.049287689
0.050218656
0.051042156
0.051747506
0.052296534
0.052670361
0.05282739
0.052735996
0.052348685
0.051607228
0.050465484
0.048839149
0.046674054
0.04385647
0.040296463
0.035870156
0.03045537
0.023895609
0.01603806
0.0066818414
-0.0043609044
-0.01732661
-0.032429914
-0.049954754
-0.070132476
-0.093258899
-0.11955867
-0.14929509
-0.18264864
-0.2198193
-0.26085619
-0.30584439
-0.35469037
-0.40732852
-0.3801992
-0.32571363
-0.27547243
-0.22957579
-0.18808418
-0.15090762
-0.11793236
-0.088922349
-0.063621019
-0.041723507
-0.022927018
-0.0069046472
0.0066423665
0.018017263
0.027484416
0.035289426
0.04165365
0.046777695
0.050833564
0.053975606
0.056337683
0.058034759
0.059171792
0.059841696
0.060101087
0.060033593
0.059679105
0.05910013
0.058327856
0.057392748
0.056328068
0.055154722
0.053901565
0.052575675
0.051208946
0.049801246
0.048369619
0.04691893
0.045461552
0.044000707
0.042550186
0.044695176
0.046306242
0.047942556
0.049599059
0.051273099
0.052964775
0.05466337
0.05636171
0.058053582
0.059720049
0.061352674
0.062926899
0.064430211
0.06583123
0.067109119
0.068227196
0.069147739
0.069818247
0.070175579
0.070154443
0.069667155
0.068621343
0.066893276
0.064354236
0.060838397
0.056172129
0.05013614
0.04249529
0.032972214
0.021269859
0.0070419453
-0.0100663
-0.030442539
-0.054463264
-0.082504001
-0.11490686
-0.15197319
-0.19388593
-0.24075744
-0.29255511
-0.25475359
-0.2012253
-0.15331191
-0.11104752
-0.074261226
-0.042682642
-0.015922506
0.0064693155
0.024960478
0.040015769
0.052097183
0.06162462
0.068993252
0.074535485
0.078555891
0.081308096
0.083020734
0.083873948
0.084039072
0.083635793
0.082790354
0.081581146
0.080101038
0.078404382
0.076546166
0.07457277
0.072512346
0.070400147
0.068252393
0.066089924
0.063920835
0.061764553
0.059625901
0.057514245
0.055435684
0.053399259
0.051405636
0.049467056
0.04757079
0.045721271
0.04853673
0.050529454
0.052589166
0.054717799
0.056935394
0.059221631
0.061583845
0.064015863
0.066516362
0.069082088
0.071711662
0.074396628
0.077130795
0.079903123
0.082702065
0.085501754
0.088285301
0.091006669
0.093636361
0.096104688
0.09835454
0.10028804
0.10180827
0.10278151
0.10305921
0.1024388
0.10069721
0.097552135
0.09268454
0.085709558
0.076189004
0.063621807
0.047464793
0.027140668
0.0020703903
-0.028340438
-0.064604991
-0.10711399
-0.15611519
-0.10470059
-0.054580524
-0.011995718
0.023398201
0.052167056
0.075016847
0.092714219
0.10598593
0.11553748
0.12201708
0.1260038
0.12798997
0.12839703
0.12756775
0.12578809
0.12329415
0.12027754
0.1168857
0.11324201
0.10943572
0.10554984
0.10163009
0.0977355
0.093884967
0.090116959
0.086435333
0.082861433
0.079396553
0.076049596
0.072816198
0.069700753
0.066702399
0.063813144
0.061035848
0.058366504
0.055801785
0.053348299
0.05099264
0.048730825
0.052657462
0.05505196
0.057559813
0.060197771
0.062952337
0.065846042
0.068874851
0.072052271
0.075380353
0.078878159
0.082545975
0.086391655
0.090423174
0.094641283
0.099050411
0.10364787
0.10843115
0.11338738
0.11849917
0.12373341
0.12905368
0.13439606
0.13968951
0.14481941
0.14965931
0.15401651
0.15766972
0.16031738
0.16161107
0.16108829
0.15821567
0.15231054
0.14260957
0.12823757
0.10830481
0.081808543
0.047771721
0.0053516762
-0.045928404
0.021321722
0.073786054
0.11566047
0.14763736
0.17099101
0.18711494
0.1972858
0.2025988
0.20409582
0.20269485
0.19915397
0.19406335
0.1878932
0.1810102
0.17370193
0.16618291
0.15862342
0.15113519
0.14381207
0.13670421
0.12985999
0.12329613
0.11703251
0.11106849
0.10540505
0.10003249
0.094945158
0.090122555
0.085559884
0.081240158
0.077159272
0.073297577
0.069644953
0.066188895
0.062913885
0.059811008
0.056859983
0.05406252
0.051404383
0.056928833
0.059738771
0.062696404
0.065812711
0.069106599
0.072595588
0.076298966
0.080230292
0.084408329
0.088847668
0.093576744
0.098601583
0.10393912
0.10962659
0.11567788
0.12212446
0.1289789
0.13626449
0.14399617
0.15217908
0.1608198
0.16989787
0.17938836
0.18922571
0.19933082
0.20957087
0.21977078
0.22966126
0.23888774
0.24697155
0.25330895
0.257058
0.25714186
0.25229008
0.24117344
0.22217579
0.19329621
0.15254854
0.098881072
0.18852247
0.24345909
0.28218153
0.3064209
0.31942541
0.32403733
0.32216406
0.31535474
0.30514786
0.29281352
0.27924553
0.26504531
0.2506768
0.23646681
0.22265339
0.2093809
0.1967372
0.18475972
0.17347075
0.16286727
0.15294237
0.14366482
0.1350051
0.12692532
0.11939303
0.1123688
0.10581631
0.099702868
0.093997054
0.088661393
0.083676116
0.079022995
0.074667156
0.070587878
0.066767506
0.063191817
0.059832961
0.056666071
0.053669022
0.061011829
0.064212444
0.067596635
0.07119474
0.075032991
0.07913977
0.083525808
0.088215846
0.093224045
0.098603103
0.10436732
0.11055565
0.11720788
0.12436131
0.13206699
0.14036419
0.14931672
0.15896333
0.16937477
0.18059732
0.19269413
0.20570371
0.21968034
0.23464351
0.25060201
0.26752557
0.28535413
0.30393083
0.3229919
0.34213001
0.36082884
0.37823115
0.39291163
0.40302188
0.40683537
0.40221847
0.38504653
0.34980441
0.29348449
0.47498066
0.50421645
0.51073344
0.50372994
0.48861528
0.46742715
0.44218608
0.4152643
0.38823648
0.36183637
0.33646028
0.31243007
0.28991556
0.26896754
0.24954931
0.23161693
0.2150861
0.19988357
0.18590475
0.17305674
0.16124566
0.15038594
0.14039184
0.13118929
0.12270702
0.11488061
0.10765144
0.10097989
0.094802431
0.089081357
0.083778473
0.07884556
0.074248698
0.06997429
0.06599988
0.062300541
0.05884963
0.055614116
0.064299917
0.067868088
0.071676621
0.075756884
0.080129262
0.084818574
0.089851968
0.095248176
0.10105519
0.10731137
0.11407964
0.12139586
0.12933539
0.13791925
0.14723338
0.15734852
0.16836697
0.18036691
0.19345589
0.20773541
0.22333674
0.24038727
0.25903946
0.27941285
0.3016496
0.32586697
0.35221304
0.38078856
0.41157366
0.44435794
0.47894192
0.51498927
0.55103397
0.58406365
0.61182258
0.63388989
0.64420502
0.62595175
0.80906133
0.80727783
0.76912715
0.72327549
0.67586207
0.62454694
0.57250881
0.52362948
0.47877558
0.43761731
0.40006897
0.36608986
0.33542399
0.30770697
0.28265209
0.26000474
0.23952827
0.22099621
0.20421102
0.18897898
0.17512984
0.16251725
0.1510129
0.1405351
0.13096376
0.12218753
0.11410861
0.10668774
0.099873116
0.09361344
0.087834192
0.082485564
0.077531216
0.072940088
0.068671714
0.064697648
0.061001712
0.057563344
0.066084018
0.069985454
0.074155703
0.078617748
0.083391642
0.088511844
0.094033495
0.099993087
0.10643313
0.11341206
0.1210265
0.12935082
0.1383937
0.14817073
0.15879302
0.17044115
0.18331982
0.19747547
0.21301464
0.2300892
0.2489553
0.26982669
0.29296573
0.31863237
0.34714404
0.37882579
0.41407332
0.45341164
0.49738458
0.54624014
0.60010404
0.65987637
0.72622977
0.79490928
0.85938279
0.92544469
0.99959516
1.040323
-0.98269648
-0.96734239
-0.95024626
-0.93152721
-0.91132654
-0.88978849
-0.86705829
-0.84328228
-0.81860879
-0.79318574
-0.76715862
-0.74066921
-0.71385683
-0.68685875
-0.65979712
-0.63281605
-0.60601824
-0.57949437
-0.55334336
-0.52765634
-0.50250988
-0.47797269
-0.45410629
-0.43095816
-0.40857097
-0.38697885
-0.36621023
-0.34627853
-0.32719447
-0.30895906
-0.29157295
-0.27502357
-0.25930304
-0.24438814
-0.23026504
-0.21690276
-0.20428235
-0.19236968
-0.18114385
-0.17056962
-0.16061956
-0.15126396
-0.14246484
-0.13420066
-0.12643799
-0.11915158
-0.11231181
-0.10589426
-0.099869638
-0.094220573
0.030883659
0.031158817
0.031052881
0.030929462
0.030683844
0.030425718
-0.0024183977
-0.00040129264
0.0015410385
0.00344358
0.0052706528
0.0070588996
0.0087680537
0.010425504
0.012031434
0.013583023
0.015062763
0.016502602
0.017856315
0.01916503
0.020389953
0.021574979
0.022671404
0.023741412
0.024695207
0.02563249
0.02646317
0.027266532
0.027973865
0.028632133
0.029200216
0.029741631
0.030161953
0.030560196
0.030830287
0.031082067
0.031208575
0.031321724
0.031351261
0.031235388
0.031105476
0.030844895
0.030567676
0.030155478
0.02971849
0.029162345
0.028579687
0.027900199
0.027172031
0.02635182
0.025489825
0.024533889
0.023542042
0.022447786
0.021317394
0.020093993
0.018834195
0.017478898
0.016085823
0.01460064
0.013079287
0.011482922
0.0098340276
0.0081180024
0.0063539481
0.0044993358
0.0026149571
0.00064755539
-0.0013610996
-0.0034320541
-0.0055329419
-0.0077178277
-0.018587626
-0.016128428
-0.013709093
-0.011358163
-0.009052596
-0.0067897367
-0.0046042061
-0.0024647498
-0.00039784667
0.001636568
0.0035704936
0.0054865348
0.0073087774
0.0090816172
0.010784753
0.012432973
0.013993773
0.015523713
0.016952978
0.018346777
0.01964473
0.020900713
0.022067848
0.023186885
0.024213459
0.025193658
0.026084409
0.026925467
0.027673773
0.028375375
0.028978321
0.029547512
0.029997165
0.03042208
0.030711353
0.030978712
0.031114356
0.031231527
0.030944082
0.030823781
0.030683839
0.030407794
0.030108541
0.029668145
0.029205572
0.028619549
0.02799559
0.02727349
0.026507169
0.025643404
0.024724804
0.023722433
0.02266054
0.021513561
0.020307968
0.019020362
0.017680429
0.016251599
0.014775927
0.013210435
0.011599729
0.0098999869
0.0081476359
0.0063189894
0.0044391979
0.0024719452
0.00047527419
-0.0016279895
-0.0037570353
-0.005971474
-0.0082307363
-0.010563819
-0.012944921
-0.015383919
-0.017886776
-0.020433425
-0.023041289
-0.025673613
-0.028355971
-0.03108658
-0.033840905
-0.036624532
-0.039433795
-0.042238916
-0.045066696
-0.047879999
-0.050680709
-0.094101737
-0.093832392
-0.093360735
-0.092702735
-0.0918022
-0.090717317
-0.08941675
-0.08795356
-0.086304429
-0.084504262
-0.082544992
-0.080442367
-0.078210323
-0.075853492
-0.073381815
-0.070819497
-0.068166531
-0.065438844
-0.062643907
-0.05979562
-0.0569145
-0.053992845
-0.05105825
-0.048121178
-0.045168779
-0.042234615
-0.039313455
-0.036411225
-0.033551886
-0.030714292
-0.027926054
-0.025195205
-0.022494513
-0.019856522
-0.017268547
-0.01473956
-0.01227641
-0.0098657359
-0.007536908
-0.0052482297
-0.003060447
-0.00089258377
0.0011693844
0.0031917217
0.0051277128
0.0070102275
0.008813526
0.010559893
0.012219824
0.013828077
0.01534802
0.016816163
0.018197368
0.019518801
0.02076086
0.021940227
0.023035265
0.024067801
0.025011833
0.025903677
0.026697448
0.027437756
0.028071344
0.028675838
0.029153035
0.029601312
0.029911862
0.030195445
0.030340668
0.030464576
0.029764933
0.029638016
0.02948786
0.029196247
0.028877167
0.028413556
0.027920442
0.027304667
0.026650258
0.025885869
0.025068402
0.024152343
0.023180228
0.022120245
0.020992389
0.019781434
0.018503219
0.017144893
0.015721607
0.014215082
0.012648901
0.010999853
0.0092909493
0.0074965945
0.0056421478
0.003706708
0.0017139733
-0.000364846
-0.0024926619
-0.0047154414
-0.0069725514
-0.0093351723
-0.011737338
-0.014230556
-0.016774522
-0.019389317
-0.022060499
-0.024790633
-0.027585842
-0.030417739
-0.033316381
-0.036255044
-0.039230591
-0.042254637
-0.045295363
-0.048358763
-0.051435451
-0.054502911
-0.057574701
-0.060631756
-0.063648503
-0.066638033
-0.069567051
-0.072436442
-0.075223809
-0.077918256
-0.08051425
-0.082992911
-0.085345257
-0.0875592
-0.0896239
-0.091522645
-0.093259362
-0.094804057
-0.09617354
-0.097320756
-0.098269808
-0.098964822
-0.099460375
-0.099742918
-0.10576371
-0.10546261
-0.10493895
-0.10420583
-0.10320765
-0.10199425
-0.10054784
-0.098916703
-0.097088334
-0.095084839
-0.092913852
-0.090582692
-0.08810925
-0.085500758
-0.08277018
-0.079935192
-0.077013008
-0.074001466
-0.070936369
-0.067802801
-0.06464398
-0.061449952
-0.058237039
-0.055030942
-0.051825965
-0.048631198
-0.045471755
-0.042326731
-0.03923269
-0.036180093
-0.033174495
-0.030234767
-0.027347233
-0.024516801
-0.021760062
-0.019055105
-0.016433886
-0.013864112
-0.011392047
-0.00895914
-0.0066309313
-0.0043453041
-0.0021567749
-2.0409434e-05
0.002029519
0.0040182961
0.0059232426
0.007766694
0.0095246234
0.011220243
0.01282975
0.014378172
0.015840571
0.017236632
0.018550629
0.019794632
0.020954253
0.022046828
0.023046187
0.023988131
0.02482943
0.025614664
0.026290181
0.026922404
0.027429865
0.027903799
0.028234272
0.028532622
0.028687895
0.028817629
0.02759106
0.027457862
0.027297252
0.026991145
0.026650288
0.026161926
0.025637171
0.024989352
0.024289602
0.023483219
0.022617004
0.021652497
0.020623662
0.019502627
0.01831034
0.017033953
0.015683147
0.014249576
0.012745445
0.011156076
0.0095006878
0.0077599194
0.0059526896
0.0040628363
0.0021063166
6.3174062e-05
-0.0020435526
-0.0042375243
-0.0064902354
-0.0088373502
-0.011234987
-0.01373297
-0.016285385
-0.018930915
-0.02163515
-0.024423718
-0.027271625
-0.030193503
-0.033181668
-0.0362303
-0.039348481
-0.042503731
-0.045717258
-0.04898176
-0.052269974
-0.055599146
-0.058938486
-0.062288861
-0.065645997
-0.068977708
-0.072285105
-0.075561861
-0.078775209
-0.081935657
-0.085003622
-0.087982777
-0.090849927
-0.093591077
-0.096192821
-0.09864338
-0.10093031
-0.10303791
-0.10496189
-0.10668336
-0.10820557
-0.10948236
-0.110533
-0.11130724
-0.11185793
-0.11217269
-0.11900787
-0.11867475
-0.11809361
-0.11727788
-0.11617433
-0.11482615
-0.11322481
-0.11141136
-0.10938839
-0.10717024
-0.1047665
-0.1021885
-0.099454761
-0.09657348
-0.09356582
-0.090439204
-0.087224934
-0.083915147
-0.080549167
-0.077119204
-0.073658198
-0.070174717
-0.06668154
-0.063181717
-0.059709518
-0.056246416
-0.052830422
-0.049438491
-0.046100994
-0.042821815
-0.039600261
-0.036443877
-0.033363235
-0.030339607
-0.027406068
-0.024529876
-0.021746373
-0.019025041
-0.01640192
-0.013831762
-0.011364207
-0.0089541989
-0.0066407139
-0.0043877208
-0.0022254171
-0.00012823441
0.001879269
0.0038199647
0.0056756618
0.0074646731
0.0091635453
0.010797435
0.012341285
0.013813066
0.015200261
0.016512982
0.017738465
0.01888966
0.019947856
0.020942059
0.021834132
0.022657181
0.023376683
0.024042942
0.024583396
0.025081843
0.025433751
0.025747348
0.025912919
0.026048444
0.024152444
0.02401374
0.023842739
0.023521081
0.023158183
0.022644115
0.022086864
0.021403236
0.020663954
0.019814095
0.0188974
0.017878046
0.016792112
0.015608879
0.014349464
0.013002508
0.0115794
0.010069164
0.0084838152
0.006809219
0.0050665413
0.0032293574
0.0013248772
-0.00066569649
-0.0027251364
-0.0048754731
-0.007095093
-0.0094071795
-0.011782062
-0.014258312
-0.016795165
-0.019427814
-0.022130732
-0.024923757
-0.027793925
-0.030749306
-0.033777179
-0.036889207
-0.040074664
-0.043339825
-0.046674319
-0.050063779
-0.053525587
-0.057039529
-0.060592668
-0.064189046
-0.067804619
-0.071448802
-0.07509166
-0.078730339
-0.082344303
-0.085925389
-0.08945037
-0.092914333
-0.096283867
-0.099562135
-0.10271808
-0.10574214
-0.10861145
-0.1113162
-0.11384343
-0.11617369
-0.11830043
-0.1202072
-0.12188871
-0.12330771
-0.12446743
-0.12532627
-0.12593659
-0.12628701
-0.1340454
-0.13367611
-0.13303304
-0.13212788
-0.1309111
-0.1294177
-0.12765499
-0.12565078
-0.12341564
-0.12096683
-0.11831718
-0.11547795
-0.11247083
-0.10929932
-0.10599566
-0.10256195
-0.099036179
-0.095413799
-0.091728025
-0.087984956
-0.084214061
-0.080417404
-0.076627353
-0.072831905
-0.069072957
-0.065339056
-0.061655602
-0.058010071
-0.054424607
-0.050910751
-0.047471368
-0.04410174
-0.040818898
-0.037607679
-0.034490817
-0.031449123
-0.028499537
-0.025626862
-0.022854894
-0.020148184
-0.017550338
-0.015008868
-0.01257266
-0.010201771
-0.0079244164
-0.0057185334
-0.0036052391
-0.0015607108
0.00038224108
0.0022686649
0.0040557085
0.005773624
0.0073997953
0.0089508516
0.010412917
0.011797437
0.013084509
0.014299024
0.015416812
0.016463817
0.0174057
0.018275678
0.019036996
0.019737909
0.020311363
0.020837272
0.021212328
0.021542214
0.02171864
0.021861685
0.019128861
0.018981349
0.01879866
0.018460533
0.018073551
0.017532163
0.016940828
0.016221471
0.015438508
0.014542177
0.013575104
0.012501525
0.011354445
0.010110187
0.0087834076
0.0073660452
0.0058652955
0.0042772285
0.0026077666
0.00084966093
-0.00098452898
-0.0029103696
-0.0049085595
-0.0070017137
-0.0091681322
-0.011426475
-0.013761015
-0.016188814
-0.018685046
-0.021289399
-0.023956971
-0.026730772
-0.029579989
-0.032522644
-0.035557754
-0.038680914
-0.041891861
-0.045190735
-0.048579225
-0.052053309
-0.055607426
-0.059232248
-0.062942887
-0.066703433
-0.070527425
-0.074403362
-0.078314189
-0.082254689
-0.086203179
-0.090156895
-0.094087611
-0.097991118
-0.10184283
-0.10562417
-0.10931371
-0.11290443
-0.11636342
-0.11968455
-0.12283386
-0.12580838
-0.12858775
-0.13115379
-0.13349495
-0.13559582
-0.13744534
-0.13901556
-0.14029202
-0.14124407
-0.14191755
-0.14230194
-0.15109648
-0.15068908
-0.14998592
-0.14898648
-0.14765009
-0.14600581
-0.1440689
-0.14186645
-0.139412
-0.13672292
-0.13381457
-0.13069547
-0.12740449
-0.12392963
-0.12032002
-0.11656693
-0.11271245
-0.10876496
-0.10475361
-0.10068082
-0.096588829
-0.092473814
-0.088369977
-0.084275214
-0.080219127
-0.076207042
-0.072248797
-0.068351307
-0.064526236
-0.060778031
-0.057116102
-0.053537631
-0.050053124
-0.046655404
-0.043357554
-0.040146226
-0.037035369
-0.034010875
-0.031093062
-0.028245774
-0.025522259
-0.022853848
-0.020298044
-0.017814311
-0.015424463
-0.013112148
-0.010894409
-0.0087503887
-0.006707263
-0.0047316566
-0.0028533399
-0.0010490972
0.00066125205
0.0022896485
0.0038289199
0.0052832591
0.0066420042
0.0079186394
0.0090980616
0.01020136
0.011197142
0.012114258
0.01291982
0.013658201
0.014266309
0.014818282
0.015216764
0.015563225
0.015752795
0.015904325
0.012131144
0.01197725
0.011779642
0.011423952
0.011013053
0.010443634
0.0098178472
0.0090600159
0.00823256
0.0072882339
0.0062667144
0.0051357132
0.0039270775
0.0026183252
0.0012192108
-0.00026957476
-0.0018468882
-0.0035146203
-0.0052682326
-0.0071136674
-0.0090394258
-0.01105649
-0.0131547
-0.015345789
-0.017614039
-0.019979839
-0.022423267
-0.024962387
-0.027580533
-0.030303949
-0.03309795
-0.036009778
-0.039003016
-0.04209696
-0.045289862
-0.048583005
-0.051969325
-0.055456198
-0.059039582
-0.062722245
-0.066495277
-0.070354313
-0.074308061
-0.078327852
-0.082420085
-0.086575918
-0.090782378
-0.095025644
-0.099289099
-0.10356328
-0.10782043
-0.11205522
-0.11623616
-0.1203498
-0.12436793
-0.12827952
-0.13205372
-0.13568032
-0.13912195
-0.14237985
-0.14542189
-0.14823408
-0.15079914
-0.15310057
-0.15512574
-0.15684686
-0.15824284
-0.1592899
-0.16002326
-0.16044421
-0.17038919
-0.16994428
-0.16918483
-0.1680932
-0.16663603
-0.16484047
-0.16272246
-0.16031729
-0.15764153
-0.15470424
-0.15153333
-0.14813383
-0.14454292
-0.14076076
-0.13683089
-0.13275234
-0.12856608
-0.12428327
-0.11993973
-0.11553338
-0.11111518
-0.10667728
-0.10226079
-0.097863417
-0.093514399
-0.089217215
-0.084986421
-0.080830683
-0.07676574
-0.072781297
-0.068908034
-0.065118206
-0.061445887
-0.057861629
-0.054398386
-0.05101931
-0.047755329
-0.044584224
-0.041527863
-0.038549044
-0.03569557
-0.03290906
-0.030232637
-0.027635609
-0.025138758
-0.02272073
-0.0204045
-0.018162584
-0.01602014
-0.013953469
-0.011983964
-0.010092758
-0.0082979354
-0.0065891806
-0.0049708932
-0.0034430334
-0.0020126696
-0.00067062407
0.00056977774
0.0017316138
0.0027822314
0.0037497945
0.0045999024
0.0053769897
0.0060204807
0.0066016446
0.0070251018
0.0073895316
0.0075948327
0.0077519358
0.0027025883
0.0025407258
0.0023288815
0.0019550099
0.0015193361
0.00092044501
0.00025796622
-0.00053868194
-0.0014116028
-0.0024067058
-0.0034829526
-0.004674583
-0.0059471877
-0.0073230948
-0.008794171
-0.010357507
-0.012014107
-0.013763568
-0.015602021
-0.017535079
-0.019551886
-0.021660835
-0.023856279
-0.026142302
-0.028511108
-0.030979027
-0.03353142
-0.036181464
-0.038919211
-0.041759853
-0.044681869
-0.047717665
-0.050846991
-0.054081517
-0.057425369
-0.060877094
-0.064427107
-0.06809353
-0.071863756
-0.075748958
-0.079733925
-0.083823031
-0.088013753
-0.09229227
-0.096655793
-0.10108459
-0.10558284
-0.11012972
-0.11470679
-0.11930254
-0.12388845
-0.12845442
-0.13296745
-0.13742001
-0.1417745
-0.14601279
-0.1501068
-0.1540393
-0.15778043
-0.16131717
-0.16462309
-0.16768017
-0.17046702
-0.1729731
-0.17517728
-0.17704795
-0.1785637
-0.1797027
-0.18049639
-0.18095853
-0.19217818
-0.1917005
-0.19087755
-0.18969341
-0.18811605
-0.18616892
-0.18387659
-0.18127077
-0.17837579
-0.17519547
-0.1717644
-0.1680878
-0.16420145
-0.16011752
-0.15586634
-0.15145888
-0.14694167
-0.14232325
-0.13764631
-0.13291175
-0.12816601
-0.12341204
-0.11868351
-0.11398611
-0.10934583
-0.10477473
-0.10028729
-0.095877593
-0.091581685
-0.087374712
-0.08329281
-0.079304739
-0.075450557
-0.071691855
-0.068069617
-0.064535462
-0.061127206
-0.057818609
-0.054632314
-0.051530074
-0.048552552
-0.04565839
-0.042867611
-0.040162758
-0.037559092
-0.035039284
-0.032623753
-0.030285135
-0.028045841
-0.025887477
-0.023825868
-0.021847653
-0.019967187
-0.018177055
-0.016479909
-0.014876368
-0.013370955
-0.011960902
-0.010657329
-0.0094335418
-0.0083273709
-0.0073077447
-0.0064109294
-0.0055931604
-0.0049114691
-0.0043017543
-0.0038534183
-0.0034702487
-0.0032534178
-0.0030842338
-0.0096830209
-0.0098587359
-0.010081293
-0.010474715
-0.010935831
-0.011565711
-0.012265498
-0.013102657
-0.014023332
-0.015072122
-0.016204464
-0.01745929
-0.01879774
-0.020243132
-0.021788594
-0.023427746
-0.025163945
-0.026995394
-0.028918091
-0.03093834
-0.033046262
-0.035250526
-0.037540653
-0.039923223
-0.042390813
-0.04495944
-0.047615245
-0.050370296
-0.053214873
-0.056165223
-0.059206114
-0.06235797
-0.065615707
-0.068978654
-0.072463104
-0.076061569
-0.079768895
-0.083602459
-0.087548914
-0.091622433
-0.095810017
-0.10011313
-0.10453044
-0.10905286
-0.11366859
-0.11836694
-0.12314643
-0.12798626
-0.13286547
-0.13777225
-0.14267959
-0.14756858
-0.15241204
-0.1571924
-0.16187247
-0.16642852
-0.17083927
-0.17507509
-0.17910572
-0.18291471
-0.18647574
-0.18977044
-0.19277347
-0.19547646
-0.1978507
-0.19987078
-0.20150431
-0.20273288
-0.20358792
-0.204088
-0.21670226
-0.2161919
-0.21530726
-0.2140364
-0.21234768
-0.2102576
-0.20780029
-0.20500664
-0.20190075
-0.19849243
-0.19481077
-0.19086936
-0.18670001
-0.18231662
-0.17776001
-0.17304453
-0.16821643
-0.1632792
-0.15827863
-0.1532301
-0.1481748
-0.14311711
-0.1380922
-0.13311177
-0.12819734
-0.12336423
-0.11863545
-0.11399341
-0.10947817
-0.10506638
-0.10079211
-0.096624376
-0.092603765
-0.088686548
-0.084915142
-0.081241982
-0.077698382
-0.074268814
-0.070959354
-0.067748235
-0.064656037
-0.061653434
-0.058756609
-0.055951581
-0.053248172
-0.050629229
-0.048115005
-0.045680537
-0.043345902
-0.041093821
-0.038941528
-0.036876362
-0.034912691
-0.033039845
-0.031264238
-0.029583602
-0.028002917
-0.026521446
-0.025150921
-0.023862673
-0.022700068
-0.021625736
-0.020680078
-0.019820863
-0.01910061
-0.018459059
-0.017984699
-0.017581256
-0.017352133
-0.017171147
-0.025631481
-0.025817458
-0.026054465
-0.026468274
-0.026956456