/*--------------------------------*- C++ -*----------------------------------*\
| =========                 |                                                 |
| \\      /  F ield         | OpenFOAM: The Open Source CFD Toolbox           |
|  \\    /   O peration     | Version:  v2012                                 |
|   \\  /    A nd           | Website:  www.openfoam.com                      |
|    \\/     M anipulation  |                                                 |
\*---------------------------------------------------------------------------*/
FoamFile
{
    version     2.0;
    format      ascii;
    class       volScalarField;
    location    "100";
    object      k;
}
// * * * * * * * * * * * * * * * * * * * * * * * * * * * * * * * * * * * * * //

dimensions      [0 2 -2 0 0 0 0];


internalField   nonuniform List<scalar> 
19523
(
0.36907435
0.36910909
0.37226928
0.37221258
0.3722591
0.37222588
0.37227944
0.37224318
0.37227145
0.37225888
0.37226374
0.37226374
0.37225888
0.37227145
0.37224318
0.37227944
0.37222589
0.37225911
0.37221259
0.37226926
0.37224192
0.37230732
0.37227237
0.37230427
0.37228839
0.37229194
0.37228672
0.37228523
0.37228438
0.37228439
0.37228448
0.37228461
0.37228471
0.37228478
0.37228482
0.37230747
0.37230711
0.37230618
0.37230064
0.37229438
0.37228931
0.37228657
0.37228651
0.37228771
0.37229272
0.37228897
0.37230468
0.37227265
0.37230747
0.37224199
0.36910018
0.36914873
0.36912543
0.36915325
0.36914351
0.36914622
0.36914156
0.36913966
0.36913958
0.36914252
0.36914798
0.36915455
0.36916003
0.36916161
0.36916247
0.28877483
0.29097891
0.29318412
0.29540353
0.29764473
0.29991005
0.30219634
0.30449537
0.30679293
0.30907456
0.31132744
0.31355178
0.31577365
0.31803573
0.3203731
0.32280695
0.32534418
0.32798202
0.33071314
0.33352928
0.33642348
0.33939151
0.34243271
0.34555085
0.34875301
0.35204749
0.35543186
0.35889411
0.36237221
0.36581242
0.36579103
0.36581297
0.3657974
0.36581708
0.36581297
0.36581468
0.36581099
0.36580898
0.36580906
0.36581233
0.36581831
0.36582536
0.36583116
0.36583356
0.36583525
0.40048795
0.40446662
0.41037558
0.41036418
0.40956271
0.40886804
0.40700103
0.40571714
0.4019941
0.39829469
0.39587593
0.39810414
0.40350897
0.40055115
0.39802986
0.40012089
0.40558878
0.40598856
0.40986216
0.41665673
0.42266268
0.42984731
0.43980965
0.4492644
0.4587757
0.46813612
0.4779379
0.48930953
0.50090464
0.51230385
0.52321465
0.53397234
0.54434494
0.5545689
0.56456182
0.5743535
0.58403343
0.59446142
0.60442686
0.61858283
0.62662809
0.63166118
0.63221802
0.62932676
0.63057104
0.60915972
0.5729953
0.56649716
0.53039076
0.48433871
0.4546962
0.41318423
0.37070366
0.35312703
0.34413701
0.33937396
0.33626802
0.33522294
0.33587013
0.33766799
0.34008008
0.34282556
0.34577637
0.34887639
0.35210334
0.35544631
0.35888602
0.3623764
0.33676949
0.3367159
0.33666713
0.33662306
0.33658359
0.33654863
0.33651815
0.33649215
0.33647058
0.33645313
0.33643895
0.33642657
0.33641442
0.33640243
0.33639286
0.33639067
0.33639481
0.33640017
0.33640254
0.33938791
0.34243697
0.34555797
0.3487604
0.3520592
0.35544009
0.35891795
0.36236344
0.36581448
0.36904528
0.36910913
0.36581273
0.36237313
0.35889606
0.35543523
0.35205238
0.34875899
0.34555654
0.34243522
0.33938555
0.33937839
0.33937229
0.33937285
0.33938122
0.33939116
0.33940037
0.33940879
0.33941805
0.33942964
0.33944436
0.33946249
0.33948408
0.33950913
0.33953771
0.3395699
0.33960581
0.33964556
0.34258008
0.34255449
0.34253171
0.34251162
0.34249417
0.34247929
0.34246701
0.34245731
0.34244998
0.34244432
0.34243886
0.34243188
0.34242355
0.34241607
0.34241724
0.34242565
0.34554323
0.34553197
0.3455287
0.34553543
0.34554227
0.34554744
0.34555059
0.34555359
0.34555782
0.34556392
0.34557197
0.34558192
0.34559371
0.34560738
0.34562298
0.34564058
0.34879277
0.34878115
0.34877087
0.3487619
0.3487542
0.34874779
0.34874274
0.3487392
0.34873719
0.34873623
0.34873499
0.34873143
0.34872614
0.34872002
0.34872579
0.3487403
0.35202616
0.35200902
0.35200067
0.35200656
0.35201018
0.35201229
0.35201185
0.35201124
0.35201163
0.3520134
0.35201636
0.35202032
0.35202513
0.35203076
0.35203723
0.35539561
0.35539178
0.35538844
0.35538559
0.3553833
0.35538172
0.35538114
0.35538186
0.35538366
0.35538553
0.35538459
0.3553827
0.35537615
0.35538672
0.35540391
0.35885928
0.35884712
0.35883495
0.35884366
0.35884382
0.3588441
0.35884112
0.35883854
0.35883714
0.35883701
0.35883772
0.35883896
0.35884054
0.35884238
0.35884448
0.36234119
0.36234014
0.36233922
0.36233841
0.36233779
0.36233755
0.36233801
0.36233971
0.36234263
0.36234637
0.362346
0.36234774
0.3623349
0.36234829
0.36234722
0.36579119
0.36581287
0.36579694
0.36581617
0.36581153
0.36581265
0.36580831
0.36580543
0.36580375
0.36580327
0.36580333
0.36580363
0.36580402
0.36580444
0.3658049
0.36913616
0.36913603
0.36913584
0.36913564
0.36913545
0.3691354
0.36913567
0.36913708
0.36913956
0.36914466
0.36914234
0.36915245
0.36912493
0.36914848
0.36910011
0.3690399
0.37222883
0.37224715
0.37221741
0.37218816
0.37217083
0.37223875
0.37223149
0.3722449
0.37224307
0.37224342
0.37224033
0.37223845
0.3722374
0.37223708
0.37223703
0.37223709
0.37223716
0.37223721
0.37223728
0.37217423
0.37217414
0.37217408
0.37217401
0.372174
0.37217415
0.37217466
0.37217586
0.37217792
0.3721802
0.37218042
0.3721764
0.37216886
0.37212372
0.37212705
0.37215644
0.37221187
0.3722004
0.37214739
0.37211605
0.37211317
0.37212172
0.37213149
0.37213682
0.37213687
0.37213458
0.37213245
0.37213118
0.3721306
0.37213043
0.37213044
0.37213052
0.37213063
0.37213074
0.37212105
0.37212089
0.37212074
0.37212063
0.37212059
0.37212074
0.3721213
0.37212261
0.37212486
0.37212736
0.37212739
0.37213751
0.37213192
0.37212287
0.37212466
0.37215505
0.37221206
0.37221404
0.37216313
0.37213463
0.37213356
0.37214271
0.37214813
0.37214756
0.3721372
0.37213445
0.37213207
0.37213074
0.3721302
0.37213009
0.37213018
0.37213034
0.37213054
0.37213076
0.37214113
0.37214085
0.3721406
0.37214039
0.37214026
0.37214032
0.37214083
0.37214217
0.37214464
0.37214917
0.37215217
0.37215286
0.37214756
0.37213843
0.37213927
0.37216702
0.37221741
0.37221739
0.37216703
0.37213931
0.37213848
0.37214761
0.37215293
0.37215226
0.37214928
0.37214681
0.37214667
0.37214535
0.37214487
0.37214483
0.37214501
0.37214526
0.37214556
0.37214589
0.37214628
0.3721459
0.37214556
0.37214528
0.37214507
0.37214507
0.37214551
0.37214138
0.37214262
0.37214499
0.37214784
0.37214834
0.37214286
0.37213366
0.37213469
0.37216316
0.37221405
0.37221208
0.37215509
0.37212476
0.37212303
0.37213216
0.37213786
0.37213765
0.37213502
0.37213282
0.37213195
0.37213166
0.37214096
0.37214098
0.3721412
0.37214151
0.37214187
0.37214227
0.37213303
0.37213263
0.37213226
0.37213195
0.37213172
0.37212446
0.37212412
0.37212309
0.37212361
0.37212562
0.37212796
0.37212784
0.37212205
0.37211338
0.37211618
0.37214745
0.37220042
0.37221188
0.37215651
0.3721272
0.37212397
0.37213187
0.37213735
0.37213758
0.37213548
0.37213362
0.37213324
0.3721352
0.37213796
0.37213868
0.37212475
0.37212506
0.37212542
0.37212581
0.37213979
0.37213941
0.37213904
0.37218764
0.37218688
0.37218359
0.37217905
0.37217685
0.37217712
0.37217889
0.37218099
0.37218099
0.37217682
0.37216913
0.37217099
0.37218823
0.37221742
0.37224717
0.3722289
0.37223891
0.37223177
0.37224532
0.37224365
0.37224423
0.37224132
0.37223973
0.37223961
0.37224203
0.37224694
0.37225278
0.37225536
0.37225589
0.37218803
0.3721884
0.37225625
0.36905561
0.33398059
0.33391076
0.33384666
0.33378819
0.33373525
0.33368781
0.33364589
0.33360955
0.33357884
0.33355347
0.33353263
0.33351486
0.33349866
0.33348386
0.33347251
0.33346852
0.33347075
0.33347455
0.33347657
0.33060731
0.32779287
0.32503144
0.32232083
0.31965852
0.31704148
0.31446634
0.31192975
0.30942851
0.30695986
0.30452148
0.30211164
0.29972856
0.29737046
0.29503451
0.29271647
0.29041049
0.28810795
0.28579746
0.28675078
0.28650068
0.28628187
0.28608553
0.28592703
0.28581969
0.28577604
0.28809769
0.28814148
0.28823918
0.2883827
0.2885629
0.28877039
0.28900867
0.28926921
0.2895451
0.28981894
0.29008143
0.29031833
0.29053595
0.29073126
0.29091465
0.29108452
0.29125127
0.29141929
0.29159271
0.29176364
0.29388043
0.29371542
0.29355005
0.29338974
0.29323097
0.29306926
0.29289729
0.29271428
0.29250972
0.29228539
0.29203721
0.29177522
0.29151105
0.29126073
0.29103386
0.29083684
0.2906704
0.29053968
0.29045069
0.29040841
0.29271977
0.29276039
0.29284157
0.29296073
0.29311552
0.29330234
0.29351966
0.2937602
0.29401458
0.29426714
0.29450541
0.29471999
0.29491394
0.29508763
0.29525002
0.2954039
0.29555552
0.29570844
0.29586574
0.29602409
0.29820703
0.29805551
0.29790579
0.2977596
0.29761417
0.29746658
0.29731143
0.29714414
0.29695735
0.296749
0.29651719
0.29627119
0.29602446
0.29579254
0.29558402
0.29540677
0.29526244
0.29515361
0.29507959
0.29504145
0.2973795
0.2974152
0.29748218
0.29758182
0.29771643
0.29788436
0.29808394
0.29830837
0.29854876
0.29879027
0.29901865
0.29922419
0.29940752
0.2995713
0.29972204
0.2998653
0.30000604
0.3001468
0.30029023
0.30043569
0.30270979
0.30256915
0.30243005
0.30229271
0.30215456
0.30201332
0.30186408
0.30170101
0.30151803
0.30131273
0.30108583
0.30084792
0.30061348
0.30039663
0.30020634
0.30004791
0.29992286
0.29983173
0.29977145
0.29973868
0.3021219
0.3021515
0.30220543
0.30228816
0.30240329
0.30255141
0.30273155
0.30293945
0.30316684
0.3034006
0.30362625
0.30383253
0.30401712
0.30418204
0.30433268
0.30447457
0.30461245
0.30474888
0.30488606
0.30502425
0.30736943
0.30723104
0.30709292
0.3069546
0.30681412
0.30666888
0.30651448
0.30634604
0.30615915
0.30595249
0.30572986
0.30550274
0.3052851
0.30508862
0.30492051
0.30478392
0.30467926
0.30460513
0.30455751
0.30453136
0.30696888
0.30699154
0.30703285
0.30709816
0.30719171
0.30731536
0.30746919
0.30765104
0.30785513
0.30807152
0.30828744
0.30849185
0.30867982
0.30885169
0.30901066
0.30916087
0.30930615
0.30944898
0.309591
0.30973271
0.31195499
0.31180726
0.31165852
0.31150744
0.31135194
0.311189
0.31101543
0.31082927
0.31063124
0.31042683
0.31022603
0.3100396
0.30987555
0.30973818
0.30962876
0.30954685
0.3094905
0.30945544
0.30943635
0.31193623
0.31195178
0.3119807
0.31202815
0.31209818
0.31219256
0.31231189
0.31245557
0.31262079
0.3128016
0.3129895
0.31317603
0.31335597
0.31352771
0.31369208
0.31385117
0.31400717
0.31416165
0.31431551
0.31667142
0.31651312
0.31635518
0.31619716
0.31603805
0.31587645
0.31571127
0.31554252
0.31537222
0.31520497
0.3150474
0.31490567
0.31478373
0.31468311
0.31460385
0.31454547
0.31450659
0.31448353
0.31447141
0.31704517
0.31705409
0.31707173
0.31710266
0.31715013
0.31721497
0.31729738
0.31739766
0.31751532
0.31764814
0.31779205
0.31794232
0.31809523
0.31824882
0.31840259
0.31855691
0.31871245
0.31886975
0.31902885
0.32140045
0.32124547
0.32109413
0.32094648
0.3208023
0.32066135
0.32052369
0.32038995
0.32026181
0.320142
0.3200336
0.31993896
0.31985895
0.31979327
0.31974147
0.3197037
0.31967979
0.31966697
0.31966093
0.3223221
0.32232562
0.32233428
0.32235223
0.32238178
0.32242237
0.32247343
0.32253547
0.32260932
0.32269509
0.32279173
0.32289745
0.32301047
0.3231295
0.32325389
0.32338344
0.3235182
0.32365823
0.32380346
0.32625663
0.32612588
0.32600124
0.32588286
0.32577077
0.32566498
0.32556568
0.32547335
0.32538884
0.3253132
0.3252473
0.32519129
0.32514442
0.32510551
0.32507413
0.32505123
0.32503816
0.32503303
0.32503169
0.32779223
0.32779167
0.32779391
0.32780313
0.3278209
0.32784507
0.32787428
0.32790888
0.32795023
0.32799947
0.32805701
0.32812258
0.32819565
0.32827574
0.32836255
0.32845597
0.32855601
0.32866266
0.32877585
0.331279
0.33119112
0.33110962
0.33103447
0.33096559
0.33090302
0.33084689
0.33079743
0.33075483
0.330719
0.33068926
0.33066424
0.33064248
0.33062374
0.33060974
0.33060348
0.33060365
0.3306059
0.33060053
0.33059963
0.33058517
0.33056856
0.33055778
0.330557
0.33056305
0.33057157
0.33058019
0.33058928
0.33060153
0.33062054
0.33064753
0.33067625
0.33069802
0.33070869
0.33352841
0.33642458
0.33939341
0.34243437
0.34555232
0.34875449
0.35205436
0.35543674
0.35891598
0.36236248
0.36581412
0.36904519
0.3690937
0.36579641
0.362356
0.35887972
0.35541863
0.35203595
0.34874291
0.34554201
0.34242467
0.33938364
0.33641486
0.33351849
0.33349864
0.33347382
0.33345316
0.33344196
0.33343715
0.33343412
0.33342985
0.33342406
0.33341951
0.33342115
0.33343328
0.33345182
0.33346803
0.33639327
0.33637515
0.33635466
0.33634145
0.33633958
0.33634353
0.33634784
0.33634946
0.33634863
0.33634864
0.33635482
0.33637195
0.33639524
0.3393629
0.33933934
0.33932376
0.3393207
0.33932366
0.33932682
0.33932665
0.33932299
0.33931908
0.33932077
0.33933501
0.33935768
0.33937811
0.34242702
0.34240354
0.34237819
0.34236274
0.34236142
0.34236553
0.34236906
0.34236853
0.34236409
0.34235944
0.34236066
0.34237616
0.34240144
0.34551444
0.3454862
0.34546965
0.34546944
0.34547485
0.34547986
0.34548062
0.345477
0.34547267
0.34547358
0.34549062
0.34551931
0.34554734
0.34874851
0.34871418
0.34868164
0.34866266
0.34866223
0.34866659
0.34867035
0.34866962
0.3486645
0.34865902
0.34865865
0.34867703
0.34870904
0.35199338
0.35195795
0.35193747
0.35193844
0.35194347
0.3519484
0.35194898
0.35194513
0.35194102
0.35194072
0.35196173
0.35199759
0.35204053
0.35542179
0.35537289
0.3553361
0.35531338
0.35531501
0.35531854
0.35532242
0.35532202
0.3553174
0.35531324
0.35531116
0.35533349
0.35536999
0.35882427
0.35879158
0.35876796
0.35877221
0.35877514
0.35877952
0.35877977
0.3587758
0.35877324
0.35876925
0.3587931
0.35882595
0.35888156
0.36235689
0.3623121
0.36229145
0.36226705
0.36227506
0.36227612
0.36228033
0.3622802
0.36227581
0.36227456
0.36226644
0.36229072
0.36231129
0.36575654
0.36575645
0.36573123
0.36574552
0.36574403
0.36574869
0.36574871
0.36574413
0.36574569
0.36573144
0.36575672
0.36575683
0.36579673
0.36909377
0.36907176
0.36910112
0.36907187
0.36909464
0.36908797
0.36909297
0.36909298
0.36908796
0.36909461
0.36907183
0.36910106
0.36907169
0.36902012
0.36895077
0.36890709
0.36889505
0.36890462
0.36891191
0.36891348
0.36891124
0.36890892
0.36890839
0.36891079
0.36891563
0.36891954
0.36892122
0.36892217
0.36892305
0.36665532
0.36809804
0.37391042
0.37268275
0.370059
0.3657127
0.36528463
0.36961121
0.36394241
0.35745493
0.35701933
0.36104225
0.3589492
0.36099015
0.36795606
0.37120252
0.37877442
0.38295027
0.39155019
0.39882591
0.40884807
0.41883882
0.42875916
0.4383306
0.44739778
0.45368732
0.46486476
0.47672148
0.48822749
0.49928677
0.50998377
0.52038596
0.53061219
0.54062378
0.55035398
0.55987851
0.56919397
0.57839366
0.58842712
0.59852896
0.61179828
0.61938202
0.6234189
0.62276592
0.61746403
0.61684659
0.59452566
0.55933795
0.54893553
0.50400626
0.46308346
0.42605822
0.39156125
0.36214348
0.34911461
0.34237091
0.34290411
0.33708232
0.33482503
0.33429326
0.33537843
0.33741096
0.3399409
0.3427474
0.34573149
0.34885027
0.35208805
0.35543737
0.35888081
0.3623734
0.36236971
0.3588751
0.35542842
0.35207386
0.3488274
0.345694
0.34268468
0.33983324
0.33721988
0.33502542
0.33362996
0.33371522
0.33551184
0.33974199
0.34599914
0.34947914
0.35358991
0.37410899
0.39944833
0.41578198
0.45828984
0.48977448
0.5313384
0.5425458
0.58061849
0.61062037
0.61172316
0.6197777
0.62163447
0.61901405
0.61222743
0.60526991
0.59351265
0.59085046
0.58001495
0.5708254
0.56187591
0.55267991
0.54311744
0.5334071
0.52352601
0.51332611
0.5029568
0.49227556
0.48138486
0.46986833
0.4576635
0.44561313
0.43425983
0.42314049
0.41205415
0.40003739
0.39010245
0.38213465
0.37407337
0.36956436
0.36184658
0.35886252
0.35216873
0.35173308
0.35265325
0.34612703
0.34986744
0.35532067
0.35995563
0.35265128
0.35760972
0.36145841
0.36378144
0.36436614
0.3567445
0.35845979
0.23291782
0.24250137
0.2443075
0.25375241
0.25417687
0.26361195
0.26777651
0.2559558
0.2489551
0.23860612
0.24041326
0.25481274
0.24413557
0.2363761
0.22821366
0.22132064
0.21383569
0.28835708
0.29056361
0.29277582
0.29500623
0.29726181
0.29954472
0.30185173
0.30417613
0.30650289
0.30881816
0.31111006
0.31337896
0.31564585
0.31794729
0.3203157
0.32277182
0.32532406
0.32797157
0.32795918
0.32530861
0.32275163
0.32028889
0.31791231
0.31560205
0.31332721
0.31105286
0.30875814
0.30644186
0.30411493
0.30179064
0.29948328
0.29719941
0.29494183
0.29270826
0.29049162
0.28827927
0.28815595
0.28796621
0.28770374
0.28739904
0.28708839
0.28680556
0.28656354
0.28635807
0.28618545
0.28603568
0.28590715
0.28581539
0.28577615
0.28809468
0.28812861
0.28820323
0.28830956
0.28843919
0.28859491
0.28878606
0.28901619
0.28929037
0.28959543
0.28990184
0.29017035
0.29036679
0.29258122
0.29238015
0.29210713
0.29179984
0.29150001
0.29123386
0.29101412
0.29083574
0.2906945
0.29058126
0.29049233
0.29043169
0.29040319
0.2927129
0.29273709
0.29278649
0.29286116
0.29296053
0.29308997
0.29325741
0.29346841
0.2937272
0.29402326
0.29433089
0.29460723
0.29481345
0.29706918
0.29685901
0.2965798
0.29627193
0.29597878
0.29572608
0.29552249
0.29536444
0.29524497
0.29515697
0.29509373
0.29505326
0.29503348
0.29737087
0.29738703
0.29742008
0.29747388
0.29755256
0.29766332
0.29781334
0.29801005
0.29825741
0.29854793
0.29885587
0.29913765
0.29935132
0.30165689
0.30144056
0.30115719
0.30085018
0.3005632
0.30032155
0.30013171
0.29998912
0.29988614
0.2998154
0.29976947
0.29974255
0.29972972
0.30211294
0.30212291
0.30214456
0.30218371
0.3022472
0.30234262
0.30247731
0.30265923
0.30289331
0.30317433
0.3034781
0.30376133
0.30397946
0.30630607
0.30608884
0.30580986
0.30551406
0.30524358
0.30502062
0.3048491
0.30472361
0.30463627
0.30457979
0.30454681
0.30452987
0.30452262
0.30696049
0.30696516
0.30697775
0.30700488
0.30705419
0.30713258
0.30724689
0.30740458
0.30761135
0.3078647
0.30814514
0.30841316
0.30862468
0.31092625
0.31072789
0.31048023
0.31022465
0.30999634
0.30981157
0.3096715
0.3095706
0.30950218
0.30946037
0.30943899
0.30943058
0.30942841
0.31192877
0.31192849
0.31193283
0.31194853
0.31198263
0.31204026
0.31212597
0.31224522
0.31240291
0.31259881
0.31282009
0.31303716
0.3132134
0.31550612
0.31535898
0.3151797
0.31499872
0.31483958
0.31471181
0.31461507
0.31454537
0.31449879
0.31447234
0.31446215
0.31446172
0.31446438
0.3170385
0.31703354
0.3170303
0.31703533
0.31705457
0.31709062
0.31714481
0.31721946
0.31731756
0.31743982
0.31757974
0.31771979
0.31783593
0.32023058
0.32014284
0.32003855
0.31993595
0.31984717
0.31977593
0.31972118
0.3196809
0.31965419
0.31964128
0.31964085
0.31964746
0.31965456
0.32231591
0.32230682
0.3222972
0.32229377
0.32230149
0.32232043
0.32234906
0.32238709
0.32243581
0.32249669
0.32256838
0.32264333
0.32270797
0.32527565
0.32522811
0.32517531
0.32512734
0.32508813
0.325057
0.32503207
0.3250125
0.32499953
0.32499579
0.32500234
0.32501458
0.32502556
0.32778609
0.32777335
0.3277588
0.32774983
0.32775078
0.32775953
0.3277725
0.3277878
0.32780596
0.32782929
0.32786011
0.32789736
0.32793329
0.32794565
0.32797102
0.32801869
0.32810576
0.32825175
0.32847972
0.32882006
0.3293029
0.32992567
0.33060476
0.33117659
0.33161248
0.33205661
0.33270884
0.33369462
0.33500889
0.33659866
0.33884943
0.34151918
0.34488748
0.34910002
0.35394908
0.51919306
0.53762027
0.55716364
0.57782364
0.59982931
0.62306233
0.64783704
0.67403144
0.70191144
0.73164293
0.76348213
0.7971076
0.83293794
0.87066808
0.91073086
0.95410566
1.0050644
1.0754348
1.1924095
1.2291113
1.1162688
0.76650685
0.576945
0.42185157
0.367817
0.3460507
0.33576787
0.33179643
0.33021852
0.33030328
0.33179953
0.33404506
0.33667177
0.3395103
0.34248532
0.34556514
0.34874041
0.35201283
0.35538418
0.35884194
0.36234359
0.3623441
0.36234804
0.36235496
0.36236298
0.35886658
0.35541696
0.3520578
0.34880407
0.34565883
0.34262973
0.33974426
0.3370705
0.33476372
0.33315825
0.33288323
0.33432825
0.3379052
0.34244716
0.34441575
0.35481857
0.35907205
0.36469987
0.40181236
0.39106479
0.42682604
0.44236519
0.46043335
0.48611813
0.53280986
0.51498495
0.48164037
0.44421646
0.4610312
0.47630985
0.49461031
0.4708977
0.47026767
0.45966503
0.46072753
0.50176725
0.54556947
0.56977598
0.57541274
0.57585753
0.60845518
0.62306361
0.61490965
0.61708246
0.61880835
0.61766484
0.61220374
0.60473627
0.59182416
0.58246522
0.57276783
0.56400524
0.55508844
0.54582945
0.53639259
0.52681066
0.51689641
0.50675596
0.49633729
0.48574739
0.47497854
0.46385971
0.45244674
0.44108167
0.42988785
0.4186632
0.40757939
0.39736706
0.3878017
0.38093666
0.37214455
0.3660671
0.35821115
0.35446932
0.34692666
0.34507976
0.34467413
0.33765353
0.3393282
0.3428125
0.3478272
0.34036575
0.34511652
0.34967818
0.35327566
0.35561363
0.34773705
0.34921717
0.35072306
0.53095788
0.55089992
0.57216208
0.59474081
0.6187407
0.64434594
0.67168994
0.70092534
0.73225472
0.76579921
0.80174305
0.84033446
0.88199278
0.92739643
0.97937483
1.0386917
1.110518
1.2043775
1.3472966
1.3180629
1.3253393
1.2811358
1.3795551
1.4141857
1.3031955
1.2237507
0.93876853
0.83685065
0.61968265
0.50499935
0.39033007
0.36147632
0.34676325
0.34145129
0.33463953
0.33179996
0.33111074
0.33216358
0.33421171
0.33675339
0.33955267
0.3425085
0.34557839
0.34874821
0.35201742
0.35538677
0.35884324
0.35884832
0.3588568
0.35540443
0.35204115
0.34878117
0.3456261
0.34258101
0.33966872
0.33694902
0.33456175
0.33281793
0.33234326
0.33362988
0.3373518
0.34603366
0.3416614
0.34940892
0.35118603
0.36720375
0.37513383
0.38637633
0.41898049
0.43512705
0.44798898
0.48144857
0.52174755
0.53276786
0.55448816
0.58968917
0.61394002
0.61194756
0.61669054
0.61688863
0.61337518
0.60666896
0.5999953
0.58786834
0.58594543
0.57544123
0.56669475
0.55802887
0.54914594
0.53996024
0.53060076
0.52103444
0.51118784
0.5009983
0.49072086
0.48028334
0.46955389
0.45865894
0.44765585
0.43664414
0.42572076
0.41501606
0.40465628
0.39475392
0.38525899
0.37861898
0.36960925
0.36356794
0.35519135
0.35038401
0.34275767
0.33961098
0.33797332
0.33069723
0.33055603
0.33238697
0.33573564
0.3287068
0.33313129
0.33762382
0.34198908
0.34547846
0.33761096
0.33986404
0.34147039
0.34294588
0.4115941
0.42168444
0.4306557
0.43800967
0.44313314
0.44550733
0.44398488
0.43878313
0.42943481
0.41338343
0.37865275
0.34605423
0.33564811
0.33117671
0.32911782
0.32859045
0.32955782
0.33147185
0.33389739
0.33660199
0.33947603
0.342468
0.34555634
0.34873617
0.35201124
0.35538428
0.35884311
0.36234536
0.36234827
0.35884513
0.35538507
0.35201033
0.34873286
0.34554919
0.34245381
0.3394478
0.33654457
0.33377706
0.33121261
0.32898224
0.32733714
0.32666445
0.32734012
0.32939482
0.33384768
0.34266756
0.35194557
0.35807169
0.36053872
0.36102921
0.36030935
0.35899667
0.35702268
0.35443153
0.35126872
0.34759314
0.3434593
0.31758879
0.32022303
0.32267576
0.32494437
0.3270163
0.32887315
0.33047734
0.33170103
0.33231801
0.33208862
0.33065956
0.32838732
0.32607878
0.32468487
0.32428388
0.32497121
0.32649579
0.32858361
0.33102221
0.33368453
0.33649828
0.33942365
0.3424404
0.3455412
0.34872787
0.35200726
0.35538329
0.35884405
0.36234718
0.36234828
0.35884319
0.3553807
0.3520029
0.34872157
0.34553239
0.34242752
0.33940301
0.33646195
0.33361632
0.33088955
0.32832133
0.32597533
0.32394915
0.32237898
0.3213922
0.32097853
0.32092198
0.32068394
0.32004699
0.31900188
0.31764729
0.31605412
0.31428815
0.31242611
0.31047973
0.30845643
0.30636054
0.30418816
0.29658225
0.29866673
0.30071982
0.30275091
0.3047627
0.30675434
0.30871449
0.31060905
0.31240872
0.31408132
0.31558137
0.31689934
0.31815991
0.31960017
0.32133533
0.32337368
0.32566541
0.32815644
0.33080213
0.33356948
0.33643592
0.33938737
0.34241697
0.34552435
0.34871476
0.35199645
0.35537357
0.35883389
0.36233488
0.36234783
0.35884558
0.3553837
0.35200438
0.34872003
0.34552677
0.34241619
0.33938214
0.33642322
0.33354313
0.33075064
0.32805951
0.32548816
0.32305834
0.32079105
0.31869716
0.3167598
0.31491822
0.31306422
0.31113081
0.30911955
0.30705266
0.30494994
0.3028298
0.30071036
0.29859926
0.2964947
0.29439085
0.29227834
0.2899338
0.29210144
0.29426783
0.29644383
0.29863749
0.30085095
0.30307932
0.30531098
0.30753121
0.30972421
0.31187497
0.31398369
0.31608912
0.31825088
0.32051105
0.32289074
0.32539215
0.32800734
0.33072453
0.33353221
0.33642116
0.33938554
0.3424235
0.34553759
0.3487343
0.35202128
0.35540061
0.35885744
0.36234645
0.36223085
0.36219868
0.36218397
0.36219301
0.362196
0.36219712
0.36219483
0.36219305
0.36219358
0.3621977
0.36220501
0.3622132
0.36221913
0.36222254
0.36222549
0.44024109
0.45369335
0.45896641
0.47354849
0.47806954
0.49385864
0.4972183
0.51404391
0.51574762
0.53327067
0.53282197
0.55020227
0.54673542
0.56261863
0.55592061
0.56895251
0.5597283
0.56945216
0.55834153
0.55805183
0.52789406
0.44397683
0.38081581
0.3537018
0.35606872
0.37106286
0.39364524
0.41761276
0.41139582
0.3698218
0.35093199
0.35419434
0.34486806
0.3366913
0.33294659
0.3318177
0.33250988
0.33438502
0.33684544
0.33960507
0.34254012
0.34559855
0.34876174
0.35202688
0.3553936
0.35532463
0.35533555
0.35534783
0.35535836
0.35536675
0.35537538
0.53677437
0.55827364
0.58149878
0.60611223
0.63228329
0.66044388
0.69102103
0.72420079
0.76023091
0.79939185
0.84210479
0.88900984
0.94194125
1.001401
1.0666215
1.141657
1.2433459
1.3343158
1.4609693
1.4195978
1.5302457
1.6058384
1.5836856
1.4388402
1.3345264
1.3644759
1.3718907
1.2942735
1.2144162
1.0564061
0.79378607
0.57961081
0.5130769
0.4312836
0.37656305
0.38115158
0.35615309
0.35693747
0.35868868
0.36314643
0.39187311
0.40760335
0.39270054
0.39927643
0.41020321
0.45174307
0.45437078
0.47826216
0.52488276
0.50558732
0.45256254
0.45782529
0.47262892
0.49124737
0.47823018
0.44534628
0.47012238
0.46973444
0.45379655
0.49397296
0.53735865
0.56148475
0.56593015
0.57231843
0.60534403
0.62168634
0.61464081
0.61803084
0.61786716
0.61551323
0.61019043
0.60313794
0.5895361
0.57886229
0.57012967
0.56174353
0.55315974
0.54427896
0.53528886
0.52601039
0.5164372
0.50653613
0.49650204
0.48633778
0.47590136
0.46521921
0.45447759
0.44375595
0.43313826
0.42260686
0.41218769
0.40215795
0.39235964
0.38277882
0.37605412
0.36692078
0.36081463
0.35247535
0.34721453
0.33936793
0.33522053
0.33223487
0.32504805
0.32373517
0.32366808
0.32556821
0.31858046
0.32163956
0.32583703
0.33011453
0.33430789
0.32679154
0.33001186
0.33223365
0.33389124
0.33535325
0.52920633
0.55188313
0.57723033
0.60291236
0.63136781
0.66046903
0.69263311
0.72776457
0.76607809
0.80782145
0.85359056
0.90413867
0.96175397
1.0355179
1.1067976
1.1802672
1.2986482
1.3128655
1.3721791
1.4186994
1.4991625
1.5025519
1.6522183
1.6398982
1.4995783
1.5192371
1.4296486
1.4502409
1.455766
1.355877
1.3838296
1.385724
1.369271
1.2662727
1.2212431
1.0837849
0.87341343
0.94421236
1.090994
1.0471265
0.96350481
0.79594864
0.5533751
0.56527537
0.44911918
0.4576015
0.38182701
0.38318845
0.41289482
0.42131046
0.42835876
0.44564804
0.45528548
0.46431817
0.42855315
0.44123097
0.45956543
0.48728643
0.53296889
0.51065472
0.48189743
0.52284608
0.53405165
0.54787577
0.56851939
0.60312793
0.62257213
0.61768521
0.61880709
0.61777946
0.61346467
0.60645596
0.5938819
0.58443023
0.57510013
0.5668946
0.55855907
0.54999995
0.54137037
0.53229719
0.52295962
0.51339747
0.5035966
0.49354714
0.48334054
0.47285915
0.46226331
0.45169457
0.44117643
0.43068678
0.42022582
0.41001088
0.39997465
0.39021857
0.38065065
0.37346179
0.36454321
0.3582325
0.34978952
0.34440421
0.33642081
0.33163943
0.32785237
0.32052703
0.31791167
0.31672416
0.31673252
0.31005704
0.31186956
0.31481787
0.31877218
0.32284656
0.31565476
0.31940996
0.32250625
0.32470418
0.32629215
0.32773611
0.320188
0.29195998
0.29407027
0.29549228
0.29455814
0.29247747
0.29304235
0.29324443
0.29345779
0.2951119
0.2971746
0.29742323
0.29771563
0.29960929
0.29708476
0.29683901
0.29528523
0.29437631
0.29390049
0.29178622
0.29160548
0.29372892
0.29419564
0.29210283
0.29229065
0.29192061
0.29143418
0.29126621
0.29340469
0.29356511
0.29402215
0.29490362
0.29508741
0.29715756
0.2973512
0.29755413
0.29837974
0.29620622
0.29666703
0.29881347
0.29965106
0.30178848
0.30286153
0.30059854
0.30100369
0.30323724
0.30396664
0.30377447
0.30307455
0.30271464
0.30044699
0.29822267
0.29604252
0.29587922
0.29806715
0.30029782
0.30256993
0.30291676
0.30067565
0.30083719
0.29864221
0.29649058
0.29631695
0.29847532
0.29926338
0.29945232
0.30159363
0.3014087
0.30359219
0.30477763
0.30499903
0.30523954
0.30151027
0.29907627
0.30109668
0.30342818
0.30536701
0.30315126
0.30290986
0.30085373
0.29883172
0.30120833
0.29931193
0.29905833
0.29661659
0.29464441
0.29486764
0.29444893
0.292857
0.29268035
0.29174923
0.29385609
0.29473271
0.2945679
0.29369157
0.29324194
0.29109734
0.29090946
0.2930666
0.29351465
0.29139236
0.29157982
0.30165973
0.30346838
0.30744848
0.30919453
0.30874781
0.30310301
0.30130923
0.30104168
0.30282092
0.30843773
0.30675343
0.30703152
0.31518314
0.3156735
0.34087632
0.29679381
0.29681212
0.29686979
0.29698799
0.29886226
0.29642213
0.29625678
0.29428742
0.29414317
0.29251354
0.29233055
0.29439434
0.29648194
0.29664993
0.29681052
0.29697823
0.29614995
0.29572242
0.29791684
0.29776847
0.29556877
0.2959896
0.29815903
0.2983146
0.29908765
0.29892306
0.30107305
0.30123577
0.30052008
0.30015297
0.30242824
0.30228637
0.30000887
0.3003684
0.30261433
0.30276414
0.30342052
0.30325795
0.30309954
0.30246352
0.3021422
0.29986284
0.29761872
0.29541297
0.29524736
0.2974605
0.29970921
0.30199022
0.30230596
0.3000582
0.30021676
0.29800481
0.29583097
0.29566247
0.29784269
0.29860114
0.29876494
0.30091581
0.30075396
0.30293713
0.3040904
0.3042428
0.30440175
0.3045785
0.30249252
0.3026892
0.30063272
0.29860989
0.30095041
0.30285938
0.30312311
0.30505856
0.30701338
0.30732603
0.4438976
0.45113973
0.45800505
0.46827464
0.47776727
0.48691426
0.49672409
0.50661864
0.5228177
0.53492259
0.54441571
0.5541009
0.56462005
0.57463054
0.58619074
0.5965672
0.60686221
0.6172559
0.62772448
0.63857013
0.65144035
0.66938813
0.67575573
0.6796282
0.67720123
0.66694198
0.66286558
0.6275865
0.58137806
0.56566083
0.51935072
0.47656057
0.43456112
0.34955981
0.34762777
0.34766142
0.35395989
0.35798449
0.37501123
0.41362201
0.46125831
0.4826235
0.51070272
0.5659411
0.54590519
0.51655212
0.4704478
0.48794094
0.50394582
0.52705491
0.50119371
0.49881902
0.48640214
0.4893481
0.44642435
0.42637382
0.39271561
0.36587023
0.35748158
0.37637694
0.42229804
0.414504
0.46298294
0.47641683
0.51270191
0.53582949
0.58633139
0.60904871
0.61975844
0.6192863