/*--------------------------------*- C++ -*----------------------------------*\
| =========                 |                                                 |
| \\      /  F ield         | OpenFOAM: The Open Source CFD Toolbox           |
|  \\    /   O peration     | Version:  v2012                                 |
|   \\  /    A nd           | Website:  www.openfoam.com                      |
|    \\/     M anipulation  |                                                 |
\*---------------------------------------------------------------------------*/
FoamFile
{
    version     2.0;
    format      ascii;
    class       volScalarField;
    location    "100";
    object      p;
}
// * * * * * * * * * * * * * * * * * * * * * * * * * * * * * * * * * * * * * //

dimensions      [0 2 -2 0 0 0 0];


internalField   nonuniform List<scalar> 
19523
(
-0.17383231
-0.17307551
-0.17236396
-0.17419104
-0.17488523
-0.17634091
-0.17871484
-0.18209265
-0.18636739
-0.19138073
-0.19679995
-0.20234518
-0.20768883
-0.21256281
-0.21668028
-0.2198919
-0.22215191
-0.22352931
-0.22421704
-0.22311866
-0.2209021
-0.21724726
-0.21198386
-0.20508333
-0.1965974
-0.18676594
-0.17573702
-0.16369803
-0.15077957
-0.13710803
-0.12280097
-0.10797124
-0.092723257
-0.077152354
-0.061345026
0.11151706
0.081629168
0.052904287
0.025351199
-0.00099607088
-0.026071964
-0.049777428
-0.071986357
-0.092539004
-0.11127265
-0.12789076
-0.14218049
-0.15375003
-0.16256336
-0.16865859
-0.16929996
-0.16309369
-0.15418047
-0.14246324
-0.12808739
-0.11131849
-0.09241772
-0.071665161
-0.04925048
-0.0253406
-6.7375819e-05
0.026470565
0.0542099
0.083120882
0.11320125
-1.0439158
-1.1039443
-1.154719
-1.1946412
-1.2216887
-1.2325305
-1.225256
-1.1997073
-1.1540713
-1.0884442
-1.0035721
-0.90513341
-0.80215132
-0.70322294
-0.61339486
-0.53482064
-0.46788466
-0.41181984
-0.36533125
-0.32696456
-0.29533007
-0.26920555
-0.24757286
-0.2296211
-0.21473397
-0.20247661
-0.19256842
-0.18485741
-0.17917925
-0.17531111
-0.17142314
-0.16501308
-0.15578029
-0.1436508
-0.12879562
-0.11149146
-0.092037714
-0.070688426
-0.047666916
-0.023155619
0.0027030469
0.029808581
0.058103795
0.087571799
0.11822868
-4.2018267
-4.291833
-4.3182881
-4.3752137
-4.3948678
-4.4269544
-4.4580035
-4.5065245
-4.5228206
-4.5451572
-4.6336373
-4.6990779
-4.7303434
-4.7876838
-4.9189678
-4.9513674
-4.9784807
-5.0159482
-5.0633768
-5.1306248
-5.1705311
-5.274867
-5.3506061
-5.4298064
-5.433294
-5.5191966
-5.6029916
-5.4982171
-5.7628321
-5.6339161
-5.77483
-5.7656859
-5.7552263
-5.7406118
-5.7254322
-5.6766204
-5.5943954
-5.3232828
-5.4371191
-5.3805316
-5.2007132
-4.842238
-4.0094563
-3.7945104
-3.3415056
-1.799673
0.59309075
4.6105968
11.071015
9.362618
8.6116222
5.8441302
4.1278143
3.1220291
2.3567018
1.6437896
1.1738734
0.86856959
0.66524171
0.51860964
0.41023583
0.32920971
0.26804711
0.22162522
0.18639289
0.15992106
0.14056015
0.12705562
-0.36261272
-0.35935145
-0.35714905
-0.35610382
-0.35629814
-0.35778058
-0.360547
-0.36452507
-0.36956391
-0.37543615
-0.38185337
-0.38848841
-0.39499027
-0.4009991
-0.40617553
-0.41025717
-0.41314421
-0.41488546
-0.41570681
-0.38101613
-0.3499585
-0.32244273
-0.29834581
-0.27767661
-0.26039292
-0.24672613
-0.23650653
-0.22954754
-0.22552623
-0.22447156
-0.22858405
-0.23563158
-0.24588577
-0.2595699
-0.27675795
-0.29738565
-0.32145207
-0.34899026
-0.38010478
-0.37820258
-0.37504444
-0.37055361
-0.3648129
-0.35806734
-0.35063807
-0.34286089
-0.3350577
-0.32752618
-0.32053007
-0.3142839
-0.30894059
-0.30458852
-0.30125834
-0.2989342
-0.29756907
-0.2970984
-0.24390434
-0.24841715
-0.25368855
-0.25973617
-0.2665498
-0.27407913
-0.28222585
-0.29083926
-0.2997194
-0.30862738
-0.31729419
-0.32542718
-0.33271671
-0.33886288
-0.34363896
-0.34697953
-0.31936846
-0.31591226
-0.31095008
-0.30452516
-0.29684515
-0.28818881
-0.27884011
-0.26906398
-0.25910184
-0.24917027
-0.23945426
-0.23009987
-0.22121113
-0.21285258
-0.20505491
-0.19782476
-0.15873524
-0.16826339
-0.17818444
-0.18847233
-0.19908027
-0.2099335
-0.22092527
-0.23191545
-0.24273306
-0.25318107
-0.26304355
-0.27208053
-0.28003055
-0.28663796
-0.29173555
-0.29527153
-0.27463249
-0.27105422
-0.26587048
-0.25912061
-0.25097034
-0.24165096
-0.23139786
-0.22042916
-0.20894614
-0.1971216
-0.18511263
-0.17305261
-0.16104905
-0.14918386
-0.13751637
-0.11247106
-0.12553903
-0.13866463
-0.15177923
-0.16479592
-0.1776072
-0.19008511
-0.20208297
-0.21343864
-0.2239728
-0.23348698
-0.24176508
-0.24859482
-0.2538263
-0.25743161
-0.24371906
-0.24009069
-0.23482898
-0.22794799
-0.21958422
-0.2099355
-0.19920219
-0.18756733
-0.17519478
-0.16223443
-0.14882425
-0.13508741
-0.12113073
-0.10704459
-0.092904568
-0.078497239
-0.093406855
-0.10817932
-0.12273413
-0.13697869
-0.15080725
-0.16410131
-0.17673233
-0.18855917
-0.19942613
-0.20916303
-0.21758345
-0.22450098
-0.22978757
-0.23343846
-0.22634676
-0.22267038
-0.21738486
-0.21046907
-0.20203357
-0.1922507
-0.18130369
-0.16935715
-0.1565596
-0.14304581
-0.12894062
-0.11435948
-0.099407324
-0.084178184
-0.068755551
-0.06317816
-0.078890396
-0.094376885
-0.10955208
-0.12432117
-0.13857977
-0.15221458
-0.16510461
-0.17711986
-0.18811657
-0.19792901
-0.20637701
-0.21328784
-0.21855796
-0.2222342
-0.22164407
-0.22020541
-0.22244069
-0.22105427
-0.2188087
-0.21508038
-0.21652065
-0.21121082
-0.20423941
-0.19571049
-0.18580427
-0.17469934
-0.16256091
-0.14953075
-0.13573764
-0.1213017
-0.10633585
-0.090944496
-0.075222546
-0.059255839
-0.054889896
-0.071189116
-0.087225794
-0.10291498
-0.11816234
-0.13286377
-0.14690563
-0.160166
-0.17251491
-0.18380997
-0.19389023
-0.20257237
-0.2096762
-0.20711432
-0.2126679
-0.21648419
-0.21877116
-0.21551577
-0.21313805
-0.209174
-0.20340276
-0.19580261
-0.19980467
-0.1908697
-0.18049959
-0.16888141
-0.15617828
-0.14253336
-0.128078
-0.11293515
-0.097218865
-0.081033033
-0.064470882
-0.047615891
-0.03708584
-0.05475027
-0.072076711
-0.088984161
-0.1053811
-0.1211643
-0.13621925
-0.15042176
-0.16363856
-0.17572385
-0.18650997
-0.18087957
-0.19063266
-0.19860771
-0.20466452
-0.20882897
-0.21133303
-0.20640501
-0.20375401
-0.1993493
-0.19295112
-0.18452956
-0.17422902
-0.16226593
-0.16955598
-0.15686474
-0.14297975
-0.12805104
-0.11221458
-0.095596144
-0.07831047
-0.060459547
-0.042132276
-0.023405963
-0.0071041098
-0.027112007
-0.046644514
-0.065629373
-0.08398147
-0.10160076
-0.11837262
-0.1341696
-0.14885241
-0.14001238
-0.15423119
-0.16690649
-0.17781639
-0.18673473
-0.19351177
-0.19818035
-0.20099107
-0.19538251
-0.19240743
-0.1874637
-0.18028982
-0.17084962
-0.15929864
-0.14587325
-0.13080548
-0.11429229
-0.12443898
-0.10767165
-0.089853166
-0.071112652
-0.051564442
-0.031305324
-0.010415315
0.011039871
0.030114644
0.0071140431
-0.01522121
-0.036833053
-0.057648478
-0.077575753
-0.096500191
-0.085451583
-0.10426792
-0.12172099
-0.13763729
-0.15181163
-0.16400198
-0.17396183
-0.18153028
-0.18674794
-0.18988928
-0.18481733
-0.18151892
-0.17604349
-0.16810492
-0.15765754
-0.14486648
-0.12998777
-0.11327267
-0.094934901
-0.075151531
-0.054064905
-0.065421261
-0.044302375
-0.022205456
0.00077607786
0.024578556
0.049151534
0.06702239
0.040955509
0.015764338
-0.0085124339
-0.031816188
-0.020974465
-0.044211254
-0.066212626
-0.086840675
-0.10595406
-0.12336938
-0.1388648
-0.15218245
-0.16305431
-0.17131591
-0.17701908
-0.18046325
-0.17702541
-0.17346401
-0.16757982
-0.15906336
-0.14785434
-0.13412157
-0.11814068
-0.10018063
-0.08045791
-0.059153723
-0.036420523
-0.012393681
0.01282263
0.0033920226
0.028810447
0.055229802
0.082621246
0.095016032
0.066559542
0.039155026
0.046441276
0.019461506
-0.0063552025
-0.030939947
-0.054191167
-0.075973664
-0.096133902
-0.1144765
-0.13079173
-0.14480328
-0.15623315
-0.16492204
-0.17093608
-0.17458908
-0.17308183
-0.16937175
-0.16328502
-0.15450726
-0.14296811
-0.12879542
-0.11227958
-0.093695224
-0.073270091
-0.051195157
-0.027631139
-0.0027093226
0.023471313
0.050843866
0.079372051
0.074545106
0.10375915
0.10904591
0.11086423
-0.43695435
-0.4296086
-0.42346268
-0.41865397
-0.41530617
-0.41350801
-0.41329057
-0.41460582
-0.41731131
-0.42117079
-0.42587375
-0.43106455
-0.43636629
-0.4413996
-0.44581303
-0.44933193
-0.45183844
-0.45335338
-0.45405903
-0.49598232
-0.54124131
-0.58943026
-0.63992636
-0.69193192
-0.74427042
-0.79548874
-0.84432778
-0.88925937
-0.92881005
-0.96147629
-0.98621441
-1.0019616
-1.00812
-1.0060144
-0.99407272
-0.97276171
-0.94348167
-0.90717112
-0.97564182
-0.95841819
-0.94304907
-0.93014482
-0.92017538
-0.91322623
-0.90905438
-0.94572167
-0.9506846
-0.95895518
-0.97083824
-0.98626238
-1.0047078
-1.0254767
-1.0477366
-1.0706682
-1.0934161
-1.1151771
-1.135211
-1.153058
-1.1684613
-1.1813345
-1.1917732
-1.1999364
-1.2060593
-1.2103961
-1.2131954
-1.295594
-1.290667
-1.28406
-1.2755112
-1.2647432
-1.2514984
-1.2355929
-1.2169026
-1.1955306
-1.1717429
-1.1460986
-1.1194297
-1.0926945
-1.0668708
-1.0428868
-1.0216718
-1.0039942
-0.99040889
-0.98096996
-0.97531845
-0.99694599
-1.0031533
-1.0135251
-1.0284888
-1.0480132
-1.0715234
-1.098205
-1.1270595
-1.1570793
-1.1871881
-1.2163015
-1.2435183
-1.268183
-1.2900249
-1.3089231
-1.3250222
-1.3385198
-1.3496782
-1.3587889
-1.3661095
-1.4222484
-1.4122991
-1.4004858
-1.3865694
-1.3702142
-1.3511726
-1.3292853
-1.3044291
-1.2767551
-1.2465395
-1.2145239
-1.1816432
-1.1490557
-1.117893
-1.0891983
-1.0639994
-1.043123
-1.0271357
-1.016035
-1.0092931
-1.0112226
-1.0183503
-1.0299952
-1.046648
-1.0683317
-1.0945239
-1.1244203
-1.1569978
-1.1912348
-1.2260062
-1.2601535
-1.2927548
-1.3230113
-1.3506373
-1.3754352
-1.3974607
-1.4168025
-1.4337124
-1.448543
-1.4615125
-1.4808253
-1.4643609
-1.4461197
-1.4258748
-1.4036094
-1.3790827
-1.3520625
-1.322444
-1.2904499
-1.2563944
-1.2211184
-1.1855194
-1.1507091
-1.1177704
-1.087674
-1.0613901
-1.0396997
-1.0231262
-1.0116739
-1.0048856
-0.98903951
-0.99546728
-1.0063567
-1.0222264
-1.0431082
-1.0685306
-1.0977755
-1.129967
-1.1642425
-1.1996366
-1.2351695
-1.270027
-1.3033734
-1.334854
-1.3641887
-1.3913523
-1.4163955
-1.4393988
-1.46048
-1.4797485
-1.4589308
-1.4364099
-1.4122539
-1.3864039
-1.3588171
-1.3294823
-1.2984338
-1.2657976
-1.2319116
-1.1971897
-1.1624306
-1.128339
-1.0957121
-1.0653435
-1.0379428
-1.0142437
-0.99485975
-0.98017553
-0.97011164
-0.9641412
-0.93119216
-0.93651508
-0.94546703
-0.95853537
-0.97583023
-0.99706771
-1.0217677
-1.0493722
-1.0793591
-1.111149
-1.1441585
-1.1778183
-1.2114072
-1.2444581
-1.2765768
-1.3075297
-1.3371856
-1.3654721
-1.3923505
-1.4177979
-1.3296246
-1.3006093
-1.2705222
-1.2394858
-1.2076698
-1.1753027
-1.1427095
-1.1103227
-1.0786345
-1.0482562
-1.0196057
-0.99304689
-0.96893024
-0.94757492
-0.92934687
-0.91457893
-0.90345125
-0.89583376
-0.89129594
-0.84597074
-0.84962725
-0.85576167
-0.86474898
-0.87673595
-0.89164401
-0.90928049
-0.92946326
-0.95206911
-0.97696108
-1.0039774
-1.0328504
-1.0630983
-1.0942533
-1.1258891
-1.1576097
-1.1891009
-1.2201153
-1.2504622
-1.1580663
-1.1274288
-1.0965736
-1.0657203
-1.0351539
-1.0052189
-0.97630485
-0.94889504
-0.92342451
-0.90024795
-0.8794908
-0.86113971
-0.84513564
-0.83142185
-0.82000289
-0.81089968
-0.80410674
-0.799469
-0.79671878
-0.74509649
-0.74694472
-0.75006179
-0.75467965
-0.76095343
-0.76897169
-0.77883654
-0.79069341
-0.80474373
-0.82119443
-0.840197
-0.86175143
-0.88563553
-0.91150346
-0.93890814
-0.96744068
-0.99673487
-1.0264541
-1.0562701
-0.94867534
-0.92064612
-0.89310096
-0.86638874
-0.84084783
-0.81684957
-0.79477788
-0.77494667
-0.75760914
-0.74287379
-0.73064673
-0.72068543
-0.71268712
-0.70635239
-0.70143401
-0.69775091
-0.69513048
-0.69340186
-0.69238484
-0.64005528
-0.64035801
-0.64089124
-0.64178489
-0.6432027
-0.64536238
-0.64852831
-0.65302336
-0.65921187
-0.66745533
-0.67805382
-0.69116898
-0.70678001
-0.72471674
-0.74471119
-0.76644707
-0.78960274
-0.81387826
-0.83902554
-0.73140528
-0.71000806
-0.68963327
-0.67053304
-0.65297673
-0.63723984
-0.62357658
-0.61218197
-0.60315097
-0.59643702
-0.59183481
-0.58901584
-0.58759205
-0.58716625
-0.5873718
-0.58789372
-0.58847921
-0.58896956
-0.58927903
-0.54086494
-0.54005313
-0.53872487
-0.53692469
-0.53480109
-0.53262631
-0.53074433
-0.52954258
-0.52942687
-0.53078873
-0.53396359
-0.5391807
-0.54653383
-0.55598881
-0.56741389
-0.58061648
-0.59537456
-0.61146364
-0.62866775
-0.52007767
-0.5084023
-0.49802485
-0.48912538
-0.48187488
-0.47641028
-0.47280773
-0.47105397
-0.47102444
-0.472481
-0.47509609
-0.47849093
-0.48226887
-0.48603972
-0.48944921
-0.49221849
-0.49421289
-0.49542265
-0.49424352
-0.49474477
-0.49211478
-0.4876492
-0.48109842
-0.47238241
-0.4616825
-0.44935586
-0.43589678
-0.42195113
-0.40834197
-0.39604639
-0.38601388
-0.3788134
-0.37438758
-0.37220765
-0.33308516
-0.30067862
-0.27383388
-0.25155742
-0.23304395
-0.21766027
-0.20500174
-0.19474965
-0.18683361
-0.18101866
-0.17710831
-0.17489318
-0.1756193
-0.17788718
-0.1818769
-0.18777397
-0.19579782
-0.20611553
-0.21888108
-0.23438189
-0.25305521
-0.27551413
-0.30254935
-0.33513071
-0.33931745
-0.34614407
-0.355692
-0.36746763
-0.38060243
-0.39417558
-0.40738638
-0.41958507
-0.43025285
-0.43899831
-0.44560564
-0.45012732
-0.45279745
-0.41445657
-0.41183229
-0.40739802
-0.40093992
-0.39243122
-0.38211056
-0.37038609
-0.35778074
-0.34492698
-0.33258151
-0.32158981
-0.31272792
-0.30641367
-0.27902058
-0.2847614
-0.29284145
-0.30291376
-0.31429626
-0.32622672
-0.33800517
-0.34903107
-0.35879324
-0.36688166
-0.37304548
-0.37728766
-0.37980304
-0.34881073
-0.34644568
-0.34246464
-0.33668948
-0.32913435
-0.32005453
-0.30985143
-0.29901311
-0.28809944
-0.27774826
-0.26863791
-0.26136144
-0.25620177
-0.23718661
-0.24179107
-0.2482908
-0.25645948
-0.26578516
-0.275669
-0.28553574
-0.29486947
-0.30320991
-0.31017198
-0.31550586
-0.31919082
-0.32138776
-0.29743167
-0.29543033
-0.29204664
-0.28713875
-0.28077532
-0.27318102
-0.26470834
-0.2557873
-0.24689041
-0.23853455
-0.23124665
-0.22546704
-0.2213741
-0.20832639
-0.21196158
-0.21709682
-0.22359178
-0.2310677
-0.23905955
-0.247101
-0.25476506
-0.2616771
-0.26749359
-0.27197996
-0.27507323
-0.27688638
-0.25976342
-0.25810906
-0.25527412
-0.25116778
-0.2458564
-0.23955966
-0.2325912
-0.22530957
-0.21810756
-0.21139528
-0.20558454
-0.20100331
-0.19776625
-0.18953509
-0.19244538
-0.19657656
-0.20182893
-0.20791383
-0.21446403
-0.22111351
-0.22749756
-0.23328221
-0.23817168
-0.2419603
-0.2445815
-0.24612656
-0.23593525
-0.23444187
-0.23197801
-0.22843099
-0.22386506
-0.21848924
-0.21257334
-0.20642619
-0.20037999
-0.19477752
-0.18995022
-0.18615712
-0.18348964
-0.1794123
-0.18192307
-0.18548232
-0.19000977
-0.19526879
-0.20095809
-0.20675459
-0.21234433
-0.21742912
-0.22174895
-0.22511939
-0.22748742
-0.22893732
-0.22486703
-0.22346292
-0.22116799
-0.21791406
-0.21374137
-0.20882678
-0.20342635
-0.19783051
-0.19234905
-0.18728995
-0.18294556
-0.179526
-0.1771031
-0.17536004
-0.17168321
-0.16554738
-0.15666476
-0.14505428
-0.1309074
-0.11445206
-0.095910223
-0.075548084
-0.05356024
-0.03010223
-0.0053130764
0.020704187
0.047881687
0.076184399
0.105604
-3.9585703
-4.0690906
-4.0772459
-4.1201103
-4.1532117
-4.1776127
-4.2741936
-4.2848085
-4.3557334
-4.393888
-4.517207
-4.5246921
-4.5582816
-4.7184406
-4.6856706
-4.8714991
-4.8459807
-4.9541119
-5.0002165
-5.1496331
-5.2064566
-5.3016462
-5.4512597
-5.4628686
-5.5545538
-5.5076968
-5.6535681
-5.6849735
-5.7221822
-5.7986685
-5.8779365
-5.847985
-5.9094373
-5.8784291
-5.8730193
-5.8212069
-5.8315291
-5.6299261
-5.40802
-5.5487886
-5.4371452
-5.2913015
-4.8520329
-3.9432159
-3.8972108
-3.3306626
-1.4280778
0.650294
5.7138228
10.94036
8.9798784
7.2458266
5.0098039
3.6234546
2.8462754
2.1029354
2.1485026
1.481283
1.0564667
0.78004564
0.59191148
0.45490795
0.35426142
0.27930114
0.22305802
0.18063685
0.14865642
0.12478734
0.10743903
0.095404334
0.06497556
0.07558991
0.090994715
0.11235678
0.1412241
0.17986086
0.23155451
0.30109866
0.39529402
0.5247606
0.70317646
0.96310079
1.3613876
1.9601343
2.8248776
2.9735289
3.3147478
4.5257738
6.3485694
6.6281942
8.6650545
11.008892
6.298441
1.8415036
-0.62097641
-2.9187611
-3.9015983
-3.697305
-4.6455875
-5.2302293
-5.4722503
-5.4513238
-5.4318134
-5.6997685
-5.6168562
-5.7646747
-5.8525422
-5.9479299
-5.8955877
-5.9241456
-5.9351009
-5.906045
-5.8422102
-5.8207024
-5.7181366
-5.7064408
-5.5970251
-5.5167631
-5.5032995
-5.3246989
-5.260213
-5.179759
-5.0321822
-5.0251849
-4.8811518
-4.8888332
-4.7034674
-4.7023162
-4.5692663
-4.5327986
-4.5267808
-4.3721812
-4.3599316
-4.3222119
-4.2928666
-4.1468145
-4.1588325
-4.1336562
-4.0944498
-4.0511344
-3.9343385
-3.9310441
-2.6301999
-2.7306114
-2.8571863
-2.9273914
-3.0849851
-3.1735744
-3.2145787
-3.2542302
-3.2001784
-3.1616356
-3.196493
-3.1479886
-3.0514999
-2.9394483
-2.8544772
-2.7323509
-2.6202667
-1.0373949
-1.0960942
-1.1455055
-1.1841498
-1.2097402
-1.2179666
-1.2104624
-1.1846595
-1.1392806
-1.0750256
-0.99358844
-0.90023375
-0.80215735
-0.70699343
-0.61962438
-0.54228451
-0.4756635
-0.41931331
-0.42155424
-0.47784973
-0.54425042
-0.62115273
-0.70783358
-0.80205397
-0.89900964
-0.99132264
-1.072028
-1.1359254
-1.1811264
-1.2070416
-1.2146611
-1.2065556
-1.1813333
-1.143003
-1.0938703
-1.0354523
-1.0315219
-1.0250327
-1.0157393
-1.0038587
-0.99023115
-0.97571537
-0.96120835
-0.94749967
-0.93526204
-0.92506484
-0.9172557
-0.91185569
-0.90863854
-0.94520177
-0.94898681
-0.9553421
-0.96453668
-0.97654981
-0.9909734
-1.0071331
-1.0242191
-1.0412786
-1.0572387
-1.0710789
-1.0818398
-1.0893378
-1.1378941
-1.1294247
-1.1172656
-1.1016008
-1.0835001
-1.0641422
-1.0447553
-1.0264343
-1.0101034
-0.996519
-0.98613357
-0.97896342
-0.97469983
-0.99622533
-1.000867
-1.008654
-1.0199501
-1.034756
-1.052599
-1.0726747
-1.0939781
-1.1153085
-1.1353101
-1.1526619
-1.166183
-1.1756356
-1.2002386
-1.1898327
-1.1750765
-1.1563008
-1.1347941
-1.1119863
-1.089317
-1.0680379
-1.0491865
-1.0335735
-1.0216634
-1.0134264
-1.0084343
-1.0103068
-1.0154124
-1.0238946
-1.0360951
-1.0520377
-1.0712775
-1.0930317
-1.1162805
-1.1397925
-1.1621001
-1.1816854
-1.1971481
-1.2080636
-1.2002261
-1.1889196
-1.1730196
-1.1531011
-1.1306638
-1.107227
-1.0842292
-1.0628432
-1.044031
-1.0285286
-1.0167606
-1.0087079
-1.0039887
-0.98810354
-0.99241372
-0.99976894
-1.0105781
-1.0248983
-1.0423668
-1.0623346
-1.0839496
-1.1061712
-1.1276844
-1.1470541
-1.1627763
-1.1741659
-1.129312
-1.1185539
-1.1039412
-1.0862468
-1.0668832
-1.0471083
-1.0280304
-1.0105053
-0.99523451
-0.9827516
-0.97334242
-0.96693144
-0.96314855
-0.93015941
-0.93322855
-0.93841023
-0.94599639
-0.95604602
-0.9683354
-0.98244835
-0.99784958
-1.0139009
-1.0297677
-1.044471
-1.0568567
-1.0661842
-0.98692991
-0.98007734
-0.97116983
-0.96074877
-0.94958599
-0.93832547
-0.92750936
-0.91755291
-0.90883087
-0.90165585
-0.89620665
-0.89246229
-0.89023141
-0.84488456
-0.84620368
-0.84839722
-0.8515495
-0.85563819
-0.86052127
-0.8659669
-0.87172914
-0.8775623
-0.88322587
-0.88848499
-0.89302776
-0.89662927
-0.80182283
-0.80161347
-0.80155933
-0.80154578
-0.80143206
-0.80107949
-0.80044612
-0.79958097
-0.79859084
-0.7975953
-0.79672224
-0.79606427
-0.79564512
-0.74402966
-0.74358593
-0.74278218
-0.74150478
-0.73962039
-0.73704005
-0.73373735
-0.72974782
-0.72523442
-0.72049287
-0.71596077
-0.7121504
-0.70945265
-0.62415415
-0.62904117
-0.63579939
-0.64385587
-0.6524265
-0.66080713
-0.66849347
-0.67517276
-0.68068805
-0.68499192
-0.68809796
-0.690157
-0.69134944
-0.63908458
-0.63732614
-0.63429268
-0.6297493
-0.62357601
-0.61578876
-0.6065376
-0.59609726
-0.58491672
-0.57365545
-0.56319206
-0.55447029
-0.54814963
-0.48222202
-0.48930954
-0.49911153
-0.51095641
-0.52383474
-0.53677308
-0.54900977
-0.55999606
-0.56935984
-0.57686734
-0.58243706
-0.58620393
-0.58839743
-0.54007512
-0.53759592
-0.53337169
-0.52714719
-0.51881561
-0.50851239
-0.49654218
-0.48335097
-0.46955281
-0.45596109
-0.4435761
-0.43340113
-0.42606986
-0.41927523
-0.40385655
-0.37630179
-0.33318216
-0.27121695
-0.1871911
-0.078201493
0.056962554
0.21387093
0.37799175
0.52266583
0.62634872
0.69449788
0.74874268
0.80650786
0.87708817
0.96659711
1.0763658
1.1998058
1.3272393
1.4961622
1.325556
-1.5757528
-1.621389
-1.6859569
-1.7397465
-1.8137389
-1.8803633
-1.9706589
-2.0589125
-2.1760893
-2.3010606
-2.4608786
-2.6487345
-2.8939705
-3.2116896
-3.62957
-4.207157
-4.9766005
-6.370623
-9.2023562
-10.716026
-11.388555
-8.4588567
-1.3588079
0.72221537
1.4486611
1.0839006
0.90266203
0.64431707
0.43663474
0.29244621
0.18889852
0.11274138
0.057841123
0.018329163
-0.0099666503
-0.030149623
-0.044450923
-0.054475316
-0.06137186
-0.065971863
-0.068905565
-0.044813414
-0.019248744
0.0076300569
0.035719948
0.044908573
0.058352239
0.077168885
0.10285539
0.13760442
0.18462007
0.24862216
0.33642339
0.4586928
0.62994515
0.88102649
1.2684914
1.8530528
2.604503
2.6486374
3.5821893
3.8229563
4.1459961
5.8501746
5.6562077
7.4524112
8.4527981
9.913646
9.9251391
11.402684
11.568021
9.5780821
8.6777367
8.7493556
8.3172631
10.012588
6.7609683
8.2061642
7.381195
8.7164977
10.972773
5.8119853
3.4764737
1.8026581
-0.57725171
-2.5926366
-3.802738
-3.5301927
-4.1103023
-4.3167454
-5.0340138
-5.423032
-5.4886198
-5.7094421
-5.5375439
-5.7312471
-5.9027282
-5.9939104
-5.9578533
-5.9913235
-6.0125799
-5.9805507
-5.9202959
-5.8992627
-5.7922216
-5.790447
-5.6629781
-5.6031836
-5.5340223
-5.382063
-5.3251088
-5.2273012
-5.0778918
-4.9803281
-4.9104568
-4.8642058
-4.7974825
-4.631489
-4.6315586
-4.4664297
-4.438133
-4.417138
-4.3281579
-4.279606
-4.2277663
-4.1826785
-4.0944186
-4.0630234
-4.0272646
-3.9830622
-3.9564842
-3.8673084
-3.8390552
-3.8171882
-1.6492117
-1.698996
-1.7596133
-1.8193612
-1.8895676
-1.9627246
-2.0508585
-2.1464735
-2.2621207
-2.3946103
-2.5568057
-2.7547589
-3.0040637
-3.3344328
-3.7431562
-4.2767692
-5.0701995
-6.6602134
-7.8095441
-8.8293325
-9.8085115
-9.9545273
-14.83207
-27.736488
-8.2587847
-13.655096
-8.7745187
-7.7045578
-2.1938895
2.4229598
2.7526557
2.7297065
1.8669343
1.731471
1.1379833
0.73978968
0.48566144
0.32423674
0.2122073
0.13402736
0.078768479
0.039450134
0.011333003
-0.0088011267
-0.023165599
-0.033289009
-0.040239538
-0.013071628
0.015346556
0.026744314
0.042868563
0.065129613
0.095595011
0.13730651
0.1947947
0.27474035
0.387775
0.54913252
0.79084694
1.1740914
1.7819411
2.80023
2.5355385
3.3858923
3.4552418
4.5129402
4.736299
5.1421771
7.2436633
7.9707557
8.3881978
11.026599
6.4230228
1.8408285
0.62119573
-1.5275075
-3.422274
-4.0172426
-3.9214449
-4.8223015
-5.3498541
-5.5981799
-5.6499972
-5.5688398
-5.8495302
-5.7084208
-5.9359424
-6.0130925
-6.045279
-6.0811594
-6.0489564
-6.0713422
-6.0296821
-5.9522579
-5.8804636
-5.8871765
-5.7315171
-5.678932
-5.5909544
-5.4583079
-5.3817718
-5.2907619
-5.1436619
-5.0374779
-4.9364868
-4.8880227
-4.7441797
-4.6632401
-4.5472067
-4.5155358
-4.4760284
-4.4393126
-4.3837518
-4.2085907
-4.1726947
-4.1499474
-4.1258582
-4.0334186
-3.9941703
-3.9523894
-3.923221
-3.8965574
-3.8016783
-3.7685309
-3.7389511
-3.7124948
-1.5369596
-1.6435188
-1.7563839
-1.8790736
-2.0136753
-2.1743701
-2.3673614
-2.5814727
-2.8675266
-2.8996322
-1.4195758
-0.18479194
0.25184485
0.29485836
0.24223091
0.17367758
0.11250849
0.058539584
0.015859727
-0.01659308
-0.04053278
-0.057801926
-0.070003989
-0.078434619
-0.084099004
-0.087762717
-0.090017848
-0.091318922
-0.11180085
-0.11207651
-0.11206658
-0.11150821
-0.11001095
-0.10715085
-0.10243148
-0.095310964
-0.085294201
-0.072159414
-0.056433523
-0.040398644
-0.030018895
-0.038688451
-0.083965019
-0.21229956
-0.52791556
-1.1352972
-1.9509861
-2.1325744
-2.0893277
-2.022494
-1.934866
-1.8321219
-1.7271649
-1.6247233
-1.5245959
-1.4248623
-1.3229219
-1.2420815
-1.3339543
-1.4201331
-1.5008451
-1.575253
-1.6422077
-1.6974499
-1.7294645
-1.7311442
-1.6924257
-1.495892
-1.0538959
-0.68955123
-0.45223405
-0.30947869
-0.22628744
-0.18296773
-0.16177484
-0.15205911
-0.14771434
-0.14556302
-0.14402865
-0.1424329
-0.14055978
-0.13842107
-0.13613207
-0.13385773
-0.13178618
-0.13006238
-0.14576892
-0.14876555
-0.15265102
-0.15739198
-0.16293909
-0.16931471
-0.1766609
-0.18529489
-0.1958193
-0.20930972
-0.2276147
-0.25379442
-0.2927356
-0.35185032
-0.44149239
-0.57505777
-0.76302349
-1.0043389
-1.2697819
-1.4328989
-1.5013422
-1.5313246
-1.5299465
-1.5027337
-1.4573626
-1.3991583
-1.3311834
-1.2551171
-1.1719535
-1.1200117
-1.1941242
-1.2599923
-1.316291
-1.3610511
-1.3908513
-1.4015668
-1.3878702
-1.3453809
-1.2699558
-1.1386748
-0.9608346
-0.78708815
-0.63862357
-0.52227992
-0.4341424
-0.36878558
-0.32042574
-0.28430272
-0.25681001
-0.23538825
-0.21827892
-0.20430484
-0.19269247
-0.1829465
-0.17476929
-0.16801531
-0.16264089
-0.15859737
-0.16835453
-0.17318876
-0.17968912
-0.18795849
-0.19809852
-0.21032822
-0.22502966
-0.24278078
-0.26440641
-0.29105045
-0.32426355
-0.36608567
-0.41908702
-0.48625714
-0.5706347
-0.67430703
-0.79690851
-0.93231617
-1.0664185
-1.1747829
-1.2477131
-1.293758
-1.314867
-1.3139925
-1.2935668
-1.2575988
-1.2093863
-1.1507096
-1.0831082
-1.0582978
-1.121156
-1.1748601
-1.217709
-1.2478665
-1.2625571
-1.2579474
-1.2335427
-1.1872488
-1.118552
-1.0254638
-0.91497215
-0.80073183
-0.69347496
-0.59852966
-0.51762858
-0.45037337
-0.39523168
-0.35030852
-0.31373843
-0.28388197
-0.25938384
-0.23916924
-0.22241396
-0.20851024
-0.19703733
-0.18773648
-0.18047173
-0.17510346
-0.17612303
-0.16935314
-0.15949818
-0.14660435
-0.13092492
-0.11275882
-0.092395872
-0.070099139
-0.046118787
-0.020667426
0.0060901677
0.034046338
0.063152766
0.093415353
0.12488198
-1.495836
-1.628246
-1.5957833
-1.7401883
-1.705709
-1.8666725
-1.8368655
-2.0173562
-2.0012468
-2.2063298
-2.2101193
-2.452146
-2.5058927
-2.7891606
-2.9194166
-3.2574215
-3.529609
-3.898738
-4.3116368
-4.6228102
-4.3380163
-1.3466489
-0.090424792
0.38254043
0.39826661
1.3845445
2.6110807
4.7202155
5.0235653
3.9499105
2.8968477
3.4567023
2.4890334
1.5799902
1.0090064
0.6620972
0.44834611
0.30596251
0.20737078
0.13817377
0.088883354
0.053463161
0.0278694
0.0093843387
-0.0038399857
-0.0057462819
0.024664518
0.056078663
0.088502323
0.12204817
0.15690367
-1.6689007
-1.7161348
-1.775382
-1.8370333
-1.9006026
-1.9738367
-2.0580881
-2.154612
-2.2669142
-2.4023158
-2.5672811
-2.777989
-3.0277043
-3.3610121
-3.8015302
-4.4294752
-5.3697483
-7.2008775
-7.7257439
-7.4749557
-10.429947
-13.255532
-21.660706
-19.032316
-4.5148207
-6.9945256
-0.10912838
-1.2201702
2.6399085
4.8449477
4.080892
6.0742118
7.2211503
6.7160279
5.0269379
5.8390508
4.0645803
4.2470355
4.4293799
4.3638086
5.9223626
6.2583599
5.9179757
6.5154164
6.7637376
8.7852836
9.0535911
10.185877
11.582043
11.889724
10.205117
8.9511111
8.5334156
10.131279
9.7664741
8.7205595
6.8317576
8.3377268
7.6592395
11.0156
5.8039004
3.5676606
1.8404814
-0.68979679
-2.9807341
-4.0726171
-3.7107826
-4.2492778
-4.5345726
-5.1756009
-5.5788138
-5.6723634
-5.8448043
-5.6859276
-5.9731673
-6.0912633
-6.1560359
-6.1298885
-6.1548156
-6.1668025
-6.1151745
-6.0539231
-5.9794102
-5.9634317
-5.8426633
-5.7516891
-5.6519402
-5.5452252
-5.4364726
-5.3704625
-5.2006945
-5.0912544
-5.0060253
-4.8415541
-4.8075783
-4.6682091
-4.5954194
-4.5483727
-4.5103472
-4.4108108
-4.3387155
-4.2559113
-4.1950409
-4.1677465
-4.1247832
-4.0842736
-3.9475896
-3.9227131
-3.8927764
-3.866072
-3.8393243
-3.7335008
-3.7084679
-3.6829494
-3.6560593
-3.6326901
-1.7235478
-1.766763
-1.8327882
-1.8819348
-1.9508573
-2.0231856
-2.1048329
-2.2007458
-2.3135312
-2.4535181
-2.6214077
-2.8355229
-3.0951568
-3.4566817
-3.9678156
-4.812817
-5.3611455
-5.6392092
-5.7960004
-6.6842082
-7.8211389
-8.1068052
-13.065692
-19.960976
-9.7171527
-10.129386
-8.0416874
-6.6488355
-3.3055056
0.68761843
0.04769823
3.5163378
4.7289681
5.625959
5.7561269
7.2717532
6.7114371
7.0751208
8.6657091
9.4919419
10.3923
9.5426023
8.7991279
9.3917023
8.0337216
8.6294916
6.1642536
6.1194969
7.8345901
7.7481679
7.9151204
8.4831943
8.6830444
8.9427771
7.6394376
8.5939372
10.057173
10.079417
11.471807
11.644867
11.117802
6.418919
1.9171534
0.68018818
-0.57341331
-2.4234934
-3.7791475
-4.1351045
-4.1939004
-5.1341851
-5.5783096
-5.6910727
-5.914141
-5.7081971
-5.9512127
-6.1858289
-6.258345
-6.1917204
-6.2801992
-6.2680999
-6.1767441
-6.1576059
-6.0986214
-6.0248769
-5.9347687
-5.8543749
-5.7042773
-5.6313254
-5.5073281
-5.4426306
-5.2509711
-5.1668605
-5.0402765
-4.9096924
-4.8007228
-4.743759
-4.6108785
-4.5800308
-4.4793103
-4.4430902
-4.2698737
-4.2090955
-4.1901956
-4.0746579
-4.0350404
-4.0036357
-3.9747926
-3.8959312
-3.866749
-3.8308687
-3.7990329
-3.7634386
-3.6718588
-3.6498105
-3.6211073
-3.5886413
-3.5597453
-3.5370661
-3.4506318
-1.2181194
-1.3018392
-1.3441705
-1.3167905
-1.2299688
-1.2478241
-1.2505346
-1.2516422
-1.2850863
-1.3349113
-1.3338794
-1.3311979
-1.445214
-1.3865437
-1.3850889
-1.3410465
-1.3126366
-1.297138
-1.2155315
-1.211396
-1.2907466
-1.3067709
-1.2242548
-1.2278964
-1.2187613
-1.2054541
-1.1974371
-1.2717791
-1.2823918
-1.2988925
-1.3292243
-1.3361802
-1.4113096
-1.4186481
-1.4241396
-1.4308144
-1.3735928
-1.3914315
-1.4511683
-1.4885699
-1.5347275
-1.4913666
-1.4710349
-1.4934828
-1.5156218
-1.5598067
-1.5446119
-1.4997558
-1.4751073
-1.4582535
-1.4210729
-1.3665026
-1.3576128
-1.4094615
-1.4435873
-1.4570087
-1.4819865
-1.4669113
-1.481156
-1.4419345
-1.3848927
-1.3765353
-1.4308136
-1.4701587
-1.4803224
-1.5232661
-1.50985
-1.5274773
-1.5987984
-1.6148406
-1.6288964
-1.5454112
-1.4748882
-1.5467841
-1.6280353
-1.6895293
-1.5991383
-1.5891549
-1.5401974
-1.4711174
-1.5442202
-1.4462128
-1.4454559
-1.3818673
-1.2843281
-1.2855244
-1.2811082
-1.2431861
-1.2362481
-1.2111123
-1.2886695
-1.3197669
-1.3073718
-1.2757639
-1.2586286
-1.1870912
-1.1742396
-1.2427341
-1.259905
-1.1882188
-1.2010081
-1.3902437
-1.5206986
-1.46275
-1.613895
-1.6228133
-1.5250797
-1.3959551
-1.4000591
-1.5278043
-1.630304
-1.4806393
-1.4724143
-1.5642473
-1.5496479
-1.7743472
-1.3110534
-1.3226443
-1.3299789
-1.3338273
-1.4424505
-1.3764673
-1.3683467
-1.2753816
-1.2666297
-1.2266269
-1.21399
-1.2916399
-1.3555141
-1.3743386
-1.3896105
-1.4017737
-1.3660542
-1.3466515
-1.3957208
-1.3795219
-1.3333127
-1.3531061
-1.4016792
-1.4175084
-1.4577462