/*--------------------------------*- C++ -*----------------------------------*\
| =========                 |                                                 |
| \\      /  F ield         | OpenFOAM: The Open Source CFD Toolbox           |
|  \\    /   O peration     | Version:  v2012                                 |
|   \\  /    A nd           | Website:  www.openfoam.com                      |
|    \\/     M anipulation  |                                                 |
\*---------------------------------------------------------------------------*/
FoamFile
{
    version     2.0;
    format      ascii;
    class       surfaceScalarField;
    location    "100";
    object      phi;
}
// * * * * * * * * * * * * * * * * * * * * * * * * * * * * * * * * * * * * * //

dimensions      [0 3 -1 0 0 0 0];
oriented        oriented;


internalField   nonuniform List<scalar> 
56892
(
-0.00015488654
-0.0074290719
-0.0001142671
0.000240561
0.0072958759
0.00016178858
-0.0070449033
6.3616584e-05
0.0068639171
-3.7516873e-05
0.00010245893
-2.2589048e-06
0.00013316571
-9.8142859e-05
0.0068190403
-3.023681e-06
8.3514305e-05
0.0070840294
-0.00022198386
0.00013224989
0.0075245492
-5.1749457e-05
0.00013791271
0.008092508
-0.00015621912
0.00014060771
0.0085122958
-4.230775e-05
0.00015009225
0.0088354004
-3.9595466e-05
0.00015984151
0.0089779434
7.2181738e-07
0.00016490869
0.0090435883
4.1028804e-05
0.00016492688
0.009043608
4.3615114e-05
0.00015989392
0.0089780293
0.00015735719
0.00015017298
0.0088354995
5.2682119e-05
0.00014071169
0.0085124126
0.00022269527
0.00013803022
0.0080926387
3.5072096e-06
0.00013237269
0.0075246843
9.8390803e-05
8.3638675e-05
0.0070841624
-0.00010233759
0.0068191802
-2.0258316e-06
0.0070450634
0.00013289347
-0.00023262612
0.0074096581
0.00021506293
-4.7552972e-05
0.0078944872
0.00025068178
-0.00015503474
0.0082179493
0.00026870245
-2.8216006e-05
0.0084632581
0.00028330395
-3.1023016e-05
0.0085377531
0.00029052186
3.3345567e-06
0.0085574484
0.00029309721
5.8320772e-06
0.0085398373
0.00029214428
5.2015165e-06
0.0085201029
0.00029098567
1.8421904e-06
0.0085058474
0.00029002865
-9.0246221e-08
0.0084982545
0.00028948334
-1.2322992e-06
0.0084946955
0.00028919492
-1.7315804e-06
0.0084932584
0.000289054
-1.9191606e-06
0.0084927501
0.00028897863
-1.9378413e-06
0.0084925934
0.00028893378
0.0084926158
0.00028889749
3.6907138e-06
0.0084915583
0.00028991637
3.5544556e-06
0.0084916232
0.000289871
3.262732e-06
0.0084918666
0.00028984039
2.6552783e-06
0.0084924498
0.00028984347
1.4231448e-06
0.0084939558
0.00028991654
-5.893864e-07
0.0084975822
0.00029014048
-4.0265247e-06
0.0085052452
0.00029062618
-4.7386372e-06
0.0085195737
0.00029152921
-2.3323874e-06
0.0085393829
0.00029263855
3.1911382e-05
0.0085570652
0.00029354554
2.8962214e-05
0.0085374353
0.00029093211
0.00015563196
0.0084629918
0.00028368074
4.8016828e-05
0.0082177254
0.00026905037
0.0002329701
0.0078942912
0.00025100293
0.0074094844
0.00021535846
2.6496648e-05
0.0072160345
0.00023056984
1.7064483e-05
0.0076342839
0.00026943956
-2.1989249e-05
0.0079667784
0.00029000067
-1.7581815e-05
0.0081565166
0.00030206772
-1.8675206e-05
0.0082301262
0.00030840252
-1.1835805e-05
0.0082393459
0.0003108799
-8.678052e-06
0.0082254094
0.0003108158
-7.8324867e-06
0.0082085362
0.00031019187
-8.4436e-06
0.0081962925
0.0003095638
-9.2615853e-06
0.0081892123
0.00030918785
-1.0003044e-05
0.008185664
0.00030903326
-1.0605615e-05
0.0081840265
0.00030902591
-1.1107351e-05
0.0081832709
0.00030909741
-1.1450438e-05
0.008182753
0.00030921331
0.008182637
0.00030935871
-0.0068845099
-1.7291923e-05
3.5113546e-05
-1.3966913e-06
-0.0068986067
-1.4224871e-05
2.889026e-05
-5.6865254e-07
-0.0069099965
-1.0654358e-05
2.1693643e-05
3.5051715e-07
-0.0069182411
-6.5496749e-06
1.3433917e-05
1.3603953e-06
-0.0069228381
-1.9191043e-06
4.0564345e-06
2.4596436e-06
-0.006923253
3.1779444e-06
-6.405187e-06
3.6421265e-06
-0.0069188584
8.5859108e-06
-1.77911e-05
4.810633e-06
-0.0069093051
1.5005871e-05
-3.069515e-05
6.1359657e-06
-0.0068942958
2.1259322e-05
-4.3721019e-05
7.4524213e-06
-0.0068740188
2.7176056e-05
-5.6153789e-05
8.7007478e-06
-0.0068493058
3.2042784e-05
-6.654919e-05
9.7933611e-06
-0.0068221987
3.4972837e-05
-7.2668307e-05
1.0588339e-05
-0.0067951625
3.5521591e-05
-7.3492749e-05
1.0935002e-05
-0.0067700182
3.4121315e-05
-7.0099263e-05
1.0833647e-05
-0.0067478318
3.1405066e-05
-6.3955842e-05
1.0364414e-05
-0.0067289272
2.8011836e-05
-5.6555468e-05
9.6389519e-06
-0.0067131188
2.4465096e-05
-4.9040158e-05
8.7666807e-06
-0.0066999608
2.1091046e-05
-4.2075477e-05
7.8264256e-06
-0.0066889498
1.8049426e-05
-3.5924496e-05
6.8640615e-06
-0.0066796196
1.5388773e-05
-3.0605654e-05
5.8867107e-06
-0.0066715769
1.3076942e-05
-2.6016907e-05
4.8972379e-06
-0.0066646348
1.1111166e-05
-2.1963548e-05
3.91029e-06
-0.0066588996
9.185927e-06
-1.8115736e-05
3.1946147e-06
-0.0066553204
7.395957e-06
-1.4050515e-05
3.0753324e-06
-0.0066545476
4.0175207e-06
-9.5676114e-06
4.7773451e-06
-0.0066592144
2.5882494e-06
-5.2356557e-06
7.3142403e-06
-0.0066695384
-3.971945e-06
3.8910825e-07
1.3906834e-05
-0.0066930214
-7.275845e-06
8.843147e-06
2.1915667e-05
-0.0067483418
-2.211931e-05
3.0378175e-05
4.7061541e-05
6.1355922e-05
-4.3884761e-05
9.8104087e-05
5.408714e-05
0.0070877995
0.00013550383
3.1844116e-05
0.0074969245
0.00015960234
8.0774931e-06
0.0078169153
0.00017362973
-7.9628574e-06
0.0079912196
0.00018133739
-1.4976334e-05
0.0080521251
0.00018501458
-1.6889673e-05
0.0080549854
0.00018627388
-1.6653257e-05
0.0080388648
0.00018630816
-1.6430294e-05
0.0080222881
0.00018602514
-1.6690531e-05
0.0080107613
0.00018579153
-1.7299282e-05
0.008004112
0.00018570908
-1.8053575e-05
0.0080006572
0.00018576117
-1.884649e-05
0.007998914
0.00018590538
-1.9641198e-05
0.0079979579
0.00018610767
-2.0556635e-05
0.0079973202
0.0001863482
0.0079968053
0.00018661693
-0.00047586248
0.00023321313
0.00013166757
-0.00052536141
7.2876062e-05
5.3761133e-05
-0.0001034306
0.00032561577
-0.0012700127
0.00052246609
-6.7917769e-05
0.00048545597
-0.0011437829
0.00062281406
-3.2653475e-05
0.00053077088
-0.0012134396
0.00064740444
-4.8168293e-05
0.00054412146
-0.0011728695
0.00064426286
-3.8482387e-05
0.00054899745
-0.0012046865
0.00064600319
-6.7323882e-05
0.0005495824
-0.0011743481
0.00065360715
-0.0001186865
0.0005566076
-0.0011549162
0.00064967118
-0.0004884585
0.00061947657
-0.00094551843
0.00069581386
-0.00048785815
0.00020985969
0.00010795827
-0.00031841831
-0.00054131738
4.8634e-05
-2.2024231e-05
2.6849464e-05
-0.00019862789
0.00031834689
-0.0011677397
0.00050670328
-0.00049775741
0.0005286062
-0.00088614329
0.00065666661
-0.00049178728
0.00017142701
-0.00025752748
8.0130344e-05
-0.00055891017
2.9275607e-05
3.0388696e-05
7.4585912e-06
-0.00022249785
0.00031058683
-0.0011504359
0.00050343677
-0.00054676571
0.00051411844
-0.00083068815
0.00064083758
-0.00054707113
0.00012499335
-0.00017779131
5.3103384e-05
-0.00052815105
-0.00015401905
0.00022090512
-8.5806154e-05
-0.00052777694
0.00085272318
-0.00020188014
-0.00065121716
-0.00060762215
4.385232e-05
-3.7921519e-05
7.3914406e-05
-0.00069272581
1.1764421e-05
2.4700855e-05
4.8638389e-05
-0.00074035361
-2.8906072e-06
1.630996e-05
3.4208447e-05
-0.00078906724
4.4044161e-05
1.2914822e-05
-8.2453538e-06
-0.00062830074
-0.00015520726
-3.1917432e-05
2.6358185e-05
-0.00026561824
0.00025411594
-0.00034834746
-0.00026845097
-0.0004289531
-2.6346139e-05
6.70038e-05
0.00012267719
-0.00049808205
-3.2333567e-05
3.0437852e-05
7.1024671e-05
-0.00055632848
-3.0332835e-05
3.5084189e-05
5.3495073e-05
-0.00059665717
-3.0049829e-05
3.0839043e-05
3.9539476e-05
-0.00062848791
-3.0039673e-05
2.9401083e-05
3.246933e-05
-0.00065727176
-3.0358107e-05
2.9579799e-05
2.9562157e-05
-0.00068632489
-3.0785581e-05
3.0190635e-05
2.9648078e-05
-0.00071812158
-3.0178832e-05
3.0280088e-05
3.1695431e-05
-0.00075465325
-2.4897485e-05
3.0950994e-05
3.0478164e-05
-0.00079715321
4.9015511e-06
3.4143193e-05
3.4552091e-06
-0.00067517697
-0.00022860298
2.3923227e-05
8.2703516e-05
-0.00043091419
0.00022750038
-5.5005831e-05
-0.00041675733
-0.00053182899
-3.9743229e-05
1.736943e-05
0.0001232886
-0.00062977122
-2.7452899e-05
3.0735443e-05
9.4659683e-05
-0.00070035305
-3.1832865e-05
2.1360292e-05
8.1054407e-05
-0.00072266374
-2.6900743e-05
-5.8571406e-06
5.5068568e-05
-0.00037162375
3.9971897e-05
-3.44737e-05
-0.00035653818
-0.00049902353
5.4470383e-06
1.3075059e-05
0.00010887768
-0.00056101213
8.1936619e-06
-1.0718678e-05
6.4513616e-05
-0.00018128771
6.424034e-05
-0.00025021775
-0.00019374702
-0.00032117736
2.8418027e-05
3.7372115e-05
7.4099512e-05
-0.00012884565
8.5386913e-05
-0.00018521656
-9.2502062e-05
5.8246738e-05
-0.00020117866
1.4086273e-05
-0.0003641309
7.9049996e-05
0.00011943165
0.00022389599
-0.0013836418
0.00024301776
0.0005016562
-4.1233134e-05
-0.00029831612
0.00061438624
-0.0018319671
0.00022138279
-0.00012102827
0.00034797069
-0.0020764927
0.0001506576
-0.00017551452
0.00026938259
-0.0026675939
0.00019144729
-0.00020983493
0.00060948878
-0.0070340594
0.0032718943
-0.00013449145
-0.00037638347
0.0016054462
-0.0074224178
0.0001209396
-0.00020406479
0.00047148349
-0.0076273522
0.00012069513
-0.00011429997
0.00019853929
-0.0077290354
0.00010785828
-0.00010689997
0.00010072488
-0.0077847455
0.00010263732
-0.00010492167
5.7994455e-05
-0.0078197146
9.7334724e-05
-9.9562297e-05
3.7196709e-05
-0.0078422668
9.0829989e-05
-9.2929997e-05
2.4652173e-05
-0.0078556409
8.2836095e-05
-8.4986754e-05
1.5524754e-05
-0.0078626746
7.3638861e-05
-7.5816054e-05
9.210908e-06
-0.007868058
6.3557132e-05
7.4685207e-06
-0.0078799531
5.2807993e-05
1.375877e-05
-0.0079128648
4.1698504e-05
3.4454136e-05
3.0609018e-05
8.5107166e-05
3.6373388e-05
-0.0080113402
0.00803448
-2.4311715e-05
3.7476769e-05
-0.0080056748
0.0080276092
-2.3037767e-05
3.8495191e-05
-0.0080003482
0.0080211176
-2.1787869e-05
3.9388162e-05
-0.0079954828
0.0080151429
-2.0553116e-05
4.0093337e-05
-0.0079910862
0.0080097038
-1.9322756e-05
4.052864e-05
-0.0079873274
0.0080049793
-1.8087238e-05
4.0597937e-05
-0.0079845483
0.0080013198
-1.6840751e-05
4.0201105e-05
-0.0079834736
0.0079994546
-1.5584172e-05
3.9247189e-05
-0.0079854542
0.008000735
-1.432691e-05
3.7664399e-05
-0.0079924059
0.0080070759
-1.3087267e-05
3.5400366e-05
-0.0080053821
0.0080195367
-1.1890593e-05
3.2417556e-05
-0.0080201493
0.0080338963
-1.0764172e-05
2.8702176e-05
-0.008018896
0.0080323391
-9.727769e-06
2.4307932e-05
-0.0079609057
0.00797408
-8.780078e-06
1.9432667e-05
-0.0077872418
0.0078000196
-7.9025612e-06
1.4439211e-05
-0.00746312
0.0074752005
-7.0869798e-06
9.618438e-06
-0.0070447751
0.0070559061
-6.3102443e-06
4.8753369e-06
-0.0066892633
0.0066995054
-5.4990077e-06
-0.0065607119
0.0065702824
-4.6952165e-06
-0.0065520893
-4.5542158e-06
-4.0683299e-06
-0.0065450483
-3.9710793e-06
-3.0700129e-06
-0.0065399877
-3.2713274e-06
-1.7891994e-06
-0.0065409533
-7.740381e-07
1.73965e-06
-0.0065441851
-7.2694416e-08
3.304438e-06
-0.0065605903
5.8925433e-06
1.0512682e-05
-0.0065829372
8.6766403e-06
1.3670217e-05
-0.0066360657
2.3101348e-05
3.0027139e-05
-0.0067340428
4.4511292e-05
5.346586e-05
3.7871285e-05
4.726611e-05
0.0068645051
6.4316853e-05
0.00015411274
0.0067496615
6.2620397e-05
9.6734436e-05
0.0066954353
3.2346351e-05
4.4981259e-05
0.0066734011
1.1664949e-05
1.9045838e-05
0.0066648804
4.2280249e-06
1.018527e-05
0.0066623158
-1.9278189e-07
2.6846512e-06
0.0066654411
-3.0821955e-06
-8.1712366e-07
0.0066715339
-5.7994518e-06
-3.564657e-06
0.0066798391
-7.6859101e-06
-4.5904415e-06
-8.8503575e-06
-5.1280704e-06
-1.3352295e-05
-0.0070341822
-6.0909766e-06
-1.8191044e-05
-0.0074513563
-6.9249459e-06
-2.2972492e-05
-0.0077747307
-7.7297122e-06
-2.7219364e-05
-0.0079480897
-8.5691565e-06
-3.073061e-05
-0.0080059273
-9.4574531e-06
-3.3528911e-05
-0.0080069496
-1.0401451e-05
-3.5703446e-05
-0.0079918098
-1.1397705e-05
-3.7323562e-05
-0.0079783519
-1.2433867e-05
-3.8435083e-05
-0.007970845
-1.3497692e-05
-3.9083629e-05
-0.0079682455
-1.4579511e-05
-3.9328798e-05
-0.0079686308
-1.5672366e-05
-3.9241658e-05
-0.0079706423
-1.6772286e-05
-3.8894329e-05
-0.0079735543
-1.7879274e-05
-3.8350982e-05
-0.0079770288
-1.8997284e-05
-3.7662622e-05
-0.0079809035
-2.0133094e-05
-3.6867052e-05
-0.0079851759
-2.129445e-05
-2.2488373e-05
3.6840546e-05
-0.0079653561
-2.035783e-05
3.7259192e-05
-0.0079620151
-1.9307039e-05
3.7524244e-05
-0.0079590063
-1.8287545e-05
3.7594878e-05
-0.0079563311
-1.7293869e-05
3.7423761e-05
-0.0079541497
-1.6321459e-05
3.6962285e-05
-0.0079528015
-1.5367773e-05
3.61689e-05
-0.0079530203
-1.4431791e-05
3.5016731e-05
-0.007956182
-1.3510819e-05
3.3486311e-05
-0.0079642256
-1.2595859e-05
3.1530527e-05
-0.0079781842
-1.1669829e-05
2.9022802e-05
-0.007993727
-1.0714824e-05
2.5752074e-05
-0.0079929305
-9.7260735e-06
2.1576965e-05
-0.0079351955
-8.7190758e-06
1.671456e-05
-0.0077621389
-7.7293589e-06
1.186209e-05
-0.0074397205
-6.783405e-06
-0.0070242079
-5.798065e-06
-9.7977305e-06
-0.0070153437
-4.8660071e-06
-1.4939862e-05
-0.0074284791
-6.0991712e-06
-2.0099592e-05
-0.0077495436
-7.4356002e-06
-2.4301333e-05
-0.0079221285
-8.8652927e-06
-2.7320358e-05
-0.007979682
-1.0229436e-05
-2.9457829e-05
-0.0079801723
-1.1417245e-05
-3.1087153e-05
-0.007964141
-1.2413933e-05
-3.2416967e-05
-0.0079496251
-1.3270679e-05
-3.3504988e-05
-0.0079410346
-1.405932e-05
-3.4346142e-05
-0.0079373442
-1.4834925e-05
-3.4933861e-05
-0.0079365887
-1.5625053e-05
-3.5279912e-05
-0.007937365
-1.6438592e-05
-3.5410269e-05
-0.0079389232
-1.7277478e-05
-3.5356205e-05
-0.0079409171
-1.8143308e-05
-3.5148219e-05
-0.0079431843
-1.9038728e-05
-0.0079457215
-1.9967437e-05
3.2675558e-05
-1.8927204e-05
3.2742806e-05
-0.007925127
-1.812459e-05
3.2645733e-05
-0.0079234653
-1.7354725e-05
3.2381362e-05
-0.0079220437
-1.6615125e-05
3.1933436e-05
-0.0079210128
-1.5904344e-05
3.1296129e-05
-0.0079207304
-1.5221024e-05
3.0484713e-05
-0.0079219707
-1.4562176e-05
2.9534491e-05
-0.0079261702
-1.3914223e-05
2.8466644e-05
-0.0079353228
-1.3234471e-05
2.7201983e-05
-0.0079504448
-1.2431489e-05
2.544286e-05
-0.0079670457
-1.1367515e-05
2.2659979e-05
-0.007966988
-9.911097e-06
1.8404549e-05
-0.007909842
-8.0310422e-06
1.2883671e-05
-0.0077381125
-5.9101424e-06
7.2550509e-06
-0.0074189041
-3.9464631e-06
-0.0070087809
-2.3899227e-06
-4.4718131e-06
-0.0070068498
2.3479631e-06
-1.0377591e-05
-0.0074139155
9.1716854e-07
-1.6016763e-05
-0.0077309429
-1.5304613e-06
-2.0270662e-05
-0.0079013466
-4.2414782e-06
-2.2932861e-05
-0.0079578067
-6.5191803e-06
-2.4464796e-05
-0.0079573678
-8.1459666e-06
-2.545887e-05
-0.0079402204
-9.2303194e-06
-2.6286829e-05
-0.007924517
-9.9778075e-06
-2.70722e-05
-0.0079148191
-1.0565746e-05
-2.7802064e-05
-0.0079101345
-1.1106274e-05
-2.8428033e-05
-0.0079084548
-1.1649665e-05
-2.8916025e-05
-0.0079083112
-1.2213585e-05
-2.9256241e-05
-0.0079089005
-1.2803e-05
-2.9452028e-05
-0.0079098495
-1.3419976e-05
-0.0079110018
-1.4066135e-05
2.5483125e-05
-0.0079079262
-2.9505521e-06
2.5217128e-05
-0.0079071593
-2.4242152e-06
2.4851762e-05
-0.0079066115
-1.9236871e-06
2.4376433e-05
-0.0079063891
-1.4468169e-06
2.3812182e-05
-0.0079069002
-9.9033823e-07
2.3201015e-05
-0.0079089773
-5.4604719e-07
2.2579687e-05
-0.0079141059
-9.1819637e-08
2.1905578e-05
-0.0079242673
4.2442087e-07
2.0953988e-05
-0.0079403745
1.1056696e-06
1.9286021e-05
-0.0079578186
2.1187948e-06
1.6306268e-05
-0.0079584871
3.6602202e-06
1.1848984e-05
-0.0079027057
5.8163947e-06
6.2845825e-06
-0.0077336399
8.2613485e-06
4.6988523e-07
-0.0074181581
1.0057382e-05
-0.0070125736
1.0421717e-05
8.4944728e-06
-0.0070337043
2.4301167e-05
2.3994269e-06
-0.0074398579
2.7794782e-05
-4.4604826e-06
-0.007755705
2.8925054e-05
-1.0429465e-05
-0.0079250728
2.8336037e-05
-1.4597768e-05
-0.0079814712
2.7152399e-05
-1.6900804e-05
-0.0079815707
2.605517e-05
-1.7957861e-05
-0.0079645425
2.5225052e-05
-1.8476498e-05
-0.007948372
2.4623277e-05
-1.8888012e-05
-0.0079378614
2.4166948e-05
-1.9329812e-05
-0.0079323195
2.3784013e-05
-1.9784218e-05
-0.0079298719
2.3426163e-05
-2.0201238e-05
-0.0079290394
2.3067329e-05
-2.0546697e-05
-0.0079289615
2.2695482e-05
-2.0782445e-05
-0.0079292291
2.2305567e-05
-0.0079296541
2.1895304e-05
1.5648418e-05
-0.0080057222
7.6184982e-05
1.5432172e-05
-0.0080054996
7.6486704e-05
1.5145927e-05
-0.0080054497
7.6774497e-05
1.4819867e-05
-0.0080057667
7.7053385e-05
1.4505977e-05
-0.0080068928
7.7334716e-05
1.4287061e-05
-0.0080097371
7.7636514e-05
1.4219991e-05
-0.0080157828
7.7988462e-05
1.4143218e-05
-0.0080267209
7.8425704e-05
1.337954e-05
-0.0080427344
7.8955603e-05
1.0645864e-05
-0.008058319
7.9481935e-05
4.4387223e-06
-0.0080549658
7.9701713e-05
-5.9324949e-06
-0.0079936347
7.8933128e-05
-1.8646619e-05
-0.00781897
7.5979121e-05
-2.9273364e-05
-0.007498671
6.9439851e-05
-0.0070892969
5.8665584e-05
5.6023494e-05
-0.0072166924
0.00013399235
3.4487074e-05
-0.0076350392
0.00015790464
1.1432392e-05
-0.0079676548
0.00017173946
-3.9156404e-06
-0.0081575398
0.00017925316
-1.0267647e-05
-0.0082313344
0.00018272058
-1.155559e-05
-0.008240779
0.00018374795
-1.073222e-05
-0.008227084
0.00018352623
-9.9588905e-06
-0.0082104565
0.00018296227
-9.695897e-06
-0.008198467
0.00018242122
-9.794726e-06
-0.008191644
0.00018200567
-1.0034996e-05
-0.008188352
0.00018169948
-1.0287985e-05
-0.0081869738
0.00018146014
-1.0498406e-05
-0.0081864915
0.00018125219
-1.0773667e-05
-0.0081862772
0.00018105282
-0.0081866078
0.00018085031
6.0026334e-06
0.00030618744
6.0187399e-06
0.00030630018
5.8527602e-06
0.00030642459
5.5589181e-06
0.00030657836
5.1058656e-06
0.00030679658
4.5681142e-06
0.00030714826
4.2414188e-06
0.00030770711
5.3843928e-06
0.0003085034
8.8587937e-06
0.00030927884
1.6047411e-05
0.0003094808
1.5335342e-05
0.00030713083
2.0141228e-05
0.00030091242
-1.8514072e-05
0.00028894981
-2.7560495e-05
0.00026849442
0.00022972211
-0.0079463935
0.0078536791
0.00012030861
0.00036463723
-0.00016250933
-9.9361241e-05
0.00029703347
-9.4857697e-06
0.00017985822
0.0074292228
0.00014912467
9.3653753e-05
0.0080217242
4.9067719e-05
0.00022261068
0.0087012283
-0.00034804179
-6.066219e-05
0.00026390025
0.0093191773
-5.0618236e-05
0.008458267
-0.00010263504
0.00036997287
0.0088324014
-6.7912646e-05
0.00038297398
0.0090462664
-4.4675942e-05
0.00038932249
0.0091360291
-1.7569056e-05
0.00039015016
0.0091527507
-5.7170588e-06
0.00038853452
0.0091425956
-1.1999693e-06
0.00038683716
0.0091257744
-6.6259938e-07
0.00038572436
0.0091131199
-1.0319793e-06
0.00038509774
0.0091056982
-1.5013968e-06
0.00038476773
0.0091020644
-1.8030538e-06
0.00038458712
0.0091004912
-1.9628216e-06
0.00038447426
0.009099889
-2.1389075e-06
0.00038438436
0.0090997008
0.00038431693
0.0090996826
2.3539729e-06
0.00027425054
0.010013987
2.1524138e-06
0.00027436486
0.010014021
2.0452011e-06
0.00027448125
0.010014219
1.9005844e-06
0.00027460537
0.010014832
1.8908657e-06
0.00027475506
0.010016395
2.5628201e-06
0.00027498446
0.010019935
5.3986551e-06
0.00027542119
0.010026964
1.3475325e-05
0.00027630868
0.010038743
3.1626164e-05
0.00027791228
0.010053906
6.2178377e-05
0.00028003968
0.01006404
9.8256511e-05
0.00028127613
0.010047984
0.000109603
0.0002798241
0.0099621554
0.00027534869
0.009740462
9.2011854e-05
0.00010554063
-0.00014414326
0.010598043
-3.4456239e-05
0.00010801767
0.01013118
-0.00015047204
9.119571e-05
0.0094226533
3.1422829e-05
0.0086312318
0.00014550274
-4.376276e-05
0.0091026218
1.5885004e-05
-4.3524274e-06
0.0099463169
-0.00012018717
-5.6001488e-06
0.010702372
-0.00017111157
-1.5145328e-05
0.011197222
-0.00010233802
-0.00014325988
-2.1117318e-05
0.011441104
-0.00012465657
0.010831584
-7.8394336e-05
0.00010076602
0.010915687
-3.9799824e-05
9.9286876e-05
0.010928662
-1.7531821e-05
9.7903301e-05
0.010916809
-7.3853398e-06
9.7019253e-05
0.010901397
-3.6168589e-06
9.6599374e-05
0.010889859
-2.5366353e-06
9.6406492e-05
0.010883079
-2.3835772e-06
9.627875e-05
0.010879682
-2.4738862e-06
9.6152671e-05
0.010878185
-2.5798167e-06
9.6013943e-05
0.010877601
-2.6389642e-06
9.5862872e-05
0.010877413
9.5701353e-05
0.010877376
3.0966218e-06
-2.4675144e-05
0.01148309
3.0137369e-06
-2.4471195e-05
0.011483123
2.8885679e-06
-2.4283038e-05
0.0114833
2.7820375e-06
-2.4117257e-05
0.011483857
2.9206398e-06
-2.3985426e-05
0.011485306
4.0219556e-06
-2.3903887e-05
0.011488631
8.0049434e-06
-2.3878601e-05
0.011495382
1.9063475e-05
-2.3875272e-05
0.011507149
4.398004e-05
-2.3808195e-05
0.011523447
8.8373369e-05
-2.3597802e-05
0.011537072
-2.3071263e-05
0.011526068
0.00015124269
-5.7389277e-05
-9.2234438e-05
0.011860578
0.00018281018
-5.6170949e-05
0.011774089
0.00013132307
-5.135779e-05
0.011524353
-1.1797122e-05
-4.2565086e-05
0.011018896
-0.00015129413
-3.6073066e-05
0.010250284
-3.8902517e-05
0.0093976048
0.00016004217
-2.7583485e-05
0.0095496936
1.5131556e-05
-2.5542545e-05
0.010396726
-0.00013219133
-3.0033157e-05
0.011163231
-0.00018493445
-3.4664252e-05
0.011669869
-0.00015271211
-3.7099836e-05
0.011921484
-9.2642067e-05
-3.7619745e-05
0.012008749
5.7204741e-05
-4.5028988e-05
-3.7389468e-05
0.012018771
-4.5237214e-05
0.011870876
-1.9202187e-05
-5.6806715e-05
0.01185611
-7.9654095e-06
-5.6512244e-05
0.011839028
-4.0794212e-06
-5.636856e-05
0.011826919
-3.0888825e-06
-5.6362698e-05
0.011820086
-3.0182642e-06
-5.6459312e-05
0.011816771
-3.1597116e-06
-5.6620517e-05
0.011815343
-3.3046623e-06
-5.6819526e-05
0.011814795
-3.4335874e-06
-5.7042191e-05
0.011814621
-5.7281766e-05
0.011814593
3.7146618e-06
-3.8044057e-05
0.011961064
3.5672724e-06
-3.7777814e-05
0.011961096
3.3766475e-06
-3.7526909e-05
0.011961274
3.2067383e-06
-3.7294951e-05
0.01196182
3.215129e-06
-3.7091995e-05
0.011963242
4.0889718e-06
-3.69392e-05
0.011966565
7.8025139e-06
-3.6865398e-05
0.011973475
1.8891706e-05
-3.6903842e-05
0.011985827
-3.7083651e-05
0.012003392
4.4669354e-05
-1.6394417e-06
-1.8679114e-05
0.012054628
9.2232495e-05
-1.4899294e-06
0.012070278
0.00015235597
-1.3885418e-06
0.012060411
0.0001845143
-1.3035681e-06
0.011973011
0.00013116432
-1.1946047e-06
0.011721279
-1.7784745e-05
-1.138251e-06
0.011215733
-0.00016488591
-8.9580488e-07
0.010452392
-7.0496123e-07
0.0096085894
0.00016484816
2.6047673e-05
0.0096085563
1.7731381e-05
2.3794291e-05
0.010452367
-0.00013123915
2.8013237e-05
0.011215714
-0.00018461246
3.2389172e-05
0.011721256
-0.00015247371
3.4604802e-05
0.011972972
-9.2368745e-05
3.4899891e-05
0.012060359
-4.4824114e-05
3.4412542e-05
0.012070212
-1.8850879e-05
3.3815073e-05
0.012054549
1.80499e-06
-7.9440511e-06
3.3309423e-05
0.012036761
-7.7563729e-06
0.012036849
-4.1701897e-06
-1.9871851e-06
0.012024387
-3.3736435e-06
-2.2210684e-06
0.01201744
-3.4059696e-06
-2.4758988e-06
0.012014112
-3.596237e-06
-2.7167405e-06
0.01201269
-3.799449e-06
-2.972534e-06
0.01201214
-3.9715808e-06
-3.2414138e-06
0.012011955
-3.5243535e-06
0.012011913
4.2475182e-06
3.1225043e-05
0.012011761
4.0610187e-06
3.1512801e-05
0.01201182
3.8439516e-06
3.1786768e-05
0.012012017
3.6389684e-06
3.205191e-05
0.012012576
3.5918612e-06
3.2316384e-05
0.012014004
4.373329e-06
3.2593913e-05
0.012017337
3.2912218e-05
0.01202429
8.353738e-06
5.2680966e-05
-4.6853401e-06
0.011973199
1.9396359e-05
5.3160139e-05
0.01198558
4.5484072e-05
5.3759254e-05
0.012003175
9.3043666e-05
5.4430149e-05
0.012018586
0.00015305707
5.485632e-05
0.012008597
0.00018521984
5.3855289e-05
0.011921364
0.00013241178
4.9255634e-05
0.011669782
-1.4973833e-05
4.0698056e-05
0.011163161
-0.00015993976
3.4452015e-05
0.010396655
3.7480813e-05
0.0095496148
0.00015113235
4.251849e-05
0.0093975
1.1546463e-05
2.9360664e-06
0.010250171
-0.00013167002
3.9730692e-06
0.011018765
-0.0001832551
1.3308885e-05
0.011524189
-0.00015178773
1.9085396e-05
0.011773885
-9.2873908e-05
2.0843765e-05
0.011860332
-4.5961013e-05
2.1156627e-05
0.01187059
-2.0003338e-05
2.1126093e-05
0.011855779
-8.839759e-06
2.0924511e-05
0.011838648
-5.0259458e-06
2.0632555e-05
0.011826488
-5.2308001e-05
-4.1058954e-06
2.0336859e-05
0.011819608
-3.8560652e-06
0.011966263
-3.8919533e-06
5.200717e-05
0.011962917
-4.104251e-06
5.1741321e-05
0.011961474
-4.3360269e-06
5.1484111e-05
0.011960902
-4.5034332e-06
5.1221381e-05
0.011960691
5.094448e-05
0.011960615
4.6989338e-06
1.9109277e-05
0.01181385
4.5194389e-06
1.9361868e-05
0.011813945
4.3107649e-06
1.960025e-05
0.011814176
4.1045078e-06
1.9832513e-05
0.011814772
2.0072205e-05
0.011816247
4.2182764e-06
-9.9465964e-05
-4.1666143e-06
0.011484604
5.2295288e-06
-9.9311579e-05
0.011487997
9.1210011e-06
-9.9242626e-05
0.011494817
2.0088705e-05
-9.9420927e-05
0.011506648
4.4910523e-05
-0.00010008689
0.011523011
8.9195772e-05
-0.0001012764
0.011536692
0.00014395103
-0.0001025831
0.011525736
0.00017166387
-0.00010399744
0.011440821
0.00012061758
-0.00010704061
0.011196991
-1.5567679e-05
-0.00010934494
0.010702188
-0.000145295
-9.2351243e-05
0.0099461631
-3.2440285e-05
0.0091024868
0.00015023922
-9.442765e-05
0.0086310746
3.4104564e-05
-0.00022348116
0.0094224704
-9.2482227e-05
-0.00026489099
0.01013096
-0.00014474821
-0.00027646033
0.01059777
-0.00012542238
-0.00028104493
0.010831245
-7.9311182e-05
-0.00028260873
0.010915292
-4.0837535e-05
-0.00028150057
0.010928222
-1.8672432e-05
-0.00027951627
0.01091631
-8.6242647e-06
-0.00027807308
0.010900826
-4.9550422e-06
-0.00027736275
0.010889205
-3.9732581e-06
-0.00027711855
0.010882343
-3.9178907e-06
-0.00027709715
0.010878863
9.9642261e-05
-4.102149e-06
-0.00027717133
0.010877272
-4.3527666e-06
0.011483081
-4.5567366e-06
-9.9827405e-05
0.011482448
-4.7397616e-06
-0.00010002383
0.0114822
-0.00010023517
0.011482093
4.660788e-06
-0.00027757595
0.010876216
4.4814303e-06
-0.00027742231
0.010876325
-0.00027728156
0.010876592
3.6967123e-06
-0.00038626336
-4.0782194e-06
0.010013203
3.4427158e-06
-0.00038622391
0.010013911
3.3313029e-06
-0.0003862611
0.01001557
3.9055041e-06
-0.00038645814
0.010019195
6.6440411e-06
-0.00038696178
0.010026306
1.4625483e-05
-0.0003879621
0.01003817
3.2670887e-05
-0.00038955769
0.010053416
6.3260132e-05
-0.00039108563
0.010063606
9.9034283e-05
-0.000390163
0.01004759
0.0001102241
-0.00038375098
0.0099618176
6.11511e-05
-0.00037068832
0.0097401926
-4.8697701e-05
-0.00034869039
0.0093189589
-0.00014887968
-0.00029761703
0.0087010444
-0.00018038447
0.0080215628
9.9115689e-05
-9.8534633e-06
0.0079462274
-5.1104883e-05
0.0084580731
-0.00010324751
0.0088321661
-6.8667937e-05
0.0090459731
-4.5700463e-05
0.0091356821
-1.8572533e-05
0.0091523606
-6.8203785e-06
0.0091421488
-2.3914682e-06
0.0091252465
-1.9425827e-06
0.0091125155
-2.4020157e-06
0.0091050186
-2.9682787e-06
0.0091013092
-3.3851999e-06
0.0090996553
-3.6566704e-06
0.0090989696
0.00038633217
-3.9639672e-06
0.0090986993
-4.4124411e-06
0.010012923
-0.00038643196
0.010012817
0.009098604
0.00047523726
0.0089332184
1.2659096e-05
3.4714486e-05
0.0080596614
-2.6694663e-05
3.6147307e-05
0.0080515573
-2.5380924e-05
3.755233e-05
0.0080437906
-2.4077993e-05
3.886517e-05
0.0080366046
-2.2774572e-05
4.0010274e-05
0.0080300142
-2.145545e-05
4.088566e-05
0.0080242114
-2.0107402e-05
4.1370582e-05
0.0080195571
-1.8722239e-05
4.1335081e-05
0.0080167907
-1.7300646e-05
4.065674e-05
0.0080172696
-1.5856264e-05
3.9237031e-05
0.0080229117
-1.4416089e-05
3.7011841e-05
0.0080347786
-1.3016721e-05
3.3957635e-05
0.0080486474
-1.1696891e-05
3.0102459e-05
0.0080466793
-1.048499e-05
2.554818e-05
0.0079880178
-9.383494e-06
2.050565e-05
0.0078134384
-8.3762551e-06
1.530231e-05
0.0074878755
-7.4716769e-06
1.0210297e-05
0.0070676811
-6.6829894e-06
5.1903187e-06
0.0067104829
-5.9575205e-06
0.0065807805
-5.3077506e-06
0.0065921192
-5.4525862e-06
-5.8861393e-06
0.0066042257
-5.6608069e-06
-6.4456257e-06
0.0066169705
-5.7892869e-06
-6.9555043e-06
0.0066301642
-5.8044539e-06
-7.3892428e-06
0.0066435564
-5.6824216e-06
-7.709851e-06
0.0066568351
-5.4093251e-06
-7.8693328e-06
0.006669647
-4.9615287e-06
-7.8503711e-06
0.0066816279
-4.3307928e-06
-7.6501259e-06
0.0066923935
-3.5222146e-06
-7.2433784e-06
0.0067015863
-2.5516651e-06
-6.6411185e-06
0.0067088689
-1.4234302e-06
-5.8592313e-06
0.0067140126
-1.9657754e-07
-4.9470575e-06
0.0067166624
1.1954633e-06
-3.8453222e-06
0.0067169804
2.4810664e-06
-2.7989916e-06
0.0067151108
3.6870187e-06
-1.8174171e-06
0.00671099
4.9111719e-06
-7.9042328e-07
0.0067047551
6.0505878e-06
1.8437339e-07
0.0066966217
7.0578868e-06
1.075449e-06
7.9188819e-06
1.8507441e-06
-6.0163199e-05
-0.0082193896
8.1535942e-06
-5.1363885e-05
-0.0082105357
6.3035524e-06
-4.2169949e-05
-0.0081445146
4.8379596e-06
-3.2924862e-05
-0.0079613888
3.7105551e-06
-2.4017517e-05
-0.0076257777
2.9499621e-06
-1.5731715e-05
-0.0071951579
2.5462577e-06
-0.0068297617
2.2627645e-06
1.4046522e-05
-0.0068381532
1.4028556e-06
2.1492829e-05
-0.0072041916
1.5874515e-06
2.9549851e-05
-0.0076356994
1.8646205e-06
3.798714e-05
-0.0079722823
2.4562216e-06
4.6477813e-05
-0.0081563838
3.3784906e-06
5.4725997e-05
-0.0082233934
4.6095583e-06
6.2425672e-05
-0.0082332875
6.1981927e-06
6.9273091e-05
-0.008227357
8.1625913e-06
7.4965769e-05
-0.0082234378
1.0492766e-05
7.9266639e-05
-0.0082254815
1.3090503e-05
8.2071696e-05
-0.0082320692
1.577611e-05
8.3464788e-05
-0.0082409483
1.8322156e-05
8.3667045e-05
-0.0082505691
2.0567503e-05
8.2949966e-05
-0.0082600842
2.2452227e-05
8.1561056e-05
-0.0082691148
2.397549e-05
7.9787085e-05
-0.0082776179
2.5200483e-05
7.7705024e-05
-0.0082855237
2.6204244e-05
7.5429513e-05
-0.0082928025
2.7056184e-05
7.299714e-05
-0.0082995622
2.7818123e-05
-0.0083059306
2.8535434e-05
-7.1851924e-05
-0.0083287157
2.4979443e-05
-7.3816472e-05
-0.0083217119
2.4114298e-05
-7.5549995e-05
-0.0083142791
2.3210174e-05
-7.7015319e-05
-0.0083062863
2.2227938e-05
-7.8130851e-05
-0.0082976161
2.1113669e-05
-7.8768586e-05
-0.0082882925
1.9815421e-05
-7.8738909e-05
-0.0082783863
1.8272419e-05
-7.7810441e-05
-0.0082679327
1.6435152e-05
-7.577034e-05
-0.0082573093
1.4320889e-05
-7.2458177e-05
-0.0082473691
1.1987729e-05
-6.786055e-05
-0.0082396853
9.6061519e-06
-6.2120657e-05
-0.0082365435
7.3658027e-06
-5.5488142e-05
-0.0082394048
5.4152842e-06
-4.8254798e-05
-0.0082443442
3.8234397e-06
-4.0690808e-05
-0.0082335348
2.5773794e-06
-3.3053069e-05
-0.0081656713
1.6498041e-06
-2.558083e-05
-0.0079807428
9.8829346e-07