/*--------------------------------*- C++ -*----------------------------------*\
| =========                 |                                                 |
| \\      /  F ield         | OpenFOAM: The Open Source CFD Toolbox           |
|  \\    /   O peration     | Version:  v2012                                 |
|   \\  /    A nd           | Website:  www.openfoam.com                      |
|    \\/     M anipulation  |                                                 |
\*---------------------------------------------------------------------------*/
FoamFile
{
    version     2.0;
    format      ascii;
    class       volVectorField;
    location    "100";
    object      U;
}
// * * * * * * * * * * * * * * * * * * * * * * * * * * * * * * * * * * * * * //

dimensions      [0 1 -1 0 0 0 0];


internalField   nonuniform List<vector> 
19523
(
(5.0002442 0.00035558911 -0.00085656262)
(5.0002408 0.00011620947 -0.00087051449)
(5.0000336 4.0057995e-05 -0.00028629199)
(5.0000458 3.9673883e-05 -9.8956234e-05)
(5.0000445 0.00011615797 -9.575115e-05)
(5.0000437 0.00019498451 -9.7126992e-05)
(5.0000438 0.00027100696 -9.2710721e-05)
(5.0000456 0.00034434975 -9.1818133e-05)
(5.0000474 0.00040167972 -8.7019491e-05)
(5.0000511 0.00044355195 -8.2440331e-05)
(5.0000541 0.00046258187 -7.74276e-05)
(5.0000576 0.00045941977 -7.2140905e-05)
(5.0000607 0.00043451013 -6.770854e-05)
(5.0000636 0.00038897543 -6.2635798e-05)
(5.0000663 0.00032996864 -6.0332593e-05)
(5.0000664 0.00025818298 -5.7244973e-05)
(5.0000685 0.00018581046 -5.7693638e-05)
(5.0000671 0.00011199824 -5.7667455e-05)
(5.0000735 3.8737469e-05 -5.9483313e-05)
(5.0000653 3.7400657e-05 -0.00017221014)
(5.0000681 3.6265625e-05 -0.00028844873)
(5.0000666 3.6211831e-05 -0.00040668546)
(5.0000684 3.8676731e-05 -0.00053318751)
(5.0000673 4.150794e-05 -0.00065229132)
(5.0000664 4.7490289e-05 -0.00076888975)
(5.0000663 5.2745875e-05 -0.00087357878)
(5.0000668 5.899628e-05 -0.00096820852)
(5.0000684 6.4924118e-05 -0.0010506606)
(5.0000706 7.1135797e-05 -0.0011216203)
(5.0000733 7.7725615e-05 -0.0011814642)
(5.0000765 8.4811167e-05 -0.0012310071)
(5.0000802 9.237177e-05 -0.0012710816)
(5.0000844 0.00010040154 -0.001302581)
(5.0000891 0.00010889579 -0.0013263414)
(5.0000943 0.00011787165 -0.0013430688)
(4.9999307 0.00014018731 -0.0025723197)
(4.9999387 0.00012801876 -0.0024737714)
(4.9999465 0.00011681316 -0.0023751005)
(4.9999542 0.00010645806 -0.0022743385)
(4.999962 9.6778898e-05 -0.0021688252)
(4.99997 8.7704473e-05 -0.0020559288)
(4.9999782 7.9202472e-05 -0.0019326836)
(4.9999867 7.1403841e-05 -0.0017962698)
(4.9999969 6.4607467e-05 -0.0016449514)
(5.0000051 5.9302931e-05 -0.0014768742)
(5.0000144 5.5472624e-05 -0.0012947237)
(5.0000239 5.3960104e-05 -0.0010945345)
(5.0000306 5.1730844e-05 -0.00089200027)
(5.0000331 4.7134094e-05 -0.00067859004)
(5.0000364 4.582807e-05 -0.00048020635)
(5.0002281 0.00012231302 -0.0014649117)
(5.0002048 0.00013035951 -0.0020921916)
(5.0001769 0.00014289488 -0.0027354302)
(5.000135 0.00015439818 -0.0033704567)
(5.0000854 0.00016529232 -0.0039769924)
(5.000029 0.00017873935 -0.0045410034)
(4.9999663 0.00019446791 -0.0050547525)
(4.9999026 0.00021426987 -0.0055175758)
(4.9998385 0.00023717044 -0.0059344117)
(4.9997757 0.00026234211 -0.0063109501)
(4.9997146 0.00028951063 -0.0066555428)
(4.9996554 0.00031866192 -0.0069774591)
(4.9995973 0.00034997662 -0.0072855568)
(4.999539 0.00038384847 -0.0075878398)
(4.9994788 0.00042059658 -0.007890292)
(5.1731842 -0.00057561801 0.015465753)
(5.1845326 -0.00031841073 0.012782715)
(5.1941015 -3.01199e-05 0.0096218574)
(5.2015694 0.00028822357 0.0059697303)
(5.2065619 0.00063809368 0.0018310203)
(5.2086221 0.0010191354 -0.0027741869)
(5.2075049 0.0013983506 -0.0076761599)
(5.2026706 0.0018305862 -0.013327525)
(5.194054 0.0022574969 -0.018925754)
(5.1814111 0.0026584069 -0.024237948)
(5.1651056 0.0030028657 -0.028660853)
(5.1460384 0.0032403304 -0.031381064)
(5.1261802 0.0033297928 -0.031998548)
(5.1069223 0.003282208 -0.030911377)
(5.0892444 0.0031280319 -0.028659463)
(5.0736588 0.0029021257 -0.025762757)
(5.0602872 0.0026352659 -0.022641458)
(5.0490242 0.0023522445 -0.01958)
(5.039641 0.0020706773 -0.016743608)
(5.0318676 0.0018019682 -0.014208623)
(5.0254378 0.0015524534 -0.011992744)
(5.0201137 0.0013246719 -0.010079224)
(5.0156943 0.0011184196 -0.0084337031)
(5.0120177 0.00093220138 -0.0070160276)
(5.00896 0.00076415749 -0.005786242)
(5.0064333 0.00061439521 -0.0047112914)
(5.0043797 0.00048221736 -0.0037599922)
(5.0027669 0.00037033026 -0.0029183208)
(5.0015652 0.00027464088 -0.0021626042)
(5.0007369 0.00019221139 -0.0014891894)
(5.0006906 0.00019742524 -0.002524526)
(5.0006227 0.00021129176 -0.0036158482)
(5.0005286 0.00023190346 -0.0047319076)
(5.0004015 0.00025377511 -0.0058334862)
(5.000249 0.00027598918 -0.0068827317)
(5.0000753 0.00030151328 -0.0078565821)
(4.9998868 0.00033153858 -0.0087419631)
(4.9996908 0.00036724708 -0.0095380827)
(4.9994928 0.00040778236 -0.010252208)
(4.9992978 0.00045219819 -0.010895587)
(4.9991083 0.00050009586 -0.011483445)
(4.9989247 0.00055144051 -0.012032698)
(4.998745 0.00060654315 -0.01255979)
(4.998565 0.00066602604 -0.013079156)
(4.9983787 0.00073050473 -0.013601511)
(5.6615649 -0.21470243 0.10662608)
(5.6787246 -0.19670735 0.10681629)
(5.6868763 -0.18232027 0.10999522)
(5.6881179 -0.17758858 0.11013271)
(5.692304 -0.17098004 0.11016996)
(5.695824 -0.16554631 0.1102946)
(5.6990168 -0.15867992 0.11095949)
(5.7033842 -0.1535754 0.11168754)
(5.7082969 -0.14793346 0.11112201)
(5.7127293 -0.14227502 0.11166778)
(5.7262392 -0.13103321 0.11586497)
(5.7407067 -0.1075131 0.11744101)
(5.7479037 -0.089994041 0.12090225)
(5.749876 -0.083424501 0.12054591)
(5.7660402 -0.068674217 0.12443962)
(5.7813135 -0.04561069 0.1249825)
(5.7875257 -0.032291203 0.12514344)
(5.7907793 -0.0233901 0.12513836)
(5.8021996 -0.0052545998 0.12907757)
(5.8125782 0.01904052 0.13580775)
(5.8199226 0.034727481 0.14340851)
(5.8219478 0.056502775 0.14282973)
(5.8347754 0.089426821 0.1494205)
(5.8453392 0.1303781 0.15533527)
(5.851694 0.17322977 0.16146573)
(5.8586868 0.2149744 0.16492684)
(5.8683531 0.25233095 0.17145397)
(5.8599117 0.28453623 0.17022354)
(5.8628245 0.31579836 0.17452355)
(5.8643818 0.38775881 0.18182536)
(5.8615636 0.43690197 0.18426143)
(5.8607117 0.50941643 0.18779293)
(5.8504144 0.58110707 0.18894715)
(5.8377358 0.65571597 0.18753115)
(5.822083 0.73948974 0.18453893)
(5.8018732 0.83126415 0.18102983)
(5.7731554 0.93319362 0.17283744)
(5.7299559 1.0373308 0.15947811)
(5.7049609 1.1158947 0.1468178)
(5.6351112 1.2243234 0.12235125)
(5.5650144 1.3796516 0.1020518)
(5.4725223 1.5492406 0.071308224)
(5.3225869 1.7387342 0.017022058)
(5.2012936 1.876874 -0.044809865)
(4.8727835 2.195929 -0.15421993)
(4.5279121 2.3965024 -0.30406063)
(4.0393429 2.4226396 -0.54556795)
(3.023677 2.2629213 -0.91972175)
(2.1618198 0.95446079 -1.2436275)
(2.479916 0.1104583 -1.0199275)
(2.7122075 0.027966278 -1.0014255)
(3.6572692 0.097673312 -0.5580511)
(4.1498471 0.1135345 -0.37848463)
(4.388116 0.068562904 -0.29154436)
(4.5428251 0.045333628 -0.24237914)
(4.6824355 0.037726339 -0.18304661)
(4.7786586 0.032340645 -0.14924027)
(4.8405441 0.021487283 -0.12594121)
(4.8840532 0.015203169 -0.10784877)
(4.9150452 0.010942318 -0.092846439)
(4.9376967 0.008052411 -0.08000923)
(4.9545485 0.0060331484 -0.068804705)
(4.9672193 0.0045785403 -0.058815956)
(4.9768187 0.0035031587 -0.04976691)
(4.9841046 0.0026866583 -0.041450061)
(4.9895943 0.0020470645 -0.03372555)
(4.9936386 0.0015279918 -0.026517779)
(4.9964936 0.0010950184 -0.019806822)
(5.0683857 0.0048628127 -0.02259568)
(5.064465 0.0045985402 -0.0233151)
(5.0607712 0.0043388988 -0.023990174)
(5.0573396 0.0040820575 -0.024601976)
(5.0542031 0.0038258652 -0.025117733)
(5.0513894 0.0035682914 -0.025490382)
(5.0489173 0.0033080685 -0.025660235)
(5.0467942 0.0030452725 -0.025559933)
(5.0450133 0.0027817018 -0.025121891)
(5.0435541 0.0025208726 -0.024286903)
(5.0423856 0.0022677035 -0.023012129)
(5.0414703 0.0020282755 -0.021276911)
(5.0407696 0.00181001 -0.019087846)
(5.0402475 0.0016215958 -0.016487772)
(5.039873 0.0014710913 -0.013566041)
(5.039621 0.0013636116 -0.010460311)
(5.0394737 0.0013011735 -0.0073287199)
(5.0394188 0.0012826369 -0.0043038533)
(5.0394473 0.0012942226 -0.0014109954)
(5.0324564 0.0011353395 -0.0013004078)
(5.026177 0.00098426947 -0.0011825293)
(5.020596 0.00084422111 -0.001061294)
(5.0156912 0.00071684525 -0.0009388829)
(5.0114643 0.00060083717 -0.00081487377)
(5.0079061 0.00049293901 -0.00068759547)
(5.0050563 0.00039174139 -0.00056035938)
(5.0028947 0.000290036 -0.00042528255)
(5.0013884 0.00020269797 -0.00030277097)
(5.0004762 0.00011415148 -0.00017455244)
(5.0004567 0.00011457698 -0.00052017458)
(5.001372 0.00020047223 -0.00088038343)
(5.0028803 0.00029504915 -0.0012521095)
(5.0050384 0.00040055626 -0.0016439533)
(5.0078827 0.0005058109 -0.0020432257)
(5.0114205 0.000609394 -0.0024496185)
(5.0156391 0.00071846941 -0.0028509847)
(5.0205367 0.00084051398 -0.0032425983)
(5.0261214 0.00097684685 -0.0036183499)
(5.032411 0.0011252665 -0.0039743244)
(5.0324363 0.0011401919 -0.0067712533)
(5.0325299 0.0011905248 -0.0096735161)
(5.0326987 0.0012782064 -0.012564168)
(5.032957 0.0014024357 -0.015302339)
(5.0333278 0.0015590931 -0.017766302)
(5.0338385 0.0017412776 -0.019877229)
(5.0345209 0.001941759 -0.021597646)
(5.0354081 0.0021548253 -0.022921158)
(5.036532 0.0023761721 -0.023864039)
(5.0379195 0.0026023913 -0.024459891)
(5.0395888 0.0028310516 -0.024755352)
(5.0415473 0.0030608667 -0.0248039)
(5.0437913 0.0032917531 -0.02465952)
(5.0463071 0.0035246007 -0.024370723)
(5.0490739 0.0037608876 -0.023976517)
(5.0520657 0.0040022361 -0.023504639)
(5.055254 0.0042500868 -0.022971279)
(5.0412446 0.0034379939 -0.023009876)
(5.0388778 0.0032196557 -0.023313785)
(5.0366976 0.0030076584 -0.02353198)
(5.0347239 0.0028007866 -0.023641491)
(5.0329724 0.0025979484 -0.023610584)
(5.0314527 0.002398509 -0.02340031)
(5.0301663 0.0022025171 -0.022967953)
(5.0291059 0.0020108404 -0.022271525)
(5.0282561 0.0018251321 -0.021274689)
(5.0275945 0.0016476648 -0.019951251)
(5.0270946 0.0014814462 -0.018288719)
(5.026729 0.0013308901 -0.016293342)
(5.026471 0.0012020309 -0.013997873)
(5.0262968 0.0011006953 -0.011471341)
(5.0261863 0.0010301095 -0.0088202412)
(5.0261287 0.00098971938 -0.0061689449)
(5.0205345 0.00085307721 -0.0055337632)
(5.0205698 0.00088562682 -0.007918405)
(5.0206414 0.00094138315 -0.010310798)
(5.0207567 0.0010229541 -0.01260269)
(5.0209328 0.0011277109 -0.014702516)
(5.0211896 0.001250824 -0.016550163)
(5.0215486 0.0013872188 -0.018117111)
(5.0220319 0.0015334638 -0.01939725)
(5.0226606 0.0016875064 -0.02039987)
(5.0234527 0.001847862 -0.021145246)
(5.024421 0.0020134739 -0.02166141)
(5.0255721 0.0021837756 -0.021980951)
(5.0269054 0.0023587525 -0.022137339)
(5.0284146 0.0025388789 -0.022161391)
(5.0300882 0.0027249617 -0.022078498)
(5.0319109 0.0029179147 -0.021907269)
(5.0239567 0.0024473634 -0.020271979)
(5.0225976 0.0022804848 -0.02034411)
(5.0213533 0.0021204582 -0.020329774)
(5.0202347 0.0019665904 -0.020214296)
(5.0192502 0.001818297 -0.01997771)
(5.0184041 0.0016752231 -0.019595996)
(5.0176961 0.0015373425 -0.019043313)
(5.0171208 0.0014050107 -0.018294633)
(5.0166681 0.0012788462 -0.017328595)
(5.0163239 0.0011599147 -0.016129656)
(5.0160721 0.001049446 -0.01469104)
(5.0158955 0.00095017372 -0.013018821)
(5.0157772 0.00086650495 -0.011137807)
(5.0157017 0.00080247701 -0.0090996423)
(5.0156562 0.00076006895 -0.0069807918)
(5.0156345 0.00073320252 -0.0048735443)
(5.0114174 0.00062697949 -0.0041951324)
(5.0114311 0.00065106428 -0.0060147887)
(5.0114588 0.00068375869 -0.0078492193)
(5.0115064 0.00073181785 -0.0096194238)
(5.0115833 0.00079671506 -0.011262062)
(5.0117009 0.00087524241 -0.012735056)
(5.0118717 0.00096314992 -0.014017152)
(5.0121084 0.0010580965 -0.015102183)
(5.0124231 0.0011596623 -0.015994974)
(5.0128259 0.0012669191 -0.016707345)
(5.0133245 0.0013795451 -0.017255281)
(5.0139229 0.0014973808 -0.017657729)
(5.0146218 0.0016204812 -0.017934346)
(5.0154183 0.0017491195 -0.018103539)
(5.0163066 0.0018837184 -0.018180692)
(5.0111429 0.0015261631 -0.015661869)
(5.0105424 0.0014161799 -0.015552068)
(5.0100051 0.0013116771 -0.015361959)
(5.009535 0.0012123694 -0.015079956)
(5.0091337 0.0011180509 -0.01469224)
(5.0088006 0.001028615 -0.014184124)
(5.0085328 0.00094401223 -0.013541419)
(5.0083249 0.00086421272 -0.012752134)
(5.0081699 0.00078929522 -0.011807799)
(5.0080593 0.00071984394 -0.010705536)
(5.0079843 0.00065804286 -0.0094507543)
(5.0079366 0.00060765901 -0.0080611101)
(5.0079082 0.0005709729 -0.006570792)
(5.0078915 0.00054532881 -0.0050310343)
(5.0078824 0.00052382055 -0.0035068131)
(5.0050368 0.00041590928 -0.0028186835)
(5.0050422 0.00043350828 -0.0040439936)
(5.005052 0.00045273049 -0.0052842752)
(5.0050681 0.00047986105 -0.006487887)
(5.0050963 0.00051804836 -0.0076144337)
(5.0051414 0.00056563612 -0.0086371695)
(5.0052087 0.00061929107 -0.0095419332)
(5.0053038 0.00067706571 -0.010324049)
(5.0054317 0.00073861949 -0.010985249)
(5.0055973 0.000804084 -0.011531636)
(5.0058039 0.0008735605 -0.011971887)
(5.0060538 0.00094715798 -0.012316264)
(5.0063475 0.0010249876 -0.012575468)
(5.0066837 0.0011072026 -0.012759572)
(5.0070603 0.0011940144 -0.012877035)
(5.0040072 0.00088214515 -0.0099404152)
(5.0037949 0.00081704412 -0.009834538)
(5.0036056 0.00075543996 -0.0096768813)
(5.0034404 0.0006971741 -0.0094615269)
(5.0033 0.00064213542 -0.009181425)
(5.0031841 0.00059024744 -0.0088290978)
(5.0030914 0.00054144069 -0.0083974538)
(5.00302 0.00049572404 -0.0078804131)
(5.0029672 0.00045287215 -0.0072736211)
(5.00293 0.0004129006 -0.0065761174)
(5.0029055 0.00037749038 -0.0057916524)
(5.0028909 0.00034931794 -0.0049311117)
(5.0028836 0.00032993756 -0.0040144505)
(5.0028788 0.0003166658 -0.0030723903)
(5.0028769 0.00030481918 -0.0021430572)
(5.0013677 0.0002022047 -0.0014941097)
(5.0013663 0.00020796456 -0.0021363472)
(5.0013687 0.00021692499 -0.0027887633)
(5.0013709 0.00023093335 -0.003426185)
(5.0013777 0.00025151892 -0.0040262418)
(5.001389 0.00027650188 -0.0045748947)
(5.0014067 0.00030458855 -0.0050641633)
(5.0014319 0.000334419 -0.0054916243)
(5.0014659 0.0003660409 -0.0058578702)
(5.0015101 0.00039964154 -0.0061656083)
(5.0015652 0.00043536835 -0.0064187762)
(5.0016318 0.00047328783 -0.0066220551)
(5.0017102 0.00051345519 -0.0067803408)
(5.0018 0.00055593628 -0.006898259)
(5.0019006 0.0006008478 -0.0069796684)
(5.0006356 0.00035126928 -0.0041006032)
(5.0006016 0.00032468852 -0.0040504096)
(5.0005712 0.00029954597 -0.0039787409)
(5.0005446 0.00027576383 -0.0038833998)
(5.0005218 0.00025332067 -0.0037617901)
(5.0005028 0.00023219528 -0.003611155)
(5.0004874 0.00021236386 -0.0034288676)
(5.0004754 0.00019365808 -0.0032127026)
(5.0004665 0.00017590475 -0.0029611763)
(5.0004604 0.0001586847 -0.0026738953)
(5.0004569 0.00014351497 -0.0023524564)
(5.0004547 0.00012999928 -0.0020013161)
(5.0004548 0.00012173354 -0.0016293505)
(5.0004523 0.00011654561 -0.0012491191)
(5.0004548 0.00011451568 -0.00087597802)
(5.0004412 0.00034184767 -0.00088114661)
(5.00006 0.00011530711 -0.00029058152)
(5.0000595 0.00011267361 -0.00017291633)
(5.0000592 0.00018796239 -0.00017579728)
(5.0000595 0.00019309033 -0.00029661502)
(5.0000616 0.00020185505 -0.00042679543)
(5.0000609 0.00011967297 -0.00041498202)
(5.0000622 0.00012660763 -0.00054236271)
(5.000062 0.00013578127 -0.00066547875)
(5.0000611 0.00014677358 -0.00078213816)
(5.0000604 0.00016040732 -0.00088886477)
(5.0000601 0.0001758698 -0.00098472713)
(5.0000606 0.00019324892 -0.0010688443)
(5.0000617 0.00021213226 -0.0011413148)
(5.0000633 0.00023238312 -0.0012025394)
(5.0000653 0.00025390225 -0.0012532331)
(5.0000679 0.00027669861 -0.0012943526)
(5.000071 0.0003008025 -0.0013268245)
(5.0000746 0.0003262768 -0.001351521)
(5.0000786 0.00035319244 -0.0013691559)
(5.0000769 0.00060161564 -0.0014173191)
(5.000073 0.0005557197 -0.0013978501)
(5.0000696 0.00051231202 -0.0013713034)
(5.0000667 0.00047126153 -0.0013369391)
(5.0000643 0.00043247866 -0.0012938457)
(5.0000625 0.00039591599 -0.0012410452)
(5.0000611 0.00036161191 -0.0011776629)
(5.0000604 0.00032966652 -0.0011028633)
(5.0000603 0.00030024524 -0.0010160543)
(5.000061 0.00027369456 -0.00091718922)
(5.0000622 0.00025026646 -0.0008068711)
(5.0000632 0.00023057713 -0.000686805)
(5.0000632 0.00021446407 -0.0005589118)
(5.0000646 0.00030694095 -0.00058102176)
(5.0000627 0.00028831568 -0.00044282505)
(5.0000602 0.00027434316 -0.00030645484)
(5.0000589 0.00026489161 -0.00018029492)
(5.0000584 0.00033790099 -0.00018760718)
(5.0000599 0.00035106508 -0.00031935547)
(5.0000627 0.00036994996 -0.00046199684)
(5.0000646 0.00039427454 -0.00060649253)
(5.0000643 0.00042465115 -0.00074588095)
(5.0000645 0.00033036828 -0.00071437529)
(5.0000632 0.00035900984 -0.00083941159)
(5.0000616 0.00039272739 -0.0009541847)
(5.0000606 0.0004310007 -0.0010572192)
(5.0000603 0.00047329481 -0.0011478728)
(5.0000608 0.00051923104 -0.0012262514)
(5.000062 0.00056857082 -0.0012929285)
(5.0000637 0.00062119646 -0.0013487666)
(5.000066 0.00067708755 -0.0013947811)
(5.0000688 0.00073630748 -0.0014320243)
(5.0000722 0.00079900287 -0.0014614678)
(5.000076 0.00086536989 -0.0014839028)
(5.0000725 0.001119181 -0.0015640233)
(5.0000688 0.0010326399 -0.0015373893)
(5.0000656 0.00095101479 -0.0015039465)
(5.000063 0.00087401721 -0.0014628517)
(5.0000609 0.00080143654 -0.0014130496)
(5.0000595 0.00073316812 -0.0013533842)
(5.0000586 0.0006692259 -0.001282728)
(5.0000584 0.00060974448 -0.0012001147)
(5.000059 0.00055499785 -0.001104879)
(5.0000605 0.00050543787 -0.00099684781)
(5.0000625 0.00046175131 -0.00087667466)
(5.0000595 0.00054847302 -0.00091945592)
(5.0000618 0.00050402559 -0.00078202888)
(5.0000625 0.00046766866 -0.00063576599)
(5.0000608 0.00043851622 -0.0004842227)
(5.000058 0.00041570742 -0.00033456992)
(5.0000562 0.00039944844 -0.00019617855)
(5.0000532 0.00044499376 -0.00020648836)
(5.0000548 0.00046303794 -0.00035240719)
(5.0000574 0.00048875004 -0.00051015437)
(5.0000587 0.00052162014 -0.00066989107)
(5.0000576 0.00056263987 -0.0008242107)
(5.0000546 0.00061282927 -0.00096940252)
(5.0000511 0.00067203041 -0.0011032297)
(5.0000569 0.00060085634 -0.0010459185)
(5.0000548 0.0006603172 -0.0011598052)
(5.0000536 0.00072602937 -0.0012604587)
(5.0000532 0.00079745808 -0.0013481202)
(5.0000535 0.00087430476 -0.0014235788)
(5.0000544 0.00095643558 -0.0014879397)
(5.0000559 0.0010438652 -0.0015424745)
(5.0000579 0.0011367546 -0.0015884728)
(5.0000606 0.0012354008 -0.0016270979)
(5.0000638 0.0013401947 -0.0016592573)
(5.0000499 0.0015124508 -0.0017722891)
(5.0000477 0.0013925954 -0.001733247)
(5.000046 0.0012800414 -0.0016882203)
(5.0000448 0.0011742776 -0.0016362126)
(5.0000442 0.0010749064 -0.0015759286)
(5.0000442 0.0009816806 -0.0015059101)
(5.0000448 0.00089455532 -0.0014247084)
(5.0000461 0.00081365154 -0.001331048)
(5.0000482 0.00073928043 -0.0012239978)
(5.0000401 0.00078632415 -0.0012965681)
(5.0000441 0.00071400109 -0.0011680001)
(5.0000485 0.00065038576 -0.0010258392)
(5.0000524 0.00059649077 -0.00087185338)
(5.0000541 0.00055247115 -0.00070839033)
(5.0000532 0.00051724218 -0.00053935179)
(5.000051 0.00048977566 -0.00037255031)
(5.0000496 0.00047058422 -0.00021826898)
(5.0000458 0.0004739602 -0.00023065647)
(5.0000469 0.00049352562 -0.00039395496)
(5.0000488 0.00052154512 -0.00057047869)
(5.0000492 0.00055754096 -0.00074946152)
(5.0000468 0.00060257056 -0.00092270839)
(5.000042 0.00065774072 -0.001086102)
(5.0000364 0.00072290226 -0.0012371835)
(5.0000312 0.00079704427 -0.0013741168)
(5.0000267 0.00087917451 -0.0014962634)
(5.0000369 0.00086637438 -0.0014108949)
(5.0000345 0.00095352961 -0.0015114087)
(5.0000327 0.0010474752 -0.0015992023)
(5.0000315 0.0011481495 -0.0016757291)
(5.0000308 0.0012556505 -0.0017426668)
(5.0000307 0.0013702805 -0.0018016911)
(5.0000311 0.0014925709 -0.0018542455)
(5.000032 0.0016231467 -0.001901424)
(5.0000089 0.0016613314 -0.0020411139)
(5.0000102 0.0015254912 -0.0019848076)
(5.0000119 0.0013986091 -0.0019238536)
(5.0000142 0.0012800138 -0.0018570607)
(5.0000171 0.0011690059 -0.0017827859)
(5.0000197 0.0010652727 -0.0016991028)
(5.000023 0.00096865176 -0.0016041561)
(5.0000108 0.0009370888 -0.0016983304)
(5.0000165 0.00084954967 -0.001582829)
(5.0000224 0.00076935017 -0.0014527388)
(5.0000289 0.00069700075 -0.0013073082)
(5.0000356 0.00063346315 -0.0011471759)
(5.0000414 0.00057969467 -0.00097423979)
(5.0000446 0.00053585109 -0.00079106664)
(5.0000447 0.00050083922 -0.00060198946)
(5.0000431 0.00047360684 -0.00041563109)
(5.0000422 0.00045458012 -0.00024339988)
(5.000039 0.00041316102 -0.0002546857)
(5.00004 0.00043103227 -0.00043608735)
(5.0000413 0.000456182 -0.00063206301)
(5.0000408 0.00048847764 -0.00083088182)
(5.0000369 0.00052894202 -0.0010236029)
(5.0000303 0.00057872854 -0.0012056865)
(5.0000224 0.00063750462 -0.001374466)
(5.0000147 0.00070442081 -0.0015280207)
(5.000007 0.00077857436 -0.001665839)
(4.9999991 0.00085931011 -0.0017887858)
(4.9999945 0.00094715139 -0.0018984726)
(5.0000047 0.0010317808 -0.0018007309)
(5.0000002 0.0011335401 -0.0018918999)
(4.9999976 0.001242642 -0.001973888)
(4.9999952 0.0013594904 -0.0020489013)
(4.9999933 0.0014847336 -0.002118789)
(4.9999915 0.0016192136 -0.0021847901)
(4.9999716 0.001494817 -0.0023238579)
(4.9999756 0.0013689188 -0.0022480746)
(4.9999798 0.0012520083 -0.0021694035)
(4.9999843 0.0011431324 -0.0020863388)
(4.9999893 0.001041703 -0.0019968349)
(4.999979 0.00089683436 -0.0020872269)
(4.9999856 0.00081476875 -0.0019824531)
(4.999993 0.00073866294 -0.0018661687)
(5.0000008 0.00066844755 -0.0017366826)
(5.0000098 0.00060476249 -0.0015926067)
(5.0000185 0.00054735912 -0.0014321929)
(5.0000269 0.00049654943 -0.0012561083)
(5.0000338 0.00045330738 -0.0010660973)
(5.000038 0.00041813408 -0.0008650201)
(5.0000389 0.00039021866 -0.00065790176)
(5.0000378 0.00036857553 -0.00045400148)
(5.0000369 0.00035347352 -0.00026580325)
(5.0000352 0.00027919318 -0.00027279213)
(5.000036 0.00029082722 -0.00046641097)
(5.0000369 0.00030762786 -0.0006753589)
(5.0000358 0.00032963952 -0.00088799729)
(5.0000319 0.00035743218 -0.0010947905)
(5.0000253 0.0003916433 -0.0012900904)
(5.0000166 0.00043174776 -0.0014706832)
(5.0000066 0.0004767346 -0.0016354562)
(4.9999983 0.00052745906 -0.0017848372)
(4.9999876 0.00058354083 -0.0019192257)
(4.9999795 0.00064404415 -0.0020396931)
(4.9999721 0.00070932993 -0.002148998)
(4.9999651 0.00077963178 -0.0022501462)
(4.9999728 0.0009850863 -0.002183485)
(4.999967 0.0010799678 -0.0022738367)
(4.9999613 0.0011821275 -0.0023605321)
(4.9999557 0.0012924157 -0.0024452408)
(4.9999451 0.0010255081 -0.0025304279)
(4.9999518 0.00093711153 -0.0024388021)
(4.9999584 0.00085538654 -0.0023459743)
(4.9999527 0.00060302654 -0.0023788757)
(4.9999599 0.00054944367 -0.0022801171)
(4.9999674 0.00049971171 -0.0021762389)
(4.9999753 0.00045354072 -0.0020642798)
(4.9999837 0.00041075581 -0.0019413926)
(4.9999941 0.00037129088 -0.0018049032)
(5.0000042 0.0003349363 -0.0016528467)
(5.0000136 0.00030277585 -0.0014855441)
(5.0000224 0.00027461431 -0.0013031103)
(5.0000289 0.00025051708 -0.0011056955)
(5.0000329 0.00023156361 -0.00089700612)
(5.0000343 0.00021615957 -0.00068298546)
(5.000034 0.00020516348 -0.00047355136)
(5.0000338 0.00019835467 -0.00027964366)
(5.0000331 0.0001177937 -0.00028363457)
(5.000033 0.00012096808 -0.00047733585)
(5.0000319 0.00012568594 -0.00068295615)
(5.0000299 0.00013535552 -0.00089435246)
(5.0000248 0.00014541956 -0.0011006008)
(5.0000178 0.00016021203 -0.0012983727)
(5.0000093 0.00017649364 -0.0014806892)
(5.0000004 0.000196471 -0.0016481564)
(4.9999895 0.00021763923 -0.0018001915)
(4.9999804 0.00024065177 -0.0019366602)
(4.999972 0.00026556739 -0.0020598024)
(4.999964 0.00029251924 -0.0021723064)
(4.9999562 0.00032160472 -0.0022772062)
(4.9999486 0.00035302418 -0.0023776811)
(4.999941 0.0003870345 -0.0024761442)
(4.9999456 0.00066091542 -0.0024750905)
(4.9999382 0.00072362071 -0.0025706151)
(4.9999332 0.00042394261 -0.0025743948)
(4.999485 0.0012721115 -0.007908178)
(5.0832072 0.0054798928 -0.021439783)
(5.0784934 0.0052078261 -0.022370604)
(5.0740314 0.0049374784 -0.023281107)
(5.0698642 0.0046665117 -0.024150097)
(5.0660331 0.0043920632 -0.024939833)
(5.0625735 0.0041113115 -0.025594496)
(5.0595116 0.0038224051 -0.026041717)
(5.0568595 0.0035253059 -0.026198354)
(5.0546128 0.0032224475 -0.025979785)
(5.0527497 0.0029187796 -0.025311584)
(5.0512352 0.0026212484 -0.024139689)
(5.0500274 0.0023382708 -0.022438241)
(5.0490827 0.0020794813 -0.020214326)
(5.0483616 0.0018553629 -0.017516766)
(5.0478315 0.0016752517 -0.014446297)
(5.0474655 0.0015453115 -0.011156956)
(5.0472428 0.0014686965 -0.0078249025)
(5.0471443 0.0014449521 -0.0045978143)
(5.0471499 0.0014569121 -0.0015100207)
(5.0555399 0.0016186303 -0.0015930292)
(5.064565 0.0017734067 -0.0016549996)
(5.0741371 0.0019137882 -0.0016905801)
(5.0841329 0.002031977 -0.0016930656)
(5.0943762 0.0021194917 -0.0016567924)
(5.1046763 0.0021661118 -0.0015749729)
(5.1147652 0.0021629527 -0.0014421708)
(5.1243469 0.0021074448 -0.0012567647)
(5.1331623 0.00199621 -0.0010186474)
(5.140872 0.0018325438 -0.00073326485)
(5.1472808 0.0016192097 -0.00040295879)
(5.1520489 0.0013712015 -4.582237e-05)
(5.1551877 0.001069169 0.0003675652)
(5.1561611 0.00076557072 0.00077083835)
(5.1556183 0.00052633174 0.0010788144)
(5.1533268 0.00024194589 0.0014396984)
(5.1493092 -2.7636766e-05 0.0017762446)
(5.1437478 -0.00027087774 0.0020740285)
(5.1368252 -0.00048230483 0.0023269551)
(5.157124 -0.0016905514 0.040722964)
(5.152026 -0.0012933547 0.035349406)
(5.1475238 -0.00098184726 0.029602424)
(5.1437704 -0.00075536706 0.023702981)
(5.1408674 -0.00060909598 0.017873729)
(5.1388165 -0.00052795383 0.01231293)
(5.1375132 -0.00049347981 0.0071396787)
(5.1445127 -0.00028280181 0.0063706728)
(5.1459659 -0.00031009417 0.011004162)
(5.1482681 -0.00037186546 0.016011891)
(5.1515406 -0.00048808744 0.021301186)
(5.1557824 -0.0006759663 0.026711292)
(5.16088 -0.00094143732 0.032054335)
(5.1666613 -0.0012861074 0.037135881)
(5.1729397 -0.0017047094 0.041767221)
(5.1795279 -0.0021927844 0.045764318)
(5.1862447 -0.0027314805 0.048943296)
(5.1929257 -0.0032859257 0.051189555)
(5.1994194 -0.0038114694 0.05248972)
(5.2056353 -0.0042758385 0.052953168)
(5.2115023 -0.0046666827 0.052748461)
(5.2169937 -0.0049837202 0.052050465)
(5.2221039 -0.0052396484 0.05102379)
(5.2268471 -0.0054496781 0.04977943)
(5.2312501 -0.0056278104 0.048392922)
(5.2353403 -0.0057869007 0.046903758)
(5.2391471 -0.005936442 0.045319319)
(5.254664 -0.0052016816 0.044732674)
(5.2504797 -0.0050218586 0.04604521)
(5.2459851 -0.0048337711 0.047216523)
(5.2411477 -0.0046293225 0.048238779)
(5.2359357 -0.0043972861 0.04907176)
(5.2303165 -0.0041270445 0.049648213)
(5.2242709 -0.0038065692 0.049872413)
(5.2177992 -0.003425958 0.049601179)
(5.2109282 -0.0029888112 0.048694403)
(5.2037329 -0.0025071117 0.047018652)
(5.1963172 -0.0020148475 0.044508269)
(5.1888544 -0.0015492206 0.041216568)
(5.1815378 -0.0011387919 0.0372707)
(5.1745729 -0.00079626249 0.032855844)
(5.1681695 -0.00052081423 0.02814244)
(5.1625338 -0.00031504576 0.023294013)
(5.1578531 -0.00017611981 0.018472493)
(5.1542506 -9.7038836e-05 0.013824833)
(5.1517254 -5.8866001e-05 0.0094697546)
(5.1501419 -4.0612265e-05 0.0054706204)
(5.1542198 0.000226843 0.0044609472)
(5.1559076 0.00022020228 0.0077454224)
(5.1586136 0.00020935101 0.011360529)
(5.1624873 0.00017373205 0.015276705)
(5.1675322 9.3186096e-05 0.019420438)
(5.1736185 -4.0198898e-05 0.023690829)
(5.1805485 -0.00023073104 0.027963622)
(5.1881017 -0.00047911583 0.032106381)
(5.1960512 -0.00079247138 0.035966617)
(5.204172 -0.0011656814 0.039361478)
(5.2122467 -0.0015790888 0.042150191)
(5.2200848 -0.0020047181 0.044232381)
(5.2275693 -0.0024065432 0.045621701)
(5.2346228 -0.002772396 0.046409812)
(5.2412172 -0.003094436 0.046697947)
(5.2473559 -0.0033787095 0.046606045)
(5.2530606 -0.0036333641 0.046214369)
(5.258367 -0.0038649607 0.045582534)
(5.2633099 -0.0040831094 0.044753096)
(5.2679217 -0.0042942842 0.043735349)
(5.2784501 -0.0032298024 0.042279536)
(5.2733615 -0.002988246 0.042985509)
(5.2679281 -0.0027408757 0.043457286)
(5.2621206 -0.0024833425 0.043682708)
(5.2558998 -0.0022072002 0.043617253)
(5.2492306 -0.0019105828 0.043208296)
(5.242095 -0.0015899909 0.042389354)
(5.2344905 -0.0012439637 0.041065015)
(5.2264489 -0.0008852334 0.039174951)
(5.2180489 -0.00052724976 0.036675043)
(5.2094203 -0.0002076184 0.033610711)
(5.2007641 5.6018902e-05 0.03013285)
(5.1923133 0.0002553456 0.026397577)
(5.1843055 0.00039402063 0.02258073)
(5.1769763 0.00048598059 0.018813581)
(5.1705541 0.00053602024 0.015193639)
(5.1652403 0.00055016806 0.011802467)
(5.1611675 0.00053701426 0.0086911749)
(5.1583288 0.00051710999 0.0058844166)
(5.1565622 0.00050871042 0.0033700151)
(5.1570643 0.00078423898 0.0022648755)
(5.1588582 0.00081434665 0.0039742847)
(5.1617668 0.00087006563 0.0059271378)
(5.1659518 0.00093707881 0.0081806039)
(5.17142 0.00099585189 0.010763328)
(5.1780408 0.0010377497 0.013674344)
(5.1856143 0.0010543924 0.01688443)
(5.1939111 0.001036708 0.02032768)
(5.2026968 0.00096392465 0.023896375)
(5.2117313 0.00082265363 0.027424805)
(5.2207767 0.00060825398 0.030741006)
(5.2296297 0.00032744421 0.033642382)
(5.2381496 1.8347497e-05 0.036021306)
(5.2462563 -0.00030310232 0.037870215)
(5.2539113 -0.00061867233 0.039209499)
(5.2611124 -0.00092340968 0.040110863)
(5.2678699 -0.0012155392 0.040632718)
(5.2742149 -0.0014943986 0.040821064)
(5.2801872 -0.0017668367 0.040712609)
(5.2858112 -0.0020342999 0.040327367)
(5.2895947 -0.0007488051 0.037865327)
(5.2833843 -0.00046029976 0.037937819)
(5.2768313 -0.00016857049 0.037694386)
(5.2699145 0.0001253933 0.037103963)
(5.2626214 0.00041111779 0.036188095)
(5.2549403 0.00070390213 0.034870778)
(5.2468486 0.0010033402 0.03307607)
(5.2383432 0.0012938198 0.030758422)
(5.2294683 0.0015496742 0.027937417)
(5.2203074 0.0017499366 0.024675866)