/*--------------------------------*- C++ -*----------------------------------*\
| =========                 |                                                 |
| \\      /  F ield         | OpenFOAM: The Open Source CFD Toolbox           |
|  \\    /   O peration     | Version:  v2012                                 |
|   \\  /    A nd           | Website:  www.openfoam.com                      |
|    \\/     M anipulation  |                                                 |
\*---------------------------------------------------------------------------*/
FoamFile
{
    version     2.0;
    format      ascii;
    class       volScalarField;
    location    "100";
    object      k;
}
// * * * * * * * * * * * * * * * * * * * * * * * * * * * * * * * * * * * * * //

dimensions      [0 2 -2 0 0 0 0];


internalField   nonuniform List<scalar> 
19710
(
0.11898253
0.11449851
0.10971434
0.10447995
0.10190469
0.097816284
0.093676704
0.091500304
0.089090071
0.086393139
0.083514892
0.08054104
0.077455598
0.074316823
0.070804379
0.067191415
0.063356595
0.059445702
0.063078438
0.076663259
0.074472635
0.071441587
0.068381595
0.065096027
0.063315245
0.060687054
0.058165905
0.057179682
0.058757446
0.069836946
0.073857924
0.078177211
0.08878019
0.088096787
0.085329162
0.082095933
0.078791359
0.075563501
0.072425684
0.069386023
0.23290502
0.23768759
0.24227873
0.24669854
0.25092623
0.25491919
0.25869586
0.26226633
0.26564108
0.26879261
0.27174613
0.27452523
0.27714662
0.2796348
0.28201277
0.28431124
0.28655767
0.28955884
0.2874508
0.285271
0.28299411
0.28059711
0.27805837
0.27536071
0.27248878
0.26943253
0.26618253
0.26273562
0.25908856
0.25524421
0.2512022
0.24695914
0.24668903
0.25099808
0.25509752
0.25899934
0.2627011
0.26620131
0.26950158
0.27260406
0.2755173
0.27825177
0.28082155
0.28324471
0.28554165
0.28773649
0.28985703
0.29065745
0.28855555
0.28637589
0.28409348
0.28168464
0.27912954
0.27641006
0.27351368
0.27043024
0.26715087
0.26367404
0.25999787
0.25612319
0.25205165
0.24777674
0.24929588
0.25358978
0.25767226
0.26155336
0.26523208
0.26870646
0.27198163
0.27505838
0.27794572
0.28065476
0.2831969
0.28559036
0.28785658
0.29001695
0.29209764
0.29442048
0.29236902
0.29023206
0.2879885
0.2856137
0.28308675
0.28038984
0.2775125
0.27444514
0.27117541
0.26769881
0.26401721
0.26013263
0.25604427
0.25174832
0.25430643
0.25871682
0.26290657
0.26688623
0.27065763
0.27422003
0.27757611
0.28072467
0.28367269
0.28643058
0.28899961
0.29140243
0.29366453
0.29580963
0.29786004
0.30267059
0.30058142
0.29838525
0.29606076
0.29358256
0.29092423
0.28807224
0.28501942
0.2817621
0.27829322
0.27462461
0.2707533
0.26667115
0.26237281
0.25788067
0.26082914
0.26558132
0.27012625
0.27447132
0.27861407
0.28255282
0.28628605
0.28980713
0.29311151
0.29619886
0.29906342
0.30172754
0.30422334
0.30657758
0.3088143
0.31583135
0.31329053
0.31063216
0.30783168
0.30485702
0.30167327
0.29825047
0.2946035
0.29074275
0.28667829
0.28241929
0.27797466
0.2733507
0.26855121
0.26357104
0.26280217
0.26819551
0.27343097
0.27851928
0.28345349
0.28822224
0.29281955
0.29721044
0.30138476
0.3053218
0.30898814
0.31244109
0.31573773
0.31892186
0.32202556
0.32398947
0.32011264
0.31622043
0.31229288
0.30827122
0.30406398
0.29955701
0.29477257
0.28977011
0.28459574
0.27930116
0.27389263
0.26837515
0.26274678
0.25701955
0.24002337
0.24601753
0.25197404
0.2579031
0.26379327
0.26962258
0.2753652
0.28092111
0.28623784
0.29126435
0.29584944
0.30026317
0.30470587
0.30919555
0.31372825
0.28151526
0.28346213
0.2810957
0.27867533
0.2761832
0.27359889
0.27090626
0.2680855
0.26512122
0.2619962
0.25870031
0.25521801
0.25155179
0.24769546
0.24365343
0.23941987
0.23501214
0.23042217
0.2294044
0.22918528
0.2297123
0.2306453
0.23142536
0.23180463
0.2321123
0.23247589
0.2328795
0.23313398
0.23335775
0.2336148
0.23951272
0.23924021
0.23909883
0.238864
0.23868325
0.23831025
0.23804174
0.23777411
0.23748685
0.2371056
0.2367391
0.23639792
0.23601716
0.23528001
0.23441534
0.23389517
0.23409281
0.23859127
0.23843593
0.2389055
0.23972158
0.24043332
0.24081501
0.24114171
0.24153579
0.24190998
0.24223502
0.24249625
0.24279493
0.24317514
0.24338404
0.24360543
0.24376925
0.24405139
0.2441284
0.24436412
0.24451431
0.2446844
0.24495329
0.24528109
0.24554127
0.24587982
0.24596533
0.24610672
0.24637664
0.24651369
0.2464171
0.2461923
0.24591878
0.2457918
0.24607206
0.25040012
0.25015159
0.2502615
0.25051287
0.25071427
0.25079867
0.25067775
0.2504295
0.25027087
0.25017336
0.24986639
0.2496225
0.24927742
0.24903653
0.24884503
0.24868778
0.24846486
0.24838479
0.24808124
0.24787787
0.24768361
0.24747511
0.24708042
0.24674871
0.24650548
0.24616192
0.24578108
0.24534822
0.24504624
0.2446554
0.24397981
0.2432057
0.24279975
0.24292177
0.24703998
0.2469539
0.24733654
0.24804877
0.24867836
0.24906283
0.24937672
0.24981014
0.25021008
0.25055533
0.25081817
0.25116363
0.25154893
0.25177714
0.25195995
0.25218972
0.25248388
0.25257809
0.25278405
0.252951
0.25316598
0.25339596
0.25371615
0.2539657
0.25424614
0.25434885
0.25452578
0.25475178
0.25486337
0.25479009
0.25461516
0.2543889
0.25429978
0.25453378
0.25845583
0.25824781
0.25831608
0.25851297
0.25866154
0.25872131
0.25860724
0.25841062
0.25821338
0.25810543
0.2578467
0.25758347
0.25729523
0.25707736
0.25684296
0.25665924
0.25647379
0.2563596
0.25608371
0.25585097
0.2556655
0.25540936
0.25503264
0.25468229
0.25439828
0.25405097
0.25363519
0.25320734
0.25288339
0.25250277
0.25191778
0.25127288
0.25091488
0.25097885
0.25472168
0.25467996
0.25501546
0.25559264
0.25613475
0.25650664
0.25684047
0.25725737
0.2576869
0.25803473
0.25834039
0.25869726
0.25907443
0.25932861
0.25953215
0.25976801
0.26002458
0.26015735
0.26032764
0.26052253
0.26077347
0.26098242
0.26124148
0.26151908
0.26175749
0.26188235
0.26206901
0.2622548
0.26237285
0.26232621
0.26220822
0.26204051
0.26199397
0.26218845
0.26570781
0.26554573
0.26556373
0.26570189
0.26578828
0.2658191
0.26569277
0.26550946
0.26534322
0.26520138
0.26498381
0.2646979
0.26446111
0.26425727
0.26399089
0.26379602
0.26363547
0.26347959
0.2632413
0.26300481
0.26278333
0.26253475
0.26215396
0.26179158
0.26146722
0.26112201
0.26067892
0.26027575
0.25993707
0.25957244
0.25907361
0.2585605
0.25825085
0.25828008
0.26163805
0.2616295
0.26191851
0.26237033
0.26282815
0.26318148
0.2635247
0.26392224
0.2643533
0.26470389
0.26504472
0.26540931
0.26578093
0.26603278
0.26626847
0.26649724
0.26673013
0.26689637
0.26707142
0.26726655
0.26752026
0.2677211
0.26795763
0.26823074
0.26843825
0.2685871
0.26875051
0.26893265
0.26906707
0.2690508
0.26899536
0.26889243
0.26889344
0.26903504
0.27215353
0.27203602
0.27203073
0.27209446
0.2721195
0.27211974
0.27197733
0.27179514
0.27162817
0.27147554
0.27127196
0.271019
0.27077887
0.27057561
0.27033859
0.27014618
0.26995869
0.26978129
0.26955188
0.26933404
0.26908435
0.26882651
0.26846886
0.26810717
0.26775422
0.26739534
0.26698183
0.26659356
0.26625059
0.26590742
0.26549046
0.26509386
0.26482767
0.26482536
0.26784008
0.26785651
0.26810277
0.26844889
0.26882899
0.26915807
0.26949845
0.26987659
0.27027167
0.27063391
0.27099478
0.27135144
0.27169445
0.27196193
0.27220876
0.27242899
0.27264951
0.27283302
0.27303103
0.27322274
0.27344486
0.27365709
0.2738861
0.27412616
0.27433288
0.2744881
0.27465932
0.2748405
0.27498788
0.27500684
0.27500981
0.27497648
0.27498526
0.27508685
0.27783422
0.27775098
0.27774126
0.2777465
0.27772624
0.27768317
0.27753698
0.27735808
0.27718461
0.27701731
0.27681262
0.27657756
0.27636077
0.27614001
0.27592934
0.27573949
0.27553315
0.27534633
0.27513551
0.27491147
0.27467197
0.27439833
0.27407073
0.27372124
0.27335928
0.27299744
0.27262078
0.27225335
0.27191996
0.27160604
0.27125869
0.27095907
0.27073126
0.27070899
0.27344235
0.27347594
0.27367715
0.27394452
0.2742572
0.27455416
0.27487816
0.27522949
0.27559238
0.27594871
0.27630666
0.27664171
0.27695723
0.27722772
0.2774673
0.27768464
0.27789212
0.27808337
0.2782858
0.27847788
0.27868146
0.27890182
0.27911686
0.27934263
0.27954223
0.27971573
0.27989491
0.28006756
0.2802166
0.28028131
0.28031636
0.28033111
0.28035064
0.28041981
0.28285388
0.28279801
0.28277121
0.28274309
0.28269258
0.28260862
0.28245721
0.28229066
0.28210738
0.28193001
0.2817334
0.28151783
0.28130542
0.28108957
0.28088976
0.28069457
0.28049754
0.28030833
0.28010031
0.27989195
0.27965548
0.27939102
0.27908906
0.27877195
0.27842207
0.27807479
0.27772642
0.27739277
0.27707969
0.27680001
0.27651836
0.27627632
0.27610246
0.27606674
0.27859082
0.27863105
0.27878306
0.2790012
0.27925671
0.27952075
0.27981619
0.28013482
0.28046938
0.2808052
0.28113803
0.28144061
0.28172591
0.281979
0.2822098
0.28241116
0.28261173
0.2828009
0.28299464
0.28318536
0.28338392
0.28359458
0.28380425
0.28401023
0.28420578
0.28438662
0.28456649
0.28473244
0.28488218
0.28498045
0.28504492
0.28508589
0.28511557
0.28516325
0.28736777
0.28732741
0.28729502
0.28724473
0.2871693
0.2870617
0.28691353
0.28674838
0.28657324
0.28639143
0.28619979
0.28600039
0.28579451
0.28559053
0.28539366
0.2852081
0.28501878
0.28483126
0.28463891
0.28444547
0.28422295
0.28398599
0.28371672
0.28342925
0.28311619
0.28279376
0.28247471
0.28216966
0.28189187
0.28164479
0.28141133
0.28121595
0.28108099
0.28103935
0.28342813
0.2834713
0.28359135
0.28376726
0.28398153
0.28421299
0.28447601
0.28476544
0.28506832
0.28537449
0.28567057
0.28594063
0.28619127
0.28641464
0.28662404
0.28681039
0.28699376
0.28717602
0.28736189
0.28754324
0.28773362
0.28793202
0.28813317
0.28832608
0.28851307
0.28869433
0.28886556
0.2890275
0.28917436
0.28928597
0.28936794
0.2894268
0.28946282
0.28949856
0.29059806
0.29041492
0.29022887
0.29003357
0.28984192
0.28965804
0.2894821
0.28930091
0.28912544
0.28895085
0.28877255
0.28857635
0.28836705
0.28813408
0.28788189
0.28760248
0.28731359
0.287025
0.28979955
0.28766733
0.28545609
0.28313907
0.28069193
0.2780955
0.27533088
0.27238507
0.26924807
0.2659082
0.26237117
0.25863298
0.25469616
0.25056153
0.24622436
0.20844442
0.21412631
0.21978867
0.22544298
0.23106038
0.23659163
0.24196286
0.24699797
0.25116965
0.25639449
0.2604953
0.26500268
0.27052462
0.27614355
0.23842494
0.22946143
0.23408856
0.21894827
0.29058953
0.2884747
0.28628003
0.28397937
0.28154759
0.27896983
0.2762239
0.27330017
0.27018682
0.26687246
0.26336445
0.25965548
0.25574714
0.25164129
0.24733588
0.16436949
0.16958074
0.17485184
0.18019466
0.18555977
0.19082284
0.19577634
0.20019576
0.18033956
0.1797213
0.17913369
0.17564651
0.17331793
0.17034054
0.16947098
0.16860974
0.17447645
0.17770549
0.17951462
0.17507415
0.16881519
0.16088811
0.12347514
0.11740428
0.11894497
0.12386187
0.12453315
0.13082431
0.1314651
0.13989073
0.14052473
0.14680984
0.14725124
0.15084164
0.15117052
0.15453148
0.15482512
0.15735403
0.15765342
0.16074848
0.16110373
0.1642563
0.1646239
0.16761009
0.16798009
0.17094849
0.17137245
0.17467758
0.17393344
0.17542484
0.17964421
0.18679444
0.18853458
0.19778403
0.1993494
0.20822793
0.20974014
0.21785367
0.21942793
0.22791528
0.23028291
0.24421852
0.2462406
0.2515771
0.25237072
0.25449036
0.25474626
0.25519345
0.25512675
0.25453646
0.25426814
0.25309171
0.25279774
0.25167313
0.25131943
0.25007684
0.24986677
0.24943113
0.24930933
0.24889314
0.24869563
0.24760547
0.24704209
0.24350469
0.24259827
0.23792862
0.23705129
0.23375519
0.23323672
0.23174034
0.23146865
0.23027757
0.22991664
0.22761706
0.22711403
0.22466112
0.22445029
0.22490604
0.22504461
0.22621702
0.22670614
0.2305973
0.23142317
0.23570988
0.23742004
0.24949341
0.25128577
0.255746
0.25602997
0.25493436
0.25266838
0.23733633
0.22925938
0.22204262
0.2221888
0.23120836
0.20773056
0.20216784
0.20095827
0.19447242
0.21842925
0.22840996
0.24268888
0.24642561
0.24803939
0.24771601
0.24419387
0.24146229
0.23186269
0.22930131
0.22574499
0.22442324
0.22119978
0.22040275
0.21938404
0.21913955
0.21879053
0.21913515
0.22121137
0.22198145
0.22392601
0.22448036
0.2254666
0.225884
0.22714769
0.2279322
0.23067586
0.23200883
0.23584833
0.23723869
0.24015563
0.24097228
0.24188071
0.24216388
0.24251848
0.24269775
0.2430406
0.2433631
0.24440514
0.24488653
0.24583515
0.24627721
0.24724114
0.2476158
0.24812231
0.24820809
0.24782746
0.24742874
0.2456229
0.24436703
0.23976831
0.23664913
0.22511911
0.22142605
0.21408684
0.21155772
0.20449098
0.20200464
0.19427134
0.19156362
0.18296084
0.17946147
0.17464021
0.17118404
0.16943102
0.16965854
0.16684432
0.16609637
0.16353506
0.16286853
0.16026515
0.15963066
0.15689296
0.1562651
0.1535734
0.15304037
0.15081933
0.15029213
0.14726897
0.14665578
0.14345363
0.1426603
0.13701389
0.13585618
0.12815469
0.12696906
0.12100348
0.11989227
0.11533748
0.11288442
0.10625414
0.10148201
0.10208595
0.097936317
0.10637585
0.10905491
0.11293559
0.1145495
0.1200489
0.12193962
0.12867478
0.1304506
0.13527166
0.13651291
0.13912454
0.14008199
0.14264267
0.14348941
0.14534128
0.14611929
0.14826211
0.14916158
0.15136743
0.15227977
0.15438701
0.15528215
0.15730509
0.15832996
0.16063391
0.1609583
0.16281347
0.16474534
0.16817336
0.17561754
0.18004375
0.18621759
0.18975668
0.19539531
0.19891976
0.20474451
0.20956399
0.21760009
0.22163753
0.22539848
0.22702008
0.22860932
0.22903942
0.22946145
0.22921855
0.22900874
0.22837115
0.22777326
0.22704627
0.22649799
0.22571938
0.2251309
0.22460689
0.22456662
0.22424676
0.22415231
0.22365543
0.22310686
0.22191483
0.22006667
0.2181249
0.21571912
0.21387668
0.2121665
0.21098059
0.21018732
0.20947357
0.20894797
0.20805894
0.20688168
0.20565363
0.20435979
0.20370432
0.20403838
0.20419551
0.20511866
0.20601598
0.20844163
0.21000867
0.21276782
0.21560529
0.22024544
0.22280646
0.23028375
0.23317469
0.23342318
0.23119087
0.22630842
0.21320461
0.20189596
0.17980488
0.15973292
0.15210541
0.14532725
0.14944363
0.17278545
0.19410285
0.20565489
0.21831508
0.22336173
0.22570524
0.22519575
0.22152599
0.21655295
0.21495291
0.21070366
0.2079296
0.20539296
0.20376139
0.20148608
0.20051669
0.19967885
0.19947203
0.19923694
0.19985083
0.20107704
0.20228745
0.20336977
0.20422346
0.20473721
0.20538533
0.20615204
0.2072585
0.20882674
0.21057144
0.21276363
0.21465305
0.21636707
0.2174791
0.21802803
0.21847057
0.21860087
0.21887104
0.21894407
0.21940827
0.22000505
0.22071662
0.22127713
0.22195613
0.22252597
0.22308056
0.22332411
0.2235227
0.2231744
0.22268284
0.22120115
0.21950301
0.21596964
0.21188742
0.20454368
0.19968826
0.19425091
0.1906018
0.1852622
0.18149305
0.17527994
0.16904335
0.16553179
0.16096249
0.15880211
0.15680952
0.15629243
0.15416987
0.15307031
0.15121542
0.15024782
0.14831015
0.14732435
0.14533228
0.14437538
0.14244493
0.14160277
0.13992744
0.13893935
0.13658157
0.13551494
0.1331859
0.13178037
0.12741863
0.12544885
0.11913785
0.11689924
0.11162446
0.10982568
0.10617003
0.10325832
0.093536804
0.092181322
0.090097757
0.087563538
0.084767082
0.081824983
0.078646637
0.075379973
0.071549397
0.075127262
0.079932204
0.081983916
0.085984593
0.089826036
0.094189908
0.097566279
0.10133554
0.10336251
0.10591154
0.10622026
0.10872213
0.1093127
0.11149446
0.11155732
0.11352031
0.1136622
0.11564611
0.11579578
0.117843
0.11808944
0.12005734
0.12016803
0.12224054
0.12256894
0.12461986
0.12532323
0.12878086
0.13148729
0.13606469
0.13902679
0.14329057
0.14656111
0.15023002
0.15412993
0.15740739
0.16306402
0.16557278
0.16900042
0.16981222
0.17186718
0.17142842
0.17240381
0.17150578
0.1723141
0.17096326
0.17126173
0.16996129
0.17048564
0.16905251
0.16947873
0.16844407
0.16945441
0.16853604
0.16909349
0.16799684
0.16840716
0.16680686
0.16636401
0.16429653
0.16378814
0.16176239
0.16175017
0.16012947
0.16059317
0.15926759
0.16004608
0.15869632
0.15918269
0.15741242
0.15733126
0.15570439
0.15651456
0.15587867
0.15711462
0.15699033
0.15932371
0.15960284
0.16171401
0.16223437
0.16470031
0.16448625
0.16513883
0.1626261
0.15990751
0.15338088
0.14448192
0.13373781
0.1193551
0.10445207
0.090565145
0.085737155
0.081018738
0.085020375
0.10017305
0.11465905
0.12841882
0.13894125
0.1477888
0.15410421
0.15711034
0.15946298
0.15923759
0.15935525
0.15725208
0.1566133
0.15489517
0.15447213
0.15242831
0.15231007
0.15132005
0.15173921
0.15122768
0.1526162
0.15285908
0.15437459
0.15408623
0.15517806
0.15460489
0.15566313
0.15538138
0.15673927
0.15691886
0.15865827
0.15927583
0.16107187
0.16170133
0.16300832
0.16283027
0.16371238
0.1633578
0.16405781
0.16325514
0.16399423
0.1638137
0.16501404
0.16471992
0.16573175
0.16562371
0.16672589
0.1661566
0.16680149
0.16609186
0.16631802
0.16452199
0.16349135
0.16040442
0.15780354
0.15252697
0.14911096
0.14544468
0.1419883
0.13872939
0.13471435
0.13175322
0.1275643
0.12479089
0.12157049
0.120685
0.11884941
0.11835763
0.1165356
0.11632306
0.11460492
0.11418158
0.11236101
0.11209916
0.11038125
0.11009164
0.10834017
0.10812693
0.10618135
0.105428
0.10315205
0.10273265
0.10046662
0.098326588
0.094740953
0.091250785
0.087048772
0.082967494
0.079008584
0.07652943
0.071565156
0.067273222
0.062959575
0.058147309
0.056454693
0.06750218
0.067685349
0.072940222
0.073399015
0.081157588
0.07798094
0.073793383
0.074932325
0.081455988
0.082010847
0.089763897
0.090256018
0.097390708
0.097771245
0.10222364
0.1024828
0.10489232
0.10506792
0.1073962
0.10758103
0.10938643
0.10952718
0.11116073
0.1113342
0.11309722
0.11326352
0.11513342
0.11533484
0.11720606
0.11741904
0.11969233
0.11998711
0.12303574
0.1234908
0.1285527
0.12920569
0.13464238
0.135316
0.14076718
0.14152306
0.14712362
0.1479322
0.15402616
0.15477844
0.15851898
0.15890925
0.16060401
0.16077507
0.16117074
0.16115704
0.16104222
0.16099149
0.160302
0.16017685
0.15958376
0.15950479
0.15916917
0.15913695
0.15927016
0.15926576
0.15881301
0.15871295
0.1582016
0.15805597
0.15647554
0.15621808
0.15484571
0.15467687
0.15354608
0.15340457
0.1528214
0.15277267
0.15245655
0.15237016
0.15179352
0.15169727
0.15054907
0.15043764
0.15044279
0.1505305
0.15112748
0.15132048
0.15318926
0.15346012
0.15454851
0.15471617
0.15565672
0.15566737
0.1536892
0.1530608
0.1453093
0.14387962
0.12785348
0.12505437
0.097634726
0.091676038
0.085038357
0.082048128
0.086985582
0.084809797
0.095471941
0.096130731
0.11030096
0.12329764
0.13358622
0.14241116
0.14861455
0.151851
0.15415629
0.15422449
0.1542295
0.15252407
0.15179403
0.15036028
0.14977162
0.14792033
0.14774824
0.14689582
0.14727885
0.14691431
0.14818888
0.1484969
0.14979688
0.14970235
0.15061488
0.15017913
0.1510648
0.15091762
0.1521011
0.15238776
0.15392068
0.1545432
0.15622044
0.15690745
0.1581023
0.1579995
0.15880079
0.15851448
0.15900831
0.15843602
0.15907659
0.15893407
0.15988188
0.15984274
0.16075559
0.16069955
0.16158211
0.16122804
0.16173052
0.16111435
0.16117819
0.15965543
0.15855641
0.15564379
0.15293198
0.14799953
0.14449493
0.14089916
0.13756264
0.13438085
0.13056331
0.12754638
0.12356253
0.1207981
0.11777094
0.11679156
0.11508648
0.11451866
0.11291829
0.11259976
0.11100422
0.11052192
0.10886141
0.10846604
0.10689421
0.10655682
0.10496389
0.10461659
0.10281534
0.10200643
0.09988345
0.099318639
0.097167534
0.095004186
0.091519858
0.087941364
0.083807318
0.079659352
0.075760631
0.076661595
0.087883044
0.080475121
0.084802753
0.095867191
0.088727408
0.09258746
0.10343288
0.095825458
0.098077168
0.10828421
0.099972616
0.10082913
0.11096104
0.10268273
0.10356158
0.11348502
0.10515999
0.10578385
0.11550451
0.10712467
0.10754369
0.11730988
0.10892465
0.10959336
0.11936017
0.11100999
0.11158829
0.12143765
0.11300338
0.11364522
0.12361462
0.11504804
0.1157511
0.1261562
0.11731748
0.11863125
0.12974242
0.12138862
0.12417826
0.13555901
0.12783494
0.13100627
0.14197023
0.13449549
0.13761583
0.14829648
0.14085794
0.14447592
0.15490799
0.14787379
0.15239892
0.16202675
0.15517056
0.15799289
0.16656045
0.15917556
0.16044648
0.16851975
0.16059978
0.16114131
0.16899259
0.16077785
0.16088882
0.16875975
0.1602333
0.16018063
0.16799213
0.15943065
0.15924372
0.16723843
0.15855435
0.15863199
0.1668106
0.15817424
0.15850303
0.16685586
0.1582202
0.15836653
0.16634622
0.15765017
0.1576872
0.16564838
0.15668654
0.15590789
0.16376714
0.15438648
0.15378404
0.16204825
0.15252928
0.15211224
0.16064988
0.1511411
0.15113566
0.15991263
0.15047243
0.15074448
0.15952776
0.1500077
0.14985032
0.15872302
0.14884301
0.14846172
0.15740953
0.14731977
0.1476549
0.15739321
0.14747366
0.14817796
0.15823619
0.14836299
0.15009699
0.16057319
0.15091766
0.1520188
0.16226414
0.15285864
0.15415612
0.16389102
0.15439475
0.15397035
0.16212863
0.15177891
0.14811622
0.15382841
0.14202887
0.13280285
0.13597997
0.12253157
0.10954259
0.10767171
0.10228571
0.13206366
0.15003838
0.15872834
0.16082281
0.15954447
0.15808786
0.15586563
0.15509649
0.15508252
0.15637926
0.15711955
0.15751906
0.15823963
0.15959158
0.16123235
0.16307821
0.16373907
0.16427083
0.16418777
0.16458247
0.1652904
0.16609974
0.16626766
0.16578979
0.16379153
0.15937562
0.1523351
0.14578835
0.13948318
0.13318805
0.12742587
0.12389666
0.12129332
0.11913659
0.11701264
0.11499409
0.11315276
0.11110985
0.10855023
0.10586538
0.10101428
0.093347763
0.085173
0.11806836
0.11072984
0.11152064
0.11190816
0.086578016
0.080944661
0.082539947
0.085691067
0.090244057
0.093774184
0.096683042
0.099214508
0.1011053
0.10218697
0.098561043
0.10352627
0.1166556
0.11558687
0.10681519
0.10637638
0.11100647
0.12172728
0.14480263
0.14050881
0.15163425
0.14707736
0.1546994
0.14942334
0.15341637
0.14704398
0.14899111
0.14162199
0.13920681
0.12028796
0.10649285
0.10868167
0.11176484
0.11493419
0.11840704
0.11992874
0.12205012
0.12132461
0.12114133
0.124475
0.12292698
0.1259798
0.12311835
0.12438405
0.12121024
0.12090249
0.1174899
0.11643044
0.086052083
0.086178096
0.072072231
0.067041423
0.068297499
0.066234629
0.06994258
0.066128661
0.062606601
0.061551895
0.055821182
0.057465518
0.057847151
0.060799736
0.064186916
0.059917489
0.05862967
0.054826025
0.073392365
0.092515072
0.12884475
0.16214613
0.22468359
0.23251821
0.23765356
0.23352618
0.22528258
0.26627551
0.30449208
0.31636435
0.31580995
0.31059718
0.30415581
0.29829515
0.29358446
0.29013696
0.28777113
0.28549471
0.28308779
0.28053416
0.27781164
0.27491248
0.27182195
0.26852762
0.26503922
0.26134375
0.25744108
0.25333781
0.24904418
0.25390981
0.25125807
0.25560379
0.25836713
0.26196438
0.25743871
0.26047148
0.26526358
0.26984916
0.2663308
0.26260104
0.259748
0.26367784
0.26662275
0.27041787
0.26742428
0.27094064
0.27401037
0.27805004
0.2743586
0.27046183
0.27423444
0.27839933
0.28236031
0.28264061
0.27820265
0.27419331
0.27103846
0.26856169
0.26684593
0.26581665
0.26228377
0.25854996
0.25461593
0.25048359
0.24614862
0.07000862
0.073404775
0.076924231
0.080551886
0.084262113
0.087913795
0.091078981
0.091591144
0.084323097
0.078844014
0.072462031
0.075517472
0.075733096
0.073864149
0.073572585
0.068724615
0.06829783
0.066117349
0.066639272
0.066526883
0.074181804
0.078962998
0.10261957
0.10277552
0.098190305
0.090728378
0.069438587
0.063994232
0.061372288
0.064491897
0.07387128
0.073241613
0.066699691
0.065975395
0.069030823
0.077712284
0.11656121
0.12211333
0.12789755
0.13262376
0.13840476
0.13007581
0.13102433
0.1289479
0.12579627
0.12228469
0.11867171
0.11502574
0.11137807
0.082520026
0.086285838
0.090141362
0.094127534
0.098162543
0.10213396
0.10576446
0.10725411
0.10230884
0.097070598
0.090433515
0.093526332
0.093603992
0.092100393
0.091532414
0.085532894
0.085670334
0.083724342
0.083636618
0.082712851
0.089275294
0.094745112
0.11871802
0.10749925
0.14151577
0.13454844
0.17672898
0.21954769
0.22583668
0.22573837
0.23107724
0.22846967
0.2332383
0.2304384
0.23529639
0.22766238
0.26122937
0.30015868
0.31244087
0.31251868
0.30778786
0.30165721
0.29596035
0.29131701
0.28788309
0.28549303
0.28295065
0.28023264
0.27733528
0.27424669
0.27739878
0.28056929
0.28354775
0.28632209
0.29079152
0.28791615
0.28484127
0.28156104
0.2861266
0.28966716
0.29299963
0.29611278
0.29899004
0.29347136
0.2889057
0.28888183
0.28545994
0.28303624
0.28149135
0.28063609
0.27803616
0.27526466
0.27231248
0.26916963
0.26915481
0.26586025
0.2623617
0.25866052
0.25475675
0.25064967
0.24633647
0.090929851
0.094851165
0.098860011
0.10298258
0.10712482
0.1111874
0.11499254
0.11689383
0.11013696
0.10525759
0.098790598
0.10149164
0.10104729
0.099868932
0.10024323
0.098387128
0.098271208
0.096994499
0.096888806
0.095809455
0.10266669
0.10792492
0.13154556
0.12683872
0.16370855
0.15592077
0.19971716
0.2139197
0.24893023
0.28643237
0.29969551
0.30144377
0.29815891
0.29449968
0.29061956
0.28652401
0.28222777
0.27775199
0.27309836
0.26826806
0.2632574
0.096117251
0.10007629
0.1041069
0.10823692
0.11237633
0.1164536
0.12027475
0.12231181
0.11558533
0.11118879
0.1050439
0.10749309
0.10623114
0.1055027
0.1068162
0.105057
0.10417044
0.10281369
0.10370711
0.10259015
0.10914114
0.11400662
0.1360919
0.13333717
0.17032959
0.16907308
0.20639701
0.25967433
0.25499991
0.28850117
0.30078187
0.30202097
0.29842879
0.29312188
0.28794988
0.28357634
0.28023568
0.27779116
0.27617663
0.27326224
0.27016085
0.27184228
0.27491665
0.27499342
0.2732911
0.2722942
0.27524908
0.27801697
0.27890779
0.27892273
0.28050387
0.28053603
0.27785866
0.27619839
0.27621784
0.27528218
0.27238025
0.26929328
0.26601457
0.26253819
0.25886163
0.2549828
0.25089459
0.24658774
0.10057855
0.1045811
0.10864867
0.11282807
0.1170046
0.1211181
0.12499879
0.12708872
0.12040306
0.1162583
0.10965311
0.11178622
0.11028573
0.10922393
0.11109038
0.10998458
0.10826626
0.10744313
0.10945251
0.10810166
0.11472168
0.11910575
0.14015715
0.1372383
0.17457066
0.17367963
0.21108571
0.26380681
0.29387274
0.29124963
0.3022328
0.30283171
0.29883363
0.29330009
0.28803091
0.28364027
0.28031603
0.2774802
0.27736991
0.27431206
0.27753454
0.28065985
0.28077319
0.27771862
0.2744647
0.27197398
0.27022575
0.26696695
0.26350785
0.26336066
0.25966873
0.25577179
0.25167575
0.24739071
0.10507636
0.10918365
0.11334302
0.11760395
0.12184628
0.1260175
0.12995011
0.1321149
0.12576611
0.12170905
0.11428017
0.11616982
0.11498265
0.11392662
0.11536226
0.11372036
0.11228867
0.11153417
0.11335567
0.11247559
0.11981495
0.12403142
0.14463591
0.14136795
0.17859053
0.177393
0.21510805
0.26729246
0.29612946
0.30505211
0.30376159
0.3036311
0.29915609
0.29345328
0.28809654
0.2836773
0.2803365
0.27787047
0.27505786
0.27336189
0.27032468
0.26709467
0.26366446
0.2600327
0.25984771
0.25598283
0.25191208
0.24764815
0.11059991
0.11486175
0.11916312
0.12355945
0.12792091
0.13219914
0.13623882
0.13846999
0.1324735
0.12837464
0.12003699
0.1224772
0.12162349
0.12009802
0.12104858
0.11906187
0.11786247
0.11655349
0.11792978
0.11742195
0.12577255
0.13003258
0.15070627
0.14643377
0.18327684
0.18168904
0.21984809
0.27128762
0.29850427
0.30634189
0.30468635
0.30424173
0.29936498
0.29346481
0.28805214
0.28363984
0.28027416
0.27779163
0.27616316
0.27525563
0.27238614
0.26933248
0.26608446
0.26263892
0.2589896
0.2551323
0.25106197
0.24677475
0.24794093
0.24784799
0.2521342
0.25394228
0.25371777
0.25343804
0.24921819
0.24954712
0.24978581
0.24996884
0.25419255
0.2522726
0.25630599
0.25620251
0.25798915
0.25779071
0.25755706
0.26144441
0.26168346
0.26533419
0.26512475
0.26759227
0.26393487
0.26006632
0.2559836
0.25170288
0.23336654
0.23807673
0.24259132
0.2469192
0.25104828
0.25496829
0.25867882
0.26218231
0.26548104
0.26857602
0.2714809
0.27421508
0.27679836
0.27925615
0.28161495
0.28390102
0.28614207
0.28605369
0.28380594
0.28150954
0.27913845
0.27666576
0.27406455
0.27131142
0.26839226
0.26528164
0.26196336
0.2584478
0.25472553
0.25079147
0.24663879
0.24228817
0.23776541
0.23305763
0.2296209
0.22984296
0.23084951
0.23215159
0.23316307
0.23383949
0.23422847
0.23454818
0.23464628
0.23451781
0.23409809
0.23348559
0.23294206
0.23767014
0.23818222
0.23868562
0.23905404
0.23909005
0.23898091
0.23865137
0.23826765
0.23760532
0.23666894
0.23544191
0.23449895
0.2342936
0.23877135
0.23896451
0.23984088
0.24099516
0.24185865
0.2424958
0.24286941
0.24320624
0.24334269
0.24336256
0.24305887
0.24265029
0.24222317
0.24656934
0.2469313
0.24723921
0.24748303
0.24741641
0.24723314
0.24691398
0.2465551
0.24594464
0.24513089
0.24407453
0.24326944
0.24308478
0.24718669
0.24738462
0.24812401
0.24906758
0.24983409
0.25042517
0.2507659
0.25107595
0.25129341
0.2513996
0.25123973
0.25100952
0.25072563
0.25465816
0.25487359
0.25503443
0.25510996
0.25497786
0.25473309
0.25441972
0.25407609
0.25352664
0.25280842
0.2519569
0.25128782
0.25111029
0.25483605
0.25499874
0.25559832
0.25636797
0.25702661
0.25752675
0.25787413
0.25819194
0.25844727
0.25862071
0.25862377
0.25852774
0.25838934
0.26190586
0.26198373
0.26201558
0.26193665
0.26172825
0.26146402
0.26113928
0.26078987
0.26034391
0.25974884
0.25906216
0.25853203
0.25838105
0.26172504
0.26187304
0.26233914
0.26295078
0.26347036
0.2638802
0.26422415
0.26454372
0.26482609
0.26506267
0.26519644
0.26523208
0.26521235
0.26830384
0.26828477
0.26819374
0.26801593
0.26775157
0.26744928
0.26714365
0.26680928
0.26642708
0.26596835
0.26543736
0.26503478
0.26489939
0.26790101
0.26803097
0.26837476
0.26882838
0.26923832
0.26959048
0.2699032
0.27020709
0.27052442
0.27081455
0.2710278
0.27116799
0.27121893
0.27396633
0.27387839
0.27370434
0.27345804
0.27315731
0.27283374
0.27252584
0.27223051
0.27190865
0.27154898
0.2711652
0.27087008
0.27075794
0.27347942
0.27357804
0.27382819
0.27415331
0.27446512
0.27475727
0.27503631
0.27534077
0.27566132
0.27597275
0.27624288
0.27644182
0.27655986
0.27902402
0.27888475
0.27866984
0.27838388
0.27806426
0.27774982
0.27745521
0.27718971
0.27692526
0.27665502
0.27638379
0.27617803
0.27609359
0.27860849
0.27867955
0.27885171
0.27907442
0.27930938
0.27954789
0.27979804
0.28008092
0.28038951
0.28071032
0.28100402
0.28123663
0.28139302
0.28368673
0.28351819
0.28327274
0.28297429
0.28265515
0.28235431
0.28208497
0.2818497
0.28163534
0.28143256
0.28124682
0.2811062
0.28104942
0.2834324
0.28347964
0.28359303
0.28374871
0.28392234
0.28411444
0.28433448
0.28459045
0.28488192
0.28519792
0.28549961
0.2857542
0.28593465
0.29203249
0.2899449
0.29229064
0.29574334
0.30051149
0.30652346
0.30877003
0.3026147
0.29780383
0.2943564
0.28976034
0.28762559
0.28541214
0.28309163
0.28305199
0.28061503
0.28148301
0.28390286
0.28392801
0.28544298
0.285433
0.28306146
0.28302041
0.2814568
0.28058396
0.27802296
0.27797941
0.27885897
0.27892708
0.28053258
0.28044275
0.28293226