/*--------------------------------*- C++ -*----------------------------------*\
| =========                 |                                                 |
| \\      /  F ield         | OpenFOAM: The Open Source CFD Toolbox           |
|  \\    /   O peration     | Version:  v2012                                 |
|   \\  /    A nd           | Website:  www.openfoam.com                      |
|    \\/     M anipulation  |                                                 |
\*---------------------------------------------------------------------------*/
FoamFile
{
    version     2.0;
    format      ascii;
    class       volScalarField;
    location    "100";
    object      nut;
}
// * * * * * * * * * * * * * * * * * * * * * * * * * * * * * * * * * * * * * //

dimensions      [0 2 -1 0 0 0 0];


internalField   nonuniform List<scalar> 
19710
(
0.0038666174
0.0037253847
0.0035708073
0.0034114663
0.0033584867
0.0032290695
0.0030997439
0.0030496301
0.0029846571
0.0029055653
0.0028174705
0.0027231633
0.0026222001
0.0025196669
0.0023984179
0.0022720405
0.0021373944
0.0020011915
0.0021500666
0.0027052351
0.0026302449
0.0025184408
0.0024017142
0.0022784918
0.0022152674
0.0021171128
0.0020223491
0.00069581252
0.00026218496
0.0005946603
0.0015212183
0.0023138175
0.0028667659
0.0029393812
0.0029128446
0.0028594555
0.0027983261
0.0027353924
0.002671514
0.0026068122
0.028086632
0.028607979
0.029087607
0.029529339
0.029931265
0.030288791
0.030606385
0.030887229
0.031134415
0.031345811
0.031526191
0.031679528
0.031808539
0.031916657
0.032006876
0.032083017
0.032148374
0.032270929
0.032217083
0.032152732
0.032075023
0.031981053
0.031867744
0.031732187
0.03157137
0.031382666
0.03116334
0.030911338
0.030624567
0.030301761
0.029941318
0.029541303
0.029469192
0.029880642
0.030250889
0.03058311
0.030878543
0.031138651
0.031365351
0.031560612
0.031727122
0.031867621
0.031985029
0.032082414
0.032162748
0.032229106
0.032284661
0.032330341
0.032276822
0.032212309
0.032133971
0.032038813
0.031923947
0.03178631
0.031623182
0.031431868
0.031209647
0.030954641
0.030664926
0.030338968
0.029975446
0.029572017
0.029681532
0.030085413
0.030448168
0.030772732
0.031060567
0.031313126
0.031532816
0.031721479
0.031881911
0.032016983
0.032129318
0.032222004
0.03229812
0.032360359
0.032411686
0.032537917
0.032489545
0.032430036
0.032357076
0.032267633
0.032158734
0.032027358
0.031870963
0.031686819
0.031471659
0.031223049
0.030939456
0.03061943
0.03026126
0.029862923
0.029945668
0.030355348
0.030723018
0.031051708
0.031343308
0.031599485
0.031822428
0.032013885
0.032176602
0.032313595
0.032426416
0.032518738
0.032594062
0.03265526
0.03270476
0.032879102
0.032822313
0.032753099
0.032669214
0.032567708
0.032445084
0.032298864
0.032126681
0.031926179
0.031694519
0.031431254
0.031134235
0.030800724
0.030428344
0.03001872
0.029723754
0.030155519
0.030549008
0.030906569
0.031229413
0.031518989
0.031776894
0.032004301
0.032202867
0.032374836
0.032521309
0.032645675
0.032751914
0.032842991
0.032921407
0.032495265
0.032382482
0.032258644
0.032121004
0.031966089
0.031789833
0.031588398
0.031361425
0.031107458
0.030825409
0.03051455
0.030174387
0.029804274
0.029403391
0.028969963
0.027134672
0.027573234
0.027983561
0.028367859
0.028726425
0.029059041
0.029365904
0.029644545
0.029895648
0.030120106
0.030317147
0.030492647
0.030652662
0.03080191
0.030944473
0.027428808
0.027322554
0.027211438
0.027091414
0.026955079
0.02679364
0.02659751
0.02636631
0.026102003
0.025808594
0.02549235
0.025155023
0.024797181
0.024418136
0.02401826
0.019419911
0.019756074
0.02007602
0.020380871
0.02066948
0.020938639
0.021183113
0.021388624
0.021544374
0.021649403
0.021698735
0.021708175
0.021686369
0.02162985
0.021547523
0.015838569
0.031979236
0.031907539
0.031825336
0.031730188
0.031619185
0.031489774
0.031338762
0.031163316
0.03096019
0.030726872
0.030460003
0.030158528
0.029820233
0.029444366
0.029028852
0.028574995
0.028080714
0.027903273
0.027855295
0.027925758
0.028061773
0.028167928
0.028201228
0.028219376
0.028248263
0.028280657
0.028285586
0.028282033
0.028287069
0.028852019
0.028828802
0.028830518
0.028821218
0.028823129
0.028795789
0.028789577
0.028786666
0.028777282
0.028749696
0.028721277
0.028698013
0.028664367
0.028566775
0.028443917
0.028375179
0.028417712
0.028889942
0.02885565
0.028915867
0.029028933
0.029120923
0.029154639
0.029175515
0.029207253
0.029232682
0.02924708
0.02924873
0.02925909
0.029286124
0.029288252
0.029294941
0.029296626
0.029320094
0.029311394
0.029329333
0.02933453
0.029343046
0.02936563
0.02939815
0.029420535
0.029454557
0.029448209
0.029452877
0.029480686
0.029490171
0.029463281
0.029420321
0.02937405
0.029354859
0.029400355
0.029816928
0.029777975
0.029795221
0.029838003
0.029877047
0.029901862
0.029895484
0.029871973
0.029864893
0.029869114
0.029840793
0.0298214
0.029787394
0.029769568
0.029758129
0.029752275
0.02973695
0.029744969
0.029719414
0.029712093
0.029709672
0.029707815
0.02967984
0.029665164
0.029666161
0.029649688
0.029624228
0.029587858
0.029570648
0.02953564
0.029450912
0.029346508
0.029296335
0.02932397
0.029714593
0.0296935
0.029739915
0.029832918
0.029909274
0.029943048
0.02996213
0.029997337
0.030024792
0.030040808
0.030042883
0.03005897
0.030084471
0.030089055
0.030089783
0.030100575
0.030123725
0.030118079
0.030130297
0.030137197
0.03015172
0.030167506
0.030196806
0.030216547
0.030240157
0.030236963
0.030246505
0.030265814
0.030270358
0.030247466
0.030212687
0.030173788
0.030159028
0.030194159
0.030531089
0.030501131
0.030513411
0.030547893
0.030578502
0.030599153
0.030594712
0.030580357
0.030568208
0.030570372
0.03055054
0.03052944
0.030505529
0.030491818
0.030475068
0.03046612
0.030457258
0.030459858
0.030440113
0.030429249
0.030428078
0.030419739
0.030396338
0.030380003
0.030374787
0.03035897
0.030330112
0.030296721
0.030276216
0.030243311
0.030174928
0.030093577
0.030051142
0.030067947
0.030383031
0.030370176
0.030409025
0.030479102
0.030540073
0.030571367
0.030593205
0.030624177
0.030654182
0.030669675
0.030678063
0.030694962
0.030717755
0.030725588
0.03072943
0.03074043
0.030756872
0.030756977
0.030763417
0.030773539
0.030792038
0.030804204
0.0308234
0.030845841
0.030862305
0.030862723
0.030873059
0.030885374
0.030889967
0.030871476
0.030845489
0.030815333
0.030805647
0.030832409
0.031096527
0.031075296
0.031081445
0.031107305
0.031128666
0.031144676
0.03113933
0.031127825
0.031120498
0.031117592
0.031104389
0.031081486
0.031065818
0.031054642
0.031034644
0.031024849
0.031019917
0.031016624
0.031003139
0.03099223
0.030985868
0.030978849
0.030956051
0.03093863
0.030927567
0.03091266
0.030881515
0.030853097
0.030830725
0.030800787
0.030747024
0.030687226
0.030652405
0.030662777
0.030906474
0.030899495
0.030931092
0.030981392
0.031028574
0.031056622
0.031079476
0.031106659
0.031135543
0.031151121
0.031164583
0.031182228
0.031203446
0.03121103
0.031219414
0.031229157
0.031241645
0.031246261
0.031253045
0.031262589
0.031280272
0.031290796
0.031306081
0.031326599
0.031338192
0.031342083
0.031348919
0.031359859
0.031365955
0.031352209
0.031335253
0.031314374
0.031310391
0.031328019
0.031526386
0.0315126
0.031516306
0.031531805
0.031544555
0.031555896
0.031549038
0.031538443
0.031531239
0.031526825
0.031515967
0.031498627
0.031483212
0.031472597
0.031457588
0.031448616
0.031440352
0.031434304
0.031422469
0.031414147
0.031403776
0.03139515
0.031375857
0.031358482
0.031343181
0.031326419
0.031300241
0.031274614
0.031251931
0.031225525
0.03118464
0.031142607
0.031114481
0.031119527
0.03130289
0.031300068
0.03132521
0.031359931
0.031395331
0.031419661
0.031441934
0.031466069
0.031489717
0.031507134
0.031523839
0.031540877
0.031558449
0.0315687
0.031578893
0.031587697
0.031598289
0.031605097
0.031614577
0.031623293
0.031636026
0.031647588
0.031661237
0.03167654
0.03168763
0.031692396
0.031700061
0.031710244
0.031717484
0.031708906
0.031699953
0.031688539
0.031685098
0.03169631
0.031839095
0.0318306
0.03183402
0.031841727
0.031848333
0.031853602
0.031846719
0.031837022
0.031829145
0.031822813
0.03181215
0.031797768
0.031785902
0.031773459
0.03176242
0.031754061
0.031743653
0.031736385
0.031727001
0.031717473
0.031707864
0.031696328
0.031680301
0.031663641
0.031646282
0.031628517
0.031607123
0.031584367
0.031563006
0.031540751
0.031510072
0.03148184
0.031459404
0.031461166
0.031596584
0.031596509
0.031615287
0.031639123
0.031665056
0.031685129
0.031705391
0.031726256
0.031746243
0.031763879
0.031781435
0.031797019
0.031812199
0.031823959
0.031834082
0.031843084
0.031852217
0.031860129
0.03186995
0.031878537
0.031888558
0.031900758
0.031912274
0.03192527
0.031935206
0.031942322
0.031950878
0.031959661
0.031966783
0.031964418
0.031959832
0.031954721
0.031952512
0.03195896
0.032058013
0.032053393
0.032054706
0.032058061
0.03206056
0.032060383
0.032053031
0.032045046
0.032035995
0.032028363
0.032018828
0.032007211
0.031996098
0.031984572
0.031975062
0.031966097
0.031956937
0.03194913
0.031939678
0.031931345
0.031921004
0.03190922
0.031894863
0.031880548
0.03186313
0.031845887
0.031827212
0.031808241
0.031789156
0.031771161
0.031749296
0.03172882
0.031713636
0.031713254
0.031812826
0.031813938
0.031826356
0.03184378
0.031862369
0.031878604
0.031895792
0.031913359
0.031930981
0.031947681
0.031964014
0.031977677
0.03199101
0.03200229
0.032012638
0.032020663
0.032029531
0.032037556
0.032046413
0.032054887
0.032064279
0.032075139
0.032085909
0.03209634
0.032105778
0.032113901
0.032122567
0.032130517
0.032137669
0.032139748
0.032139131
0.032137467
0.032136537
0.032140044
0.032207625
0.032205061
0.032205601
0.032206001
0.032205106
0.032201731
0.032194688
0.032186743
0.032178537
0.032170176
0.032161112
0.032151397
0.032141017
0.032130898
0.032121602
0.032113606
0.0321051
0.032096987
0.032088696
0.03208101
0.032070891
0.03206058
0.032048065
0.032035019
0.032019968
0.03200394
0.03198747
0.031971026
0.031955619
0.031941202
0.031925241
0.031910602
0.031900252
0.031898816
0.031973464
0.03197523
0.031983856
0.031996222
0.032010019
0.032022863
0.032036925
0.032052064
0.032067366
0.032082416
0.03209658
0.032108768
0.032120206
0.032129918
0.032139278
0.032146782
0.032154482
0.03216232
0.032170674
0.032178398
0.032187105
0.032196718
0.032206685
0.032215793
0.032224483
0.032232959
0.032240881
0.032248604
0.032255643
0.032259702
0.032261595
0.032262372
0.032262355
0.032264348
0.032271528
0.032263038
0.032254487
0.032244975
0.032235913
0.032227703
0.032220312
0.032212189
0.03220474
0.032197552
0.032190325
0.03218171
0.032172663
0.032162198
0.032150948
0.032137665
0.032123725
0.032109364
0.032279265
0.03222222
0.032153736
0.032070737
0.031970095
0.031848956
0.031704123
0.031532783
0.031332232
0.031099352
0.030833188
0.030531535
0.030193084
0.029816411
0.029399418
0.014118595
0.014360386
0.014587613
0.014800919
0.014997132
0.015169641
0.015308789
0.015399751
0.015372204
0.015456605
0.015452379
0.015488679
0.015622943
0.015744498
0.011694338
0.010557502
0.010710348
0.009137174
0.032324701
0.032269541
0.032203061
0.032122275
0.032023971
0.031905852
0.03176433
0.031597024
0.03140101
0.031173211
0.030912893
0.030617435
0.030285403
0.029915506
0.029506046
0.0093922069
0.009596458
0.0097971513
0.0099951967
0.01018693
0.010362141
0.010502431
0.010596707
0.008669776
0.008455766
0.0079538081
0.0077620529
0.0077113542
0.0074091335
0.0072418155
0.0070734514
0.0072850894
0.0073299151
0.0072800558
0.0068506316
0.0063492698
0.005794077
0.004027889
0.0038317371
0.0038869981
0.0041682133
0.0042013947
0.0046024371
0.0046356473
0.0051387153
0.0051716662
0.0055430462
0.0055678212
0.005820857
0.005842038
0.0060893766
0.0061100461
0.006312063
0.0063333089
0.0065545946
0.0065779324
0.0067844026
0.0068078831
0.0070057363
0.0070295831
0.0072233017
0.0072505402
0.0074650014
0.007431321
0.0075136879
0.0077157519
0.0080619185
0.0081624802
0.0086944105
0.0087831807
0.0093010546
0.0093877144
0.0098677838
0.0099592023
0.010465812
0.010604013
0.011433825
0.011557057
0.011916765
0.01197364
0.012160421
0.012186107
0.012261563
0.012266472
0.012271746
0.012262557
0.012216219
0.012201435
0.012146153
0.012127389
0.012054024
0.012040649
0.012013281
0.012004785
0.011971683
0.011957635
0.011879525
0.011841937
0.011599527
0.011539931
0.011232988
0.011176175
0.010955213
0.010920651
0.010810866
0.010791084
0.010696908
0.010671547
0.01050995
0.010476599
0.01030798
0.010292531
0.010301976
0.010305129
0.010335131
0.010351567
0.010475325
0.010492999
0.010514349
0.010551926
0.010831538
0.010835337
0.010515354
0.010405529
0.0096590803
0.0094034837
0.0080450931
0.0075955489
0.00718575
0.0070799205
0.0073996225
0.0062193813
0.0060875293
0.0061699736
0.005978033
0.0071887062
0.007760054
0.008975461
0.0093860481
0.010050719
0.010227059
0.010501379
0.010499535
0.010284102
0.010228828
0.010210145
0.010179571
0.010075383
0.010048114
0.010021033
0.010014241
0.010007322
0.010032069
0.010174227
0.010225526
0.010361147
0.01039979
0.010476913
0.010507584
0.010600372
0.010653646
0.010838538
0.010925412
0.011179196
0.011271207
0.011472622
0.011528757
0.011594513
0.011615247
0.011643613
0.011656037
0.011678032
0.011698309
0.011760979
0.01178841
0.011836784
0.011859662
0.011900652
0.011914519
0.011912964
0.011905666
0.011844804
0.011805647
0.011649066
0.011560325
0.011251919
0.011060954
0.010368692
0.010152735
0.0097148488
0.0095682006
0.0091517565
0.0090102611
0.0085606858
0.0084077344
0.0079141448
0.0077128375
0.0075027086
0.0073718051
0.007247406
0.007251515
0.0070680471
0.0070201581
0.0068538814
0.0068125127
0.0066405784
0.006600132
0.0064212753
0.0063806076
0.006187944
0.0061503683
0.0059731758
0.0059358525
0.0057140992
0.0056752926
0.0054501963
0.0054054261
0.0050691902
0.0050087596
0.0045479665
0.0044862237
0.0041101605
0.0040545247
0.0037935025
0.0036969657
0.0034655702
0.0033071417
0.0033639245
0.003229663
0.0035253121
0.003633101
0.0038535992
0.0039369977
0.0042730588
0.0043718784
0.0047723033
0.0048660845
0.005154129
0.0052241453
0.0054087494
0.0054696894
0.0056549769
0.0057130126
0.0058575363
0.005912482
0.0060661754
0.0061243433
0.0062672307
0.006324782
0.0064633894
0.0065200417
0.0066510928
0.0067160385
0.0068632277
0.0068873607
0.0070086073
0.0071226747
0.007301949
0.0076751696
0.0079261941
0.0082808541
0.0084821507
0.0088095937
0.0090131956
0.0093577325
0.0096423152
0.010129645
0.010378144
0.010623631
0.010736434
0.010860421
0.010902792
0.010950497
0.010948754
0.010954041
0.010924082
0.010897178
0.010855532
0.010825846
0.01077879
0.010741462
0.010706601
0.010701987
0.010678013
0.010666035
0.010629514
0.01058849
0.010506499
0.010377252
0.01024769
0.010085973
0.0099641443
0.0098466986
0.0097664787
0.0097081074
0.009657818
0.0096156814
0.0095551818
0.0094731969
0.0093925837
0.0093039957
0.0092585072
0.0092686583
0.009267077
0.0092994497
0.009326588
0.0094113892
0.0094418864
0.009473098
0.0095122218
0.009547127
0.0095809854
0.0098324971
0.0096520795
0.009427492
0.0088537362
0.0083320338
0.0072636523
0.0066006038
0.0054903589
0.0045323261
0.0042397871
0.0040128489
0.0041922417
0.0052647735
0.006333947
0.0070191932
0.008037112
0.0085743715
0.0091102378
0.0093356483
0.0094460214
0.0092500729
0.0093229406
0.0092916977
0.009254359
0.0092261129
0.0091917069
0.0091120805
0.0090812903
0.0090532321
0.0090522233
0.0090470267
0.0090899165
0.0091735006
0.00925285
0.0093272046
0.0093850531
0.0094247878
0.0094710863
0.0095271286
0.0096029522
0.0097108278
0.0098267371
0.0099737515
0.010099817
0.010219418
0.010296824
0.010337619
0.01037098
0.010384723
0.010405403
0.010411638
0.010443016
0.010480892
0.010524728
0.010555536
0.010594801
0.010622987
0.010649698
0.010648397
0.010648298
0.0106079
0.010563181
0.010449088
0.010333014
0.010103853
0.009853208
0.0094075464
0.0091208498
0.0088001664
0.0085904948
0.0082821841
0.0080691697
0.0077149841
0.0073653083
0.007225151
0.0069653304
0.0068391201
0.006713348
0.0066787259
0.0065438379
0.0064749623
0.0063558221
0.0062953291
0.0061687785
0.006107096
0.0059785606
0.0059165652
0.0057781936
0.0057190164
0.0055884514
0.0055223416
0.0053534465
0.0052858252
0.005119842
0.0050404515
0.0047767503
0.0046718208
0.0042972178
0.0041816416
0.0038631255
0.0037697752
0.0035633679
0.0034440685
0.0030921183
0.0030721326
0.0030200354
0.0029471164
0.0028623291
0.0027701684
0.0026666291
0.0025600564
0.0024266123
0.0025634054
0.0027551063
0.002873312
0.0030535673
0.0032666089
0.0034731281
0.0036754589
0.0038629991
0.0039942855
0.0041292632
0.0041731042
0.00430724
0.0043640715
0.0044850594
0.0045113565
0.0046216905
0.0046489322
0.0047583623
0.0047785248
0.004890388
0.0049159083
0.0050239663
0.0050385168
0.0051525503
0.0051792513
0.0052909367
0.0053340693
0.0055206706
0.0056681015
0.0059134638
0.0060707395
0.0062997355
0.0064773419
0.0066770725
0.0068951108
0.0070795307
0.007407638
0.0075515707
0.0077546816
0.0078031207
0.0079310584
0.007907482
0.0079717043
0.0079197315
0.0079735366
0.0078927372
0.0079131989
0.0078310014
0.0078611098
0.0077697988
0.0077929734
0.0077234601
0.0077808627
0.0077165987
0.0077440479
0.0076691385
0.0076906376
0.0075864129
0.0075548816
0.0074228896
0.0073876403
0.0072581526
0.0072514663
0.0071465663
0.0071697932
0.0070844868
0.0071283458
0.0070428546
0.0070702661
0.0069595761
0.0069506304
0.0068457684
0.0068848959
0.0068318081
0.0068879102
0.0068559216
0.0069622039
0.0069331143
0.0069933411
0.0069436075
0.0069814932
0.0068585318
0.0067543264
0.0064676065
0.0061383644
0.0056285525
0.0050000421
0.0043704604
0.0036568145
0.0029933666
0.0024526156
0.0022823243
0.0021393709
0.0022902565
0.002869904
0.0035119303
0.0041924908
0.0048023062
0.0054121351
0.0058974195
0.0062264499
0.006494322
0.0066099656
0.0067195744
0.0066969966
0.0067358436
0.0066938116
0.0067108317
0.0066203806
0.0066394085
0.006599291
0.006638902
0.0066166862
0.0067072925
0.0067263667
0.0068208304
0.0068048408
0.0068740162
0.0068423336
0.0069113769
0.0068993153
0.0069878811
0.0070043152
0.0071153747
0.0071563924
0.0072704176
0.0073127069
0.0073984358
0.0073911135
0.0074523318
0.0074374664
0.0074879149
0.0074438293
0.0074955797
0.007487015
0.0075634242
0.0075471799
0.0076121936
0.0076052917
0.0076717171
0.0076327068
0.0076694694
0.007622086
0.0076340582
0.0075236936
0.0074641063
0.0072828455
0.0071347582
0.0068319666
0.0066425815
0.0064386125
0.0062509713
0.0060755471
0.0058618943
0.0057061207
0.0054825986
0.005332456
0.0051595958
0.005109244
0.0050103003
0.0049763212
0.004875446
0.0048560123
0.0047614188
0.0047286901
0.0046286497
0.0046039796
0.0045081005
0.0044755603
0.004376444
0.0043456671
0.0042369219
0.0041755096
0.0040522796
0.0040056808
0.0038828577
0.0037491291
0.0035696266
0.0033673479
0.003167789
0.0029498668
0.0027714768
0.0026402823
0.0024425083
0.0022770962
0.0021255605
0.0019515934
0.0018944314
0.0023125243
0.0023059002
0.0025137571
0.0025473252
0.0028815628
0.0027729211
0.0026151506
0.0026605463
0.0029692681
0.0029941381
0.003386286
0.0034093142
0.0037923455
0.0038114309
0.0040708723
0.0040850879
0.0042406439
0.0042514592
0.004403473
0.0044151273
0.0045375546
0.0045469977
0.0046589533
0.0046697188
0.0047816954
0.004791899
0.0049086957
0.004920581
0.0050339806
0.0050459768
0.0051806248
0.0051972844
0.0053695155
0.0053940367
0.0056738257
0.0057086019
0.0060039904
0.0060399363
0.0063399258
0.0063809699
0.0066963412
0.0067414133
0.007094989
0.0071375224
0.0073580346
0.0073804087
0.0074852728
0.0074956177
0.0075247661
0.0075245741
0.0075227351
0.0075198226
0.0074790252
0.0074709379
0.0074306452
0.0074255266
0.0073977408
0.0073941042
0.0073930572
0.007390977
0.0073516608
0.0073439914
0.0073041118
0.0072942716
0.007189799
0.0071734737
0.0070813789
0.0070699262
0.0069907093
0.0069805986
0.0069361569
0.0069323018
0.006907004
0.0069012209
0.0068615887
0.0068544952
0.0067744516
0.0067658453
0.0067449353
0.0067454624
0.0067466214
0.0067508641
0.0068063358
0.0068118115
0.0067831295
0.0067758181
0.0066829362
0.0066596939
0.0063565236
0.0062927058
0.0056348007
0.00552965
0.0044804705
0.0043234774
0.0029747518
0.0027300841
0.002462946
0.0023265842
0.0024853506
0.0023746636
0.0027581819
0.0027571257
0.003376861
0.0040172025
0.0046072454
0.005198733
0.005665701
0.0059917764
0.0062471234
0.0063686535
0.0064657385
0.0064580719
0.0064880647
0.0064596808
0.0064655424
0.0063857199
0.0064013302
0.0063691199
0.0064047648
0.0063899259
0.0064742034
0.0064974737
0.0065792113
0.0065744882
0.0066330065
0.0066092866
0.0066675921
0.0066630641
0.0067409316
0.0067634523
0.0068616701
0.0069028898
0.0070088999
0.0070539967
0.0071316746
0.007128401
0.0071843955
0.0071743941
0.0072134989
0.0071827885
0.0072267439
0.0072218605
0.0072852924
0.0072828866
0.0073404176
0.007337824
0.0073925063
0.0073671996
0.0073962463
0.0073552576
0.0073582652
0.0072648215
0.0072012789
0.0070312744
0.006878369
0.0065978882
0.00640679
0.0062082606
0.0060277201
0.0058579784
0.0056566342
0.005499102
0.0052884818
0.0051405027
0.0049789753
0.0049231949
0.0048324166
0.0047969526
0.0047071548
0.0046827447
0.004596115
0.004562016
0.0044709809
0.0044412386
0.004353675
0.0043207595
0.004230333
0.0041951447
0.0040941127
0.0040323857
0.0039170829
0.0038666235
0.0037498033
0.0036177788
0.0034432958
0.0032421174
0.0030463742
0.0028302621
0.0026549208
0.0027062503
0.0032064321
0.002879997
0.003103401
0.0036189791
0.0032926756
0.0035056948
0.0040330862
0.0036716454
0.0038076686
0.0043188402
0.0039140121
0.0039776162
0.0044937168
0.0040817265
0.0041470052
0.004662744
0.0042391711
0.004288083
0.0048034577
0.0043674082
0.0044052742
0.0049315332
0.0044842838
0.0045283651
0.0050637856
0.0046080841
0.0046481655
0.005197282
0.0047267876
0.0047679021
0.0053325167
0.0048474916
0.0048915803
0.0054863333
0.0049764617
0.0050501946
0.0056910971
0.0051985503
0.005349126
0.0060157112
0.0055432035
0.0057101549
0.0063675765
0.0058950577
0.0060626423
0.0067185178
0.0062376743
0.006437526
0.0070947483
0.0066252198
0.006883885
0.0075120536
0.0070407684
0.0072053869
0.0077831434
0.0072733798
0.007352068
0.0079079517
0.0073618236
0.0073983816
0.0079451382
0.0073778502
0.0073891101
0.0079387067
0.0073489549
0.0073461322
0.007893889
0.0072983242
0.0072864863
0.0078436883
0.0072390786
0.0072401335
0.0078101777
0.0072066901
0.007222696
0.0078031821
0.0071972669
0.0071992203
0.0077589868
0.0071486186
0.0071472131
0.0077063397
0.0070812627
0.0070304602
0.0075806647
0.0069338389
0.0068937478
0.0074648734
0.0068123134
0.0067819523
0.0073668698
0.0067169069
0.0067121114
0.0073111153
0.0066669573
0.0066806604
0.0072804647
0.0066327284
0.0066228846
0.0072256125
0.0065585987
0.0065307209
0.0071328688
0.0064542602
0.0064651309
0.0071076742
0.0064402963
0.0064639764
0.0071167381
0.0064501416
0.0065218381
0.007186961
0.0065297786
0.0065384657
0.0071661106
0.0065166868
0.0065010956
0.0070692793
0.0064186501
0.0062774194
0.0067190362
0.0060307348
0.0056833572
0.0059558848
0.0052238955
0.0046135346
0.0047441046
0.0040218324
0.003377371
0.003303515
0.0031324154
0.0046308257
0.0058275878
0.00659009
0.0069443512
0.0070504803
0.0070782034
0.0070121591
0.007006308
0.0070301767
0.0071212988
0.0071717304
0.0072031009
0.0072574595
0.0073520964
0.007462726
0.007585568
0.0076359498
0.0076814568
0.0076862579
0.0077187266
0.0077664134
0.0078132564
0.0078163392
0.0077798306
0.0076542587
0.0073911375
0.0069798356
0.0066087892
0.0062595472
0.0059148726
0.005593808
0.0053923081
0.0052365263
0.0051037062
0.0049696631
0.0048398291
0.0047115938
0.0045715037
0.0044020599
0.0042278648
0.0039442988
0.0035300467
0.0031129393
0.0045942784
0.0042012894
0.0042585176
0.0042372627
0.0030843166
0.0028381553
0.0028830632
0.0029887129
0.0031507909
0.0032709105
0.0033637107
0.0034388922
0.0034860909
0.0034987274
0.0033218808
0.0034983214
0.0040298263
0.0039343844
0.0035215605
0.0034600496
0.003614333
0.0041149128
0.0052144719
0.0050728009
0.0056838326
0.0055211496
0.0059849846
0.0057772308
0.0060549977
0.0057811013
0.0059453379
0.0056116487
0.0055337815
0.0045932329
0.0039164254
0.0039938056
0.0041012305
0.0042105243
0.0043295289
0.0043573426
0.004407968
0.0043287479
0.0042718127
0.0044048703
0.0043806013
0.0045684222
0.0044799511
0.0045871881
0.0044817251
0.0045137551
0.0043919156
0.0043767288
0.0030490983
0.0030293644
0.0024718914
0.0022754231
0.002310682
0.0022414466
0.0023792625
0.00224023
0.0021130562
0.002077136
0.0018681852
0.00192807
0.001941397
0.0020494832
0.0021835816
0.0020218301
0.0019756621
0.001616579
0.0025350639
0.003314518
0.0049555054
0.0066087977
0.011020582
0.011923882
0.012176265
0.011486957
0.010574358
0.014675803
0.021139473
0.026988706
0.030568964
0.032225012
0.032736464
0.032741969
0.032586172
0.032421128
0.032290706
0.032213189
0.032118632
0.032004595
0.031867503
0.031705191
0.031514329
0.031291651
0.031036695
0.030746032
0.030417872
0.030051524
0.029647069
0.029886646
0.02978829
0.03019628
0.030304666
0.03036907
0.029953089
0.029670087
0.030108314
0.030508042
0.030752255
0.030679912
0.030564461
0.030892636
0.031015625
0.031311478
0.031186797
0.031441766
0.031572545
0.031662042
0.03139493
0.03109353
0.030871422
0.031197526
0.031490167
0.031521025
0.03168374
0.031601711
0.031459987
0.03130096
0.031173147
0.031088928
0.030822648
0.030520857
0.030182
0.029804788
0.02938719
0.0025756767
0.0026477932
0.0027188233
0.0027880568
0.0028541121
0.0029100521
0.0029332017
0.0028237028
0.0023397007
0.0016633347
0.00038411541
0.00033889864
0.00041624449
0.00041824148
0.00035360355
0.00031746439
0.00039505798
0.00045864275
0.0003502066
0.00040876121
0.0014342754
0.0021672546
0.0037326848
0.0037920956
0.0032080496
0.0013618281
0.00059937942
0.0013476422
0.0020723593
0.0022692209
0.002322123
0.0026159887
0.0023456077
0.002309472
0.002425995
0.0027902473
0.0045368014
0.0044458174
0.003402328
0.0051041126
0.005826737
0.0053978152
0.0055867017
0.0055993837
0.0055452917
0.0054665996
0.0053780664
0.0052833077
0.0051835544
0.0031993903
0.0032802666
0.0033579328
0.0034336407
0.0035033996
0.0035607717
0.0035871366
0.0034900133
0.0030533542
0.0018752475
0.00046494728
0.00043641563
0.00055465388
0.00055105185
0.00040359553
0.00038858299
0.00049115889
0.00048602132
0.0003776167
0.00042878802
0.001770333
0.0027163965
0.0042601168
0.0039567788
0.0059870514
0.0055718309
0.0082979875
0.011982278
0.012800379
0.012547271
0.012864876
0.012401913
0.012678687
0.012183864
0.012442457
0.011514226
0.014641386
0.021240119
0.026896921
0.030418343
0.03208892
0.032630314
0.032656767
0.032510055
0.032346711
0.032255126
0.032143964
0.032009502
0.031850012
0.03166247
0.031800411
0.03199527
0.032162342
0.032301673
0.032428372
0.032278987
0.032103642
0.031899719
0.031752218
0.031981955
0.032183712
0.032358381
0.032505966
0.032553805
0.032416514
0.032418459
0.032256674
0.032117589
0.032021385
0.031966234
0.031844457
0.031698472
0.031525943
0.031324154
0.031326461
0.031098803
0.030837021
0.030539565
0.030204781
0.029831
0.029416351
0.003714133
0.0037977992
0.0038776758
0.0039544009
0.0040231952
0.0040776498
0.0041042686
0.0040133914
0.0034673861
0.0020908123
0.00056413913
0.00053539496
0.00065827265
0.00064600019
0.00047867433
0.00047971254
0.00060654684
0.0005992322
0.00043679324
0.00050909674
0.0019735575
0.0033233946
0.0047016038
0.0045048885
0.0073844006
0.0068608171
0.009852729
0.011325736
0.014732958
0.02124327
0.026468261
0.029842947
0.031557668
0.031331077
0.031076571
0.030792438
0.030478402
0.030135314
0.029762014
0.029357424
0.028919977
0.0041131988
0.0041956964
0.0042726441
0.0043447575
0.004407308
0.0044550936
0.0044736589
0.0043764707
0.0038020863
0.0025098001
0.00073672816
0.00069210073
0.00080138093
0.00078859132
0.00061850258
0.00060939219
0.00072867908
0.00070993639
0.00054243203
0.0006449737
0.0022823921
0.0036683392
0.0048755929
0.0047461716
0.0078799785
0.0077704078
0.010383726
0.01538961
0.015044722
0.021220021
0.026429993
0.029829265
0.031559841
0.032192004
0.032285195
0.032170738
0.032015411
0.031870123
0.031762451
0.031596104
0.03140137
0.031522023
0.031710884
0.031728991
0.031606244
0.031528279
0.031701567
0.031847255
0.031908892
0.03190424
0.032006101
0.032018235
0.031886901
0.031771773
0.031782987
0.031713422
0.031547387
0.031352949
0.031127686
0.03086916
0.030575342
0.030244285
0.029873424
0.0294598
0.0044903801
0.0045766262
0.0046562224
0.0047307091
0.0047939873
0.0048412991
0.0048585485
0.0047550828
0.0041581074
0.0030589829
0.00093938267
0.00086032335
0.00097402971
0.00095290359
0.00078096318
0.000776945
0.00088072853
0.00086570794
0.00070223546
0.00083993744
0.0027759091
0.0040209131
0.0051183753
0.0049275048
0.0082728194
0.0081677126
0.010835597
0.015843106
0.021751014
0.02141762
0.026522881
0.029884784
0.031598382
0.032218346
0.032304165
0.032188259
0.032034794
0.031883359
0.031859912
0.031676376
0.031822997
0.032011714
0.032035658
0.031856307
0.031705566
0.031547467
0.031416145
0.031195379
0.030941381
0.030915501
0.030622011
0.03029116
0.029922198
0.029515194
0.0048559944
0.0049498488
0.0050357589
0.0051155115
0.0051825639
0.0052325331
0.0052513138
0.0051466894
0.0045376676
0.0037144459
0.0011635443
0.001048435
0.0011733794
0.0011505951
0.00095140023
0.00094631462
0.0010687961
0.0010489572
0.00086427518
0.0010537411
0.0033689593
0.0043869387
0.0055212343
0.0052370829
0.0086745665
0.0085547052
0.01129467
0.016325102
0.022124742
0.026982414
0.026732185
0.030008014
0.031665629
0.032259795
0.032330314
0.032207436
0.032049345
0.031898448
0.03174744
0.031624248
0.031438041
0.031221328
0.030971434
0.030686479
0.030652299
0.030325996
0.029960717
0.029556739
0.0052615977
0.0053651234
0.0054593029
0.0055463172
0.0056189272
0.0056729428
0.0056946146
0.0055870502
0.0049629311
0.0044612262
0.0014063475
0.0012707986
0.0014029764
0.0013782783
0.0011505138
0.001148873
0.0012862145
0.0012640619
0.0010516157
0.0012833579
0.0040697626
0.0047923489
0.0062203404
0.0057885131
0.0091088738
0.0089751859
0.011833363
0.016863427
0.02251147
0.027245773
0.03031529
0.030158381
0.03174659
0.032299195
0.032350862
0.032221755
0.032056089
0.031900303
0.031786388
0.03171967
0.031557954
0.031368081
0.031147165
0.030893115
0.030603395
0.030275744
0.029907721
0.029497256
0.029615542
0.029592964
0.03000042
0.030156141
0.030115335
0.030068624
0.029674962
0.029728927
0.029771807