/*--------------------------------*- C++ -*----------------------------------*\
| =========                 |                                                 |
| \\      /  F ield         | OpenFOAM: The Open Source CFD Toolbox           |
|  \\    /   O peration     | Version:  v2012                                 |
|   \\  /    A nd           | Website:  www.openfoam.com                      |
|    \\/     M anipulation  |                                                 |
\*---------------------------------------------------------------------------*/
FoamFile
{
    version     2.0;
    format      ascii;
    class       volScalarField;
    location    "100";
    object      omega;
}
// * * * * * * * * * * * * * * * * * * * * * * * * * * * * * * * * * * * * * //

dimensions      [0 0 -1 0 0 0 0];


internalField   nonuniform List<scalar> 
19710
(
30.771737
30.734682
30.72536
30.626112
30.342441
30.292405
30.220788
30.003738
29.849349
29.733677
29.641798
29.57628
29.538401
29.494701
29.521285
29.573158
29.641977
29.705155
29.337899
28.338853
28.313955
28.367388
28.471995
28.569788
28.58131
28.665008
28.761555
29.381822
34.526803
37.528266
36.039076
33.787112
30.968762
29.971202
29.2941
28.710337
28.156604
27.624373
27.110352
26.617193
8.2923798
8.308437
8.3292767
8.3543534
8.3834155
8.4162881
8.4523495
8.4910927
8.5320725
8.5750727
8.6196943
8.6656983
8.7129627
8.7614063
8.8110057
8.8617362
8.9135976
8.9727456
8.9223101
8.8723722
8.822881
8.7738545
8.7253861
8.6776468
8.6308824
8.5853931
8.5415275
8.4996522
8.4601544
8.4234119
8.3898175
8.3597917
8.3710822
8.4000229
8.4327282
8.4687049
8.5075614
8.5489031
8.5923342
8.6374771
8.6839677
8.7314885
8.7797809
8.8286596
8.8780239
8.927846
8.9781656
8.9902379
8.9400235
8.8902629
8.840908
8.7919811
8.7435786
8.6958839
8.6491512
8.6036962
8.5598813
8.5180776
8.4786728
8.4420534
8.4086038
8.3787569
8.3990236
8.4289945
8.4626523
8.4995172
8.5391898
8.5812723
8.6253517
8.6710453
8.7179757
8.7658091
8.8142829
8.8632091
8.9124873
8.9621052
9.012109
9.0485347
8.9988645
8.9494832
8.9003252
8.8513993
8.8027955
8.754698
8.7073771
8.6611766
8.6164956
8.5737563
8.5333501
8.495672
8.4611239
8.4301301
8.4922612
8.5229402
8.5573157
8.5948968
8.6352605
8.6779906
8.7226567
8.7688411
8.8161171
8.8640888
8.9124746
8.9610619
9.0097554
9.0585597
9.1075442
9.2055615
9.1578379
9.110138
9.0623777
9.0145293
8.966666
8.9189588
8.8717356
8.8254251
8.7804841
8.7373099
8.696321
8.6579508
8.6226451
8.590662
8.7751077
8.807055
8.8423901
8.8806791
8.9215277
8.9645268
9.0092521
9.0552558
9.1020316
9.149046
9.195922
9.2424966
9.2887194
9.3346426
9.3803495
9.7193038
9.6746916
9.6294239
9.583501
9.5368883
9.489615
9.4417726
9.3938176
9.3464001
9.3000644
9.2552337
9.2122722
9.171527
9.1333412
9.09808
9.6851059
9.7266611
9.7711285
9.8181283
9.867343
9.9185051
9.9714128
10.025805
10.081225
10.13681
10.191861
10.246441
10.3005
10.353964
10.406561
11.812014
11.716059
11.620864
11.527375
11.43648
11.348364
11.262596
11.179895
11.101451
11.02717
10.956274
10.888188
10.822809
10.760313
10.701006
12.359653
12.452754
12.550996
12.654174
12.762453
12.876796
12.999279
13.134136
13.285967
13.45369
13.63441
13.831801
14.050571
14.294854
14.559829
17.774034
8.8639429
8.8096954
8.7563986
8.7041148
8.6529391
8.6029918
8.5544382
8.5074777
8.4623576
8.4193507
8.3787913
8.340984
8.3062887
8.2750442
8.2476523
8.2243984
8.205709
8.2214156
8.2277095
8.2258213
8.2191991
8.2159171
8.2196644
8.2252814
8.2297411
8.2345858
8.2421478
8.2510951
8.2587136
8.3014198
8.2986524
8.2932548
8.2877831
8.2809625
8.2758717
8.2683306
8.2598698
8.252581
8.2472384
8.2426383
8.2374318
8.2338174
8.2361417
8.2413171
8.2429497
8.2375672
8.2586274
8.2630586
8.2620901
8.2580223
8.2563771
8.2599209
8.2652081
8.2697197
8.2753262
8.2823659
8.2908302
8.2981027
8.3034253
8.3099545
8.3156144
8.3207277
8.3236907
8.3287885
8.3317314
8.3353752
8.3387525
8.3414959
8.3434194
8.3459144
8.3477685
8.3524716
8.3559485
8.3572221
8.3591815
8.3635325
8.3681038
8.3719736
8.3731215
8.3696967
8.3979182
8.4005576
8.3993839
8.3957653
8.3915343
8.3873929
8.3851378
8.383427
8.3801027
8.3756539
8.373316
8.3705828
8.3685541
8.3654735
8.3622539
8.3586142
8.3554253
8.3504805
8.3474474
8.3426593
8.3368005
8.3303032
8.3248568
8.3177935
8.309315
8.3023443
8.296624
8.2921928
8.2868066
8.283396
8.2842872
8.2873813
8.2877178
8.2840683
8.3137594
8.3167662
8.3166528
8.3145995
8.314423
8.3178849
8.323064
8.327744
8.3334494
8.340499
8.3486717
8.3556965
8.361421
8.3677319
8.3736048
8.3782357
8.3815624
8.3862615
8.3896967
8.3933154
8.3964028
8.3996324
8.4020858
8.4048549
8.4075669
8.4118518
8.4150476
8.4171461
8.419569
8.4235187
8.4274251
8.430791
8.4319621
8.4299013
8.465333
8.4668273
8.4656573
8.4625464
8.4589344
8.4551788
8.4526775
8.450216
8.447122
8.4429928
8.4400045
8.4372154
8.4343803
8.4310275
8.4279702
8.4244152
8.4207775
8.4163096
8.4127055
8.4080605
8.4022888
8.3961719
8.3902424
8.3832212
8.3753106
8.3682343
8.3624878
8.3575823
8.3525427
8.3490453
8.3485791
8.349718
8.3495957
8.3470564
8.3836822
8.3858573
8.386177
8.3858325
8.3868413
8.3904212
8.3953435
8.4004664
8.4062561
8.4133507
8.4210137
8.4280041
8.4340289
8.4401511
8.4457193
8.4503701
8.4541944
8.4584824
8.4622473
8.4657968
8.4688602
8.4722989
8.4754269
8.4782607
8.4814627
8.4853937
8.4885986
8.4912295
8.4937886
8.4973653
8.5006992
8.5035755
8.5047385
8.5036641
8.5446137
8.5452358
8.5441244
8.5414629
8.5383768
8.5349771
8.5323857
8.5296501
8.5263167
8.5225547
8.5191774
8.5162562
8.5129293
8.5094288
8.506329
8.5027332
8.4989097
8.4947859
8.4907952
8.4861531
8.4807479
8.4746449
8.4685853
8.4616411
8.4541802
8.4470894
8.4412606
8.4359684
8.4311047
8.4274611
8.4259735
8.4256721
8.4251417
8.4232449
8.465477
8.4671126
8.4678067
8.4686426
8.4705198
8.474247
8.4790585
8.4844291
8.4904028
8.4974114
8.5046775
8.511557
8.5176788
8.5236783
8.5289389
8.5336034
8.5376469
8.5417056
8.5454528
8.5490854
8.5523637
8.5559056
8.5592837
8.5623959
8.56585
8.5695359
8.5728795
8.5756969
8.578316
8.581558
8.5844323
8.586869
8.5879937
8.5876811
8.6325634
8.6326112
8.6314282
8.6292065
8.6265127
8.6234198
8.6207802
8.6178998
8.6145733
8.610938
8.6074453
8.6041529
8.6007383
8.597181
8.5937483
8.5900819
8.5863763
8.5823845
8.5783165
8.5736544
8.5685347
8.5626765
8.5565427
8.5497497
8.5426625
8.5357775
8.5297054
8.5242798
8.5194926
8.5157068
8.5135008
8.5122565
8.5113961
8.5099417
8.5564011
8.5576975
8.5586903
8.5602514
8.5627059
8.5665493
8.5713065
8.5767496
8.5828549
8.5896074
8.5965032
8.6031672
8.6092462
8.6149234
8.6199588
8.6245284
8.6286164
8.6325639
8.6362385
8.6399204
8.6434642
8.6470125
8.6505182
8.6539175
8.6574124
8.6610082
8.6643152
8.6672463
8.6699146
8.672858
8.6754009
8.6774743
8.6786937
8.678829
8.7261972
8.7259109
8.7246681
8.7227208
8.7202755
8.717481
8.7147747
8.7118097
8.7085157
8.7049912
8.701475
8.6980179
8.6944448
8.6909018
8.6872896
8.6835976
8.6799446
8.6760458
8.671967
8.6675085
8.6625819
8.6571014
8.6511404
8.6446545
8.6379589
8.6313705
8.6252957
8.6198765
8.6151477
8.6112738
8.6086345
8.6068371
8.605734
8.6045442
8.6541744
8.6552582
8.6564817
8.6584107
8.6611942
8.6650794
8.6697607
8.6751329
8.6811021
8.6875002
8.6939645
8.7002405
8.706007
8.7112896
8.7160451
8.7204067
8.7244202
8.7282563
8.7319182
8.7355916
8.7392305
8.7427959
8.7463796
8.7498908
8.7534188
8.7569005
8.7601633
8.763158
8.765868
8.768541
8.7708959
8.7727604
8.7739782
8.7743723
8.823188
8.822717
8.8215195
8.819719
8.8174562
8.8148859
8.812184
8.8091825
8.8059505
8.8025106
8.7989915
8.7954503
8.7918663
8.7882861
8.784651
8.7810085
8.77736
8.7735826
8.7696661
8.7654295
8.7608613
8.7558087
8.7502825
8.7442646
8.7380638
8.7318901
8.7260682
8.7207831
8.7161703
8.7123038
8.7094327
8.7074248
8.7061116
8.7050905
8.7571854
8.7581438
8.759503
8.7615604
8.7644679
8.7682869
8.7728246
8.7779798
8.7836129
8.789533
8.7954546
8.8011587
8.8064087
8.8112132
8.8155745
8.8196538
8.823474
8.8271683
8.8307743
8.8343896
8.8379942
8.8415698
8.8451366
8.8486797
8.8521692
8.8555614
8.8587716
8.8617449
8.8644321
8.8669161
8.8690921
8.8708262
8.8720068
8.872522
8.9223522
8.9218094
8.9206537
8.9189815
8.9168873
8.9144805
8.9118282
8.9088971
8.9057261
8.9023893
8.8989395
8.8954267
8.8918938
8.8883458
8.884789
8.8812233
8.8776792
8.874081
8.8703794
8.866475
8.8623339
8.8577933
8.8528503
8.8474817
8.8418637
8.836217
8.8307922
8.8257931
8.8213555
8.8176013
8.8146972
8.8126181
8.8112466
8.810338
8.8644799
8.8653402
8.8667028
8.8687738
8.8716449
8.8753146
8.879629
8.8844648
8.8896706
8.8950438
8.9003431
8.9053753
8.9100072
8.9142661
8.9181854
8.9219005
8.9254668
8.9289583
8.9324176
8.935909
8.9394067
8.9428997
8.9463777
8.9498364
8.9532257
8.9564947
8.9596051
8.9624809
8.9650782
8.9674098
8.9694246
8.9710327
8.9721541
8.9727076
9.0047818
9.0014747
8.998093
8.9946904
8.9912738
8.9878587
8.9844596
8.9811008
8.9777293
8.9743112
8.9707871
8.9670919
8.9631079
8.9587808
8.9540716
8.9490785
8.9439686
8.938981
8.9778855
8.9276073
8.8778514
8.8285802
8.779828
8.7316991
8.6843873
8.6381552
8.5933257
8.5502812
8.5093753
8.4710116
8.4355793
8.4034771
8.3751441
14.763822
14.910902
15.066802
15.231688
15.406971
15.596389
15.805486
16.039088
16.339209
16.588021
16.857941
17.109443
17.315856
17.539051
20.388066
21.734444
21.856297
23.962362
8.9897052
8.9395351
8.8898389
8.8405748
8.7917762
8.7435317
8.6960407
8.6495542
8.6043992
8.5609554
8.5195667
8.4806413
8.4445681
8.4117342
8.3825492
17.500625
17.67118
17.847213
18.028126
18.215475
18.415388
18.64105
18.892261
20.800948
21.25429
21.620669
22.08597
22.475681
22.990615
23.401725
23.836984
23.949802
24.243868
24.658413
25.555914
26.588127
27.767687
30.655051
30.639962
30.600727
29.715818
29.640908
28.425008
28.359599
27.2229
27.172042
26.485408
26.446833
25.913992
25.876333
25.377225
25.339436
24.929097
24.892742
24.52455
24.491545
24.210872
24.181364
23.924693
23.896167
23.666253
23.635818
23.399538
23.405453
23.347368
23.282787
23.169973
23.097707
22.748411
22.69672
22.387561
22.341981
22.077264
22.032681
21.777122
21.716582
21.359302
21.306514
21.111191
21.077194
20.927759
20.904646
20.812473
20.798706
20.741667
20.735328
20.717679
20.718689
20.720399
20.723293
20.746337
20.751935
20.762948
20.767495
20.790154
20.798062
20.843045
20.861629
20.99264
21.022506
21.18124
21.210413
21.337347
21.3574
21.435872
21.449989
21.52749
21.544828
21.657292
21.678222
21.794874
21.807103
21.83135
21.838117
21.888163
21.900659
22.01338
22.055007
22.417923
22.500162
23.033979
23.191319
24.321197
24.605185
26.393233
26.869657
29.500756
30.183385
30.90041
31.382952
31.245967
33.400518
33.210163
32.570362
32.531171
30.385057
29.434068
27.039154
26.254459
24.67877
24.221627
23.253504
22.997426
22.54574
22.417163
22.109871
22.046434
21.954478
21.934737
21.892357
21.882791
21.863044
21.843466
21.742327
21.70856
21.612088
21.585086
21.520328
21.497234
21.428275
21.394761
21.282931
21.235705
21.097074
21.048207
20.932933
20.901844
20.861653
20.848792
20.828457
20.821635
20.811777
20.803271
20.781021
20.773499
20.768745
20.765955
20.775429
20.782693
20.827924
20.847897
20.922884
20.958507
21.085201
21.138423
21.309104
21.395001
21.711428
21.809498
22.037074
22.110502
22.344452
22.419399
22.693432
22.784214
23.118208
23.267892
23.276955
23.221454
23.37816
23.396288
23.605434
23.659919
23.860212
23.907262
24.134216
24.18598
24.433303
24.49063
24.818163
24.883123
25.249438
25.319384
25.772912
25.841096
26.320818
26.392054
27.028753
27.123718
28.17846
28.30199
29.440087
29.569993
30.403955
30.534343
30.659929
30.685715
30.347277
30.324005
30.174874
30.017031
29.306522
29.095649
28.094371
27.891814
26.962825
26.808125
26.2453
26.131148
25.722127
25.610593
25.224271
25.116242
24.812699
24.713697
24.440789
24.355523
24.152202
24.076682
23.886386
23.816128
23.651014
23.574904
23.40501
23.370099
23.230503
23.129702
23.031297
22.881259
22.715031
22.487728
22.371294
22.179833
22.069837
21.879714
21.733784
21.481513
21.356182
21.216708
21.144832
21.049766
21.00741
20.954433
20.935583
20.906324
20.905295
20.902041
20.91526
20.921967
20.941068
20.959056
20.978355
20.983637
21.000796
21.015524
21.040983
21.070697
21.121673
21.206643
21.285275
21.388033
21.464631
21.546969
21.602524
21.6507
21.689534
21.729918
21.774461
21.838634
21.895321
21.964734
22.001854
22.013799
22.034511
22.057075
22.089105
22.147806
22.242237
22.460215
22.666133
23.06929
23.255067
23.420678
24.157975
24.759839
26.112239
27.161246
29.35226
30.587499
32.749202
35.243034
35.87572
36.215481
35.647665
32.819161
30.644849
29.298935
27.163374
26.049925
24.774901
24.122134
23.451777
23.410945
23.056342
22.676551
22.468288
22.262134
22.167959
22.111974
22.080198
22.056084
22.035695
22.022367
21.985992
21.919336
21.862177
21.803936
21.760501
21.72327
21.685509
21.638424
21.58279
21.504525
21.428419
21.332357
21.253163
21.172152
21.120988
21.090739
21.065567
21.050236
21.034365
21.028783
21.010049
20.991061
20.971242
20.963135
20.949533
20.947589
20.947126
20.972557
20.991401
21.038509
21.08104
21.169421
21.242883
21.374978
21.50441
21.74251
21.893602
22.07355
22.187522
22.368762
22.492159
22.719417
22.951293
22.910496
23.109096
23.219669
23.357871
23.401534
23.559549
23.64034
23.791639
23.866556
24.04206
24.123471
24.308908
24.401891
24.652156
24.759987
25.038678
25.1595
25.51283
25.637423
26.013673
26.144557
26.674752
26.852239
27.724414
27.955347
28.894857
29.133216
29.794855
29.981495
30.250072
30.005646
29.833344
29.711598
29.614723
29.537909
29.492904
29.444653
29.485303
29.307601
29.012385
28.532897
28.158735
27.498253
27.119618
26.545332
26.232348
25.877598
25.649017
25.453537
25.241717
25.048329
24.859083
24.72811
24.562508
24.4491
24.303763
24.232538
24.09686
24.021897
23.896923
23.849881
23.724279
23.665378
23.55346
23.494864
23.327033
23.197765
23.009304
22.901129
22.745489
22.626736
22.499384
22.353511
22.234157
22.012957
21.925608
21.79334
21.762091
21.670144
21.679268
21.626969
21.655505
21.610749
21.660833
21.642541
21.703647
21.687223
21.757643
21.747634
21.809405
21.778357
21.840716
21.835285
21.905568
21.897685
21.98758
22.020731
22.13377
22.170562
22.286992
22.305857
22.406491
22.398577
22.481176
22.452065
22.532955
22.514385
22.618105
22.635538
22.744618
22.733033
22.816605
22.810202
22.898501
22.884091
23.020368
23.123999
23.364565
23.590987
23.98272
24.449341
25.144712
26.050508
27.250502
28.896141
30.600394
32.639091
34.894511
36.925944
37.565719
37.870355
37.122643
34.904669
32.648442
30.630675
28.932194
27.306932
26.130786
25.232732
24.554216
24.090532
23.715081
23.480985
23.250733
23.140056
23.018328
23.024101
22.940306
22.929743
22.856071
22.855502
22.753771
22.725357
22.632815
22.64362
22.574584
22.595345
22.522738
22.521275
22.430157
22.403169
22.29795
22.256442
22.154417
22.112377
22.032809
22.030546
21.96794
21.964173
21.909678
21.931608
21.878792
21.879708
21.817372
21.82536
21.771878
21.777431
21.732539
21.769026
21.748765
21.790867
21.786317
21.867183
21.903674
22.024966
22.117574
22.325485
22.447742
22.589445
22.714598
22.834057
22.981368
23.089806
23.267123
23.402143
23.562018
23.62091
23.721016
23.784162
23.902552
23.95444
24.069489
24.146555
24.275116
24.348318
24.485091
24.598405
24.755296
24.88155
25.060965
25.249133
25.455313
25.64674
25.874402
26.226515
26.540858
27.09871
27.479347
28.125844
28.507756
28.985321
29.299862
29.543426
29.620223
29.794787
29.800337
29.189826
29.353113
29.016416
28.814152
28.164435
28.122307
28.217642
28.164263
27.433019
27.390469
26.508067
26.473365
25.680864
25.65211
25.110992
25.087049
24.734999
24.713378
24.388976
24.366461
24.106913
24.087802
23.859594
23.841735
23.652116
23.636457
23.454992
23.439272
23.282978
23.269833
23.10384
23.086501
22.91375
22.893948
22.657146
22.633509
22.425482
22.403547
22.203286
22.178925
21.970747
21.943796
21.709147
21.685177
21.543657
21.531226
21.456
21.449209
21.418704
21.41743
21.407403
21.408948
21.433542
21.439993
21.476434
21.480603
21.515917
21.52214
21.543207
21.548675
21.602331
21.611266
21.659252
21.668507
21.763549
21.777187
21.866604
21.878145
21.964306
21.975847
22.032576
22.037798
22.072747
22.078725
22.122212
22.131063
22.223063
22.234863
22.304556
22.315816
22.400469
22.41498
22.506863
22.528533
22.784249
22.833577
23.291667
23.374554
24.178184
24.323527
25.787832
26.019662
28.535728
28.924488
32.821134
33.579932
34.52709
35.265488
34.999321
35.714447
34.614084
34.866285
32.663755
30.692413
28.994814
27.393437
26.230567
25.343236
24.676364
24.216186
23.853346
23.617586
23.395887
23.276735
23.164588
23.164237
23.080866
23.063756
22.9952
22.991551
22.88913
22.85456
22.768212
22.77019
22.706879
22.722442
22.656576
22.649883
22.563811
22.531061
22.431955
22.388189
22.288867
22.243766
22.169028
22.164788
22.10357
22.094476
22.043161
22.057732
22.012208
22.007358
21.945843
21.947718
21.90006
21.900164
21.857555
21.884576
21.866567
21.90465
21.904374
21.97651
22.017813
22.135928
22.233756
22.431349
22.553405
22.695433
22.82167
22.9398
23.081449
23.194038
23.364461
23.499277
23.65365
23.722717
23.815514
23.87321
23.988651
24.045675
24.151749
24.226552
24.34844
24.422476
24.552638
24.661595
24.812205
24.93754
25.112972
25.296794
25.499448
25.686142
25.912701
26.260363
26.579145
27.12467
27.510513
28.145574
28.535928
28.327607
27.408359
27.942779
27.325748
26.49012
26.946902
26.410587
25.646087
26.098778
25.757801
25.072521
25.542235
25.349136
24.692487
25.15669
24.972618
24.338676
24.806734
24.669264
24.046117
24.528201
24.412486
23.787711
24.290311
24.201529
23.571332
24.090271
24.006952
23.365607
23.907014
23.835478
23.18129
23.73352
23.663333
22.994629
23.574476
23.490431
22.797435
23.350474
23.214681
22.534163
23.061564
22.942682
22.295802
22.814957
22.698985
22.072797
22.581804
22.44277
21.834177
22.319832
22.138504
21.568902
22.038868
21.927051
21.400152
21.884676
21.823312
21.310164
21.815217
21.780616
21.269938
21.791965
21.773775
21.257839
21.803549
21.804758
21.281289
21.84483
21.854665
21.321402
21.90256
21.910092
21.358105
21.94825
21.945135
21.383054
21.983373
21.997734
21.439168
22.053236
22.062753
21.495079
22.126921
22.176057
21.603269
22.265657
22.307755
21.708104
22.390233
22.428975
21.807075
22.501592
22.516858
21.872535
22.56988
22.564308
21.911755
22.616289
22.626141
21.966722
22.694331
22.732823
22.068194
22.825199
22.838656
22.144122
22.898584
22.923654
22.234371
23.001508
23.014522
22.342293
23.112217
23.24992
22.643264
23.456496
23.712329
23.183554
24.054084
24.52765
24.129746
25.167564
26.061396
25.827969
27.188305
28.785488
28.662937
30.466601
32.434278
32.593075
32.653943
28.518382
25.746223
24.085914
23.158795
22.62888
22.334461
22.227909
22.136693
22.059548
21.959373
21.908178
21.868229
21.803722
21.706948
21.605022
21.498484
21.443183
21.385374
21.36121
21.32249
21.28272
21.258708
21.271807
21.310206
21.398745
21.56307
21.825027
22.059767
22.28327
22.517485
22.779808
22.976555
23.162936
23.343152
23.545388
23.759949
24.015814
24.30488
24.658962
25.039915
25.610198
26.443775
27.360957
25.699
26.356156
26.187668
26.410484
28.070405
28.520166
28.629253
28.671562
28.641716
28.669138
28.742971
28.850718
29.002486
29.206897
29.670252
29.593128
28.948045
29.378642
30.331779
30.744179
30.712851
29.581982
27.769376
27.698468
26.678169
26.638901
25.84792
25.86418
25.337147
25.435288
25.060158
25.237145
25.155819
26.188082
27.191338
27.21256
27.251539
27.296883
27.348712
27.523367
27.688523
28.027645
28.358296
28.258494
28.061667
27.576217
27.482074
27.115533
27.045442
26.785345
26.751402
26.602159
28.222142
28.447583
29.156714
29.463277
29.557291
29.549948
29.396748
29.518693
29.628461
29.63306
29.879898
29.804685
29.796661
29.665886
29.395245
29.635274
29.67596
29.94315
28.950894
27.912074
26.000325
24.53489
20.387633
19.500211
19.517772
20.329683
21.304611
18.143846
14.403958
11.722101
10.331065
9.6383883
9.2910404
9.1104828
9.0094801
8.9490089
8.9118874
8.8626652
8.8138183
8.7654338
8.7177098
8.6708982
8.6253447
8.5814464
8.5395438
8.5000806
8.4634809
8.4301149
8.4002968
8.4957612
8.4347936
8.4647445
8.525655
8.6260256
8.5947302
8.7789251
8.8103098
8.8451812
8.6605291
8.5593805
8.4983666
8.5352974
8.5964009
8.6363816
8.5749199
8.6172209
8.6787547
8.78181
8.7389461
8.6983317
8.8831167
8.9237633
8.9666184
8.966733
8.7806127
8.6765338
8.6153392
8.5799825
8.5601216
8.5502033
8.5094494
8.4712548
8.4360192
8.4041393
8.3760518
27.180671
27.723002
28.293208
28.891767
29.523056
30.210386
31.051046
32.436538
36.040122
40.064898
45.254488
44.809321
40.14637
41.542024
45.5858
45.38985
40.155235
41.811269
44.916868
45.070275
40.214478
36.434574
27.492161
27.102565
27.850597
28.69029
29.655189
28.655655
28.580992
28.420281
27.935359
27.997679
28.435996
28.567306
28.454643
27.851396
25.692377
25.263233
25.007855
24.522478
23.753391
24.097862
23.452896
23.028945
22.68524
22.369424
22.065869
21.771538
21.486814
25.792423
26.30452
26.844302
27.413332
28.019226
28.683098
29.48437
30.731721
33.507032
37.041797
41.498024
40.304902
36.765904
37.778865
42.364815
42.399257
38.461807
39.997738
44.616865
43.569703
38.719838
34.87897
26.413397
27.168374
23.636973
24.147976
21.297812
18.322701
17.642968
17.991033
17.961871
18.422131
18.396093
18.91341
18.910766
19.772268
17.841846
14.131686
11.616232
10.274021
9.5917175
9.2446921
9.0627573
8.9608279
8.8999186
8.8510901
8.802606
8.7546704
8.7075407
8.6615696
8.7231195
8.7690865
8.8161414
8.8640019
8.9671943
8.9196157
8.8725533
8.8264428
9.0112319
9.0572061
9.1039724
9.1510383
9.198005
9.0149633
8.9123001
8.9110291
8.8496394
8.8124994
8.7907298
8.7791414
8.7310695
8.6838462
8.6377269
8.5930377
8.5919315
8.5488901
8.5080107
8.469686
8.4343187
8.402322
8.3741341
24.48212
24.975298
25.494656
26.042525
26.626803
27.26752
28.01779
29.125947
31.763684
34.944962
39.002318
38.213805
34.919252
35.272315
39.444694
38.960734
35.573593
36.27515
40.617078
39.972757
35.769994
32.474302
25.212906
25.743138
22.16951
22.726268
20.270238
18.887929
16.896148
13.483441
11.322826
10.101005
9.4480653
9.3996028
9.3517252
9.3050121
9.2599269
9.2168275
9.1760712
9.1379972
9.1029604
23.368005
23.852129
24.365919
24.912074
25.497726
26.139428
26.885095
27.947589
30.400501
33.414616
37.286749
36.538748
33.44713
33.944345
37.830455
37.530634
34.321533
34.641985
38.660523
38.21858
34.208168
31.078538
24.410307
24.848926
21.615489
21.758585
19.876971
16.873353
16.94946
13.595706
11.380324
10.124989
9.4559663
9.1054253
8.918945
8.814729
8.7531495
8.7163504
8.6950667
8.6486055
8.6034734
8.6238843
8.6694728
8.6669451
8.646744
8.636507
8.682507
8.7296998
8.7407546
8.7424972
8.7640749
8.761758
8.7138809
8.6932006
8.690745
8.6803049
8.6340036
8.5890895
8.5459152
8.5048698
8.4663527
8.4307762
8.3985883
8.3703128
22.398672
22.851134
23.334082
23.85014
24.406531
25.017685
25.7276
26.72692
28.956217
31.634951
35.047828
34.271491
31.594134
31.98576
35.397242
35.480045
32.433719
32.895721
36.672585
36.180689
32.490873
29.621567
23.717358
24.106964
21.101713
21.26417
19.480763
16.651205
13.51076
13.598599
11.395173
10.133308
9.4572449
9.1035117
8.9162158
8.8119173
8.7503615
8.7029788
8.7059221
8.6598309
8.7211943
8.7674109
8.764396
8.7178536
8.6566722
8.6211036
8.601493
8.5579003
8.516357
8.5187252
8.4798068
8.4437766
8.4110049
8.3818084
21.638484
22.057977
22.507634
22.989676
23.510811
24.08346
24.746209
25.66988
27.716025
30.056075
32.987414
32.321785
30.206132
30.474487
33.136418
33.204071
30.82313
31.174107
34.175241
33.978549
30.787635
28.272886
23.175077
23.504147
20.587834
20.736308
19.045095
16.373095
13.384538
11.30559
11.363141
10.118334
9.4473438
9.0965637
8.9110344
8.8078199
8.7470272
8.711097
8.6639385
8.6440598
8.598649
8.5548787
8.51315
8.4738526
8.4772663
8.441036
8.4080792
8.3787374
21.020215
21.408968
21.827534
22.277747
22.766073
23.303451
23.924152
24.784097
26.692593
28.77554
31.329362
30.837171
29.141099
29.348749
31.477436
31.514838
29.612041
29.872148
32.237356
32.080701
29.339448
27.133371
22.711537
23.00996
20.120691
20.243485
18.578666
16.087337
13.260096
11.243648
10.050583
10.088132
9.429831
9.0858245
8.9040018
8.8027434
8.7432425
8.7081188
8.6880952
8.6777581
8.6312991
8.5861957
8.5428147
8.5015358
8.4627734
8.4269539
8.3945537
8.3660238
8.3719868
8.3752339
8.4043557
8.4209142
8.4248695
8.4286544
8.3982646
8.3940843
8.3900116
8.3852483
8.4157117
8.4005085
8.4337616
8.4373725
8.4545614
8.4583039
8.4616832
8.4983283
8.4948045
8.5345482
8.5378406
8.5726429
8.5322893
8.4946957
8.460295
8.429403
8.2687548
8.2864847
8.30895
8.3356525
8.3662383
8.4003202
8.4374623
8.4772277
8.5192103
8.5630598
8.6084642
8.6551973
8.7031209
8.7521556
8.8022727
8.8534696
8.9057531
8.9047951
8.852514
8.8013223
8.7512112
8.7021921
8.6543029
8.6076256
8.5622791
8.5185158
8.4766662
8.437015
8.3999918
8.3660468
8.3356827
8.3092257
8.2868805
8.2691298
8.2189851
8.2202955
8.2124816
8.2018022
8.1965511
8.1963548
8.2010758
8.2070146
8.2159146
8.2271983
8.2418329
8.2564225
8.2684783
8.2853939
8.2739587
8.2606955
8.246823
8.2364388
8.2276992
8.2218436
8.2171411
8.2169941
8.2210159
8.2299825
8.2365864
8.2354421
8.2568181
8.2577939
8.2523097
8.2448732
8.2419311
8.2425097
8.2472028
8.2530542
8.2614532
8.2713674
8.2843886
8.2966041
8.3070107
8.3331323
8.3234863
8.3122448
8.2999965
8.2904692
8.2825126
8.2765234
8.2718395
8.2708451
8.2730162
8.2788707
8.2833049
8.2825147
8.3124295
8.312922
8.3093979
8.3050169
8.3035381
8.3048721
8.3095614
8.3155671
8.3232239
8.3324415
8.3437993
8.3543396
8.363171
8.3968972
8.3887353
8.3788091
8.3682488
8.3592792
8.3518594
8.3459399
8.3413901
8.3396212
8.3404638
8.3437136
8.3464085
8.3459207
8.3827287
8.3831876
8.3812118
8.3789014
8.378685
8.3808434
8.3852683
8.3910893
8.3983663
8.4069832
8.4168533
8.4262183
8.4337241
8.4732988
8.4663058
8.4574871
8.4482424
8.4399414
8.4328354
8.4271455
8.4228233
8.420338
8.4199991
8.4214937
8.4228478
8.4224341
8.4647923
8.4651365
8.4642847
8.4634466
8.4643057
8.4669566
8.4712109
8.4768098
8.4836749
8.4916642
8.5004123
8.5086837
8.5152047
8.5590849
8.5529489
8.545172
8.5368805
8.5292257
8.5226269
8.5171278
8.5129427
8.5102035
8.5089974
8.5092615
8.5096973
8.5093607
8.5559076
8.556214
8.5561027
8.5562895
8.5577229
8.5605236
8.5646567
8.5699661
8.5762973
8.5836014
8.5914568
8.5987585
8.6045218
8.6513197
8.6459534
8.6390746
8.6316613
8.6246797
8.618611
8.6135312
8.6095059
8.6066861
8.6050788
8.6045611
8.6044502
8.6041193
8.6538042
8.6541385
8.6544143
8.6551502
8.6568688
8.6596672
8.6635536
8.6684103
8.6742207
8.6808535
8.687853
8.6943356
8.6993481
8.7485028
8.7437925
8.7376704
8.7310539
8.7247687
8.7192309
8.7145963
8.710879
8.7081397
8.7063741
8.7054924
8.7050937
8.7047598
8.756882
8.7572069
8.7576649
8.7586307
8.7603922
8.7630436
8.7665848
8.770991
8.7762477
8.7822103
8.7884837
8.7942667
8.7987187
8.8500003
8.8457583
8.8402607
8.8342953
8.8286305
8.8236439
8.8194645
8.8161062
8.8135635
8.8118372
8.8108504
8.8103614
8.8100517
8.8642034
8.8644816
8.8649726
8.8659435
8.8676102
8.8700314
8.8732099
8.8771699
8.8819073
8.8873064
8.8930063
8.8982723
8.9023449
9.0114331
8.9614545
8.9983205
9.0582342
9.1581524
9.3371072
9.3829684
9.2058732
9.1071884
9.0479433
8.9770997
8.9268258
8.8770828
8.8278382
8.8265067
8.7777593
8.7889402
8.8377485
8.8394841
8.8613147
8.8591867
8.8102325
8.8076518
8.7867059
8.7758251
8.7276245
8.7251431
8.7357093
8.738328
8.7590406
8.7560852
8.8046925
8.7840929
8.773351
8.822213
8.8245939
8.8739018
8.8757516
8.9255072
8.9367838
8.938432
8.8887309
8.9105235
8.9600967
8.958144
8.9084854
8.8870383
8.8849705
8.8355922
8.8566591
8.8537609
8.8330429
8.8824664
8.8716032
8.9215025
8.9237143
8.9347527
8.9557591
8.9060334
8.9031933
8.9529727
8.9323271
8.9295403
8.9189626
8.8689631
8.8194513
8.7704451
8.7220518
8.674463
8.6278975
8.5826781
8.5391753
8.4977561
8.4588704
8.4229595
8.3903418
8.3615357
8.7760253
8.5918828
8.4908886
8.5213913
8.5159776
8.4553072
8.4238136
8.4839595
8.5859317
8.6177491
8.6230906
8.8079445
8.8019242
8.7684825
8.7595201
8.5786752
8.478384
8.4202725
8.5692752
8.4700938
8.413754
8.4453124
8.4513645
8.5099077
8.502289
8.6019526
8.6105474
8.7928647
8.7806724
8.7463792
8.7343068
8.5602558
8.4642906
8.4076196
8.3796703
8.3665501
20.50232
20.864829
21.256544
21.679813
22.14024
22.647853
23.233937
24.043172
25.824546
27.705753
29.981863
29.591459
28.125328
28.33426
30.121533
30.174331
28.597518
28.841215
30.764321
30.609208
28.187585
26.205933
22.289252
22.563252
19.697857
19.801274
18.134645
15.790381
13.146187
11.177482
10.012541
9.3852362
9.4081486
9.0729084
8.8958801
8.797209
8.7390492
8.7043845
8.6845571
8.637646
8.6412716
8.59571
8.5517834
8.509853
8.4703432
8.4878953
8.4914873
8.5311784
8.5735435
8.5768023
8.6118241
8.5688013
8.5280724
8.4900682
8.5507461
8.5554176
8.5930802
8.5884968
8.6294151
8.6335436
8.7374535
8.6965121
8.6581863
8.8433249
8.8819879
8.8779487
8.692195
8.6533371
8.8383664
8.8295133
8.6465464
8.5451565
8.4859452
8.524023
8.5835634
8.5774096
8.5194596
8.4807477
8.4500487
8.4457456
8.429822
8.3961338
8.4106918
8.4067477
8.394503
8.3884238
8.35986
8.3644845
8.3753787
8.3740632
8.3638941
8.3600613
8.3874898
8.383723
8.3554119
8.3597281
8.3885463
8.3923913
8.4043958
8.3989537
8.367623
8.3929301
8.397909
8.4027556
20.053447
20.395238
20.765137
21.165316
21.60128
22.082398
22.637605
23.401685
25.069384
26.782456
28.838821
28.505218
27.207004
27.4056
28.973543
29.031359
27.648226
27.885055
29.539539
29.387485
27.209145
25.407178
21.89146
22.137476
19.344722
19.437128
17.777489
15.533291
13.047342
11.122077
9.9758005
9.3619814
9.0447042
9.058967
8.8871004
8.7911332
8.7345288
8.700933
8.6816092
8.6717754
8.6252181
8.5800236
8.5365776
8.495197
8.4563801
8.4206004
8.4272018
8.463632
8.4663195
8.4829991
8.4791362
8.4412488
8.4384998
8.4247465
8.4187337
8.4540825
8.451263
8.4155357
8.4210484
8.4573888
8.4609678
8.4756838
8.4714236
8.433487
8.4613266
8.4662079
8.4712877
8.4757542
8.43982
8.4967272
8.4894483
8.4351332
8.430204
8.4831083
8.4498209
8.456122
8.5518393
19.667549
19.992412
20.343939
20.724117
21.138141
21.594441
22.12016
22.840825
24.423462
25.978786
27.827379
27.547938
26.385903
26.545895
27.934296
27.983133
26.748102
26.939537
28.418204
28.284849
26.320749
24.6848
21.507696
21.742966
19.039345
19.124888
17.472827
15.286721