/*--------------------------------*- C++ -*----------------------------------*\
| =========                 |                                                 |
| \\      /  F ield         | OpenFOAM: The Open Source CFD Toolbox           |
|  \\    /   O peration     | Version:  v2012                                 |
|   \\  /    A nd           | Website:  www.openfoam.com                      |
|    \\/     M anipulation  |                                                 |
\*---------------------------------------------------------------------------*/
FoamFile
{
    version     2.0;
    format      ascii;
    class       surfaceScalarField;
    location    "100";
    object      phi;
}
// * * * * * * * * * * * * * * * * * * * * * * * * * * * * * * * * * * * * * //

dimensions      [0 3 -1 0 0 0 0];
oriented        oriented;


internalField   nonuniform List<scalar> 
56910
(
0.0013943632
0.00024220258
0.0004488715
0.00047880349
0.00023995229
0.00067560747
0.00023875447
0.000164422
7.5627025e-05
0.00028082603
4.8184558e-06
-4.6890016e-05
0.00037564526
-4.7689255e-05
-4.7129977e-05
0.00027343474
-1.3781663e-05
0.00011599219
0.00029578061
-1.5827172e-05
-6.5187058e-06
0.00035131123
-2.3374294e-06
-5.319319e-05
0.00039513121
-5.5046982e-06
-3.8315282e-05
0.00042170849
-2.5780646e-06
-2.3999212e-05
0.00043693643
-2.469216e-07
-1.4981021e-05
0.00044322174
1.7550002e-06
-8.040311e-06
0.00043566201
5.7891724e-06
1.7705619e-06
0.00038930965
9.8832537e-06
3.6469103e-05
0.00022096864
1.7089892e-05
0.00015125112
0.00020071024
4.9662452e-06
1.529216e-05
0.00019240513
2.8234597e-05
-1.9929491e-05
0.00037047659
-3.0530688e-05
-0.00014754077
0.00092403735
-0.0003150935
-0.00023846727
0.001595357
-0.0002212238
-0.00045009583
0.0011586497
0.00027613353
0.00016057379
0.00039745623
0.00019519291
0.00056600052
0.00019440647
6.394616e-05
0.00013910359
0.00022392034
-3.5530427e-05
6.0165653e-06
0.00028002125
-2.8172314e-05
-2.7928598e-05
0.00018906367
8.6412221e-05
4.5453573e-06
0.00019061271
-1.1343355e-05
9.7943178e-06
0.00025166002
-4.7194981e-05
-1.3852335e-05
0.00065679251
-0.0001734368
-0.00023169569
0.0014188666
-0.00032208096
-0.00043999315
0.0019140329
-0.00013542983
-0.00035973646
0.0031759029
-0.00055450261
-0.0007073674
0.0054250431
-0.0010405365
-0.0012086036
0.0061663103
-0.00032841154
-0.00041285576
0.0063897227
-8.7154198e-05
-0.00013625817
0.0064528081
-1.1477866e-05
-5.160749e-05
0.006469504
1.031309e-05
-2.7008995e-05
0.0064782117
1.3460837e-05
-2.216854e-05
0.0064858231
1.3125156e-05
-2.0736571e-05
1.1791657e-05
-2.0456983e-05
-0.0066349086
-3.1038204e-06
5.700872e-06
7.9018883e-07
-0.0066387704
-4.0259439e-06
7.4560244e-06
4.3178909e-07
-0.0066432908
-5.1994871e-06
9.7088341e-06
1.0993799e-08
-0.0066487656
-6.6826235e-06
1.2635144e-05
-4.7766005e-07
-0.006655583
-8.5141031e-06
1.6359237e-05
-1.0278095e-06
-0.0066641717
-1.0699864e-05
2.0904138e-05
-1.6155397e-06
-0.0066749458
-1.3190883e-05
2.6178051e-05
-2.213067e-06
-0.0066882153
-1.587245e-05
3.1931021e-05
-2.7890713e-06
-0.0067040867
-1.8538999e-05
3.7707789e-05
-3.2973812e-06
-0.0067223786
-2.0955981e-05
4.2950814e-05
-3.7029613e-06
-0.0067426374
-2.2886089e-05
4.7110339e-05
-3.9654563e-06
-0.0067642244
-2.4143068e-05
4.9772404e-05
-4.042341e-06
-0.0067863791
-2.464799e-05
5.075928e-05
-3.956567e-06
-0.0068083858
-2.4406082e-05
5.0116069e-05
-3.703238e-06
-0.006829648
-2.3478789e-05
4.8041053e-05
-3.3001529e-06
-0.0068496802
-2.194501e-05
4.4748457e-05
-2.7712326e-06
-1.9869334e-05
4.040669e-05
-2.1325235e-06
0.0067976561
3.1200498e-05
-4.7580193e-06
0.0067711553
3.109076e-05
-4.590039e-06
0.0067451685
3.0405476e-05
-4.4186039e-06
0.0067202194
2.9195922e-05
-4.2468356e-06
0.0066967546
2.7543e-05
-4.0782485e-06
0.0066751257
2.5543981e-05
-3.9150112e-06
0.0066555745
2.3308317e-05
-3.7571673e-06
0.0066382266
2.0952005e-05
-3.6040926e-06
0.0066230964
1.8585458e-05
-3.4553118e-06
0.0066101096
1.6297403e-05
-3.3105513e-06
0.0065991264
1.4152646e-05
-3.1694194e-06
0.0065899653
1.2195729e-05
-3.0346731e-06
0.0065824234
1.0444334e-05
-2.9024043e-06
0.0065762931
8.9032538e-06
-2.772987e-06
7.5703965e-06
-2.6497074e-06
-0.0068208659
1.522896e-05
-2.7048977e-06
-0.0068270716
1.7919886e-05
-2.810913e-06
-0.0068347414
2.1035637e-05
-2.9215483e-06
-0.0068441001
2.4586418e-05
-3.0319681e-06
-0.0068553721
2.8566189e-05
-3.1415195e-06
-0.0068687571
3.2936453e-05
-3.2540779e-06
-0.006884413
3.7610911e-05
-3.36957e-06
-0.0069024292
4.2456827e-05
-3.4885463e-06
-0.0069228005
4.729241e-05
-3.6128647e-06
-0.0069454034
5.1891518e-05
-3.7445835e-06
-0.0069699813
5.6008757e-05
-3.8879002e-06
-0.0069961566
5.9414879e-05
-4.0436071e-06
-0.0070234518
6.1909801e-05
-4.209148e-06
-0.0070513153
6.3337304e-05
-4.3830807e-06
6.3593967e-05
-4.5636762e-06
0.0075897218
9.9995521e-05
-5.6720826e-06
0.0075590054
9.9509149e-05
-5.4554598e-06
0.0075289733
9.7178757e-05
-5.2368545e-06
0.007500246
9.3164412e-05
-5.0222369e-06
0.0074733606
8.770613e-05
-4.8119845e-06
0.0074487434
8.1119666e-05
-4.6109352e-06
0.0074266795
7.3776418e-05
-4.4201058e-06
0.0074072927
6.6080392e-05
-4.2367495e-06
0.0073905643
5.8398834e-05
-4.0595772e-06
0.0073763671
5.1021774e-05
-3.8880928e-06
0.0073645003
4.4156483e-05
-3.7235188e-06
0.0073547212
3.7931333e-05
-3.565798e-06
0.0073467681
3.2402175e-05
-3.4134888e-06
0.0073403805
2.7572235e-05
-3.2646882e-06
2.341068e-05
-3.126565e-06
-0.0079305186
3.1945917e-05
-3.5630288e-06
-0.007936882
3.7669292e-05
-3.7337188e-06
-0.0079449019
4.4341223e-05
-3.9191304e-06
-0.007954884
5.2027371e-05
-4.1138714e-06
-0.00796715
6.0743371e-05
-4.3209793e-06
-0.0079820159
7.0429533e-05
-4.5417657e-06
-0.0079997623
8.0919857e-05
-4.7746747e-06
-0.0080205917
9.1925778e-05
-5.0159872e-06
-0.008044577
0.00010302628
-5.264518e-06
-0.0080716052
0.00011366988
-5.522021e-06
-0.0081013524
0.00012323936
-5.786034e-06
-0.008133322
0.00013119376
-6.0597776e-06
-0.0081668859
0.00013708361
-6.3409749e-06
-0.0082013279
0.00014057417
-6.6230184e-06
0.00014144542
-6.8965192e-06
0.0086813592
0.00018763877
-7.5338778e-06
0.0086429856
0.00018612665
-7.1789134e-06
0.0086057696
0.00018112289
-6.8232677e-06
0.0085705442
0.0001729028
-6.4836463e-06
0.0085380594
0.00016189299
-6.1688129e-06
0.0085089093
0.00014869761
-5.8776197e-06
0.0084834745
0.00013406256
-5.6014768e-06
0.0084618272
0.00011890719
-5.3340961e-06
0.0084437817
0.00010403516
-5.0698027e-06
0.0084289997
9.0024195e-05
-4.8126915e-06
0.0084170654
7.7249992e-05
-4.5723516e-06
0.0084075488
6.5897336e-05
-4.3533151e-06
0.0084000484
5.5994666e-05
-4.1530742e-06
0.0083942136
4.7471327e-05
-3.9671788e-06
4.0207616e-05
-3.7935305e-06
-0.0086620725
4.7564484e-05
-3.9186117e-06
-0.0086667282
5.6205753e-05
-4.0787079e-06
-0.0086729049
6.6420774e-05
-4.2494185e-06
-0.0086809887
7.8422223e-05
-4.4410887e-06
-0.0086914765
9.2404156e-05
-4.6663488e-06
-0.008704966
0.00010844583
-4.9321011e-06
-0.0087220936
0.00012638749
-5.224789e-06
-0.0087434372
0.00014576547
-5.5146589e-06
-0.0087693924
0.0001658043
-5.7864986e-06
-0.0087999809
0.00018534351
-6.0574341e-06
-0.008834731
0.00020299265
-6.3495565e-06
-0.0088729021
0.0002177662
-6.6923047e-06
-0.0089135719
0.00022889327
-7.1005354e-06
-0.0089557577
0.00023587671
-7.5642664e-06
0.0002384062
-8.0439514e-06
0.0090680457
0.00029401645
-8.9822224e-06
0.0090221974
0.00028998886
-8.2638287e-06
0.0089782306
0.00028045269
-7.5926385e-06
0.008937368
0.00026570294
-7.0741466e-06
0.0089008096
0.00024626418
-6.7131497e-06
0.0088695269
0.0002230847
-6.4584492e-06
0.0088441748
0.0001973808
-6.2244198e-06
0.0088245446
0.00017134011
-5.9444218e-06
0.0088099244
0.00014657988
-5.5722207e-06
0.0087992969
0.0001242371
-5.1637113e-06
0.0087916571
0.00010485306
-4.8090954e-06
0.0087861631
8.8461072e-05
-4.5448978e-06
0.0087822152
7.4719841e-05
-4.3511477e-06
0.0087794248
6.3188912e-05
-4.1928063e-06
5.3500581e-05
-4.0470077e-06
-0.0088173181
5.7540134e-05
-4.1717573e-06
-0.0088175729
6.7739025e-05
-4.2952694e-06
-0.0088183724
7.9954623e-05
-4.4352968e-06
-0.0088199857
9.471501e-05
-4.6406661e-06
-0.0088231279
0.00011299081
-4.9954952e-06
-0.0088290012
0.00013567469
-5.5642749e-06
-0.0088392446
0.0001630842
-6.2609093e-06
-0.0088555429
0.00019445803
-6.8196264e-06
-0.0088792638
0.00022815219
-7.0505019e-06
-0.0089107591
0.00026167027
-7.0902829e-06
-0.0089489519
0.00029161839
-7.1613868e-06
-0.0089924895
0.00031673969
-7.4991468e-06
-0.0090397001
0.00033590227
-8.2389842e-06
-0.0090889766
0.00034865892
-9.3935535e-06
0.00035474332
-1.063503e-05
0.0090618482
0.00041987279
-1.4423439e-05
0.0090105631
0.00041173902
-1.1794972e-05
0.0089603081
0.00039543587
-9.2786304e-06
0.0089138437
0.00037114914
-7.94501e-06
0.008873613
0.0003395285
-7.6794618e-06
0.0088414534
0.00030205453
-8.2246531e-06
0.0088194612
0.00025908989
-8.9454316e-06
0.008807365
0.00021557262
-9.0184122e-06
0.0088032421
0.000175208
-8.0009048e-06
0.0088040733
0.00014138268
-6.5392146e-06
0.0088070539
0.00011542783
-5.4176499e-06
0.0088105107
9.608086e-05
-4.8226318e-06
0.0088137679
8.1256407e-05
-4.5589915e-06
0.0088166193
6.9312525e-05
-4.4248875e-06
5.9317041e-05
-4.3189341e-06
-0.0087773823
5.8645377e-05
-4.4186657e-06
-0.0087712176
6.7653394e-05
-4.5056087e-06
-0.0087636908
7.838473e-05
-4.6551084e-06
-0.0087547512
9.223194e-05
-5.0907018e-06
-0.008744888
0.00011187726
-6.3126564e-06
-0.0087360029
0.00014140695
-8.9093762e-06
-0.0087325978
0.00018446864
-1.2665684e-05
-0.0087405423
0.00023883653
-1.5319418e-05
-0.008762515
0.00029534286
-1.4280324e-05
-0.0087975168
0.0003479167
-1.086032e-05
-0.0088407796
0.00039104412
-8.2528272e-06
-0.0088903397
0.00042891454
-8.205273e-06
-0.0089421601
0.00045824804
-1.0991784e-05
-0.0089901483
0.0004773184
-1.7591197e-05
0.00049403341
-2.5446874e-05
0.0088402236
0.00054823556
-7.7659781e-05
0.0088102559
0.00053984037
-3.2554273e-05
0.0087548115
0.00052721789
-1.3525479e-05
0.0087073227
0.00048478316
-8.3797519e-06
0.0086623463
0.00044575584
-9.73539e-06
0.0086200813
0.00040861858
-1.8436802e-05
0.0085879166
0.00035898046
-3.1472952e-05
0.008578372
0.00028363713
-3.5255977e-05
0.0085921868
0.00019664163
-2.5987833e-05
0.0086094425
0.00013940004
-1.5248772e-05
0.0086245727
0.00010547559
-8.7285497e-06
0.0086379225
8.4792649e-05
-5.9104503e-06
0.0086491609
7.2125989e-05
-4.9797198e-06
0.00865832
6.3187449e-05
-4.6931071e-06
5.5743941e-05
-4.5591305e-06
-0.0083873372
5.0612468e-05
-3.9936595e-06
-0.0083762958
5.6129488e-05
-3.9834774e-06
-0.0083630285
6.3060999e-05
-4.2023567e-06
-0.0083478771
7.5263579e-05
-5.6222844e-06
-0.0083317592
0.00010052055
-1.1162919e-05
-0.0083112796
0.00014576598
-2.6845479e-05
-0.0082657629
0.00021102222
-5.9897328e-05
-0.0082261088
0.00035533344
-0.00011135044
-0.0082361046
0.00046602087
-9.7044593e-05
-0.0082863498
0.00049198155
-3.3117726e-05
-0.0083259771
0.00049309265
-7.7095622e-06
-0.0083331517
0.00049377043
-1.8126677e-06
-0.0083861843
0.00058302146
-2.7709368e-06
-0.0084493567
0.00065106275
-4.804995e-05
0.00022352539
-0.00033093288
0.0069948019
0.0013981314
-0.00023276946
-0.00067012565
0.00667573
8.6256647e-06
2.4964747e-06
0.0066635563
9.1653946e-06
3.0082318e-06
0.0066506403
9.5377705e-06
3.3782427e-06
0.0066372794
9.7489439e-06
3.6120154e-06
0.0066237466
9.8129834e-06
3.7198043e-06
0.00661029
9.7478878e-06
3.7086786e-06
0.0065971318
9.5679083e-06
3.5902801e-06
0.0065844615
9.2880009e-06
3.3822915e-06
0.0065724274
8.9353073e-06
3.098766e-06
0.0065611336
8.5297482e-06
2.7640511e-06
0.0065506468
8.0887612e-06
2.3980462e-06
0.0065410046
7.6300647e-06
2.0121731e-06
0.0065322173
7.1625565e-06
1.6247942e-06
0.006524263
6.7018884e-06
1.252369e-06
0.0065171031
6.2612473e-06
8.9866391e-07
0.0065106966
5.8359884e-06
5.7047904e-07
5.4252135e-06
2.7739245e-07
1.0793576e-05
-0.0066393016
4.2100353e-07
1.6490534e-05
-0.0069928067
3.5637236e-07
2.2589183e-05
-0.0074084016
2.3942833e-07
2.8875056e-05
-0.0077300628
2.182669e-07
3.5090834e-05
-0.0079020477
2.9548535e-07
4.102245e-05
-0.007959086
4.6270381e-07
4.6474554e-05
-0.007959787
7.6145059e-07
5.1254701e-05
-0.0079445462
1.2305387e-06
5.5163922e-05
-0.007930969
1.8967484e-06
5.8033163e-05
-0.0079231894
2.7389814e-06
5.9724657e-05
-0.0079201263
3.73086e-06
-0.0079198751
4.7652695e-06
-5.5508789e-05
-0.0079370915
8.7461771e-06
-5.8377472e-05
-0.0079341459
8.5980211e-06
-6.0791302e-05
-0.0079314525
8.2440926e-06
-6.2495755e-05
-0.0079290877
7.6475098e-06
-6.3241338e-05
-0.0079271885
6.815225e-06
-6.2825955e-05
-0.0079260871
5.7966559e-06
-6.115895e-05
-0.0079264965
4.7031675e-06
-5.825613e-05
-0.0079297335
3.6412898e-06
-5.4247673e-05
-0.0079377009
2.723448e-06
-4.9299231e-05
-0.0079514738
1.979163e-06
-4.3610136e-05
-0.0079669075
1.4314493e-06
-3.737968e-05
-0.0079663742
1.0577281e-06
-3.0814398e-05
-0.0079094341
8.211287e-07
-2.4145075e-05
-0.0077374134
6.8134525e-07
-1.7659683e-05
-0.0074155363
6.4928966e-07
-1.1586117e-05
-0.0069996041
7.2386079e-07
-0.0066458014
7.4960876e-07
1.2413677e-05
-0.0066530736
1.1198517e-06
1.8896775e-05
-0.0070072258
1.1386094e-06
2.5805353e-05
-0.0074235556
1.1107064e-06
3.2884206e-05
-0.0077456967
1.2043964e-06
3.9820719e-05
-0.0079177895
1.4188129e-06
4.6367036e-05
-0.0079746602
1.7396241e-06
5.2304377e-05
-0.0079750482
2.203358e-06
5.7425237e-05
-0.0079594416
2.8469033e-06
6.1529869e-05
-0.0079454934
3.6878384e-06
6.4457242e-05
-0.0079373598
4.6989172e-06
6.6086832e-05
-0.0079339701
5.8440569e-06
6.6414875e-05
-0.0079334232
7.0080375e-06
6.5546316e-05
-0.0079344018
8.0819169e-06
6.369747e-05
-0.0079361929
8.954054e-06
6.1130918e-05
-0.0079384628
9.5768582e-06
5.8108089e-05
-0.0079410703
9.9471814e-06
5.4848737e-05
-0.0079439375
1.010536e-05
5.1510711e-05
-0.0079471032
1.0110938e-05
4.8195459e-05
-0.0079504435
1.0018291e-05
4.4958037e-05
-0.0079539256
9.8704526e-06
4.1814875e-05
-0.0079575447
9.705257e-06
3.875927e-05
-0.0079613926
9.5476032e-06
3.5772808e-05
-0.007965743
9.4065254e-06
3.2828075e-05
-0.0079712559
9.2933444e-06
2.9893306e-05
-0.0079792421
9.2148638e-06
2.6940203e-05
-0.0079916101
9.1698855e-06
2.3945478e-05
-0.0080094347
9.154128e-06
2.0896074e-05
-0.0080285286
9.1578109e-06
1.7789265e-05
-0.0080311014
9.1598203e-06
1.4629196e-05
-0.007976316
9.1264375e-06
1.1442227e-05
-0.0078048914
8.995464e-06
8.3159648e-06
-0.0074816381
8.681945e-06
5.3737053e-06
-0.0070628404
8.1868815e-06
-0.006706195
7.7169318e-06
-5.6355031e-06
-0.0067124223
9.0898103e-06
-8.7339028e-06
-0.0070693879
9.6459375e-06
-1.2023478e-05
-0.0074885763
1.0227819e-05
-1.5370613e-05
-0.0078121435
1.0599193e-05
-1.8683034e-05
-0.0079837597
1.0756055e-05
-2.1936215e-05
-0.0080386426
1.0794373e-05
-2.5127645e-05
-0.0080361255
1.0788353e-05
-2.8260058e-05
-0.0080170811
1.0778797e-05
-3.1346428e-05
-0.0079993119
1.0788149e-05
-3.441011e-05
-0.0079870064
1.082797e-05
-3.7480867e-05
-0.0079790872
1.0902093e-05
-4.0592353e-05
-0.0079736425
1.1010971e-05
-4.3774477e-05
-0.0079693589
1.1148421e-05
-4.7070023e-05
-0.0079655537
1.1304537e-05
-5.0418247e-05
-0.0079620451
1.1467703e-05
-5.3872826e-05
-0.0079586015
1.1612559e-05
-5.7357624e-05
-0.0079553195
1.170114e-05
-6.0772809e-05
-0.0079522101
1.1687729e-05
-6.3957387e-05
-0.0079494007
1.1514937e-05
-6.6689078e-05
-0.0079468543
1.1123156e-05
-6.8697176e-05
-0.0079446526
1.046773e-05
-6.9705697e-05
-0.0079429415
9.5482417e-06
-6.9482649e-05
-0.0079420549
8.4086722e-06
-6.7905556e-05
-0.007942708
7.1608265e-06
-6.4962634e-05
-0.0079462184
5.9156525e-06
-6.0764804e-05
-0.0079544842
4.7930151e-06
-5.5468235e-05
-0.0079685732
3.8350601e-06
-4.9272694e-05
-0.0079843192
3.0754084e-06
-4.2393559e-05
-0.0079840425
2.5031732e-06
-3.5063581e-05
-0.0079272021
2.0826027e-06
-2.7552818e-05
-0.0077549864
1.7789708e-06
-2.0198884e-05
-0.0074325201
1.6105788e-06
-1.3279997e-05
-0.0070157276
1.582874e-06
-0.0066611691
1.5173744e-06
1.4181311e-05
-0.0066701206
1.9327224e-06
2.1549224e-05
-0.0070251438
2.0483384e-06
2.9363212e-05
-0.0074424761
2.1419749e-06
3.7324753e-05
-0.0077653451
2.3971323e-06
4.5065963e-05
-0.0079377491
2.8058398e-06
5.2292155e-05
-0.007994613
3.3443065e-06
5.8755908e-05
-0.0079948291
4.0461218e-06
6.4233189e-05
-0.0079789934
4.9429617e-06
6.8521716e-05
-0.0079648121
6.0393662e-06
7.1470473e-05
-0.007956462
7.2948818e-06
7.2982106e-05
-0.0079528792
8.6595042e-06
7.3085979e-05
-0.0079521661
1.000727e-05
7.1922851e-05
-0.0079530026
1.1224237e-05
6.9744023e-05
-0.0079546724
1.2198632e-05
6.6837854e-05
-0.0079568395
1.2891326e-05
6.3483773e-05
-0.0079593546
1.3308067e-05
5.9909609e-05
-0.0079621329
1.3497028e-05
5.627665e-05
-0.0079652076
1.352106e-05
5.2683508e-05
-0.0079684484
1.3440103e-05
4.9158121e-05
-0.007971821
1.3301237e-05
4.5783208e-05
-0.0079753206
1.3141836e-05
4.2478878e-05
-0.0079790442
1.2989622e-05
3.9244433e-05
-0.0079832656
1.28575e-05
3.6047907e-05
-0.0079886459
1.2755256e-05
3.2855366e-05
-0.0079965025
1.268859e-05
2.9635169e-05
-0.0080087491
1.2657462e-05
2.6363075e-05
-0.0080264658
1.2656843e-05
2.3026735e-05
-0.0080454635
1.2674321e-05
1.9622585e-05
-0.008047922
1.2683597e-05
1.6150688e-05
-0.0079929259
1.2638167e-05
1.2635666e-05
-0.0078210802
1.2451727e-05
9.1723738e-06
-0.0074971277
1.2014727e-05
5.9093849e-06
-0.0070774589
1.1334006e-05
-0.0067200937
1.0678354e-05
-6.1932341e-06
-0.0067294206
1.2485413e-05
-9.6313643e-06
-0.0070872745
1.3253643e-05
-1.3279117e-05
-0.0075075263
1.4046334e-05
-1.6970223e-05
-0.0078319469
1.4557838e-05
-2.0606094e-05
-0.0080040681
1.4778063e-05
-2.4165432e-05
-0.0080591935
1.4830813e-05
-2.7649528e-05
-0.0080567949
1.4815505e-05
-3.1062869e-05
-0.0080378398
1.4787295e-05
-3.4417676e-05
-0.0080201708
1.4776456e-05
-3.7738512e-05
-0.0080079788
1.4797154e-05
-4.1057228e-05
-0.008000181
1.4853803e-05
-4.4409837e-05
-0.0079948587
1.494573e-05
-4.7830929e-05
-0.0079906919
1.5068796e-05
-5.1347904e-05
-0.0079870171
1.5213507e-05
-5.4975982e-05
-0.0079835567
1.5363836e-05
-5.8703335e-05
-0.0079802137
1.5492643e-05
-6.2481978e-05
-0.0079769921
1.556306e-05
-6.6214074e-05
-0.0079739267
1.5525808e-05
-6.9737997e-05
-0.0079711486
1.5317872e-05
-7.2822674e-05
-0.0079686284
1.4873608e-05
-7.5180994e-05
-0.0079664522
1.4138144e-05
-7.6509456e-05
-0.0079647741
1.3099965e-05
-7.6537235e-05
-0.007963932
1.1793699e-05
-7.5102743e-05
-0.0079646447
1.0331021e-05
-7.2154767e-05
-0.0079682365
8.8264899e-06
-6.7777067e-05
-0.0079766048
7.4150309e-06
-6.2115679e-05
-0.0079908107
6.1558647e-06
-5.5375973e-05
-0.0080066678
5.0990097e-06
-4.7792445e-05
-0.0080064456
4.2490882e-06
-3.9628374e-05
-0.0079494896
3.5764033e-06
-3.1206305e-05
-0.0077768168
3.049661e-06
-2.2922112e-05
-0.0074534579
2.697595e-06
-1.5096954e-05
-0.0070355021
2.5330694e-06
-0.0066799512
2.3636886e-06
1.6000099e-05
-0.0066906598
2.7972763e-06
2.4283147e-05
-0.0070468081
3.0229992e-06
3.3039376e-05
-0.0074654771
3.2630256e-06
4.1924192e-05
-0.0077894206
3.7189641e-06
5.0510981e-05
-0.0079624519
4.3755516e-06
5.8456964e-05
-0.0080195887
5.1970966e-06
6.5477223e-05
-0.0080199019
6.2138465e-06
7.1324892e-05
-0.0080041099
7.4515515e-06
7.5791133e-05
-0.0079899687
8.8976063e-06
7.8735812e-05
-0.0079816703
1.0489156e-05
8.0088608e-05
-0.0079781514
1.2153944e-05
7.9922743e-05
-0.0079775148
1.3748662e-05
7.842342e-05
-0.0079784319
1.5157082e-05
7.5883398e-05
-0.0079801799
1.6267739e-05
7.2620237e-05
-0.0079824177
1.7052521e-05
6.8930301e-05
-0.0079849898
1.7531119e-05
6.5047609e-05
-0.0079878062
1.7762247e-05
6.1132289e-05
-0.0079908927
1.7815997e-05
5.7280022e-05
-0.0079941198
1.775837e-05
5.3535271e-05
-0.0079974539
1.7641935e-05
4.9906719e-05
-0.0080008932
1.7504638e-05
4.637676e-05
-0.0080045352
1.7373184e-05
4.2912459e-05
-0.008008658
1.726358e-05
3.9475999e-05
-0.0080139293
1.7184777e-05
3.6029367e-05
-0.008021673
1.7140813e-05
3.2540005e-05
-0.0080338148
1.7133375e-05
2.8984403e-05
-0.008051443
1.7158791e-05
2.5349773e-05
-0.0080703616
1.7201293e-05
2.1631249e-05
-0.0080727011
1.7226094e-05
1.7826186e-05
-0.0080174314
1.7168314e-05
1.3951495e-05
-0.0078449841
1.691184e-05
1.0111281e-05
-0.0075200021
1.6315956e-05
6.4882388e-06
-0.007099047
1.5395587e-05
-0.0067406038
1.4502097e-05
-6.7948797e-06
-0.0067538322
1.6712716e-05
-1.0610007e-05
-0.0071129751
1.7743186e-05
-1.4650468e-05
-0.0075347634
1.8801777e-05
-1.8715491e-05
-0.0078604066
1.9487572e-05
-2.269633e-05
-0.0080332317
1.9781126e-05
-2.6577216e-05
-0.0080886629
1.9842714e-05
-3.0363871e-05
-0.0080863807
1.9805789e-05
-3.406174e-05
-0.0080674901
1.9744951e-05
-3.7683015e-05
-0.0080498935
1.9700002e-05
-4.1251417e-05
-0.0080377936
1.9689006e-05
-4.4800216e-05
-0.0080300952
1.9714679e-05
-4.8367927e-05
-0.0080248667
1.9776448e-05
-5.1996968e-05
-0.0080207758
1.9869659e-05
-5.5724338e-05
-0.0080171512
1.9985319e-05
-5.9571129e-05
-0.0080137138
2.0106726e-05
-6.3533687e-05
-0.0080103643
2.0207003e-05
-6.7570614e-05
-0.0080071025
2.0246675e-05
-7.159032e-05
-0.0080039576
2.0171053e-05
-7.543473e-05
-0.0080010562
1.9910857e-05
-7.8868176e-05
-0.0079983767
1.9392391e-05
-8.1585002e-05
-0.0079960121
1.8549027e-05
-8.3251858e-05
-0.00799412
1.7354963e-05
-8.3554587e-05
-0.0079930438
1.5831673e-05
-8.2284123e-05
-0.0079935095
1.4087613e-05
-7.934279e-05
-0.0079968526
1.2240899e-05
-7.4785635e-05
-0.0080049739
1.0448072e-05
-6.874892e-05
-0.0080189418
8.7952228e-06
-6.1447597e-05
-0.0080345606
7.3574241e-06
-5.3143839e-05
-0.0080340491
6.1567042e-06
-4.4141981e-05
-0.0079766269
5.1730751e-06
-3.480644e-05
-0.0078031353
4.3791718e-06
-2.5589491e-05
-0.0074785064
3.812376e-06
-1.6865284e-05
-0.0070590232
3.4908553e-06
-0.0067022031
3.2077967e-06
1.7664696e-05
-0.0067145174
3.5848557e-06
2.6796568e-05
-0.007072077
3.9219545e-06
3.6439221e-05
-0.0074924705
4.3214402e-06
4.6198662e-05
-0.007817893
4.998232e-06
5.5596418e-05
-0.0079919579
5.9332982e-06
6.4245229e-05
-0.0080497822
7.0843039e-06
7.1820891e-05
-0.0080506143
8.4779636e-06
7.8046298e-05
-0.0080352957
1.0128432e-05
8.2698249e-05
-0.0080216299
1.2004021e-05
8.5642646e-05
-0.0080138123
1.4015358e-05
8.6838809e-05
-0.0080107665
1.6060827e-05
8.6409266e-05
-0.0080105841
1.7969863e-05
8.458793e-05
-0.0080119199
1.9621231e-05
8.1710561e-05
-0.0080140437
2.0908918e-05
7.8125217e-05
-0.0080166103
2.1818953e-05
7.4145988e-05
-0.0080194622
2.2385257e-05
7.0010593e-05
-0.0080225025
2.2680342e-05
6.5873093e-05
-0.0080257498
2.2784762e-05
6.1820582e-05
-0.0080290811
2.276937e-05
5.7890551e-05
-0.0080324751
2.26913e-05
5.4081702e-05
-0.008035934
2.2591629e-05
5.0367154e-05
-0.0080395591
2.2497906e-05
4.670642e-05
-0.0080436335
2.2427496e-05
4.3054748e-05
-0.0080488327
2.2389129e-05
3.93712e-05
-0.008056497
2.238695e-05
3.5622093e-05
-0.0080685661
2.2421701e-05
3.1783272e-05
-0.0080861411
2.2489832e-05
2.7843226e-05
-0.0081050134
2.2572764e-05
2.3797554e-05
-0.0081072433
2.2626028e-05
1.9636998e-05
-0.008051635
2.2563836e-05
1.537434e-05
-0.0078783772
2.2233254e-05
1.1126017e-05
-0.0075519683
2.1453232e-05
7.1116667e-06
-0.0071292089
2.0248169e-05
-0.0067692477
1.9071863e-05
-7.4375295e-06
-0.006786926
2.1511695e-05
-1.165795e-05
-0.0071478267
2.2838237e-05
-1.6121966e-05
-0.0075716992
2.4194944e-05
-2.0587397e-05
-0.0078989825
2.5070724e-05
-2.4930809e-05
-0.0080727283
2.5436718e-05
-2.9142915e-05
-0.008128527
2.5495787e-05
-3.323498e-05
-0.0081263422
2.5420821e-05
-3.7211224e-05
-0.0081074742
2.530939e-05
-4.1082627e-05
-0.0080899059
2.5211134e-05
-4.4872395e-05
-0.0080778536
2.5146451e-05
-4.8615107e-05
-0.0080702086
2.5118622e-05
-5.2353936e-05
-0.0080650212
2.5126563e-05
-5.6135417e-05
-0.0080609442
2.516655e-05
-6.000505e-05
-0.0080572943
2.522998e-05
-6.3995237e-05
-0.0080537842
2.5299236e-05
-6.8111603e-05
-0.0080503118
2.5347042e-05
-7.2320176e-05
-0.0080468711
2.5329953e-05
-7.6516925e-05
-0.0080434954
2.5189617e-05
-8.0622433e-05
-0.0080402082
2.4851445e-05
-8.4329183e-05
-0.0080371331
2.4229546e-05
-8.7338938e-05
-0.0080342786
2.324466e-05
-8.9289883e-05
-0.0080318236
2.1854599e-05
-8.9825658e-05
-0.0080301138
2.0065553e-05
-8.868792e-05
-0.0080298857
1.7981443e-05
-8.5729148e-05
-0.0080324964
1.5725302e-05
-8.0977382e-05
-0.0080398673
1.3485679e-05
-7.4567186e-05
-0.0080530875
1.1381638e-05
-6.6731023e-05
-0.0080679672
9.5167342e-06
-5.7761548e-05
-0.0080666829
7.9311995e-06
-4.8002206e-05
-0.008008332
6.6147442e-06
-3.7863849e-05
-0.0078335739
5.5425772e-06
-2.7849487e-05
-0.0075072467
4.7618122e-06
-1.8361121e-05
-0.0070858582
4.2928242e-06
-0.0067274976
3.9071364e-06
1.8911717e-05
-0.0067409859
4.1444209e-06
2.8683123e-05
-0.0071001993
4.5697098e-06
3.9000856e-05
-0.0075226672
5.1027167e-06
4.9453513e-05
-0.0078500051
5.9785015e-06
5.9520812e-05
-0.0080255761
7.1768366e-06
6.8771869e-05
-0.0080845812
8.6471823e-06
7.684462e-05
-0.008086455
1.0415078e-05
8.3431786e-05
-0.0080721621
1.2487423e-05
8.8289283e-05
-0.0080595412
1.4816349e-05
9.1279799e-05
-0.0080527706
1.7283692e-05
9.2385144e-05
-0.0080507437
1.9752676e-05
9.1775965e-05
-0.0080515205
2.2015832e-05
8.9733711e-05
-0.0080537284
2.3947122e-05
8.6633073e-05
-0.0080566231
2.5445182e-05
8.2849765e-05
-0.0080598602
2.6510404e-05
7.8710387e-05
-0.0080632632
2.7194376e-05
7.4449579e-05
-0.0080668182
2.758364e-05
7.0207359e-05
-0.0080703977
2.7768785e-05
6.605971e-05
-0.0080739906
2.7826405e-05
6.2037973e-05
-0.0080775801
2.7817675e-05
5.8133049e-05
-0.0080811763
2.7786878e-05
5.4306462e-05
-0.0080848798
2.7762179e-05
5.0508148e-05
-0.0080889836
2.7760742e-05
4.6688452e-05
-0.0080941803
2.779142e-05
4.2803773e-05
-0.0081018269
2.7857941e-05
3.881885e-05
-0.0081138817
2.796076e-05
3.4710172e-05
-0.0081314612
2.8095632e-05
3.0468761e-05
-0.0081503415
2.8240764e-05
2.609034e-05
-0.0081524903
2.8341817e-05
2.1561133e-05
-0.0080964886
2.8289561e-05
1.688835e-05
-0.0079222014
2.7891661e-05
1.2203669e-05
-0.0075939376
2.6923038e-05
7.7724728e-06
-0.0071688115
2.5416011e-05
-0.0068068511
2.3940401e-05
-8.1158897e-06
-0.0068288957
2.6245462e-05
-1.2760445e-05
-0.0071920286
2.7861696e-05
-1.7668151e-05
-0.0076185399
2.951008e-05
-2.2550138e-05
-0.0079478833
3.0563864e-05
-2.7265931e-05
-0.0081227601
3.0987303e-05
-3.1809277e-05
-0.0081789738
3.1026757e-05
-3.6195683e-05
-0.0081768496
3.0894497e-05
-4.0429202e-05
-0.0081579377
3.0710028e-05
-4.4518001e-05
-0.0081403251
3.0532199e-05
-4.8484823e-05
-0.0081282445
3.0384441e-05
-5.2364351e-05
-0.0081205725
3.0271775e-05
-5.620123e-05
-0.0081153409
3.0194149e-05
-6.00471e-05
-0.0081111818
3.0147853e-05
-6.3956231e-05
-0.0081073917
3.0124613e-05
-6.7972562e-05
-0.008103671
3.0107179e-05
-7.213213e-05
-0.0080998982
3.0067187e-05
-7.6360706e-05
-0.0080961286
2.9959516e-05
-8.0588024e-05
-0.008092313
2.9722103e-05
-8.4704192e-05
-0.0080884216
2.9274597e-05
-8.8526952e-05
-0.0080845605
2.8523075e-05
-9.16592e-05
-0.0080808645
2.7373684e-05
-9.3739046e-05
-0.0080774158
2.5767186e-05
-9.4375638e-05
-0.008074581
2.3697088e-05
-9.3267097e-05
-0.0080731145
2.1262307e-05
-9.022234e-05
-0.0080744057
1.8590352e-05
-8.5253099e-05
-0.0080804203
1.5909898e-05
-7.850231e-05
-0.008092288
1.3375128e-05
-7.0227116e-05
-0.0081058455
1.1115271e-05
-6.0750092e-05
-0.0081032424
9.1841805e-06
-5.0449752e-05
-0.0080434562
7.5797439e-06
-3.9767676e-05
-0.0078669623
6.2751957e-06
-2.9235588e-05
-0.0075385201
5.3209054e-06
-1.9271546e-05
-0.0071149009
4.7375419e-06
-0.0067547931
4.2836112e-06
1.9404533e-05
-0.0067686907
4.3060068e-06
2.9454047e-05
-0.0071297309
4.7805281e-06
4.0088133e-05
-0.0075545505
5.3962827e-06
5.0888801e-05
-0.0078841642
6.4012268e-06
6.1326961e-05
-0.0080616763
7.7819683e-06
7.0956726e-05
-0.0081223611
9.4889807e-06
7.9388151e-05
-0.0081258274
1.155053e-05
8.6281523e-05
-0.0081131459
1.3964516e-05
9.1367251e-05
-0.0081021794
1.6673318e-05
9.4493833e-05
-0.0080970705
1.9538246e-05
9.5652615e-05
-0.008096662
2.2388707e-05
9.5049914e-05
-0.0080989549
2.4976559e-05
9.3003649e-05
-0.0081025405
2.7171009e-05
8.9914718e-05
-0.0081066532
2.8877565e-05
8.617187e-05
-0.0081109256
3.0107965e-05
8.2097673e-05
-0.008115277
3.0929545e-05
7.7915998e-05
-0.0081195715
3.1440182e-05
7.3757046e-05
-0.0081237073
3.1737651e-05
6.9686175e-05
-0.0081277318
3.1904463e-05
6.5722466e-05
-0.0081317111
3.2003889e-05
6.1845727e-05
-0.0081355955
3.2080477e-05
5.8009274e-05
-0.0081395081
3.2162794e-05
5.4157257e-05
-0.0081437559
3.2267e-05
5.0237268e-05
-0.0081490535
3.2400934e-05
4.6204012e-05
-0.0081567789
3.2567647e-05
4.2022628e-05
-0.0081689122
3.276847e-05
3.7672913e-05
-0.0081865857
3.2997709e-05
3.3147963e-05
-0.0082055542
3.3229542e-05
2.8443199e-05
-0.008207669
3.3400054e-05
2.3542428e-05
-0.0081512403
3.3380947e-05
1.8452635e-05
-0.0079757356
3.2942122e-05
1.3322984e-05
-0.0076452281
3.1817776e-05
8.4663286e-06
-0.0072172174
3.004536e-05
-0.0068528128
2.830516e-05
-8.8201589e-06
-0.0068782426
3.0003154e-05
-1.3884918e-05
-0.007243996
3.1843372e-05
-1.9231462e-05
-0.0076735952
3.3713665e-05
-2.4524604e-05
-0.008005331
3.4888583e-05
-2.9605035e-05
-0.0081814883
3.5328446e-05
-3.4465071e-05
-0.0082381254
3.5316377e-05
-3.9121233e-05
-0.0082359966
3.5098573e-05
-4.3575849e-05
-0.0082169429
3.4811895e-05
-4.7834039e-05
-0.0081991771
3.4523141e-05
-5.191503e-05
-0.0081869575
3.4259574e-05
-5.5852927e-05
-0.0081791431
3.4027546e-05
-5.9692828e-05
-0.0081737419
3.3825884e-05
-6.3486933e-05
-0.008169366
3.3651985e-05
-6.72909e-05
-0.0081652908
3.3499313e-05
-7.115261e-05
-0.0081612013
3.3351901e-05
-7.5099527e-05
-0.0081569677
3.3182805e-05
-7.9122925e-05
-0.0081526318
3.294791e-05
-8.3164176e-05
-0.0081481136
3.2583342e-05
-8.709465e-05
-0.0081433515
3.2005066e-05
-9.0695843e-05
-0.0081384386
3.1114138e-05
-9.3652574e-05
-0.0081335062
2.9809799e-05
-9.5579693e-05
-0.0081286327
2.8019265e-05
-9.6074659e-05
-0.0081241826
2.5722751e-05
-9.4810517e-05
-0.0081209385
2.301235e-05
-9.1571987e-05
-0.0081203313
2.002227e-05
-8.6370603e-05
-0.0081243974
1.7016685e-05
-7.9368705e-05
-0.0081343294
1.4181551e-05
-7.0848251e-05
-0.0081460103
1.1662391e-05
-6.115629e-05
-0.0081415708
9.5177655e-06
-5.0689125e-05
-0.0080798927
7.7492203e-06
-3.9892816e-05
-0.0079012871
6.3265215e-06
-2.9288314e-05
-0.0075704518
5.2967351e-06
-1.9285042e-05
-0.0071444049
4.6707504e-06
-0.006782422
4.1952179e-06
1.887936e-05
-0.0067957041
3.9405282e-06
2.8691587e-05
-0.0071586113