/*--------------------------------*- C++ -*----------------------------------*\
| =========                 |                                                 |
| \\      /  F ield         | OpenFOAM: The Open Source CFD Toolbox           |
|  \\    /   O peration     | Version:  v2012                                 |
|   \\  /    A nd           | Website:  www.openfoam.com                      |
|    \\/     M anipulation  |                                                 |
\*---------------------------------------------------------------------------*/
FoamFile
{
    version     2.0;
    format      ascii;
    class       volScalarField;
    location    "200";
    object      k;
}
// * * * * * * * * * * * * * * * * * * * * * * * * * * * * * * * * * * * * * //

dimensions      [0 2 -2 0 0 0 0];


internalField   nonuniform List<scalar> 
229912
(
0.37305474
0.37305356
0.37417083
0.37415325
0.37416556
0.37415578
0.3741745
0.37416515
0.37417619
0.37417286
0.37417476
0.37417355
0.37417319
0.37417292
0.3741729
0.37417291
0.37417293
0.37417295
0.37417295
0.37417296
0.37417296
0.37417296
0.37417296
0.37417296
0.37417296
0.37417295
0.37417295
0.37417293
0.37417291
0.3741729
0.37417292
0.37417319
0.37417355
0.37417476
0.37417286
0.37417619
0.37416515
0.3741745
0.37415578
0.37416556
0.37415325
0.37417083
0.37416484
0.37418958
0.37418137
0.37419399
0.37418954
0.37419124
0.37418937
0.37418885
0.37418845
0.37418843
0.37418846
0.3741885
0.37418854
0.37418856
0.37418858
0.37418859
0.3741886
0.37418861
0.37418862
0.37418863
0.37418864
0.37418865
0.37418867
0.37418867
0.37418869
0.3741887
0.37418871
0.37418871
0.37418872
0.37418873
0.37418874
0.37418874
0.37418875
0.37418876
0.37418876
0.37418877
0.37418877
0.37418878
0.37418878
0.37418878
0.37418879
0.37418879
0.37418879
0.37418879
0.37418879
0.37418879
0.3741888
0.3741888
0.3741888
0.37418879
0.37418879
0.37418879
0.37418879
0.37418878
0.37418878
0.37418878
0.37418877
0.37418877
0.37418876
0.37418876
0.37418875
0.37418874
0.37418874
0.37418873
0.37418872
0.37418871
0.3741887
0.37418869
0.37418868
0.37418867
0.37418866
0.37418865
0.37418863
0.37418861
0.37418857
0.37418853
0.3741885
0.37418852
0.37418892
0.37418944
0.37419131
0.37418961
0.37419406
0.37418144
0.37418965
0.37416491
0.3741709
0.37415333
0.37416565
0.37415592
0.37417471
0.37416548
0.37417666
0.37417352
0.37417562
0.37417465
0.37417456
0.37417456
0.37417484
0.37417515
0.37417548
0.3741758
0.37417609
0.37417638
0.37417663
0.37417684
0.37417702
0.37417714
0.37417721
0.37417721
0.37417714
0.374177
0.37417678
0.37417651
0.37417621
0.37417612
0.37417607
0.37417686
0.37417456
0.37417748
0.37416611
0.37417517
0.37415625
0.3741659
0.37415354
0.37417111
0.37416515
0.37418992
0.37418178
0.37419447
0.37419011
0.3741919
0.37419014
0.37418972
0.37418942
0.3741895
0.37418963
0.37418976
0.37418988
0.37418998
0.37419006
0.37419013
0.37419019
0.37419024
0.37419028
0.37419031
0.37419034
0.37419039
0.37419048
0.37419064
0.37419093
0.37419138
0.37419201
0.37419281
0.37419376
0.37419481
0.37419592
0.37419706
0.37419815
0.37419917
0.37420001
0.3742002
0.37420019
0.37420015
0.37420011
0.37420007
0.37420003
0.37419999
0.37419995
0.37419992
0.37419988
0.37419985
0.37419981
0.37419978
0.37419974
0.37419971
0.37419965
0.37419938
0.37419848
0.37419739
0.37419622
0.37419503
0.37419385
0.37419273
0.37419172
0.37419087
0.37419019
0.37418969
0.37418936
0.37418916
0.37418904
0.37418898
0.37418894
0.3741889
0.37418887
0.37418883
0.3741888
0.37418877
0.37418873
0.37418869
0.37418864
0.37418857
0.37418853
0.37418853
0.37418892
0.37418942
0.37419128
0.37418957
0.37419401
0.37418138
0.37418959
0.37416484
0.37305677
0.37307901
0.37307872
0.37309124
0.3730902
0.37309159
0.37308981
0.3730887
0.37308789
0.37308761
0.37308754
0.37308757
0.37308764
0.37308772
0.3730878
0.37308787
0.37308795
0.37308803
0.37308811
0.37308819
0.37308828
0.3730884
0.37308858
0.37308885
0.37308925
0.37308983
0.37309058
0.37309153
0.37309263
0.37309382
0.37309508
0.37309635
0.37309756
0.37309865
0.37309948
0.37309981
0.37309994
0.37310003
0.37310011
0.3731002
0.37310028
0.37310038
0.37310046
0.37310054
0.37310065
0.37310074
0.37310083
0.37310093
0.37310102
0.37310111
0.37310116
0.373101
0.37310034
0.37309943
0.37309839
0.37309729
0.37309618
0.37309515
0.37309421
0.37309341
0.37309278
0.37309232
0.37309203
0.37309186
0.37309176
0.3730917
0.37309166
0.3730916
0.37309153
0.37309142
0.37309132
0.37309119
0.37309102
0.37309084
0.37309065
0.37309047
0.37309038
0.3730905
0.37309112
0.37309205
0.37309365
0.37309208
0.37309296
0.37308031
0.37308049
0.37305819
0.37305494
0.37303645
0.37186169
0.37058914
0.36927279
0.36791824
0.36656596
0.36522622
0.36391035
0.36262313
0.36136941
0.36015582
0.35899233
0.35789344
0.35688023
0.35598358
0.35524864
0.35474164
0.35454394
0.35471109
0.35518591
0.35607517
0.35751653
0.35973234
0.36298653
0.36780916
0.37478214
0.24028526
0.24359803
0.24688878
0.25014656
0.25338667
0.25658924
0.25977255
0.2629392
0.26607583
0.26916251
0.27220275
0.27518899
0.27811157
0.28097896
0.28378053
0.28648857
0.28910771
0.29164367
0.29408931
0.29643386
0.29867677
0.30081361
0.30284726
0.30478458
0.30662241
0.30835901
0.31000645
0.31157011
0.31305495
0.31446932
0.31581894
0.31711529
0.3183648
0.31957181
0.3207455
0.321894
0.32302247
0.3241368
0.32524082
0.32633846
0.32743378
0.32852979
0.32962848
0.33073141
0.33184021
0.33295607
0.3340797
0.33521169
0.33635246
0.33750225
0.33866123
0.33982948
0.34100701
0.34219383
0.34338992
0.34459523
0.34580972
0.34703338
0.34826616
0.34950806
0.35075905
0.35201916
0.35328839
0.35456676
0.3558543
0.35715109
0.35845723
0.35977293
0.36109853
0.36243465
0.36378212
0.3651414
0.36651116
0.36788521
0.36925109
0.37058385
0.37186014
0.37186387
0.37187938
0.37188464
0.37189474
0.37189634
0.37189714
0.37189557
0.37189404
0.3718929
0.37189232
0.3718921
0.37189207
0.37189214
0.37189224
0.37189236
0.37189248
0.3718926
0.37189273
0.37189286
0.371893
0.37189315
0.37189333
0.37189357
0.37189392
0.37189441
0.37189508
0.37189594
0.37189698
0.37189818
0.37189949
0.37190084
0.37190219
0.37190347
0.37190458
0.37190541
0.37190582
0.37190603
0.37190618
0.37190633
0.37190647
0.37190662
0.37190676
0.37190691
0.37190706
0.37190722
0.3719074
0.37190755
0.37190771
0.37190789
0.37190803
0.37190813
0.37190802
0.3719075
0.37190668
0.3719057
0.37190463
0.37190355
0.37190252
0.3719016
0.3719008
0.37190019
0.37189976
0.37189947
0.37189931
0.37189923
0.37189921
0.37189917
0.37189914
0.37189907
0.37189897
0.37189884
0.37189868
0.37189849
0.37189829
0.37189809
0.37189795
0.37189798
0.37189835
0.37189927
0.37190056
0.3719019
0.37190088
0.37189908
0.37188881
0.37188342
0.37186784
0.37186407
0.37059282
0.36926887
0.36791717
0.36656451
0.36522567
0.36390981
0.36262228
0.36136806
0.36015382
0.35898938
0.35788904
0.35687361
0.35597357
0.35523344
0.35471888
0.35451017
0.35466634
0.35512668
0.35599658
0.35741786
0.35961487
0.36293949
0.36808162
0.37643329
0.37575629
0.36757669
0.36256516
0.35932624
0.35720259
0.35583483
0.35500468
0.35457411
0.35444122
0.35467247
0.35520271
0.35595339
0.35686037
0.35788036
0.35898371
0.36015009
0.3613655
0.36262029
0.36390785
0.36522328
0.3665615
0.36791435
0.36926693
0.37059495
0.37060495
0.3692723
0.36791677
0.36656231
0.36522331
0.36390734
0.36261899
0.36136287
0.36014534
0.35897575
0.35786762
0.35684048
0.35592276
0.35515579
0.35460078
0.35433391
0.35442456
0.35481363
0.35558328
0.35686176
0.35885029
0.36187146
0.36649579
0.3736851
0.37505439
0.36760449
0.36276433
0.35952538
0.35736201
0.35595777
0.35509822
0.35464516
0.35449477
0.35470831
0.355226
0.35596813
0.35686943
0.35788562
0.35898639
0.36015103
0.36136527
0.3626193
0.36390647
0.36522178
0.36655991
0.36791157
0.36926223
0.3705848
0.37185568
0.37304687
0.3730419
0.37305414
0.37305046
0.3730613
0.37306214
0.37306526
0.37306549
0.37306584
0.37306619
0.37306672
0.37306723
0.37306765
0.37306793
0.37306806
0.37306802
0.37306786
0.37306755
0.37306714
0.37306663
0.37306604
0.37306539
0.3730647
0.37306398
0.37306328
0.37306264
0.37306213
0.37306194
0.37306188
0.37306201
0.37305932
0.37305894
0.37304851
0.37305256
0.37304058
0.37304573
0.37303541
0.37185872
0.37058231
0.3692592
0.36789361
0.36652451
0.36516007
0.36380895
0.36247219
0.36114947
0.35984021
0.35854424
0.35726164
0.35599263
0.35473754
0.35349674
0.35227061
0.35105953
0.34986389
0.34868402
0.34752022
0.34637271
0.34524165
0.34412707
0.34302888
0.34194686
0.3408806
0.33982951
0.33879279
0.33776941
0.3367581
0.33575734
0.33476531
0.33377992
0.33279871
0.33181882
0.33182873
0.33280805
0.33378853
0.33477317
0.33576442
0.33676441
0.33777496
0.33879762
0.33983365
0.34088411
0.34194979
0.3430313
0.34412902
0.34524319
0.34637388
0.34752106
0.34868458
0.34986418
0.35105957
0.3522704
0.3534963
0.35473685
0.35599167
0.35726037
0.35854263
0.35983823
0.36114709
0.36246941
0.36380563
0.36515586
0.36651846
0.36788683
0.36924845
0.3705778
0.37185256
0.37184484
0.37056837
0.36923587
0.36787497
0.36650784
0.36514729
0.36379888
0.36246409
0.36114285
0.35983485
0.35853998
0.35725832
0.35599016
0.35473585
0.35349576
0.35227032
0.35105995
0.34986508
0.34868603
0.34752313
0.34637664
0.34524675
0.3441335
0.34303682
0.3419565
0.34089215
0.3398432
0.33880884
0.33778804
0.33677953
0.33578178
0.33479298
0.33381101
0.33283348
0.33185737
0.33190512
0.33287585
0.33384846
0.33482595
0.33581066
0.33680467
0.33780978
0.33882751
0.33985911
0.34090559
0.34196775
0.34304614
0.34414113
0.34525291
0.34638154
0.34752692
0.34868887
0.34986709
0.35106124
0.35227095
0.35349579
0.3547353
0.35598904
0.35725661
0.35853763
0.35983179
0.36113896
0.36245922
0.3637929
0.36514022
0.36650004
0.36786737
0.3692299
0.37056611
0.37184824
0.37184748
0.37056575
0.3692289
0.36786564
0.36649787
0.36513799
0.36379091
0.3624576
0.36113774
0.35983098
0.35853723
0.35725663
0.3559895
0.35473624
0.35349729
0.35227311
0.35106417
0.34987092
0.34869378
0.34753312
0.34638925
0.34526241
0.34415271
0.34306013
0.34198451
0.3409255
0.33988257
0.33885495
0.33784165
0.33684143
0.33585278
0.33487395
0.33390287
0.33293724
0.33197413
0.33206492
0.33301855
0.33397533
0.33493818
0.33590937
0.33689096
0.33788473
0.33889217
0.3399145
0.34095271
0.34200753
0.34307947
0.34416886
0.34527582
0.34640034
0.34754225
0.34870128
0.34987709
0.35106926
0.35227733
0.35350083
0.35473924
0.3559921
0.35725893
0.35853932
0.35983294
0.36113962
0.36245946
0.36379283
0.36514008
0.36650035
0.36786881
0.36923315
0.37057153
0.37185527
0.37185828
0.37057532
0.369237
0.36787255
0.36650401
0.36514373
0.36379648
0.36246314
0.36114333
0.35983672
0.35854321
0.35726302
0.35599649
0.35474407
0.35350625
0.35228356
0.35107653
0.34988568
0.34871151
0.34755451
0.34641506
0.34529349
0.34419
0.34310467
0.34203741
0.34098793
0.33995576
0.33894018
0.33794022
0.33695466
0.335982
0.33502047
0.33406799
0.33312226
0.3321804
0.33232234
0.33325015
0.33418253
0.3351224
0.33607211
0.33703377
0.33800919
0.33899989
0.34000711
0.34103179
0.34207463
0.34313607
0.34421637
0.34531555
0.34643347
0.34756986
0.34872435
0.34989647
0.35108568
0.35229141
0.35351309
0.35475014
0.35600197
0.35726806
0.35854792
0.35984116
0.36114756
0.36246714
0.36380026
0.36514725
0.36650728
0.36787561
0.36923997
0.37057829
0.37186118
0.37186194
0.37057959
0.36924164
0.36787765
0.36650973
0.36515014
0.36380358
0.36247086
0.36115166
0.35984566
0.35855285
0.3572735
0.35600804
0.354757
0.35352096
0.35230057
0.35109646
0.34990929
0.3487397
0.3475883
0.34645565
0.34534221
0.34424832
0.34317421
0.3421199
0.3410852
0.34006971
0.33907276
0.33809341
0.33713041
0.33618221
0.33524697
0.33432249
0.33340632
0.33359524
0.33449182
0.33539768
0.33631539
0.33724723
0.33819512
0.33916066
0.34014511
0.34114941
0.34217419
0.34321983
0.34428644
0.34537389
0.34648189
0.34760999
0.34875762
0.34992413
0.35110881
0.35231092
0.35352972
0.35476449
0.35601453
0.35727918
0.35855787
0.35985011
0.36115561
0.36247434
0.36380657
0.36515265
0.36651176
0.36787922
0.3692428
0.37058037
0.37186234
0.37186282
0.37058119
0.36924399
0.36788083
0.36651381
0.36515517
0.36380957
0.36247783
0.36115963
0.3598547
0.35856311
0.35728521
0.35602153
0.3547727
0.35353945
0.35232257
0.35112288
0.34994121
0.34877841
0.34763532
0.34651272
0.3454113
0.34433163
0.34327413
0.34223902
0.34122627
0.34023558
0.33926635
0.33831764
0.33738816
0.33647626
0.33557993
0.3346968
0.33382417
0.33410102
0.33494467
0.33580019
0.33667048
0.33755808
0.33846512
0.33939333
0.34034404
0.34131818
0.34231631
0.34333867
0.34438515
0.34545542
0.34654891
0.34766489
0.34880253
0.34996087
0.35113895
0.35233577
0.35355036
0.35478179
0.3560292
0.35729175
0.35856875
0.3598596
0.3611639
0.36248156
0.3638128
0.36515793
0.36651611
0.3678827
0.36924547
0.37058229
0.3718636
0.37186457
0.37058364
0.36924721
0.36788487
0.36651871
0.36516098
0.36381633
0.3624856
0.36116853
0.35986491
0.3585749
0.35729894
0.3560377
0.35479197
0.35356267
0.35235079
0.3511574
0.34998362
0.34883061
0.34769953
0.3465915
0.34550759
0.34444869
0.34341556
0.34240872
0.34142838
0.34047442
0.33954633
0.33864318
0.33776361
0.33690578
0.33606743
0.33524581
0.3344378
0.33484866
0.33561303
0.33639302
0.3371921
0.33801328
0.33885904
0.33973138
0.34063171
0.34156095
0.34251955
0.34350748
0.34452436
0.34556947
0.34664181
0.34774023
0.34886343
0.35001005
0.35117868
0.35236798
0.35357663
0.3548034
0.35604716
0.35730687
0.35858162
0.35987068
0.36117353
0.36248996
0.36382013
0.36516427
0.36652154
0.36788724
0.36924914
0.37058514
0.37186566
0.37186679
0.3705867
0.36925115
0.36788971
0.36652449
0.36516772
0.36382412
0.36249457
0.36117886
0.3598769
0.35858894
0.3573156
0.3560577
0.35481629
0.35359253
0.35238773
0.35120334
0.35004087
0.34890197
0.34778829
0.3467015
0.34564323
0.34461493
0.34361791
0.34265317
0.34172134
0.34082259
0.33995659
0.33912242
0.33831858
0.33754289
0.33679258
0.33606423
0.33662207
0.33728606
0.33797551
0.33869438
0.33944587
0.34023243
0.34105567
0.34191653
0.34281521
0.34375131
0.34472389
0.34573157
0.34677266
0.34784528
0.34894741
0.35007699
0.35123201
0.35241051
0.35361068
0.35483083
0.35606946
0.35732519
0.35859687
0.35988353
0.36118447
0.36249935
0.36382822
0.36517123
0.36652746
0.36789219
0.36925315
0.37058824
0.3718679
0.37186894
0.37058972
0.36925508
0.36789459
0.36653038
0.36517472
0.36383235
0.36250426
0.36119032
0.35989057
0.35860544
0.35733575
0.35608259
0.35484731
0.35363149
0.3524369
0.35126552
0.35011952
0.34900126
0.34791322
0.34685795
0.34583798
0.34485576
0.3439135
0.34301305
0.3421558
0.34134245
0.34057295
0.33984636
0.33916082
0.33851347
0.33790049
0.33731713
0.33818743
0.33867021
0.33918709
0.33974407
0.34034604
0.34099658
0.34169796
0.34245122
0.34325625
0.34411193
0.34501632
0.34596689
0.34696072
0.34799463
0.34906541
0.35016984
0.35130486
0.35246761
0.35365547
0.35486607
0.35609732
0.35734739
0.35861472
0.35989803
0.36119638
0.36250922
0.36383645
0.36517811
0.36653317
0.36789686
0.36925687
0.37059107
0.3718699
0.37187074
0.37059227
0.36925848
0.36789892
0.36653577
0.36518134
0.36384047
0.36251422
0.36120265
0.35990594
0.35862479
0.35736028
0.35611392
0.35488752
0.35368323
0.35250354
0.35135128
0.35022965
0.34914217
0.34809267
0.34708521
0.34612394
0.34521303
0.34435636
0.34355739
0.3428188
0.34214221
0.34152785
0.34097432
0.34047856
0.34003568
0.33963903
0.33928066
0.34085672
0.34110613
0.34140688
0.34176859
0.34219848
0.34270128
0.34327942
0.34393283
0.34465937
0.34545541
0.34631628
0.34723671
0.34821123
0.3492344
0.35030102
0.35140626
0.35254573
0.35371552
0.35491219
0.35613275
0.35737466
0.35863578
0.35991438
0.36120914
0.36251925
0.36384437
0.36518437
0.36653812
0.36790074
0.36925984
0.37059327
0.37187142
0.37187193
0.37059404
0.36926094
0.36790225
0.36654019
0.36518717
0.36384813
0.36252429
0.3612159
0.35992342
0.35864786
0.35739078
0.35615421
0.35494068
0.35375322
0.35259544
0.35147155
0.35038641
0.34934553
0.3483551
0.34742184
0.34655294
0.34575571
0.34503725
0.34440384
0.34386019
0.34340858
0.34304804
0.34277367
0.34257754
0.3424483
0.34237151
0.34419613
0.34408925
0.34402898
0.34403407
0.34412097
0.34430389
0.34459469
0.34499733
0.34551069
0.34612937
0.34684523
0.34764874
0.34853009
0.3494797
0.35048874
0.35154921
0.35265409
0.35379731
0.35497365
0.35617875
0.35740894
0.35866123
0.35993319
0.36122298
0.36252938
0.36385174
0.3651897
0.36654194
0.36790344
0.36926172
0.37059455
0.37187225
0.37187233
0.37059476
0.36926217
0.36790427
0.36654335
0.36519197
0.36385522
0.36253454
0.36123045
0.3599438
0.35867609
0.35742949
0.35620688
0.35501186
0.35384886
0.35272326
0.35164152
0.35061134
0.34964175
0.34874318
0.34792739
0.34720717
0.34659568
0.34610533
0.34574565
0.34552118
0.34542602
0.34544708
0.34556048
0.34575106
0.34600117
0.3481202
0.34767851
0.34730418
0.34700505
0.34678028
0.3466663
0.34668188
0.3468506
0.34717768
0.34765566
0.34826966
0.34900254
0.3498372
0.35075794
0.35175099
0.35280462
0.35390901
0.35505605
0.35623909
0.35745274
0.35869266
0.35995542
0.36123841
0.36253983
0.36385858
0.36519398
0.36654443
0.36790474
0.36926228
0.37059468
0.37187219
0.37187182
0.37059432
0.36926206
0.36790487
0.36654521
0.36519577
0.3638619
0.36254532
0.36124695
0.35996816
0.35871114
0.357479
0.35627584
0.35510692
0.35397883
0.35289984
0.3518802
0.35093255
0.35007222
0.34931748
0.34868931
0.34821005
0.34790049
0.34777188
0.34781688
0.34801331
0.34831608
0.3487287
0.34925031
0.34986952
0.35150594
0.35069771
0.35002463
0.34949572
0.34911379
0.34886645
0.34878096
0.34888986
0.34920108
0.34969806
0.35035327
0.3511392
0.35203164
0.35301043
0.35405923
0.35516502
0.35631748
0.35750848
0.35873168
0.35998214
0.36125615
0.36255107
0.36386521
0.36519741
0.36654574
0.36790473
0.36926158
0.37059372
0.37187127
0.37187059
0.37059296
0.3692609
0.3679044
0.3665461
0.36519895
0.36386859
0.36255713
0.36126604
0.35999737
0.35875431
0.35754126
0.35636415
0.35523067
0.35415085
0.35313758
0.35220747
0.3513817
0.3506867
0.3501542
0.34981875
0.34970493
0.34980855
0.35008765
0.35053417
0.35116354
0.3519796
0.35298124
0.35415901
0.35567261
0.3542406
0.35305662
0.3521189
0.35141541
0.35093012
0.35064072
0.35054683
0.35069419
0.3510778
0.35166295
0.35240909
0.35328183
0.35425378
0.35530379
0.35641569
0.35757717
0.35877889
0.36001376
0.36127654
0.36256347
0.36387202
0.36520045
0.36654636
0.36790396
0.36926014
0.37059214
0.37186987
0.37186924
0.37059131
0.3692593
0.3679034
0.36654649
0.36520182
0.36387542
0.36256993
0.36128746
0.36003103
0.35880506
0.35761577
0.35647158
0.35538378
0.35436747
0.35344283
0.35263674
0.35198435
0.35152979
0.35131863
0.35136993
0.35164381
0.35213459
0.35287556
0.35389702
0.35522874
0.35689425
0.35890159
0.36285571
0.36005595
0.35774693
0.35590473
0.35448398
0.35343279
0.3527004
0.35224226
0.35201357
0.35203952
0.35234428
0.35288868
0.35361893
0.35449044
0.35546942
0.35653084
0.35765629
0.35883223
0.3600487
0.36129842
0.36257619
0.3638785
0.36520284
0.36654626
0.36790252
0.36925819
0.37059027
0.37186849
0.37186725
0.37058851
0.36925632
0.36790089
0.36654528
0.36520312
0.36388089
0.36258186
0.36130894
0.3600662
0.35885963
0.35769768
0.35659203
0.35555878
0.35462013
0.35380679
0.35316063
0.35273756
0.35259422
0.3527469
0.35313298
0.353808
0.35482691
0.35625915
0.35818656
0.36070128
0.36389377
0.36867651
0.36421592
0.36079204
0.35821511
0.35631166
0.3549518
0.35402763
0.3534543
0.35316544
0.35315012
0.3534451
0.35400087
0.35475265
0.35564913
0.35665331
0.35773871
0.35888645
0.36008301
0.3613187
0.3625867
0.36388238
0.36520239
0.36654319
0.36789799
0.36925296
0.37058494
0.37186376
0.37186014
0.37058049
0.36924863
0.36789424
0.36654044
0.36520116
0.36388341
0.36259107
0.36132784
0.36009895
0.35891204
0.35777803
0.35671235
0.35573679
0.35488232
0.35419265
0.35372925
0.35356134
0.35371861
0.35414464
0.35491369
0.35611471
0.3578716
0.36035309
0.36377938
0.36848233
0.37376889
0.36715509
0.36262126
0.35944402
0.35723974
0.35574205
0.35477061
0.35420044
0.35394015
0.35399374
0.35437092
0.35500172
0.35581707
0.35676634
0.35781415
0.35893585
0.36011419
0.36133708
0.36259609
0.36388545
0.36520104
0.36653864
0.36789097
0.36924388
0.37057408
0.37185177
0.37185202
0.37057389
0.36924441
0.36789254
0.36654126
0.36520473
0.36389049
0.36260311
0.36134711
0.36012876
0.35895713
0.35784533
0.35681217
0.35588485
0.35510271
0.35452311
0.35422005
0.35426253
0.35460706
0.35530351
0.35646278
0.3582484
0.36091131
0.36483518
0.37077675
0.36466863
0.36062108
0.35786156
0.35598966
0.35475249
0.35398325
0.35357255
0.3534362
0.35363896
0.35413149
0.35484358
0.35571468
0.35670244
0.35777716
0.35891801
0.36011032
0.36134365
0.36261074
0.36390662
0.3652278
0.36657068
0.36792852
0.36928739
0.37062292
0.37062246
0.37061998
0.37061167
0.36927846
0.36792176
0.3665661
0.36522596
0.36390875
0.36261881
0.36136045
0.36013975
0.35896561
0.3578509
0.35681412
0.35588204
0.35509342
0.35450517
0.35419059
0.35422043
0.35455879
0.35525119
0.35641449
0.35822576
0.36096313
0.36508394
0.37139214
0.37385334
0.36662308
0.36207733
0.35903508
0.35701393
0.35570444
0.35490973
0.35450257
0.35438934
0.35463696
0.35517812
0.35593564
0.35684691
0.35786955
0.35897445
0.36014161
0.36135722
0.36261172
0.36389852
0.36521273
0.36654927
0.36789993
0.36924998
0.3705757
0.37184823
0.37185333
0.37185456
0.37185834
0.37186648
0.3718718
0.37187502
0.37187618
0.37187667
0.3718771
0.37187766
0.37187825
0.37187875
0.37187909
0.37187923
0.37187914
0.37187883
0.37187832
0.37187764
0.37187681
0.37187586
0.37187482
0.37187372
0.37187263
0.37187159
0.3718707
0.37187008
0.3718698
0.37186966
0.37186898
0.37186634
0.37186163
0.37185406
0.37185078
0.37184993
0.37185558
0.37186108
0.37186479
0.37188028
0.37188551
0.37189557
0.37189712
0.37189787
0.37189624
0.37189466
0.37189345
0.3718928
0.3718925
0.37189239
0.37189237
0.37189238
0.3718924
0.37189242
0.37189244
0.37189248
0.3718925
0.37189252
0.37189254
0.37189256
0.37189257
0.37189259
0.3718926
0.37189261
0.37189262
0.37189263
0.37189264
0.37189264
0.37189265
0.37189264
0.37189265
0.37189265
0.37189265
0.37189264
0.37189264
0.37189263
0.37189262
0.37189261
0.3718926
0.37189259
0.37189257
0.37189256
0.37189255
0.37189253
0.37189251
0.37189249
0.37189248
0.37189245
0.37189243
0.3718924
0.37189237
0.37189235
0.37189231
0.37189228
0.37189226
0.37189222
0.37189219
0.37189217
0.37189212
0.37189208
0.37189204
0.37189199
0.37189196
0.37189191
0.37189187
0.37189182
0.37189178
0.37189173
0.37189169
0.37189165
0.3718916
0.37189158
0.37189159
0.37189168
0.37189196
0.3718926
0.3718938
0.37189538
0.371897
0.37189624
0.37189468
0.37188461
0.37187937
0.37186388
0.37186016
0.3718578
0.37303508
0.37305356
0.37305677
0.373079
0.37307869
0.3730912
0.37309013
0.3730915
0.37308969
0.37308854
0.3730877
0.37308738
0.37308727
0.37308726
0.37308729
0.37308732
0.37308735
0.37308737
0.37308741
0.37308743
0.37308745
0.37308748
0.37308751
0.37308753
0.37308756
0.37308758
0.37308761
0.37308763
0.37308766
0.37308767
0.37308769
0.37308771
0.37308774
0.37308775
0.37308776
0.37308778
0.3730878
0.37308781
0.37308782
0.37308783
0.37308784
0.37308785
0.37308786
0.37308787
0.37308788
0.37308788
0.37308788
0.37308789
0.37308789
0.3730879
0.3730879
0.3730879
0.3730879
0.3730879
0.37308789
0.37308789
0.37308788
0.37308788
0.37308787
0.37308786
0.37308785
0.37308784
0.37308784
0.37308782
0.3730878
0.37308779
0.37308777
0.37308775
0.37308773
0.37308772
0.3730877
0.37308767
0.37308765
0.37308763
0.37308762
0.37308758
0.37308756
0.37308757
0.37308769
0.37308801
0.37308885
0.37309
0.37309181
0.37309044
0.37309151
0.37307901
0.37307932
0.3730571
0.37305389
0.37305511
0.37417014
0.37417476
0.37418824
0.37419206
0.37419919
0.374199
0.37419892
0.37419742
0.37419643
0.37419581
0.37419556
0.37419547
0.37419546
0.37419547
0.37419548
0.3741955
0.37419551
0.37419552
0.37419553
0.37419554
0.37419554
0.37419556
0.37419556
0.37419557
0.37419558
0.37419559
0.3741956
0.3741956
0.37419561
0.37419561
0.37419562
0.37419562
0.37419563
0.37419563
0.37419563
0.37419563
0.37419563
0.37419563
0.37419564
0.37419564
0.37419563
0.37419563
0.37419564
0.37419563
0.37419563
0.37419563
0.37419563
0.37419562
0.37419561
0.37419561
0.37419561
0.37419561
0.3741956
0.37419559
0.37419559
0.37419558
0.37419557
0.37419557
0.37419556
0.37419555
0.37419555
0.37419553
0.37419552
0.37419551
0.37419551
0.37419549
0.37419548
0.37419547
0.37419546
0.37419545
0.37419544
0.37419542
0.37419541
0.37419539
0.37419538
0.37419537
0.37419539
0.37419547
0.37419572
0.37419635
0.37419734
0.37419883
0.37419891
0.3741991
0.37419197
0.37418815
0.37417467
0.37417005
0.37416875
0.37417912
0.37419074
0.37420012
0.37420621
0.37420773
0.37420687
0.37420525
0.37420389
0.37420305
0.37420262
0.37420244
0.37420238
0.37420237
0.37420236
0.37420239
0.3742024
0.37420242
0.37420242
0.37420243
0.37420245
0.37420246
0.37420246
0.37420248
0.37420249
0.3742025
0.37420252
0.37420253
0.37420252
0.37420253
0.37420255
0.37420255
0.37420256
0.37420256
0.37420256
0.37420258
0.3742026
0.37420259
0.37420259
0.37420258
0.3742026
0.37420261
0.37420261
0.37420261
0.37420261
0.37420262
0.37420262
0.37420262
0.37420262
0.37420262
0.37420262
0.37420262
0.37420262
0.37420262
0.37420261
0.37420262
0.37420261
0.37420261
0.3742026
0.37420259
0.37420259
0.37420259
0.37420259
0.37420259
0.37420257
0.37420256
0.37420256
0.37420254
0.37420254
0.37420254
0.37420252
0.37420251
0.3742025
0.37420248
0.37420249
0.3742025
0.37420257
0.37420275
0.37420318
0.37420402
0.37420538
0.374207
0.37420785
0.37420634
0.37420025
0.37419087
0.37417926
0.37416889
0.37417526
0.37418451
0.37419769
0.37420934
0.37421608
0.37421773
0.37421651
0.37421457
0.37421298
0.37421199
0.37421148
0.37421125
0.37421116
0.37421113
0.37421113
0.37421114
0.37421114
0.37421115
0.37421116
0.37421117
0.37421117
0.37421118
0.37421118
0.37421119
0.3742112
0.3742112
0.3742112
0.37421121
0.3742112
0.37421121
0.37421121
0.37421121
0.37421121
0.37421121
0.37421121
0.37421122
0.37421121
0.37421121
0.37421121
0.37421122
0.37421121
0.37421121
0.3742112
0.3742112
0.3742112
0.3742112
0.3742112
0.37421119
0.37421117
0.37421117
0.37421117
0.37421118
0.37421116
0.37421115
0.37421114
0.37421114
0.37421113
0.37421113
0.37421111
0.3742111
0.3742111
0.3742111
0.37421108
0.37421107
0.37421105
0.37421104
0.37421103
0.37421102
0.374211
0.374211
0.37421099
0.37421097
0.37421096
0.37421095
0.37421095
0.37421098
0.37421106
0.37421129
0.3742118
0.37421278
0.37421437
0.37421632
0.37421753
0.37421588
0.37420913
0.37419748
0.3741843
0.37417504
0.37417696
0.37419082
0.37420616
0.37421909
0.37422609
0.37422747
0.37422585
0.3742236
0.37422186
0.3742208
0.37422026
0.37422002
0.37421994
0.37421991
0.37421991
0.37421992
0.37421993
0.37421994
0.37421996
0.37421997
0.37421998
0.37421999
0.37422
0.37422001
0.37422003
0.37422004
0.37422005
0.37422006
0.37422006
0.37422008
0.37422009
0.3742201
0.3742201
0.37422011
0.37422012
0.37422013
0.37422014
0.37422014
0.37422014
0.37422015
0.37422016
0.37422017
0.37422017
0.37422017
0.37422017
0.37422018
0.37422019
0.37422019
0.3742202
0.3742202
0.3742202
0.3742202
0.3742202
0.37422021
0.37422021
0.37422021
0.37422021
0.37422021
0.37422021
0.37422021
0.37422021
0.37422021
0.37422021
0.37422021
0.3742202
0.3742202
0.3742202
0.3742202
0.37422019
0.37422019
0.37422018
0.37422018
0.37422017
0.37422017
0.37422018
0.37422021
0.3742203
0.37422055
0.37422109
0.37422215
0.3742239
0.37422615
0.37422777
0.3742264
0.3742194
0.37420647
0.37419115
0.37417729
0.37418369
0.37419739
0.37421372
0.37422706
0.37423389
0.37423484
0.37423283
0.37423033
0.37422845
0.37422735
0.3742268
0.37422656
0.37422647
0.37422644
0.37422643
0.37422643
0.37422643
0.37422643
0.37422643
0.37422643
0.37422643
0.37422643
0.37422643
0.37422643
0.37422643
0.37422643
0.37422642
0.37422642
0.37422642
0.37422642
0.37422641
0.37422641
0.37422641
0.3742264
0.3742264
0.37422639
0.37422639
0.37422638
0.37422638
0.37422637
0.37422637
0.37422636
0.37422636
0.37422635
0.37422634
0.37422634
0.37422633
0.37422633
0.37422632
0.37422631
0.3742263
0.3742263
0.37422629
0.37422628
0.37422627
0.37422626
0.37422625
0.37422624
0.37422623
0.37422622
0.37422621
0.3742262
0.37422619
0.37422618
0.37422617
0.37422615
0.37422614
0.37422613
0.37422612
0.3742261
0.37422609
0.37422608
0.37422607
0.37422606
0.37422606
0.37422608
0.37422616
0.3742264
0.37422694
0.37422804
0.3742299
0.3742324
0.37423442
0.37423346
0.37422662
0.37421327
0.37419693
0.37418322
0.37418447
0.37420001
0.37421677
0.37423004
0.37423655
0.37423713
0.37423482
0.37423213
0.37423018
0.37422906
0.37422852
0.37422829
0.37422822
0.3742282
0.3742282
0.37422821
0.37422822
0.37422823
0.37422825
0.37422826
0.37422828
0.37422829
0.3742283
0.37422831
0.37422833
0.37422834
0.37422835
0.37422836
0.37422837
0.37422838
0.37422839
0.37422841
0.37422842
0.37422843
0.37422844
0.37422845
0.37422846
0.37422846
0.37422847
0.37422848
0.37422849
0.3742285
0.37422851
0.37422852
0.37422852
0.37422853
0.37422854
0.37422855
0.37422856
0.37422856
0.37422857
0.37422858
0.37422858
0.37422859
0.3742286
0.37422861
0.37422862
0.37422862
0.37422863
0.37422864
0.37422864
0.37422865
0.37422865
0.37422866
0.37422866
0.37422867
0.37422867
0.37422868
0.37422868
0.37422869
0.37422869
0.37422869
0.37422869
0.3742287
0.37422871
0.37422874
0.37422883
0.37422907
0.37422962
0.37423075
0.37423271
0.3742354
0.37423772
0.37423715
0.37423065
0.37421739
0.37420065
0.37418512
0.37418617
0.37420148
0.37421816
0.37423118
0.37423738
0.37423768
0.37423516
0.37423236
0.37423035
0.37422921
0.37422866
0.37422843
0.37422834
0.3742283
0.37422829
0.37422828
0.37422827
0.37422827
0.37422826
0.37422825
0.37422824
0.37422824
0.37422822
0.37422822
0.37422821
0.3742282
0.37422818
0.37422817
0.37422817
0.37422815
0.37422814
0.37422813
0.37422812
0.37422811
0.3742281
0.37422809
0.37422808
0.37422807
0.37422806
0.37422804
0.37422804
0.37422803
0.37422802
0.374228
0.37422799
0.37422798
0.37422797
0.37422796
0.37422795
0.37422794
0.37422793
0.37422792
0.37422791
0.3742279
0.37422788
0.37422787
0.37422786
0.37422785
0.37422784
0.37422783
0.37422781
0.3742278
0.37422779
0.37422777
0.37422776
0.37422775
0.37422774
0.37422772
0.3742277
0.37422769
0.37422768
0.37422767
0.37422765
0.37422764
0.37422764
0.37422765
0.37422772
0.37422794
0.37422848
0.3742296
0.3742316
0.3742344
0.37423691