/*--------------------------------*- C++ -*----------------------------------*\
| =========                 |                                                 |
| \\      /  F ield         | OpenFOAM: The Open Source CFD Toolbox           |
|  \\    /   O peration     | Version:  v2012                                 |
|   \\  /    A nd           | Website:  www.openfoam.com                      |
|    \\/     M anipulation  |                                                 |
\*---------------------------------------------------------------------------*/
FoamFile
{
    version     2.0;
    format      ascii;
    class       volScalarField;
    location    "158";
    object      omega;
}
// * * * * * * * * * * * * * * * * * * * * * * * * * * * * * * * * * * * * * //

dimensions      [0 0 -1 0 0 0 0];


internalField   nonuniform List<scalar> 
15114
(
10.973008
12.126721
17.362029
28.722061
128.17145
208.33041
172.85726
168.61077
163.32623
132.31547
127.33754
123.75491
118.86622
99.641779
96.404595
93.904446
91.127861
88.507844
85.973046
83.119697
74.585872
72.574268
70.894821
69.173728
67.530881
65.934555
64.410148
62.950224
61.563072
60.23243
58.965638
57.760881
56.603482
55.494355
54.436124
53.412526
52.43724
51.490971
50.584996
49.709145
48.865507
48.042841
47.251528
46.481198
45.738974
45.016673
44.320666
43.644476
42.991226
42.355591
41.74198
41.142817
40.56408
39.994409
39.443796
38.892997
38.347219
37.777246
37.199902
36.01945
34.069898
33.423132
33.024276
32.669969
11.1945
13.856185
13.902291
18.035481
24.413596
34.879801
51.398625
84.784565
33.867974
21.869104
32.582259
30.850014
26.569107
22.62321
30.676782
49.404435
56.045473
73.463839
72.417138
94.228604
229.80293
264.65147
139.79373
114.09698
151.28994
215.27261
209.03486
205.57346
198.21924
160.47111
152.18646
145.3893
139.16284
116.66611
112.93434
108.06697
103.9119
100.17023
96.49036
92.819459
83.489538
81.218378
77.934545
75.500158
73.274312
71.184511
69.212522
67.350889
65.597978
63.942333
62.379496
60.903416
59.503322
58.17414
56.913714
55.712146
54.570084
53.477101
52.433251
51.432221
50.468432
49.536004
48.640617
47.774817
46.940297
46.133696
45.356739
44.607854
43.883381
43.184337
42.510746
41.858998
41.229704
40.619842
40.030559
39.46026
38.921998
38.388529
37.867693
37.869973
38.379919
39.065582
39.739396
40.343288
40.785725
41.156535
41.512322
41.847998
42.200904
42.47029
41.814287
41.877923
41.549355
41.177049
40.831294
40.47307
40.11358
39.699723
39.142221
38.492505
38.111718
37.609113
37.157271
36.825778
34.79006
37.152041
37.748497
38.735446
39.266621
38.208613
35.531404
34.68817
34.04937
33.565482
33.035187
35.254361
35.092185
34.126741
33.981947
33.30265
33.146201
32.187978
31.990469
30.979393
30.776035
29.862309
29.675569
28.979913
28.795778
28.617638
28.632034
28.674435
28.572385
28.216344
28.152773
28.002341
27.975866
27.913586
27.87028
27.604384
27.516753
27.096614
26.984658
26.528122
26.418437
26.04272
25.956767
25.69091
25.633974
25.484501
25.455233
25.408929
25.41465
25.488426
25.752819
25.982307
25.970849
26.025671
26.037916
26.095866
26.110597
26.168704
26.187585
26.277427
26.307197
26.429783
26.477242
26.594026
26.922041
27.198375
27.208313
27.375838
27.42235
27.616648
27.706918
28.122165
28.356724
28.768346
29.360787
29.811945
30.182613
31.808131
32.560943
10.970736
11.909162
12.743007
18.239338
15.875734
29.752465
79.017539
76.848885
96.132718
123.10695
225.3426
257.57166
164.39714
136.11201
144.40117
127.98478
204.74215
168.85026
161.33502
196.1692
164.11625
111.75219
75.247162
93.087846
92.943743
118.95265
136.21065
101.53736
113.46529
91.244814
61.348322
98.902466
108.39173
143.64587
166.94989
269.04706
284.85382
317.08559
234.37564
214.58502
219.73462
210.23601
162.1316
157.54897
150.84917
144.95026
140.46416
119.34062
116.78696
111.9873
108.08423
104.48497
100.59864
97.526417
95.122444
84.984537
83.892476
80.224821
78.064981
76.033842
74.074446
72.181153
70.357208
68.606611
66.926065
65.316833
63.776675
62.30022
60.884096
59.531911
58.23364
56.991639
55.800681
54.656404
53.554699
52.489263
51.455384
50.461071
49.497967
48.568327
47.668832
46.802624
45.96755
45.161108
44.382973
43.635906
42.914899
42.221279
41.553787
40.913952
40.306838
39.756545
39.225514
40.004866
40.575188
41.161356
41.806982
42.48884
43.20448
43.949619
44.724234
45.527865
46.364276
47.229638
48.124083
49.049452
50.008255
50.9962
52.014584
53.062887
54.148456
55.262825
56.40893
57.59613
58.8281
60.109296
61.445337
62.829519
64.274085
65.777508
67.338924
68.965313
70.661988
72.425522
74.259255
76.166459
78.149703
80.20325
82.366647
85.232505
95.954431
98.394167
101.13238
104.23231
107.51105
111.29185
113.97186
136.32815
141.78876
147.12864
153.29754
201.56927
209.55993
219.35718
198.92381
196.20677
188.95863
148.20563
145.43444
140.25775
135.50944
131.7435
115.34309
112.4104
108.41523
105.18397
102.11398
99.261707
96.899751
86.613422
84.001359
81.79941
79.627654
77.548222
75.582875
73.707626
71.913335
70.194679
68.551726
66.973481
65.459562
64.006799
62.610812
61.266116
59.974804
58.730753
57.532847
56.375527
55.248143
54.148508
53.082726
52.044875
51.033371
50.049201
49.097263
48.174104
47.278375
46.410897
45.576513
44.771244
43.995652
43.25111
42.541377
41.867595
41.247639
40.639333
41.09234
41.720204
42.357387
43.047006
43.772003
44.532209
45.323911
46.144935
46.994742
47.878637
48.789709
49.726238
50.690303
51.686814
52.709544
53.755529
54.829716
55.9359
57.067652
58.230479
59.43659
60.688
61.98568
63.336591
64.740689
66.203839
67.729366
69.324047
70.98985
72.737338
74.573017
76.507723
78.561047
80.77308
83.754795
85.869866
88.425151
92.276156
105.90412
109.7085
114.03106
131.92893
136.60555
142.58016
149.09195
156.96601
203.30054
214.21514
223.66664
270.98229
198.77918
193.21291
117.99822
101.10379
87.393777
114.21068
81.571309
113.26913
83.258841
53.061608
80.968543
95.132863
85.510573
121.40463
56.054215
70.099855
89.402728
133.81859
123.94555
100.84291
180.35489
110.34248
72.967542
62.159448
25.489105
14.452786
11.692198
10.925054
9.8532067
9.7834424
9.7138062
9.64449
9.5757779
9.5079808
9.4413697
9.3761453
9.3124421
9.2502954
9.1896531
9.1303875
9.072308
9.0151793
9.0231047
9.0800712
9.1379559
9.1969926
9.2573702
9.3192153
9.3825795
9.4474298
9.5136404
9.5810188
9.6492721
9.7180973
9.7872141
9.8564331
9.8638805
9.7958796
9.727938
9.6602304
9.5930216
9.5265937
9.4612411
9.3971826
9.3345371
9.2733343
9.2135224
9.1549764
9.0975109
9.0408955
9.0731964
9.1292224
9.1859935
9.2437281
9.3026001
9.3627258
9.424151
9.4868423
9.5506883
9.6154677
9.6808515
9.7465772
9.8124134
9.8782188
9.903637
9.8415545
9.7792407
9.716782
9.654373
9.5922766
9.5308832
9.4704137
9.4109833
9.3526322
9.2953254
9.2389625
9.1833931
9.1284242
9.2243918
9.2772375
9.3305006
9.3843224
9.438802
9.4940003
9.5499309
9.6065627
9.6637729
9.721342
9.7787503
9.8356873
9.8920123
9.947743
10.027667
9.9840738
9.9392708
9.892947
9.845138
9.7964036
9.7475468
9.6987106
9.649912
9.601087
9.5522415
9.5034175
9.4546567
9.4059622
9.7873619
9.8301158
9.8719398
9.9124258
9.9510572
9.9872628
10.020546
10.051421
10.080892
10.109144
10.134958
10.156213
10.173223
10.18758
10.57468
10.641086
10.697699
10.739303
10.765727
10.787075
10.803249
10.813963
10.814122
10.797004
10.767571
10.729824
10.68686
10.640479
12.552004
12.668323
12.785394
12.902846
13.018787
13.088461
13.0029
12.906178
12.799026
12.664256
12.485634
12.261728
11.988598
11.678364
10.700376
10.970326
11.43239
11.683257
11.796274
11.848574
12.17178
12.363761
12.749014
12.931125
13.34124
13.44311
13.83
13.83742
14.181116
14.097995
14.402328
14.263482
14.552656
14.376395
14.654225
14.462222
14.732336
14.537455
14.795172
14.608629
14.858524
15.026596
16.93634
20.195378
21.635246
17.812315
29.680083
29.68563
29.954669
30.563252
33.294554
34.093999
34.607079
35.145838
35.529741
36.021612
36.399292
36.903903
37.292677
37.814733
38.212058
38.754432
39.166516
39.725482
40.15457
40.733573
41.18079
41.773512
42.238706
42.846629
43.330442
43.944015
44.439076
45.046075
45.543653
46.115479
46.596429
47.109096
47.539948
47.989885
48.32801
48.668161
48.864846
49.006527
48.94874
48.759198
48.264464
47.509723
46.133595
44.832055
38.188183
32.784674
28.577722
22.776331
18.414372
14.984966
12.977828
11.728275
11.083236
9.0148097
9.0138987
9.0124591
9.0104941
9.0080753
9.0052382
9.0020453
8.9985793
8.9949292
8.9911688
8.9873549
8.9835281
8.9797161
8.9759336
8.9721822
8.9684364
9.0271258
9.030716
9.0343342
9.0379965
9.0416943
9.0454099
9.0491137
9.0527649
9.0563075
9.0596675
9.0627551
9.0654864
9.0678024
9.069679
9.0710588
9.0719445
9.1300306
9.1291762
9.1278656
9.1260927
9.1238981
9.1212935
9.1183342
9.1151047
9.1116952
9.1081792
9.1046116
9.1010327
9.0974731
9.0939523
9.0904833
9.0870574
9.1483791
9.151643
9.154956
9.1583232
9.1617291
9.1651539
9.1685664
9.1719279
9.1751849
9.1782646
9.181077
9.1835377
9.1855956
9.1872512
9.1884837
9.1893016
9.2499489
9.2491715
9.2480224
9.2464924
9.2445815
9.2422747
9.2396199
9.2367003
9.2336055
9.2304069
9.2271562
9.2238904
9.2206404
9.2174255
9.2142613
9.2111441
9.2752936
9.2782957
9.2813357
9.2844176
9.2875272
9.2906454
9.2937428
9.2967845
9.2997211
9.3024822
9.3049807
9.3071339
9.3088967
9.3102994
9.3113628
9.3120995
9.3758062
9.3751073
9.3741258
9.3728422
9.3712169
9.3692037
9.366846
9.3642251
9.3614254
9.358516
9.3555439
9.352542
9.3495377
9.3465505
9.3435923
9.412841
9.4157874
9.4187373
9.421672
9.4245653
9.4273864
9.4300903
9.4326075
9.4348576
9.436759
9.4382702
9.4394535
9.4403635
9.4410316
9.5076415
9.5069931
9.5061361
9.5050246
9.5035925
9.5017614
9.4995708
9.4971052
9.4944444
9.491655
9.4887805
9.4858508
9.4828914
9.550521
9.5535554
9.5565504
9.5594795
9.5623118
9.5650029
9.5674848
9.5696741
9.5714885
9.5728874
9.5739636
9.5747912
9.5754342
9.6441368
9.6434784
9.6426461
9.6415555
9.640131
9.6382683
9.6360145
9.6334558
9.6306771
9.6277487
9.6247168
9.6216139
9.6184683
9.6866212
9.6898741
9.6930947
9.6962519
9.6993098
9.7022187
9.704904
9.7072734
9.7092361
9.7107343
9.7118818
9.7127469
9.7134388
9.7830578
9.7823172
9.7813953
9.7801575
9.7785512
9.7764569
9.7739492
9.7711266
9.7680899
9.7649189
9.7616675
9.7583748
9.7550738
9.8240897
9.827335
9.8306076
9.8338733
9.8370917
9.8402061
9.8431316
9.8457568
9.8479752
9.8496908
9.8510272
9.8520124
9.8528066
9.8558246
9.7866417
9.7175582
9.6487587
9.5805241
9.5131568
9.4469523
9.3821041
9.3187387
9.25689
9.1965062
9.137462
9.0795696
9.0225958
9.8548276
9.7857131
9.7166903
9.6479333
9.5797203
9.5123524
9.4461302
9.3812511
9.3178465
9.2559553
9.1955302
9.1364492
9.078526
9.0215279
35.151868
32.66738
31.538797
30.128359
29.588954
29.066431
28.727553
28.107354
27.784643
27.418585
27.278492
27.113952
27.039985
26.92323
26.936022
26.51131
26.147206
26.145097
26.090018
25.99216
25.944681
25.875248
25.845071
25.800152
25.776646
25.735274
25.717177
25.695386
25.740396
25.369599
25.034737
25.096172
25.094639
25.139412
25.183811
25.314378
25.402511
25.629665
25.754822
26.073445
26.239336
26.621201
26.790809
27.144937
27.279476
27.510314
27.578264
27.647016
27.690564
27.829297
27.93167
28.255699
28.45775
28.199661
27.855194
28.392661
28.643487
29.234336
29.531214
30.304481
30.630548
31.487049
31.803759
32.620998
32.877781
33.472097
33.713102
34.548273
34.82432
34.02635
34.043087
33.634546
32.939683
32.592006
32.08664
31.733128
31.073224
30.645336
29.954495
29.519165
28.892703
28.508402
28.02568
27.715094
27.286067
27.017165
26.995105
27.103115
26.95283
26.818576
26.741075
26.653453
26.547616
26.360458
26.17459
25.908748
25.681477
25.399139
25.179177
24.956261
24.972711
25.085584
24.890042
24.770218
24.657051
24.60009
24.558735
24.551081
24.523139
24.529404
24.56675
24.676309
24.909652
24.921092
24.939284
24.968697
25.006131
25.059512
25.137043
25.283914
25.537893
25.57332
25.596702
25.66298
25.783053
25.945273
26.248119
26.379841
26.574551
26.928893
27.253314
27.690869
28.297522
29.227519
29.990249
30.934355
32.454549
34.873394
36.465027
38.087044
39.823725
41.514008
38.204147
37.773927
35.012619
32.525343
31.215173
29.834869
29.607251
29.228361
28.399689
27.799645
27.394709
27.044241
26.883873
26.732842
26.635653
26.528788
26.188085
25.833876
25.772911
25.756129
25.710729
25.60647
25.555465
25.499689
25.465567
25.429773
25.405521
25.374863
25.350083
25.333848
25.01937
24.69161
24.687237
24.723579
24.725351
24.769573
24.822888
24.9437
25.054273
25.265312
25.395318
25.686578
25.881172
26.214981
26.415716
26.72651
26.887757
27.099237
27.18514
27.264307
27.323229
27.461233
27.589693
27.894806
27.55505
27.207586
27.491523
27.953207
28.239576
28.760375
29.117967
29.796169
30.196605
30.94472
31.335574
32.050329
32.372108
32.908903
33.219978
33.963289
34.335215
25.031525
25.255144
25.391337
26.297708
27.200699
27.891697
28.372515
28.787089
29.151888
29.516793
29.838638
30.143704
30.378315
30.562024
30.651325
30.693017
30.638272
30.50869
30.248127
29.862569
29.289354
28.484104
27.307426
25.412902
22.291181
19.689583
17.134329
15.546067
13.908478
12.592513
11.72559
11.201561
10.873736
10.983771
11.104471
11.490106
11.881135
12.755879
13.032769
12.300079
14.307727
12.540483
13.265794
13.928048
14.551059
15.112175
15.644327
16.092529
16.509657
16.837156
17.138628
17.374037
17.581789
17.731439
17.841421
17.946518
18.00492
18.082035
18.099135
18.144547
18.130732
18.141521
18.083147
18.05666
17.931971
20.903546
21.409434
21.748204
21.977894
22.11864
22.226818
22.292192
22.352937
22.37012
22.377641
22.327202
22.263949
22.136654
21.984822
21.733973
21.453307
21.050357
20.614672
20.030772
19.383734
18.490824
17.415685
15.898238
15.822419
13.71217
13.256661
13.865326
15.860621
14.744239
15.250953
17.814119
16.136907
16.472616
19.340275
17.27651
17.439845
20.467076
18.14113
18.170538
21.238754
18.774086
18.684027
21.715997
19.191122
18.99921
21.920218
19.432917
19.170189
21.904987
19.52224
19.216575
21.743513
19.488362
19.148753
21.460529
19.292562
18.87685
20.986369
18.535351
21.26654
21.851008
22.164402
22.526507
22.580187
22.888955
29.142414
28.424036
28.222932
27.307962
26.758605
25.50131
25.254597
24.487901
20.3904
40.932412
40.374513
37.535567
37.049309
34.554447
32.173668
30.500056
30.174601
28.951536
28.011929
27.359326
27.016646
26.601653
26.256977
26.044928
25.904581
25.579076
25.482943
25.372335
25.303949
25.267258
25.221963
24.882053
24.820539
24.751853
24.700556
24.663875
24.636424
24.614153
24.602793
24.304728
24.29308
24.26365
24.258373
24.281443
24.294185
24.335558
24.395947
24.503885
24.628678
24.817208
24.508497
24.662603
24.876628
25.094209
25.364039
25.59433
25.847307
26.035726
26.218176
26.329604
26.42266
26.505225
26.639847
26.804215
26.488411
26.708899
26.974723
27.369816
27.696925
28.147901
28.54807
29.127075
29.584118
30.219886
30.672842
31.282367
31.662247
32.139416
32.514953
33.166975
33.642382
33.143104
32.698563
32.094559
31.704404
31.319567
30.901868
31.294363
31.698667
31.239282
30.850382
30.47098
30.057556
30.44495
30.844132
30.273955
29.908372
29.546148
29.187624
28.829491
28.471771
28.116483
27.6641
28.011324
28.36252
28.715457
29.072258
29.436833
29.809612
29.215161
28.874909
28.538204
28.205291
27.870801
27.53715
27.206383
26.879179
26.547988
26.198918
25.787756
25.056432
25.396185
25.789736
26.12692
26.446549
26.763875
27.085868
27.410342
27.738024
28.067676
28.403151
28.748342
28.203636
27.887722
27.576785
27.268278
26.958164
26.649814
26.342305
26.03861
25.731543
25.406884
25.024461
24.347466
24.680461
25.050798
25.36775
25.666122
25.961519
26.261235
26.561678
26.865102
27.169777
27.47881
27.797177
27.368824
27.069693
26.776438
26.486486
26.195316
25.906311
25.617962
25.333024
25.044749
24.737843
24.374254
23.754674
24.100154
24.452602
24.751345
25.031778
25.30891
25.589979
25.872001
26.156748
26.443233
26.735009
27.035776
26.668144
26.390299
26.11677
25.846488
25.57496
25.304888
25.035086
24.768259
24.497881
24.208661
23.863042
23.294349
23.662313
24.001591
24.285367
24.549762
24.810514
25.074341
25.338051
25.603632
25.869485
26.138397
26.411275
26.200849
25.936465
25.674763
25.415262
25.154752
24.896236
24.637398
24.380998
24.120783
23.84064
23.50156
22.973113
23.375345
23.711476
23.989882
24.248236
24.503162
24.760797
25.018692
25.279342
25.539577
25.802739
26.066335
26.345268
26.21852
25.948057
25.689122
25.428816
25.170212
24.910585
24.654007
24.397493
24.143442
23.885697
23.607531
23.26801
22.745461
23.170221
23.511138
23.789983
24.047795
24.302203
24.559117
24.816329
25.077161
25.337333
25.599453
25.860026
26.132103
26.035929
25.762476
25.500983
25.238306
24.977941
24.716902
24.459858
24.20298
23.948828
23.691086
23.412053
23.068601
22.531394
22.953116
23.294109
23.571552
23.828499
24.082065
24.338203
24.595099
24.856293
25.116794
25.380471
25.644204
25.920405
25.744075
25.472644
25.213438
24.953889
24.697708
24.439945
24.186314
23.933031
23.681608
23.427015
23.153237
22.814453
22.253521
22.648174
22.98703
23.255585
23.509779
23.759765
24.009837
24.26013
24.514074
24.767197
25.024443
25.282293
25.553734
25.311532
25.049177
24.799438
24.549814
24.303379
24.056185
23.812518
23.568507
23.322305
23.054044
22.796596
22.457356
21.839967
22.196853
22.347708
22.51053
22.722714
22.570422
22.406719
22.248292
22.108302
21.984672
21.88568
21.803937
21.745231
21.70121
21.675618
21.661407
21.660064
21.665724
21.675984
21.692886
21.711236
21.734656
21.760376
21.793252
21.82878
21.872237
21.920262
21.980882
22.05258
22.149696
22.272835
22.434564
22.609222
22.485538
22.390616
22.233136
22.074245
21.950507
21.853928
21.780578
21.720405
21.672979
21.631667
21.596809
21.566005
21.540953
21.519054
21.50214
21.487215
21.475199
21.470063
21.473425
21.488218
21.513909
21.557232
21.615888
21.696557
21.79427
21.916281
22.056126
22.212024
22.372441
22.204507
22.005085
21.461325
21.83407
22.038386
21.881129
21.675301
21.160903
21.542459
21.743147
21.623135
21.422265
20.935443
21.326687
21.52444
21.445264
21.246315
20.784093
21.190311
21.387317
21.344332
21.146923
20.69919
21.120174
21.317344
21.301778
21.103605
20.6653
21.100124
21.298355
21.302501
21.102797
20.665118
21.111109
21.313561
21.32791
21.123839
20.684374
21.140489
21.345295
21.365577
21.160354
20.717361
21.182751
21.390207
21.419494
21.21068
20.767333
21.243696
21.454126
21.493961
21.283354
20.840286
21.32817
21.540924
21.59936
21.386121
20.954426
21.459006
21.674027
21.771419
21.559185
21.1598
21.69085
21.900904
22.067529
21.878358
21.574722
22.124618
22.242726
22.362343
22.806468
23.510751
23.831512
24.096533
24.34137
24.578286
24.814899
25.050323
25.290784
25.530233
25.772698
26.013802
26.258697
26.499704
26.749769
26.31167
25.971369
25.745369
25.469815
25.293522
25.184918
25.078832
25.00726
24.955798
24.68198
24.605273
24.541507
24.476787
24.427938
24.391775
24.36365
24.335524
24.077286
24.041471
24.023569
23.99826
23.993226
24.011943
24.028566
24.07054
24.132537
24.235088
24.354359
24.107094
24.24924
24.403689
24.606491
24.823169
25.080687
24.82012
24.573891
24.328769
24.087013
23.84626
23.608618
23.37164
23.136407
22.892121
22.717844
22.948366
23.171936
23.401454
23.631997
23.864194
24.099054
24.336536
24.573323
24.359729
24.126875
23.893084
23.66369
23.436202
23.211034
22.989178
22.771998
22.548454
22.386668
22.606296
22.819273
23.035452
23.25619
23.481178
23.705035
23.935007
24.163637
24.009582
23.779225
23.549733
23.327187
23.103531
22.885748
22.671895
22.462636
22.246082
22.120576
22.335143
22.542532
22.754713
22.970224
23.191803
23.4142
23.642556
23.871187
23.760042
23.994146
23.896762
23.666535
23.441955
23.532988
23.306258
23.083874
22.864047
22.649986
22.439422
22.232819
22.01958
21.936847
22.149504
22.355198
22.564612
22.777487
22.996415
23.217206
23.154341
23.379135
23.603629
23.83402
23.791953
23.561516
23.337124
23.112062
22.891419
22.934242
22.715876
22.503798
22.295151
22.089705
21.877774
21.833839
22.04591
22.251769
22.460713
22.672897
22.647542
22.866504
23.087972
23.314233
23.540087
23.772488
23.756528
23.526112
23.30143
23.075774
22.854844
22.635905
22.422974
22.435382
22.226249
22.020506
21.808382
21.794714
22.007291
22.213426
22.211869
22.422085
22.635844
22.855707
23.077388
23.30402
23.529698
23.760952
23.782619
23.548132
23.319884
23.091587
22.868131
22.646911
22.432193
22.221519
22.013195
22.005403
21.793552
21.799483
21.809593
22.026266
22.235553
22.447241
22.663066
22.885607
23.110573
23.340115
23.569242
23.803264
23.837507
23.600614
23.368447
23.136549
22.909819
22.685926
22.468816
22.255421
22.045083
21.827665
21.846929
22.064926
22.276452
22.491624
22.710482
22.935868
23.164112
23.398112
23.632318
23.870572
24.110148
24.139909
23.901232
23.663032
23.428304
23.193493
22.964518
22.738189
22.518429
22.302182
22.089914
21.870955
21.897295
22.117387
22.330879
22.54827
22.76924
22.99692
23.227146
23.462781
23.698364
23.937304
24.176187
24.223502
23.983221
23.742768
23.505811
23.268909
23.037151
22.808061
22.585921
22.367209
22.152166
21.930827
21.967254
22.190012
22.406769
22.627449
22.851466
23.082699
23.316741
23.556436
23.796521
24.04055
24.284523
24.347663
24.101408
23.854787
23.612351
23.370454
23.134479
22.901631
22.675943
22.453694
22.235519
22.011719
22.060221
22.285299
22.504764
22.72845
22.955907
23.190682
23.428853
23.67323
23.918917
24.169729
24.420798
24.485431
24.742778
24.816889
24.561317
24.311617
24.235304
23.985062
23.738566
23.494243
23.255058
23.019941
22.791556
22.566687
22.347499
22.121729
22.193961
22.420209
22.639436
22.865394
23.094693
23.330284
23.570189
23.81464
24.061486
24.159144
24.410992
24.661899
24.920088
25.035099
24.78105
24.533476
24.283472
24.038589
23.912571
23.667715
23.428132
23.19295
22.96273
22.736721
22.516518
22.290757
22.414156
22.640149
22.861958
23.088738
23.319812
23.555417
23.794244
23.97123
24.215486
24.459391
24.709272
24.95671
25.211398
25.451948
25.705521
26.046502
25.795405
25.544221
25.198999
24.952515
24.70421
24.461627
24.218648
23.981919
23.734054
23.498408
23.267011
23.038008
22.811216
22.580048
22.786336
23.041674
23.279676
23.513235
23.746157
24.096516
24.332467
24.568616
24.810294
25.052122
25.29842
24.936941
24.590625
24.356633
24.185844
24.070077
23.974032
23.901969
23.841381
23.78186
23.729644
23.676625
23.634349
23.601405
23.57626
23.548922
23.522508
23.509787
23.490976
23.487255
23.504716
23.523119
23.568164
23.629504
23.730342
23.842125
23.991185
24.153939
24.354835
24.560792
24.819767
25.041675
25.287
25.471903
25.65776
25.773337
25.880871
25.97084
26.116668
26.259442
26.531139
26.783434
27.190411
27.507674
27.96466
28.354149
28.941059
29.383724
30.019931
30.456782
31.071366
31.436912
31.917357
32.277105
32.925815
33.395318
33.04273
30.743836
13.348108
10.886662
9.9457441
9.5613052
9.3866641
9.2956657
9.2433611
9.2129487
9.1543938
9.0969186
9.0402944
9.024657
9.0285387
9.0319812
9.0349086
9.0372866
9.0390787
9.0957287
9.094001
9.076991
9.0199317
9.0178073
9.0749578
9.0917166
9.0888923
9.0724724
9.015218
9.0121947
9.0695539
9.0855507
9.0817655
9.0662621
9.0088003
9.0051176
24.00724
23.43275
22.983509
22.66806
22.437194
22.22198
21.94601
21.566041
21.204853
20.913113
20.692414
20.544175
20.459348
20.424582
20.422351
20.4393
20.469708
20.517544
20.58822
20.702506
20.913415
21.335687
22.173857
22.429368
23.760041
24.083384
24.992911
25.334944
25.620538
25.883192
26.135369
26.385522
26.632724
26.883012
27.130733
27.381385
27.630762
27.883698
28.133125
28.390321
28.654484
27.709168
27.446469
27.195016
26.950497
26.703462
26.459585
26.215514
25.974014
25.731584
25.492881
25.252294
25.009942
24.75857
24.482172
24.14857
23.816809
23.156278
22.70538
23.070199
23.368295
23.622848
23.862399
23.472683
23.117294
22.874766
22.69598
22.572981
22.477919
22.407838
22.348595
22.300452
22.257109
22.2199
22.186787
22.1606
22.139068
22.120036
22.103453
22.091603
22.085244
22.086752
22.100327
22.125385
22.170302
22.230255
22.316539
22.419801
22.553172
22.700401
22.875444
23.060338
23.267837
23.465089
23.663928
23.835233
23.994125
24.116038
24.22523
24.324247
24.447438
24.586424
24.777103
24.999803
25.294715
25.595408
25.957901
26.3264
26.775366
27.200233
27.681462
28.113739
13.083605
10.794442
9.860767
9.4632179
9.2794826
9.183701
9.1288346
9.0727985
9.1287169
9.2265859
9.41426
9.4247434
9.2286452
9.1283809
9.0717291
9.1277935
9.1833927
9.1817992
9.1259875
9.0698602
9.1267399
9.2283668
9.2812673
9.2815586
9.4737706
9.4794531
9.4305674
9.4273963
9.2245244
9.1234731
9.0671249
9.1233433
9.1786087
9.1738958
9.1198826
9.0635648
9.1186653
9.2171229
9.2701112
9.2774436
9.4761409
9.4629505
9.4143307
9.3951124
9.2073787
9.1126977
9.0592877
9.1157034
9.1680349
9.161392
9.1109478
9.0544417
9.1059557
9.1964654
9.2497148
9.2604938
9.4437545
9.4223829
9.3736806
9.3532014
9.1853611
9.0988108
9.0492096
9.0204455
9.0776488
9.0626822
9.0589076
9.00124
9.0160199
9.0733171
9.1316095
9.1358227
9.1398209
9.1434875
9.1467077
9.1494103
9.1515847
9.1532357
9.2118273
9.2102626
9.1941493
9.1349867
9.1330606
9.192344
9.2082119
9.2056465
9.1901194
9.1306978
9.127905
9.1874695
9.2025647
9.1990346
9.1844465
9.1247385
9.1212856
9.1811396
9.1951737
9.1910983
9.1776413
9.1176394
9.1138842
9.0550225
8.9972509
9.0130481
9.017475
9.0222806
9.0273924
9.0327348
9.0382172
9.0437494
9.1004233
9.1058022
9.1543388
9.1470656
9.0914585
9.1741815
9.2276772
9.2387437
9.4020575
9.3820711
9.3330687
9.3130167
9.1631552
9.0841125
9.1397925
9.0949694
9.0688824
9.0114921
9.0069481
8.9932174
9.0510933
9.0644303
9.1229593
9.1272939
9.1869213
9.1740358
9.1703864
9.1100855
9.1062898
9.0471679
8.9891881
9.002453
9.0600233
9.0557155
9.0432835
8.9851986
8.9980604
8.9938105
8.9812719
9.0394662
9.0515495
9.0475508
9.0357268
8.9774128
8.9897241
8.9857821
8.9735949
9.2419397
9.2502526
9.2623795
9.2769815
9.294052
9.1526272
9.0769604
9.1327007
9.089559
9.1473097
9.1526247
9.1579772
9.1632523
9.1682903
9.1729354
9.1769978
9.1803413
9.1828785
9.1846087
9.1856168
9.2392872
9.3327951
9.5122292
9.5227962
9.3348828
9.2390105
9.2954224
9.2423884
9.2407437
9.2939587
9.2374774
9.334583
9.388454
9.3887585
9.5718424
9.5771297
9.5282984
9.5248276
9.3307885
9.2343783
9.2909627
9.2383261
9.2351146
9.2864875
9.2297776
9.3235444
9.3775576
9.3846967
9.5734885
9.5601276
9.5115406
9.4924165
9.3140778
9.224041
9.2808899
9.2311843
9.2266658
9.2744941
9.217515
9.3034537
9.3578107
9.3682625
9.54114
9.5200544
9.4711606
9.4510251
9.2926323
9.2105711
9.2676732
9.2217526
9.2165987
9.2606058
9.2033944
9.2816908
9.336342
9.3471513
9.5001487
9.4805298
9.4312109
9.4116508
9.270908
9.1962114
9.2535256
9.2113653
9.2061637
9.1827235
9.2438373
9.2478901
9.2519189
9.2558462
9.2595594
9.2629427
9.2658758
9.2682938
9.2702121
9.2716846
9.2727667
9.3339703
9.3966106
9.4606564
9.4596703
9.3956015
9.3329272
9.3315471
9.3166434
9.2546623
9.2529872
9.315101
9.3297629
9.3274937
9.3131743
9.2509107
9.248414
9.3108308
9.3247101
9.321473
9.3081141
9.2455448
9.242394
9.305117
9.3179062
9.3141246
9.30193
9.2390531
9.2356062
9.2986363
9.3102398
9.306326
9.2952932
9.2321139
9.2286196
9.1667387
9.1785625
9.1186662
9.1144682
9.1025353
9.16313
9.1744915
9.1705514
9.1595876
9.098849
9.1104083
9.1065164
9.0952469
9.1561305
9.1667764
9.2283961
9.2320575
9.2358761
9.2398155
9.3024348
9.2919422
9.2886183
9.2251601
9.2217611
9.285345
9.2949044
9.2986161
9.3626006
9.3663278
9.3701163
9.3739156
9.377678
9.381333
9.3847697
9.3878745
9.3905204
9.3926502
9.394307
9.3801349
9.4450905
9.4584489
9.4842194
9.4855465
9.4864327
9.42377
9.3623598
9.3022379
9.3529821
9.4113299
9.4707381
9.5311637
9.6089335
9.5523422
9.4964115
9.4411856
9.6104232
9.6595456
9.7086442
9.7577041
9.7675979
9.6108454
9.5309332
9.4705384
9.4228797
9.3614504
9.3012995
9.3527687
9.4111339
9.409814
9.3599856
9.2997454
9.3513785
9.4429702
9.443279
9.4984853
9.6699115
9.6208951
9.6259436
9.6746889
9.4981652
9.5540098
9.5543611
9.7188375
9.7232923
9.7716497
9.6104274
9.529698
9.4692746
9.4214935
9.419449
9.357823
9.2974554
9.3484919
9.407034
9.4028252
9.354894
9.2943849
9.3441504
9.4322317
9.4392534
9.4944833
9.670652
9.6221148
9.6087206
9.6572574
9.4875821
9.5435538
9.5503423
9.4665861
9.5270777
9.4822754
9.4569014
9.4437816
9.3787184
9.3769322
9.4421125
9.4548876
9.4523524
9.4400208
9.3747287
9.3721495
9.4375486
9.4493519
9.4721484
9.476176
9.4795874
9.4166512
9.4624981
9.5230883
9.600042
9.6067374
9.7670705
9.7190168
9.7056425
9.7537236
9.735807
9.5914818
9.5180259
9.4573249
9.4131328
9.3512457
9.2905959
9.338699
9.3975191
9.3913953
9.3469983
9.2862132
9.3324407
9.4128545
9.423123
9.4786654
9.6387055
9.5899227
9.5690676
9.6181395
9.4685823
9.52492
9.5348245
9.6873899
9.6671631
9.7159669
9.5817356
9.5121198
9.4513225
9.4090082
9.4044815
9.3423524
9.281434
9.325749
9.3848302
9.3779881
9.3374574
9.2764107
9.3187966
9.3916862
9.4023627
9.4582552
9.5987823
9.549421
9.5300155
9.579603
9.4477028
9.5043025
9.5147471
9.4448695
9.5057522
9.4677131
9.4460137
9.4347864
9.3692873
9.366233
9.4318251
9.4424489
9.4387689
9.4287462
9.3630684
9.3598479
9.4256021
9.4350407
9.4533985
9.4582087
9.4630107
9.3996986
9.4381208
9.4990681
9.5613262
9.5716921
9.6972511
9.6481199
9.6291703
9.6785261
9.6604377
9.5510669
9.4923299
9.4313317
9.3948247
9.3324773
9.2713055
9.3118236
9.3711164
9.3643687
9.3275139
9.2662254
9.3049908
9.2466002
9.189197
9.260598
9.206344
9.2167677
9.3622494
9.3435443
9.3932348
9.4431528
9.4612588
9.3256912
9.3154977
9.3710805
9.381164
9.4372955
9.5609477
9.5110493
9.4932655
9.5434828
9.4273053
9.484066
9.4939878
9.6108153
9.5936489
9.6435287
9.5411732
9.4856798
9.4246507
9.3899568
9.3851548
9.3226325
9.2612413
9.2010704
9.1421141
9.0842783
9.1259089
9.0701326
9.0637905
9.1195756
9.0792171
9.1371265
9.1961724
9.2336546
9.239925
9.182458
9.1761507
9.2421732
9.2509252
9.1966116
9.1428421
9.1340934
9.1878575
9.3121133
9.3266462
9.376522
9.4266279
9.3058834
9.297133
9.412246
9.3620659
9.3496675
9.2344648
9.1703838
9.1324155
9.0744481
9.1138226
9.0580682
9.0531837
9.1088666
9.0700481
9.1280619
9.1872378
9.1915339
9.2278845
9.2228317
9.1653745
9.2283455
9.1743104
9.1802385
9.1265727
9.120851
9.1176171
9.0493126
9.0090223
9.066044
9.0437109
9.0320494
9.1027909
9.0917197
9.1527533
9.1631682
9.1048685
9.1612708
9.1240952
9.1833156
9.2186344
9.2243543
9.1706793
9.2879801
9.2911598
9.2998497
9.5522159
9.5777464
9.6081832
9.6452534