/*--------------------------------*- C++ -*----------------------------------*\
| =========                 |                                                 |
| \\      /  F ield         | OpenFOAM: The Open Source CFD Toolbox           |
|  \\    /   O peration     | Version:  v2012                                 |
|   \\  /    A nd           | Website:  www.openfoam.com                      |
|    \\/     M anipulation  |                                                 |
\*---------------------------------------------------------------------------*/
FoamFile
{
    version     2.0;
    format      ascii;
    class       volScalarField;
    location    "158";
    object      p;
}
// * * * * * * * * * * * * * * * * * * * * * * * * * * * * * * * * * * * * * //

dimensions      [0 2 -2 0 0 0 0];


internalField   nonuniform List<scalar> 
15114
(
2.6924478
3.9086953
5.4598637
8.0185449
11.415796
9.3791585
3.8673109
2.1375285
0.26019259
-0.55911235
-1.2185833
-2.1038357
-2.5732897
-2.6004019
-2.8439885
-3.3194275
-3.5922217
-3.7908002
-3.9532277
-4.1030568
-4.0932238
-4.120041
-4.3016275
-4.4261962
-4.4663555
-4.5129959
-4.5434022
-4.5988682
-4.6250087
-4.6109859
-4.6092839
-4.6705407
-4.5986526
-4.5952046
-4.6172682
-4.5534751
-4.558591
-4.506835
-4.4643926
-4.4557631
-4.3778163
-4.3862272
-4.2811037
-4.3006472
-4.1813695
-4.1955262
-4.0801936
-4.0785035
-3.9811483
-3.9473769
-3.8770168
-3.8075921
-3.7694334
-3.6682726
-3.6590414
-3.5370069
-3.4897373
-3.4085323
-3.3254658
-3.251057
-3.1358871
-3.0293997
-2.9257804
-2.8338636
3.0555842
5.0600585
5.0275852
6.1705891
7.9069332
8.7329909
10.616504
10.74769
8.5236768
7.4982602
12.061182
9.3290848
8.6276
7.7470184
7.9017476
9.4736449
10.146639
11.144865
13.305098
13.504631
13.87155
11.546757
12.058773
11.594179
11.44559
9.9342167
4.8178995
2.1487304
-0.023577353
-0.72722411
-1.203345
-2.2397892
-2.864901
-2.8507188
-2.8260374
-3.3303939
-3.6423389
-3.8494913
-3.9810003
-4.1742474
-4.1787883
-4.1245564
-4.3028957
-4.4306611
-4.4645205
-4.5392088
-4.5642624
-4.6076057
-4.6281499
-4.6363009
-4.6250538
-4.6669638
-4.6214733
-4.6060741
-4.6172698
-4.5799722
-4.5536905
-4.5230688
-4.4638882
-4.4608422
-4.3920987
-4.3841292
-4.2943292
-4.296986
-4.1932372
-4.1907615
-4.0887128
-4.0720525
-3.9944087
-3.9412444
-3.8866436
-3.8113836
-3.7617975
-3.6913526
-3.63326
-3.5595956
-3.4872011
-3.4143243
-3.3593233
-3.2723139
-3.3833079
-3.3921815
-3.423071
-3.4351031
-3.4452635
-3.4548603
-3.4601632
-3.4612442
-3.4702525
-3.4617483
-3.4170643
-3.4368533
-3.4393696
-3.4350335
-3.4202527
-3.4077535
-3.4021179
-3.385194
-3.3706139
-3.3720976
-3.2843192
-3.3148486
-3.2956263
-3.2359884
-3.1406171
-3.2299648
-3.2347184
-3.3025241
-3.3020177
-3.2342531
-3.136027
-3.0259786
-3.0251708
-2.9198859
-2.8169649
-2.8416641
-2.8552966
-2.8664481
-2.8900884
-2.9042232
-2.9202097
-2.9303312
-2.9367526
-2.9398534
-2.9554119
-2.969114
-2.9850681
-2.9887267
-2.9896738
-3.071736
-3.1499454
-3.1684886
-3.2067713
-3.224516
-3.246189
-3.2609443
-3.2894941
-3.3071678
-3.3234173
-3.3395938
-3.3640944
-3.3783079
-3.4005121
-3.4179984
-3.4392009
-3.4541616
-3.4710979
-3.4897669
-3.5295793
-3.5463795
-3.5737714
-3.5840068
-3.5896242
-3.6973018
-3.7821496
-3.8044681
-3.8580691
-3.8832678
-3.9328925
-3.9585677
-4.0003019
-4.0299159
-4.0725414
-4.0955861
-4.1377761
-4.1552687
-4.1679819
-4.3079019
-4.4105403
-4.4377454
-4.5160413
-4.5325384
-4.5987911
-4.6238649
-4.6936862
-4.7261127
-4.7797486
-4.9378628
-5.0815756
-5.0682433
-5.2110776
-5.2070732
-5.2676893
2.6748737
3.861173
4.2956661
6.025628
5.4033995
7.2856306
9.8915549
10.319533
11.189288
10.860009
11.142238
10.89579
12.673064
14.321278
11.305364
10.627043
11.163778
9.0554179
10.424529
10.334878
10.649044
10.300183
9.7407631
10.12437
11.375155
10.089813
10.598694
8.8345953
9.9172546
9.8789778
9.4755386
10.048176
10.851649
12.323252
10.844195
9.0589278
7.7264319
6.58473
4.6905608
5.7642823
2.2869228
-0.040875091
-1.0636341
-1.0603387
-2.1971831
-2.9437518
-3.0970896
-2.8886041
-3.2771264
-3.3460437
-3.6618263
-3.8815994
-4.0041608
-4.191682
-4.2281308
-4.1759436
-4.3382401
-4.3117762
-4.4293071
-4.485518
-4.5694429
-4.5863938
-4.6303085
-4.6408305
-4.6490603
-4.6407259
-4.6797062
-4.633683
-4.6134669
-4.6335623
-4.5903158
-4.554909
-4.5466941
-4.4655924
-4.4612614
-4.408448
-4.3861188
-4.3053015
-4.3002166
-4.2016767
-4.1942281
-4.0949996
-4.0699205
-4.0099895
-3.9434409
-3.8910121
-3.8197321
-3.7571634
-3.705934
-3.6240712
-3.578954
-3.4960002
-3.4282734
-3.4438581
-3.5110412
-3.5825156
-3.6400676
-3.7080973
-3.7655655
-3.8313229
-3.8930974
-3.9552231
-4.0188476
-4.0773881
-4.1094261
-4.199688
-4.2170045
-4.3064354
-4.3253942
-4.392245
-4.4325493
-4.4640531
-4.4915727
-4.5653725
-4.5770465
-4.5982594
-4.6529474
-4.6472341
-4.6471125
-4.7025314
-4.6808132
-4.6669851
-4.6647938
-4.6698624
-4.6298217
-4.5761921
-4.5341018
-4.4706181
-4.3317815
-4.3484787
-4.290394
-4.2190582
-4.1023495
-3.9132711
-3.6837546
-3.3083995
-3.3730498
-3.2359498
-2.8311874
-2.0491066
-1.6011257
-1.0307915
0.23561988
3.033942
3.890763
1.1225962
-0.83676129
-1.811691
-1.7947972
-2.7932286
-3.4168201
-3.5999446
-3.3556172
-3.6559222
-3.6655485
-3.9497025
-4.2481176
-4.2692995
-4.3657452
-4.4335017
-4.4076663
-4.5360594
-4.578729
-4.605542
-4.6710032
-4.6987125
-4.6899555
-4.7014843
-4.7184005
-4.7072008
-4.6784324
-4.6857826
-4.6528238
-4.6249677
-4.5988562
-4.5763829
-4.5175307
-4.484241
-4.4470239
-4.3986669
-4.3541667
-4.3090326
-4.2436058
-4.2007907
-4.1345073
-4.0855237
-4.0269743
-3.9660285
-3.9041356
-3.8425752
-3.7739161
-3.7208419
-3.6491028
-3.5900403
-3.5242826
-3.45767
-3.4685788
-3.5383
-3.6011483
-3.6587738
-3.7324561
-3.7830013
-3.8547739
-3.9189906
-3.974565
-4.0382335
-4.1006818
-4.1565201
-4.2091491
-4.269755
-4.3224842
-4.3613848
-4.4221595
-4.4606848
-4.5189754
-4.5315144
-4.5971637
-4.6211655
-4.6585127
-4.6730354
-4.7082469
-4.7159287
-4.7338526
-4.7396299
-4.7455334
-4.7298665
-4.7347083
-4.6919311
-4.6532487
-4.6160701
-4.6014177
-4.4693264
-4.0864816
-4.2819442
-4.2231142
-4.0230985
-3.929966
-3.9293956
-3.8008316
-3.2694332
-2.3460857
-2.0864961
-1.6029727
-0.0067615851
4.2471588
9.9314765
11.119218
10.98014
10.809175
10.854434
10.228316
9.9494995
8.0498844
8.6218506
9.4153131
8.7435129
9.4371115
9.4794426
8.6939614
10.276984
7.1429386
7.0809684
7.3904004
7.3468459
6.566967
7.3485334
7.8713225
6.2351533
6.5835581
7.7356649
5.5730093
4.6163944
3.7326344
2.5620626
-1.232319
-1.3549457
-1.4570174
-1.53538
-1.5882555
-1.615138
-1.6167221
-1.5956619
-1.5494326
-1.4828523
-1.3994646
-1.3020337
-1.1937938
-1.07822
-1.0806726
-1.1984041
-1.3087951
-1.4083582
-1.4937752
-1.5621693
-1.6103836
-1.634383
-1.6325195
-1.6057637
-1.5529771
-1.474069
-1.3706437
-1.2457784
-1.2750913
-1.4050114
-1.5116504
-1.5921377
-1.6452314
-1.6711721
-1.6701242
-1.6421511
-1.5902445
-1.5178674
-1.4280391
-1.3238928
-1.2088361
-1.0864079
-1.0959023
-1.2262326
-1.3491282
-1.4609525
-1.5582048
-1.6374896
-1.695692
-1.7295442
-1.7353635
-1.7121558
-1.6593061
-1.5764268
-1.4644361
-1.3259459
-1.4045871
-1.5552619
-1.6743062
-1.7596813
-1.8112185
-1.8297504
-1.8170116
-1.7744493
-1.7067541
-1.6172514
-1.5091326
-1.3860141
-1.2515717
-1.1095685
-1.1274934
-1.2851799
-1.4350581
-1.5732795
-1.6960452
-1.7995476
-1.8804202
-1.9349566
-1.957777
-1.9467716
-1.8987048
-1.8115851
-1.6842772
-1.5180112
-1.6725045
-1.8569722
-1.9922259
-2.0790111
-2.1205153
-2.1202723
-2.0836913
-2.0136624
-1.9162725
-1.7948858
-1.6535778
-1.4962737
-1.3269304
-1.1494055
-1.1769873
-1.3779314
-1.5697567
-1.7489649
-1.9118344
-2.0546319
-2.1719164
-2.2616827
-2.3170748
-2.3336153
-2.3043419
-2.2230571
-2.0836023
-1.8819485
-2.1498405
-2.3673678
-2.50687
-2.5776609
-2.5890752
-2.5505473
-2.4717318
-2.3587685
-2.2221747
-2.0529049
-1.8612084
-1.6551491
-1.4376849
-1.2099056
-1.2590248
-1.5161049
-1.7623454
-1.9979683
-2.2210516
-2.3987411
-2.5712481
-2.7165139
-2.828901
-2.9006608
-2.9205033
-2.8765646
-2.7550985
-2.5343022
1.2601398
0.68354306
-0.24874756
-1.1238318
-1.0229713
-1.4994287
-1.8260076
-2.1716103
-2.3585744
-2.6529404
-2.7524093
-2.9792461
-3.0082225
-3.1728399
-3.1501119
-3.2507276
-3.1928653
-3.2443405
-3.1623163
-3.1755369
-3.0768016
-3.0601185
-2.9491573
-2.9101523
-2.7921701
-2.7388866
-2.6127303
-2.6098377
-2.5163243
-2.560996
-2.6154605
-2.3700771
-2.6663663
-2.7785178
-2.9003651
-3.0284321
-3.195743
-3.2489972
-3.3291091
-3.3927315
-3.4623291
-3.5343294
-3.588898
-3.6542612
-3.7113244
-3.7686173
-3.8293
-3.8735606
-3.9412059
-3.9724967
-4.0448312
-4.0655767
-4.1392574
-4.1533431
-4.2184633
-4.2299266
-4.2837554
-4.293905
-4.3312106
-4.3484592
-4.365848
-4.3838261
-4.3780414
-4.3707397
-4.3899977
-4.3462411
-4.330436
-4.2980751
-4.258483
-4.1891169
-4.1242719
-4.0373195
-3.9474889
-3.8086987
-3.6896973
-3.5833599
-2.8100502
-2.0817084
-1.1799664
-0.039431727
1.4109563
2.5763702
2.8886969
2.7544096
2.5452659
-1.0788405
-1.0800014
-1.0820464
-1.0846917
-1.088013
-1.0917278
-1.0956832
-1.099636
-1.1034089
-1.1067933
-1.1095802
-1.1115304
-1.1123855
-1.1118626
-1.1096523
-1.1054483
-1.200554
-1.2074733
-1.2121306
-1.2148659
-1.2160155
-1.2158844
-1.2147434
-1.2128389
-1.2103862
-1.2075952
-1.2046374
-1.2017639
-1.1991149
-1.1969777
-1.1952672
-1.1943278
-1.3024358
-1.3030639
-1.304328
-1.3057866
-1.3075338
-1.3092841
-1.3109187
-1.3121882
-1.3129317
-1.3129502
-1.3120315
-1.3099319
-1.3063844
-1.301078
-1.2936683
-1.2837911
-1.3514914
-1.3645627
-1.3750389
-1.3832883
-1.3896309
-1.3943758
-1.397765
-1.4000305
-1.4013733
-1.4019785
-1.40204
-1.4017361
-1.4011616
-1.4006168
-1.399917
-1.3996844
-1.482888
-1.4826917
-1.4825545
-1.4819797
-1.4810996
-1.4796537
-1.4775805
-1.4746978
-1.4708794
-1.4659416
-1.4596873
-1.4519064
-1.4423921
-1.4307716
-1.4167631
-1.400086
-1.4255304
-1.4461963
-1.4641833
-1.4796285
-1.4928528
-1.5042549
-1.5140152
-1.5222886
-1.5292281
-1.5349271
-1.5394246
-1.5429467
-1.5455451
-1.5474296
-1.5484682
-1.5492213
-1.595086
-1.5936286
-1.5914538
-1.5879782
-1.583319
-1.5773382
-1.5699944
-1.5609479
-1.5501996
-1.537837
-1.5238424
-1.5081323
-1.4905052
-1.4711219
-1.4496831
-1.4556257
-1.4790205
-1.5003599
-1.5196941
-1.5370771
-1.5525484
-1.5661546
-1.57811
-1.5886235
-1.5974873
-1.6045818
-1.6099573
-1.6134947
-1.6157893
-1.6138497
-1.6108364
-1.6060933
-1.5990109
-1.5896775
-1.5781208
-1.5644812
-1.5488728
-1.531365
-1.5119153
-1.4905225
-1.4671953
-1.4419321
-1.380678
-1.4094198
-1.4363783
-1.4614741
-1.4846178
-1.5057263
-1.5247443
-1.5415075
-1.5558781
-1.5676208
-1.5766016
-1.5827213
-1.5865557
-1.5332557
-1.5285968
-1.5211019
-1.5102585
-1.4961843
-1.4791401
-1.4594735
-1.4374287
-1.4132152
-1.3869704
-1.3588507
-1.3290224
-1.2976417
-1.1963816
-1.2291943
-1.260805
-1.2909881
-1.3195052
-1.3461178
-1.3706047
-1.392655
-1.4119324
-1.4279902
-1.4404427
-1.4491469
-1.4545236
-1.3521446
-1.3461925
-1.3365249
-1.3228366
-1.305311
-1.2844652
-1.2608601
-1.2349275
-1.2070433
-1.1775058
-1.1466367
-1.1147257
-1.0820187
-0.95933781
-0.99059811
-1.0215013
-1.0516923
-1.0808397
-1.1086507
-1.1347895
-1.1588389
-1.1803052
-1.1985208
-1.2128496
-1.2230635
-1.2293383
-1.2424832
-1.367555
-1.4713289
-1.5506548
-1.6039005
-1.6310922
-1.6333036
-1.6097611
-1.5619372
-1.4938122
-1.4085732
-1.309213
-1.1989753
-1.0813488
-1.2356016
-1.3610346
-1.4654417
-1.5455559
-1.5996812
-1.6277424
-1.6307517
-1.608121
-1.5610543
-1.4935286
-1.4087484
-1.3098306
-1.1999382
-1.0825619
-5.3350928
-5.3207859
-5.2541751
-5.2120803
-5.2047876
-4.9228015
-4.7938765
-4.7901775
-4.7323271
-4.7026898
-4.6554953
-4.6032901
-4.5512133
-4.5003477
-4.5022748
-4.3051224
-4.1375803
-4.1668879
-4.1328647
-4.0853624
-4.0563686
-4.0276143
-3.9971107
-3.9619541
-3.9324954
-3.9013533
-3.8684866
-3.8380031
-3.8401438
-3.695248
-3.5660634
-3.5955699
-3.5810304
-3.548727
-3.5253236
-3.4989805
-3.4850555
-3.4596432
-3.4206647
-3.4117144
-3.4027023
-3.3676367
-3.3467231
-3.3325137
-3.3152654
-3.2887477
-3.2689872
-3.2535399
-3.2337535
-3.2054969
-3.1864138
-3.1766013
-3.1872278
-3.0633055
-2.9503488
-2.980415
-2.981398
-2.9674673
-2.9512873
-2.9360677
-2.9258106
-2.9067765
-2.8844987
-2.869562
-2.8670857
-2.8610177
-2.8455542
-2.8265963
-2.8093936
-2.5920508
-2.6136949
-2.6304261
-2.6448395
-2.6455004
-2.6577654
-2.6828051
-2.6923333
-2.6979484
-2.7147191
-2.7276063
-2.7382439
-2.7494041
-2.7633817
-2.7806445
-2.8025586
-2.8065907
-2.8911324
-2.8899779
-2.9165952
-2.9423598
-2.9579236
-2.9719715
-2.9911959
-3.0157657
-3.0276798
-3.0402184
-3.0598967
-3.090745
-3.0986473
-3.0890896
-3.1785603
-3.1713794
-3.2132799
-3.2429101
-3.2723831
-3.2981972
-3.3237765
-3.3423265
-3.3714424
-3.3991384
-3.4152809
-3.5285765
-3.5331936
-3.5823911
-3.6112921
-3.6492816
-3.678479
-3.7046589
-3.7144673
-3.8243177
-3.8470939
-3.8985527
-3.9229448
-3.9519682
-3.9768303
-4.1297037
-4.120241
-4.1698345
-4.2321463
-4.284947
-4.4315631
-4.4520481
-4.5677116
-4.5973252
-4.7907876
-4.7436713
-4.8623687
-4.9288425
-5.183204
-5.08291
-5.3989915
-5.3386281
-5.3997223
-5.2324682
-5.1720266
-5.1045385
-5.0242196
-4.9766751
-4.8281108
-4.6954366
-4.6453833
-4.6013781
-4.5215632
-4.4844423
-4.4410147
-4.3713578
-4.3166429
-4.2933118
-4.1579291
-4.0766719
-4.0365924
-3.9918666
-3.9441341
-3.9021855
-3.8821562
-3.8446396
-3.8115914
-3.7766962
-3.748139
-3.7160858
-3.6923409
-3.6751146
-3.5708741
-3.4816191
-3.458711
-3.4346393
-3.4045635
-3.3784261
-3.3616336
-3.3412128
-3.3204411
-3.2879064
-3.2779721
-3.2531775
-3.2163187
-3.2091254
-3.1983375
-3.1718021
-3.1538556
-3.1369406
-3.1211061
-3.1006271
-3.0878172
-3.0715441
-3.055987
-3.0441091
-2.9512566
-2.8820587
-2.8684551
-2.8516264
-2.8294827
-2.8096974
-2.7976639
-2.7845935
-2.7754285
-2.776243
-2.757942
-2.7304721
-2.7149677
-2.7002124
-2.6939745
-2.6843453
-2.6767667
-2.5648338
-2.6676823
-2.8011662
-2.9287984
-3.0619938
-3.1892683
-3.3111866
-3.4185632
-3.5260537
-3.617901
-3.7101627
-3.7827219
-3.8551568
-3.9026784
-3.9499865
-3.9601079
-3.9648494
-3.9248127
-3.8741444
-3.766566
-3.6293268
-3.4186603
-3.1484362
-2.7279042
-2.2481512
-1.5821601
-0.86721328
0.026201957
1.0603819
1.8146991
2.247798
2.2881637
1.903811
1.7234862
1.8197948
1.3930171
0.88019176
0.16775518
-0.49812904
-1.0783647
-1.3095446
-1.2678426
-1.6899978
-2.1057653
-2.4118934
-2.6897503
-2.901637
-3.0849203
-3.2206341
-3.3201464
-3.3951182
-3.4309645
-3.4511523
-3.4406497
-3.4227273
-3.3785347
-3.3332576
-3.2642601
-3.1988878
-3.1109662
-3.0310706
-2.9293621
-2.8404549
-2.7274593
-2.6666197
-2.7133521
-2.826199
-2.9522236
-3.0576169
-3.1674484
-3.2611602
-3.3580588
-3.4361602
-3.5167136
-3.5742737
-3.6335523
-3.6631185
-3.6934226
-3.6836391
-3.6700203
-3.6053768
-3.5300291
-3.3930934
-3.2257214
-2.9906924
-2.7186131
-2.3497843
-1.8894901
-1.8637838
-1.298737
-1.6634496
-2.0626938
-2.2027548
-2.368104
-2.6423883
-2.8041191
-2.857356
-3.0348529
-3.1885119
-3.1744334
-3.2706193
-3.4019948
-3.3447074
-3.3841538
-3.4831136
-3.4013889
-3.3971866
-3.4691033
-3.3745024
-3.3381458
-3.3883305
-3.2866826
-3.2265998
-3.2587455
-3.1537223
-3.0752923
-3.0921909
-2.9869053
-2.8951213
-2.8977311
-2.7961738
-2.6898905
-2.6734785
-2.6255024
-2.7062624
-2.8192522
-2.9448224
-3.0498703
-3.1602963
-3.2533685
-3.406425
-3.3027421
-3.1797119
-3.0560879
-2.9174332
-2.7913813
-2.6532153
-2.5387284
-2.4756632
-5.2577151
-5.1483231
-5.0503238
-4.8715246
-4.7810127
-4.7305625
-4.714681
-4.5428135
-4.4937284
-4.4124506
-4.3732007
-4.2874075
-4.2438084
-4.178218
-4.1631351
-4.1320342
-4.0092547
-3.9995691
-3.951372
-3.8951705
-3.8391762
-3.812011
-3.6838807
-3.6865266
-3.6545
-3.6112353
-3.5831489
-3.5556634
-3.5357218
-3.5212187
-3.3700647
-3.3775211
-3.3527485
-3.3373519
-3.3128116
-3.2895651
-3.2623419
-3.2419996
-3.2231385
-3.2041985
-3.1897709
-3.0876612
-3.1080679
-3.0603583
-3.0064454
-3.0016915
-2.9996108
-2.9701644
-2.9488473
-2.9405531
-2.9347319
-2.9134387
-2.8974209
-2.8885501
-2.8864203
-2.7530298
-2.7620928
-2.7449905
-2.7316312
-2.7235735
-2.709185
-2.6921107
-2.6695169
-2.6509389
-2.6294815
-2.6291765
-2.6361952
-2.6450021
-2.6267892
-2.5909933
-2.5792706
-2.5724422
-2.491929
-2.4969461
-2.5069214
-2.4200377
-2.353468
-2.3790713
-2.4192446
-2.5071445
-2.507267
-2.433721
-2.3957484
-2.3957371
-2.4595054
-2.511882
-2.5318783
-2.4846588
-2.3863422
-2.3013388
-2.2469874
-2.137983
-2.054185
-2.0738901
-2.1358674
-2.2575626
-2.3233839
-2.383402
-2.4956907
-2.5563404
-2.5734505
-2.4923568
-2.4028459
-2.3363084
-2.2600368
-2.1525068
-2.0830036
-1.9992903
-1.8907515
-1.8119937
-1.720037
-1.5761131
-1.7229674
-1.8163753
-1.9058553
-2.0044174
-2.0891299
-2.1695623
-2.2644349
-2.344016
-2.4218746
-2.4975892
-2.5822947
-2.5894904
-2.5108307
-2.4401698
-2.349855
-2.2758499
-2.1858689
-2.0944509
-2.0142458
-1.9202658
-1.8215693
-1.7330503
-1.5988754
-1.7399702
-1.8285366
-1.9318983
-2.0228091
-2.102736
-2.1984289
-2.2859837
-2.3601852
-2.4531542
-2.5219174
-2.6011282
-2.6157011
-2.5367314
-2.4638732
-2.3730089
-2.2978318
-2.2092752
-2.1143591
-2.0313657
-1.9425599
-1.8395691
-1.7486891
-1.6174341
-1.7567854
-1.8480859
-1.9517952
-2.0420895
-2.124189
-2.218161
-2.3121482
-2.3831087
-2.4725448
-2.5545909
-2.6284645
-2.6478591
-2.5711429
-2.4841797
-2.3979666
-2.3255359
-2.2282895
-2.1365211
-2.0540819
-1.9611769
-1.859612
-1.7686506
-1.6368582
-1.7758648
-1.8703685
-1.9722292
-2.0622622
-2.1485975
-2.2407503
-2.3342754
-2.4105229
-2.4989733
-2.5839598
-2.6653315
-2.6793204
-2.603439
-2.5139817
-2.4211209
-2.3460745
-2.2556764
-2.1590499
-2.0715037
-1.9862874
-1.8804463
-1.7850355
-1.6570092
-1.7942105
-1.8894898
-1.9977952
-2.0821065
-2.1697113
-2.2672869
-2.3575344
-2.4341471
-2.5240243
-2.617457
-2.6925035
-2.7612843
-2.777426
-2.7073752
-2.6304674
-2.5401882
-2.4493287
-2.3683245
-2.2804906
-2.1841636
-2.0921885
-2.0093313
-1.9032194
-1.804477
-1.6768496
-1.8123089
-1.9135296
-2.0223364
-2.100948
-2.1957694
-2.2947066
-2.3792773
-2.460478
-2.5540326
-2.645187
-2.720692
-2.7866167
-2.7997642
-2.7401609
-2.658744
-2.5667323
-2.4757474
-2.3924171
-2.3080173
-2.2077474
-2.1135959
-2.0337496
-1.9246144
-1.8236618
-1.6945314
-1.8317309
-1.9377715
-2.0420149
-2.1238419
-2.2232732
-2.3189048
-2.4013906
-2.4932806
-2.5802761
-2.6661827
-2.7558652
-2.8190429
-2.8456657
-2.769193
-2.6814853
-2.5945887
-2.5121492
-2.4134131
-2.3317395
-2.2411127
-2.1343279
-2.0523018
-1.9538273
-1.8403585
-1.7078991
-1.8523728
-1.9656839
-2.0615493
-2.1496337
-2.2550702
-2.3427508
-2.4286243
-2.5249649
-2.6082118
-2.696669
-2.7821354
-2.8606264
-2.8721026
-2.8012968
-2.7107945
-2.6285504
-2.5358942
-2.4452891
-2.3560588
-2.2705413
-2.1672963
-2.0708235
-1.9798182
-1.8603142
-1.7160643
-1.8035579
-1.9280806
-2.0116942
-2.0049601
-2.0212813
-2.0571494
-2.072971
-2.070247
-2.0938985
-2.1184332
-2.1382933
-2.1527035
-2.1633757
-2.1723285
-2.1872544
-2.2015634
-2.2222889
-2.2402538
-2.2516341
-2.2662339
-2.2822389
-2.298103
-2.3198736
-2.3350333
-2.3507583
-2.3697234
-2.3687921
-2.3682001
-2.4037744
-2.4358565
-2.4516156
-2.4172605
-2.3854021
-2.341483
-2.3532629
-2.3632497
-2.3792308
-2.3660884
-2.329065
-2.2915843
-2.2784034
-2.2606955
-2.2428117
-2.2321419
-2.2218656
-2.1969832
-2.1952064
-2.1881739
-2.144541
-2.1236194
-2.1331545
-2.12185
-2.100646
-2.0788778
-2.070086
-2.0681176
-2.0523439
-2.0462873
-2.0545137
-2.0382054
-2.0248738
-1.9404725
-1.7953374
-1.7159737
-1.79109
-1.9205259
-1.9121125
-1.8040731
-1.7237187
-1.8279197
-1.9553209
-1.9648403
-1.8373325
-1.7404156
-1.8428251
-1.9522536
-1.9775796
-1.8568508
-1.7661749
-1.8615357
-1.992073
-1.9994619
-1.8827666
-1.7874631
-1.8997667
-2.0006278
-2.0148778
-1.9210947
-1.8089702
-1.9371023
-2.0290458
-2.0356995
-1.9497875
-1.8418554
-1.9357057
-2.0380236
-2.0738708
-1.9523793
-1.8688439
-1.9714476
-2.098187
-2.1041269
-1.9950581
-1.8927538
-2.0046153
-2.1247332
-2.1494932
-2.0208977
-1.9204918
-2.0324529
-2.160149
-2.1740639
-2.0581282
-1.9483615
-2.0752365
-2.1859981
-2.1998053
-2.097599
-1.9890169
-2.0997076
-2.2039026
-2.2130143
-2.1184307
-2.0264316
-2.1382896
-2.2372372
-2.2541015
-2.2032888
-2.0823168
-2.1951799
-2.2517066
-2.2827867
-2.3352071
-2.5466168
-2.6605111
-2.792572
-2.886971
-3.0414254
-3.154859
-3.2493904
-3.389013
-3.5266148
-3.6357234
-3.7596388
-3.8917428
-4.0213283
-4.1316668
-4.1022311
-4.0759202
-4.0386522
-3.9151604
-3.8410128
-3.7909382
-3.7654383
-3.7334635
-3.7068519
-3.6035777
-3.5693961
-3.5306658
-3.4946577
-3.4649043
-3.4399474
-3.4125208
-3.3901295
-3.3047586
-3.2794426
-3.2550429
-3.2224344
-3.1968971
-3.1713679
-3.1493339
-3.1286604
-3.1116832
-3.0920192
-3.0906956
-2.9674139
-2.9408537
-2.9326628
-2.9125859
-2.9102122
-2.8957435
-2.8164474
-2.7285867
-2.6438444
-2.5425294
-2.4695571
-2.3662758
-2.2818474
-2.1941359
-2.0922358
-2.1113682
-2.2310054
-2.2882596
-2.3768059
-2.505172
-2.5463395
-2.6580472
-2.7523537
-2.8418442
-2.8537743
-2.7808218
-2.6595354
-2.5764051
-2.5151013
-2.383625
-2.3201016
-2.2416724
-2.1242678
-2.1430884
-2.2459047
-2.3527221
-2.3998759
-2.5069022
-2.6210171
-2.6700099
-2.7917954
-2.8694536
-2.9085265
-2.7897848
-2.6907649
-2.6437132
-2.5069891
-2.4274103
-2.3544908
-2.2686663
-2.167099
-2.1809768
-2.2831526
-2.3650415
-2.4485979
-2.5314979
-2.6449713
-2.7186006
-2.8107929
-2.9230002
-2.9255044
-3.0002777
-3.0225481
-2.9445207
-2.8505999
-2.8317173
-2.7465252
-2.6424474
-2.558186
-2.4637861
-2.3788704
-2.2903372
-2.1920435
-2.205503
-2.303982
-2.3947765
-2.4808071
-2.5721623
-2.6615964
-2.7649239
-2.7794945
-2.8710644
-2.9604401
-3.0409926
-3.0656852
-2.9824009
-2.8942976
-2.7959807
-2.6959866
-2.6785278
-2.5859332
-2.4973129
-2.4122858
-2.3139002
-2.2195143
-2.2381814
-2.326908
-2.4277892
-2.5164648
-2.60499
-2.6253105
-2.7134763
-2.8124083
-2.9120399
-3.0016259
-3.0875923
-3.1099548
-3.0246763
-2.93306
-2.8292665
-2.7360558
-2.6444105
-2.5464912
-2.5316063
-2.4405888
-2.3421038
-2.254159
-2.2693083
-2.3590362
-2.4576729
-2.4800528
-2.5619712
-2.6594656
-2.7552191
-2.8471338
-2.9510382
-3.0462967
-3.1325729
-3.1593387
-3.0697157
-2.9715729
-2.8728445
-2.7716639
-2.6781233
-2.5815997
-2.5042982
-2.3811802
-2.3669367
-2.2943843
-2.303297
-2.2968956
-2.4042458
-2.5185782
-2.6032616
-2.6961562
-2.7878648
-2.8933519
-2.9902596
-3.0933923
-3.1856727
-3.2104202
-3.1186189
-3.0100026
-2.9128243
-2.8083839
-2.7177009
-2.622896
-2.5294997
-2.4221163
-2.31914
-2.3429801
-2.4390575
-2.5415773
-2.6376151
-2.7364397
-2.8317071
-2.929209
-3.0300489
-3.1400741
-3.2310876
-3.3271915
-3.3569555
-3.2581718
-3.1643809
-3.0532152
-2.949759
-2.8557837
-2.7540801
-2.6555889
-2.5580277
-2.4606573
-2.3595985
-2.3768229
-2.4772557
-2.577578
-2.6743593
-2.7716412
-2.8734168
-2.9745179
-3.0742055
-3.1849885
-3.2837987
-3.3865347
-3.4165008
-3.3126439
-3.2091395
-3.0989636
-2.998802
-2.8923794
-2.7911985
-2.6968467
-2.5970926
-2.491819
-2.3935465
-2.4126099
-2.5072988
-2.6127077
-2.717207
-2.8124191
-2.9131691
-3.01891
-3.1219104
-3.2322856
-3.3391483
-3.4429026
-3.4742604
-3.3665655
-3.2584274
-3.147882
-3.0437105
-2.9358871
-2.8347431
-2.7351279
-2.6311516
-2.5245851
-2.4330951
-2.4498885
-2.5419731
-2.6520504
-2.7534426
-2.8558457
-2.9553309
-3.0687925
-3.1713797
-3.286496
-3.3916453
-3.5035248
-3.5388757
-3.6327432
-3.6609683
-3.5689233
-3.4338727
-3.4090398
-3.3289633
-3.1817161
-3.1097155
-2.9684751
-2.8805165
-2.7750599
-2.6600555
-2.5748047
-2.4623969
-2.4761186
-2.6015795
-2.6706463
-2.7926656
-2.9057886
-2.9872688
-3.1433278
-3.1997857
-3.3594923
-3.3699776
-3.4843279
-3.5870281
-3.7104081
-3.7328237
-3.6097062
-3.5399699
-3.3832639
-3.2820277
-3.2377765
-3.1593972
-3.0059824
-2.9418341
-2.7973527
-2.7031594
-2.6124257
-2.4837382
-2.4921313
-2.62711
-2.731622
-2.8106379
-2.9590137
-3.0362848
-3.1680347
-3.1746283
-3.3308233
-3.3958308
-3.590923
-3.6283102
-3.741658
-3.7926345
-3.9489918
-3.9706753
-3.8468492
-3.7211846
-3.6636959
-3.6128535
-3.429994
-3.3560223
-3.2001048
-3.1029425
-3.0767932
-2.963029
-2.8281001
-2.7478751
-2.6397846
-2.5156431
-2.5182753
-2.6458701
-2.7603486
-2.8471401
-2.9860451
-3.0085285
-3.1245291
-3.2322154
-3.3629909
-3.4789753
-3.6133246
-3.5173358
-3.4972909
-3.4707099
-3.4358336
-3.3981754
-3.3637546
-3.3383933
-3.3145036
-3.2898169
-3.2634294
-3.2397168
-3.2135951
-3.1899093
-3.1646932
-3.1445417
-3.1216343
-3.0990745
-3.074767
-3.0549487
-3.0332075
-3.0133558
-2.991404
-2.9741681
-2.9541794
-2.9336163
-2.9138904
-2.9032695
-2.8843021
-2.8708489
-2.8553484
-2.8393103
-2.8238651
-2.8088551
-2.7896786
-2.7751354
-2.7605758
-2.7490281
-2.7350858
-2.7236302
-2.7199211
-2.7063602
-2.689708
-2.6783797
-2.6653156
-2.6524632
-2.6374912
-2.6240821
-2.6080485
-2.600729
-2.5942974
-2.5860068
-2.5734853
-2.5605475
-2.549155
-2.5466407
-2.5220365
-2.4457104
-2.0238
-1.8777745
-1.759758
-1.6606399
-1.5782934
-1.5124258
-1.4627503
-1.428706
-1.3246615
-1.2096919
-1.0873068
-1.1075997
-1.102848
-1.0984283
-1.0944422
-1.0912125
-1.0886591
-1.2108053
-1.2130746
-1.2018359
-1.0847938
-1.0876464
-1.2041916
-1.2158541
-1.2192443
-1.2070681
-1.0911723
-1.0950856
-1.2101705
-1.2229081
-1.2267583
-1.2133866
-1.0992635
-1.1034742
-1.4290273
-1.4443228
-1.4617281
-1.4789007
-1.4954064
-1.5105011
-1.5266967
-1.5405023
-1.5480204
-1.5614718
-1.5832508
-1.6010295
-1.624732
-1.6471852
-1.6749936
-1.6989113
-1.7211552
-1.748886
-1.7710258
-1.8030228
-1.835183
-1.8801762
-1.926408
-2.1287163
-2.1696728
-2.3682347
-2.5705637
-2.7005015
-2.8280171
-2.9375123
-3.0745713
-3.2003003
-3.2987833
-3.4618956
-3.588716
-3.6847693
-3.8492921
-3.9555682
-4.116667
-4.2308006
-4.3646733
-4.3269885
-4.1734114
-4.0798552
-3.9207498
-3.798566
-3.6560632
-3.5592181
-3.4309612
-3.2617281
-3.1796407
-3.059138
-2.9059608
-2.8106562
-2.6772339
-2.5622929
-2.4938247
-2.4804558
-2.4641246
-2.5332141
-2.6522588
-2.7715758
-2.8719914
-2.7974151
-2.7783861
-2.7588864
-2.7416982
-2.7241588
-2.7088814
-2.6906021
-2.6707416
-2.6520655
-2.6334689
-2.6153618
-2.5961931
-2.5786203
-2.5607121
-2.5449407
-2.5270391
-2.5095158
-2.4915119
-2.4764954
-2.4605833
-2.4455669
-2.4286815
-2.4141115
-2.3985692
-2.3837983
-2.3666307
-2.3505599
-2.3363132
-2.324979
-2.3109175
-2.2986383
-2.2852563
-2.2733203
-2.2604575
-2.2495538
-2.23714
-2.2253389
-2.21307
-2.2022843
-2.1901214
-2.1793371
-2.1682877
-2.1586348
-2.1480747
-2.1375328
-2.1254101
-2.1144445
-2.1036753
-2.0978764
-1.5334027
-1.4485076
-1.3848477
-1.3316449
-1.2885538
-1.2539399
-1.227739
-1.0972382
-1.1114673
-1.1300673
-1.1529408
-1.156579
-1.1329873
-1.1137169
-1.0989524
-1.229317
-1.2562281
-1.2601904
-1.2322887
-1.1020898
-1.1176685
-1.1380344
-1.2970473
-1.2917495
-1.3358379
-1.3427725
-1.1629674
-1.1704082
-1.144035
-1.1224565
-1.1059722
-1.2358083
-1.2647487
-1.2703236
-1.2400952
-1.1107555
-1.1283798
-1.1515102
-1.3103516
-1.3030081
-1.350411
-1.3599112
-1.1797592
-1.1902011
-1.1598459
-1.1349649
-1.1160588
-1.2447431
-1.2764027
-1.2829928
-1.2497043
-1.1218133
-1.1421836
-1.1690648
-1.327256
-1.3184101
-1.370376
-1.3819631
-1.2018282
-1.214199
-1.178806
-1.1497347
-1.1277571
-1.1124416
-1.230541
-1.2164724
-1.2192529
-1.1075411
-1.1171981
-1.2340811
-1.3415167
-1.339599
-1.3372526
-1.3346495
-1.3320343
-1.3294657
-1.327311
-1.3254484
-1.4289975
-1.4303628
-1.4096483
-1.311278
-1.3129679
-1.4104091
-1.4316242
-1.4330896
-1.4112574
-1.3149715
-1.3169769
-1.4118393
-1.434319
-1.4352921
-1.4120801
-1.3188977
-1.320496
-1.4118187
-1.4357872
-1.4356251
-1.4108547
-1.3215993
-1.3220005
-1.2215125
-1.1112482
-1.1553253
-1.1549619
-1.1528094
-1.1492846
-1.1447305
-1.1394503
-1.1337152
-1.2595634
-1.2547024
-1.2897739
-1.2965791
-1.1574481
-1.1889077
-1.3459892
-1.3365011
-1.3941899
-1.4069427
-1.2271799
-1.2404985
-1.1990974
-1.1650721
-1.3031534
-1.264046
-1.2371502
-1.1216454
-1.1255607
-1.1143788
-1.2230295
-1.2395239
-1.3431696
-1.3427798
-1.4346204
-1.4089793
-1.4059941
-1.3214827
-1.3197982
-1.2235511
-1.1166862
-1.1286874
-1.2409403
-1.2411055
-1.2227991
-1.1179038
-1.1307433
-1.1314172
-1.1177398
-1.2204603
-1.2396885
-1.2362949
-1.2161801
-1.1158683
-1.1303479
-1.1271708
-1.1119651
-1.3012964
-1.2913856
-1.2797672
-1.2671288
-1.2539198
-1.2091299
-1.1723675
-1.3092593
-1.2679178
-1.3805769
-1.3785916
-1.3758201
-1.3724876
-1.3688327
-1.3650175
-1.3613287
-1.357785
-1.3548226
-1.3521491
-1.3507745
-1.3888399
-1.4392388
-1.502151
-1.5068309
-1.4426661
-1.3911149
-1.5144635
-1.4636765
-1.4659616
-1.518053
-1.3949494
-1.4480842
-1.5871242
-1.5817311
-1.6654863
-1.6731864
-1.5142026
-1.5218234
-1.4537798
-1.3990608
-1.5214733
-1.4681475
-1.4706467
-1.5254981
-1.404028
-1.460726
-1.5984479
-1.5922622
-1.6805042
-1.6894651
-1.531225
-1.5413933
-1.4681797
-1.4092877
-1.5295382
-1.4730012
-1.4752429
-1.5336661
-1.4148818
-1.4762659
-1.6116752
-1.6048618
-1.6989127
-1.7091493
-1.5525583
-1.5642017
-1.4845733
-1.4204751
-1.5375453
-1.4770881
-1.4783833
-1.5410327
-1.4259102
-1.492953
-1.6250826
-1.6184621
-1.7196253
-1.7302462
-1.576227
-1.588377
-1.501129
-1.4309359
-1.5438871
-1.4789076
-1.4784463
-1.4325457
-1.5040117
-1.5090689
-1.5128521
-1.5155483
-1.5173322
-1.5183257
-1.5188562
-1.5189206
-1.5188207
-1.5181912
-1.5184111
-1.5905603
-1.6421125
-1.6697083
-1.6672672
-1.6406478
-1.5898092
-1.5893649
-1.5601238
-1.4935717
-1.4931829
-1.5583899
-1.5880866
-1.5862835
-1.5560434
-1.4925248
-1.4913916
-1.5528195
-1.5836937
-1.5802271
-1.548659
-1.489659
-1.4871343
-1.5433985
-1.575674
-1.569892
-1.5368838
-1.4836706
-1.4790869
-1.528985
-1.5627339
-1.5540613
-1.5195654
-1.4731951
-1.4657892
-1.4016681
-1.4291689
-1.3424321
-1.3402739
-1.3166709
-1.3957448
-1.4242119
-1.4173694
-1.3879232
-1.3117857
-1.3363643
-1.3302941
-1.3047759
-1.3778465
-1.4082313
-1.4662721
-1.4789402
-1.4892007
-1.4974723
-1.5437123
-1.5084727
-1.4955204
-1.4566408
-1.4454503
-1.4804354
-1.517182
-1.531489
-1.5472645
-1.5640943
-1.5789484
-1.5919352
-1.6031462
-1.612647
-1.6205487
-1.6269831
-1.6321578
-1.6360643
-1.6389658
-1.6060071
-1.6272114
-1.6641881
-1.7273132
-1.7294192
-1.7310724
-1.6974739
-1.6393818
-1.5600836
-1.6209477
-1.7108262
-1.7788564
-1.8215417
-1.9431006
-1.8880333
-1.8062446
-1.7018655
-1.8032584
-1.9263498
-2.0258465
-2.0972498
-2.101346
-1.9447838
-1.8212264
-1.7793524
-1.6966828
-1.639214
-1.56048