/*--------------------------------*- C++ -*----------------------------------*\
| =========                 |                                                 |
| \\      /  F ield         | OpenFOAM: The Open Source CFD Toolbox           |
|  \\    /   O peration     | Version:  v2012                                 |
|   \\  /    A nd           | Website:  www.openfoam.com                      |
|    \\/     M anipulation  |                                                 |
\*---------------------------------------------------------------------------*/
FoamFile
{
    version     2.0;
    format      ascii;
    class       surfaceScalarField;
    location    "158";
    object      phi;
}
// * * * * * * * * * * * * * * * * * * * * * * * * * * * * * * * * * * * * * //

dimensions      [0 3 -1 0 0 0 0];
oriented        oriented;


internalField   nonuniform List<scalar> 
43855
(
0.004026446
0.00189498
0.0019162108
0.0016734353
0.0015959952
0.00075701558
0.00114871
0.00026663327
0.00025809201
0.00046715704
0.00038110682
0.00030044615
0.00029876458
5.6906298e-05
0.00011148616
0.00028603757
1.542437e-05
-2.6973626e-06
0.00048312961
-1.0539276e-05
-0.00018655276
0.00043999408
2.1471391e-07
4.2920815e-05
0.00042392039
1.4917699e-05
1.1559873e-06
0.00065164461
-5.0723802e-06
-0.00022265184
0.00059802008
3.2402715e-06
5.0384267e-05
0.00051863438
-1.684062e-05
9.6226314e-05
0.0004971566
2.2526168e-05
-1.0483805e-06
0.00075559818
2.1288694e-05
-0.00027973028
0.00079751964
-3.6789814e-05
-5.1316474e-06
0.00077411304
-3.15721e-05
5.4978702e-05
0.00073632119
-1.130151e-05
4.9093361e-05
0.0006441649
-4.6106674e-07
9.2617352e-05
0.00055363569
-5.3595006e-06
9.588872e-05
0.00052662751
2.9359856e-05
-2.3516818e-06
0.00075890549
2.6986019e-05
-0.000259264
0.00078409754
-3.4340723e-05
9.148681e-06
0.0007891529
-3.3425913e-05
2.8370544e-05
0.00078161
-1.2864725e-05
2.0407633e-05
0.00077142673
-6.8801681e-06
1.7063437e-05
0.00076120647
-4.0516166e-06
1.4271876e-05
0.0007521909
-2.7131615e-06
1.1728732e-05
0.0007440672
-2.1563128e-06
1.0280013e-05
0.0007378652
-2.1194172e-06
8.3214185e-06
0.00073221298
-1.817718e-06
7.4699361e-06
0.00072701648
-1.6962767e-06
6.8927795e-06
0.00072322727
-1.7875178e-06
5.5767241e-06
0.0007199718
-1.4979798e-06
4.7534521e-06
0.00071692616
-1.4169357e-06
4.4625735e-06
0.00071533875
-1.4109273e-06
2.9983386e-06
0.00071337223
-1.0804313e-06
3.0469506e-06
0.00071284665
-1.2906188e-06
1.8161928e-06
0.00071249478
-1.0603162e-06
1.4121866e-06
0.00071263067
-1.0772917e-06
9.4140671e-07
0.00071364565
-1.075587e-06
6.0601073e-08
0.00071468641
-9.3477374e-07
-1.0598401e-07
0.00071698033
-1.014605e-06
-1.2793156e-06
0.00071888077
-8.3140633e-07
-1.0690298e-06
0.00072209063
-9.3239658e-07
-2.2774686e-06
0.00072499185
-7.9356631e-07
-2.1076509e-06
0.00072912617
-9.0668534e-07
-3.227637e-06
0.00073294274
-7.4529106e-07
-3.0712706e-06
0.00073768087
-8.7777524e-07
-3.8603581e-06
0.00074244673
-6.4773405e-07
-4.1181228e-06
0.00074769225
-7.0886938e-07
-4.5366514e-06
0.0007532472
-4.8454469e-07
-5.0704125e-06
0.0007585936
-3.6805844e-07
-4.9783402e-06
0.00076494412
-5.0263165e-07
-5.8478819e-06
0.00077025763
-9.4095955e-08
-5.2194175e-06
0.000776918
-6.3286872e-07
-6.0275006e-06
0.00078275237
-2.6244311e-07
-5.5719299e-06
0.0007904244
-1.2683024e-06
-6.4037238e-06
0.00079525572
8.5763704e-06
-1.3407696e-05
0.00088026719
-7.5432706e-05
-9.5787589e-06
0.0013422366
-0.00019158724
-0.00027038218
0.002254291
-0.00032302453
-0.00058902985
0.0024694549
-5.9943762e-05
-0.00015522011
0.0023429959
0.00010134746
2.5111556e-05
0.00040985839
0.00032286058
0.0034060354
0.00075251609
0.0037419299
0.0026544053
-0.0003875709
0.0024035453
0.00025890513
0.0011311559
0.00092962367
0.00027880061
0.0011009042
9.5352784e-05
0.00012761718
0.00073995644
0.00023333053
0.00041317332
9.555068e-05
0.00010007923
0.00033010289
-1.70088e-05
-0.00022006736
0.00034377288
-2.3626288e-05
0.00036188574
0.00015800335
0.00078104145
0.00070324097
0.00019552438
0.0010856242
-5.2748765e-05
0.00016121786
0.00025750584
0.00041506652
2.3378638e-05
0.00024802303
0.00037909054
9.4522013e-05
0.00024536345
-0.0007132234
0.00039671658
0.00044107846
0.00018041314
-0.00091294269
0.0003859731
-2.7836822e-05
0.00026281507
0.00021627732
-1.0177104e-05
-4.1822971e-05
0.00018417183
1.0227458e-05
-2.6760058e-05
0.0002172162
1.3084331e-05
-2.7106668e-05
0.00023115239
1.7217246e-05
1.8149766e-05
0.00010670355
9.2578755e-06
0.00018139149
-4.2768645e-06
-0.00015896486
1.6164818e-05
0.00014198856
-2.3180457e-05
4.6418571e-05
-0.00047138342
-2.9112741e-06
0.0003979153
9.2544209e-05
-0.00030873449
9.2701691e-05
-0.00025535062
9.3190163e-06
2.571937e-05
0.0003097095
8.6618712e-05
0.0002754134
4.6809194e-05
0.00046622146
2.4661834e-07
-0.00020159396
0.00046922971
-1.0585387e-06
-1.734997e-06
0.00041673173
1.8602737e-05
4.8812946e-05
0.00065582556
1.3078436e-05
-0.00025724465
0.0006654901
-5.6880926e-05
5.0456664e-05
0.00055444097
1.1800229e-05
8.2408275e-05
0.00052659322
-1.6262159e-05
6.6636085e-05
0.00066829454
0.00021316609
-0.00033357872
0.00084448046
-0.0002751999
6.2224167e-05
0.00080215971
8.9418632e-07
9.8544659e-06
0.00075154482
-1.3203831e-05
5.2517207e-05
0.00066650202
2.313407e-06
8.2268327e-05
0.00054856221
4.065854e-05
7.1921767e-05
0.00052441908
-7.2731288e-06
6.0776115e-05
0.00066713458
0.00020502849
-0.00032075796
0.00085293813
-0.00027936809
5.9223819e-05
0.00084032275
-7.8886802e-06
-1.2921849e-05
0.0008275937
-1.8624443e-05
1.8488766e-05
0.00081288045
-1.2849977e-05
2.0683062e-05
0.00079814237
-7.7906889e-06
1.8477154e-05
0.00078458607
-5.1554425e-06
1.5998572e-05
0.00077213734
-3.9203282e-06
1.4212755e-05
0.00076162746
-3.6626818e-06
1.2053139e-05
0.00075291949
-3.5346501e-06
1.0424899e-05
0.00074498494
-3.2422437e-06
9.4805237e-06
0.00073824818
-3.0268362e-06
7.9760797e-06
0.00073314748
-2.8317081e-06
6.4344264e-06
0.00072858764
-2.6138313e-06
5.7567363e-06
0.00072521025
-2.3044377e-06
4.2709019e-06
0.00072270501
-2.1479756e-06
3.5727792e-06
0.00072128686
-2.132403e-06
2.2599372e-06
0.00072086075
-1.7790818e-06
1.1448763e-06
0.00072081209
-1.7267297e-06
6.9809382e-07
0.00072200086
-1.7487778e-06
-5.155812e-07
0.00072364258
-1.4978001e-06
-1.0786923e-06
0.0007266322
-1.5099616e-06
-2.4942613e-06
0.00072961311
-1.327359e-06
-2.4849534e-06
0.00073390078
-1.3164067e-06
-3.903663e-06
0.00073838077
-1.2096463e-06
-4.0639156e-06
0.0007441012
-1.2062439e-06
-5.4208681e-06
0.00074985625
-1.0820603e-06
-5.4182765e-06
0.00075638192
-1.1347518e-06
-6.2686996e-06
0.00076361537
-8.806069e-07
-7.0005751e-06
0.00077114027
-8.2611016e-07
-7.4076569e-06
0.00077949015
-7.1306419e-07
-8.1213613e-06
0.00078784561
-5.1539624e-07
-8.2081186e-06
0.00079698013
-6.922067e-07
-8.9449444e-06
0.00080646533
-6.5237514e-07
-8.9269232e-06
0.00081600263
-1.2605852e-06
-8.9095819e-06
0.000825446
-2.1075212e-06
-7.5982921e-06
0.00083422424
-8.6619651e-06
-1.3845766e-06
0.00085253244
-4.6674877e-05
3.6943039e-05
0.00065996822
0.00013296743
-1.5835913e-05
-0.00028320953
0.00022487263
0.00037807863
0.0003402265
-0.00028814787
9.952197e-05
3.8383792e-05
-6.4548408e-05
0.00024375366
-0.00080942115
0.00034206803
-2.2553712e-05
0.00038769796
-0.00085872409
0.00042903144
-8.0855328e-06
0.00042754616
-0.00089642935
0.00045441501
6.8359856e-07
0.00043716552
-0.00090792178
0.00046198713
8.3994251e-06
0.00043355746
-0.00090090799
0.0004596347
1.9911486e-05
0.00042195959
-0.00088463382
0.00045116218
4.3787303e-05
0.00040248773
-0.0008635901
0.00043722655
0.00011702798
0.00036634744
-0.00085559859
0.00041601048
0.00043001086
0.00024228328
-0.00093968405
0.00038441789
7.0930443e-06
9.1781695e-05
-6.5567134e-05
0.00039670325
-2.3664266e-05
0.00030528951
-3.2248927e-05
-1.1862671e-05
0.00041486159
-6.031575e-05
-5.4357671e-06
0.00046295278
-6.6891948e-05
-2.6582252e-06
0.00048902812
-6.9846075e-05
-5.271777e-07
0.00050319582
-7.1769411e-05
2.2965931e-06
0.000506749
-7.2407253e-05
6.1973316e-06
0.00049438769
-7.0742271e-05
2.8925015e-06
0.00045529868
-6.4295894e-05
0.00039160155
-4.5433422e-05
2.4971076e-05
0.00037536948
-6.7929953e-06
-1.9460128e-06
3.2826778e-05
0.00022499831
-7.9813894e-06
0.00034359621
-0.00012427804
0.00094215533
3.6616497e-05
-0.00041017731
-0.00096325852
-0.00013724596
0.002586773
-0.0008671377
-8.5478445e-06
-0.00054272469
-0.00044053951
-1.6424459e-06
0.0010219803
-0.00058834618
-5.7394592e-06
1.3705638e-05
0.00047476781
-3.2904937e-06
1.7170912e-05
0.0011027766
-6.2994423e-06
-0.00062335176
0.0029448074
-4.5070576e-05
-0.00091222595
4.7318101e-05
0.0031304845
-1.5994209e-05
-0.00021700095
0.0027613149
-0.00018716756
0.002739802
9.3382062e-05
2.9478296e-05
0.00022982664
0.00060256992
-1.0245369e-05
0.00066874203
0.00078045555
-0.0014493351
-1.4841104e-05
0.00066889555
0.00077970785
-0.0014440077
-9.8775632e-06
0.00066955879
-0.00145327
0.00077874768
-1.2444899e-05
0.0006703232
-0.001446864
0.00077910818
-8.0067727e-06
0.00067180943
-0.001455732
0.00077948442
-1.1778896e-05
0.00067263101
-0.0014489482
0.00078008933
-8.3659325e-06
0.00067300324
-0.0014565581
0.00078014191
-1.3615469e-05
0.00067220507
-0.0014466694
0.00077971388
-1.0309594e-05
0.00067104708
-0.0014526357
0.0007782827
-1.7041922e-05
0.00066801391
-0.0014363013
0.00077501974
-1.5984365e-05
0.00066408595
-0.0014355867
0.00077044324
-3.2602471e-05
0.00065779414
-0.0014033131
0.00076213707
-0.00010816252
0.0006640694
-0.0013437756
0.0007552662
-0.00053760327
0.00074924607
-0.0011454806
0.0008256753
-0.00055473298
0.00029324808
-0.000446526
0.00017040763
-0.00060041078
9.432518e-05
-0.00012220563
7.3558243e-05
-0.00010385135
0.00038365332
-0.0014956519
0.00061543913
-5.3338323e-05
0.00057233682
-0.001346543
0.00072369315
-2.2712216e-05
0.00062738349
-0.0014120835
0.00075407389
-2.3107926e-05
0.0006484235
-0.0014139205
0.00076589275
-1.3997884e-05
0.00065747243
-0.0014378707
0.00077128819
-1.7185054e-05
0.00066182775
-0.0014341654
0.00077552477
-1.1152156e-05
0.0006647055
-0.0014482068
0.00077746835
-1.5184895e-05
0.00066625565
-0.0014418133
0.00077959038
-1.0241718e-05
0.00066756096
-0.0014529601
0.00078045592
-1.4691176e-05
0.00066827568
-0.0014452579
0.00078143173
-9.5915808e-06
0.00066917943
-0.0014561747
0.00078189567
-1.3521012e-05
0.0006699106
-0.0014490313
0.00078305013
-9.3006793e-06
0.00067161573
-0.0014609118
0.00078507576
-1.7895164e-05
0.00067410401
-0.0014539408
0.00078843132
-1.6361319e-05
0.00067495047
-0.0014664602
0.00078997589
-2.8077127e-05
0.00067394952
-0.0014515568
0.0007893231
-2.1874382e-05
0.00067334196
-0.0014660079
0.0007864632
-3.1416418e-05
0.00067007044
-0.0014429813
0.00078245293
-2.4712494e-05
0.00066757496
-0.0014522514
0.00077797257
-4.4412217e-05
0.0006623218
-0.0014134515
0.00077082945
-0.00011709658
0.00066975014
0.00076451248
-0.0013615783
-0.00055082821
0.00075439927
-0.0011547505
0.00083408288
-0.00056591153
0.00028994632
-0.00044125519
0.00016639219
-0.00061795428
9.2949081e-05
-0.00011167747
7.0771138e-05
-0.00011105899
0.00039048049
0.00062724944
-0.0015246252
-6.3055696e-05
0.00058273247
0.00073827357
-0.0013690093
-2.8842041e-05
0.00063915098
0.00077009978
-0.0014434644
-3.4074357e-05
0.00066066148
0.00078229063
-0.0014377198
-2.1611375e-05
0.00066991523
0.00078759919
-0.0014699774
-2.9255359e-05
0.00067308298
0.00079064498
-0.001456084
-1.8977079e-05
0.00067458073
0.00079131086
-0.0014761699
-2.8210511e-05
0.00067414508
0.00079176819
-0.0014566798
-2.4604523e-05
0.00067364931
-0.001468564
0.00079130874
-5.0479257e-05
0.00066916158
-0.0014293184
0.00078603155
-0.00012486625
0.00067622702
-0.001380879
0.00077903899
-0.00056402054
0.00076002931
-0.0011677534
0.00084687842
-0.00057729015
0.00028817037
-0.00044064996
0.0001657492
-0.00063402264
9.1418505e-05
6.9949902e-05
-0.00010463592
-0.00011786153
0.00039681681
0.00063985903
-0.0015528369
-7.3159331e-05
0.00059109413
0.00075171824
-0.0013875146
-3.51066e-05
0.00064718564
0.00078299479
-0.0014682332
-4.5331093e-05
0.00066610814
0.00079237464
-0.0014482583
-3.2613168e-05
0.00067250651
0.00079577644
-0.0014810009
-6.1139202e-05
0.00067214179
0.00079361084
-0.0014372266
-0.00013074355
0.00068078468
0.0007892148
-0.0014003951
-0.00057685781
0.00076312846
0.00085804795
-0.0011750621
-0.00058907297
0.00027714542
-0.00041936897
0.0001544387
-0.00064991242
7.8227099e-05
-7.1296444e-05
5.3908794e-05
-0.00015064527
0.00039109953
0.00063575556
-0.0001541514
0.00057612471
0.00073998324
-0.00018889421
0.00064467232
0.00077128687
0.00075877327
0.00087203155
0.0037673449
0.00031803557
0.0040147142
0.0023570966
-0.00028085209
0.0029593367
0.00015786112
0.00093099919
0.0027078561
0.0010121268
0.00021586104
0.0010613534
0.0022532527
0.00016107771
0.00076086737
-0.00011653791
0.00082510111
0.00016659346
0.00093949463
0.00070141643
-6.722542e-05
0.00014671133
2.0253501e-05
-6.3170667e-05
0.00014930711
3.0809968e-05
-8.6453189e-06
3.4230421e-05
0.00012846044
0.00013403641
-0.00015386736
1.1185628e-05
-8.1360875e-05
-0.00011127396
2.7525325e-05
0.00029914592
-0.00012568178
-0.00010610522
0.00029241468
-7.3808096e-05
1.2861506e-05
-6.4735194e-05
9.7149973e-06
-1.3782944e-05
6.3089194e-06
1.7189022e-05
2.4599286e-05
7.9433447e-05
3.5859851e-05
-0.00015367553
4.2363376e-05
3.49634e-05
-1.6671145e-05
1.6246085e-05
0.00012222188
2.7507217e-05
-2.6620099e-06
-5.6565012e-06
-2.7388517e-05
-6.0654938e-05
-1.3904972e-05
3.8510902e-05
3.0392506e-05
2.8148055e-05
0.00010135663
5.1905912e-05
-0.00024206554
-1.2549843e-05
2.6792926e-05
3.133668e-05
6.6418732e-06
-1.4925577e-05
-2.6500796e-05
-4.0607564e-05
0.00015743112
-8.5605751e-06
-6.8836308e-05
-9.8061235e-06
3.2995956e-05
3.70859e-05
2.8530529e-05
5.5503555e-05
0.00010790877
-0.00026077916
3.5284593e-05
1.7670234e-05
4.5168005e-05
2.3112545e-05
0.00020115376
0.00037280373
-0.00010392334
-6.772663e-05
-6.379586e-05
2.818058e-05
0.00040296936
5.4496515e-06
-6.6957921e-05
0.00030454389
-2.2359084e-06
5.2929518e-05
0.00018956358
-1.7036339e-05
-0.00030009996
0.00018376367
0.00022513649
-5.5870684e-05
0.00056425086
-0.0004661889
0.00065478039
9.21756e-05
0.00055832632
2.7894993e-05
8.7161817e-05
0.00076646041
-0.00048492881
0.00028987316
0.00080965569
0.00014598615
-0.00024606236
0.00072791804
1.65866e-05
7.6951271e-05
0.00059942449
-2.0898978e-05
0.00013313038
0.0002033546
0.00029297435
-1.4339829e-05
0.00011743537
0.00025755791
-0.00011623712
0.00083205869
7.1708653e-05
-0.00035323509
0.00085390032
-1.6729494e-05
-4.21795e-06
0.00080070547
-1.7047107e-05
5.7038122e-05
0.00072213467
3.4823293e-06
7.7401881e-05
0.00066721347
1.3923533e-05
8.1656212e-05
0.00054924621
-1.1342996e-06
0.00011182843
0.00020083771
0.00026769862
-2.325233e-05
0.00010396221
0.0002431774
-0.0001166793
0.00084459706
8.6080987e-06
-0.00034232913
0.00090040937
-2.5243156e-05
-3.8457836e-05
0.00088794557
-2.5881112e-05
1.9720471e-05
0.00086865625
-1.8066131e-05
2.4505477e-05
0.00084919238
-1.0627104e-05
2.2300286e-05
0.00083018994
-6.3234761e-06
2.0170464e-05
0.00081319991
-4.9339642e-06
1.800367e-05
0.00079874564
-4.7764047e-06
1.5567998e-05
0.00078643106
-4.7920468e-06
1.3571968e-05
0.00077517012
-4.3114111e-06
1.2330111e-05
0.00076593171
-4.1276055e-06
1.0339181e-05
0.00075876176
-3.9281156e-06
8.2663589e-06
0.00075211535
-3.3494268e-06
7.3819995e-06
0.00074747656
-3.1194257e-06
5.4537807e-06
0.00074396172
-2.9655405e-06
4.332401e-06
0.000741505
-2.6460309e-06
2.9703482e-06
0.00074109646
-2.4268611e-06
1.0563248e-06
0.00074081471
-2.0647061e-06
6.1972918e-07
0.00074189119
-2.1327581e-06
-6.9250407e-07
0.00074399118
-1.7842644e-06
-1.8135271e-06
0.0007476821
-1.8190517e-06
-3.3818256e-06
0.00075149154
-1.5151211e-06
-3.6216831e-06
0.00075693552
-1.543962e-06
-5.216425e-06
0.0007627221
-1.3095218e-06
-5.6866998e-06
0.00077013659
-1.3533251e-06
-7.2674103e-06
0.00077759154
-1.1063738e-06
-7.430638e-06
0.00078582418
-1.0782983e-06
-8.2890958e-06
0.00079541325
-9.6086488e-07
-9.5088079e-06
0.00080536925
-7.8684955e-07
-9.9952595e-06
0.00081620209
-7.8574165e-07
-1.0760165e-05
0.00082748872
-6.3724719e-07
-1.1164776e-05
0.00083945138
-8.1430812e-07
-1.1840559e-05
0.00085249556
-1.3166425e-06
-1.2379912e-05
0.00086545867
-2.2632612e-06
-1.1960433e-05
0.00087874995
-4.9066904e-06
-1.0492112e-05
0.00088633396
-1.6263072e-05
1.7099918e-08
-4.1382061e-05
7.1619994e-05
-0.00092908799
-2.4024558e-05
5.3006388e-05
-0.000928456
-1.2624387e-05
-4.2706752e-06
-0.00091333918
-6.4122409e-06
-1.3611265e-05
-0.00089760539
-3.3148914e-06
-1.4682159e-05
-0.00088247257
-1.9158161e-06
-1.4533653e-05
-0.00086803578
-1.2996069e-06
-1.3951486e-05
-0.00085470485
-1.0129342e-06
-1.2955246e-05
-0.00084214951
-1.0022217e-06
-1.2338855e-05
-0.00083018064
-1.0825404e-06
-1.1673181e-05
-0.00081906694
-1.2012304e-06
-1.0873336e-05
-0.00080938151
-1.2820522e-06
-9.4816755e-06
-0.00080060217
-1.335176e-06
-8.5505345e-06
-0.00079206776
-1.700923e-06
-8.1868194e-06
-0.00078523873
-1.6154903e-06
-6.5230597e-06
-0.00077914049
-2.0012241e-06
-5.6409714e-06
-0.00077465242
-1.9152457e-06
-4.0879542e-06
-0.00077068629
-2.296868e-06
-3.4883102e-06
-0.00076810777
-2.3876203e-06
-1.9751669e-06
-0.00076749542
-2.5544089e-06
-1.9070054e-07
-0.00076757387
-2.8245155e-06
8.382677e-07
-0.00076868035
-3.2380721e-06
1.917684e-06
-0.00077185557
-3.4436717e-06
3.9728626e-06
-0.00077690527
-3.7856908e-06
5.8698538e-06
-0.00078252294
-4.3428539e-06
6.8410969e-06
-0.00079060763
-4.4597369e-06
9.1949958e-06
-0.00080022664
-5.076038e-06
1.0766941e-05
-0.00081144887
-5.6927982e-06
1.2787423e-05
-0.00082525388
-5.7060598e-06
1.5199652e-05
-0.00084113188
-5.971013e-06
1.7056971e-05
-0.00085891076
-5.9071184e-06
1.8909592e-05
-0.00087988119
-5.5937759e-06
2.1630241e-05
-0.00090399837
-5.9085871e-06
2.3702291e-05
-0.000930257
-1.0189754e-05
2.5821276e-05
-0.00095260755
-2.3431729e-05
2.7716157e-05
-0.00095879706
-4.6697916e-05
2.7006309e-05
-0.00089312262
-7.7753075e-05
-1.3164517e-05
-0.00038825886
-7.9866359e-05
-0.0004163893
-0.0005218075
9.2796249e-06
0.00010101669
-0.00066924192
5.5401684e-05
9.0898435e-05
-0.00077760503
3.5016795e-05
8.7269851e-05
-0.0008643234
9.7876326e-06
8.0413066e-05
-0.00094522031
3.3585206e-05
3.0264591e-05
-0.00081352432
-0.0002603936
0.00011196812
-0.00052938474
0.00029847218
-0.0005109031
-0.0006591949
-3.3546976e-05
0.00014901731
-0.00078906106
-1.8007292e-05
0.00012697447
-0.00082434737
-1.6108235e-06
5.3483728e-05
-0.00029346178
8.9591907e-05
-0.00034600825
-0.00027446924
-0.00057134562
1.6641421e-05
9.4391654e-05
0.00016685076
-0.00063928163
5.1476511e-05
4.4354492e-05
8.5125796e-05
-0.00030970735
0.00068009799
9.112104e-05
-0.00038154935
0.00063806171
2.8356192e-05
6.5156601e-05
0.00051604336
-8.6843723e-06
0.00014734414
0.00079749046
-0.0004907077
0.00029885251
0.00088348713
0.00016344727
-0.00025105476
0.00074821548
2.5869573e-05
9.1394788e-05
0.00058675176
-1.679178e-05
0.00014470852
0.00018709775
0.00030552971
-1.103495e-05
0.00010515925
0.00030096192
-7.5785601e-05
0.00089411728
8.1511526e-05
-0.00036913717
0.00090390249
4.6629358e-06
1.9137054e-05
0.00080838133
6.1309271e-06
9.9177874e-05
0.00069125071
3.7344796e-05
0.00011480261
0.00039685692
0.00025841799
9.137748e-05
0.00027799823
7.0943444e-05
5.7194871e-05
0.0010154257
-0.00041490483
-0.00040238898
0.0010196785
-0.00010862782
2.6621933e-05
0.0010080332
-7.0497263e-05
3.544467e-05
0.00097851356
-2.0963582e-05
2.7051467e-05
0.00094560369
-1.6873629e-06
2.4407477e-05
0.00091780994
-3.4335787e-06
2.5318735e-05
0.00089392749
-5.8255865e-06
2.4114267e-05
0.00087353355
-7.02876e-06
2.1515583e-05
0.00085553612
-7.4382647e-06
1.9464682e-05
0.00084040358
-7.5478204e-06
1.6974301e-05
0.00082700155
-7.2761137e-06
1.498534e-05
0.00081598967
-6.6975671e-06
1.263341e-05
0.00080731383
-6.114523e-06
1.0330624e-05
0.00080004323
-5.618827e-06
8.5465701e-06
0.00079422682
-5.0440988e-06
7.0748246e-06
0.00079055774
-4.6434249e-06
4.8688363e-06
0.00078860262
-4.2529393e-06
2.9699783e-06
0.00078817076
-3.979168e-06
1.5865126e-06
0.00078873045
-3.5124431e-06
3.9834937e-07
0.00079135801
-3.3361994e-06
-1.6789779e-06
0.00079495161
-3.0104854e-06
-2.879991e-06
0.00080004544
-2.898126e-06
-4.1109423e-06
0.00080602885
-2.7400011e-06
-5.2446381e-06
0.00081362831
-2.4088226e-06
-6.806125e-06
0.00082233883
-2.3500009e-06
-8.0614414e-06
0.00083195998
-2.0653519e-06
-8.8909725e-06
0.00084230155
-1.8808979e-06
-9.7427241e-06
0.00085416892
-1.8075258e-06
-1.1261074e-05
0.00086706597
-1.7984087e-06
-1.2181182e-05
0.00088064538
-1.6931582e-06
-1.2888478e-05
0.0008949955
-1.7226323e-06
-1.3640416e-05
0.00091046842
-1.9681864e-06
-1.4804344e-05
0.0009266832
-2.4398616e-06
-1.5690733e-05
0.00094284311
-3.3287017e-06
-1.6146097e-05
0.00095712387
-4.9484783e-06
-1.5744527e-05
0.00095968671
-7.2566537e-06
-7.9305741e-06
-9.9302317e-06
4.9163038e-05
-0.0009667927
4.8789962e-05
1.5072584e-07
-0.00096432159
-8.9617063e-06
-7.6605611e-07
-0.00095116566
-1.564089e-06
-1.6540324e-05
-0.00093577591
-2.0726778e-06
-1.6645771e-05
-0.00091978206
-2.3997426e-06
-1.6033972e-05
-0.00090431994
-2.4605641e-06
-1.4969736e-05
-0.0008898476
-2.4976066e-06
-1.3697367e-05
-0.0008761215
-2.5423721e-06
-1.2876888e-05
-0.00086314039
-2.6499695e-06
-1.2129548e-05
-0.00085096503
-2.7207269e-06
-1.1262162e-05
-0.00084056224
-2.7236381e-06
-9.5600425e-06
-0.00083097153
-2.9700456e-06
-8.6860243e-06
-0.0008223421
-3.2396032e-06
-7.7398281e-06
-0.0008147095
-3.3229744e-06
-6.7184482e-06
-0.00080895944
-3.7337259e-06
-4.7563348e-06
-0.00080438191
-3.8285772e-06
-3.6470759e-06
-0.00080070327
-4.0196307e-06
-2.6694898e-06
-0.00079849561
-4.4267705e-06
-1.1170895e-06
-0.00079805608
-4.7401348e-06
7.8815515e-07
-0.00079934976
-5.1728477e-06
2.4873631e-06
-0.00080159112
-5.4479117e-06
3.4363362e-06
-0.00080576999
-6.0580834e-06
5.5935222e-06
-0.00081218877
-6.4720795e-06
7.8467625e-06
-0.00082025092
-7.229614e-06
9.6729364e-06
-0.00082990231
-7.8316175e-06
1.1368487e-05
-0.00084170057
-8.5457795e-06
1.3646469e-05
-0.00085614326
-9.2227279e-06
1.6389302e-05
-0.0008725773
-9.5986025e-06
1.8484823e-05
-0.00089166016
-9.1485692e-06
2.0793168e-05
-0.00091348673
-8.4266367e-06
2.3224443e-05
-0.00093874834
-6.4700761e-06
2.5906099e-05
-0.00096629826
-2.5476732e-06
2.6664021e-05
-0.00099907604
1.1501002e-05
1.9589409e-05
-0.0010845576
8.94459e-05
-2.492796e-05
-0.0010293046
6.7599377e-05
-0.00019334962
-0.0012651392
9.8802659e-05
2.8404168e-05
-0.00098992059
0.00072144879
7.0108236e-05
-0.00033467972
-0.00095194303
-0.00040430347
-4.5035923e-05
0.00066918648
-0.0007083383
0.00055388751
-4.7103331e-05
-0.00078836647
-0.0008378093
1.2172739e-05
-2.5056119e-05
0.00014235438
-0.00088091045
3.9651202e-05
-5.259292e-05
5.6042872e-05
-0.00029157871
5.5367072e-05
-0.00035149784
-0.00029320098
-0.00056552554
-1.7873626e-05
0.00010520245
0.00018661801
-0.00072480858
-2.695064e-05
0.0001500601
3.6173578e-05
-0.00083525067
-2.5731684e-05
0.0001274376
8.7361808e-06
-0.00087039013
-1.3718937e-05
-2.6945984e-05
7.5804376e-05
-0.00045138742
6.9469465e-05
-6.0626446e-05
-0.00042784573
-0.00060337263
2.4912201e-05
8.0318899e-08
0.00012699269
-0.00061088269
3.9640093e-05
-5.1599224e-05
1.9469186e-05
-0.00019585138
9.5008972e-05
-0.00022008826
-0.00028995202
-0.00043873941
5.9225449e-05
0.00010567093
7.7991643e-05
-0.00033689927
4.9908101e-05
-0.00015174824
-0.00032671805
1.7999362e-05
-9.440807e-05
-8.5598655e-05
-4.9024303e-05
2.0675912e-05
-3.3930757e-05
-3.5769458e-05
-2.6313919e-05
-3.8608824e-05
-3.0531543e-05
-0.00011165076
-2.3838852e-05
0.00013970724
-1.0735151e-05
-3.8151714e-05
-2.1121924e-05
7.2659842e-06
5.8855236e-05
-0.00022977963
6.51291e-06
4.7282125e-05
3.2404574e-05
1.2209511e-05
0.00018006728
2.159687e-05
0.00023682809
-0.00072149245
-7.7479619e-05
0.0007206144
2.8907509e-05
0.00017854832
-0.00075766291
0.00072923507
1.3348748e-05
0.0002145118
-0.00073657409
0.00065984293
-3.5668883e-05
0.00020070628
-0.00052533334
-0.00012323611
-2.809644e-05
4.5852227e-05
6.9811441e-05
4.5164687e-05
5.5410213e-05
-0.00033901613
0.00011520512
6.5312708e-07
6.3224314e-05
-1.1428473e-05
6.7491813e-05
-0.00036825347
0.00035412764
-0.00055668607
0.00021833716
8.1581598e-05
-0.0014913976
0.00087643015
0.00013591861
0.00022280893
-0.0015609298
0.00031341159
1.42126e-05
-0.0026696971
0.00058724502
0.0012785378
0.004118995
0.0026061108
0.01012008
-4.3842263e-05
-2.6253007e-06
0.010160041
-3.5943748e-05
-4.0171657e-06
0.010192246
-2.6918846e-05
-5.2859126e-06
0.010215863
-1.7208379e-05
-6.4086017e-06
0.010230428
-7.2167348e-06
-7.3482486e-06
0.010235704
2.8840237e-06
-8.1594913e-06
0.010232814
1.1443754e-05
-8.5541956e-06
0.010221942
1.9802027e-05
-8.929897e-06
0.01020358
2.7522638e-05
-9.1610848e-06
0.010178439
3.4404149e-05
-9.2623149e-06
0.010147464
4.0240518e-05
-9.2663813e-06
0.010111753
4.4891526e-05
-9.1798582e-06
0.010072497
4.8263134e-05
-9.0073089e-06
5.0301329e-05
-8.7640079e-06
-0.010622039
0.0001042957
-9.4569102e-06
-0.010664135
0.00010009177
-9.7324522e-06
-0.010702361
9.3044365e-05
-9.9264922e-06
-0.010735389
8.3289441e-05
-1.0021293e-05
-0.010762036
7.1076825e-05
-1.0025448e-05
-0.010781351
5.6746978e-05
-9.909868e-06
-0.010792579
4.0703385e-05
-9.6729291e-06
-0.01079512
2.326679e-05
-9.2818033e-06
-0.010788689
5.1990808e-06
-8.745979e-06
-0.010773077
-1.4837225e-05
-7.9922233e-06
-0.010747902
-3.5349087e-05
-7.0340532e-06
-0.010713506
-5.5446342e-05
-5.8686236e-06
-0.010670766
-7.4166847e-05
-4.5164034e-06
-9.0525398e-05
-3.0129056e-06
0.011513261
-0.00014191416
-3.1484385e-06
0.011560226
-0.00011616194
-4.9695793e-06
0.011598049
-8.6682162e-05
-6.5869214e-06
0.011625858
-5.5194898e-05
-7.9638702e-06
0.011643538
-2.3420185e-05
-9.0967266e-06
0.011651377
7.3633789e-06
-1.000289e-05
0.011649549
3.5760056e-05
-1.0665999e-05
0.011638374
6.3043148e-05
-1.1163836e-05
0.011618189
8.8465535e-05
-1.1534226e-05
0.011589559
0.00011146538
-1.1758461e-05
0.011553425
0.00013126047
-1.1836505e-05
0.01151115
0.00014709123
-1.1772142e-05
0.011464401
0.00015840591
-1.1565612e-05
0.00016493614
-1.1240767e-05
-0.012286913
0.0002328829
-1.2505565e-05
-0.01233963
0.00022409832
-1.2975156e-05
-0.012387064
0.00020782977
-1.3304275e-05
-0.012426841
0.00018450402
-1.3466593e-05
-0.012457173
0.00015522925
-1.3431964e-05
-0.012477225
0.00012172682
-1.3209716e-05
-0.01248707
8.5700428e-05
-1.2812182e-05
-0.012487128
4.807202e-05
-1.2254131e-05
-0.012477326
9.1072982e-06
-1.154516e-05
-0.012457362
-3.2764361e-05
-1.062003e-05
-0.012426648
-7.6460959e-05
-9.44823e-06
-0.012385051
-0.00012024044
-8.0380657e-06
-0.01233346
-0.00016143953
-6.3137612e-06
-0.00019735759
-4.2735233e-06
0.012865887
-0.0002547679
-6.4800854e-06
0.012921452
-0.00020834941
-8.6553125e-06
0.012966239
-0.00015456536
-1.0462484e-05
0.012999322
-9.7739607e-05
-1.1804103e-05
0.013021359
-4.2026844e-05
-1.2774846e-05
0.01303391
1.0041058e-05
-1.3484841e-05
0.013037691
5.8367455e-05
-1.407571e-05
0.01303216
0.00010583064
-1.4599106e-05
0.013014866
0.00015398854
-1.4967589e-05
0.012983986
0.00020114336
-1.5035062e-05
0.012940141
0.00024312733
-1.4777938e-05
0.012886284
0.00027597333
-1.4286191e-05
0.012826306
0.00029772097
-1.3645407e-05
0.00030805384
-1.2892937e-05
-0.013023088
0.00039186688
-1.3391606e-05
-0.013092631
0.00038189068
-1.4627021e-05
-0.013155785
0.00035505004
-1.5922022e-05
-0.013205618
0.00031012053
-1.716083e-05
-0.013235924
0.00024932223
-1.7872275e-05
-0.013246015
0.0001818026
-1.7723079e-05
-0.013241993
0.00011882633
-1.7017382e-05
-0.013231181
6.3909726e-05
-1.635439e-05
-0.013215407
1.0148554e-05
-1.5882357e-05
-0.013192327
-4.9641988e-05
-1.546421e-05
-0.013158244
-0.0001170408
-1.4781966e-05
-0.013111302
-0.00018785792
-1.3649385e-05
-0.013052442
-0.00025528745
-1.1922362e-05
-0.00031227317
-9.4863633e-06
0.012989612
-0.00036984205
-1.3659814e-05
0.013052104
-0.00030162441
-1.6155137e-05
0.013100206
-0.00021811543
-1.7845173e-05
0.013133194
-0.0001312553
-1.8772853e-05
0.01315481
-5.2132389e-05
-1.9125628e-05
0.013172324
1.1618821e-05
-1.8984456e-05
0.013192988
6.2091552e-05
-1.8846077e-05
0.013215553
0.00011611495
-1.9853595e-05
0.013221503
0.00019851559
-2.2662853e-05
0.013192453
0.00030308552
-2.4713159e-05
0.013131095
0.00039492016
-2.344136e-05
0.013052955
0.00045312048
-1.9930507e-05
0.012970071
0.00048150048
-1.6725612e-05
0.00048735147
-1.4458259e-05
-0.01278211
0.00059723318
-1.5158449e-05
-0.012881287
0.00060004549
-1.9368768e-05
-0.012981312
0.00058125347
-2.8107624e-05
-0.013069921
0.00052457614
-4.104703e-05
-0.013107363
0.00038547468
-4.4946965e-05
-0.013072578
0.00019595899
-3.2228993e-05
-0.013018264
8.2205987e-05
-2.0404789e-05
-0.01299105
5.5215057e-05
-2.0337524e-05
-0.01297881
2.2640928e-05
-2.3262131e-05
-0.012963726
-4.2336739e-05
-2.4879688e-05
-0.01293493
-0.00013461805
-2.5433247e-05
-0.0128869
-0.000240988
-2.5157398e-05
-0.012819143
-0.00034547609
-2.3904985e-05
-0.00042960203
-2.1958528e-05
0.012511383
-0.00048419748
-4.6676443e-05
0.012584865
-0.00037337517
-4.5583269e-05
0.012630457
-0.00024337519
-4.3204346e-05
0.012651027
-0.00011578749
-3.9400384e-05
0.012652748
-9.1325964e-06
-3.4925654e-05
0.01264613
5.867424e-05
-2.9414662e-05
0.012650985
7.0185159e-05
-1.9825152e-05
0.012725777
1.24106e-05
-4.9965335e-06
0.012935296
5.4775622e-05
-6.8336324e-05
0.012888146
0.00057631369
-0.00014368911
0.012774943
0.00073791015
-0.00010013095
0.012655953
0.00073867518
-3.8431396e-05
0.012544376
0.00073228376
-2.0661578e-05
0.00071924027
-1.4501435e-05
-0.012129846
-1.116862e-05
-0.012224212
-6.6268295e-06
-0.012353683
-1.6934878e-05
-0.012377593
-0.00014479911
-0.012546745
0.0016971765
-0.00095171175
-0.011720614
-0.0013683804
0.00048550086
0.00011152416
-0.011817274
-0.0012408853
0.0012722658
7.7690422e-05
-0.011868279
-0.0012403878
0.0013558777
5.7006083e-06
-0.011898654
-0.0012602979
0.0013687415
-1.9394845e-05
-0.011912197
-0.0013006068
0.0013489215
-4.3904283e-05
-0.011903069
-0.001355574
0.0013052013
-7.4542119e-05
-0.011866901
-0.0014174915
0.0012465004
-0.00010855253
-0.011798443
-0.0014784976
0.0011785232
-0.00014185857
-0.0015301623
0.0011062021
-0.00017058471
0.010011677
-0.00037569082
0.0012581222
0.00029433504
0.0097247886