/*--------------------------------*- C++ -*----------------------------------*\
| =========                 |                                                 |
| \\      /  F ield         | OpenFOAM: The Open Source CFD Toolbox           |
|  \\    /   O peration     | Version:  v2012                                 |
|   \\  /    A nd           | Website:  www.openfoam.com                      |
|    \\/     M anipulation  |                                                 |
\*---------------------------------------------------------------------------*/
FoamFile
{
    version     2.0;
    format      ascii;
    class       volVectorField;
    location    "158";
    object      U;
}
// * * * * * * * * * * * * * * * * * * * * * * * * * * * * * * * * * * * * * //

dimensions      [0 1 -1 0 0 0 0];


internalField   nonuniform List<vector> 
15114
(
(4.5727403 0.076740882 -0.060402135)
(4.3045587 0.12285005 -0.051779015)
(3.9011391 0.19427633 -0.14466243)
(3.0524133 0.13013963 -0.16492849)
(2.3257839 0.66962312 -0.23191046)
(2.520599 1.4054009 -0.21717921)
(3.5958402 2.0972125 -0.055992136)
(4.0032332 2.1808463 -0.026189687)
(4.4053539 2.0888452 0.0050877251)
(4.7725678 1.8424198 0.008277153)
(4.9335122 1.7578444 0.013835708)
(5.1083209 1.6204493 0.021007851)
(5.215805 1.4575163 0.020500441)
(5.3283145 1.29424 0.0099526151)
(5.3962407 1.2304485 0.010587055)
(5.4767236 1.1368811 0.013225318)
(5.5333093 1.0500221 0.01382856)
(5.5780018 0.9556283 0.013260412)
(5.6142464 0.87853257 0.014716521)
(5.6438205 0.79621069 0.014279121)
(5.6816103 0.73087633 0.010556241)
(5.7028054 0.68832978 0.0092544908)
(5.7325637 0.6337413 0.0089461211)
(5.7539291 0.57645475 0.0091118137)
(5.7681303 0.52033652 0.0098221966)
(5.7799083 0.46894633 0.008613874)
(5.7915815 0.42040594 0.0075713752)
(5.8026184 0.37436596 0.0073679161)
(5.8091535 0.32533775 0.0077543789)
(5.8117026 0.28348558 0.0066537854)
(5.8182972 0.24709773 0.005892646)
(5.82143 0.20369314 0.0067666418)
(5.8180997 0.16804929 0.0057332604)
(5.8203811 0.13719381 0.0051689413)
(5.8193094 0.098889082 0.0056164528)
(5.8161518 0.072150742 0.0042330133)
(5.8132385 0.039166967 0.0048905446)
(5.8068858 0.011325732 0.0041413396)
(5.8029847 -0.013989819 0.0042453445)
(5.7963371 -0.042634378 0.0042332587)
(5.791243 -0.063407449 0.0033831939)
(5.7829872 -0.092058365 0.0036932571)
(5.7766537 -0.10927412 0.0029150846)
(5.7676382 -0.13645529 0.0032751481)
(5.7597529 -0.15188833 0.0025485372)
(5.7502699 -0.17669329 0.0029297095)
(5.7411962 -0.19135437 0.0023490629)
(5.732123 -0.21244669 0.0027912598)
(5.7215055 -0.22802222 0.0018824939)
(5.7122303 -0.24526879 0.0021299825)
(5.6998094 -0.26251075 0.0015478409)
(5.6906663 -0.27525585 0.0011796462)
(5.6775611 -0.29364331 0.001767031)
(5.668509 -0.30289621 0.00036332099)
(5.656326 -0.32175133 0.0021326103)
(5.642867 -0.33224671 0.0010295059)
(5.6308228 -0.34656449 0.0014168701)
(5.6171131 -0.35951001 0.0019474837)
(5.6030884 -0.37268579 0.0010079744)
(5.5878742 -0.38635924 0.00067200167)
(5.5732256 -0.39615878 0.0023542426)
(5.5551084 -0.40718146 0.0024418827)
(5.5360835 -0.41849141 0.0015345036)
(5.5180499 -0.42997618 0.00058291324)
(4.4908316 0.076862976 -0.072300853)
(4.1386927 0.11322565 -0.13004846)
(4.1256688 0.13974988 -0.16103782)
(3.7924771 0.17499908 -0.19790186)
(3.3857225 0.14748106 -0.21791299)
(2.908968 0.12216677 -0.16608552)
(2.2913155 0.19359424 -0.22025628)
(2.3869712 0.14023594 -0.68261545)
(3.2239326 0.049242268 -0.46757539)
(3.2873152 0.12220976 -0.32191404)
(2.7642641 0.095962116 -0.50032932)
(2.8705753 0.092325562 -0.49355519)
(3.2009314 0.1015092 -0.62428777)
(3.415317 0.11739096 -0.55076073)
(3.2929483 0.16689079 -0.60680038)
(2.9528671 0.25834962 -0.89464341)
(2.6625353 0.29168784 -0.88647173)
(2.3130278 0.26262783 -0.92997748)
(2.09363 0.14874572 -0.88636277)
(2.1639068 0.24511847 -0.86602235)
(1.9083908 0.90709107 -1.2795773)
(2.5264093 1.6716367 -0.42222193)
(2.2817865 0.5138134 -0.72672882)
(1.8387013 0.41044446 -0.81095244)
(2.1095454 0.69007658 -0.41907591)
(2.4117322 1.3025945 -0.33395629)
(3.3520641 2.0805601 -0.12372305)
(4.0067647 2.2639917 -0.050785509)
(4.4161997 2.1840818 0.0059685433)
(4.7717101 1.9058956 -0.0026640127)
(4.926018 1.8340517 0.015732262)
(5.1267835 1.6945881 0.031500161)
(5.2600235 1.4957587 0.03672481)
(5.3450393 1.3320081 0.03024648)
(5.3918467 1.2705142 0.027657677)
(5.477435 1.1807287 0.028527372)
(5.5427334 1.0874384 0.030220068)
(5.5889929 0.98557003 0.030354896)
(5.6273052 0.90364147 0.031471568)
(5.6590077 0.81037996 0.033197843)
(5.6926327 0.7453364 0.030350457)
(5.7061181 0.70572523 0.026265012)
(5.7367091 0.65307675 0.025141507)
(5.7597641 0.59276292 0.025521384)
(5.7746162 0.54028058 0.025063678)
(5.7881866 0.4853805 0.022160201)
(5.7986725 0.43457476 0.019883229)
(5.8080899 0.38702131 0.018489857)
(5.8147446 0.33974484 0.018476306)
(5.8180568 0.29418143 0.017060878)
(5.8227063 0.25608453 0.015597474)
(5.8256602 0.21489975 0.015924671)
(5.8231961 0.17629224 0.014435335)
(5.8237938 0.14431353 0.013661161)
(5.8233405 0.10829854 0.013398085)
(5.8196814 0.077492353 0.011459426)
(5.8160731 0.04644855 0.012292736)
(5.8095803 0.015591596 0.010310911)
(5.8049036 -0.0085661444 0.010323107)
(5.7991074 -0.036686272 0.010604887)
(5.7934528 -0.059102397 0.0088499608)
(5.785068 -0.086990028 0.0091605478)
(5.7783845 -0.10573549 0.0077982825)
(5.769368 -0.13186533 0.0081059522)
(5.7611283 -0.14877511 0.0069429299)
(5.7515554 -0.17270228 0.0072888819)
(5.7420854 -0.18846311 0.0063654546)
(5.7336613 -0.20786307 0.007077647)
(5.7225023 -0.22582881 0.0052780057)
(5.7130709 -0.2418677 0.0054068903)
(5.7013952 -0.25983879 0.0047192654)
(5.6908704 -0.27343543 0.0038408678)
(5.6797682 -0.28929687 0.004896896)
(5.6686595 -0.30291464 0.0026092531)
(5.6569778 -0.3172971 0.0050748554)
(5.6444425 -0.33037223 0.0030798299)
(5.6311808 -0.34371113 0.0031709572)
(5.6194572 -0.35548481 0.0032363283)
(5.60386 -0.3699991 0.0019245782)
(5.5975307 -0.37329983 0.0011890743)
(5.6022825 -0.37341345 0.0011149179)
(5.6122108 -0.36115783 0.0027454856)
(5.6129551 -0.35803273 0.0032086277)
(5.6137377 -0.35336402 0.0059074928)
(5.6137162 -0.3493124 0.0092686091)
(5.6129685 -0.34642861 0.012138705)
(5.6121331 -0.34311455 0.014965222)
(5.6115068 -0.33984437 0.01805721)
(5.6108569 -0.33856211 0.021842029)
(5.6088772 -0.33833675 0.023449189)
(5.6029898 -0.34505332 0.024683939)
(5.6016018 -0.35212384 0.023864926)
(5.6015324 -0.35433907 0.021351197)
(5.6017016 -0.35681707 0.017334544)
(5.6021096 -0.35889484 0.014058606)
(5.602271 -0.36188031 0.011669838)
(5.602594 -0.36537658 0.0086495827)
(5.6034041 -0.36780023 0.0052191811)
(5.603581 -0.37067874 0.0034302648)
(5.6016233 -0.37593157 0.0034857651)
(5.5903176 -0.38364379 0.0042371187)
(5.5925689 -0.38489457 0.0019494155)
(5.5921732 -0.38418097 0.0033418232)
(5.5871565 -0.38745191 0.0060018296)
(5.5743243 -0.39529746 0.0042078465)
(5.5858575 -0.38748483 0.0034181771)
(5.585439 -0.38643771 0.0051588927)
(5.5913071 -0.38217108 0.0036059715)
(5.5898763 -0.3791266 0.0055012714)
(5.5843981 -0.38280107 0.0049247804)
(5.5724978 -0.39266284 0.0062011486)
(5.5535153 -0.40399147 0.0059187271)
(5.5548546 -0.40646274 0.0040713458)
(5.5350389 -0.41808986 0.0035814682)
(5.5144438 -0.43020388 0.003705723)
(5.4876762 -0.41354396 0.027197069)
(5.4895416 -0.41139761 0.030597463)
(5.4903947 -0.4091434 0.031783177)
(5.4916819 -0.40737803 0.035043461)
(5.4922572 -0.40605851 0.036519919)
(5.4932368 -0.40431617 0.039964701)
(5.4940378 -0.4022848 0.042059008)
(5.4965749 -0.39973441 0.045556119)
(5.4979875 -0.3979309 0.046123096)
(5.4994812 -0.396439 0.048746604)
(5.5001816 -0.3948465 0.049946341)
(5.501727 -0.39314739 0.053059552)
(5.5028879 -0.39091424 0.053680419)
(5.5024974 -0.39099664 0.055156027)
(5.512698 -0.3888964 0.058116305)
(5.5277706 -0.37870461 0.057366734)
(5.5340936 -0.37013912 0.060144258)
(5.5344581 -0.36764829 0.061829047)
(5.5364163 -0.36495778 0.062248246)
(5.5390999 -0.36162205 0.064257318)
(5.54075 -0.35830066 0.064632048)
(5.5427036 -0.35555927 0.066622849)
(5.5436118 -0.35310879 0.067215669)
(5.5454585 -0.35000252 0.069557684)
(5.5459379 -0.34709121 0.07042864)
(5.5471793 -0.34445941 0.073070194)
(5.5476998 -0.34208653 0.073625654)
(5.5493496 -0.33947163 0.075899867)
(5.5504574 -0.33666179 0.07677395)
(5.5519906 -0.33380581 0.079126133)
(5.5527879 -0.33135091 0.079119314)
(5.5560588 -0.32784423 0.080916322)
(5.5579133 -0.32462755 0.080543523)
(5.5603056 -0.32212938 0.082342787)
(5.5630705 -0.31921289 0.082363221)
(5.5662742 -0.31624708 0.083897251)
(5.5690207 -0.31220629 0.083770528)
(5.5708157 -0.31069693 0.084390485)
(5.5833377 -0.30564601 0.087881485)
(5.6008584 -0.29021069 0.087618691)
(5.6089803 -0.27792255 0.089853723)
(5.6111487 -0.27345356 0.090245613)
(5.6154726 -0.26798397 0.089825855)
(5.6204857 -0.26304665 0.090555806)
(5.6244363 -0.25876393 0.089296983)
(5.6290058 -0.25415957 0.089188844)
(5.6318393 -0.24968187 0.087781393)
(5.6360753 -0.24518325 0.087403229)
(5.6390495 -0.24110292 0.084873105)
(5.643158 -0.2369561 0.083512531)
(5.6470743 -0.23097164 0.080665823)
(5.6506055 -0.22795478 0.078388554)
(5.6666702 -0.21979848 0.081576067)
(5.6881267 -0.19833662 0.081287105)
(5.6983924 -0.1816134 0.082561967)
(5.702558 -0.17636935 0.079217274)
(5.7113309 -0.16794434 0.075760935)
(5.7200204 -0.16141454 0.071332321)
(5.7279259 -0.15394081 0.063750295)
(5.7363054 -0.14959693 0.056326167)
(5.7432174 -0.14630923 0.044650311)
(5.7524255 -0.14379769 0.035954694)
(5.7720601 -0.13261268 0.036214175)
(5.7991355 -0.10864206 0.036520936)
(5.8126328 -0.087748312 0.034476328)
(5.818804 -0.082360147 0.017598756)
(5.827475 -0.075897694 -0.0066107683)
(5.8296377 -0.069429503 -0.029533704)
(4.5794908 0.056259002 -0.13596162)
(4.3113587 0.079989874 -0.23417465)
(4.2171566 0.10564036 -0.16006889)
(3.6984272 0.18032639 -0.39480211)
(4.0191243 0.15257805 -0.32907482)
(3.2213418 0.19862234 -0.63697657)
(2.6067064 0.19217454 -1.028324)
(2.4460636 0.20470488 -1.1978237)
(2.0992878 0.22446037 -1.1419917)
(1.9407415 0.29637838 -1.3284362)
(1.9541649 0.93012585 -1.2832283)
(2.2039235 1.2240102 -1.522725)
(1.9468351 0.57848855 -1.4672311)
(1.8086912 0.42986864 -1.1689669)
(2.0708209 1.1388236 -1.1331683)
(2.1023816 1.0922144 -1.1407813)
(1.6713609 1.3417539 -1.629387)
(1.8033581 2.0271084 -1.3812785)
(2.1688376 1.1896395 -1.1001944)
(1.8969765 1.5396989 -1.4015806)
(2.1979973 1.0644653 -1.1892982)
(2.1259556 0.97991988 -1.1317671)
(2.3418693 0.82024235 -0.86456078)
(2.1332444 0.74853387 -1.01082)
(1.8838203 0.29708738 -1.30524)
(2.0472688 0.66258432 -1.1236212)
(1.7721397 1.1308592 -1.1812213)
(2.1581152 1.5295936 -1.0035915)
(2.2544819 0.93111232 -0.91375494)
(2.3554671 0.88257416 -0.999886)
(2.6758868 0.74322495 -0.90408494)
(2.2503989 0.66860832 -1.0633262)
(1.9915366 0.81919124 -1.1006688)
(1.7475903 0.57388257 -1.3197061)
(2.0820836 0.67783593 -1.3832386)
(2.714577 1.6694418 -0.99371065)
(2.7853309 2.0183204 -1.0498205)
(3.1636047 2.2578839 -1.1404318)
(3.6193033 2.3407038 -0.27385719)
(3.3270179 2.1908059 -0.37935184)
(4.0763768 2.4864908 -0.082510339)
(4.4717201 2.4348405 -0.0014211752)
(4.8905444 2.0330224 0.000890809)
(4.9697341 1.9395521 -0.0062199705)
(5.1644616 1.8001389 0.0073142402)
(5.3147989 1.6012407 0.024876584)
(5.3653809 1.4868127 0.017265112)
(5.4015854 1.3179643 0.033783192)
(5.4811175 1.282606 0.023511055)
(5.5166349 1.2109757 0.026973503)
(5.5708087 1.1218464 0.031002368)
(5.6138369 1.0213196 0.033077768)
(5.6489679 0.93555686 0.029624073)
(5.6797092 0.84788147 0.030487942)
(5.6954721 0.79615529 0.029066507)
(5.7134731 0.72882141 0.033219429)
(5.7428701 0.7139316 0.031993568)
(5.75474 0.66885405 0.030600149)
(5.7731292 0.61224093 0.029793236)
(5.7884436 0.55988493 0.027022379)
(5.8013493 0.50324245 0.026364044)
(5.8103298 0.45219541 0.024182633)
(5.8183847 0.40180181 0.021881725)
(5.8234826 0.35372543 0.021297966)
(5.8263868 0.30754468 0.021277399)
(5.8306021 0.26834183 0.019304108)
(5.8328147 0.22590902 0.018511266)
(5.8296424 0.18601609 0.018307238)
(5.8300262 0.15415699 0.016950291)
(5.8294425 0.11682117 0.01588777)
(5.8244297 0.084505108 0.015639963)
(5.8211882 0.054981431 0.015317125)
(5.8144798 0.02111857 0.013602759)
(5.80812 -0.002671727 0.012464952)
(5.8029771 -0.029400517 0.013135028)
(5.7971548 -0.053763163 0.011323436)
(5.7882393 -0.081452603 0.01147156)
(5.7813136 -0.10105687 0.010080511)
(5.7719835 -0.12703938 0.010087884)
(5.7634772 -0.14449917 0.0090462521)
(5.7536527 -0.16848192 0.009077593)
(5.7436484 -0.18464601 0.0081420011)
(5.7356406 -0.20300591 0.0082177161)
(5.7245497 -0.22253141 0.007052992)
(5.7142886 -0.23852592 0.0064743719)
(5.7031501 -0.25610924 0.006443839)
(5.6915637 -0.2710083 0.0054795417)
(5.6811989 -0.28528067 0.0056401469)
(5.669156 -0.30100783 0.0048973519)
(5.6581265 -0.31298175 0.0050799214)
(5.6465938 -0.32712921 0.0043947925)
(5.6327553 -0.34022951 0.0039766634)
(5.621774 -0.35116462 0.0035648654)
(5.6249481 -0.34615471 0.0045759649)
(5.6342298 -0.33542684 0.0052779512)
(5.6474623 -0.32254525 0.0059226893)
(5.6588963 -0.30962628 0.0058085703)
(5.6702542 -0.29613137 0.0065708196)
(5.6816053 -0.28165815 0.0068576816)
(5.6927049 -0.2666803 0.0073291658)
(5.7040271 -0.25132787 0.0081822623)
(5.7150575 -0.23467158 0.0084079194)
(5.726045 -0.21737312 0.0091351804)
(5.7367867 -0.19814546 0.0094996901)
(5.7452652 -0.17978798 0.0099262917)
(5.7553112 -0.16269562 0.011511435)
(5.7651889 -0.13911539 0.011135558)
(5.7740479 -0.12041124 0.012849299)
(5.7835909 -0.095203195 0.012527991)
(5.7907918 -0.073918035 0.014534118)
(5.799822 -0.047152733 0.014251367)
(5.8057346 -0.020699145 0.01559611)
(5.8109895 0.0037721815 0.015975841)
(5.8188126 0.031387395 0.018002024)
(5.8250468 0.065094339 0.018570503)
(5.827854 0.096222702 0.019880709)
(5.832827 0.12627199 0.020328722)
(5.835173 0.16592073 0.020042673)
(5.8343866 0.20089211 0.022784781)
(5.8371944 0.23837284 0.023295892)
(5.8368667 0.28337259 0.023079464)
(5.8321375 0.32600272 0.025692913)
(5.8288189 0.37024408 0.026284465)
(5.8255046 0.42077907 0.026790519)
(5.8185206 0.47383299 0.028405596)
(5.8074078 0.52837806 0.030342075)
(5.7963779 0.58067339 0.029703016)
(5.7823257 0.63924073 0.033084399)
(5.7622512 0.69548854 0.037214258)
(5.7477966 0.74067322 0.039331747)
(5.7029515 0.81853526 0.03053525)
(5.6866054 0.88677681 0.032249471)
(5.6588495 0.97227812 0.03025206)
(5.6180372 1.0697301 0.036311744)
(5.567064 1.1680395 0.030019934)
(5.50562 1.2584973 0.02206492)
(5.4807035 1.3290999 0.016172702)
(5.3782871 1.5270279 -0.015523728)
(5.2956201 1.6685975 -0.020795507)
(5.1515189 1.8115785 -0.063520823)
(5.0399647 1.8986592 -0.11091742)
(4.7207767 2.3123732 -0.29181542)
(4.521657 2.3526061 -0.34985686)
(3.9607819 2.2920404 -0.59058297)
(3.6536726 2.2895165 -0.60041522)
(4.265879 2.4388059 -0.36181539)
(4.6196206 2.4233775 -0.25192126)
(4.9925153 2.0145393 -0.10218098)
(5.0724095 1.93597 -0.063989578)
(5.2440664 1.7949721 -0.028281898)
(5.37924 1.5942055 -0.0070539256)
(5.4297348 1.4671343 -0.0026873521)
(5.4889846 1.3074909 0.024266857)
(5.5346167 1.2703571 0.023283919)
(5.5651809 1.1990429 0.031777007)
(5.6185517 1.1085074 0.037424168)
(5.6621577 1.0030583 0.03843955)
(5.6810719 0.91308939 0.047801348)
(5.6992449 0.83690099 0.0518144)
(5.7529158 0.77364767 0.052442231)
(5.7637904 0.73483134 0.046259257)
(5.7812072 0.67417794 0.039984328)
(5.7930875 0.61089777 0.038200976)
(5.8044204 0.55537676 0.037158456)
(5.8167391 0.497138 0.036787245)
(5.8236444 0.442377 0.03590834)
(5.8277835 0.39096906 0.034778469)
(5.8326235 0.34498227 0.032581422)
(5.8364117 0.29739338 0.031074535)
(5.8362507 0.25507232 0.031359534)
(5.8359606 0.21646859 0.029427343)
(5.835503 0.1767106 0.027151246)
(5.8323775 0.14027809 0.027495386)
(5.8288544 0.10803962 0.025568015)
(5.8254596 0.075489475 0.024121394)
(5.8195846 0.042827563 0.023394322)
(5.8123118 0.013482208 0.022220627)
(5.806561 -0.012306153 0.020033071)
(5.7995143 -0.039881588 0.019205161)
(5.7918322 -0.064195156 0.01852864)
(5.7840077 -0.088984558 0.017197483)
(5.7748697 -0.1118573 0.017300738)
(5.765433 -0.13369855 0.014915999)
(5.7558735 -0.15513623 0.015084669)
(5.7458141 -0.17486813 0.013141854)
(5.7364626 -0.19296797 0.012312909)
(5.725823 -0.21196151 0.011904565)
(5.7150162 -0.22945909 0.011522407)
(5.7041242 -0.24637266 0.010704691)
(5.692578 -0.26210655 0.0098794786)
(5.6815528 -0.27695369 0.0094428878)
(5.6702852 -0.29193558 0.0087230604)
(5.6585974 -0.30534999 0.0082427159)
(5.6475445 -0.31772594 0.0079609478)
(5.6349927 -0.33036233 0.0072049641)
(5.6257559 -0.34143057 0.0065551368)
(5.6254182 -0.3375556 0.010124331)
(5.6347737 -0.32641898 0.010797306)
(5.6471854 -0.31346885 0.011689644)
(5.6578979 -0.30107817 0.012407576)
(5.6695549 -0.28765132 0.013273882)
(5.6807004 -0.27244241 0.014035608)
(5.6916559 -0.25773005 0.014924527)
(5.7035266 -0.24157657 0.016023218)
(5.7139637 -0.22433453 0.017220538)
(5.7242975 -0.20749802 0.017677171)
(5.7355878 -0.18779902 0.01827091)
(5.7455138 -0.16898938 0.01996142)
(5.7550381 -0.14821952 0.021800429)
(5.7645258 -0.12777397 0.022384436)
(5.7742387 -0.10380149 0.02507846)
(5.7819456 -0.08130616 0.025406934)
(5.7901903 -0.057773266 0.026031851)
(5.7983309 -0.031012189 0.028439279)
(5.8056525 -0.0042182845 0.029803232)
(5.8112879 0.024687711 0.032212856)
(5.8171597 0.051670297 0.032819741)
(5.8235872 0.086017845 0.034978055)
(5.8273648 0.11897688 0.036139363)
(5.8303573 0.15365949 0.03882951)
(5.8326153 0.18975667 0.039849148)
(5.8339177 0.23015872 0.041516905)
(5.8336704 0.27120128 0.043976376)
(5.832619 0.31403961 0.045517522)
(5.8299667 0.36161605 0.045955177)
(5.8255051 0.41203985 0.048930709)
(5.820304 0.46507033 0.0499603)
(5.811715 0.52307541 0.051750707)
(5.7998618 0.58206255 0.051572054)
(5.7872667 0.64928389 0.051101209)
(5.7730907 0.72343222 0.047163039)
(5.7591826 0.79293249 0.038621173)
(5.7139108 0.89598332 0.052235001)
(5.6946755 0.98691259 0.069886105)
(5.6361031 1.0873942 0.061722926)
(5.6017553 1.179222 0.058319921)
(5.5686888 1.2547018 0.052931083)
(5.4692485 1.4370447 0.02861423)
(5.4303924 1.5713463 0.025186921)
(5.3208523 1.7620104 0.0096215187)
(5.1563149 1.9155029 -0.032909373)
(5.0372189 2.016528 -0.082462022)
(4.7015152 2.4046306 -0.14991469)
(4.4376755 2.4813958 -0.25956369)
(3.5031778 2.3184996 -0.54371601)
(2.3738339 1.493651 -0.89105079)
(2.1233716 0.83108677 -1.0752424)
(1.9946744 0.8454713 -0.9759878)
(2.1696129 0.36914257 -1.2146842)
(2.2423583 0.30910219 -1.2229538)
(2.3828232 0.66432074 -1.1018553)
(2.2463668 0.98792861 -1.0852619)
(2.8462241 1.2693496 -0.79801048)
(2.7249166 0.6887778 -0.86613849)
(2.5428999 0.55268357 -1.1051305)
(2.9877585 0.67719375 -0.73466541)
(2.6680801 0.78732465 -0.98601059)
(2.5884257 0.79632767 -0.97417588)
(2.6036023 1.3142514 -0.97258618)
(2.0575365 1.1555791 -1.2115236)
(3.2884298 1.2462976 -0.6281988)
(3.1556768 1.4643643 -0.55886757)
(3.1943404 1.6383261 -0.6289924)
(3.0791309 1.7893008 -0.45364166)
(3.1693355 1.7899551 -0.3326138)
(3.104433 1.5853013 -0.39485142)
(2.6262225 1.9797883 -0.44865082)
(3.1041116 1.9173834 -0.22969111)
(3.1913383 1.8281164 -0.19846895)
(3.3386614 1.3667085 -0.15179)
(3.803929 0.68424146 -0.13966113)
(4.1556083 0.42819709 -0.10834843)
(4.3593227 0.27839604 -0.057442985)
(4.6033843 0.2028359 -0.053897482)
(5.275303 0.0090991023 0.00057608444)
(5.2985041 0.0074090847 0.00088309072)
(5.3177076 0.0054904786 0.0011631168)
(5.3323998 0.0034316689 0.0014092828)
(5.3422269 0.0013057277 0.0016149931)
(5.3470751 -0.00098591077 0.0017917815)
(5.3468628 -0.0025535698 0.0018769944)
(5.3427242 -0.004299948 0.0019562968)
(5.3342881 -0.0058962226 0.0020038266)
(5.3220921 -0.0072886224 0.0020235791)
(5.3066951 -0.0084455749 0.0020217262)
(5.2886309 -0.0093518888 0.0019991121)
(5.2684909 -0.010003141 0.0019599223)
(5.2468909 -0.010397554 0.0019087411)
(5.2492776 -0.031934273 0.0019718357)
(5.2713844 -0.030724834 0.0020292328)
(5.2920197 -0.02873157 0.0020744069)
(5.3105601 -0.025964959 0.0021024435)
(5.3264026 -0.022446945 0.0021095329)
(5.3390003 -0.018224976 0.0020966834)
(5.347814 -0.013381663 0.002054939)
(5.3522837 -0.0079887803 0.0019752337)
(5.352188 -0.0023122452 0.0018606259)
(5.347406 0.0040478246 0.0016977088)
(5.3375481 0.010549196 0.0014877029)
(5.3226753 0.016899423 0.0012314441)
(5.303083 0.022831551 0.00093499347)
(5.2793137 0.028054722 0.00060669792)
(5.2877639 0.048898145 0.00072471983)
(5.3125382 0.039661436 0.0011015279)
(5.3327762 0.029209716 0.001432229)
(5.3479691 0.01808454 0.0017085595)
(5.3578966 0.0068158295 0.001926301)
(5.3626076 -0.0041451728 0.0020893273)
(5.3623475 -0.014110066 0.0022017737)
(5.3572739 -0.02348305 0.0022717174)
(5.3477834 -0.031906003 0.0022991031)
(5.3344196 -0.039217149 0.0022953222)
(5.3177299 -0.045293193 0.0022700464)
(5.2982924 -0.05006656 0.0022251407)
(5.2767287 -0.053499244 0.0021622141)
(5.2536773 -0.055572857 0.0020860941)
(5.2602624 -0.082087761 0.0022280325)
(5.2848725 -0.079118961 0.0023370717)
(5.3079772 -0.074156064 0.0024329348)
(5.328916 -0.067226261 0.0025110083)
(5.3470442 -0.058383521 0.002570404)
(5.3617491 -0.047718574 0.0026060795)
(5.3724519 -0.035379855 0.0026132956)
(5.3785903 -0.021581487 0.0025823584)
(5.379649 -0.0067680369 0.0025025901)
(5.3753634 0.009321219 0.0023597315)
(5.3654667 0.025961458 0.0021394739)
(5.3498311 0.042526729 0.0018349331)
(5.3285928 0.058228836 0.001450951)
(5.3021983 0.072230485 0.00099412822)
(5.3238391 0.098569845 0.00142688)
(5.3525461 0.078737673 0.0019598157)
(5.3751366 0.056761692 0.0023676135)
(5.3912713 0.033841345 0.0026619062)
(5.4009346 0.011032484 0.0028599807)
(5.4043891 -0.010872876 0.0029729199)
(5.4020092 -0.031108944 0.0030196325)
(5.3942142 -0.049731049 0.0030132225)
(5.3816408 -0.066310522 0.0029700268)
(5.3649001 -0.080581086 0.0028964256)
(5.3446078 -0.092375754 0.0027962132)
(5.321419 -0.10158824 0.0026767397)
(5.2960118 -0.1081531 0.0025410489)
(5.2690759 -0.11203134 0.00239365)
(5.2795876 -0.14580753 0.0026012558)
(5.3096818 -0.14106764 0.0027874869)
(5.3382059 -0.13290227 0.0029647174)
(5.3644447 -0.12135766 0.0031285315)
(5.3876899 -0.10649258 0.0032754277)
(5.4072446 -0.088406421 0.0033976761)
(5.4224388 -0.067277894 0.003492433)
(5.4325666 -0.043493542 0.003551599)
(5.4369335 -0.017238115 0.0035407654)
(5.4348924 0.011178398 0.0034614242)
(5.4258812 0.041108289 0.0032831373)
(5.4094032 0.0715172 0.0029969144)
(5.3852262 0.10110008 0.0025810244)
(5.3535214 0.12820626 0.0020100412)
(5.3917274 0.16066223 0.0028536593)
(5.4269512 0.12437454 0.0035052662)
(5.452641 0.08563137 0.003952883)
(5.4690143 0.04653093 0.0042393695)
(5.4766726 0.0086261107 0.0044028602)
(5.476491 -0.026940069 0.0044307248)
(5.4693127 -0.059572146 0.0043707305)
(5.4560356 -0.088795445 0.0042162747)
(5.4374211 -0.11460035 0.0040408875)
(5.4142063 -0.13657741 0.0038467094)
(5.3871703 -0.15454702 0.0036317829)
(5.3570601 -0.16844503 0.0034000323)
(5.3246109 -0.17822731 0.00315729)
(5.2905424 -0.18381994 0.0029103442)
(5.300517 -0.2262431 0.0033411142)
(5.339283 -0.2199751 0.0036873028)
(5.3763352 -0.20885504 0.0040387578)
(5.4109911 -0.19298345 0.0043989471)
(5.4425232 -0.17222765 0.0047714675)
(5.4701089 -0.1464354 0.005169105)
(5.4930612 -0.11556685 0.0055507667)
(5.5103759 -0.080704317 0.0059382691)
(5.5214575 -0.041254372 0.0061852277)
(5.5249899 0.0021783782 0.0062980025)
(5.5198033 0.049231945 0.0062113472)
(5.5045343 0.098676304 0.0059248684)
(5.477963 0.14875892 0.0054077664)
(5.4392238 0.19692803 0.0045757568)
(5.4981747 0.23256881 0.0096534596)
(5.5399506 0.16995265 0.010740972)
(5.5661825 0.10690218 0.011169247)
(5.5787232 0.046272323 0.011167611)
(5.5796251 -0.010242917 0.010843469)
(5.5710141 -0.061497441 0.010276079)
(5.55453 -0.10741489 0.0095597785)
(5.5321454 -0.14760468 0.0086586439)
(5.5039912 -0.18268283 0.007692762)
(5.4706259 -0.2126556 0.0068127529)
(5.4336151 -0.23644361 0.0060233691)
(5.3939097 -0.25444041 0.0052948576)
(5.3518743 -0.26699646 0.0046649847)
(5.3079529 -0.27405643 0.0040832826)
(5.3128853 -0.32544803 0.0050408912)
(5.3626246 -0.31781828 0.0060621663)
(5.4104337 -0.30431647 0.0069832654)
(5.4560773 -0.2855232 0.0078545998)
(5.4992553 -0.2620266 0.0085272891)
(5.5363444 -0.23593877 0.010324046)
(5.5719954 -0.1895999 0.012994396)
(5.6011003 -0.14426102 0.014943732)
(5.624644 -0.091515717 0.016767315)
(5.6403609 -0.031606149 0.018469986)
(5.6463006 0.036219901 0.019954708)
(5.6396478 0.11141902 0.020941397)
(5.6170647 0.19247694 0.021114087)
(5.5747002 0.27579322 0.020218384)
(4.8766566 0.41964255 -0.01933704)
(4.9761487 0.55341034 -0.019145424)
(5.1664821 0.60256854 0.0093334294)
(5.2861007 0.61072767 0.010096782)
(5.3051969 0.58127282 0.0032730049)
(5.3822991 0.53289736 0.0053124006)
(5.4446504 0.50319168 0.0009962101)
(5.5093732 0.44966302 0.0076482521)
(5.55527 0.40825805 0.0043159876)
(5.6016286 0.35257244 0.010506765)
(5.633082 0.30519375 0.0073587157)
(5.6598538 0.2523006 0.011731851)
(5.6769345 0.20318808 0.0085868521)
(5.6894419 0.15685372 0.011813424)
(5.695213 0.11001994 0.0091220151)
(5.698441 0.069047954 0.011612673)
(5.6962166 0.02559011 0.0092188421)
(5.6928415 -0.0094498689 0.011025913)
(5.6847291 -0.048840979 0.0088895067)
(5.6764617 -0.078377936 0.010131827)
(5.6639186 -0.11364698 0.0082991045)
(5.6518866 -0.138301 0.0090576739)
(5.6359951 -0.1696971 0.0075296185)
(5.6211092 -0.1900908 0.0079008379)
(5.6029835 -0.2175273 0.0066493736)
(5.585644 -0.23385227 0.0066390522)
(5.5682384 -0.257612 0.0053565229)
(5.5525816 -0.26773164 0.0048015852)
(5.5442996 -0.27906735 0.0022978281)
(5.5459934 -0.31894339 0.0046139314)
(5.53654 -0.35244569 0.0078448477)
(5.5166483 -0.31624278 0.0086136576)
(5.5129614 -0.42766197 0.00048154289)
(5.5398303 -0.4080294 0.0018678756)
(5.5620302 -0.39119173 0.0021825152)
(5.5845411 -0.37595348 0.0019988602)
(5.5944714 -0.37950097 0.0018312707)
(5.6102153 -0.36669297 0.0015174822)
(5.6224347 -0.35483663 0.001726741)
(5.6351512 -0.34334372 0.001379915)
(5.6479326 -0.32932859 0.0013483963)
(5.6598774 -0.3190887 0.0015361494)
(5.6722586 -0.3016739 0.001180018)
(5.6823174 -0.29142037 0.0016058404)
(5.6947087 -0.27395129 0.0014797764)
(5.7045854 -0.26156654 0.0017220304)
(5.7161572 -0.24443348 0.0019916596)
(5.7255993 -0.22891743 0.0020176929)
(5.7361926 -0.21183306 0.0024619464)
(5.7453104 -0.19351826 0.0023922135)
(5.7546192 -0.17699756 0.0027569758)
(5.7636048 -0.15553909 0.0026609811)
(5.7720985 -0.13774955 0.0030452174)
(5.7804984 -0.11436978 0.0030115566)
(5.7877022 -0.094880196 0.0034856579)
(5.7951139 -0.069809724 0.0034220644)
(5.8014297 -0.046928978 0.0038896044)
(5.8074738 -0.021822734 0.0039073753)
(5.8125244 0.00425646 0.0041079628)
(5.8174775 0.029035526 0.004476075)
(5.8214706 0.06147364 0.0044247004)
(5.8245788 0.086469806 0.0050871633)
(5.8262709 0.12328329 0.0050889061)
(5.8260755 0.15163668 0.005442304)
(5.827803 0.18829219 0.0060015311)
(5.8254435 0.22571482 0.0059078154)
(5.8214247 0.26333243 0.0064968118)
(5.8178165 0.29944844 0.0068909405)
(5.8113116 0.34692139 0.0068651514)
(5.8018369 0.38811976 0.0070620327)
(5.7898403 0.43740631 0.0074355237)
(5.776253 0.4833316 0.0074203294)
(5.7583903 0.54226258 0.0068221022)
(5.7363311 0.59953662 0.0063607638)
(5.7104449 0.67070184 0.0069068057)
(5.6835461 0.73316708 0.0066999604)
(5.5995852 0.82593729 0.0014080749)
(5.4731738 0.9394866 0.0034559589)
(5.2943672 1.0321994 0.00042970522)
(5.0631506 1.0742591 -0.0066408379)
(4.7974443 1.0385483 -0.016796969)
(4.5946514 0.90442395 -0.015288444)
(4.5290347 0.67937766 -0.018528767)
(4.5604552 0.51701341 -0.025219955)
(4.6237375 0.39696133 -0.022610654)
(5.2466437 -0.010304975 0.0058427368)
(5.2461079 -0.010167215 0.010008028)
(5.2452525 -0.010035426 0.014282038)
(5.2440813 -0.0098815805 0.018557014)
(5.2425967 -0.0097293096 0.022621899)
(5.2408283 -0.0095859123 0.026421085)
(5.2388057 -0.009447604 0.029916671)
(5.2365495 -0.0093066203 0.033134051)
(5.2340691 -0.0091624273 0.036106468)
(5.2313662 -0.0090167545 0.038879878)
(5.2284354 -0.0088723835 0.0414982)
(5.2252633 -0.0087300428 0.044007611)
(5.2218301 -0.0085862727 0.046450438)
(5.2181094 -0.0084344708 0.04885561)
(5.2140653 -0.0082632108 0.051237421)
(5.2096626 -0.0080534189 0.05358002)
(5.2276615 -0.007156439 0.052286806)
(5.2325497 -0.0074054002 0.050377647)
(5.2370288 -0.0076208784 0.048368653)
(5.2411407 -0.0078192132 0.046274648)
(5.2449277 -0.0080091452 0.044083567)
(5.2484198 -0.00819648 0.041773606)
(5.2516395 -0.0083845167 0.039306143)
(5.2546012 -0.008572077 0.036639361)
(5.2573109 -0.0087563275 0.033732689)
(5.2597671 -0.0089357204 0.030543014)
(5.2619608 -0.0091093506 0.027037463)
(5.2638727 -0.0092836266 0.023194562)
(5.2654713 -0.0094611851 0.01905635)
(5.2667277 -0.0096336363 0.014680854)
(5.2676412 -0.0097743012 0.010293425)
(5.2682181 -0.0099157979 0.0060082368)
(5.2883249 -0.00927175 0.0061358353)
(5.2876917 -0.0091279329 0.010512242)
(5.2867001 -0.0089791217 0.014983082)
(5.2853272 -0.0087871176 0.019425968)
(5.2835739 -0.0085823317 0.02360376)
(5.2814687 -0.0083747083 0.027456572)
(5.2790472 -0.0081623843 0.030938735)
(5.2763282 -0.0079404937 0.034066443)
(5.2733215 -0.0077128515 0.036874515)
(5.2700301 -0.0074803407 0.039402414)
(5.2664488 -0.0072456497 0.041686818)
(5.2625634 -0.0070102102 0.043764632)
(5.2583519 -0.0067708875 0.045670246)
(5.2537833 -0.006522004 0.047415755)
(5.2488117 -0.0062582824 0.049010035)
(5.2433919 -0.0059667983 0.050437593)
(5.2561631 -0.0045058093 0.04800014)
(5.2621615 -0.0048407997 0.047087359)
(5.2676864 -0.0051544085 0.045937237)
(5.2727814 -0.0054556818 0.04456862)
(5.2774916 -0.0057452125 0.042976882)
(5.2818483 -0.0060299403 0.041161682)
(5.2858692 -0.0063125331 0.039092882)
(5.2895665 -0.0065916602 0.036738541)
(5.2929433 -0.006865089 0.034066261)
(5.2959928 -0.0071330779 0.031040346)
(5.2987078 -0.0073857922 0.027621337)
(5.3010638 -0.0076280244 0.023801093)
(5.3030197 -0.0078621954 0.019626642)
(5.3045485 -0.0080746989 0.015160174)
(5.3056411 -0.0082309285 0.010643732)
(5.3063471 -0.0083746765 0.006211448)
(5.3216969 -0.007228629 0.0062225948)
(5.3209057 -0.0070888628 0.010666574)