/*--------------------------------*- C++ -*----------------------------------*\
| =========                 |                                                 |
| \\      /  F ield         | OpenFOAM: The Open Source CFD Toolbox           |
|  \\    /   O peration     | Version:  v2012                                 |
|   \\  /    A nd           | Website:  www.openfoam.com                      |
|    \\/     M anipulation  |                                                 |
\*---------------------------------------------------------------------------*/
FoamFile
{
    version     2.0;
    format      ascii;
    class       volScalarField;
    location    "340";
    object      p;
}
// * * * * * * * * * * * * * * * * * * * * * * * * * * * * * * * * * * * * * //

dimensions      [0 2 -2 0 0 0 0];


internalField   nonuniform List<scalar> 
120951
(
-0.17995998
-0.17975458
-0.17964208
-0.18011232
-0.18030848
-0.18072356
-0.18140193
-0.18237932
-0.18364535
-0.18519332
-0.18697125
-0.18895539
-0.19111091
-0.19341466
-0.19584112
-0.19836391
-0.20095434
-0.20358259
-0.20621827
-0.20883108
-0.21139135
-0.21387067
-0.2162424
-0.21848258
-0.22056872
-0.22248035
-0.22418785
-0.22566749
-0.22687871
-0.22780819
-0.22846308
-0.22886388
-0.22907656
-0.22878985
-0.22824155
-0.22733972
-0.22603769
-0.22431243
-0.22216041
-0.21962037
-0.21670651
-0.21344265
-0.20983841
-0.20590398
-0.20164957
-0.19708735
-0.19223066
-0.18709377
-0.18169147
-0.17603887
-0.17015121
-0.16404372
-0.15773151
-0.15122945
-0.14455214
-0.13771372
-0.13072794
-0.12360803
-0.1163667
-0.10901612
-0.1015679
-0.094033167
-0.08642262
-0.078746357
-0.071013994
-0.063235006
-0.055418633
-0.047573928
-0.039709855
-0.031835365
-0.023959514
-0.016091575
-0.0082411058
-0.00041797458
0.0073675081
0.015104476
0.022781514
0.03038658
0.037906952
0.045329249
0.052639352
0.059822462
0.066863082
0.073745038
0.080451548
0.086965264
0.09326835
0.099342573
0.10516945
0.11073039
0.1160069
0.12098081
0.12563481
0.1299527
0.13392053
0.13752405
0.14075088
0.1435694
0.14596906
0.14789026
0.14935674
0.15036055
0.15098344
0.15128776
0.15308765
0.15655613
0.1622161
0.17034281
0.18099355
0.19416128
0.20955213
0.2270593
0.2464987
0.26777433
0.29076604
0.31532856
0.3412822
0.36843611
0.39651301
0.42522939
0.45427143
0.48329364
0.51192767
0.53979685
0.56650433
0.59164658
0.61465867
0.63504473
0.65202031
0.66523836
0.67456887
0.6802534
0.68303509
0.68172816
0.67926566
0.67520967
0.66942178
0.66182093
0.65248228
0.64163895
0.6294399
0.61606427
0.60163104
0.58625808
0.57005893
0.55314861
0.53563911
0.51763774
0.49924515
0.4805542
0.46164977
0.44260864
0.42349955
0.4043836
0.38531457
0.36633947
0.34749903
0.32882742
0.31035357
0.29210208
0.27409288
0.25634183
0.23886124
0.22166049
0.20474636
0.18812339
0.17179421
0.15575994
0.14002059
0.12457543
0.10942329
0.09456286
0.079993036
0.065713245
0.051723731
0.038025711
0.024621613
0.011515371
-0.0012874417
-0.013779544
-0.025951865
-0.037793537
-0.049291943
-0.060432774
-0.07120025
-0.081577205
-0.091545183
-0.10108466
-0.11017584
-0.11879965
-0.12693366
-0.13455887
-0.14165662
-0.1482098
-0.15420425
-0.1596255
-0.16446012
-0.16866965
-0.17223374
-0.1750865
-0.17724285
-0.17873209
-0.17884198
-0.17734342
-0.17518179
-0.17231677
-0.16875943
-0.16454582
-0.15971066
-0.15428102
-0.14827558
-0.1417097
-0.13459892
-0.12696036
-0.1188129
-0.11017599
-0.10106928
-0.091514301
-0.081531186
-0.071139121
-0.060356595
-0.049200787
-0.037687421
-0.025830914
-0.013643843
-0.0011371289
0.011680121
0.024800709
0.038219121
0.051931491
0.065935508
0.080230062
0.094814973
0.10969086
0.12485904
0.14032109
0.15607825
0.17213138
0.1884806
0.20512496
0.22206203
0.23928748
0.25679447
0.2745738
0.29261354
0.31089804
0.32940742
0.34811723
0.36699872
0.38601783
0.4051339
0.42429995
0.44346237
0.46256013
0.48152445
0.50027844
0.51873697
0.53680711
0.55438811
0.57137242
0.58764746
0.60309758
0.61760547
0.63105028
0.64329908
0.65419753
0.66356404
0.6712275
0.67707411
0.6811769
0.6836823
0.68489625
0.69088183
0.70194195
0.71910427
0.74324333
0.77526992
0.81563395
0.86531172
0.92549814
0.99797875
1.0851822
1.1900755
1.3172231
1.4702321
1.6648013
1.9215148
2.2421111
2.6329595
3.1137944
3.7083177
-1.1107094
-1.133987
-1.154544
-1.1721403
-1.186527
-1.197495
-1.2048429
-1.2080977
-1.2069601
-1.2017169
-1.1921179
-1.177999
-1.1592998
-1.1360613
-1.1084232
-1.0766301
-1.0410386
-1.0021168
-0.96043355
-0.91663875
-0.8714664
-0.82551349
-0.77948719
-0.73415065
-0.69003336
-0.64759811
-0.60719284
-0.56906494
-0.53336588
-0.5001639
-0.46945834
-0.4411946
-0.41527731
-0.39158296
-0.36997037
-0.35028932
-0.33238724
-0.31611428
-0.30132681
-0.28789012
-0.27567961
-0.2645815
-0.25449297
-0.24532207
-0.23698729
-0.22941668
-0.22254722
-0.21632391
-0.21069895
-0.20563092
-0.20108393
-0.19702688
-0.19343307
-0.19028082
-0.18755472
-0.1852472
-0.18335802
-0.18188939
-0.18082587
-0.18012951
-0.17921833
-0.17771351
-0.17553499
-0.17264836
-0.16906955
-0.16483299
-0.15997355
-0.15451571
-0.14847819
-0.14187681
-0.13472779
-0.12704876
-0.11885883
-0.11017857
-0.10102711
-0.091426684
-0.081397504
-0.070958959
-0.060129596
-0.04892701
-0.037367324
-0.025464928
-0.013232368
-0.00068062087
0.012181253
0.025346237
0.038808866
0.052565523
0.066614263
0.080954258
0.095585701
0.11050956
0.12572758
0.14124183
0.15705404
0.17316545
0.18957649
0.20628688
0.22329483
0.24059641
0.25818512
0.2760522
0.29418646
0.31257291
0.33119203
0.35001966
0.36902771
0.38818261
0.40744413
0.42676539
0.44609308
0.46536646
0.4845167
0.50346649
0.52213001
0.54041363
0.55821558
0.57542654
0.5919316
0.607612
0.62234626
0.63600916
0.64846448
0.65955838
0.66910868
0.6769373
0.68293844
0.68715355
0.68975068
0.70085186
0.71798116
0.74207771
0.77387178
0.81400092
0.86334987
0.92318141
0.9952277
1.0818534
1.1859693
1.3119905
1.4634149
1.6554316
1.9088444
2.2265603
2.6181245
3.1080015
3.753517
2.4895087
2.4645429
2.3322629
2.1391147
1.9310252
1.7267528
1.5428678
1.391308
1.2664608
1.157502
1.063635
0.98312087
0.91433298
0.85584188
0.80641677
0.76506416
0.73103034
0.70380052
0.68300804
0.6681836
0.65859413
0.65351575
0.63637668
0.61593043
0.59278558
0.56752012
0.54064657
0.51260663
0.48380477
0.45462687
0.42544183
0.39659614
0.36840519
0.34115323
0.31510038
0.29045028
0.26738288
0.24604503
0.22655844
0.20904191
0.19363982
0.18050617
0.16981286
0.16165755
0.15595989
0.15247305
0.15073619
0.14885558
0.14527354
0.13974316
0.1320698
0.12209835
0.10987422
0.095344146
0.078470982
0.059149078
0.037258409
0.012672682
-0.014727315
-0.045051288
-0.078394371
-0.11483279
-0.15442073
-0.19717527
-0.24308993
-0.29211103
-0.34413817
-0.39902444
-0.45657156
-0.51652832
-0.5785915
-0.64240973
-0.70758512
-0.77370325
-0.84027134
-0.90671046
-0.97254172
-0.97393165
-0.90777284
-0.84101425
-0.77413143
-0.70769373
-0.64218905
-0.57805727
-0.51570283
-0.45548225
-0.39770213
-0.34261566
-0.29042173
-0.24126856
-0.19525617
-0.15243023
-0.11280244
-0.076342636
-0.042997855
-0.012688053
0.014684261
0.039232711
0.061080157
0.080351841
0.097166182
0.11162126
0.12378262
0.13368329
0.14134537
0.14687534
0.15049463
0.15399282
0.15039452
0.14490517
0.1372978
0.1274735
0.11540735
0.10106166
0.084362404
0.065204697
0.043464358
0.019010691
-0.0082840747
-0.038542803
-0.07187425
-0.10836132
-0.14807163
-0.19103825
-0.23725626
-0.28668049
-0.3392174
-0.39472164
-0.45299187
-0.51377086
-0.57674531
-0.64154887
-0.7077619
-0.77492691
-0.84255721
-0.91006851
-0.9769691
-0.9821528
-0.91398389
-0.84517005
-0.77623979
-0.70781275
-0.64039679
-0.5744688
-0.51045692
-0.44874328
-0.38965522
-0.33345675
-0.28035247
-0.23048204
-0.18393054
-0.14073789
-0.10089941
-0.064368884
-0.031068367
-0.0008963805
0.026267128
0.050556265
0.072109231
0.091064991
0.1075604
0.12171068
0.13360155
0.14328139
0.15078083
0.15619268
0.15973645
0.16796846
0.16452183
0.15924556
0.15192947
0.1424756
0.13084456
0.11697866
0.10077701
0.082116037
0.060849252
0.036819134
0.0098684853
-0.020154507
-0.053390166
-0.089960798
-0.12996415
-0.17346327
-0.22048259
-0.27099758
-0.32493115
-0.3821453
-0.44242852
-0.50551492
-0.57106495
-0.63867147
-0.70787592
-0.77816838
-0.84901391
-0.91975124
-0.98979381
-1.0000767
-0.92750672
-0.85418463
-0.78075777
-0.70793659
-0.63630053
-0.56641648
-0.49878806
-0.43385026
-0.3719525
-0.31338486
-0.25835657
-0.20699888
-0.15937527
-0.11549126
-0.075297324
-0.038703269
-0.0055837574
0.02421207
0.050851758
0.074512697
0.095375076
0.1136171
0.1294036
0.14287445
0.15414602
0.16328808
0.17035101
0.17543798
0.17874834
0.19197001
0.18883308
0.1839927
0.17725628
0.16851704
0.15771124
0.14475363
0.12951541
0.11183256
0.091512114
0.068351334
0.042143359
0.012677194
-0.020250195
-0.056825798
-0.097214054
-0.14154147
-0.18989001
-0.24228175
-0.29867244
-0.35894063
-0.42287212
-0.49016383
-0.56043128
-0.63319878
-0.7079189
-0.78396425
-0.86068879
-0.93731051
-0.94928416
-0.86860921
-0.78784759
-0.70784667
-0.62933546
-0.55301258
-0.47949857
-0.40932549
-0.34292309
-0.28060746
-0.22259533
-0.16899577
-0.11982543
-0.075024802
-0.03447058
0.0020135355
0.034638879
0.063636055
0.089257114
0.11175434
0.13137365
0.14834994
0.16289978
0.17521134
0.18543559
0.19367277
0.20000349
0.20453886
0.2074705
0.22509269
0.22240689
0.21824964
0.21241749
0.20479054
0.1952769
0.18375577
0.17005618
0.15396362
0.13523089
0.11358185
0.08872757
0.060368127
0.028201156
-0.0080668203
-0.048713685
-0.093980567
-0.14404202
-0.19900456
-0.2588889
-0.32360698
-0.39294842
-0.46656726
-0.54398595
-0.62460228
-0.70770504
-0.79249191
-0.87811095
-0.96364033
-0.98069993
-0.88939522
-0.79796675
-0.7074549
-0.61886062
-0.53311787
-0.45105417
-0.37336225
-0.30057929
-0.23307872
-0.17107263
-0.11461119
-0.063625739
-0.017955931
0.022667051
0.058559443
0.090073103
0.1175737
0.14143018
0.16200145
0.17962788
0.19462526
0.20727785
0.21783045
0.22647939
0.23336869
0.23860895
0.24232834
0.24472483
0.26624302
0.26418451
0.26098279
0.25644628
0.25043655
0.24282242
0.23343552
0.22205271
0.2083975
0.19214674
0.17293659
0.15036791
0.12401259
0.093421837
0.058138849
0.017715891
-0.028262372
-0.080150603
-0.13822
-0.20260053
-0.27328375
-0.35006781
-0.43254803
-0.52011152
-0.61194884
-0.70708232
-0.80440693
-0.90273325
-1.0008649
-1.0246774
-0.91850925
-0.81201184
-0.70659176
-0.60367873
-0.50460177
-0.41053403
-0.32243698
-0.24101976
-0.166722
-0.099726136
-0.039979834
0.012750716
0.058852158
0.098808044
0.13316165
0.16248079
0.18733117
0.20825669
0.22576587
0.24032395
0.25234799
0.26220296
0.27019852
0.27658558
0.28155779
0.28526763
0.28786306
0.28952538
0.31442719
0.31322395
0.31133144
0.3085833
0.30482328
0.29987774
0.2935281
0.28549601
0.27543851
0.26294704
0.24754726
0.22870056
0.20580623
0.17820834
0.14520933
0.10609173
0.060149648
0.0067313443
-0.054707599
-0.12454269
-0.20291906
-0.28968922
-0.38437684
-0.4861484
-0.59384212
-0.70602803
-0.82107899
-0.93725472
-1.0528668
-0.95963408
-0.83198617
-0.70545586
-0.58218933
-0.46421117
-0.3532886
-0.25085241
-0.15790381
-0.074953797
-0.0020895194
0.060974875
0.11480885
0.1601739
0.19794206
0.22902663
0.25433019
0.27470847
0.29094766
0.30375231
0.31374077
0.32144662
0.32732209
0.33174185
0.33500965
0.33736725
0.3390081
0.34009422
0.34077084
0.36833963
0.36826235
0.36809334
0.36771426
0.3669629
0.36562911
0.36345141
0.36010499
0.35518721
0.34820569
0.33856804
0.32557179
0.30839845
0.2861129
0.2576717
0.22194467
0.17775436
0.12393933
0.059442455
-0.016580882
-0.10462614
-0.20470743
-0.31629936
-0.43817369
-0.56853475
-0.70515102
-0.84543612
-0.98671212
-0.86191532
-0.70506002
-0.55233943
-0.40712707
-0.27216277
-0.14970845
-0.041382642
0.052293235
0.13150399
0.19705627
0.25019012
0.29236589
0.32512731
0.34998551
0.36834774
0.38147689
0.39047455
0.39628016
0.39968002
0.40132165
0.40173049
0.40132888
0.40045584
0.39938661
0.3983427
0.3974815
0.39688901
0.4261338
0.4274677
0.42947196
0.43210176
0.43521129
0.43857474
0.44191219
0.44488164
0.44705294
0.44787908
0.44666833
0.44255707
0.43448378
0.42116702
0.40109315
0.37252187
0.33352247
0.28205045
0.21609414
0.13383447
0.034024941
-0.083781052
-0.21947028
-0.37075948
-0.5345849
-0.70706201
-0.88386826
-0.70704741
-0.5110836
-0.32593527
-0.15623231
-0.0051568883
0.12423024
0.2308092
0.31569841
0.38100152
0.42938449
0.46361403
0.48638624
0.50015388
0.5070487
0.50886146
0.50705811
0.50281342
0.4970523
0.49049159
0.48368044
0.47703934
0.47089855
0.4655306
0.46115567
0.45789914
0.4557552
0.48540278
0.48841918
0.49302885
0.49929801
0.50713222
0.51632927
0.52663965
0.53776481
0.54931818
0.56077643
0.5714278
0.58031588
0.58617717
0.58737243
0.58182016
0.56694199
0.53964818
0.49640122
0.43339642
0.34613527
0.23340126
0.094427197
-0.071783389
-0.26359307
-0.47555628
-0.70088558
-0.6960448
-0.43150111
-0.18288148
0.038978247
0.22551206
0.37436185
0.48829702
0.5727543
0.63118208
0.66643062
0.68386766
0.68814687
0.68311601
0.67183887
0.65667486
0.63939934
0.62131678
0.60336659
0.5862109
0.5703089
0.55598171
0.54347115
0.53298442
0.52469083
0.51864176
0.51470102
0.54325341
0.54815691
0.55571117
0.56613149
0.57942303
0.59546647
0.61411945
0.63522686
0.65857223
0.68381045
0.71039078
0.73746343
0.76376344
0.78745657
0.80596379
0.81573424
0.8119045
0.78916463
0.74380687
0.67030344
0.55616001
0.39209642
0.17539447
-0.088385988
-0.38609106
-0.34093947
0.021744476
0.34105818
0.59669492
0.78101106
0.89834696
0.95891299
0.98000607
0.97913998
0.96355766
0.93553996
0.90008618
0.86131916
0.82188889
0.78355535
0.74742065
0.71414335
0.68408222
0.65740652
0.63418202
0.61444308
0.59824232
0.58563064
0.57653188
0.57064319
0.59641728
0.60329787
0.61394719
0.62876586
0.647916
0.67143338
0.69938067
0.73188013
0.76906763
0.81102164
0.85767524
0.90869648
0.9633282
1.0201146
1.0766308
1.1283598
1.1750273
1.2127755
1.2206332
1.1759864
1.0602409
0.85434836
0.5463023
0.14898978
1.1844508
1.4142872
1.5181905
1.5311078
1.4863073
1.4051198
1.3126896
1.2263385
1.1453053
1.0675714
0.9958594
0.93095128
0.87305139
0.82200494
0.77747673
0.73906477
0.70638118
0.67911326
0.65705992
0.64008265
0.62792083
0.62006727
0.6409997
0.64977584
0.66335246
0.68235487
0.70714949
0.73798744
0.77522445
0.81938934
0.8711635
0.9313411
1.0007707
1.0802503
1.170499
1.2710615
1.3837639
1.5163397
1.6616128
1.7967867
1.9008114
1.942901
1.8690757
-0.33295204
-0.37995598
-0.42694635
-0.47206395
-0.50829702
-0.53239755
-0.55062044
-0.56710292
-0.58102264
-0.59286624
-0.60285594
-0.61124639
-0.61825455
-0.62407227
-0.62886028
-0.6327461
-0.63583219
-0.63822475
-0.63996667
-0.64111509
-0.64179875
-0.64205276
-0.64137945
-0.64019564
-0.63851233
-0.63628834
-0.63354726
-0.63033274
-0.62669109
-0.6226575
-0.61826169
-0.61353216
-0.6084986
-0.60319213
-0.59764443
-0.59188757
-0.58595263
-0.57987044
-0.57367066
-0.56738159
-0.56103038
-0.55464268
-0.54824306
-0.54185488
-0.53550006
-0.52919972
-0.52297412
-0.51684253
-0.51082388
-0.50493653
-0.49919867
-0.49362836
-0.48824372
-0.48306301
-0.47810455
-0.47338705
-0.46892926
-0.46475002
-0.46086807
-0.45730146
-0.45406753
-0.45118231
-0.44866001
-0.44651234
-0.44474803
-0.44337223
-0.44238594
-0.44178547
-0.44156221
-0.44170237
-0.44218701
-0.44299219
-0.44408942
-0.44544606
-0.44702614
-0.44879111
-0.45070066
-0.45271363
-0.45478878
-0.45688578
-0.45896588
-0.46099265
-0.46293259
-0.46475526
-0.46643263
-0.46793717
-0.46923931
-0.47031006
-0.47112792
-0.47169734
-0.47202869
-0.4721964
-0.45247669
-0.43361224
-0.41562018
-0.39851093
-0.38228906
-0.36695415
-0.3525017
-0.33892384
-0.32621003
-0.31434774
-0.30332301
-0.29312081
-0.28372559
-0.27512135
-0.26729173
-0.26022008
-0.25388893
-0.2482833
-0.24339247
-0.23922802
-0.23579463
-0.23312931
-0.2311953
-0.22993637
-0.22927235
-0.2290015
-0.22968556
-0.23095614
-0.23289557
-0.23556719
-0.23898997
-0.24314896
-0.2480314
-0.25363446
-0.25996559
-0.26703845
-0.27486925
-0.28347463
-0.29287105
-0.30307463
-0.31410129
-0.32596619
-0.33868333
-0.35226542
-0.36672315
-0.38206451
-0.39829418
-0.4154127
-0.43341593
-0.45229367
-0.45192769
-0.45130099
-0.45039925
-0.44921642
-0.44777419
-0.44610251
-0.44423154
-0.44218886
-0.44000208
-0.43770093
-0.43531807
-0.43288894
-0.43045128
-0.42804429
-0.42570804
-0.42348252
-0.42140691
-0.41951884
-0.41785354
-0.41644316
-0.41531604
-0.41449635
-0.41400366
-0.41385276
-0.41405366
-0.41461178
-0.41552814
-0.41679985
-0.41842059
-0.42038112
-0.42266983
-0.42527321
-0.42817643
-0.43136386
-0.4348191
-0.43852558
-0.44246667
-0.44662581
-0.45098658
-0.45553278
-0.46024818
-0.46511667
-0.47012201
-0.47524777
-0.48047703
-0.48579258
-0.49117629
-0.49660923
-0.5020717
-0.50754273
-0.51300014
-0.51842062
-0.52377964
-0.52905137
-0.53420869
-0.53922345
-0.54406695
-0.54870973
-0.55312242
-0.55727618
-0.56114331
-0.56469718
-0.56791
-0.5707488
-0.57317113
-0.57513733
-0.57662633
-0.57767825
-0.57827179
-0.51624814
-0.51573799
-0.51482538
-0.51354067
-0.51184549
-0.50975774
-0.50731278
-0.50454914
-0.50149689
-0.49818148
-0.49462729
-0.49085962
-0.48690472
-0.48278921
-0.47853983
-0.4741824
-0.46974219
-0.46524343
-0.4607093
-0.45616158
-0.45162103
-0.44710728
-0.44263877
-0.43823297
-0.4339065
-0.42967523
-0.42555429
-0.4215586
-0.41770265
-0.41400065
-0.41046676
-0.40711526
-0.40396045
-0.40101671
-0.39829859
-0.39582062
-0.39359713
-0.39164217
-0.38996912
-0.38859048
-0.38751733
-0.38675884
-0.38632207
-0.3862112
-0.38642706
-0.38696679
-0.38782357
-0.38898625
-0.39043929
-0.39216276
-0.39413248
-0.39632046
-0.39869522
-0.40122255
-0.40386597
-0.40658752
-0.40934856
-0.41211042
-0.41483518
-0.41748634
-0.4200296
-0.42243335
-0.42466872
-0.42670871
-0.42852587
-0.4300897
-0.43136963
-0.43234382
-0.43301989
-0.41499087
-0.41427244
-0.41323609
-0.41187267
-0.41020405
-0.40826115
-0.40607459
-0.40367149
-0.40107813
-0.39832236
-0.39543464
-0.39244799
-0.38939752
-0.38631972
-0.38325175
-0.38023075
-0.37729335
-0.37447465
-0.37180784
-0.36932349
-0.36704907
-0.36500855
-0.36322204
-0.36170563
-0.36047131
-0.35952716
-0.35887756
-0.35852343
-0.35846253
-0.35868996
-0.35919868
-0.35997985
-0.36102321
-0.36231756
-0.36385102
-0.36561136
-0.36758613
-0.36976277
-0.37212882
-0.37467193
-0.37737975
-0.38024003
-0.38324053
-0.38636873
-0.38961183
-0.39295669
-0.39638978
-0.39989676
-0.40346256
-0.40707125
-0.41070583
-0.41434832
-0.41797968
-0.42157974
-0.42512717
-0.42859993
-0.43197509
-0.43522904
-0.43833819
-0.44127905
-0.444029
-0.44656631
-0.44886811
-0.45090762
-0.45265054
-0.4540663
-0.45514032
-0.45590863
-0.45633285
-0.39882819
-0.398491
-0.39786945
-0.39700909
-0.39587642
-0.39448281
-0.39285372
-0.39101881
-0.38900143
-0.38682158
-0.38449827
-0.38205121
-0.37950081
-0.37686745
-0.37417151
-0.37143273
-0.36867005
-0.36590159
-0.3631445
-0.36041492
-0.35772807
-0.3550982
-0.35253875
-0.35006235
-0.347681
-0.34540604
-0.34324856
-0.34121922
-0.33932854
-0.33758688
-0.33600463
-0.33459223
-0.33336017
-0.33231901
-0.33147937
-0.33085169
-0.33044628
-0.33027293
-0.33034078
-0.33065802
-0.33123141
-0.33206606
-0.33316491
-0.3345284
-0.33615412
-0.33803642
-0.34016623
-0.34253084
-0.3451138
-0.347895
-0.35085083
-0.35395454
-0.35717649
-0.36048473
-0.36384544
-0.36722359
-0.37058359
-0.37388984
-0.37710741
-0.38020266
-0.38314395
-0.38590204
-0.38845018
-0.39076297
-0.39281378
-0.39457206
-0.3960067
-0.39709603
-0.39785051
-0.38160243
-0.38081769
-0.37968365
-0.37818879
-0.3763544
-0.37421165
-0.3717909
-0.36911813
-0.36621781
-0.3631155
-0.35983912
-0.35641889
-0.35288691
-0.34927655
-0.34562175
-0.3419565
-0.33831426
-0.33472742
-0.33122667
-0.3278406
-0.3245952
-0.32151358
-0.31861573
-0.31591826
-0.31343441
-0.31117408
-0.309144
-0.30734792
-0.30578695
-0.30445986
-0.30336337
-0.30249256
-0.30184121
-0.30140209
-0.30116732
-0.30112851
-0.30127708
-0.30160428
-0.30210137
-0.30275967
-0.30357055
-0.30452549
-0.30561597
-0.30683342
-0.30816914
-0.30961423
-0.31115945
-0.31279514
-0.31451107
-0.31629632
-0.31813931
-0.32002764
-0.32194812
-0.32388668
-0.32582832
-0.32775737
-0.32965736
-0.33151131
-0.33330209
-0.33501258
-0.33662606
-0.33812632
-0.33949645
-0.34071659
-0.34176197
-0.34261217
-0.34325926
-0.34373416
-0.34398447
-0.29199947
-0.2918352
-0.29150481
-0.29106733
-0.29049441
-0.28979108
-0.28897257
-0.28805879
-0.28706583
-0.28600749
-0.28489712
-0.28374832
-0.28257503
-0.28139105
-0.28020986
-0.2790446
-0.27790771
-0.27681116
-0.27576582
-0.27478204
-0.27386941
-0.27303685
-0.27229285
-0.27164524
-0.27110147
-0.27066858
-0.27035343
-0.27016278
-0.27010335
-0.27018184
-0.27040499
-0.27077967
-0.27131283
-0.27201146
-0.27288252
-0.27393286
-0.27516905
-0.27659718
-0.27822266
-0.28004997
-0.28208231
-0.28432131
-0.2867667
-0.28941599
-0.29226428
-0.29530391
-0.29852433
-0.30191194
-0.30545005
-0.30911892
-0.31289604
-0.31675623
-0.32067202
-0.32461398
-0.32855122
-0.33245181
-0.33628343
-0.34001376
-0.34361105
-0.34704474
-0.35028606
-0.35330848
-0.35608768
-0.35860014
-0.3608206
-0.36271902
-0.36426433
-0.36543572
-0.36624567
-0.35177519
-0.35094444
-0.3497422
-0.34815504
-0.34620326
-0.34391765
-0.34132785
-0.33845838
-0.33533173
-0.33197099
-0.32840132
-0.32465004
-0.32074614
-0.31671975
-0.31260157
-0.30842234
-0.30421237
-0.30000115
-0.29581676
-0.29168557
-0.28763187
-0.28367757
-0.27984205
-0.27614202
-0.27259123
-0.26920077
-0.26597914
-0.26293219
-0.26006357
-0.2573749
-0.25486608
-0.25253547
-0.25038016
-0.24839639
-0.24657978
-0.24492545
-0.24342822
-0.24208279
-0.24088381
-0.23982601
-0.23890421
-0.23811338
-0.23744858
-0.23690486
-0.23647736
-0.23616118
-0.23595134
-0.23584259
-0.23582937
-0.23590566
-0.23606508
-0.23630083
-0.23660533
-0.23697075
-0.23738823
-0.2378485
-0.23834173
-0.2388578
-0.23938617
-0.23991616
-0.24043728
-0.24093893
-0.24141048
-0.24183957
-0.2422112
-0.24251532
-0.24274967
-0.24293899
-0.24302061
-0.19714648
-0.19713996
-0.19708647
-0.19704773
-0.19700411
-0.19694974
-0.19689324
-0.19684451
-0.19681272
-0.19680552
-0.19683024
-0.19689464
-0.19700613
-0.19717206
-0.19739938
-0.1976947
-0.19806418
-0.1985135
-0.19904779
-0.19967175
-0.20038965
-0.20120539
-0.20212254
-0.20314449
-0.20427432
-0.20551512
-0.20686993
-0.20834179
-0.20993391
-0.21164951
-0.21349203
-0.21546503
-0.21757221
-0.21981735
-0.22220413
-0.22473621
-0.22741687
-0.23024901
-0.2332348
-0.23637568
-0.23967189
-0.24312217
-0.24672374
-0.25047191
-0.25435995
-0.25837872
-0.26251676
-0.2667602
-0.27109243
-0.27549444
-0.27994503
-0.28442079
-0.28889644
-0.29334517
-0.29773898
-0.30204904
-0.30624621
-0.31030137
-0.314186
-0.31787261
-0.32133537
-0.32455044
-0.32749593
-0.33015043
-0.33249014
-0.33448597
-0.33610749
-0.33733496
-0.33818264
-0.32545705
-0.32459579
-0.32334793
-0.3216985
-0.31966667
-0.31728242
-0.31457426
-0.31156522
-0.30827567
-0.30472631
-0.30093964
-0.29694008
-0.29275364
-0.28840732
-0.28392866
-0.2793453
-0.27468459
-0.26997311
-0.26523644
-0.2604988
-0.25578268
-0.25110865
-0.24649525
-0.24195888
-0.23751349
-0.23317083
-0.22894056
-0.22483013
-0.22084517
-0.21698949
-0.21326555
-0.20967433
-0.20621581
-0.20288923
-0.19969312
-0.19662559
-0.19368448
-0.19086755
-0.18817253
-0.18559724
-0.18313961
-0.18079778
-0.1785701
-0.17645503
-0.17445125
-0.1725575
-0.17077258
-0.16909542
-0.16752476
-0.16605928
-0.16469743
-0.16343749
-0.16227736
-0.16121466
-0.16024662
-0.15937004
-0.15858142
-0.15787685
-0.15725207
-0.15670263
-0.1562238
-0.15581086
-0.15545897
-0.15516264
-0.15491561
-0.15471669
-0.15457108
-0.15449694
-0.1544225
-0.1148719
-0.11501672
-0.11521019
-0.1155286
-0.11595594
-0.11648461
-0.11711119
-0.11783801
-0.11866726
-0.11960106
-0.12064156
-0.12179072
-0.12305021
-0.12442134
-0.12590512
-0.12750215
-0.12921287
-0.13103725
-0.1329751
-0.13502598
-0.13718933
-0.13946436
-0.14185034
-0.14434649
-0.14695203
-0.14966628
-0.15248878
-0.15541929
-0.15845777
-0.16160434
-0.16485941
-0.16822359
-0.17169766
-0.17528251
-0.17897902
-0.18278794
-0.18670979
-0.19074475
-0.19489236
-0.19915137
-0.20351962
-0.20799366
-0.21256871
-0.21723837
-0.22199452
-0.22682713
-0.23172423
-0.23667181
-0.2416538
-0.24665208
-0.25164671
-0.25661609
-0.26153708
-0.2663853
-0.2711355
-0.27576174
-0.28023783
-0.28453773
-0.28863588
-0.29250772
-0.29613018
-0.29948204
-0.30254379
-0.30529607
-0.30771663
-0.30977759
-0.31144939
-0.31271348
-0.31358543
-0.30255356
-0.30167325
-0.30039639
-0.29870694
-0.29662277
-0.29417295
-0.29138475
-0.28827962
-0.28487596
-0.28119216
-0.2772482
-0.27306586
-0.26866834
-0.26407977
-0.25932485
-0.25442835
-0.24941486
-0.24430846
-0.23913229
-0.23390848
-0.22865779
-0.22339951
-0.2181513
-0.21292892
-0.20774641
-0.20261589
-0.19754769
-0.19255046
-0.18763128
-0.18279578
-0.17804831
-0.17339208
-0.16882947
-0.16436205
-0.15999089
-0.15571671
-0.15154006
-0.14746129
-0.14348084
-0.13959925
-0.13581725
-0.13213581
-0.12855627
-0.12508015
-0.12170918
-0.11844547
-0.11529132
-0.11224936
-0.1093223
-0.10651284
-0.10382376
-0.10125796
-0.098818155
-0.09650703
-0.094327133
-0.092280676
-0.090369683
-0.088595914
-0.086960732
-0.085465131
-0.084109639
-0.082894545
-0.081820219
-0.08088758
-0.080098101
-0.079459302
-0.078980806
-0.078676301
-0.078466619
-0.04515445
-0.045422975
-0.045829586
-0.046454742
-0.047287494
-0.048316187
-0.04952975
-0.050923023
-0.052492273
-0.05423486
-0.056148287
-0.058229729
-0.060475795
-0.062882628
-0.065445965
-0.068161306
-0.071024006
-0.074029183
-0.077171893
-0.080447239
-0.083850289
-0.087376286
-0.091020675
-0.094778941
-0.098646843
-0.10262051
-0.10669631
-0.11087108
-0.11514191
-0.1195061
-0.12396139
-0.1285058
-0.13313754
-0.137855
-0.14265654
-0.14754051
-0.15250504
-0.15754797
-0.16266662
-0.16785763
-0.17311685
-0.17843912
-0.18381808
-0.18924607
-0.19471397
-0.20021119
-0.2057255
-0.21124297
-0.21674807
-0.22222363
-0.22765101
-0.23301023
-0.23828018
-0.24343875
-0.24846305
-0.25332973
-0.25801533
-0.26249649
-0.26675038
-0.27075506
-0.27449001
-0.2779364
-0.2810769
-0.28389402
-0.2863671
-0.28846946
-0.29017259
-0.29145924
-0.29234595
-0.28294643
-0.28205504
-0.28076115
-0.2790477
-0.27693134
-0.27444005
-0.27159993
-0.2684309
-0.26494955
-0.26117225
-0.25711672
-0.25280235
-0.24824987
-0.2434809
-0.23851755
-0.23338209
-0.22809668
-0.22268312
-0.2171625
-0.21155508
-0.20588003
-0.2001554
-0.1943979
-0.18862279
-0.18284387
-0.17707343
-0.17132232
-0.16559999
-0.15991464
-0.15427325
-0.14868173
-0.14314504
-0.13766744
-0.13225262
-0.12690373
-0.12162366
-0.11641516
-0.11128094
-0.1062238
-0.10124663
-0.09635261
-0.091545236
-0.086828371
-0.08220625
-0.077683439
-0.073264911
-0.068956063
-0.064762627
-0.06069072
-0.056746652
-0.052937007
-0.049268586
-0.045748317
-0.04238317
-0.039180126
-0.036146097
-0.03328786
-0.030611933
-0.028124428
-0.025830905
-0.023736266
-0.021844968
-0.020161744
-0.018692838
-0.017446739
-0.016437787
-0.015679494
-0.015179725
-0.014858009
0.012518486
0.01214881
0.011564953
0.010686749
0.0095190959
0.0080771972
0.0063782785
0.0044338489
0.0022523821
-0.0001595338
-0.0027956979
-0.0056493713
-0.0087130606
-0.011978636
-0.015437535
-0.019080955
-0.022899969
-0.026885664
-0.031029203
-0.035321839
-0.039755047
-0.044320592
-0.049010585
-0.05381744
-0.058733984
-0.06375346
-0.068869608
-0.074076597
-0.07936903
-0.08474188
-0.090190508
-0.095710672
-0.10129839
-0.10694986
-0.11266133
-0.11842907
-0.12424925
-0.13011777
-0.13603011
-0.14198116
-0.14796522
-0.15397576
-0.16000522
-0.16604497
-0.17208522
-0.17811499
-0.18412191
-0.19009232
-0.19601125
-0.20186242
-0.20762834
-0.21329056
-0.21882966
-0.22422546
-0.22945721
-0.23450379
-0.23934407
-0.24395707
-0.2483223
-0.25242014
-0.25623226
-0.25974195
-0.26293376
-0.26579193
-0.2682972
-0.27042407
-0.27214504
-0.2734441
-0.27433875
-0.26650634
-0.26560963
-0.26430714
-0.26258092
-0.26044643
-0.25793067
-0.25505859
-0.2518488
-0.24831635
-0.24447582
-0.240343
-0.23593524
-0.23127115
-0.22637019
-0.22125229
-0.21593757
-0.21044615
-0.20479787
-0.19901204
-0.19310732
-0.18710151
-0.18101155
-0.17485334
-0.16864155
-0.16238974
-0.15611024
-0.14981424
-0.14351175
-0.13721178
-0.13092239
-0.12465069
-0.11840303
-0.11218524
-0.10600264
-0.09986015
-0.093762462
-0.087714216
-0.081720083
-0.075784818
-0.069913382
-0.064111019
-0.058383397
-0.052736601
-0.047177135
-0.041711964
-0.036348545
-0.03109486
-0.025959407
-0.020951118
-0.016079316
-0.011353719
-0.0067844238
-0.0023817967
0.0018436337
0.0058812226
0.0097202515
0.013350114
0.016760434
0.019941309
0.022883533
0.025578775
0.028019317
0.030196956
0.032101229
0.033717933
0.035027295
0.036012641
0.036671877
0.037084566
0.058958892
0.058507825
0.057781349
0.056701129
0.055266382
0.053495012
0.051409038
0.049025083
0.046355372
0.043409494
0.040196451
0.036725949
0.033008666
0.029056054
0.024880071
0.020492912
0.01590687
0.011134131
0.0061867252
0.0010764641
-0.0041851536
-0.009587073
-0.015118693
-0.020769828
-0.026530846
-0.032392601
-0.038346573
-0.044384754
-0.050499632
-0.05668416
-0.062931729
-0.069236179
-0.075591659
-0.081992546
-0.088433333
-0.094908567
-0.10141278
-0.1079403
-0.11448509
-0.12104071
-0.1276002
-0.13415595
-0.14069949
-0.14722147
-0.15371164
-0.16015872
-0.16655037
-0.17287319
-0.17911274
-0.1852535
-0.19127904
-0.19717214
-0.20291484
-0.2084886
-0.21387442
-0.21905308
-0.22400539
-0.22871236
-0.23315546
-0.237317
-0.24118054
-0.2447311
-0.24795487
-0.25083748
-0.25336088
-0.25550064
-0.25723023
-0.25853477
-0.25943248
-0.25310098
-0.2522031
-0.25089752
-0.24916598
-0.24702278
-0.24449401
-0.2416036
-0.2383691
-0.23480427
-0.23092227
-0.22673731
-0.22226505
-0.21752234
-0.21252686
-0.20729676
-0.20185041
-0.19620622
-0.19038244
-0.18439691
-0.17826696
-0.17200928
-0.16563985
-0.15917384
-0.15262547
-0.14600802
-0.13933379
-0.13261415
-0.12585954
-0.11907959
-0.11228314
-0.10547826
-0.098672392
-0.091872554
-0.085085413
-0.078317308
-0.071574414
-0.064862892
-0.058189017
-0.051559179
-0.044980038
-0.0384586
-0.032002294
-0.025619055
-0.019317307
-0.013105981
-0.0069945794
-0.00099325055
0.0048872912
0.010635796
0.016240509
0.021689186
0.026969092
0.032067129
0.036969958
0.04166404
0.046135712
0.050371393
0.054357761
0.058082039
0.061532293
0.064697673
0.067568088
0.070132779
0.072377958
0.074284773
0.075829194
0.076992325