/*--------------------------------*- C++ -*----------------------------------*\
| =========                 |                                                 |
| \\      /  F ield         | OpenFOAM: The Open Source CFD Toolbox           |
|  \\    /   O peration     | Version:  v2012                                 |
|   \\  /    A nd           | Website:  www.openfoam.com                      |
|    \\/     M anipulation  |                                                 |
\*---------------------------------------------------------------------------*/
FoamFile
{
    version     2.0;
    format      ascii;
    class       volScalarField;
    location    "174";
    object      k;
}
// * * * * * * * * * * * * * * * * * * * * * * * * * * * * * * * * * * * * * //

dimensions      [0 2 -2 0 0 0 0];


internalField   nonuniform List<scalar> 
19710
(
0.28909584
0.28699853
0.28449161
0.28129813
0.27894146
0.27624194
0.2732256
0.27096534
0.26884955
0.2666212
0.264289
0.26196674
0.25960238
0.25683899
0.25344786
0.24936533
0.24516699
0.24206449
0.24314321
0.24852141
0.2474271
0.24507028
0.24224744
0.23900928
0.23751878
0.23495712
0.2325695
0.23345605
0.24253091
0.257552
0.25919784
0.25658137
0.25493366
0.2501618
0.24477253
0.23935027
0.2339841
0.22878331
0.22374545
0.21889036
0.25798996
0.25973651
0.26150282
0.26328825
0.26509152
0.26691052
0.26874206
0.27058191
0.27242526
0.27426829
0.27610939
0.27795005
0.27979473
0.2816501
0.28352424
0.28542537
0.2873611
0.29024796
0.28840161
0.28656295
0.28472349
0.28287728
0.28102101
0.27915424
0.27727892
0.27539861
0.27351774
0.27164084
0.26977212
0.26791516
0.26607284
0.26424732
0.26458372
0.26641128
0.26825573
0.27011492
0.27198593
0.2738651
0.27574809
0.27763018
0.27950676
0.281374
0.28322978
0.28507443
0.28691123
0.28874613
0.29058766
0.29137003
0.28953919
0.28771264
0.28588184
0.28404079
0.2821863
0.28031825
0.27843917
0.27655336
0.2746659
0.27278187
0.27090586
0.2690417
0.26719237
0.26536005
0.26673827
0.26858115
0.27044107
0.27231582
0.2742023
0.27609644
0.27799322
0.27988699
0.2817719
0.28364283
0.28549658
0.28733295
0.28915503
0.29096892
0.29278321
0.29508128
0.29328604
0.29148531
0.28967041
0.28783507
0.2859762
0.28409438
0.28219384
0.28028109
0.27836313
0.27644655
0.27453693
0.27263872
0.27075518
0.26888852
0.27191961
0.27383727
0.27577144
0.27771988
0.27967914
0.28164433
0.28360901
0.28556532
0.2875044
0.28941759
0.29129912
0.29314821
0.29496816
0.29676577
0.29854993
0.30345212
0.30164758
0.29982071
0.29796207
0.29606364
0.29412109
0.29213456
0.29011188
0.2880652
0.28600609
0.28394423
0.28188718
0.27984044
0.2778077
0.27579128
0.28020165
0.28238806
0.28459138
0.28680927
0.28903766
0.29127029
0.29349829
0.2957097
0.2978888
0.30001774
0.3020863
0.30409759
0.30605905
0.3079816
0.3098761
0.3175242
0.31542025
0.31329433
0.31113245
0.3089175
0.3066345
0.3042704
0.30183739
0.29936249
0.29686761
0.29436773
0.29187321
0.28939111
0.28692599
0.28448045
0.28747507
0.290276
0.29310126
0.29594753
0.29880892
0.30167658
0.30453802
0.30737485
0.31015784
0.31284312
0.31541704
0.31791999
0.32038369
0.32283797
0.32530187
0.33115394
0.32821444
0.32533771
0.32250751
0.31968513
0.31680596
0.31376638
0.31056575
0.30728297
0.30396718
0.30064289
0.29732592
0.29402824
0.29075801
0.28752089
0.28249178
0.28620323
0.28995971
0.29375382
0.29757117
0.30139025
0.30517927
0.30888511
0.31244059
0.31574783
0.31876345
0.32175523
0.32486658
0.32812114
0.33148962
0.32415776
0.28418073
0.28209048
0.28002943
0.27799529
0.27598585
0.27399911
0.2720334
0.27008747
0.26816041
0.26625175
0.2643613
0.26248907
0.26063526
0.25880017
0.25698414
0.25518743
0.25341018
0.25343781
0.25349979
0.25360466
0.25375945
0.25396836
0.25423282
0.25455139
0.25491878
0.25532473
0.25575326
0.25618422
0.25659649
0.25981578
0.2596037
0.2593603
0.25907524
0.25874294
0.25836488
0.25795145
0.25751995
0.25709171
0.25668686
0.25632111
0.2560044
0.25574172
0.25553432
0.25538069
0.25527659
0.255215
0.25701165
0.25707291
0.25717636
0.25732901
0.25753511
0.25779625
0.25811129
0.2584755
0.25887925
0.25930709
0.25973891
0.26015322
0.26053251
0.26086625
0.26115284
0.26139789
0.26161165
0.26180512
0.26198835
0.26216832
0.26234945
0.26253365
0.26272085
0.26290964
0.26309791
0.26328292
0.26346204
0.26363273
0.26379235
0.26393756
0.2640628
0.26415947
0.26421957
0.26424415
0.26606959
0.26604474
0.26598427
0.26588727
0.2657618
0.26561639
0.26545656
0.2652856
0.26510611
0.26492064
0.26473181
0.26454232
0.26435424
0.26416901
0.26398662
0.2638052
0.26362042
0.26342532
0.26320997
0.26296347
0.26267566
0.26234092
0.26196084
0.26154606
0.26111425
0.26068699
0.26028439
0.25992164
0.25960812
0.25934833
0.25914332
0.25899147
0.25888857
0.2588276
0.26066258
0.26072329
0.26082575
0.26097693
0.26118101
0.26143961
0.26175173
0.26211301
0.26251433
0.26294067
0.26337202
0.26378669
0.26416694
0.26450217
0.26479077
0.26503844
0.26525521
0.2654519
0.26563829
0.26582124
0.26600501
0.2661914
0.26638045
0.26657074
0.26676021
0.2669462
0.26712609
0.26729734
0.26745738
0.26760295
0.26772861
0.26782587
0.2678867
0.26791183
0.26976869
0.26974329
0.26968214
0.26958465
0.26945886
0.26931316
0.26915293
0.26898138
0.26880104
0.26861449
0.26842429
0.26823309
0.26804298
0.2678553
0.26767004
0.26748548
0.26729746
0.26709924
0.26688125
0.2666328
0.26634396
0.26600895
0.26562931
0.26521556
0.26478532
0.2643604
0.26396067
0.26360097
0.26329024
0.26303273
0.26282947
0.26267888
0.26257678
0.26251629
0.26438846
0.26444877
0.26455051
0.26470054
0.264903
0.26515939
0.26546862
0.26582647
0.26622412
0.2666469
0.26707507
0.26748687
0.26786484
0.26819869
0.26848708
0.26873582
0.26895475
0.2691544
0.26934403
0.26953028
0.26971711
0.26990618
0.27009747
0.27028967
0.27048065
0.27066783
0.27084863
0.27102048
0.27118089
0.27132668
0.27145255
0.2715502
0.27161163
0.27163731
0.27351409
0.27348814
0.27342648
0.27332875
0.27320287
0.27305705
0.27289649
0.27272434
0.27254308
0.27235525
0.27216343
0.27197017
0.27177763
0.2715871
0.27139862
0.27121069
0.27101949
0.27081861
0.27059912
0.27035071
0.27006366
0.26973213
0.26935715
0.2689487
0.26852385
0.26810425
0.26770942
0.26735392
0.26704646
0.26679133
0.26658975
0.26644033
0.26633899
0.26627887
0.26818744
0.2682473
0.26834816
0.26849684
0.26869736
0.26895091
0.26925612
0.26960854
0.26999949
0.27041454
0.27083443
0.2712378
0.27160811
0.27193589
0.27222047
0.27246776
0.27268732
0.27288913
0.27308177
0.27327134
0.27346144
0.27365345
0.27384729
0.27404163
0.27423429
0.27442277
0.27460446
0.27477687
0.27493751
0.27508328
0.27520908
0.27530681
0.27536863
0.27539484
0.27727501
0.27724857
0.27718667
0.27708905
0.27696347
0.27681786
0.27665725
0.27648468
0.27630262
0.27611357
0.27592011
0.27572476
0.27552966
0.27533621
0.27514458
0.27495353
0.2747597
0.27455738
0.27433841
0.27409322
0.27381247
0.27349015
0.27312654
0.27273038
0.27231747
0.27190871
0.27152301
0.27117465
0.2708724
0.2706209
0.27042178
0.27027407
0.27017386
0.27011437
0.2720601
0.27211909
0.27221842
0.27236485
0.27256212
0.27281093
0.27310932
0.27345236
0.27383117
0.27423159
0.27463515
0.27502163
0.27537621
0.27569105
0.27596638
0.2762083
0.27642583
0.27662809
0.27682271
0.27701497
0.27720791
0.27740263
0.27759882
0.27779504
0.27798915
0.27817864
0.27836091
0.27853346
0.27869387
0.27883913
0.27896434
0.27906168
0.27912355
0.2791502
0.28101682
0.28099001
0.28092831
0.28083143
0.28070684
0.28056218
0.28040224
0.28022996
0.28004775
0.27985811
0.27966361
0.27946679
0.27926981
0.27907414
0.27888025
0.27868723
0.27849239
0.27829094
0.27807585
0.27783857
0.27757043
0.27726527
0.27692228
0.2765482
0.27615661
0.27576681
0.27539674
0.27506043
0.27476696
0.27452162
0.27432676
0.27418203
0.27408383
0.27402552
0.27601186
0.2760693
0.27616604
0.27630863
0.27650043
0.27674146
0.2770289
0.27735701
0.27771644
0.27809328
0.27847022
0.27882914
0.27915793
0.27945114
0.27971022
0.27994139
0.28015289
0.28035263
0.28054696
0.28074011
0.28093442
0.28113053
0.28132784
0.28152482
0.28171925
0.28190865
0.28209041
0.28226203
0.28242114
0.28256485
0.28268851
0.28278467
0.28284605
0.28287295
0.28471902
0.28469213
0.28463129
0.28453614
0.28441381
0.28427149
0.28411371
0.28394326
0.28376251
0.28357394
0.28338017
0.28318368
0.2829867
0.28279084
0.28259687
0.28240438
0.28221148
0.2820145
0.2818078
0.28158422
0.28133599
0.28105687
0.28074468
0.28040344
0.28004359
0.27968182
0.27933476
0.27901623
0.27873593
0.27850011
0.27831204
0.27817211
0.27807718
0.27802082
0.28005437
0.28010942
0.28020219
0.28033896
0.28052264
0.28075246
0.28102464
0.28133244
0.28166571
0.2820107
0.2823515
0.28267303
0.28296666
0.28322994
0.2834658
0.28368047
0.28388116
0.2840743
0.28426477
0.28445564
0.28464838
0.28484311
0.28503892
0.28523411
0.28542646
0.28561345
0.28579249
0.28596109
0.28611692
0.28625729
0.28637781
0.28647156
0.28653161
0.28655837
0.28839696
0.28837048
0.28831148
0.28821956
0.2881014
0.28796367
0.28781052
0.28764456
0.28746811
0.28728362
0.28709368
0.28690079
0.28670719
0.28651467
0.28632425
0.28613611
0.28594918
0.28576099
0.28556739
0.28536275
0.28514038
0.28489408
0.28462018
0.28431955
0.28399892
0.28367169
0.28335307
0.28305679
0.28279343
0.28257027
0.28239158
0.28225846
0.28216822
0.28211471
0.28420416
0.2842559
0.28434325
0.28447224
0.28464539
0.28486135
0.28511546
0.28539994
0.28570377
0.28601316
0.28631354
0.28659315
0.28684711
0.28707607
0.28728442
0.28747832
0.28766393
0.28784615
0.28802843
0.28821268
0.28839958
0.28858871
0.28877892
0.28896836
0.28915478
0.28933572
0.2895086
0.28967098
0.28982058
0.28995491
0.29007005
0.29015964
0.29021727
0.29024329
0.29105062
0.29086887
0.29068407
0.29049847
0.29031394
0.29013176
0.28995252
0.28977591
0.2896005
0.28942347
0.28924055
0.2890461
0.28883398
0.28859917
0.28833958
0.28805845
0.28776603
0.28747642
0.29057111
0.28872946
0.28689455
0.28505784
0.28321334
0.28135776
0.27949076
0.27761445
0.27573262
0.27384989
0.27197098
0.27010021
0.26824125
0.266397
0.26456964
0.27091217
0.27504277
0.2792261
0.28345081
0.28769201
0.29191102
0.29605142
0.30003073
0.30368179
0.30717561
0.30985557
0.3128092
0.31635239
0.3201912
0.3102703
0.30959786
0.31210992
0.31004898
0.29133844
0.28950733
0.28768068
0.2858499
0.28400902
0.2821548
0.28028711
0.27840845
0.27652309
0.27463609
0.27275251
0.27087693
0.26901317
0.26716422
0.26533227
0.25403365
0.25862451
0.26331095
0.26808352
0.27290909
0.27772311
0.28242557
0.2868996
0.28444916
0.28591105
0.28651167
0.28536194
0.28455559
0.28427417
0.2850839
0.28613203
0.28973312
0.29252799
0.29495654
0.29582962
0.29640158
0.29673042
0.2902343
0.28764498
0.28837658
0.29079638
0.2914437
0.29489113
0.29564792
0.30012887
0.30098703
0.3057031
0.30657929
0.31123002
0.31213058
0.31694293
0.31785991
0.32244171
0.32337805
0.32803124
0.32896686
0.33319262
0.33413021
0.33824541
0.33919052
0.34307378
0.34407434
0.34781243
0.34862638
0.35035067
0.3533359
0.35705781
0.35799454
0.36213926
0.36324004
0.36700561
0.36803194
0.37145253
0.37243255
0.3756242
0.37668264
0.38035654
0.38128918
0.38356921
0.38418451
0.38581347
0.386269
0.38749508
0.3878393
0.38882499
0.38907329
0.38978956
0.39001041
0.3906172
0.39071996
0.39110298
0.39121379
0.3915104
0.39155255
0.39163953
0.39159788
0.39141696
0.39122132
0.39050127
0.39015352
0.38896614
0.38858104
0.38767069
0.38739085
0.38682526
0.38664846
0.38629388
0.38618361
0.38600717
0.38600677
0.38634627
0.38665383
0.38829903
0.38906156
0.39207308
0.39345916
0.39892896
0.40121809
0.40960223
0.41313822
0.4261236
0.43070548
0.44535676
0.45025873
0.46580577
0.47002455
0.48074139
0.48132224
0.48262808
0.48754836
0.49343633
0.49182019
0.48508357
0.47835209
0.4716734
0.47421941
0.47345341
0.46527578
0.45945443
0.4468751
0.43993284
0.42783868
0.42122746
0.41054391
0.40551545
0.39850498
0.39521161
0.39064839
0.388613
0.38604093
0.3849382
0.38359124
0.38316172
0.3828915
0.38289557
0.38308168
0.38326408
0.38361316
0.38388288
0.38440032
0.38480573
0.38560906
0.38617709
0.38718578
0.38770213
0.38833344
0.38859937
0.38878847
0.3888595
0.38883557
0.38880189
0.38859723
0.38847851
0.388193
0.38800113
0.38753266
0.38723791
0.38663008
0.38625342
0.38545932
0.38496176
0.38393766
0.38328162
0.38190551
0.3809802
0.37901013
0.37762321
0.37453106
0.37291615
0.37013042
0.36862427
0.36564173
0.36403029
0.36075736
0.35899802
0.35534837
0.3538477
0.35058631
0.3478418
0.34587514
0.34460591
0.34149548
0.33995447
0.33665615
0.33511767
0.33161535
0.33013459
0.32655573
0.32504622
0.32109317
0.31958634
0.31570897
0.31423923
0.31015858
0.30866372
0.30465004
0.30319765
0.299146
0.2977114
0.29382679
0.29256539
0.28952196
0.28847205
0.28631208
0.28509744
0.28245373
0.28039293
0.27936369
0.27668697
0.28024871
0.28220498
0.28419233
0.28567278
0.28825908
0.29005482
0.29327561
0.29529207
0.29865134
0.30070985
0.30393109
0.30596022
0.30925469
0.31128609
0.31443592
0.31646281
0.3196432
0.32165562
0.32456641
0.32653394
0.32939065
0.3313641
0.33406733
0.33605083
0.33868499
0.34042254
0.34242565
0.34440415
0.34660689
0.3504544
0.35293863
0.35572641
0.3579915
0.36056374
0.36270573
0.36516143
0.36735146
0.36984178
0.37170737
0.37343544
0.37468722
0.37587595
0.37672485
0.37753976
0.37813197
0.37873974
0.37914133
0.37954867
0.37985372
0.38016208
0.38028913
0.38045249
0.38055369
0.38066549
0.3806574
0.38061477
0.38044916
0.38019397
0.37976646
0.37918151
0.37847459
0.37767262
0.37691091
0.37620168
0.37558936
0.3750634
0.37461953
0.3742632
0.37395751
0.37378165
0.37371088
0.37391831
0.37440597
0.37549521
0.37686628
0.37896045
0.38147004
0.38516375
0.38925982
0.39487312
0.40103673
0.40892158
0.41404442
0.42131129
0.43070836
0.43869566
0.44839477
0.45475248
0.46037737
0.46077564
0.45728178
0.45206812
0.44712835
0.44074512
0.44112385
0.44963517
0.45379743
0.45371506
0.44890626
0.44267944
0.43379115
0.42549912
0.4162791
0.4122471
0.40528018
0.3975313
0.3913994
0.3859548
0.38182617
0.37821287
0.37565211
0.37359628
0.37222258
0.37122085
0.37073292
0.37054196
0.37062884
0.37083315
0.37116371
0.37155894
0.37202379
0.372569
0.37319363
0.37391754
0.37469958
0.37550939
0.37624433
0.37684742
0.37728535
0.37756633
0.37775514
0.37784347
0.37788969
0.37783664
0.37776886
0.37764676
0.37751619
0.37726833
0.37699546
0.37657765
0.37615737
0.37560012
0.37501973
0.37423455
0.37336921
0.37219939
0.37090166
0.36917604
0.36725051
0.36481189
0.36254824
0.36009145
0.35783387
0.35524648
0.35282258
0.34988878
0.34694027
0.34415527
0.34165599
0.33955273
0.33750155
0.3356554
0.33317554
0.33108336
0.32852168
0.32642377
0.32373109
0.32164731
0.31893813
0.31681747
0.31387132
0.31171941
0.30882964
0.30666808
0.30359378
0.3014174
0.29844153
0.29624665
0.29315445
0.2909906
0.28797515
0.28600139
0.28354613
0.28192763
0.27993142
0.27767061
0.27351168
0.27169517
0.2696873
0.26754271
0.26522588
0.2628289
0.26036813
0.25753636
0.25386126
0.25641042
0.25973649
0.26224848
0.26479239
0.26704118
0.26955226
0.27189438
0.27453035
0.2769192
0.27939283
0.28157049
0.28400254
0.2861193
0.28841443
0.29041879
0.29270691
0.29474121
0.29698
0.2989233
0.30115687
0.30311963
0.30530322
0.30729052
0.30958249
0.31155308
0.31376237
0.31585983
0.31842163
0.32092047
0.32374939
0.32642941
0.32932737
0.3320083
0.33477475
0.33739929
0.33983501
0.34230171
0.34430465
0.3461626
0.34754713
0.34878814
0.34957208
0.35029782
0.35073005
0.35118295
0.35129981
0.35146688
0.351505
0.35164737
0.35147973
0.35145506
0.3513202
0.3512917
0.35100015
0.35077673
0.35031864
0.3498947
0.34920761
0.34853838
0.34766566
0.34691609
0.34598283
0.34527098
0.34443049
0.343847
0.34313356
0.34271991
0.34220806
0.34203485
0.34178039
0.34190487
0.34212607
0.34300207
0.34415917
0.34592544
0.34807455
0.35110965
0.35453596
0.35881263
0.36342902
0.36874091
0.37394284
0.37933989
0.38401137
0.38808314
0.39021293
0.39044644
0.38776814
0.38238007
0.37486313
0.36692129
0.3636044
0.35707943
0.35728986
0.36805757
0.37600734
0.38151248
0.38440183
0.38456642
0.38275825
0.3790969
0.37465552
0.36964424
0.36464637
0.35953555
0.35500395
0.35095059
0.3476155
0.34471393
0.34249082
0.34076626
0.33963971
0.33891297
0.3386529
0.33855237
0.33877904
0.33902375
0.33951827
0.33999638
0.34066774
0.34129484
0.34209768
0.34285818
0.34375595
0.34454475
0.34539964
0.34611802
0.3467722
0.34725337
0.3477069
0.34798394
0.34826365
0.34835246
0.3484746
0.34856676
0.34871725
0.3486693
0.34861526
0.34842764
0.34825733
0.34787208
0.34743072
0.34675474
0.34593247
0.34471596
0.34328028
0.34145929
0.33942661
0.33694428
0.33439361
0.33178274
0.32905883
0.32632327
0.3234301
0.32070106
0.31792252
0.3153851
0.31285646
0.31067123
0.30847076
0.30645036
0.30426397
0.30230291
0.30019531
0.29820667
0.29606896
0.29413738
0.29200719
0.28998106
0.28777671
0.28576301
0.28355269
0.28142657
0.27907474
0.27690349
0.27451805
0.27211432
0.26950614
0.26709622
0.26459435
0.26223051
0.25957458
0.25671934
0.25286356
0.24899827
0.24398081
0.24031598
0.240072
0.24784945
0.24934802
0.25402716
0.25311191
0.25321807
0.25113577
0.24780064
0.24937925
0.25472629
0.25574852
0.25996437
0.26078695
0.26501261
0.26580167
0.26969406
0.27045454
0.27408795
0.27480767
0.27830391
0.27901321
0.2824098
0.28311394
0.2864932
0.28723836
0.29054371
0.29130299
0.2946782
0.29548612
0.29887748
0.29975665
0.30326397
0.3041963
0.30785844
0.30891944
0.31299887
0.31418433
0.31846162
0.31969716
0.32392686
0.3251571
0.3291443
0.3302819
0.33380925
0.33479041
0.3374756
0.33819441
0.34004752
0.34052136
0.34163764
0.34191172
0.34256509
0.3427171
0.34297188
0.34303288
0.3431303
0.3430899
0.3430288
0.34298316
0.34281586
0.34270662
0.34224179
0.34203697
0.34136727
0.34107062
0.34006431
0.33968653
0.33861031
0.33823765
0.337138
0.3367854
0.33582179
0.33551765
0.33475252
0.33454543
0.33414408
0.33409299
0.33417394
0.33433901
0.3354067
0.33594004
0.33815294
0.33912727
0.34281287
0.34422713
0.34908591
0.35084545
0.35668696
0.3585609
0.3640142
0.36543069
0.36857422
0.3688516
0.36697015
0.36501286
0.35533296
0.35033143
0.34607697
0.34578317
0.35011072
0.35214225
0.36031425
0.36226087
0.37077332
0.37621782
0.3792041
0.3797297
0.37819514
0.37494214
0.37074986
0.36603728
0.36118416
0.35639444
0.35194464
0.34804021
0.34471941
0.34190752
0.33973857
0.33808179
0.33705382
0.33640709
0.33613025
0.3360289
0.33619648
0.3365007
0.33697683
0.33749234
0.33815558
0.33882198
0.33960669
0.34038604
0.34124289
0.34201667
0.34286199
0.34359431
0.34426732
0.34476866
0.34523748
0.34551112
0.34573163
0.34590922
0.34611552
0.34616115
0.34619845
0.34626289
0.34628262
0.34607264
0.34582995
0.34548054
0.34502275
0.34434835
0.34350324
0.34235626
0.34095251
0.33915502
0.33707944
0.33462721
0.33198467
0.32933455
0.32661922
0.32386725
0.32098318
0.31819742
0.31539435
0.31282789
0.3103423
0.3081853
0.3059525
0.30384879
0.30179035
0.2998409
0.29771289
0.29572184
0.29364076
0.29167366
0.28958187
0.28758617
0.28545437
0.28344005
0.28129406
0.27920853
0.27691203
0.27469119
0.27230106
0.26990296
0.26730695
0.26483635
0.26232408
0.25992676
0.25721936
0.25645466
0.25928192
0.25909907
0.26157536
0.26404979
0.26401144
0.26657853
0.26896083
0.26904735
0.27147668
0.27363855
0.27376719
0.27606476
0.27806675
0.27824013
0.28037415
0.28231156
0.2824507
0.28455926
0.28646766
0.28656315
0.28859162
0.29056064
0.29059866
0.29266854
0.29465357
0.29463654
0.29668158
0.29873956
0.29872451
0.30082415
0.30293246
0.30282295
0.30497838
0.30722522
0.30713203
0.3094404
0.31182743
0.31179588
0.31443573
0.31691543
0.31713551
0.32003564
0.32236869
0.32276663
0.3255827
0.32775002
0.32826933
0.33103853
0.33288636
0.33349304
0.33594596
0.33741218
0.33796348
0.33984705
0.34094477
0.34123883
0.34242358
0.34329045
0.34327568
0.34399544
0.3447238
0.34443346
0.34477243
0.34548992
0.34499592
0.34517397
0.34581072
0.34516934
0.34512562
0.3459023
0.34511412
0.3450661
0.34581057
0.34491293
0.34471781
0.34553611
0.34450196
0.34417943
0.34490162
0.34373781
0.34325435
0.34397896
0.34264296
0.34189544
0.3426298
0.34109946
0.34030367
0.34115663
0.33950816
0.33868856
0.33964957
0.33795121
0.33725653
0.33836345
0.33666113
0.3361269
0.33737347
0.33567246
0.33530861
0.33681538
0.33516901
0.3352502
0.33696232
0.33552354
0.3362604
0.33844606
0.33731648
0.33895421
0.341596
0.3409603
0.34379773
0.34683229
0.3469713
0.35085315
0.35401213
0.35501641
0.35974894
0.36266655
0.36434051
0.36899366
0.3710836
0.3728508
0.37594067
0.37647686
0.37725802
0.37658642
0.3752682
0.37366964
0.36813509
0.36453976
0.35951455
0.37095367
0.37281098
0.36818723
0.36049344
0.35242053
0.34570533
0.34067574
0.33765913
0.33618272
0.33605962
0.33661072
0.33760792
0.33888903
0.34036633
0.34180412
0.34313926
0.34404074
0.34466511
0.34491416
0.34496635
0.34484197
0.34451558
0.34367394
0.34219928
0.33977944
0.33627991
0.33171917
0.32656266
0.32114373
0.31567681
0.3105186
0.30590745
0.30150215
0.29726252
0.2930623
0.28896274
0.28480988
0.28062674
0.27638524
0.27198944
0.26733648
0.262358
0.25745962
0.26807392
0.26334787
0.26237753
0.26332712
0.25474272
0.25360935
0.25670076
0.25998074
0.2630338
0.26550981
0.26776222
0.26991708
0.27180159
0.27342418
0.27364039
0.27614689
0.28028177
0.28192654
0.28166287
0.28323133
0.28530028
0.28584669
0.28933444
0.28689009
0.28827064
0.28576925
0.28645014
0.28368538
0.28348956
0.28036404
0.27959043
0.27610189
0.27408104
0.26751824
0.26435626
0.26604495
0.26845532
0.27074022
0.27315178
0.27494513
0.27699089
0.27823839
0.27978466
0.28128281
0.27950981
0.27877775
0.27667861
0.27545033
0.27312616
0.27139696
0.26892249
0.26736452
0.25510788
0.25787663
0.24996237
0.24810914
0.25010839
0.24807045
0.25132326
0.24794176
0.24452639
0.24434412
0.23913657
0.23939227
0.2402958
0.24166534
0.243368
0.2417864
0.240081
0.23829519
0.2511745
0.25875811
0.27150613
0.28496945
0.30281662
0.30480095
0.30730937
0.30769127
0.30571623
0.31533592
0.32499241
0.32552928
0.3204529
0.31329036
0.30603116
0.29978951
0.29493647
0.291449
0.28911601
0.28729401
0.28545791
0.28360456
0.28173414
0.2798498
0.27795666
0.27606051
0.27416701
0.27228115
0.270407
0.26854767
0.26670537
0.27189717
0.26885988
0.27072581
0.27381389
0.27778691
0.27577181
0.28018674
0.2823713
0.28457286
0.27981841
0.27574712
0.27260862
0.27450608
0.27769463
0.27965299
0.27641495
0.27833079
0.28161731
0.28598056
0.28391979
0.28186392
0.28678918
0.28901622
0.29124776
0.29120592
0.28591929
0.28154982
0.27825952
0.27599121
0.27457961
0.27381212
0.27193363
0.27006327
0.26820472
0.26636088
0.26453392
0.22113135
0.22629938
0.23170751
0.23735013
0.24323305
0.24930839
0.25549796
0.26127099
0.26814521
0.27279427
0.27630688
0.27895777
0.27219094
0.26984373
0.27577204
0.27154644
0.26363232
0.2584412
0.26378883
0.26788853
0.26687773
0.26258136
0.2637518
0.260891
0.26028955
0.25669609
0.24167797
0.23529543
0.233104
0.23567443
0.24130106
0.241924
0.23943572
0.24040618
0.24312225
0.24570643
0.26377839
0.26652535
0.27013417
0.27151038
0.27180341
0.26596769
0.26262619
0.25822267
0.25344782
0.24856017
0.24368908
0.23888112
0.23416968
0.22761387
0.23307652
0.23878663
0.24477968
0.25103781
0.25754256
0.26427379
0.2709349
0.27944379
0.28473544
0.28855815
0.29004567
0.28369529
0.28190384
0.2889333
0.2846625
0.27822028
0.27647559
0.28336726
0.2829799
0.27923415
0.27414475
0.2727873
0.26780743
0.27501837
0.27198389
0.28417432
0.29549598
0.29687591
0.29843168
0.3006995
0.30056057
0.3022543
0.30224389
0.30439697
0.30241721
0.31179801
0.32182521
0.32266843
0.31797957
0.31112653
0.3040696
0.29793109
0.29311678
0.28963432
0.28779937
0.28594103
0.28405985
0.28216002
0.280248
0.28358115
0.28553662
0.28747489
0.2893873
0.2940915
0.29210603
0.29008438
0.28803868
0.2934749
0.29568544
0.29786344
0.2999911
0.30205874
0.29603322
0.29126817
0.29119275
0.28772254
0.28538477
0.28395
0.28317398
0.28131859
0.27945186
0.27757589
0.27569445
0.27562309
0.27374108
0.27186295
0.26999302
0.26813491
0.26629154
0.26446508
0.23481339
0.24039772
0.24624363
0.25238299
0.25879723
0.26549464
0.27249825
0.27959811
0.28826689
0.29391462
0.29786386
0.29920143
0.29275887
0.29099265
0.29821089
0.29479821
0.28839569
0.28663434
0.29380417
0.29358974
0.28985644
0.28438429
0.28188202
0.27757053
0.2829283
0.27937113
0.29115493
0.29439207
0.30313498
0.31254534
0.31389232
0.31020683
0.30426466
0.30183182
0.29935636
0.29686097
0.2943611
0.29186735
0.28938678
0.28692371
0.28448053
0.24226118
0.24790666
0.25381388
0.26001837
0.26650431
0.27327853
0.28039608
0.2876599
0.29650878
0.30224288
0.30630762
0.30773105
0.3011285
0.29945769
0.30678227
0.30360735
0.29705417
0.29538548
0.30265925
0.3024032
0.2985202
0.29287165
0.28969262
0.28537135
0.28953379
0.28711191
0.29627104
0.3077637
0.3045985
0.31330986
0.31429801
0.310364
0.30427522
0.29781313
0.2920374
0.28740204
0.28398476
0.28166215
0.28022883
0.27835072
0.27646597
0.2778864
0.27977864
0.27967405
0.27826247
0.27750432
0.27938019
0.28124696
0.28200727
0.28209608
0.2835319
0.28342599
0.2815568
0.28014022
0.28002113
0.27927486
0.27739883
0.27551761
0.27363571
0.2717578
0.26988816
0.26803041
0.26618745
0.26436143
0.25042807
0.2561127
0.26205739
0.26830889
0.27484299
0.28167211
0.28883892
0.29615779
0.30519821
0.31104681
0.31516785
0.31684732
0.3098349
0.307929
0.31552406
0.31230747
0.30550268
0.30384708
0.31128177
0.3110196
0.30711708
0.30136802
0.29777843
0.2930292
0.2968037
0.29430803
0.30288334
0.31249724
0.31769376
0.3150701
0.31512725
0.31068203
0.3043206
0.29773863
0.29192224
0.28728032
0.2838681
0.2819709
0.2820861
0.28017536
0.28351174
0.28546543
0.28534632
0.28339546
0.28006181
0.27778275
0.27637822
0.27449245
0.27261018
0.27269669
0.27082176
0.26895865
0.26711035
0.26527904
0.25928627
0.26501526
0.27099771
0.27728286
0.28384478
0.29070318
0.29790255
0.30526588
0.314736
0.32086552
0.32525186
0.32698127
0.31928468
0.31724843
0.3254723
0.32177445
0.31434475
0.31256961
0.3204955
0.32035553
0.31630882
0.31034906
0.30615273
0.30124778
0.30473293
0.30204521
0.31041408
0.31818252
0.32084043
0.3178706
0.31637659
0.3111626
0.30440201
0.29764043
0.29176176
0.28711261
0.28371342
0.28142027
0.27953819
0.2781435
0.27625953
0.2743742
0.27249246
0.27061885
0.27073595
0.26887357
0.26702602
0.26519549
0.26889615
0.27470524
0.2807641
0.28712449
0.29375924
0.30068897
0.30796557
0.31545252
0.32572608
0.33243493
0.33732315
0.3393378
0.33053304
0.32802383
0.33715525
0.33290076
0.32460582
0.32231666
0.33096089
0.33122518
0.32685016
0.32050347
0.31529303
0.30997447
0.31292778
0.3100663
0.31819079
0.3240483
0.32408553
0.31939138
0.31226938
0.31172729
0.30448566
0.29750739
0.29155626
0.28690343
0.28352537
0.28125644
0.27987621
0.27914254
0.27726624
0.27538492
0.27350308
0.27162531
0.26975589
0.26789842
0.26605579
0.26423016
0.2649395
0.26508058
0.26691034
0.26825574
0.26838457
0.26848238
0.26664112
0.26654462
0.26641723
0.26626335
0.26810032
0.26676851
0.26861461
0.26875716
0.27011141
0.27024164
0.27034072
0.27221386
0.27211356
0.27399724
0.27409871
0.27634514
0.27443776
0.27254182
0.27066055
0.26879619
0.2573984
0.25914289
0.26090772
0.26269234
0.26449552
0.26631525
0.26814859
0.26999157
0.27183974
0.27368954
0.27553946
0.2773908
0.27924767
0.28111639
0.28300476
0.28492088
0.28687231
0.28681488
0.28486189
0.28294391
0.28105347
0.27918261
0.27732375
0.27547076
0.27361967
0.27176929
0.26992109
0.26807853
0.26624571
0.26442638
0.26262349
0.26083904
0.25907426
0.2573297
0.25343265
0.25348375
0.25357296
0.25371173
0.2539112
0.25418059
0.2545256
0.25494545
0.2554277
0.25594239
0.25643987
0.25686053
0.25715947
0.25890402
0.25860516
0.25818514
0.25768953
0.25717816
0.25670042
0.25628556
0.25594533
0.25568006
0.25548385
0.25534748
0.25525988
0.25520964
0.25700605
0.25705542
0.25714147
0.25727549
0.2574685
0.25772971
0.25806518
0.25847504
0.25894823
0.25945625
0.25995004
0.26036956
0.26066861
0.26245264
0.26215317
0.261734
0.261242
0.26073739
0.26026883
0.25986403
0.25953335
0.25927621
0.2590864
0.25895472
0.25887021
0.25882173
0.26065642
0.26070398
0.26078691
0.26091621
0.26110275
0.26135572
0.26168149
0.26208105
0.26254479
0.26304581
0.26353596
0.26395486
0.26425493
0.26607352
0.2657728
0.26535433
0.2648663
0.26436924
0.26391072
0.26351674
0.26319616
0.26294758
0.26276447
0.26263765
0.2625564
0.26250983
0.26438165
0.26442716
0.2645066
0.26463071
0.26481012
0.26505397
0.2653689
0.26575675
0.26620937
0.26670173
0.26718697
0.26760456
0.26790563
0.26974786
0.26944719
0.26903145
0.26855012
0.26806358
0.26761787
0.26723702
0.26692843
0.26668986
0.26651455
0.26639344
0.266316
0.26627165
0.26817977
0.26822282
0.26829801
0.26841575
0.26858643
0.26881901
0.26912034
0.26949302
0.26993038
0.27040945
0.27088515
0.27129746
0.27159648
0.2734484
0.27315276
0.27274604
0.27227823
0.27180871
0.2713815
0.27101845
0.27072551
0.27049976
0.27033434
0.27022038
0.27014774
0.27010619
0.2720514
0.27209127
0.27216105
0.27227072
0.2724302
0.27264817
0.27293145
0.27328326
0.27369833
0.27415592
0.27461332
0.27501202
0.27530234
0.27715932
0.27687615
0.27648783
0.27604334
0.27560002
0.27519909
0.27486016
0.27458781
0.2743786
0.27422577
0.27412087
0.27405427
0.27401628
0.27600209
0.27603801
0.27610111
0.27620077
0.27634629
0.27654587
0.27680615
0.27713075
0.27751578
0.27794283
0.27837233
0.27874836
0.27902297
0.28089903
0.2806337
0.28027111
0.279858
0.27944867
0.27908085
0.27877169
0.27852442
0.27833521
0.27819755
0.27810354
0.27804422
0.27801053
0.2800436
0.28007492
0.28013027
0.28021833
0.28034772
0.28052606
0.28075974
0.2810528
0.28140273
0.2817937
0.28218987
0.28253865
0.28279462
0.28471737
0.28447028
0.28413485
0.28375534
0.28338256
0.2830505
0.28277362
0.28255369
0.28238641
0.2822655
0.28218358
0.28213236
0.28210351
0.2841926
0.28421892
0.28426594
0.28434165
0.28445407
0.28461036
0.2848168
0.28507796
0.28539285
0.28574836
0.28611226
0.28643543
0.2866745
0.29274451
0.29092997
0.29324968
0.29673403
0.30161649
0.30795422
0.30984941
0.30342138
0.29851832
0.29504506
0.29053261
0.28869046
0.28685526
0.28501843
0.28494749
0.28310259
0.28386124
0.28570235
0.28579078
0.28722065
0.28711454
0.28527859
0.28514166
0.28374272
0.28299826
0.281142
0.2810102
0.28174365
0.28188832
0.28328908
0.28312485
0.28497743
0.28359866
0.28286732
0.28471447
0.28484414
0.2866831
0.28678507
0.28862133
0.28936198
0.28944868
0.28762167
0.2890427
0.29085701
0.2907523
0.28893708
0.28753392
0.28741746
0.28558464
0.28697803
0.28681429
0.28544163
0.28727605
0.28655519
0.28839564