/*--------------------------------*- C++ -*----------------------------------*\
| =========                 |                                                 |
| \\      /  F ield         | OpenFOAM: The Open Source CFD Toolbox           |
|  \\    /   O peration     | Version:  v2012                                 |
|   \\  /    A nd           | Website:  www.openfoam.com                      |
|    \\/     M anipulation  |                                                 |
\*---------------------------------------------------------------------------*/
FoamFile
{
    version     2.0;
    format      ascii;
    class       volScalarField;
    location    "174";
    object      nut;
}
// * * * * * * * * * * * * * * * * * * * * * * * * * * * * * * * * * * * * * //

dimensions      [0 2 -1 0 0 0 0];


internalField   nonuniform List<scalar> 
19710
(
0.010521156
0.010470639
0.010402921
0.010343358
0.010357933
0.010298287
0.010232972
0.010224207
0.0102057
0.010175516
0.010136269
0.010091045
0.010038164
0.0099714917
0.0098559151
0.0097075215
0.0095530899
0.0094625613
0.0095956017
0.010002275
0.0099942847
0.0099046417
0.0097579495
0.0094503169
0.0096287645
0.0095280246
0.0094124147
0.0026176978
0.0010719729
0.0022455409
0.0055769281
0.0085778407
0.0092019476
0.0093315919
0.0093621052
0.0093663108
0.0093630454
0.0093578736
0.0093515251
0.0093440075
0.031746459
0.031783177
0.031819423
0.031855191
0.031890431
0.031925048
0.031958901
0.031991801
0.032023547
0.032053994
0.032083114
0.032111037
0.032138037
0.032164491
0.032190832
0.032217492
0.032244856
0.032350575
0.032328426
0.032305996
0.032282854
0.032258682
0.032233285
0.032206606
0.032178705
0.03214973
0.032119874
0.032089342
0.03205833
0.032027008
0.031995514
0.031963954
0.031985029
0.032016572
0.032048036
0.032079319
0.032110281
0.032140749
0.032170524
0.032199393
0.032227154
0.03225365
0.032278813
0.032302697
0.032325495
0.03234753
0.032369233
0.032412572
0.032391836
0.032370653
0.032348585
0.032325306
0.032300622
0.032274487
0.032246983
0.032218287
0.032188621
0.03215821
0.032127267
0.032095967
0.032064453
0.032032826
0.032113533
0.032145818
0.032177902
0.032209685
0.032241023
0.032271731
0.032301581
0.032330322
0.032357701
0.03238351
0.032407638
0.032430125
0.032451169
0.032471104
0.032490376
0.032612891
0.032595017
0.032576112
0.032555718
0.032533483
0.032509199
0.032482831
0.032454526
0.03242455
0.032393204
0.032360776
0.032327518
0.03229363
0.032259262
0.032224512
0.032336233
0.032377746
0.032418583
0.032458637
0.032497747
0.032535687
0.032572166
0.032606837
0.032639319
0.032669259
0.032696457
0.032720959
0.032743002
0.032762978
0.032781359
0.032961738
0.03293691
0.032909843
0.032880022
0.032846967
0.032810348
0.032770043
0.032726311
0.032679653
0.032630574
0.032579521
0.032526856
0.032472855
0.032417717
0.032361578
0.032114817
0.032196178
0.032276425
0.032355363
0.032432711
0.032508086
0.032580991
0.03265081
0.032716815
0.03277826
0.032834852
0.032886998
0.032935312
0.032980534
0.033023341
0.032633299
0.032560158
0.032486011
0.03240961
0.032329504
0.032244297
0.032152728
0.032055007
0.031952316
0.031845834
0.031736549
0.031625257
0.031512556
0.031398872
0.03128451
0.029480393
0.029622278
0.029764349
0.029906182
0.030047079
0.030185949
0.030321214
0.030450857
0.030572648
0.030684462
0.030786379
0.030881905
0.030974235
0.031066342
0.031160733
0.027819477
0.027773569
0.027730956
0.027688303
0.027640001
0.027579667
0.027499228
0.027397364
0.027278352
0.027147418
0.027009573
0.026868357
0.026725861
0.026583207
0.026441022
0.022382573
0.022489569
0.022595402
0.022699375
0.022799671
0.022892572
0.022971779
0.023025347
0.023040832
0.023012906
0.022942456
0.02284447
0.022723857
0.022577736
0.022414362
0.017918023
0.032065567
0.032028061
0.031991016
0.031954345
0.03191796
0.031881778
0.031845729
0.031809759
0.03177383
0.031737924
0.031702036
0.031666172
0.031630346
0.031594577
0.031558888
0.031523296
0.031487809
0.031489631
0.031493753
0.031500718
0.031510958
0.031524739
0.031542158
0.031563047
0.031586847
0.031612589
0.031638985
0.031664649
0.031688309
0.031794161
0.031784123
0.031772394
0.031758174
0.031740869
0.031720287
0.031696835
0.031671452
0.031645412
0.031620094
0.031596757
0.031576328
0.031559327
0.031545892
0.031535913
0.031529118
0.031525089
0.031560651
0.031564593
0.031571228
0.031580963
0.031594068
0.031610666
0.031630644
0.031653522
0.03167841
0.031704082
0.031729168
0.031752396
0.031772827
0.031790052
0.031804252
0.031816004
0.031826086
0.031835228
0.031844037
0.031852902
0.031862048
0.031871554
0.031881379
0.031891416
0.031901524
0.031911539
0.031921321
0.031930747
0.031939679
0.031947887
0.031954937
0.031960196
0.031963172
0.031964083
0.031995646
0.031994734
0.031991758
0.03198651
0.031979487
0.031971321
0.031962443
0.031953076
0.031943355
0.0319334
0.031923348
0.03191336
0.03190357
0.031894086
0.031884942
0.031876062
0.031867222
0.031858039
0.031847919
0.031836153
0.03182199
0.031804865
0.031784606
0.031761622
0.031736854
0.031711566
0.031687115
0.031664695
0.031645159
0.031628949
0.031616158
0.031606652
0.031600168
0.031596308
0.031632043
0.031635824
0.031642168
0.031651456
0.031663946
0.031679781
0.031698884
0.031720846
0.031744849
0.031769732
0.031794157
0.031816866
0.031836924
0.031853925
0.03186803
0.031879794
0.031889939
0.031899158
0.031908028
0.031916926
0.03192607
0.031935536
0.031945292
0.031955235
0.031965233
0.031975128
0.031984787
0.031994092
0.032002913
0.032011033
0.032018024
0.032023255
0.032026227
0.032027141
0.032058462
0.032057549
0.032054582
0.032049371
0.032042418
0.03203435
0.032025589
0.032016349
0.032006752
0.031996916
0.031986971
0.03197707
0.031967344
0.031957894
0.031948746
0.031939829
0.031930931
0.031921683
0.031911526
0.031899787
0.031885766
0.031868923
0.031849106
0.031826711
0.031802665
0.031778215
0.031754676
0.031733178
0.031714503
0.031699035
0.031686834
0.031677754
0.031671543
0.031667838
0.031703672
0.031707306
0.031713388
0.031722266
0.031734185
0.031749292
0.031767539
0.03178856
0.03181161
0.031835589
0.031859208
0.031881236
0.031900763
0.031917402
0.031931304
0.031942991
0.031953143
0.031962411
0.031971332
0.031980269
0.031989422
0.031998861
0.032008559
0.032018421
0.032028314
0.032038091
0.032047623
0.032056796
0.032065494
0.032073506
0.032080417
0.032085601
0.032088559
0.032089473
0.032120003
0.03211909
0.032116143
0.03211099
0.032104128
0.032096177
0.032087548
0.032078443
0.032068979
0.032059261
0.032049419
0.032039596
0.032029923
0.032020494
0.032011334
0.032002382
0.031993442
0.031984167
0.031974043
0.03196244
0.031948702
0.031932325
0.031913153
0.03189156
0.03186843
0.031844974
0.03182245
0.031801924
0.031784115
0.031769368
0.031757729
0.031749051
0.031743096
0.031739532
0.031775408
0.031778903
0.03178473
0.031793207
0.031804564
0.031818941
0.031836298
0.031856296
0.031878246
0.031901113
0.031923674
0.031944747
0.031963484
0.03197953
0.031993046
0.032004523
0.032014592
0.032023857
0.032032806
0.03204177
0.032050933
0.032060351
0.032069998
0.032079782
0.032089572
0.032099227
0.032108622
0.032117652
0.032126208
0.032134091
0.032140898
0.032146014
0.032148945
0.032149857
0.032178829
0.032177918
0.032175008
0.032169936
0.032163193
0.032155386
0.032146911
0.032137961
0.032128642
0.032119054
0.032109321
0.032099582
0.032089963
0.032080561
0.032071401
0.032062435
0.032053491
0.032044261
0.032034282
0.032022983
0.032009755
0.031994123
0.031975919
0.031955467
0.031933571
0.031911374
0.031890061
0.031870631
0.031853754
0.03183976
0.031828695
0.031820424
0.031814728
0.031811306
0.031847244
0.031850589
0.031856148
0.031864202
0.031874961
0.03188855
0.031904916
0.031923727
0.031944331
0.031965761
0.031986882
0.032006597
0.032024157
0.032039278
0.032052139
0.032063203
0.032073047
0.032082213
0.032091129
0.032100082
0.032109225
0.032118604
0.032128183
0.03213787
0.032147538
0.032157049
0.032166283
0.032175142
0.032183525
0.032191246
0.032197916
0.032202935
0.032205818
0.032206726
0.032233401
0.032232499
0.032229649
0.032224694
0.032218111
0.03221049
0.032202213
0.032193459
0.032184325
0.032174904
0.032165316
0.032155697
0.032146172
0.032136835
0.032127727
0.032118811
0.032109951
0.032100889
0.03209123
0.032080469
0.032068061
0.032053555
0.032036758
0.032017906
0.03199768
0.031977117
0.031957302
0.031939166
0.031923351
0.031910194
0.03189976
0.031891934
0.031886522
0.031883257
0.031919401
0.031922577
0.031927832
0.031935415
0.031945504
0.031958202
0.031973427
0.031990832
0.032009781
0.032029376
0.032048587
0.032066451
0.032082365
0.032096151
0.032108017
0.032118404
0.032127822
0.032136736
0.032145503
0.03215435
0.032163396
0.032172665
0.032182112
0.032191641
0.032201127
0.032210436
0.032219451
0.032228079
0.032236231
0.032243734
0.032250215
0.032255092
0.0322579
0.032258794
0.032282961
0.03228208
0.032279325
0.032274541
0.032268182
0.032260819
0.032252817
0.03224434
0.032235473
0.032226305
0.032216951
0.032207544
0.032198208
0.032189041
0.032180094
0.032171354
0.032162726
0.032154011
0.032144891
0.032134949
0.032123706
0.032110738
0.032095813
0.032079046
0.032060952
0.032042413
0.032024395
0.032007769
0.031993171
0.03198096
0.031971237
0.031963913
0.031958826
0.031955744
0.031992371
0.031995351
0.032000261
0.032007308
0.032016646
0.032028348
0.032042294
0.032058106
0.032075147
0.03209257
0.032109469
0.032125057
0.032138911
0.032150987
0.032161539
0.032170976
0.032179741
0.032188206
0.032196648
0.032205234
0.032214038
0.032223061
0.032232246
0.032241492
0.032250676
0.032259668
0.032268353
0.032276646
0.032284467
0.032291661
0.032297874
0.032302547
0.032305237
0.0323061
0.032328527
0.032327688
0.032325078
0.032320538
0.032314497
0.032307504
0.032299898
0.032291828
0.032283366
0.032274596
0.032265628
0.032256591
0.032247608
0.03223878
0.03223017
0.03222179
0.032213587
0.032205422
0.032197062
0.032188176
0.032178362
0.032167222
0.03215448
0.032140109
0.032124436
0.032108152
0.032092105
0.032077119
0.032063836
0.032052657
0.032043719
0.03203696
0.03203224
0.032029368
0.032066823
0.032069581
0.032074101
0.032080559
0.032089086
0.032099737
0.032112359
0.032126534
0.032141608
0.032156777
0.032171246
0.032184416
0.032196054
0.032206254
0.032215316
0.032223623
0.03223154
0.032239359
0.032247274
0.032255393
0.032263753
0.03227233
0.032281056
0.032289831
0.032298531
0.032307031
0.032315222
0.032323026
0.032330375
0.032337132
0.032342969
0.032347353
0.03234987
0.032350677
0.032322998
0.032314619
0.032306162
0.032297747
0.032289477
0.032281422
0.032273614
0.032266033
0.032258596
0.032251141
0.032243417
0.03223509
0.03222579
0.032215196
0.032203155
0.032189815
0.032175689
0.032161529
0.03236873
0.03234701
0.032324965
0.032302158
0.03227827
0.032253105
0.032226608
0.032198847
0.032169979
0.032140205
0.032109737
0.032078775
0.032047492
0.032016027
0.031984483
0.018169595
0.018236605
0.018299146
0.018356037
0.01840408
0.018436739
0.018445007
0.018420632
0.018309998
0.0182464
0.01810945
0.018008837
0.017983031
0.017952416
0.015281841
0.014434945
0.014466139
0.013274257
0.032411294
0.032390525
0.032369316
0.032347228
0.032323936
0.032299245
0.032273106
0.032245603
0.032216909
0.032187246
0.03215684
0.032125901
0.032094607
0.032063098
0.032031477
0.014733835
0.014827119
0.014922538
0.0150199
0.015116333
0.015204403
0.015270475
0.015314556
0.014137212
0.01396335
0.01264623
0.012685916
0.013255191
0.012986851
0.012816904
0.012649499
0.012717656
0.012679106
0.012583454
0.012240887
0.011868988
0.011462833
0.010485733
0.01044308
0.010450966
0.010453019
0.010466238
0.010543344
0.010564088
0.010661882
0.01068232
0.010735307
0.010759449
0.010910393
0.010948497
0.011224226
0.011277545
0.01165041
0.011717344
0.012144342
0.012219959
0.012643247
0.012725843
0.013161591
0.013249945
0.013661217
0.013756802
0.014161987
0.014269134
0.014411734
0.014545079
0.014683621
0.01477144
0.015188273
0.015293076
0.015698805
0.0158034
0.016204788
0.01630811
0.016672083
0.016770284
0.017095917
0.017192035
0.017523795
0.017618984
0.017941393
0.018031122
0.018318475
0.018399838
0.018659279
0.018730257
0.018944495
0.019004538
0.019181877
0.019227623
0.019356405
0.01939096
0.019484779
0.019507486
0.019564211
0.019576167
0.01960373
0.019604518
0.019597689
0.019589955
0.01956653
0.019553029
0.019510604
0.019494322
0.019446748
0.019429951
0.019377071
0.019358775
0.019297012
0.019276494
0.019203416
0.019182842
0.019105144
0.019081129
0.018963843
0.018926059
0.018734053
0.018670146
0.018347427
0.018244964
0.017771679
0.01762911
0.017014282
0.016841103
0.016160754
0.015967659
0.015317586
0.015129715
0.014969565
0.01490771
0.014974787
0.014619336
0.014602709
0.014647143
0.014600726
0.015019956
0.01528947
0.015863215
0.016165088
0.016755479
0.017026247
0.017552043
0.01778084
0.018189575
0.018350144
0.018624437
0.018724674
0.018889602
0.018948264
0.019047228
0.019084712
0.019151813
0.019183718
0.019246064
0.019277006
0.01933062
0.019358658
0.019405234
0.019430775
0.019472633
0.019496923
0.019534534
0.019555025
0.019577309
0.019589335
0.019596399
0.01959491
0.019572774
0.019555631
0.019508969
0.019476469
0.019398244
0.019348653
0.019240683
0.019172284
0.019023555
0.018935663
0.018754514
0.018649029
0.018430434
0.01830955
0.018066509
0.017932761
0.017659333
0.017516134
0.017233115
0.017088141
0.016807045
0.016657171
0.016344516
0.016185746
0.015840745
0.015677762
0.015328084
0.015160764
0.014794183
0.014643693
0.014587954
0.014596381
0.014302757
0.014149843
0.013799884
0.013644528
0.013287965
0.013142007
0.012762732
0.012625841
0.012256505
0.012129425
0.011754664
0.011641239
0.011313541
0.011223103
0.010980788
0.01091615
0.010782525
0.010742645
0.010696687
0.010663179
0.010574684
0.010539973
0.010469348
0.010446908
0.010444487
0.010408488
0.010336898
0.010286485
0.010347125
0.010278102
0.010377341
0.010418775
0.010427596
0.010459138
0.010524766
0.010576148
0.010657367
0.010705817
0.010749578
0.010807366
0.010922724
0.011016585
0.011221389
0.011354022
0.011629969
0.011794731
0.012109595
0.012291802
0.012602337
0.012796049
0.013115237
0.013317748
0.013619714
0.01383002
0.014127976
0.014327816
0.014595775
0.014829062
0.014968188
0.015128315
0.015364583
0.015649387
0.015881164
0.016159649
0.016382776
0.016638639
0.016847197
0.01708404
0.01728359
0.017514477
0.0177078
0.017928291
0.018106086
0.01830043
0.018458448
0.018631984
0.018767761
0.018910344
0.019022589
0.019139278
0.019224481
0.019309211
0.019371847
0.019433018
0.019473296
0.019508688
0.019528179
0.019541824
0.019540259
0.019530112
0.01951088
0.019487119
0.019457158
0.019422615
0.019387036
0.019348635
0.01931116
0.019270067
0.019229971
0.019185194
0.01914136
0.01909107
0.019045593
0.018992416
0.018939018
0.018860733
0.018775712
0.018644567
0.018501873
0.018283136
0.018046947
0.017702433
0.017549134
0.017410134
0.016991279
0.016637303
0.016125909
0.015729946
0.015212173
0.014862241
0.01444498
0.014086693
0.013980448
0.013883105
0.013924708
0.014357969
0.01478972
0.015170952
0.015678711
0.016099499
0.016591736
0.01697621
0.017385659
0.017364272
0.01767048
0.018006902
0.018248779
0.018463597
0.018609044
0.018736397
0.018822002
0.018897691
0.018952045
0.01900543
0.01905156
0.019101088
0.019146162
0.019191127
0.019232659
0.019274655
0.019313455
0.019352485
0.019389213
0.019424821
0.019456477
0.019482185
0.01950328
0.019515083
0.019517436
0.019505625
0.019486922
0.019454049
0.019414672
0.019356884
0.019294889
0.019213666
0.019127869
0.019016105
0.018904027
0.01876515
0.018627802
0.018460168
0.018300876
0.018112181
0.017931858
0.017717066
0.017519908
0.01729384
0.017088843
0.016854623
0.016639856
0.016388977
0.016158927
0.015885924
0.015644068
0.015356996
0.01509209
0.015093553
0.014834697
0.014595994
0.01433474
0.014120424
0.013836815
0.013612476
0.013325625
0.013107409
0.012806174
0.012596472
0.012304718
0.012106644
0.011811661
0.011631481
0.011373602
0.011228178
0.011035246
0.010931924
0.010821088
0.010757828
0.010713169
0.010659644
0.010578638
0.010520371
0.010454526
0.010419191
0.010404793
0.010351032
0.01020928
0.010223922
0.010214581
0.010189455
0.01015263
0.01010824
0.010054739
0.0099866098
0.0098568059
0.0099494817
0.010061052
0.010129637
0.010212972
0.010295307
0.010393548
0.010484883
0.010575779
0.010650316
0.010743832
0.010854661
0.010989971
0.011151487
0.011328628
0.01153427
0.011747455
0.011982101
0.012211703
0.012451366
0.012690451
0.01293874
0.013181405
0.013426899
0.013672533
0.013917762
0.014158977
0.014401137
0.014650756
0.014904341
0.015162442
0.01542042
0.015680955
0.015937073
0.016188292
0.01643199
0.016665065
0.016897588
0.017114201
0.017326831
0.01752356
0.017714539
0.017884741
0.018046981
0.018191341
0.018329266
0.018445245
0.018553821
0.01864646
0.018733909
0.018799403
0.018860662
0.018907347
0.01895031
0.018973636
0.018992346
0.018993987
0.018991375
0.018971651
0.018947852
0.018910579
0.018875295
0.018827399
0.018785844
0.018734383
0.018691697
0.018639148
0.018596701
0.018544919
0.018503668
0.018450644
0.018405423
0.018350574
0.018305348
0.018248232
0.018184601
0.018095833
0.017989867
0.017843169
0.017660273
0.017426531
0.017150239
0.01682879
0.016468248
0.016064566
0.015625154
0.015155287
0.014669118
0.014181584
0.013703036
0.013258488
0.012897129
0.012810027
0.012648467
0.012677409
0.013142588
0.013613497
0.01409918
0.014591143
0.015079886
0.01554955
0.015988097
0.016388096
0.016747783
0.017064974
0.017336827
0.017564626
0.01774678
0.01788993
0.017995433
0.018078433
0.01814153
0.018196856
0.018245792
0.018298002
0.018344023
0.01839509
0.018439299
0.018490042
0.018535417
0.018586366
0.018631644
0.018682131
0.018726764
0.018774013
0.018811943
0.018849522
0.018876769
0.018896322
0.018902584
0.018901941
0.018886617
0.018863995
0.018825002
0.018779385
0.018722523
0.018658389
0.018576604
0.018485891
0.018379997
0.018265134
0.018132344
0.01799026
0.017832273
0.017663281
0.017475478
0.017278964
0.017068611
0.016851481
0.016618938
0.016382894
0.01613983
0.015889934
0.015633468
0.01537366
0.015115489
0.014858824
0.014605382
0.014357089
0.014114467
0.01387407
0.013629818
0.013387403
0.013144527
0.012904072
0.012657865
0.012421225
0.012184122
0.011956785
0.011724938
0.011513309
0.011309409
0.011132937
0.010971142
0.010835175
0.010721625
0.010626218
0.010545859
0.010451418
0.010353676
0.010252126
0.010162313
0.010071736
0.0099855793
0.0098454018
0.0096804501
0.0094961249
0.0093586503
0.0093817775
0.0097287039
0.0097321772
0.0099104271
0.009937019
0.010132179
0.010106889
0.0099901381
0.010047895
0.010232818
0.010272345
0.01044686
0.010482282
0.01067461
0.010708529
0.010867454
0.010902077
0.011100911
0.011141939
0.011405331
0.011455556
0.011782458
0.011841835
0.012213865
0.012281878
0.012669068
0.012743721
0.013145035
0.013226189
0.013623821
0.013710568
0.014109809
0.014201261
0.014595135
0.014692734
0.015098046
0.01520243
0.015607719
0.015715212
0.016115342
0.016223109
0.016601911
0.016705777
0.017062434
0.017160365
0.017480058
0.017567533
0.017851208
0.017927222
0.01816464
0.018227609
0.018426341
0.018478135
0.018418467
0.018350807
0.018615151
0.018822011
0.018907576
0.018927591
0.018983986
0.018994399
0.019014023
0.019013216
0.019006169
0.018996738
0.018958356
0.018940519
0.018887897
0.018867375
0.018802072
0.018778738
0.018711053
0.018688191
0.018618596
0.018595755
0.018527983
0.018506856
0.018432914
0.018409906
0.018329244
0.018303566
0.018187532
0.018147268
0.017957339
0.017892292
0.017586629
0.017484444
0.017040087
0.016902296
0.016337126
0.016162761
0.015473265
0.015268759
0.014498148
0.014253106
0.013406287
0.013121458
0.012869814
0.012752175
0.012851221
0.012818659
0.013086722
0.013057014
0.013549955
0.014033617
0.014527999
0.01501763
0.015488215
0.015925469
0.016324934
0.016682268
0.016995726
0.01726701
0.017490963
0.017671637
0.017810705
0.017915184
0.017997762
0.018060937
0.018117629
0.01816736
0.018218667
0.018264321
0.018312619
0.018359776
0.018409994
0.018457109
0.018507626
0.018554858
0.018605085
0.018651373
0.018697747
0.018736096
0.018774592
0.018803244
0.018824319
0.018831951
0.018833068
0.018818894
0.018795207
0.018760914
0.018719086
0.018662451
0.018596402
0.018520519
0.018433958
0.018329764
0.018214679
0.018086019
0.017945697
0.017789911
0.017621675
0.017438163
0.017243608
0.017034697
0.016816126
0.016585066
0.016346579
0.016102563
0.015852351
0.015596768
0.015337394
0.0150785
0.014820784
0.014568066
0.014320909
0.014079639
0.013838254
0.01359457
0.013354954
0.013113727
0.012872719
0.012629012
0.012393431
0.012157476
0.011930205
0.011701493
0.011490693
0.011288009
0.011111041
0.010949856
0.010812689
0.01069552
0.010596428
0.010511486
0.010413394
0.01030977
0.010204205
0.010109789
0.010013703
0.01004887
0.010336162
0.010145024
0.010242989
0.010520705
0.010347754
0.010457721
0.010730954
0.010553971
0.010642408
0.010908059
0.010740052
0.010860656
0.0111353
0.01099368
0.011156315
0.011440433
0.011329051
0.011534048
0.011824236
0.011737907
0.011968344
0.012261678
0.012189598
0.012429927
0.012723043
0.012657839
0.012905698
0.013201897
0.013139924
0.013388385
0.013684824
0.013620717
0.013870015
0.014170138
0.014104396
0.014354366
0.014658078
0.01459237
0.014852063
0.01516024
0.015101532
0.015368896
0.015672463
0.0156178
0.01588038
0.016177266
0.01612382
0.01637707
0.016661838
0.016604903
0.016841808
0.017115852
0.017053407
0.01727005
0.017532053
0.017457911
0.017646703
0.01789828
0.017809506
0.017970594
0.01821122
0.018104698
0.018236032
0.01846957
0.018346317
0.018452417
0.018675616
0.01853529
0.018613572
0.018834559
0.018677862
0.018736179
0.018949462
0.018777187
0.018811813
0.0190226
0.018834836
0.018848054
0.019050088
0.018847111
0.018840336
0.019040156
0.018821397
0.018791994
0.01899017
0.01875552
0.018716156
0.018919291
0.018673045
0.018624597
0.018831881
0.018577256
0.018528197
0.018742183
0.018481636
0.018432698
0.018651318
0.018384693
0.018334164
0.018560714
0.018289414
0.018241179
0.018464834
0.018192126
0.018142371
0.01836334
0.018089817
0.018021195
0.018217972
0.017938739
0.017828185
0.017982104
0.017693845
0.017503422
0.017593316
0.017284765
0.017002695
0.01703106
0.016699552
0.016330956
0.016305498
0.015941388
0.0154929
0.015434954
0.015034264
0.01453281
0.014473154
0.014049263
0.013550998
0.013491523
0.013439267
0.014471079
0.015439744
0.016314466
0.017039355
0.017607375
0.01800167
0.018244765
0.01839509
0.018498684
0.018595648
0.018685864
0.018777083
0.018866603
0.018953018
0.019022735
0.019072684
0.019082139
0.019055352
0.018981563
0.018867009
0.018707818
0.018504184
0.018244704
0.017933407
0.017565766
0.017151658
0.016694717
0.016209455
0.015702289
0.015189896
0.01468418
0.014195262
0.013705763
0.013221587
0.012739604
0.012278135
0.01183987
0.011456201
0.011149207
0.010918028
0.010734188
0.010516157
0.010321282
0.011073848
0.01095755
0.011041961
0.010969969
0.010237716
0.010083144
0.010149149
0.010236352
0.010323632
0.010381476
0.010420959
0.010450746
0.010461187
0.01045442
0.010348068
0.010447601
0.010726466
0.01066956
0.010438234
0.010383385
0.010453863
0.010743272
0.011291857
0.011247251
0.011591684
0.011532309
0.011814349
0.011717579
0.011891451
0.011753704
0.011858933
0.011681605
0.011638274
0.011139677
0.010794235
0.010820648
0.01087587
0.010917512
0.010969257
0.010964251
0.010976462
0.010912564
0.010869383
0.010927548
0.010939223
0.011055834
0.011029333
0.011098381
0.011052884
0.011076864
0.011014777
0.011024802
0.010180473
0.010212552
0.009784503
0.0096774568
0.0097271883
0.0096734788
0.0098232231
0.0096754249
0.0095413593
0.0095665608
0.0093273313
0.0093255536
0.0088752495
0.0094204078
0.0095547839
0.0094594302
0.0093907386
0.0084285866
0.0098737795
0.010348851
0.01126771
0.012269729
0.014852877
0.015613176
0.015723749
0.01519947
0.014422571
0.016968446
0.022084259
0.02745198
0.030864872
0.032446281
0.032921485
0.032904926
0.032740837
0.032574433
0.032449465
0.032428403
0.032405907
0.032381776
0.032355973
0.032328603
0.032299876
0.032270043
0.032239354
0.032208036
0.032176275
0.032144214
0.032111955
0.032334346
0.032223107
0.032257816
0.032375816
0.032413231
0.032357153
0.032103909
0.032185057
0.032265094
0.032468316
0.032416612
0.032292146
0.032325996
0.032456626
0.032495698
0.032359219
0.032391614
0.032533604
0.032625872
0.032574872
0.032522262
0.032343821
0.03242095
0.032496094
0.032476608
0.032617661
0.032529197
0.032388053
0.032266693
0.032184581
0.032138609
0.03210814
0.032077179
0.032045897
0.032014434
0.031982893
0.0092143131
0.0092087484
0.009200986
0.0091905277
0.0091765732
0.0091519553
0.0090933482
0.0089012098
0.0082207938
0.00574714
0.0015354876
0.0012819768
0.001361555
0.0014094631
0.0013407694
0.0012832098
0.0013793563
0.0015674854
0.0014195302
0.0017111113
0.0053540463
0.0081354128
0.010436795
0.010585213
0.0090518846
0.0042549536
0.0020648618
0.0050495885
0.0092134656
0.0093351042
0.0086612216
0.0093486259
0.0097197578
0.0097183945
0.0098384723
0.010073804
0.011272964
0.0094549753
0.007351265
0.011359765
0.012297891
0.011832861
0.011949022
0.011945158
0.011896268
0.011832498
0.011765359
0.011698013
0.011631588
0.0095120321
0.0095109907
0.0095073481
0.0095016977
0.009491663
0.0094706159
0.0094173816
0.0092442303
0.0086495267
0.0055292472
0.0015277195
0.0013412683
0.0015268248
0.0015485512
0.0012900342
0.0013102965
0.0014491585
0.0014841775
0.0013016215
0.0015325113
0.0055716703
0.0084207889
0.01071756
0.010493877
0.012125233
0.012077841
0.013776703
0.015957212
0.016668694
0.016457073
0.016596253
0.016208237
0.016312017
0.015910397
0.01601905
0.01522807
0.017074508
0.022271489
0.027432638
0.03077919
0.032371441
0.032873402
0.032875098
0.032718778
0.032554029
0.032531793
0.032507517
0.032481164
0.032452881
0.032422931
0.032570052
0.032604696
0.032637157
0.032667081
0.032805464
0.0327652
0.032721514
0.032674902
0.032568756
0.032638318
0.032704047
0.032765202
0.032821515
0.032842056
0.032694272
0.032689615
0.032528068
0.032402521
0.03232131
0.032276711
0.032251531
0.032225024
0.032197258
0.032168386
0.032164926
0.032135137
0.032104659
0.032073693
0.032042409
0.032010946
0.03197941
0.0099610215
0.009956241
0.0099485643
0.0099380366
0.009921945
0.009894968
0.0098388807
0.0096771118
0.0091364969
0.0055952595
0.0015603954
0.0013885072
0.0016357149
0.0016429813
0.0013237182
0.001364729
0.0015878671
0.0016027016
0.0013046224
0.0015412373
0.0055410887
0.0088764418
0.011132304
0.010965454
0.012639022
0.012404589
0.013996559
0.015304328
0.017551179
0.022609384
0.027299914
0.030488008
0.032119147
0.032022809
0.031921388
0.031816072
0.031707849
0.031597524
0.031485719
0.031372887
0.031259353
0.01057554
0.010569343
0.010559918
0.010547223
0.010528528
0.010498199
0.010441903
0.010287977
0.0098164427
0.0057530424
0.0016255998
0.0014522198
0.0017011597
0.0017111694
0.0013778024
0.0014130368
0.0016675269
0.0016770896
0.0013496077
0.0015888342
0.0056728282
0.0094599418
0.011599623
0.011330059
0.012828494
0.012705966
0.013921521
0.016853309
0.017164977
0.022223799
0.027059154
0.030366316
0.032066909
0.032683444
0.032756677
0.032632549
0.032477466
0.032352573
0.032270446
0.032242937
0.032214242
0.032296503
0.032325213
0.032320042
0.032238594
0.032193817
0.032221609
0.03224815
0.032292301
0.032296598
0.032378378
0.032373207
0.032347396
0.032266121
0.03225996
0.032216156
0.032188316
0.032159386
0.032129566
0.032099065
0.03206808
0.032036784
0.032005314
0.031973777
0.011390865
0.011384745
0.011374581
0.011360506
0.011339342
0.01130576
0.011244629
0.011086093
0.01062064
0.0059902013
0.0017394302
0.0015492642
0.0017884662
0.0017883302
0.0014673135
0.0014949522
0.0017387609
0.0017499855
0.0014219114
0.001680364
0.0058693232
0.01023525
0.012277367
0.011876923
0.01331538
0.013104261
0.01426286
0.016984565
0.021989691
0.021964869
0.026883397
0.030275386
0.032027975
0.032667255
0.032748165
0.032626199
0.03247175
0.032443556
0.032449219
0.032419315
0.032565565
0.032600143
0.032593898
0.032559448
0.032413722
0.032291351
0.03220989
0.032180227
0.03214983
0.032154181
0.03212325
0.032091966
0.032060469
0.032028864
0.012323383
0.012313362
0.012297822
0.012276837
0.012246951
0.012203078
0.012129947
0.011954931
0.011471713
0.0063695328
0.0019035305
0.0016878377
0.0018900401
0.001892572
0.0015945308
0.0016091954
0.0018346513
0.0018375366
0.0015268722
0.0018154456
0.0061678969
0.011060004
0.012842101
0.01258296
0.014070569
0.013795506
0.014948881
0.01749536
0.022275691
0.027038939
0.026879163
0.030274395
0.032030056
0.032666348
0.032743278
0.032619168
0.032464311
0.03234045
0.03231311
0.032232402
0.03220368
0.032174008
0.03214361
0.032112693
0.032118907
0.032087636
0.032056156
0.032024573
0.013312316
0.013297569
0.013275916
0.013247343
0.013208017
0.013152444
0.013064979
0.012871721
0.012355636
0.0068848988
0.0021239829
0.0018817206
0.0020361736
0.002029484
0.0017659412
0.0017714472
0.0019602749
0.0019579745
0.0016771573
0.002007494
0.0066112248
0.011943781
0.013324357
0.013021119
0.01496272
0.01465522
0.015822295
0.018207102
0.022710954
0.027303404
0.030513082
0.030363922
0.032074086
0.032681029
0.032742175
0.032611709
0.032455426
0.03233199
0.032252273
0.032209098
0.032181193
0.032152209
0.032122344
0.032091805
0.03206079
0.032029468
0.03199798
0.031966429
0.032010706
0.032018418
0.032049975
0.032129479
0.032136074
0.032141007
0.032108797
0.03210393
0.032097424
0.032089558
0.032121503
0.032042238
0.032073679
0.032081435
0.03216136
0.032168034
0.032173026
0.032204749
0.032199707
0.032230947
0.032236034
0.032355723
0.032322572
0.0322888
0.032254554
0.032219937
0.031745748
0.03177884
0.031811699
0.031844318
0.031876653
0.031908623
0.031940108
0.031970938
0.03200093
0.032029948
0.032057965
0.03208509
0.032111574
0.032137764
0.032164074
0.032190916
0.032218662
0.032215928
0.032188064
0.032161091
0.03213464
0.032108306
0.032081688
0.032054447
0.032026342
0.031997267
0.031967252
0.031936424
0.031904952
0.031872997
0.031840681
0.031808083
0.031775247
0.031742182
0.031489535
0.03149349
0.031500338
0.031510826
0.031525721
0.031545715
0.031571112
0.031601355
0.031634568
0.031667534
0.031696529
0.031718845
0.031733756
0.031766663
0.031751419
0.031728695
0.031699439
0.031666535
0.031633723
0.031604096
0.031579372
0.03155999
0.031545584
0.031535445
0.031528819
0.031524982
0.031560534
0.031564257
0.031570669
0.031580468