/*--------------------------------*- C++ -*----------------------------------*\
| =========                 |                                                 |
| \\      /  F ield         | OpenFOAM: The Open Source CFD Toolbox           |
|  \\    /   O peration     | Version:  v2012                                 |
|   \\  /    A nd           | Website:  www.openfoam.com                      |
|    \\/     M anipulation  |                                                 |
\*---------------------------------------------------------------------------*/
FoamFile
{
    version     2.0;
    format      ascii;
    class       volScalarField;
    location    "174";
    object      omega;
}
// * * * * * * * * * * * * * * * * * * * * * * * * * * * * * * * * * * * * * //

dimensions      [0 0 -1 0 0 0 0];


internalField   nonuniform List<scalar> 
19710
(
27.477575
27.409838
27.347281
27.196015
26.930225
26.824066
26.700512
26.502333
26.343079
26.202229
26.073599
25.960319
25.861539
25.757328
25.715304
25.687847
25.663633
25.581286
25.339027
24.846488
24.756859
24.742973
24.754394
24.738768
24.667628
24.659584
24.708803
25.40059
30.808347
33.460373
31.936727
29.912116
27.704315
26.808052
26.145031
25.55438
24.990171
24.448215
23.926092
23.425748
8.1265742
8.1721379
8.2183396
8.2651599
8.3125725
8.360536
8.4089895
8.4578515
8.5070295
8.5564468
8.6060657
8.6559038
8.7060305
8.756554
8.8076081
8.8593293
8.9118433
8.9719569
8.9209916
8.8702715
8.8196505
8.7690277
8.7183484
8.6676083
8.616845
8.5661251
8.5155296
8.465142
8.4150396
8.3652884
8.315942
8.267041
8.2721114
8.3210433
8.3704265
8.4202199
8.4703691
8.5208062
8.5714514
8.6222178
8.6730202
8.7237878
8.7744794
8.825097
8.8756946
8.9263734
8.9772798
8.9894141
8.938647
8.8880704
8.8375379
8.7869483
8.7362496
8.685444
8.6345804
8.5837387
8.5330125
8.4824955
8.4322723
8.3824144
8.3329776
8.2840037
8.3061017
8.3550886
8.4045588
8.4544701
8.5047642
8.555365
8.6061801
8.657105
8.7080322
8.7588663
8.8095461
8.8600627
8.9104658
8.960857
9.0113827
9.0479952
8.9978795
8.9478238
8.8976815
8.8473487
8.7967779
8.7459858
8.6950535
8.644101
8.5932573
8.5426427
8.4923603
8.4424922
8.3930991
8.3442232
8.4091308
8.4575767
8.5065852
8.5561164
8.6061087
8.6564742
8.7070971
8.7578357
8.8085294
8.8590191
8.9091953
8.9590347
9.0085864
9.0579608
9.1073079
9.2061931
9.1583448
9.1103659
9.0621006
9.0134239
8.9642781
8.9146835
8.8647902
8.8148182
8.7649726
8.7154207
8.6662905
8.6176728
8.5696259
8.5221827
8.7249959
8.7708565
8.8173141
8.8643501
8.9119177
8.9599334
9.0082679
9.0567338
9.1050675
9.152949
9.2001722
9.2467422
9.2927326
9.3382842
9.3835478
9.7300674
9.6873072
9.6439766
9.6000059
9.5552811
9.5097282
9.4632842
9.4162321
9.3690387
9.3220234
9.275354
9.2291174
9.1833588
9.1380986
9.0933322
9.7513988
9.7992465
9.8473936
9.8958649
9.9446911
9.9939406
10.043728
10.094128
10.144945
10.19549
10.245344
10.294701
10.343554
10.391889
10.439481
11.903673
11.817511
11.731933
11.647789
11.566032
11.486939
11.410007
11.335607
11.264719
11.196909
11.130976
11.066025
11.001638
10.937657
10.874046
12.621059
12.726043
12.832687
12.941053
13.051555
13.165417
13.284965
13.415004
13.5603
13.720467
13.894042
14.0846
14.296278
14.532951
14.789162
18.091156
8.8624888
8.8076039
8.7533773
8.6997649
8.6467258
8.594223
8.5422256
8.4907109
8.4396628
8.3890726
8.3389374
8.2892581
8.2400384
8.1912845
8.1430035
8.0952014
8.0478821
8.0482939
8.0492086
8.0507579
8.0530541
8.0561606
8.0600959
8.0648546
8.0704092
8.0766789
8.0834851
8.0905434
8.0975127
8.171808
8.1677163
8.1630707
8.15775
8.1517284
8.145099
8.1380822
8.1309802
8.1241384
8.1178398
8.1122603
8.1074786
8.1035226
8.1003992
8.0980909
8.0965345
8.0956157
8.1434205
8.1443442
8.1459093
8.1482318
8.1513755
8.1553564
8.1601655
8.1657737
8.1721036
8.1789814
8.1861244
8.1931838
8.199853
8.2059082
8.2112557
8.2159247
8.2200385
8.2237552
8.2272342
8.2305948
8.2339168
8.2372404
8.2405734
8.2438997
8.2471895
8.2503986
8.2534818
8.2563909
8.2590796
8.2615029
8.2635994
8.2652643
8.266375
8.2669084
8.3158063
8.3152666
8.3141498
8.3124815
8.3103836
8.3079581
8.3052652
8.3023493
8.2992568
8.2960362
8.2927332
8.289391
8.2860396
8.2826957
8.2793507
8.2759661
8.2724631
8.2687237
8.2645893
8.2599008
8.2545328
8.2484524
8.2417518
8.2346569
8.2274773
8.220565
8.2142027
8.2085629
8.2037231
8.1997138
8.1965468
8.1942077
8.1926328
8.191704
8.2404597
8.2413939
8.2429799
8.2453373
8.24853
8.2525702
8.2574431
8.2631156
8.2695095
8.2764521
8.2836612
8.2907815
8.2975021
8.3035975
8.3089781
8.313681
8.3178338
8.321596
8.3251242
8.328535
8.3319057
8.3352729
8.3386449
8.3420053
8.3453237
8.3485575
8.3516608
8.3545845
8.3572823
8.3597101
8.3618094
8.3634807
8.3646036
8.3651497
8.414898
8.4143454
8.4132166
8.4115426
8.4094421
8.4070119
8.4043085
8.4013759
8.3982605
8.3950118
8.3916758
8.3882948
8.3848997
8.3815067
8.378108
8.3746685
8.3711139
8.3673293
8.3631614
8.3584507
8.3530675
8.3469701
8.3402441
8.3331122
8.3258847
8.3189192
8.3124978
8.3067938
8.3018875
8.2978153
8.2945957
8.2922193
8.2906217
8.2896816
8.3393639
8.3403102
8.3419188
8.3443137
8.3475597
8.3516629
8.3566003
8.3623312
8.3687724
8.3757489
8.3829789
8.3901035
8.3968162
8.4028987
8.4082719
8.4129824
8.4171611
8.4209667
8.4245483
8.4280179
8.4314469
8.4348684
8.4382891
8.4416929
8.4450481
8.4483133
8.451442
8.4543844
8.4570939
8.4595267
8.461628
8.463304
8.4644382
8.4649973
8.5153817
8.5148161
8.5136774
8.5120001
8.5098985
8.5074633
8.5047474
8.5017945
8.4986517
8.4953688
8.4919927
8.4885645
8.4851164
8.4816647
8.4782037
8.4747032
8.471095
8.4672711
8.4630874
8.4583877
8.4530401
8.4469932
8.4403179
8.4332249
8.4260144
8.4190445
8.4125963
8.4068473
8.4018845
8.3977539
8.3944839
8.3920722
8.3904539
8.3895022
8.4400942
8.4410497
8.4426755
8.4451007
8.4483899
8.4525411
8.4575198
8.4632734
8.4697099
8.4766492
8.4838114
8.4908421
8.4974502
8.5034361
8.5087386
8.5134142
8.5175948
8.5214324
8.5250657
8.5285967
8.5320897
8.5355725
8.5390493
8.5425027
8.5459005
8.5492017
8.5523591
8.5553224
8.5580443
8.5604812
8.5625822
8.5642598
8.565402
8.5659739
8.6166905
8.6161127
8.6149682
8.613292
8.6111932
8.6087557
8.6060289
8.603056
8.5998848
8.5965658
8.5931466
8.5896683
8.5861632
8.5826496
8.5791257
8.5755662
8.5719119
8.5680672
8.5639007
8.5592659
8.554032
8.5481373
8.5416323
8.5347018
8.5276236
8.5207457
8.5143456
8.5086063
8.5036259
8.4994642
8.4961628
8.4937292
8.4921002
8.4911435
8.5426575
8.5436123
8.5452399
8.547675
8.5509788
8.5551375
8.5601017
8.5658032
8.5721366
8.5789163
8.5858681
8.5926544
8.5990151
8.6047833
8.6099209
8.614495
8.6186332
8.6224755
8.6261443
8.6297278
8.6332793
8.6368211
8.6403522
8.6438535
8.6472922
8.650627
8.6538101
8.6567904
8.6595198
8.6619552
8.6640494
8.6657222
8.6668672
8.6674505
8.7181872
8.7175994
8.7164558
8.7147895
8.7127034
8.7102737
8.7075458
8.704562
8.7013711
8.6980246
8.6945706
8.6910508
8.6874983
8.6839336
8.6803604
8.6767604
8.6730865
8.6692595
8.6651666
8.6606766
8.6556661
8.6500631
8.6438921
8.6372981
8.6305196
8.6238795
8.6176469
8.6120104
8.6070836
8.6029441
8.5996499
8.5972218
8.5956014
8.5946524
8.6471506
8.6480896
8.6496959
8.6521072
8.6553785
8.6594814
8.6643481
8.6698907
8.6759869
8.6824447
8.6890017
8.695354
8.701289
8.706687
8.7115383
8.7159186
8.7199465
8.723743
8.7274092
8.731015
8.7346006
8.7381797
8.7417458
8.7452769
8.7487389
8.7520904
8.755283
8.7582643
8.7609851
8.7634036
8.7654767
8.7671327
8.7682722
8.7688632
8.8194828
8.8188904
8.8177583
8.8161176
8.8140637
8.8116636
8.8089578
8.8059876
8.8028026
8.7994557
8.7959958
8.7924643
8.7888959
8.7853144
8.7817293
8.7781315
8.7744887
8.7707409
8.766799
8.7625538
8.7578931
8.7527377
8.7470812
8.7410157
8.7347246
8.7284882
8.7225619
8.7171407
8.7123574
8.7083099
8.7050759
8.7026926
8.7011076
8.7001829
8.7537862
8.7546912
8.7562471
8.7585922
8.7617745
8.765749
8.7704282
8.7757035
8.7814317
8.787414
8.793403
8.7991448
8.8044879
8.80937
8.8138135
8.8179004
8.8217354
8.8254157
8.8290175
8.8325904
8.8361595
8.8397282
8.8432845
8.8468025
8.8502472
8.8535769
8.8567425
8.8596905
8.8623709
8.8647432
8.8667698
8.8683891
8.8695099
8.8701011
8.9208195
8.9202319
8.919127
8.9175362
8.9155464
8.9132132
8.9105706
8.9076582
8.9045271
8.9012306
8.897818
8.894331
8.890805
8.8872678
8.883734
8.8802052
8.876664
8.8730708
8.8693619
8.8654527
8.861246
8.8566577
8.8516494
8.8462534
8.8405886
8.8348807
8.8293699
8.8242586
8.8197003
8.8158141
8.8126968
8.8104008
8.8088819
8.8080014
8.8628725
8.8637235
8.8651976
8.8674339
8.8704736
8.8742581
8.8786832
8.8836207
8.8889072
8.8943355
8.899672
8.9047183
8.909387
8.9136746
8.9176346
8.9213533
8.9249202
8.928408
8.9318691
8.9353331
8.9388107
8.9422956
8.9457705
8.9492065
8.9525677
8.9558129
8.9588925
8.9617531
8.9643432
8.9666242
8.968566
8.9701201
8.9712036
8.9717842
9.0044441
9.0011544
8.9977904
8.9943878
8.9909768
8.9875768
8.9841976
8.9808349
8.9774677
8.9740536
8.9705304
8.9668155
8.9628209
8.9584792
8.9537679
8.948745
8.9435855
8.9385184
8.976908
8.9260014
8.8753245
8.8247303
8.7741176
8.7234319
8.6726708
8.6218753
8.5711158
8.5204775
8.470047
8.4199041
8.3701167
8.320739
8.2718124
14.910194
15.081906
15.258969
15.44183
15.631969
15.833116
16.050491
16.287754
16.585572
16.834861
17.110159
17.369761
17.591717
17.83555
20.303202
21.447804
21.575205
23.357163
8.9887937
8.9380252
8.88745
8.8369212
8.7863376
8.7356469
8.6848507
8.6339974
8.5831662
8.5324505
8.4819436
8.43173
8.3818807
8.3324519
8.2834854
17.241515
17.442668
17.645185
17.848556
18.053922
18.265966
18.494877
18.733785
20.120598
20.47582
20.772701
21.147443
21.467483
21.889385
22.242806
22.620028
22.781959
23.071658
23.44003
24.167336
24.972775
25.886307
27.678972
27.544074
27.593293
27.819368
27.84608
27.969412
27.986128
28.149708
28.176186
28.47642
28.493959
28.526013
28.508989
28.237397
28.185205
27.676427
27.598238
27.011033
26.920455
26.353405
26.256038
25.699432
25.599391
25.112974
25.011216
24.559578
24.432203
24.310098
24.292471
24.31674
24.235588
23.843347
23.751928
23.377932
23.288149
22.922394
22.837261
22.530129
22.461315
22.248384
22.178246
21.888479
21.805146
21.504097
21.42235
21.153239
21.078408
20.838157
20.772448
20.575347
20.521962
20.363867
20.320763
20.205352
20.17506
20.09314
20.071912
20.018161
20.003808
19.966453
19.955671
19.925884
19.915999
19.879158
19.873189
19.869743
19.871983
19.891514
19.899611
19.935618
19.948763
20.003468
20.024739
20.118622
20.156233
20.324319
20.389861
20.67477
20.789281
21.294322
21.489821
22.324777
22.64396
23.977679
24.431493
26.175467
26.735703
28.823269
29.436034
31.384932
31.813041
32.240621
32.704444
32.951141
33.64176
33.218738
32.658389
32.304792
31.572622
30.96598
29.330485
28.422637
26.670387
25.838509
24.375435
23.689964
22.570286
22.098761
21.396887
21.106461
20.680604
20.509161
20.267565
20.169977
20.028978
19.973277
19.894536
19.862813
19.817351
19.798071
19.768541
19.756437
19.740542
19.736742
19.739865
19.748228
19.777273
19.79149
19.816571
19.831649
19.863739
19.884784
19.931118
19.962648
20.032598
20.077807
20.175635
20.237606
20.371201
20.450189
20.615308
20.711718
20.914283
21.02519
21.251348
21.373264
21.62627
21.750244
21.99313
22.098554
22.284171
22.387724
22.645542
22.774623
23.082356
23.219531
23.535711
23.679416
24.019466
24.16383
24.03259
23.830687
24.182411
24.354044
24.746257
24.915077
25.335418
25.499734
25.9831
26.147532
26.643462
26.798156
27.316235
27.452948
27.905408
27.999318
28.245566
28.275878
28.254054
28.223742
27.96623
27.919571
27.785869
27.757697
27.654248
27.613152
27.412748
27.390861
27.324805
27.258381
26.999162
26.920044
27.00583
27.086197
27.25387
27.313225
27.388646
27.425376
27.518581
27.582394
27.782611
27.824527
27.825577
27.772693
27.559394
27.416372
27.036696
26.830864
26.395863
26.168305
25.754461
25.518341
25.115113
24.881391
24.528219
24.29865
23.972647
23.759556
23.460601
23.224945
23.156236
23.165462
22.970921
22.731012
22.541893
22.312597
22.139455
21.946592
21.8049
21.64838
21.506375
21.321529
21.159444
20.965521
20.806532
20.630103
20.485578
20.327397
20.201735
20.070955
19.968561
19.862928
19.781503
19.703161
19.644678
19.588593
19.547661
19.510013
19.48206
19.455398
19.435078
19.415225
19.39813
19.380628
19.371324
19.36926
19.373223
19.384488
19.399121
19.421998
19.446598
19.482819
19.523737
19.586032
19.658405
19.770797
19.898934
20.092562
20.317207
20.658229
21.038941
21.597669
22.22186
23.099739
23.593439
24.199199
25.348789
26.368195
27.805861
28.909983
30.263749
31.003106
31.656796
32.091857
31.982406
31.74687
31.679217
31.316071
30.683302
29.906828
28.631579
27.496473
26.145013
25.064436
23.94382
23.74111
22.935437
22.076607
21.447977
20.903554
20.518313
20.185998
19.958138
19.769414
19.640234
19.532357
19.459452
19.398998
19.357866
19.323156
19.298617
19.277074
19.262416
19.251739
19.247488
19.249471
19.258346
19.274501
19.291336
19.310573
19.330682
19.356792
19.385059
19.422356
19.46413
19.519497
19.5787
19.655112
19.736448
19.839411
19.9426
20.067926
20.193331
20.346517
20.4919
20.662037
20.821558
21.007958
21.170298
21.347256
21.49066
21.644618
21.787943
21.971563
22.144656
22.362342
22.553122
22.783673
22.988219
22.801475
23.030871
23.26342
23.544309
23.770914
24.078918
24.322053
24.653378
24.90376
25.279299
25.534714
25.919987
26.168893
26.573004
26.799632
27.153195
27.312363
27.511282
27.572219
27.579622
27.537776
27.363933
27.298341
27.222327
27.185486
27.121855
27.058496
26.904083
26.825405
26.790496
26.574456
26.40219
26.256823
26.123859
26.00145
25.895065
25.788167
25.754921
25.771233
25.816038
25.889227
25.927065
25.938146
25.934575
25.932037
25.958404
26.001031
26.004952
25.940054
25.841973
25.657503
25.458902
25.178776
24.916623
24.598458
24.319294
24.007269
23.730983
23.42729
23.16166
22.886187
22.642659
22.385285
22.15996
21.932979
21.734144
21.532013
21.352061
21.168646
21.001742
20.832451
20.680054
20.533076
20.392061
20.25743
20.118067
19.978414
19.833135
19.689371
19.545829
19.410329
19.280055
19.159685
19.045548
18.9431
18.851031
18.770636
18.696324
18.634291
18.581147
18.537517
18.499362
18.469374
18.44366
18.423874
18.406811
18.394612
18.384718
18.379373
18.376561
18.379316
18.384938
18.395707
18.409294
18.42907
18.452928
18.484706
18.524036
18.576312
18.643889
18.737806
18.859864
19.022988
19.235066
19.517079
19.869563
20.317502
20.854927
21.500628
22.220423
23.034624
23.904248
24.837075
25.747643
26.616899
27.343077
27.90477
28.273444
28.449843
28.384359
28.231045
28.183192
28.004954
27.620187
27.059197
26.344875
25.501944
24.61539
23.711196
22.861443
22.071234
21.368117
20.738256
20.211302
19.775451
19.430792
19.155634
18.944718
18.783766
18.664747
18.574856
18.507644
18.455732
18.416819
18.385935
18.362223
18.343066
18.328905
18.318021
18.311491
18.308459
18.310201
18.315213
18.324053
18.33566
18.351306
18.370683
18.395301
18.424895
18.461818
18.504776
18.55623
18.61751
18.689569
18.769271
18.858451
18.956894
19.066782
19.185169
19.312157
19.445348
19.584836
19.725696
19.866948
20.005101
20.142242
20.274718
20.411145
20.556768
20.708634
20.873377
21.037937
21.216717
21.39621
21.593759
21.791079
22.010836
22.233617
22.483819
22.727632
22.998386
23.26361
23.559001
23.835729
24.141039
24.421881
24.73199
24.995135
25.267722
25.469712
25.651528
25.756366
25.826636
25.834031
25.802954
25.786562
25.797235
25.808729
25.804216
25.772575
25.709008
25.683417
25.721766
25.692671
25.678487
25.589181
25.476101
25.62099
25.632311
25.471613
24.991472
24.84798
24.804526
24.819054
24.893074
24.8968
24.88445
24.878834
24.826444
24.821493
24.816673
24.807616
24.690582
24.664259
24.401212
24.356147
23.968666
23.907944
23.456392
23.387169
22.933315
22.85855
22.417452
22.340988
21.937861
21.863183
21.493132
21.420373
21.093223
21.02532
20.731085
20.666717
20.40411
20.343165
20.100527
20.042835
19.825688
19.770519
19.563988
19.509516
19.306321
19.251105
19.048992
18.994653
18.807839
18.757903
18.591053
18.547169
18.407472
18.371695
18.258393
18.228121
18.1424
18.120803
18.05816
18.042509
17.999441
17.989433
17.960867
17.954168
17.937437
17.934383
17.927369
17.927118
17.930896
17.9344
17.947776
17.953458
17.979472
17.990419
18.034563
18.05239
18.129198
18.160821
18.298993
18.353803
18.592568
18.687512
19.090405
19.238851
19.849507
20.066148
20.932227
21.21374
22.28141
22.609422
23.820067
24.157274
25.311519
25.609355
26.50495
26.699124
26.890595
27.115624
27.243382
27.471068
27.53281
27.744542
27.363435
26.808328
26.101605
25.285594
24.418252
23.543554
22.710649
21.941698
21.25147
20.640194
20.121512
19.694848
19.354619
19.08479
18.876712
18.718951
18.603638
18.517114
18.449772
18.398105
18.358733
18.328149
18.304016
18.285222
18.271148
18.260554
18.253434
18.249919
18.250482
18.254425
18.262021
18.27314
18.288434
18.307644
18.331452
18.359799
18.394669
18.437759
18.48998
18.548536
18.616421
18.696176
18.785039
18.880365
18.986332
19.102077
19.225932
19.356385
19.493222
19.632587
19.77269
19.90966
20.045011
20.176417
20.309122
20.452306
20.603835
20.765024
20.928143
21.102724
21.280545
21.473536
21.670573
21.888721
22.109185
22.350747
22.597633
22.864659
23.127428
23.41607
23.693257
23.9913
24.273001
24.576878
24.842223
25.109837
25.316624
25.498833
25.609914
25.682827
25.69744
25.676955
25.669532
25.687901
25.707448
25.710402
25.686737
25.520747
25.084932
25.539523
25.537013
25.098109
25.513888
25.491073
25.064019
25.492523
25.508953
25.085907
25.490304
25.418793
24.971645
25.309098
25.131431
24.676651
24.931541
24.67124
24.227161
24.413479
24.112911
23.696647
23.839889
23.545475
23.159049
23.277002
22.988419
22.628533
22.734112
22.469039
22.13638
22.232527
21.988324
21.681174
21.775624
21.557231
21.273418
21.367049
21.171182
20.904381
21.000221
20.823593
20.569115
20.666587
20.502198
20.259915
20.359277
20.213538
19.97897
20.08401
19.947143
19.713432
19.817944
19.678406
19.446939
19.546373
19.404395
19.18008
19.274857
19.14213
18.929198
19.024535
18.90611
18.705899
18.804642
18.706165
18.516697
18.622279
18.541611
18.365298
18.477174
18.417101
18.249097
18.368722
18.324539
18.164505
18.29068
18.260741
18.104988
18.238223
18.21912
18.065974
18.20497
18.193676
18.042482
18.186617
18.182349
18.03221
18.181725
18.185014
18.035881
18.191664
18.20234
18.053577
18.215981
18.235361
18.088452
18.258258
18.288732
18.146682
18.325847
18.378757
18.248868
18.443338
18.534535
18.430528
18.64676
18.808643
18.750496
19.006926
19.283944
19.287637
19.609718
20.044832
20.121967
20.539268
21.158348
21.29442
21.817382
22.594738
22.758189
23.388854
24.265353
24.391188
25.093215
25.912843
25.928572
26.597099
27.166641
27.019911
26.751054
25.634141
24.146189
22.568145
21.156519
20.015507
19.20407
18.67252
18.355938
18.173332
18.07195
18.01419
17.979785
17.962377
17.958424
17.96819
17.991137
18.029464
18.087575
18.171009
18.284104
18.433041
18.618254
18.836915
19.081666
19.343275
19.606262
19.869709
20.146431
20.452033
20.782026
21.146472
21.549968
21.998203
22.483119
23.004036
23.534742
24.055152
24.495619
24.789676
24.911957
24.905142
24.948087
24.944539
24.207838
24.033463
23.761859
24.004362
24.882769
25.151812
25.292835
25.397791
25.478804
25.575344
25.694586
25.827543
25.981908
26.153931
26.443622
26.431609
26.129928
26.423447
26.983766
27.277359
27.291374
26.607043
25.623281
25.507574
24.868746
24.779881
24.245952
24.210238
23.83978
23.853251
23.576356
23.635613
23.549972
24.0149
24.490505
24.586785
24.683572
24.79871
24.901574
25.076507
25.234988
25.497067
25.740621
25.740706
25.551156
25.215442
25.085707
24.818964
24.71085
24.501244
24.414701
24.251186
25.058548
25.25095
25.546762
25.637846
25.712301
25.644388
25.584603
25.62593
25.628045
25.54148
25.638263
25.67057
25.682907
25.653384
25.470801
25.560355
25.565721
25.673451
25.438536
25.00356
24.095945
23.225408
20.387741
19.522033
19.544282
20.243553
21.197069
18.583666
14.716021
11.858135
10.382447
9.6556629
9.2957885
9.1107791
9.008214
8.9471701
8.909731
8.8593327
8.8088234
8.7581531
8.7073301
8.6564149
8.6055023
8.5546992
8.5041099
8.4538265
8.403925
8.3544638
8.3054852
8.4089273
8.3436982
8.3925648
8.4573586
8.5701704
8.5227464
8.7274961
8.7733666
8.8198369
8.6181989
8.5063522
8.4419481
8.4918058
8.5558687
8.6058466
8.5420773
8.5926804
8.6561979
8.7654533
8.7159143
8.6667994
8.8668925
8.9144897
8.9625468
8.9666359
8.7657813
8.6552958
8.5914248
8.5534396
8.5314021
8.5197254
8.4693048
8.4191716
8.3693934
8.3200247
8.2711065
23.99868
24.574391
25.182899
25.825517
26.505869
27.240998
28.097237
29.352301
32.617922
36.2208
41.153913
41.315618
37.069629
37.859673
41.517196
41.420027
36.813908
37.205585
39.813051
40.357189
35.689908
32.276341
25.27134
24.64674
25.067971
25.482477
25.85611
24.757998
24.608795
24.53439
24.351703
24.402697
24.633919
24.737232
24.711383
24.39063
23.399206
23.107618
22.975863
22.633428
22.101628
22.47704
21.978885
21.61735
21.304817
21.006568
20.712422
20.420658
20.132219
23.929047
24.50602
25.116008
25.761678
26.448243
27.193856
28.062343
29.308541
32.307408
35.920022
40.628002
40.138763
36.372783
36.720499
41.344717
40.728948
36.752192
37.378924
41.713215
41.001955
36.190423
32.555708
25.45237
25.520352
22.681492
22.519247
20.627164
18.518021
17.810388
18.133946
18.118517
18.543693
18.529547
18.996628
19.002187
19.859195
18.261024
14.450099
11.76221
10.330992
9.6111426
9.2497151
9.0625156
8.9586714
8.8970345
8.8467108
8.7961511
8.7453716
8.694452
8.643512
8.7068066
8.7575306
8.8082089
8.8586825
8.9647109
8.9151302
8.8652494
8.8152881
9.0109334
9.0594569
9.1078466
9.1557838
9.2030712
9.0138457
8.908844
8.9078061
8.8453621
8.8074865
8.7852257
8.773322
8.7226429
8.6718899
8.6211035
8.5703538
8.569057
8.5184351
8.4680218
8.4178962
8.368126
8.3187651
8.2698548
23.573224
24.14543
24.751675
25.39566
26.083316
26.831278
27.696062
28.892723
31.55114
34.906452
39.234272
38.796259
35.453914
35.738959
40.048756
39.58859
36.008612
36.248161
40.780212
40.038487
35.518323
32.038096
25.321086
25.313181
22.385299
22.521595
20.801893
19.23587
17.271488
13.8237
11.497923
10.174716
9.4729996
9.425526
9.3779242
9.3305347
9.2835404
9.2370322
9.1910486
9.1455949
9.1006532
22.907688
23.455258
24.035592
24.652781
25.312589
26.030991
26.852966
27.960784
30.205319
33.231538
37.163884
36.729456
33.686133
34.087191
37.938852
37.858988
34.680293
35.084392
39.101313
38.286085
34.147225
30.959139
24.974312
25.187102
22.569585
22.596623
21.281513
18.261322
17.745348
14.097943
11.615219
10.220667
9.4887604
9.1120484
8.9153549
8.80722
8.7440552
8.7060201
8.6837607
8.6329208
8.5821037
8.6042257
8.6551213
8.6532701
8.6313463
8.6198016
8.6705846
8.7213363
8.732957
8.7345449
8.7568284
8.7549554
8.7041567
8.6821784
8.6801451
8.6687828
8.6179977
8.5672532
8.5166327
8.4662219
8.4160996
8.3663332
8.3169764
8.2680703
21.984992
22.49613
23.038861
23.617688
24.238001
24.914035
25.686833
26.714353
28.736329
31.530843
35.189263
34.841922
31.912188
32.23483
35.804483
35.7032
32.709643
33.109865
36.78821
36.102716
32.333898
29.444128
24.254259
24.672149
22.290292
22.458957
21.235807
18.398896
14.447396
14.344274
11.722002
10.261869
9.5017123
9.1142836
8.9141555
8.8052036
8.742002
8.6911218
8.6931553
8.6422357
8.705875
8.7565701
8.7545931
8.7039394
8.640224
8.6023886
8.5805389
8.529848
8.479366
8.480909
8.4307086
8.3808719
8.3314547
8.2824992
21.040186
21.522576
22.036237
22.585856
23.176771
23.822118
24.559262
25.534726
27.435834
30.076772
33.562642
33.13799
30.299249
30.779741
34.180568
34.001068
31.065495
31.448855
34.937318
34.3579
30.779794
28.060483
23.388902
23.868316
21.65747
21.894464
20.765038
18.18668
14.403164
11.75603
11.770329
10.278078
9.5036366
9.1115307
8.9105851
8.8019599
8.7392406
8.7018045
8.6509216
8.6293132
8.5785083
8.5278216
8.4773448
8.4271615
8.4291769
8.3793513
8.329945
8.281
20.199051
20.658305
21.14838
21.674118
22.240979
22.861833
23.571838
24.507408
26.362551
28.892037
32.252406
31.973165
29.236716
29.448317
32.731193
32.466783
29.657155
29.936048
33.276897
32.785393
29.396971
26.83434
22.570139
23.007207
20.91383
21.157397
20.11028
17.797906
14.27001
11.697859
10.233951
10.266371
9.4931983
9.1033667
8.9046087
8.7975587
8.7358388
8.6990141
8.6777205
8.6665742
8.615785
8.5650389
8.5144184
8.4640086
8.4138878
8.3641231
8.3147682
8.2658641
8.2765903
8.2790033
8.3279421
8.3492091
8.3515047
8.3532662
8.3043013
8.3025541
8.3002684
8.2975076
8.3464437
8.3255266
8.3749235
8.3773421
8.3986314
8.4009372
8.4027134
8.4525998
8.4508087
8.5010606
8.5028671
8.5408426
8.4905918
8.4407541
8.3913903
8.3425425
8.1081222
8.1545735
8.2016279
8.2492688
8.2974685
8.3461843
8.3953565
8.444906
8.4947449
8.5448011
8.5950392
8.6454736
8.6961691
8.7472292
8.7987846
8.8509715
8.9039174
8.9028905
8.8499231
8.7977088
8.7461216
8.6950276
8.6443005
8.5938393
8.5435817
8.4935157
8.4436753
8.3941313
8.3449649
8.2962509
8.2480487
8.2004012
8.153336
8.1068689
8.0481547
8.0487666
8.0498487
8.0515733
8.0540966
8.0575314
8.0619776
8.0675481
8.0743224
8.0821699
8.0904716
8.0980418
8.1036568
8.1501802
8.1446804
8.1372757
8.1291511
8.1214493
8.114771
8.1092514
8.1048265
8.1013987
8.0988784
8.0971581
8.0960812
8.0954729
8.1432733
8.143877
8.1449483
8.1466648
8.1491827
8.1526057
8.157014
8.1624921
8.1690887
8.1766634
8.1846319
8.1918905
8.1972917
8.244975
8.2396566
8.2325246
8.2246921
8.217227
8.2106994
8.2052555
8.2008604
8.1974416
8.1949265
8.1932148
8.1921496
8.1915515
8.2403019
8.2408934
8.2419509
8.243656
8.2461663
8.2495796
8.2539622
8.2593766
8.2658447
8.273215
8.2809295
8.287953
8.2932034
8.3419351
8.3367411
8.3298126
8.3222025
8.3149167
8.3085027
8.3031179
8.2987504
8.2953463
8.2928442
8.2911484
8.2901011
8.2895179
8.3391934
8.3397665
8.3408004
8.3424821
8.3449701
8.3483586
8.3527045
8.3580552
8.3644135
8.3716176
8.37913
8.3859707
8.3911138
8.4406719
8.4355827
8.428831
8.4214195
8.4143025
8.4080087
8.4027033
8.3983905
8.3950278
8.3925619
8.3909007
8.3898843
8.3893237
8.4399071
8.4404522
8.4414457
8.4430788
8.4455122
8.4488355
8.4530988
8.4583412
8.4645527
8.4715663
8.4788625
8.4855115
8.4905348
8.5406388
8.5357028
8.5291811
8.5220255
8.515141
8.5090371
8.5038817
8.4996885
8.4964212
8.4940329
8.4924362
8.4914717
8.4909463
8.5424502
8.5429519
8.5438809
8.545431
8.5477602
8.5509528
8.5550524
8.5600929
8.5660585
8.572782
8.5797655
8.5861299
8.5909534
8.641488
8.6368011
8.630624
8.6238449
8.6173158
8.6115204
8.6066242
8.6026427
8.5995442
8.5972884
8.5957952
8.5949085
8.5944346
8.6469222
8.6473642
8.6482018
8.6496282
8.6517969
8.6547831
8.6586236
8.6633491
8.6689452
8.6752508
8.681799
8.687766
8.6922991
8.7434811
8.7391072
8.733361
8.7270597
8.7209981
8.715624
8.7110911
8.7074112
8.7045531
8.7024838
8.7011329
8.7003509
8.6999446
8.7535382
8.7539055
8.7546273
8.7558954
8.7578558
8.7605738
8.7640795
8.7684053
8.7735449
8.7793543
8.7854055
8.7909329
8.7951523
8.8474414
8.8433627
8.8380392
8.8322277
8.8266659
8.8217622
8.8176483
8.8143236
8.8117528
8.8099077
8.8087277
8.8080703
8.8077446
8.8626082
8.8628903
8.8634807
8.8645692
8.866296
8.8687176
8.8718616
8.8757674
8.8804449
8.8857755
8.8913691
8.8965128
8.9004705
9.0106463
8.96012
8.9972217
9.0575826
9.1587605
9.3414271
9.3867748
9.2066126
9.1069259
9.0473358
8.9761144
8.9252021
8.8745234
8.8239306
8.8226309
8.7720171
8.7836361
8.8342155
8.8358025
8.8579875
8.8561085
8.8056081
8.8032611
8.7816139
8.77023
8.7195398
8.717339
8.7285094
8.7309271
8.7526033
8.7498178
8.8004861
8.7792082
8.7680421
8.8186901
8.8208587
8.8714828
8.8732338
8.9239278
8.9353397
8.9369039
8.8863281
8.9083818
8.958771
8.9569106
8.9065086
8.8847493
8.8827616
8.8322069
8.8537734
8.851016
8.8298201
8.8804023
8.8693418
8.9201019
8.9222057
8.9333813
8.9546236
8.9041931
8.9014623
8.9519298
8.9310594
8.9283852
8.9176592
8.8668603
8.816181
8.765515
8.7148012
8.6640312
8.6132404
8.5624951
8.5118769
8.46147
8.4113522
8.3615903
8.3122381
8.2633363
8.7315205
8.5232723
8.4081781
8.4565788
8.4548592
8.3894957
8.3406708
8.4065019
8.5226852
8.5699974
8.5706559
8.7773929
8.7802322
8.7344329
8.7331253
8.5198746
8.4035834
8.3380457
8.5145384
8.3994014
8.3347196
8.3835148
8.3868517
8.4518993
8.4476882
8.5616837
8.5670982
8.7787775
8.7720358
8.7265628
8.715672
8.5071269
8.3941687
8.3307977
8.2943415
8.2738417
19.485775
19.927101
20.398941
20.906142
21.454633
22.057173
22.746991
23.653863
25.428201
27.84042
31.063293
30.781819
28.11033
28.35469
31.542405
31.387307
28.687158
28.952216
32.170001
31.671509
28.361566
25.880801
21.895611
22.257613
20.224255
20.440267
19.450379
17.36136
14.108323
11.62165
10.191945
9.4488885
9.4734252
9.0911052
8.8967808
8.7922219
8.7318768
8.6958209
8.6749516
8.6241162
8.6268858
8.5760805
8.525395
8.4749205
8.42474
8.4457165
8.4484928
8.4987352
8.5492834
8.5516178
8.5894361
8.5388775
8.4886504
8.4388363
8.5037789
8.5055419
8.5550275
8.5532216
8.6031254
8.6049749
8.716279
8.6672026
8.6186428
8.8238685
8.8709342
8.8736161
8.6663934
8.6179101
8.8266322
8.8250185
8.6149189
8.5007763
8.4361734
8.4859685
8.5501756
8.5459053
8.4826091
8.4328253
8.3958608
8.3926885
8.372169
8.3227751
8.3432749
8.3397634
8.3197376
8.3094421
8.2605447
8.2708087
8.290833
8.2870466
8.2675374
8.2575311
8.3064218
8.3032238
8.2543429
8.2640823
8.312996
8.3164603
8.3359729
8.331978
8.2830585
8.3166869
8.3216653
8.3264053
18.868215
19.292209
19.746018
20.234459
20.763635
21.345626
22.012274
22.88631
24.586019
26.882365
29.971261
29.694843
27.061383
27.270813
30.408727
30.241077
27.549417
27.798677
30.943045
30.506371
27.35161
24.994973
21.309622
21.624287
19.629621
19.815719
18.854519
16.930636
13.938867
11.546486
10.148194
9.4227889
9.0610425
9.0765608
8.8877991
8.7862094
8.7274465
8.6922605
8.6718682
8.6611944
8.6104071
8.5596676
8.5090561
8.4586562
8.4085451
8.3587893
8.3691267
8.4189338
8.4219823
8.442541
8.4390198
8.3891732
8.3853764
8.3658414
8.355761
8.4055076
8.4022852
8.3525517
8.362366
8.4121502
8.4156387
8.4352148
8.4311987
8.3813724
8.4147844
8.4197622
8.4245012
8.428895
8.3795891
8.4424427
8.4364639
8.3751969
8.3704585
8.430003
8.38172
8.3881905
8.4983502
18.315948
18.720617
19.153684
19.619814
20.124857
20.680361
21.316127
22.146648
23.727
25.85417
28.723405
28.438742
26.067281
26.257848
29.064462
29.042082
26.525884
26.742568
29.731462
29.32182
26.345969
24.140231
20.776651
21.069342
19.107097
19.271887
18.314499
16.500054