/*--------------------------------*- C++ -*----------------------------------*\
| =========                 |                                                 |
| \\      /  F ield         | OpenFOAM: The Open Source CFD Toolbox           |
|  \\    /   O peration     | Version:  v2012                                 |
|   \\  /    A nd           | Website:  www.openfoam.com                      |
|    \\/     M anipulation  |                                                 |
\*---------------------------------------------------------------------------*/
FoamFile
{
    version     2.0;
    format      ascii;
    class       volScalarField;
    location    "174";
    object      p;
}
// * * * * * * * * * * * * * * * * * * * * * * * * * * * * * * * * * * * * * //

dimensions      [0 2 -2 0 0 0 0];


internalField   nonuniform List<scalar> 
19710
(
-1.4357165
-1.375388
-1.3340135
-1.2177855
-1.1556786
-1.0521629
-0.98497628
-0.9234794
-0.85950929
-0.73247279
-0.63046188
-0.56545848
-0.47115409
-0.34857644
-0.24772067
-0.20673759
-0.09006348
0.053192491
0.13430689
0.25391908
0.43836552
0.61368954
0.67118954
0.81410299
0.99863242
1.1453531
1.2246061
1.1851622
1.7947428
4.5178851
2.0722884
1.4242323
1.1666726
0.907178
0.71447971
0.57725909
0.47111409
0.38772233
0.32181249
0.26930005
-0.11220716
-0.12678701
-0.14427403
-0.16544008
-0.19119945
-0.22255125
-0.26056749
-0.30633649
-0.36033939
-0.42235303
-0.49142129
-0.56602113
-0.6443833
-0.72485253
-0.80537757
-0.88383293
-0.9584757
-0.9873519
-0.87844769
-0.77123934
-0.66776795
-0.56962237
-0.47851704
-0.39560223
-0.32156534
-0.25663023
-0.20061839
-0.15305045
-0.1132418
-0.080389563
-0.053647376
-0.032178334
-0.029508031
-0.050549861
-0.076844326
-0.10924871
-0.14863934
-0.19585849
-0.25163733
-0.31650549
-0.39069024
-0.47400075
-0.56574959
-0.66476027
-0.76929706
-0.87770441
-0.98790638
-0.98938425
-0.87632759
-0.76526488
-0.65835231
-0.5573817
-0.46416885
-0.37994792
-0.30541101
-0.24067498
-0.18540121
-0.13894739
-0.10047778
-0.069061331
-0.043754527
-0.023654133
-0.013757484
-0.032233667
-0.055824967
-0.085510082
-0.12234722
-0.1674224
-0.22175613
-0.28619313
-0.36128333
-0.44705774
-0.54281475
-0.64719949
-0.75823279
-0.87388347
-0.99183994
-0.99540219
-0.8699943
-0.74732046
-0.62995479
-0.52030988
-0.42065178
-0.33253746
-0.25673883
-0.19293941
-0.14021167
-0.097381207
-0.063136701
-0.036152538
-0.015199411
0.00080946735
0.020316918
0.0077733024
-0.0094134209
-0.032462626
-0.062834736
-0.10219793
-0.15228733
-0.21477865
-0.29125161
-0.38256752
-0.48777594
-0.60495501
-0.73133248
-0.86393484
-0.99979085
-1.0050799
-0.85539715
-0.70947983
-0.5708716
-0.44335218
-0.33056322
-0.23507969
-0.15831697
-0.098333428
-0.052423888
-0.018179452
0.0067037746
0.024342017
0.036477325
0.044468744
0.072628959
0.070352141
0.064725907
0.054285573
0.036989717
0.010166971
-0.029235823
-0.084637098
-0.16064525
-0.26139453
-0.38434679
-0.52572608
-0.68042095
-0.84349129
-1.0106108
-1.0183983
-0.82982182
-0.64496807
-0.46909318
-0.30893034
-0.17203347
-0.064484768
0.0085749531
0.056038168
0.085764754
0.10231411
0.10956325
0.11083283
0.10844245
0.10387891
0.13692521
0.14942723
0.1614555
0.17168317
0.17767965
0.17559046
0.16078055
0.12721538
0.061409206
-0.055148023
-0.21172557
-0.3976299
-0.60125134
-0.81297004
-1.0270793
-1.0477448
-0.80292059
-0.55704954
-0.31585
-0.092864855
0.093656745
0.22178723
0.27111854
0.28321954
0.27759699
0.2607087
0.23826505
0.21449417
0.19154158
0.17032236
0.20144586
0.23165466
0.26636874
0.30559159
0.34811834
0.39011261
0.42680989
0.45557356
0.44291227
0.29586218
0.062971126
-0.21442258
-0.50541619
-0.79231687
-1.0629281
-1.1220853
-0.85876117
-0.81153471
-0.76087791
-0.70803329
-0.65412047
-0.60038057
-0.54776664
-0.49686595
-0.44835858
-0.40273429
-0.36031264
-0.32125826
-0.28564861
-0.2534772
-0.22462806
-0.1988675
-0.17594318
-0.17516922
-0.17344956
-0.17061008
-0.16655156
-0.16129744
-0.15500314
-0.14788628
-0.14016104
-0.13203659
-0.12367333
-0.11524063
-0.10684619
-0.084620746
-0.092009322
-0.099766929
-0.10787206
-0.11630739
-0.12499911
-0.13389573
-0.14286673
-0.15179569
-0.16048977
-0.16877084
-0.17640703
-0.18316435
-0.18880525
-0.19316135
-0.1962101
-0.19805106
-0.22380747
-0.22187448
-0.21863367
-0.21401097
-0.20802789
-0.20085906
-0.19275891
-0.18397921
-0.17477373
-0.16533823
-0.15588823
-0.14654812
-0.13745952
-0.12867044
-0.12025546
-0.11222197
-0.1045829
-0.097325952
-0.090440456
-0.083910092
-0.077721918
-0.071869905
-0.066354683
-0.061181521
-0.056361818
-0.051910895
-0.047847182
-0.044193893
-0.040982401
-0.038252314
-0.036046786
-0.034389541
-0.033249722
-0.032557042
-0.05405278
-0.054787619
-0.055992707
-0.057744601
-0.060073857
-0.062953485
-0.066335238
-0.070174517
-0.074435465
-0.079090741
-0.084117829
-0.089497729
-0.095216327
-0.10126606
-0.10764524
-0.11436149
-0.12143
-0.12887156
-0.1367034
-0.14494756
-0.15359867
-0.16265954
-0.17205774
-0.18175072
-0.19158559
-0.20143094
-0.21104991
-0.22023115
-0.22870204
-0.23619535
-0.24244667
-0.24728184
-0.25066351
-0.25265957
-0.28481121
-0.28276558
-0.27930362
-0.27435844
-0.26795224
-0.26026374
-0.25156291
-0.24212576
-0.23223976
-0.22212758
-0.21204572
-0.20213036
-0.19254329
-0.18332085
-0.17453174
-0.16616267
-0.15821098
-0.15064605
-0.14344463
-0.13658225
-0.13004209
-0.12381725
-0.11791128
-0.11233513
-0.10710683
-0.10225008
-0.097792016
-0.093765165
-0.090210408
-0.087178015
-0.084721843
-0.082872553
-0.081600337
-0.080821812
-0.11370005
-0.11452311
-0.11586377
-0.11781215
-0.12039709
-0.12358368
-0.12731203
-0.13152554
-0.13617755
-0.14122977
-0.14664909
-0.15240623
-0.15847805
-0.16484878
-0.17151132
-0.17847052
-0.1857428
-0.1933549
-0.20133465
-0.20971994
-0.21852069
-0.22776063
-0.23737629
-0.24733818
-0.25747767
-0.2676583
-0.27760781
-0.28709837
-0.29583489
-0.30354083
-0.30994857
-0.31488096
-0.31833051
-0.32038452
-0.35943265
-0.35743732
-0.35411517
-0.3493434
-0.34312965
-0.33563581
-0.32711712
-0.31783856
-0.30809342
-0.29810515
-0.28815546
-0.27837495
-0.26893662
-0.25986176
-0.25120725
-0.24294132
-0.23504676
-0.22748136
-0.22021439
-0.21321925
-0.20648257
-0.20000356
-0.19379451
-0.18787752
-0.18228262
-0.17704582
-0.17220706
-0.16781133
-0.16391185
-0.1605721
-0.15785845
-0.15581056
-0.15440059
-0.15353273
-0.20112147
-0.20203333
-0.20351214
-0.20565786
-0.20849732
-0.2119857
-0.21604972
-0.2206184
-0.22563115
-0.23103539
-0.23678332
-0.24283104
-0.24913982
-0.25567954
-0.26243044
-0.26938666
-0.27655538
-0.28396033
-0.29163177
-0.2996133
-0.30792721
-0.31661184
-0.32561717
-0.33493161
-0.34438168
-0.35385049
-0.36305676
-0.37179294
-0.37978064
-0.38678013
-0.39256199
-0.3969889
-0.40006246
-0.40191309
-0.44764357
-0.44603084
-0.44335308
-0.43948479
-0.43441185
-0.42823612
-0.42114772
-0.41334516
-0.40507676
-0.39651947
-0.38794162
-0.37943661
-0.37117243
-0.36314886
-0.35540845
-0.34790865
-0.34062484
-0.33351664
-0.32655746
-0.31973135
-0.31303999
-0.30649923
-0.3001389
-0.29399953
-0.28812979
-0.28258325
-0.27741642
-0.2726904
-0.26847407
-0.26484625
-0.26188747
-0.25964828
-0.25810283
-0.25714922
-0.32209406
-0.3230858
-0.3246938
-0.3270191
-0.3300861
-0.33383824
-0.33818771
-0.34304714
-0.34833883
-0.35399242
-0.35994128
-0.36612112
-0.37247171
-0.37893961
-0.38548195
-0.39206949
-0.39868757
-0.40534009
-0.4120441
-0.41883225
-0.42572775
-0.43277483
-0.43993872
-0.44723531
-0.45451062
-0.46170636
-0.46858322
-0.47501103
-0.48078899
-0.48577566
-0.48983503
-0.49291006
-0.49502934
-0.49630423
-0.54740458
-0.54657337
-0.5451872
-0.54315334
-0.5404302
-0.53702124
-0.53299413
-0.5284149
-0.52342101
-0.51807859
-0.51257995
-0.50693459
-0.50127161
-0.49555443
-0.48980822
-0.48398994
-0.47808279
-0.4720672
-0.46594107
-0.45971824
-0.45343078
-0.44712557
-0.44086114
-0.43470593
-0.4287339
-0.42302131
-0.41764545
-0.41268678
-0.40823235
-0.40437847
-0.40122037
-0.39882072
-0.39715711
-0.39613291
-0.47904022
-0.48008802
-0.48179554
-0.48425184
-0.4874758
-0.49139913
-0.49591905
-0.50093041
-0.50633646
-0.51204653
-0.5179715
-0.524022
-0.53010864
-0.53614654
-0.54205772
-0.54777409
-0.55324184
-0.55842364
-0.56329977
-0.56787129
-0.57214358
-0.5761551
-0.57989173
-0.58341735
-0.58664025
-0.58961528
-0.59221657
-0.59445563
-0.59626984
-0.59769188
-0.59874106
-0.59947881
-0.59996663
-0.60026137
-0.65428318
-0.6546143
-0.65516482
-0.65591445
-0.65679234
-0.65767184
-0.65845138
-0.65902415
-0.65932478
-0.65923666
-0.65879671
-0.65786806
-0.65649019
-0.654564
-0.65209405
-0.64905237
-0.64544949
-0.64130981
-0.63668035
-0.63162716
-0.62623071
-0.62058327
-0.61478465
-0.6089381
-0.60314919
-0.59752135
-0.59215576
-0.58715286
-0.58261951
-0.57866997
-0.57541423
-0.57292582
-0.57119104
-0.57013026
-0.66824441
-0.66930214
-0.67103929
-0.67352524
-0.67676629
-0.68068416
-0.68516199
-0.69007474
-0.69530289
-0.70073852
-0.70627015
-0.71178127
-0.7171497
-0.72225344
-0.72696905
-0.73117875
-0.73477164
-0.73764871
-0.73973113
-0.74096381
-0.74131679
-0.74080997
-0.73946481
-0.73740833
-0.73466089
-0.73145353
-0.7278543
-0.7240896
-0.72033871
-0.71682638
-0.71374967
-0.71130512
-0.70956756
-0.70851851
-0.76171765
-0.76355324
-0.76660402
-0.77094397
-0.77648768
-0.78296161
-0.79005442
-0.79739099
-0.80469437
-0.81161452
-0.81795888
-0.82338747
-0.82780552
-0.83104511
-0.83306845
-0.83387143
-0.83350764
-0.83206814
-0.82966876
-0.82644444
-0.82253952
-0.81809952
-0.81327243
-0.80820025
-0.80302231
-0.79787001
-0.79286873
-0.78814629
-0.78381798
-0.78001184
-0.7768501
-0.77441456
-0.77270791
-0.77167261
-0.87882789
-0.87982792
-0.88147948
-0.88382573
-0.88685637
-0.89048609
-0.8945868
-0.89902627
-0.90367806
-0.9084077
-0.91307892
-0.91754757
-0.92165955
-0.92525434
-0.92816068
-0.93020548
-0.93121065
-0.93100462
-0.92943161
-0.92635995
-0.92170887
-0.91545847
-0.90765425
-0.89850731
-0.88820334
-0.87720139
-0.86584317
-0.85461596
-0.84394709
-0.83432972
-0.82618075
-0.81984598
-0.8154125
-0.81274747
-0.86035446
-0.86386529
-0.86971025
-0.87808601
-0.8889084
-0.90176259
-0.91612552
-0.93137451
-0.94694055
-0.96219613
-0.97663829
-0.98968966
-1.0010673
-1.0105344
-1.0180238
-1.0235784
-1.0273088
-1.0293876
-1.0300109
-1.0293851
-1.027719
-1.0252102
-1.0220497
-1.0184132
-1.014466
-1.0103611
-1.0062403
-1.0022357
-0.99849044
-0.9951445
-0.99233215
-0.99014002
-0.98858654
-0.98765457
-1.1182153
-1.1212265
-1.1238115
-1.1257969
-1.1269961
-1.1272026
-1.1261983
-1.1237482
-1.1196145
-1.1135632
-1.1053838
-1.0949353
-1.0821483
-1.0671066
-1.0500713
-1.0314286
-1.0118709
-0.99206927
-0.98817993
-0.87815101
-0.76987219
-0.66544249
-0.56650947
-0.47480595
-0.39152303
-0.31734333
-0.25246083
-0.19665231
-0.14939191
-0.10995287
-0.077496498
-0.051149023
-0.030055057
0.22875475
0.26748571
0.31372762
0.36857104
0.43252749
0.5054274
0.58535488
0.65855504
0.70684583
0.55614038
0.2480709
-0.10976039
-0.46885781
-0.81047752
-0.71223692
-0.92542029
-1.0852352
-1.2597347
-0.98972493
-0.87692865
-0.76606731
-0.65932425
-0.55847973
-0.46534216
-0.38116361
-0.30663163
-0.24186834
-0.18654184
-0.14001664
-0.10146501
-0.069962102
-0.044568662
-0.024384773
0.24854692
0.29388919
0.34955605
0.41807516
0.50272846
0.6094464
0.73951948
0.88370131
1.1287208
1.2937321
1.3158625
0.99393929
0.70877777
0.41565563
0.16316378
-0.084529527
-0.32593914
-0.54179073
-0.75140636
-0.95125466
-1.154936
-1.308115
-1.4171021
-1.3312255
-1.3214548
-1.3214455
-1.3108424
-1.3095753
-1.3076831
-1.3098114
-1.3092033
-1.3121656
-1.3112224
-1.3117155
-1.3142686
-1.31875
-1.3254323
-1.3296648
-1.3366795
-1.3414775
-1.3451211
-1.348569
-1.3577775
-1.3615332
-1.363882
-1.3735327
-1.3845179
-1.3806525
-1.3721506
-1.4547016
-1.5080989
-1.5252502
-1.5507958
-1.5559531
-1.5667673
-1.5756678
-1.5854875
-1.5920799
-1.6042651
-1.6137128
-1.6267485
-1.6368275
-1.6517956
-1.6606607
-1.673846
-1.6841396
-1.6999154
-1.7075744
-1.7203219
-1.7316745
-1.7361164
-1.7280524
-1.7529031
-1.7753023
-1.7682782
-1.7695087
-1.7946207
-1.8047601
-1.8210834
-1.8307429
-1.8460494
-1.854204
-1.8602412
-1.864756
-1.8849006
-1.8956645
-1.9107161
-1.9179035
-1.9291065
-1.9339107
-1.9476265
-1.9569739
-1.9788184
-1.989033
-2.0077549
-2.0147012
-2.0379557
-2.0512678
-2.0757133
-2.0708758
-2.0762498
-2.0834397
-2.1127594
-2.1286707
-2.1585267
-2.1620882
-2.1853869
-2.2134025
-2.2090372
-2.2244435
-2.2382576
-2.2693022
-2.2510751
-2.3713624
-2.4691371
-2.5529154
-2.5581521
-2.4454451
-2.3314824
-2.2279892
-2.2156871
-2.2084445
-2.203071
-2.1915311
-2.1635865
-2.1262731
-2.0987363
-2.0883747
-2.1075881
-2.0899864
-2.0752336
-2.0619835
-2.0577472
-2.0337813
-2.0069976
-1.9865881
-1.976865
-1.9680536
-1.9569564
-1.9423403
-1.934171
-1.9262408
-1.919356
-1.9065365
-1.8902202
-1.8743184
-1.8642282
-1.8587345
-1.8529888
-1.8432938
-1.8267793
-1.8087663
-1.7932207
-1.784106
-1.7804612
-1.7792868
-1.7728787
-1.7671519
-1.7572599
-1.74123
-1.7348319
-1.7246459
-1.6979768
-1.6822868
-1.6773509
-1.6694163
-1.6591807
-1.6549491
-1.6494522
-1.6394043
-1.6308441
-1.6259133
-1.6137662
-1.5952581
-1.5819446
-1.574008
-1.559436
-1.5424875
-1.5301987
-1.5210787
-1.5078226
-1.5065902
-1.442617
-1.3393627
-1.3519627
-1.3572265
-1.3560827
-1.3530994
-1.3452485
-1.3282903
-1.3204738
-1.3192224
-1.3147791
-1.3086653
-1.3034215
-1.3015461
-1.302729
-1.304634
-1.3095877
-1.3033697
-1.2873491
-1.2843611
-1.2834843
-1.2802114
-1.2793207
-1.2810211
-1.2805452
-1.2790418
-1.2922467
-1.2945196
-1.2736461
-1.201964
-1.147974
-1.0579832
-1.0554254
-1.0687014
-1.0785036
-1.0803307
-1.0788702
-1.0776553
-1.0791438
-1.0808098
-1.0849284
-1.0879043
-1.0804129
-1.0782599
-1.0852453
-1.0957912
-1.1074689
-1.1104655
-1.115513
-1.1215066
-1.1266986
-1.1289936
-1.1265752
-1.1239574
-1.1296891
-1.1363447
-1.1676252
-1.1855512
-1.1733528
-1.1618557
-1.2600139
-1.2591514
-1.2785792
-1.2902271
-1.2979245
-1.3026151
-1.3045921
-1.3074465
-1.3130505
-1.3228148
-1.3331223
-1.3442813
-1.3555148
-1.3667177
-1.3751846
-1.3834148
-1.3928307
-1.4051824
-1.4036091
-1.4044615
-1.4347469
-1.4523213
-1.4323117
-1.4325725
-1.4529545
-1.4684527
-1.4800526
-1.492756
-1.5056655
-1.5147611
-1.5190493
-1.5260088
-1.5367229
-1.5500118
-1.5634723
-1.5765826
-1.5856669
-1.5909788
-1.5989239
-1.6106515
-1.625712
-1.6410261
-1.657785
-1.6559658
-1.6537426
-1.681496
-1.7177532
-1.7335468
-1.7444921
-1.7437753
-1.7497776
-1.7412305
-1.748578
-1.7382356
-1.8951704
-1.8710135
-1.9203603
-1.9458706
-1.9612301
-1.9618601
-1.9788382
-2.0060578
-2.0267331
-2.028274
-1.9960032
-1.9554863
-1.9594742
-1.9308737
-1.9156746
-1.9113964
-1.8954741
-1.8681713
-1.8418566
-1.8448052
-1.8229607
-1.732731
-1.710553
-1.7053038
-1.7102804
-1.7063182
-1.6828723
-1.6633088
-1.640001
-1.6248231
-1.6152724
-1.6184181
-1.6125689
-1.594214
-1.5834077
-1.5786483
-1.5722101
-1.5648549
-1.551465
-1.5344583
-1.5183768
-1.5074911
-1.5016684
-1.4963761
-1.4890596
-1.4748344
-1.4578088
-1.4413475
-1.4326314
-1.4303285
-1.4324001
-1.4313603
-1.4234998
-1.4135695
-1.3969133
-1.3933478
-1.3906785
-1.363529
-1.3468059
-1.3424952
-1.3382167
-1.3280581
-1.3207472
-1.3140901
-1.3072723
-1.299173
-1.2938949
-1.2887563
-1.282471
-1.2705238
-1.2571679
-1.2420026
-1.2289377
-1.2217962
-1.2223119
-1.1327211
-1.1451812
-1.1378971
-1.1242294
-1.1244279
-1.1250273
-1.1170061
-1.1062043
-1.0908376
-1.0757659
-1.0664116
-1.0606794
-1.0580657
-1.051618
-1.0452014
-1.0512597
-1.0519149
-1.0333081
-1.0247227
-1.0218257
-1.0253128
-1.0333932
-1.0361627
-1.0348741
-1.0313466
-1.0287981
-1.0296131
-1.0261329
-1.0131701
-1.000572
-0.93208085
-0.8432531
-0.7450919
-0.63644087
-0.5477016
-0.4655765
-0.35407858
-0.24858527
-0.23658273
-0.24004743
-0.24068095
-0.24193062
-0.24113663
-0.24088954
-0.24172458
-0.24511069
-0.24972287
-0.25353224
-0.25742626
-0.26058255
-0.26159077
-0.26068259
-0.26037675
-0.26171559
-0.26561382
-0.26967651
-0.27564726
-0.28383609
-0.28307759
-0.27340794
-0.28378147
-0.30044449
-0.29406963
-0.29021876
-0.30686605
-0.32082445
-0.32925404
-0.33569312
-0.33997651
-0.3425782
-0.34416895
-0.35331323
-0.36519732
-0.3674981
-0.37017868
-0.37712603
-0.38497278
-0.38930988
-0.39149267
-0.3947473
-0.40121477
-0.410731
-0.42165531
-0.42038232
-0.41308266
-0.43401483
-0.45494206
-0.44311192
-0.44265401
-0.45710768
-0.46889765
-0.48014611
-0.49154971
-0.50178589
-0.50893131
-0.51424035
-0.52119645
-0.5305018
-0.54051867
-0.5508002
-0.56331933
-0.57360378
-0.57894085
-0.58187634
-0.58634614
-0.59705169
-0.61111075
-0.6276861
-0.62497622
-0.61956016
-0.64258876
-0.6699265
-0.67528944
-0.67379891
-0.67991306
-0.70290304
-0.72011728
-0.72694478
-0.72356425
-0.73106911
-0.74254485
-0.76414269
-0.78139652
-0.79781566
-0.80746155
-0.82001568
-0.8286647
-0.83556686
-0.83249662
-0.79714804
-0.751732
-0.754803
-0.73999157
-0.73579993
-0.74095736
-0.73454708
-0.73110929
-0.71997433
-0.70056325
-0.66842984
-0.67374105
-0.66857584
-0.62942449
-0.60706983
-0.61260444
-0.6188631
-0.61513864
-0.58317807
-0.55646724
-0.56063552
-0.56963939
-0.55350798
-0.53446656
-0.53243034
-0.52765159
-0.52243439
-0.51474461
-0.50078756
-0.49009435
-0.48142116
-0.47504664
-0.46961622
-0.46653846
-0.46235398
-0.45355376
-0.44276183
-0.43411812
-0.42869848
-0.42470023
-0.42322406
-0.41662762
-0.40713006
-0.40311594
-0.39583425
-0.39565493
-0.39045553
-0.36542636
-0.35239853
-0.34964276
-0.34869058
-0.34194708
-0.33222565
-0.32035757
-0.3088798
-0.30108329
-0.30107146
-0.28158436
-0.26315755
-0.27046085
-0.27173899
-0.26519086
-0.25711291
-0.24991685
-0.2476824
-0.24654101
-0.24488501
-0.23120391
-0.21551293
-0.20780895
-0.2129848
-0.21780703
-0.20865968
-0.1989704
-0.19798758
-0.19681433
-0.19559577
-0.19413021
-0.19062971
-0.1831845
-0.17585809
-0.17016466
-0.1679134
-0.16923572
-0.17336038
-0.17475848
-0.17268805
-0.16985919
-0.16703198
-0.16644131
-0.16598926
-0.164062
-0.15608917
-0.1818003
-0.072886158
0.040957604
0.080841707
0.093845822
-0.059804698
-0.051034715
0.11058993
0.23162502
0.4675875
0.69024629
0.70997571
0.71796248
0.73116824
0.73688295
0.74221975
0.73925783
0.73803771
0.73675692
0.73580134
0.73257883
0.72716555
0.7251428
0.72927696
0.72841102
0.72030183
0.71631342
0.71445377
0.71036714
0.70459435
0.70435915
0.70953573
0.70168137
0.68417694
0.68572387
0.69040508
0.68116813
0.66711419
0.6617497
0.66012452
0.65594793
0.64717776
0.64420557
0.64764482
0.64491408
0.63968941
0.63380329
0.62502629
0.61800157
0.60467933
0.5986263
0.59485467
0.5898687
0.57979029
0.57437677
0.56434851
0.55509156
0.53891696
0.53381667
0.55084377
0.55034858
0.53127523
0.52451416
0.52013154
0.51473846
0.50244762
0.4957479
0.49231545
0.48750744
0.47922454
0.4772256
0.47174321
0.46318581
0.44697135
0.44204739
0.44118879
0.43889007
0.42748302
0.4216203
0.41122361
0.40626909
0.39977664
0.39746563
0.38125425
0.37440644
0.35263087
0.34682696
0.3373161
0.33057329
0.31996285
0.31588871
0.29792491
0.27452344
0.26373121
0.24825745
0.23375354
0.19392683
0.16711887
0.12845557
0.1108618
-0.089013011
-0.19612459
-0.33723982
-0.47371021
-0.46363447
-0.64848216
-0.64735974
-0.61654274
-0.59445871
-0.57955527
-0.56270284
-0.55530342
-0.54632436
-0.52639062
-0.5169607
-0.52404671
-0.50587696
-0.47916095
-0.46069799
-0.44663515
-0.44206241
-0.43447374
-0.45105149
-0.46268927
-0.44057804
-0.42392022
-0.41311875
-0.39924774
-0.3879598
-0.37891769
-0.37243316
-0.36647619
-0.35970397
-0.34884661
-0.33934373
-0.32579345
-0.31562101
-0.30893053
-0.30599749
-0.30378635
-0.29787066
-0.28352034
-0.2683416
-0.26715503
-0.28307007
-0.26020157
-0.22447327
-0.23445619
-0.24898193
-0.23080911
-0.21550767
-0.20384607
-0.19440908
-0.18753841
-0.18515273
-0.18440666
-0.18933982
-0.18836709
-0.18700907
-0.17537646
-0.15402252
-0.15107882
-0.15329351
-0.14254524
-0.13623502
-0.13064991
-0.12186032
-0.10858465
-0.11071098
-0.13433059
-0.12364704
-0.092409871
-0.1089688
-0.11420795
-0.093671261
-0.082244786
-0.077669055
-0.06993601
-0.065569354
-0.060320762
-0.059027364
-0.059015687
-0.058641072
-0.057371551
-0.053655154
-0.044172818
-0.036234905
-0.032059157
-0.030261731
-0.028721131
-0.029292817
-0.033925031
-0.041549206
0.12464746
0.23844013
0.11634936
0.11557861
0.24610761
0.11166389
0.11353586
0.2426279
0.11587165
0.11610889
0.23789906
0.11860512
0.11804691
0.23334729
0.1151682
0.10957327
0.22970484
0.10032349
0.094528699
0.22324619
0.095603548
0.095713079
0.21316946
0.096057216
0.091465471
0.20478241
0.090328695
0.089032641
0.20300675
0.084098203
0.071936248
0.19283597
0.058894792
0.058363284
0.18624665
0.057492792
0.050065699
0.16649361
0.049953137
0.045052956
0.15404696
0.041446872
0.035509185
0.14348351
0.033987668
0.032269579
0.13410946
0.0070839704
-0.0017468646
0.12901847
0.014029199
0.011342195
0.11139028
0.0094825547
-0.0046878815
0.096665859
-0.026125738
-0.035754705
0.086017741
-0.044464506
-0.053062187
0.072021186
-0.056276394
-0.059424215
0.055832974
-0.051214211
-0.053200538
0.041782158
-0.060377308
-0.073055422
0.025362438
-0.081429705
-0.086824851
0.020550239
-0.10426386
-0.11542358
0.0028179752
-0.11156906
-0.11392552
-0.013098954
-0.12167099
-0.13602315
-0.023919242
-0.14957566
-0.15936333
-0.037274327
-0.16583809
-0.17077051
-0.052018863
-0.17494727
-0.18243373
-0.068344463
-0.1873436
-0.19676692
-0.080304585
-0.21106118
-0.22372888
-0.092656956
-0.22982778
-0.23288195
-0.11115913
-0.23005611
-0.23861638
-0.12466506
-0.25101957
-0.27326512
-0.13511431
-0.30377646
-0.30875984
-0.16226044
-0.29906977
-0.30982341
-0.17822865
-0.32400212
-0.32691793
-0.19829842
-0.32886909
-0.33201476
-0.21448107
-0.35869514
-0.37386838
-0.25058613
-0.38785519
-0.38239383
-0.26720923
-0.42170933
-0.43847947
-0.30968973
-0.47846507
-0.46741042
-0.35021102
-0.098193459
-0.063699749
-0.019863996
0.0044543377
0.044817287
0.060707916
0.085591388
0.10146642
0.1195853
0.13058873
0.15036269
0.16508002
0.18236903
0.19585661
0.2096413
0.22485923
0.2385274
0.24981244
0.26329913
0.27431545
0.29043195
0.30506182
0.31497041
0.3292302
0.34198444
0.35375735
0.3601093
0.37537336
0.39030198
0.40156036
0.41343724
0.42352674
0.43028052
0.44028142
0.44728368
0.46045252
0.46768091
0.47493236
0.48183497
0.48672735
0.49161233
0.49472545
0.49554802
0.48113625
0.52192386
0.5252755
0.51614618
0.23245319
0.057013818
-0.063762657
-0.17304356
-0.2979262
-0.42171666
-0.52918567
-0.62164743
-0.72430913
-0.83063878
-0.91425827
-0.95685592
-1.0117046
-0.99954891
-1.112461
-1.1792531
-1.2499225
-1.2395275
-1.2213961
-1.1108395
-1.0239951
-0.90789771
-0.82307232
-0.70520972
-0.61010673
-0.49778206
-0.39655881
-0.27502898
-0.15419462
-0.045511945
0.12488827
-0.0731447
-0.16643929
-0.2935659
-0.40374881
-0.51312179
-0.61130119
-0.71638518
-0.81973142
-0.91168892
-0.90091842
-0.81105503
-0.70072433
-0.60247366
-0.49357133
-0.39043949
-0.27101057
-0.14894261
-0.034137815
-0.048677291
-0.15446084
-0.19362883
-0.16693634
-0.19083158
-0.18648481
-0.19839208
-0.13676333
-0.085745296
-0.074770086
-0.08457542
-0.090289302
-0.10773363
-0.045354033
-0.082781765
-0.058347296
-0.026008026
-0.032453141
-0.04004541
-0.030628945
-0.0093695121
-0.090859766
-0.12121919
-0.13366878
-0.31128806
-0.54150639
-0.53112171
-0.46887062
-0.50440827
-0.55764765
-0.60232013
-0.64585566
-0.68127078
-0.71018255
-0.73204939
-0.7481257
-0.75911588
-0.64823908
-0.54397643
-0.44829214
-0.36254273
-0.28744118
-0.22296545
-0.16857006
-0.12341579
-0.086491221
-0.056716448
-0.033036558
-0.014474638
0.019996737
0.00029279189
-0.015772522
0.007429825
0.036226858
0.044226519
0.072350484
0.070057705
0.064421055
0.0240859
-0.0097809808
-0.036785615
-0.063831902
-0.032855336
-0.063257646
-0.098140082
-0.14103182
-0.10265449
-0.052712565
-0.01844998
0.0064442173
0.053977239
0.036663509
0.0098063705
0.0086659614
-0.053863343
-0.10392734
-0.14245976
-0.1700741
-0.18791754
-0.19776412
-0.15044344
-0.11094009
-0.078418472
-0.052006682
-0.030851034
0.26916156
0.32197993
0.38865871
0.47379702
0.58602648
0.73800487
0.94247944
1.2526021
1.7830285
2.3133766
2.7922583
4.2154102
4.9660222
5.0972258
4.3639661
4.3517745
4.967002
5.0450271
4.5677324
3.0252187
2.1919907
1.7067404
1.5895252
1.4011285
1.9307429
2.6919575
1.6603987
1.4471265
1.3604219
1.2224392
1.2725968
1.0444611
0.88290776
0.77711271
0.74531871
0.75465524
0.87526041
1.307244
1.8707132
1.6665928
1.3093914
1.089788
0.86683725
0.68966515
0.55692094
0.45563421
0.37599252
0.312891
0.26251414
0.26788172
0.3204539
0.38698617
0.47202238
0.58543309
0.74399358
0.95401512
1.2729465
1.8628381
2.3929469
2.8701949
4.278358
4.9344473
4.9952025
4.2558311
4.2472314
4.9689646
5.0410746
4.2590825
2.825806
2.3771452
1.8412062
1.7014944
1.6497686
1.4283203
1.3977006
1.1789907
1.0484697
1.0178069
0.99377527
1.0090145
0.7359562
0.59147521
0.30404259
0.12947671
0.12973271
-0.10695831
-0.21203245
-0.31604511
-0.39831712
-0.4697598
-0.52640177
-0.57146245
-0.60563518
-0.63082795
-0.52123201
-0.42159506
-0.33347869
-0.25764899
-0.19380992
-0.15276961
-0.21529016
-0.29181838
-0.38317245
-0.33099315
-0.23545761
-0.15861398
-0.098622355
-0.029577338
-0.084944599
-0.16107895
-0.26187386
-0.38490879
-0.4438557
-0.48842069
-0.49001759
-0.52285565
-0.54557345
-0.55991914
-0.56772829
-0.47604248
-0.39275443
-0.318549
-0.25362521
-0.25529108
-0.19935573
-0.15195709
-0.11237456
-0.079774309
-0.053285614
-0.032055649
0.26694553
0.31973585
0.38654111
0.4721236
0.58742146
0.74893905
0.96198954
1.2873169
1.8868498
2.406037
2.9051197
4.2759413
4.8904651
4.9282949
4.2600293
4.2854137
4.9099081
4.9522898
4.2609789
2.8991052
2.4032525
1.8827048
1.7283002
1.7166591
1.4908248
1.4847961
1.1432416
1.0435123
0.72649028
0.44533285
0.22221187
0.060822832
-0.06498015
0.0083444694
0.055683673
0.08533216
0.10192935
0.1091912
0.1104498
0.10807095
0.10353251
0.26420712
0.31662481
0.38312221
0.46874108
0.58469717
0.74687565
0.9610051
1.291137
1.8884971
2.4034851
2.9022165
4.2498332
4.8565091
4.8953628
4.2452409
4.2680331
4.8786542
4.9111421
4.2522467
2.9054678
2.4058919
1.8905063
1.7295705
1.7292288
1.495865
1.4980153
1.1456894
0.76253912
0.75395666
0.44743822
0.22358497
0.059957896
-0.066225999
-0.16245258
-0.23685834
-0.29332054
-0.33510502
-0.36420742
-0.38267138
-0.30812022
-0.24331062
-0.22454816
-0.28907962
-0.29105725
-0.30999278
-0.32028277
-0.39454656
-0.47787746
-0.46881109
-0.4668339
-0.44994133
-0.45205029
-0.36626176
-0.38460639
-0.38720156
-0.39704202
-0.322699
-0.25761553
-0.20158071
-0.15407785
-0.11438949
-0.081684096
-0.055092256
-0.033762266
0.26149176
0.31359204
0.3797359
0.46503537
0.58071631
0.74275085
0.95756277
1.2890685
1.8820827
2.3942938
2.8946478
4.2227676
4.8308386
4.8621342
4.2157422
4.2344786
4.8433209
4.8756511
4.2289434
2.8987888
2.3994831
1.8863076
1.7233013
1.7268067
1.4933606
1.4955566
1.1384778
0.75785431
0.436265
0.44196424
0.22133826
0.057127338
-0.068829217
-0.16491182
-0.23914217
-0.29549983
-0.33722078
-0.2612381
-0.25922445
-0.19531972
-0.15411903
-0.21670855
-0.21874955
-0.15604084
-0.19723005
-0.22643813
-0.24510833
-0.18963136
-0.14293554
-0.14131123
-0.10267083
-0.071076939
-0.045593681
-0.025323982
0.25770301
0.30936105
0.37504969
0.45991708
0.57499623
0.73642225
0.95151818
1.2824179
1.8718091
2.3800312
2.8821086
4.1963913
4.7998232
4.8363915
4.2006844
4.2179589
4.8218404
4.8467589
4.2045028
2.887714
2.3868738
1.8771623
1.7142996
1.7191765
1.4865794
1.4904843
1.1313736
0.7511687
0.42909731
0.21036062
0.21664645
0.052636497
-0.072863904
-0.16860618
-0.24250264
-0.29859294
-0.34009922
-0.36898282
-0.29366841
-0.31249888
-0.24751336
-0.19192804
-0.14511916
-0.106273
-0.10420346
-0.072518551
-0.046946525
-0.026591444
0.25351783
0.30465856
0.36978313
0.45405271
0.56832038
0.72894949
0.94394478
1.2731215
1.8595949
2.3641179
2.8702858
4.1755955
4.773911
4.806638
4.1743192
4.1895186
4.7878594
4.8132095
4.1792079
2.8748945
2.372347
1.865559
1.7037209
1.7092859
1.477792
1.482577
1.1220878
0.74196289
0.42038644
0.20256829
0.039604147
0.046760433
-0.078176236
-0.17344174
-0.24688963
-0.30260456
-0.34380377
-0.37246505
-0.3905331
-0.40027382
-0.32583305
-0.26063505
-0.20447491
-0.15684061
-0.11701842
-0.084179602
-0.057456621
-0.035999118
-0.030593952
-0.02833218
-0.048793385
-0.037404563
-0.035524929
-0.034133453
-0.015474689
-0.016773543
-0.018540606
-0.020827606
-0.039831586
-0.051187823
-0.077007154
-0.074475379
-0.061401984
-0.059404736
-0.057916047
-0.087795818
-0.089385206
-0.12651635
-0.12482403
-0.099471261
-0.065062669
-0.037918021
-0.016809924
-0.00065505416
-0.11459599
-0.12969534
-0.14778564
-0.16961481
-0.19604166
-0.22798254
-0.26649515
-0.31246672
-0.36621564
-0.42748152
-0.49541791
-0.56863952
-0.64548355
-0.72441485
-0.80343905
-0.88043343
-0.95365619
-0.95227867
-0.87939589
-0.80276419
-0.7241266
-0.64559661
-0.56915339
-0.49631531
-0.42871454
-0.36770887
-0.31415764
-0.26830292
-0.22974729
-0.19764295
-0.17105325
-0.14906418
-0.13081618
-0.11556745
-0.17529685
-0.17384939
-0.17140384
-0.16784869
-0.16319405
-0.15759252
-0.15128426
-0.14456079
-0.13775484
-0.13126022
-0.12549977
-0.12086627
-0.11756661
-0.13311615
-0.13689775
-0.14219195
-0.14875072
-0.1561177
-0.16380547
-0.17137182
-0.17844383
-0.18470252
-0.18988816
-0.19384159
-0.19656359
-0.19815979
-0.22389072
-0.2221767
-0.2191883
-0.21485391
-0.20916717
-0.20228218
-0.19447452
-0.18608705
-0.17752838
-0.16928968
-0.16192406
-0.15595441
-0.15167725
-0.17397364
-0.17872653
-0.18534339
-0.19347111
-0.20252275
-0.21188129
-0.2210111
-0.22947436
-0.23690957
-0.24303274
-0.24770611
-0.25089955
-0.2527144
-0.28482686
-0.2829286
-0.27959194
-0.2746798
-0.26823058
-0.26037681
-0.25140221
-0.24168051
-0.23166973
-0.22194214
-0.21316951
-0.20599597
-0.20084221
-0.23317051
-0.23858962
-0.24615075
-0.25536293
-0.26553663
-0.27596073
-0.28603971
-0.29530734
-0.30338694
-0.31000087
-0.31500963
-0.31842082
-0.32037926
-0.35942106
-0.35745222
-0.35407658
-0.34912632
-0.3425571
-0.33450777
-0.32524246
-0.31513152
-0.30463433
-0.29435471
-0.28501576
-0.2773306
-0.27181394
-0.31755506
-0.32291384
-0.33035572
-0.33939748
-0.34933533
-0.35946767
-0.36920067
-0.37809672
-0.38580264
-0.39207504
-0.39678954
-0.39999432
-0.40188944
-0.44759573
-0.44587974
-0.4429836
-0.43871621
-0.43302615
-0.4260187
-0.41790891
-0.40902097
-0.39975398
-0.39067083
-0.38241417
-0.3756405