/*--------------------------------*- C++ -*----------------------------------*\
| =========                 |                                                 |
| \\      /  F ield         | OpenFOAM: The Open Source CFD Toolbox           |
|  \\    /   O peration     | Version:  v2012                                 |
|   \\  /    A nd           | Website:  www.openfoam.com                      |
|    \\/     M anipulation  |                                                 |
\*---------------------------------------------------------------------------*/
FoamFile
{
    version     2.0;
    format      ascii;
    class       surfaceScalarField;
    location    "174";
    object      phi;
}
// * * * * * * * * * * * * * * * * * * * * * * * * * * * * * * * * * * * * * //

dimensions      [0 3 -1 0 0 0 0];
oriented        oriented;


internalField   nonuniform List<scalar> 
56910
(
0.0013892898
0.00024178113
0.00044759192
0.00047720109
0.00023918015
0.00067290852
0.00023800238
0.00016386788
7.533083e-05
0.0002798891
4.7367823e-06
-4.6623506e-05
0.00037435273
-4.7636728e-05
-4.6826904e-05
0.00027255203
-1.3826072e-05
0.00011562678
0.00029480446
-1.5835569e-05
-6.4168584e-06
0.00035010345
-2.3840151e-06
-5.2914977e-05
0.00039378366
-5.5124853e-06
-3.8167723e-05
0.00042028298
-2.5869358e-06
-2.3912387e-05
0.00043542607
-2.7170499e-07
-1.4871385e-05
0.00044167807
1.7205865e-06
-7.9725918e-06
0.00043413151
5.762279e-06
1.7842889e-06
0.00038792168
9.8649738e-06
3.6344848e-05
0.00022024879
1.6957794e-05
0.0001507151
0.00020014736
4.9204627e-06
1.5180966e-05
0.00019191453
2.8127256e-05
-1.9894429e-05
0.0003695331
-3.050806e-05
-0.0001471105
0.00092185141
-0.00031459484
-0.00023772348
0.0015919324
-0.00022115778
-0.00044892322
0.0011567827
0.00027512647
0.00016002325
0.00039706777
0.00019472645
0.00056498847
0.00019432007
6.3860487e-05
0.00013888721
0.00022380898
-3.5352201e-05
5.8632867e-06
0.00028006991
-2.814421e-05
-2.8116713e-05
0.00018928552
8.6533422e-05
4.2509688e-06
0.00019074965
-1.124969e-05
9.7855587e-06
0.00025207731
-4.7160483e-05
-1.4167179e-05
0.00065858782
-0.00017410228
-0.00023240822
0.0014203507
-0.00031831564
-0.00044344729
0.0019270678
-0.00014125067
-0.00036546642
0.0031937197
-0.0005599853
-0.00070666659
0.0054531217
-0.0010552333
-0.0012041686
0.0061992551
-0.00033975275
-0.00040638065
0.0064246207
-9.6501705e-05
-0.00012886384
0.0064886899
-2.0111834e-05
-4.395741e-05
0.0065061239
1.8965167e-06
-1.9330545e-05
0.0065154958
5.1558738e-06
-1.4527711e-05
0.0065236719
4.9046339e-06
-1.3080802e-05
3.6170989e-06
-1.2808109e-05
-0.0066301513
1.1707e-07
-8.9905305e-07
3.7848775e-06
-0.0066336044
-8.4555299e-07
9.3711888e-07
3.3615671e-06
-0.0066376933
-2.0581675e-06
3.2843796e-06
2.8627e-06
-0.0066427148
-3.5948205e-06
6.3349183e-06
2.281356e-06
-0.0066490623
-5.503011e-06
1.0227812e-05
1.6227471e-06
-0.0066571728
-7.7890563e-06
1.4993439e-05
9.0608251e-07
-0.0066674787
-1.044487e-05
2.0587314e-05
1.6346874e-07
-0.0066803332
-1.3356499e-05
2.6787101e-05
-5.7610657e-07
-0.0066958746
-1.6283221e-05
3.3088361e-05
-1.2637795e-06
-0.0067139521
-1.8989521e-05
3.8934407e-05
-1.8674029e-06
-0.0067341339
-2.1239738e-05
4.3759274e-05
-2.3376858e-06
-0.0067557896
-2.2833013e-05
4.7121054e-05
-2.6323408e-06
-0.0067781661
-2.3678116e-05
4.8807684e-05
-2.7530442e-06
-0.0068005297
-2.3757424e-05
4.8826863e-05
-2.7059185e-06
-0.0068222593
-2.3118433e-05
4.7344918e-05
-2.4968431e-06
-0.0068428441
-2.1833491e-05
4.4562274e-05
-2.1439683e-06
-1.9959436e-05
4.0634801e-05
-1.6625503e-06
0.0067978859
3.1248758e-05
-4.7401887e-06
0.0067713113
3.1141782e-05
-4.5670878e-06
0.0067452453
3.0457221e-05
-4.3912654e-06
0.0067202156
2.9245624e-05
-4.2158828e-06
0.0066966733
2.758675e-05
-4.0445344e-06
0.0066749758
2.5577177e-05
-3.8796877e-06
0.0066553712
2.3326019e-05
-3.7213472e-06
0.0066379905
2.0949598e-05
-3.568879e-06
0.006622853
1.8559159e-05
-3.4217076e-06
0.006609888
1.6244451e-05
-3.2794013e-06
0.0065989578
1.4071634e-05
-3.1414544e-06
0.0065898821
1.2086084e-05
-3.0104311e-06
0.0065824578
1.0306558e-05
-2.8822592e-06
0.0065764767
8.7382001e-06
-2.7571078e-06
7.3796889e-06
-2.6382325e-06
-0.0068206568
1.4854224e-05
-2.6693291e-06
-0.0068267442
1.7597522e-05
-2.7719035e-06
-0.006834327
2.0768777e-05
-2.8794205e-06
-0.0068436306
2.4376738e-05
-2.9870226e-06
-0.0068548795
2.8414761e-05
-3.0942658e-06
-0.0068682721
3.2842191e-05
-3.2051365e-06
-0.0068839642
3.7570999e-05
-3.3197392e-06
-0.0069020415
4.2465605e-05
-3.4387122e-06
-0.0069224934
4.7342022e-05
-3.5640632e-06
-0.0069451907
5.1972398e-05
-3.6979393e-06
-0.0069698699
5.6110495e-05
-3.8445769e-06
-0.0069961476
5.952762e-05
-4.0042571e-06
-0.007023541
6.2025554e-05
-4.1749396e-06
-0.0070514949
6.3450426e-05
-4.354711e-06
6.3700395e-05
-4.5417663e-06
0.0075898589
0.00010017656
-5.6474748e-06
0.007559029
9.9703273e-05
-5.422941e-06
0.0075288715
9.7379852e-05
-5.1967857e-06
0.0075000107
9.3363532e-05
-4.9751217e-06
0.0074729897
8.7890425e-05
-4.7589276e-06
0.0074482416
8.1272736e-05
-4.5521952e-06
0.0074260593
7.3880968e-05
-4.3567116e-06
0.0074065737
6.6120909e-05
-4.1696569e-06
0.0073897718
5.8362548e-05
-3.9896686e-06
0.0073755304
5.0899742e-05
-3.8161904e-06
0.0073636511
4.3944481e-05
-3.6504372e-06
0.0073538921
3.7628029e-05
-3.4922555e-06
0.0073459917
3.2009336e-05
-3.3401167e-06
0.0073396885
2.7092722e-05
-3.1919994e-06
2.2849103e-05
-3.0550556e-06
-0.0079292611
3.1202618e-05
-3.4545998e-06
-0.007935582
3.7040942e-05
-3.6273128e-06
-0.0079435915
4.3833857e-05
-3.815039e-06
-0.0079535962
5.1645412e-05
-4.012707e-06
-0.0079659178
6.0489433e-05
-4.2232869e-06
-0.0079808724
7.0302541e-05
-4.4482819e-06
-0.007998738
8.0914358e-05
-4.686156e-06
-0.008019713
9.2029085e-05
-4.933144e-06
-0.0080438636
0.00010321958
-5.1880599e-06
-0.0080710684
0.0001139304
-5.4528225e-06
-0.0081009939
0.00012354013
-5.7242775e-06
-0.0081331343
0.00013151064
-6.0066427e-06
-0.0081668554
0.0001373976
-6.2967331e-06
-0.0082014368
0.00014087278
-6.5880897e-06
0.00014172067
-6.8710131e-06
0.0086814597
0.00018802761
-7.5100915e-06
0.0086429222
0.00018655466
-7.144412e-06
0.0086055166
0.0001815811
-6.777905e-06
0.0085700798
0.00017337537
-6.4278981e-06
0.008537369
0.00016235379
-6.1028212e-06
0.0085079891
0.00014911211
-5.8018709e-06
0.0084823352
0.00013439019
-5.5167289e-06
0.0084604893
0.00011911625
-5.241222e-06
0.0084422737
0.0001040992
-4.9692247e-06
0.0084273549
8.9926173e-05
-4.704886e-06
0.0084153185
7.6983805e-05
-4.4579479e-06
0.0084057337
6.5463038e-05
-4.2327749e-06
0.0083981979
5.5396264e-05
-4.0266351e-06
0.0083923587
4.6715399e-05
-3.8352834e-06
3.9301966e-05
-3.6565818e-06
-0.0086596343
4.6521071e-05
-3.758443e-06
-0.0086643392
5.5347848e-05
-3.927502e-06
-0.0086705942
6.5758588e-05
-4.1073955e-06
-0.008678788
7.7965456e-05
-4.3085457e-06
-0.0086894205
9.2159427e-05
-4.5431296e-06
-0.0087030924
0.0001084163
-4.8182117e-06
-0.0087204409
0.00012656827
-5.1205825e-06
-0.0087420394
0.00014613521
-5.4205354e-06
-0.0087682733
0.00016632637
-5.7022288e-06
-0.0087991523
0.00018597545
-5.9843215e-06
-0.0088341825
0.00020367217
-6.2882021e-06
-0.0088726087
0.00021844459
-6.643056e-06
-0.0089135003
0.00022953611
-7.0633834e-06
-0.0089558717
0.00023646566
-7.539569e-06
0.00023893317
-8.0312088e-06
0.0090682063
0.00029470782
-8.9885899e-06
0.0090221547
0.0002907741
-8.2568513e-06
0.0089779342
0.00028132778
-7.5712291e-06
0.0089367685
0.0002666487
-7.0383881e-06
0.0088998666
0.00024723672
-6.6626385e-06
0.0088682197
0.00022401535
-6.3929541e-06
0.0088425204
0.00019817023
-6.1446185e-06
0.0088225743
0.00017193369
-5.8523125e-06
0.0088076825
0.00014692616
-5.4661453e-06
0.0087968318
0.00012431069
-5.0436746e-06
0.008789012
0.00010465471
-4.6755153e-06
0.008783374
8.800074e-05
-4.3972391e-06
0.0087793122
7.4009273e-05
-4.1888616e-06
0.0087764335
6.2242666e-05
-4.0161947e-06
5.2332913e-05
-3.8565069e-06
-0.0088138035
5.6234687e-05
-3.9245173e-06
-0.0088141827
6.6690437e-05
-4.0686278e-06
-0.0088151261
7.9182334e-05
-4.2296632e-06
-0.0088169097
9.4240922e-05
-4.4565808e-06
-0.0088202581
0.0001128355
-4.8323677e-06
-0.0088263869
0.00013586
-5.4205348e-06
-0.0088369477
0.00016362442
-6.1373797e-06
-0.008853625
0.00019532766
-6.716696e-06
-0.0088777714
0.00022928123
-6.9646231e-06
-0.0089097252
0.00026299519
-7.0260618e-06
-0.0089483413
0.00029297293
-7.1200713e-06
-0.0089922385
0.00031802531
-7.4793908e-06
-0.0090397351
0.00033706378
-8.239383e-06
-0.0090892272
0.00034967967
-9.4135092e-06
0.00035562989
-1.0672584e-05
0.009062292
0.00042095593
-1.4474662e-05
0.0090107886
0.00041300403
-1.1820929e-05
0.0089602187
0.0003969105
-9.2768351e-06
0.008913327
0.00037283246
-7.9154882e-06
0.0088725608
0.00034135859
-7.6194678e-06
0.0088397974
0.00030388947
-8.1308164e-06
0.0088172613
0.00026063828
-8.8210024e-06
0.0088046961
0.00021676349
-8.8706208e-06
0.0088002016
0.00017593689
-7.8179583e-06
0.0088007446
0.00014163911
-6.3220739e-06
0.0088034917
0.00011525778
-5.1694275e-06
0.0088067484
9.5526759e-05
-4.5424793e-06
0.0088098251
8.0353385e-05
-4.2477798e-06
0.0088125055
6.8095088e-05
-4.0850892e-06
5.7811881e-05
-3.9516861e-06
-0.008772235
5.6822001e-05
-3.8478895e-06
-0.0087663191
6.6151183e-05
-3.9719562e-06
-0.0087590423
7.7236828e-05
-4.1602054e-06
-0.0087503643
9.1487284e-05
-4.6385865e-06
-0.0087407926
0.0001115912
-5.9050671e-06
-0.0087322595
0.00014164749
-8.5415537e-06
-0.0087293164
0.0001853301
-1.2336297e-05
-0.0087378683
0.00024035048
-1.5035043e-05
-0.0087605541
0.00029734153
-1.401749e-05
-0.008796389
0.00035036525
-1.0640844e-05
-0.0088403746
0.00039343904
-8.0948398e-06
-0.0088904668
0.00043102535
-8.100769e-06
-0.0089426496
0.0004600284
-1.0935005e-05
-0.0089908675
0.00047879912
-1.7577259e-05
0.0004952766
-2.547582e-05
0.0088413475
0.00054944298
-7.7515002e-05
0.0088111495
0.00054133493
-3.2337809e-05
0.0087552553
0.00052916245
-1.3239876e-05
0.0087070214
0.00048728985
-8.0306024e-06
0.0086609202
0.00044886359
-9.3233819e-06
0.0086172248
0.00041200974
-1.7949105e-05
0.00858393
0.00036158073
-3.0944392e-05
0.0085735073
0.0002854615
-3.4688325e-05
0.0085867262
0.00019743828
-2.5327043e-05
0.008603532
0.00013934749
-1.4505808e-05
0.0086182844
0.00010476608
-7.9272816e-06
0.0086312912
8.353385e-05
-5.0533374e-06
0.008642196
7.0404303e-05
-4.0722721e-06
0.0086510157
6.1071634e-05
-3.7401716e-06
5.3280041e-05
-3.5749111e-06
-0.0083760627
4.7027979e-05
-2.5344689e-06
-0.0083653645
5.2948948e-05
-2.5755309e-06
-0.0083524471
6.0341692e-05
-2.8547861e-06
-0.0083376636
7.3102782e-05
-4.3523716e-06
-0.0083219675
9.9051053e-05
-9.981083e-06
-0.0083020215
0.00014512925
-2.5727751e-05
-0.0082572697
0.00021149862
-5.8812167e-05
-0.0082189079
0.00035732507
-0.00011022537
-0.0082307214
0.00046921902
-9.5824785e-05
-0.0082831015
0.00049620677
-3.1816979e-05
-0.0083244492
0.00049684283
-6.6315122e-06
-0.0083327674
0.00049651651
-9.0839833e-07
-0.008386539
0.00058495568
-2.0216453e-06
-0.0084501458
0.00065235258
-4.7410849e-05
0.00022438399
-0.0003304493
0.0069931436
0.0013972108
-0.00023236718
-0.00066862553
0.0066733468
9.1484339e-06
2.0630681e-06
0.0066610965
9.7349801e-06
2.5152836e-06
0.0066481196
1.0155117e-05
2.8218483e-06
0.0066347166
1.0414175e-05
2.988769e-06
0.0066211628
1.0526306e-05
3.0275635e-06
0.0066077084
1.0508762e-05
2.9456313e-06
0.0065945779
1.0374659e-05
2.7557863e-06
0.0065819614
1.0139152e-05
2.4773468e-06
0.0065700071
9.8290887e-06
2.1252529e-06
0.0065588173
9.4645602e-06
1.7251701e-06
0.0065484554
9.0641362e-06
1.2978288e-06
0.0065389615
8.6336172e-06
8.6030997e-07
0.0065303502
8.1799613e-06
4.3130742e-07
0.0065225989
7.7311389e-06
2.0180587e-08
0.0065156582
7.3186943e-06
-3.779974e-07
0.0065094772
6.9390456e-06
-7.5806655e-07
6.5753155e-06
-1.1025749e-06
1.308732e-05
-0.006637858
-9.3978361e-07
2.0009582e-05
-0.0069911272
-1.0777165e-06
2.7445862e-05
-0.0074065336
-1.2950179e-06
3.5145706e-05
-0.0077280918
-1.3796215e-06
4.2794001e-05
-0.0079000558
-1.3069443e-06
5.0112065e-05
-0.0079571342
-1.0783711e-06
5.6827982e-05
-0.0079579134
-6.4086964e-07
6.2655021e-05
-0.0079427755
6.0754977e-08
6.7305071e-05
-0.0079293131
1.0472637e-06
7.0531537e-05
-0.0079216583
2.285835e-06
7.2172653e-05
-0.0079187256
3.6953461e-06
-0.00791861
5.1295394e-06
-6.3036777e-05
-0.0079363036
9.9633098e-06
-6.7165966e-05
-0.0079332876
9.814175e-06
-7.0764657e-05
-0.0079305041
9.3846574e-06
-7.3492733e-05
-0.0079280296
8.6253749e-06
-7.5009906e-05
-0.007926005
7.5367197e-06
-7.5033307e-05
-0.007924765
6.1784368e-06
-7.3417308e-05
-0.0079250302
4.6885788e-06
-7.0162579e-05
-0.0079281255
3.2124517e-06
-6.5424549e-05
-0.0079359534
1.9023041e-06
-5.9445828e-05
-0.0079495955
8.4124887e-07
-5.2515016e-05
-0.0079649096
6.5341736e-08
-4.4923903e-05
-0.0079642813
-4.4402279e-07
-3.6953676e-05
-0.0079072855
-7.4054027e-07
-2.8896356e-05
-0.007735272
-8.7716093e-07
-2.1091006e-05
-0.0074134875
-8.5137175e-07
-1.3805064e-05
-0.0069977327
-6.8048455e-07
-0.0066441513
-5.7271172e-07
1.4561755e-05
-0.0066512321
-1.6225842e-07
2.2240923e-05
-0.0070051811
-2.3076699e-07
3.0443986e-05
-0.0074213414
-3.4921498e-07
3.8880734e-05
-0.0077433992
-3.0952101e-07
4.7191947e-05
-0.0079154988
-9.7966387e-08
5.5071149e-05
-0.0079724411
2.8060749e-07
6.2225972e-05
-0.0079729416
8.772124e-07
6.8359223e-05
-0.0079574729
1.7441623e-06
7.3182023e-05
-0.0079436733
2.8970792e-06
7.6456723e-05
-0.0079356952
4.295022e-06
7.803549e-05
-0.0079324604
5.8514247e-06
7.7930958e-05
-0.0079320683
7.4078508e-06
7.6301531e-05
-0.0079331944
8.8187571e-06
7.3443784e-05
-0.0079351164
9.944604e-06
6.9710061e-05
-0.0079374989
1.0728582e-05
6.5446767e-05
-0.0079401976
1.1173282e-05
6.0946089e-05
-0.0079431349
1.1331997e-05
5.6424613e-05
-0.0079463446
1.1277286e-05
5.202405e-05
-0.0079497076
1.1083064e-05
4.7821122e-05
-0.0079531917
1.0811321e-05
4.3845074e-05
-0.0079567945
1.0508926e-05
4.0094372e-05
-0.0079606131
1.0207731e-05
3.6545672e-05
-0.0079649252
9.9287031e-06
3.3164218e-05
-0.0079703928
9.6847998e-06
2.9910767e-05
-0.0079783287
9.4829295e-06
2.6745666e-05
-0.0079906414
9.3259977e-06
2.3632767e-05
-0.0080084132
9.2121572e-06
2.0543438e-05
-0.0080274681
9.1323807e-06
1.745683e-05
-0.008030027
9.067369e-06
1.4358363e-05
-0.0079752727
8.982996e-06
1.1254174e-05
-0.0078039533
8.8182014e-06
8.2092591e-06
-0.0074809004
8.489958e-06
5.3283187e-06
-0.007062384
7.9960749e-06
-0.0067060553
7.5318788e-06
-5.5824048e-06
-0.0067121614
8.9313422e-06
-8.6173612e-06
-0.0070688327
9.483631e-06
-1.1824102e-05
-0.0074877598
1.0066111e-05
-1.5086947e-05
-0.0078111437
1.0453177e-05
-1.8335777e-05
-0.0079826678
1.0643921e-05
-2.1566257e-05
-0.0080375294
1.0732872e-05
-2.4793987e-05
-0.0080350331
1.0792768e-05
-2.8039047e-05
-0.0080160327
1.0864573e-05
-3.1330003e-05
-0.0079983208
1.0970311e-05
-3.4702942e-05
-0.0079860758
1.1119971e-05
-3.8198792e-05
-0.0079782122
1.1315259e-05
-4.1858847e-05
-0.0079728181
1.1552922e-05
-4.5720095e-05
-0.0079685781
1.1826309e-05
-4.9829686e-05
-0.0079648079
1.2122968e-05
-5.4122616e-05
-0.0079613202
1.2421443e-05
-5.864054e-05
-0.0079578787
1.2689045e-05
-6.3285557e-05
-0.0079545773
1.2877713e-05
-6.7918503e-05
-0.0079514258
1.2923897e-05
-7.2321295e-05
-0.0079485467
1.2751954e-05
-7.6200126e-05
-0.007945907
1.2286927e-05
-7.9199923e-05
-0.0079435886
1.1471992e-05
-8.0955952e-05
-0.0079417396
1.0301297e-05
-8.1156686e-05
-0.0079406953
8.8276858e-06
-7.9628194e-05
-0.0079411805
7.1916783e-06
-7.634178e-05
-0.0079445207
5.5390324e-06
-7.1437121e-05
-0.0079526129
4.0349787e-06
-6.5146822e-05
-0.0079665337
2.7705208e-06
-5.7759635e-05
-0.0079821219
1.7931514e-06
-4.9578193e-05
-0.0079817143
1.0917128e-06
-4.09071e-05
-0.0079247856
6.1569461e-07
-3.207255e-05
-0.0077525491
3.1528317e-07
-2.3456016e-05
-0.0074301574
1.9945773e-07
-1.5371557e-05
-0.0070135257
2.6020097e-07
-0.0066591523
2.7973612e-07
1.6233891e-05
-0.0066679485
7.4231954e-07
2.4725228e-05
-0.0070227993
7.8226145e-07
3.3757186e-05
-0.007439979
7.8969467e-07
4.3003202e-05
-0.0077627851
9.8999463e-07
5.204867e-05
-0.0079352246
1.3936028e-06
6.0544119e-05
-0.0079921945
1.9847699e-06
6.8172027e-05
-0.0079925612
2.8113783e-06
7.4622876e-05
-0.0079769045
3.9198651e-06
7.9606283e-05
-0.0079629126
5.3163079e-06
8.2895494e-05
-0.0079547561
6.9461644e-06
8.4362381e-05
-0.0079513612
8.7137685e-06
8.4052966e-05
-0.0079508307
1.0444856e-05
8.215826e-05
-0.0079518369
1.1992011e-05
7.9008147e-05
-0.0079536533
1.3214794e-05
7.4978242e-05
-0.0079559423
1.4065221e-05
7.0431477e-05
-0.0079585537
1.4553768e-05
6.5665739e-05
-0.0079614018
1.4741678e-05
6.0898013e-05
-0.0079645166
1.4706998e-05
5.6265335e-05
-0.0079677734
1.4527337e-05
5.1817415e-05
-0.0079711396
1.426726e-05
4.7648083e-05
-0.0079746138
1.3975202e-05
4.3681123e-05
-0.0079782966
1.3685429e-05
3.9912063e-05
-0.0079824686
1.3419566e-05
3.6302369e-05
-0.0079877929
1.3190413e-05
3.2809868e-05
-0.0079955885
1.3005203e-05
2.9392088e-05
-0.0080077694
1.2866414e-05
2.6012367e-05
-0.0080254244
1.2771388e-05
2.2643019e-05
-0.0080443728
1.270908e-05
1.9263497e-05
-0.008046804
1.2654124e-05
1.585633e-05
-0.0079918196
1.25589e-05
1.2426464e-05
-0.0078200522
1.2338392e-05
9.046956e-06
-0.007496265
1.1884733e-05
5.8490706e-06
-0.0070768365
1.1201691e-05
-0.0067197426
1.0547993e-05
-6.1262099e-06
-0.0067290107
1.2383933e-05
-9.4981827e-06
-0.007086617
1.3152418e-05
-1.3061953e-05
-0.0075066505
1.3949306e-05
-1.6667976e-05
-0.0078309247
1.4478525e-05
-2.0238841e-05
-0.0080029814
1.4732717e-05
-2.3772226e-05
-0.0080581046
1.4834013e-05
-2.7286805e-05
-0.00805574
1.488174e-05
-3.0803483e-05
-0.0080368394
1.4931684e-05
-3.4349297e-05
-0.0080192368
1.5013231e-05
-3.7960972e-05
-0.0080071158
1.5138988e-05
-4.1680937e-05
-0.0079993845
1.5311529e-05
-4.5553993e-05
-0.0079941238
1.5528298e-05
-4.9620665e-05
-0.0079900125
1.5782542e-05
-5.3911482e-05
-0.0079863842
1.6061274e-05
-5.843883e-05
-0.0079829542
1.6341934e-05
-6.3180419e-05
-0.0079796219
1.6590138e-05
-6.8066353e-05
-0.0079763879
1.6757216e-05
-7.2961508e-05
-0.0079732841
1.6777457e-05
-7.7650067e-05
-0.0079704362
1.6570962e-05
-8.1831736e-05
-0.0079678165
1.6055799e-05
-8.5137627e-05
-0.0079655122
1.5164761e-05
-8.7178393e-05
-0.0079636777
1.3881497e-05
-8.7606143e-05
-0.0079626522
1.22492e-05
-8.6210144e-05
-0.0079631653
1.0408127e-05
-8.2923476e-05
-0.0079665493
8.5065715e-06
-7.7862669e-05
-0.0079747022
6.7287029e-06
-7.1249041e-05
-0.0079886952
5.1771247e-06
-6.33749e-05
-0.0080043513
3.9159743e-06
-5.4557619e-05
-0.0080039578
2.9460254e-06
-4.5128586e-05
-0.0079468776
2.2239035e-06
-3.5463348e-05
-0.007774154
1.7036983e-06
-2.6005413e-05
-0.0074508451
1.4081132e-06
-1.7102363e-05
-0.0070330316
1.3292157e-06
-0.0066776441
1.2268761e-06
1.7940283e-05
-0.0066882388
1.7185424e-06
2.725855e-05
-0.0070442331
1.8832353e-06
3.7147265e-05
-0.007462772
2.0382122e-06
4.7232339e-05
-0.0077866775
2.4384353e-06
5.7042511e-05
-0.0079597747
3.0869404e-06
6.6184208e-05
-0.0080170544
3.9548653e-06
7.4307117e-05
-0.0080175602
5.0859102e-06
8.1084354e-05
-0.0080019921
6.5196392e-06
8.6221504e-05
-0.0079880881
8.2487909e-06
8.9503999e-05
-0.0079800288
1.0197016e-05
9.0826392e-05
-0.0079767396
1.2251887e-05
9.0276765e-05
-0.007976321
1.4218513e-05
8.8087961e-05
-0.0079774364
1.5947492e-05
8.462783e-05
-0.0079793518
1.7299717e-05
8.0298e-05
-0.0079817249
1.8238313e-05
7.5475131e-05
-0.0079843999
1.8786641e-05
7.0460841e-05
-0.0079872866
1.9016849e-05
6.5468082e-05
-0.0079904101
1.9014984e-05
6.0628753e-05
-0.0079936459
1.8863288e-05
5.600917e-05
-0.0079969644
1.8629873e-05
5.1627936e-05
-0.0080003683
1.8365324e-05
4.7469953e-05
-0.0080039579
1.8103423e-05
4.3499656e-05
-0.0080080191
1.7865601e-05
3.9673742e-05
-0.008013223
1.766448e-05
3.5945066e-05
-0.0080208944
1.7507308e-05
3.2270797e-05
-0.0080329602
1.7397597e-05
2.8615449e-05
-0.008050517
1.7332981e-05
2.4952131e-05
-0.0080693759
1.7299203e-05
2.1260012e-05
-0.0080716749
1.7262423e-05
1.7519362e-05
-0.0080163979
1.7157113e-05
1.3728806e-05
-0.0078440011
1.6866989e-05
9.9719036e-06
-0.0075191462
1.6252618e-05
6.4154059e-06
-0.0070983866
1.5326109e-05
-0.0067401668
1.443005e-05
-6.7173881e-06
-0.0067533983
1.6669422e-05
-1.04663e-05
-0.0071123425
1.7704802e-05
-1.4425106e-05
-0.0075339591
1.8771664e-05
-1.8407976e-05
-0.0078594949
1.9476618e-05
-2.2326018e-05
-0.0080322832
1.980341e-05
-2.6181018e-05
-0.0080877312
1.9911298e-05
-2.9995382e-05
-0.0080854959
1.993435e-05
-3.3790132e-05
-0.0080666701
1.9947828e-05
-3.7590878e-05
-0.0080491499
1.9990474e-05
-4.1432834e-05
-0.0080371309
2.0078392e-05
-4.5359646e-05
-0.0080295108
2.0214589e-05
-4.9418693e-05
-0.0080243558
2.0395657e-05
-5.3657744e-05
-0.0080203327
2.0613799e-05
-5.8116109e-05
-0.0080167663
2.0856313e-05
-6.2812366e-05
-0.0080133698
2.1101655e-05
-6.7733014e-05
-0.0080100406
2.1315335e-05
-7.2815329e-05
-0.0080067736
2.1445841e-05
-7.7932505e-05
-0.0080035931
2.1423668e-05
-8.2875069e-05
-0.008000621
2.1163678e-05
-8.734076e-05
-0.0079978347
2.0575408e-05
-9.0946188e-05
-0.0079953269
1.9580581e-05
-9.3275924e-05
-0.0079932558
1.8149149e-05
-9.3942609e-05
-0.0079919654
1.6311086e-05
-9.2691314e-05
-0.0079921932
1.4202273e-05
-8.9411546e-05
-0.0079952831
1.1974543e-05
-8.4195971e-05
-0.0080031405
9.8368744e-06
-7.7253858e-05
-0.008016846
7.9118395e-06
-6.8883929e-05
-0.0080322176
6.2874655e-06
-5.9425311e-05
-0.0080314919
4.9789433e-06
-4.9244669e-05
-0.0079739081
3.9528115e-06
-3.8754149e-05
-0.007800336
3.1679788e-06
-2.8448079e-05
-0.0074757335
2.655437e-06
-1.8727441e-05
-0.0070563691
2.4153505e-06
-0.0066996921
2.1904269e-06
1.9445764e-05
-0.0067119412
2.632379e-06
2.953133e-05
-0.0070693692
2.9145082e-06
4.0216826e-05
-0.0074896548
3.2357513e-06
5.108293e-05
-0.0078150623
3.8602048e-06
6.1612053e-05
-0.0079892221
4.7848068e-06
7.1371956e-05
-0.008047226
5.9741766e-06
7.9979651e-05
-0.0080482932
7.467982e-06
8.7084698e-05
-0.0080332452
9.2940692e-06
9.2382222e-05
-0.0080198667
1.1428663e-05
9.5666756e-05
-0.0080123383
1.3770678e-05
9.6857236e-05
-0.0080095699
1.6186236e-05
9.6087055e-05
-0.0080096461
1.8450797e-05
9.3633818e-05
-0.0080112123
2.0409786e-05
8.9903704e-05
-0.0080135273
2.1930469e-05
8.5324426e-05
-0.0080162454
2.2990016e-05
8.0285642e-05
-0.0080192084
2.3626101e-05
7.5089939e-05
-0.0080223203
2.3922924e-05
6.9941581e-05
-0.0080256018
2.3976488e-05
6.4961786e-05
-0.0080289352
2.3874355e-05
6.0208715e-05
-0.0080323043
2.3687492e-05
5.569111e-05
-0.0080357167
2.3468008e-05
5.1384898e-05
-0.0080392778
2.3251306e-05
4.7247637e-05
-0.0080432781
2.3059607e-05
4.3229048e-05
-0.0080483978
2.2905566e-05
3.9279788e-05
-0.0080559779
2.2796317e-05
3.5356011e-05
-0.0080679612
2.2735077e-05
3.1422516e-05
-0.0080854549
2.2718353e-05
2.7454919e-05
-0.0081042574
2.2729108e-05
2.3433617e-05
-0.0081064343
2.2724349e-05
1.933316e-05
-0.0080508002
2.2617388e-05
1.5149627e-05
-0.0078775655
2.2254149e-05
1.098034e-05
-0.0075512443
2.1454539e-05
7.0310785e-06
-0.0071286322
2.0239013e-05
-0.0067688447
1.9055839e-05
-7.355525e-06
-0.0067865782
2.1520085e-05
-1.1513006e-05
-0.0071473301
2.2855346e-05
-1.5901505e-05
-0.0075710799
2.4224086e-05
-2.0291967e-05
-0.0078982951
2.5120059e-05
-2.4579078e-05
-0.0080720311
2.5518024e-05
-2.8769328e-05
-0.008127864
2.5620009e-05
-3.288976e-05
-0.0081257381
2.5601161e-05
-3.6959267e-05
-0.008106945
2.555955e-05
-4.1001208e-05
-0.0080894625
2.5543247e-05
-4.5049318e-05
-0.0080775009
2.5571111e-05
-4.9148205e-05
-0.0080699455
2.5646591e-05
-5.3348917e-05
-0.0080648436
2.576626e-05
-5.7703397e-05
-0.0080608465
2.5923202e-05
-6.2258861e-05
-0.0080572661
2.6104894e-05
-6.7044639e-05
-0.0080538077
2.6289207e-05
-7.2055936e-05
-0.0080503643
2.6440486e-05
-7.7238821e-05
-0.0080469243
2.6505463e-05
-8.2455764e-05
-0.0080435155
2.6412077e-05
-8.7578686e-05
-0.0080401553
2.6069876e-05
-9.2237006e-05
-0.0080369648
2.5377741e-05
-9.6059234e-05
-0.0080339503
2.4245259e-05
-9.8606697e-05
-0.0080312916
2.2626691e-05
-9.9455886e-05
-0.008029335
2.0538119e-05
-9.830708e-05
-0.0080288276
1.8108936e-05
-9.5005103e-05
-0.0080311368
1.5496506e-05
-8.9621219e-05
-0.0080381938
1.2943165e-05
-8.2358977e-05
-0.0080511027
1.0595288e-05
-7.3529761e-05
-0.0080656898
8.5673161e-06
-6.3495834e-05
-0.0080641505
6.8905209e-06
-5.2655773e-05
-0.0080056031
5.541016e-06
-4.1461861e-05
-0.0078307367
4.480499e-06
-3.0453688e-05
-0.0075044132
3.7502822e-06
-2.0056948e-05
-0.0070831217
3.3558357e-06
-0.0067248814
3.0223913e-06
2.0518908e-05
-0.0067383547
3.3290392e-06
3.1151059e-05
-0.0070974591
3.7051769e-06
4.241107e-05
-0.0075198405
4.1672642e-06
5.3865331e-05
-0.0078471854
4.9943779e-06
6.4960058e-05
-0.008022877
6.1791669e-06
7.5226144e-05
-0.0080820935
7.6769513e-06
8.4250285e-05
-0.00808424
9.5260463e-06
9.1660099e-05
-0.0080702594
1.1746914e-05
9.7136002e-05
-0.0080579714
1.4301698e-05
0.00010047371
-0.0080515376
1.7063117e-05
0.00010160907
-0.0080498351
1.987206e-05
0.00010071736
-0.0080509106
2.2467311e-05
9.8118341e-05
-0.0080533812
2.4688651e-05
9.4249959e-05
-0.008056492
2.6410049e-05
8.9561407e-05
-0.0080598976
2.7621318e-05
8.4450348e-05
-0.0080634208
2.8376595e-05
7.9212279e-05
-0.0080670506
2.8773188e-05
7.403456e-05
-0.0080706627
2.8916047e-05
6.9025639e-05
-0.0080742531
2.889766e-05
6.4236824e-05
-0.0080778102
2.8791327e-05
5.9669647e-05
-0.0080813501
2.8651177e-05
5.5289061e-05
-0.0080849794
2.8513507e-05
5.1043342e-05
-0.0080889981
2.8400188e-05
4.6877919e-05
-0.0080941038
2.8323701e-05
4.2741672e-05
-0.0081016557
2.8291049e-05
3.8589693e-05
-0.0081136155
2.8305032e-05
3.4388424e-05
-0.0081311049
2.8361165e-05
3.0116907e-05
-0.0081499058
2.843918e-05
2.5756826e-05
-0.0081519902
2.848624e-05
2.1279132e-05
-0.0080959465
2.8393095e-05
1.6676103e-05
-0.0079216563
2.7964204e-05
1.2062367e-05
-0.0075934414
2.6975222e-05
7.6910171e-06
-0.0071684138
2.5455046e-05
-0.0068065778
2.3969299e-05
-8.0370272e-06
-0.0068287105
2.6290003e-05
-1.2625735e-05
-0.0071917424
2.7917366e-05
-1.7468122e-05
-0.0076181786
2.9579597e-05
-2.2286605e-05
-0.0079474912
3.0653373e-05
-2.6956539e-05
-0.0081223828
3.1106275e-05
-3.148608e-05
-0.0081786453
3.118465e-05
-3.5905176e-05
-0.0081765904
3.1103765e-05
-4.0231339e-05
-0.008157762
3.0983264e-05
-4.4484265e-05
-0.0081402432
3.0880558e-05
-4.8696436e-05
-0.0081282612
3.081769e-05
-5.2911567e-05
-0.0081206884
3.0799723e-05
-5.7181387e-05
-0.0081155524
3.082409e-05
-6.1562066e-05
-0.0081114827
3.0884022e-05
-6.6109236e-05
-0.0081077706
3.0967661e-05
-7.0863075e-05
-0.0081041096
3.1053214e-05
-7.5848842e-05
-0.0081003716
3.1104305e-05
-8.0972295e-05
-0.0080966054
3.1066192e-05
-8.6131277e-05
-0.0080927565
3.0864925e-05
-9.1170253e-05
-0.0080887882
3.0406317e-05
-9.5848145e-05
-0.0080848015
2.9581839e-05
-9.9699486e-05
-0.0080809287
2.8288029e-05
-0.00010229227
-0.008077252
2.6463633e-05
-0.00010317701
-0.0080741401
2.4114255e-05
-0.00010201685
-0.0080723573
2.136212e-05
-9.8620253e-05
-0.0080733041
1.8369836e-05
-9.3047296e-05
-0.0080789621
1.5417751e-05
-8.5505025e-05
-0.0080904788
1.2677139e-05
-7.6322412e-05
-0.0081037075
1.0284925e-05
-6.5882331e-05
-0.0081008175
8.2839057e-06
-5.4610488e-05
-0.0080408073
6.6584811e-06
-4.2983187e-05
-0.0078641822
5.36953e-06
-3.1562809e-05
-0.0075357235
4.462573e-06
-2.0786926e-05
-0.0071121812
3.9462734e-06
-0.0067521714
3.5386233e-06
2.0824738e-05
-0.0067661004
3.6305237e-06
3.1634861e-05
-0.007127053
4.0616598e-06
4.3102156e-05
-0.007551805
4.6142622e-06
5.4790657e-05
-0.0078814442
5.5734557e-06
6.6143036e-05
-0.008059096
6.9362624e-06
7.6682101e-05
-0.0081200142
8.6577064e-06
8.5975402e-05
-0.0081237781
1.0777263e-05
9.3626937e-05
-0.0081114358
1.3305444e-05
9.930114e-05
-0.0081008341
1.6197756e-05
0.00010278435
-0.008096097
1.9309713e-05
0.00010401763
-0.0080960489
2.2458282e-05
0.00010320384
-0.0080986725
2.5346142e-05
0.00010069161
-0.0081025479
2.7808054e-05
9.6935697e-05
-0.0081068987
2.972596e-05
9.2391214e-05
-0.0081113562
3.1099172e-05
8.7445843e-05
-0.0081158387
3.1995849e-05
8.2380319e-05
-0.0081202135
3.2522523e-05
7.7369059e-05
-0.0081243843
3.279014e-05
7.2508416e-05
-0.0081284056
3.2894617e-05
6.783774e-05
-0.0081323492
3.2910276e-05
6.3347741e-05
-0.0081361718
3.2891204e-05
5.8995993e-05
-0.0081400041
3.2873068e-05
5.4725616e-05
-0.0081441594
3.2877355e-05
5.048e-05
-0.0081493579
3.2915184e-05
4.6207149e-05
-0.008156981
3.2992656e-05
4.1863962e-05
-0.0081690129
3.3112947e-05
3.7420867e-05
-0.00818659
3.3271114e-05
3.2859849e-05
-0.0082054719
3.3442501e-05
2.8163551e-05
-0.0082075135
3.3564457e-05
2.3302086e-05
-0.00815103
3.3508602e-05
1.8268608e-05
-0.0079754998
3.3042136e-05
1.3197857e-05
-0.0076450061
3.1898238e-05
8.3921527e-06
-0.0072170487
3.0111998e-05
-0.006852723
2.8360168e-05
-8.7526481e-06
-0.0068782497
3.0063499e-05
-1.3772095e-05
-0.0072439446
3.1915312e-05
-1.9067032e-05
-0.0076735104
3.3799274e-05
-2.4311711e-05
-0.0080052477
3.4992579e-05
-2.9360166e-05
-0.0081814397
3.545818e-05
-3.4217706e-05
-0.0082381364
3.548044e-05
-3.8913876e-05
-0.0082360839
3.5308177e-05
-4.3463127e-05
-0.0082171189
3.5078183e-05
-4.7881222e-05
-0.008199451
3.4856199e-05
-5.2196276e-05
-0.0081873343
3.4668263e-05
-5.6449968e-05
-0.008179624
3.4519769e-05
-6.0693618e-05
-0.0081743237
3.4407991e-05
-6.4983315e-05
-0.0081700417
3.4327321e-05
-6.9375098e-05
-0.0081660477
3.4267679e-05
-7.3912392e-05
-0.0081620202
3.4208332e-05
-7.8611441e-05
-0.0081578216
3.4115069e-05
-8.3443234e-05
-0.0081534872
3.393472e-05
-8.8318663e-05
-0.0081489312
3.359306e-05
-9.3066427e-05
-0.0081440845
3.2993648e-05
-9.741326e-05
-0.0081390347
3.2025303e-05
-0.0001009823
-0.0081339101
3.0580391e-05
-0.00010332597
-0.0081287889
2.858467e-05
-0.00010399322
-0.008124039
2.6033782e-05
-0.00010263065
-0.0081204541
2.3042657e-05
-9.9030627e-05
-0.0081194759
1.9778906e-05
-9.3256248e-05
-0.0081231608
1.6552372e-05
-8.5529843e-05
-0.0081327198
1.3557632e-05
-7.6195026e-05
-0.0081440547
1.0941805e-05
-6.565005e-05
-0.0081393118
8.7525378e-06
-5.4328243e-05
-0.0080773948
6.9769659e-06
-4.2702925e-05
-0.0078986439
5.5743771e-06
-3.1321115e-05
-0.0075677759
4.5890339e-06
-2.060923e-05
-0.0071417871
4.0222149e-06
-0.0067798827
3.5872174e-06
2.0108013e-05
-0.0067932335
3.3979178e-06