/*--------------------------------*- C++ -*----------------------------------*\
| =========                 |                                                 |
| \\      /  F ield         | OpenFOAM: The Open Source CFD Toolbox           |
|  \\    /   O peration     | Version:  v2012                                 |
|   \\  /    A nd           | Website:  www.openfoam.com                      |
|    \\/     M anipulation  |                                                 |
\*---------------------------------------------------------------------------*/
FoamFile
{
    version     2.0;
    format      ascii;
    class       volScalarField;
    location    "200";
    object      nut;
}
// * * * * * * * * * * * * * * * * * * * * * * * * * * * * * * * * * * * * * //

dimensions      [0 2 -1 0 0 0 0];


internalField   nonuniform List<scalar> 
120951
(
0.033509144
0.033509111
0.033530377
0.033530253
0.033530437
0.033530418
0.033530669
0.033530639
0.033530793
0.033530771
0.033530781
0.033530755
0.033530739
0.03353073
0.033530726
0.033530726
0.033530726
0.033530726
0.033530726
0.033530726
0.033530726
0.033530726
0.03353073
0.033530739
0.033530755
0.033530781
0.033530771
0.033530793
0.033530639
0.033530669
0.033530418
0.033530437
0.033530253
0.033530377
0.033530302
0.03353048
0.033530424
0.033530563
0.033530551
0.033530569
0.033530552
0.033530541
0.033530534
0.033530533
0.033530533
0.033530533
0.033530534
0.033530535
0.033530536
0.033530537
0.033530537
0.033530538
0.033530538
0.033530539
0.03353054
0.03353054
0.033530541
0.033530541
0.033530542
0.033530542
0.033530543
0.033530543
0.033530543
0.033530543
0.033530544
0.033530544
0.033530544
0.033530544
0.033530544
0.033530545
0.033530545
0.033530545
0.033530545
0.033530545
0.033530545
0.033530545
0.033530545
0.033530544
0.033530544
0.033530544
0.033530544
0.033530543
0.033530543
0.033530543
0.033530542
0.033530542
0.033530541
0.033530541
0.03353054
0.03353054
0.033530539
0.033530538
0.033530538
0.03353054
0.033530547
0.033530559
0.033530575
0.033530557
0.033530569
0.033530431
0.033530486
0.033530308
0.033530383
0.033530259
0.033530445
0.033530429
0.033530687
0.033530666
0.03353083
0.033530822
0.033530848
0.033530839
0.033530841
0.033530849
0.033530864
0.033530881
0.033530897
0.033530911
0.033530921
0.033530928
0.033530931
0.033530929
0.033530926
0.033530923
0.033530922
0.033530927
0.033530894
0.033530892
0.033530717
0.033530726
0.03353046
0.03353047
0.033530281
0.033530405
0.033530333
0.033530512
0.033530461
0.033530603
0.033530597
0.03353062
0.033530609
0.033530604
0.033530602
0.033530605
0.033530609
0.033530613
0.033530617
0.03353062
0.033530622
0.033530624
0.033530628
0.033530639
0.033530669
0.033530732
0.033530844
0.033531012
0.033531232
0.033531493
0.033531779
0.03353207
0.033532342
0.033532531
0.033532551
0.033532551
0.033532549
0.033532546
0.033532543
0.03353254
0.033532538
0.033532535
0.033532532
0.03353253
0.033532527
0.033532521
0.033532495
0.033532303
0.033532026
0.033531731
0.033531441
0.033531177
0.033530954
0.033530783
0.033530669
0.033530602
0.03353057
0.033530557
0.033530552
0.033530549
0.033530547
0.033530545
0.033530543
0.033530541
0.03353054
0.03353054
0.033530546
0.033530556
0.033530572
0.033530553
0.033530564
0.033530425
0.033530481
0.033530302
0.033509176
0.033509056
0.033509205
0.033509261
0.033509375
0.033509396
0.033509403
0.03350939
0.03350938
0.033509375
0.033509376
0.033509379
0.033509383
0.033509388
0.033509394
0.033509401
0.033509418
0.033509464
0.03350958
0.033509819
0.033510229
0.033510831
0.03351161
0.033512524
0.033513511
0.033514505
0.033515416
0.033516032
0.033516123
0.033516142
0.03351615
0.033516157
0.033516163
0.03351617
0.033516177
0.033516184
0.033516191
0.033516199
0.033516204
0.033516198
0.03351612
0.033515514
0.033514615
0.033513633
0.033512656
0.033511752
0.033510982
0.033510389
0.033509987
0.033509757
0.033509648
0.033509609
0.033509597
0.033509594
0.033509591
0.033509587
0.033509583
0.033509577
0.033509573
0.033509572
0.033509575
0.033509581
0.033509566
0.033509536
0.033509414
0.033509352
0.033509197
0.033509313
0.033509246
0.033509392
0.033487117
0.033463498
0.033439008
0.033414532
0.033390661
0.033368087
0.033347369
0.033329284
0.03331494
0.033306089
0.033305485
0.033317385
0.033346656
0.032445002
0.025498517
0.019732369
0.01500815
0.011322777
0.0082498547
0.031846101
0.031933296
0.032011325
0.032081515
0.032144655
0.032201432
0.032252495
0.032298383
0.03233967
0.032377059
0.032410946
0.032441728
0.032469876
0.03249561
0.032519228
0.032541023
0.032561229
0.03258006
0.032597745
0.03261451
0.032630596
0.032646251
0.032661708
0.032677181
0.03269286
0.032708901
0.032725422
0.032742508
0.032760205
0.032778533
0.032797486
0.032817041
0.032837166
0.032857818
0.032878954
0.03290053
0.032922505
0.032944839
0.032967498
0.03299045
0.03301367
0.033037134
0.033060821
0.033084717
0.033108806
0.033133078
0.033157523
0.033182133
0.033206904
0.033231831
0.033256915
0.03328216
0.033307577
0.033333185
0.033358999
0.033385001
0.033411085
0.033436999
0.033462291
0.033486479
0.033486463
0.033486158
0.033486347
0.03348634
0.033486506
0.033486538
0.033486563
0.033486555
0.033486544
0.033486537
0.033486537
0.033486541
0.033486548
0.033486555
0.033486564
0.033486578
0.033486609
0.033486694
0.033486903
0.033487331
0.033488058
0.033489122
0.033490495
0.033492099
0.033493826
0.033495553
0.0334971
0.033498113
0.033498298
0.033498339
0.033498355
0.033498367
0.033498379
0.033498391
0.033498403
0.033498416
0.033498429
0.033498441
0.033498449
0.033498432
0.033498268
0.033497272
0.033495746
0.033494042
0.033492335
0.033490749
0.033489395
0.03348835
0.033487641
0.033487232
0.033487039
0.03348697
0.033486954
0.033486953
0.033486955
0.033486955
0.033486955
0.033486955
0.033486957
0.033486964
0.033486972
0.033486977
0.033486946
0.033486908
0.033486737
0.033486739
0.033486546
0.033486848
0.033486862
0.033463169
0.033438763
0.033414315
0.033390521
0.033367974
0.033347267
0.033329152
0.03331473
0.033305724
0.033304847
0.033316306
0.033345034
0.032763553
0.025754629
0.019884766
0.015003719
0.011189992
0.0078141458
0.0088900046
0.010710783
0.013341394
0.016737572
0.020804533
0.025826271
0.031931381
0.033343921
0.033310914
0.0332948
0.03329181
0.033297828
0.033309962
0.033326293
0.033345571
0.033366974
0.033389938
0.033414009
0.033438705
0.033463407
0.033487358
0.033509861
0.033509991
0.033510151
0.0335102
0.033510232
0.033510238
0.033510242
0.033510244
0.033510241
0.03351023
0.033510211
0.033510184
0.033510151
0.033510114
0.033510077
0.033510046
0.033510023
0.033510009
0.033509981
0.033509946
0.033509806
0.033509697
0.033509445
0.033509424
0.033509225
0.033509286
0.033486814
0.033462793
0.033437578
0.033411882
0.033386074
0.033360528
0.033335333
0.033310556
0.033286205
0.033262296
0.033238852
0.033215906
0.033193494
0.033171654
0.033150423
0.033129835
0.033109914
0.033090681
0.033072139
0.033054283
0.033037089
0.033020516
0.033004507
0.032988989
0.032973873
0.032959058
0.032944434
0.032929885
0.032915297
0.03290056
0.03290185
0.032916461
0.032930927
0.03294536
0.032959875
0.03297459
0.032989613
0.033005046
0.033020979
0.033037485
0.033054622
0.033072429
0.033090929
0.033110129
0.033130022
0.033150589
0.033171802
0.033193626
0.033216023
0.033238953
0.033262377
0.033286262
0.033310581
0.033335318
0.033360458
0.033385954
0.033411677
0.033437354
0.033462511
0.03348663
0.03348678
0.03346255
0.033437298
0.033411603
0.033385911
0.033360466
0.033335378
0.033310682
0.033286396
0.033262539
0.03323914
0.033216235
0.033193866
0.033172074
0.033150902
0.033130385
0.033110555
0.033091432
0.033073025
0.033055329
0.033038324
0.033021969
0.033006207
0.032990965
0.032976152
0.032961666
0.032947395
0.032933223
0.03291903
0.032904702
0.032909464
0.032923312
0.032937042
0.032950772
0.032964626
0.032978723
0.032993176
0.033008092
0.03302356
0.033039655
0.033056435
0.033073937
0.03309218
0.033111167
0.033130886
0.033151312
0.033172411
0.033194142
0.033216461
0.033239321
0.033262678
0.033286491
0.033310728
0.033335367
0.033360392
0.033385772
0.033411413
0.033437082
0.033462351
0.033486641
0.033486985
0.033462658
0.033437314
0.033411578
0.033385892
0.03336049
0.033335461
0.033310832
0.033286615
0.033262831
0.033239514
0.033216705
0.033194453
0.033172807
0.033151817
0.033131528
0.033111978
0.033093196
0.0330752
0.033057991
0.033041551
0.033025846
0.033010819
0.032996395
0.032982481
0.032968968
0.032955738
0.032942668
0.03292963
0.032916502
0.032926217
0.032938348
0.032950424
0.032962577
0.03297494
0.032987643
0.033000809
0.033014552
0.033028966
0.033044131
0.033060099
0.033076905
0.033094562
0.033113061
0.033132381
0.033152487
0.033173332
0.033194865
0.033217032
0.033239777
0.033263048
0.033286799
0.033310991
0.033335602
0.033360615
0.033386003
0.033411675
0.033437398
0.033462732
0.03348706
0.033487278
0.033462964
0.033437628
0.033411904
0.033386236
0.033360856
0.033335856
0.033311264
0.033287098
0.033263387
0.033240172
0.033217505
0.033195445
0.033174054
0.033153395
0.033133527
0.033114506
0.033096374
0.033079164
0.033062889
0.033047542
0.033033094
0.03301949
0.033006652
0.032994481
0.032982858
0.032971649
0.032960717
0.032949919
0.03296495
0.03297408
0.032983419
0.032993121
0.033003338
0.033014214
0.033025874
0.033038424
0.033051944
0.033066486
0.033082075
0.03309871
0.033116368
0.033135006
0.033154568
0.033174988
0.033196194
0.033218114
0.033240675
0.033263811
0.033287461
0.033311578
0.033336129
0.033361092
0.033386435
0.033412067
0.033437754
0.033463058
0.033487339
0.033487403
0.03346315
0.033437875
0.033412221
0.033386626
0.033361324
0.033336408
0.03331191
0.033287857
0.033264288
0.033241257
0.033218834
0.033197095
0.033176126
0.033156012
0.033136841
0.033118693
0.033101641
0.033085743
0.033071035
0.033057529
0.033045207
0.033034018
0.033023882
0.033014685
0.03300629
0.03299854
0.032991265
0.032984294
0.033009173
0.033013351
0.033017951
0.033023168
0.033029197
0.033036214
0.033044375
0.033053799
0.033064574
0.033076745
0.033090321
0.033105275
0.033121553
0.033139076
0.033157752
0.033177478
0.033198148
0.033219657
0.033241906
0.033264804
0.033288272
0.033312247
0.033336681
0.033361545
0.0333868
0.033412354
0.033437973
0.033463214
0.033487438
0.033487482
0.033463283
0.033438072
0.033412488
0.033386974
0.033361766
0.03333696
0.033312598
0.033288716
0.03326537
0.033242634
0.033220601
0.033199378
0.033179085
0.033159849
0.033141801
0.033125072
0.033109784
0.033096042
0.033083927
0.033073486
0.033064723
0.033057597
0.033052018
0.033047849
0.033044911
0.033042996
0.033041874
0.03304131
0.033083047
0.033078956
0.03307556
0.033073155
0.033072032
0.03307245
0.033074629
0.033078729
0.033084852
0.033093033
0.033103248
0.033115422
0.033129438
0.033145151
0.033162401
0.033181019
0.03320084
0.033221705
0.033243471
0.033266008
0.033289207
0.033312979
0.033337258
0.033362
0.033387157
0.033412629
0.033438178
0.03346336
0.033487533
0.033487592
0.033463445
0.033438294
0.033412781
0.033387354
0.033362253
0.033337584
0.033313403
0.033289764
0.033266745
0.033244454
0.03322302
0.033202603
0.033183378
0.033165546
0.033149316
0.033134911
0.033122544
0.033112418
0.0331047
0.033099506
0.033096886
0.033096806
0.033099144
0.03310369
0.033110153
0.033118181
0.033127387
0.033137377
0.033190461
0.03317402
0.033158827
0.033145431
0.033134342
0.03312599
0.033120686
0.033118612
0.033119813
0.033124212
0.033131634
0.033141839
0.033154545
0.033169459
0.033186287
0.033204753
0.033224606
0.033245622
0.033267608
0.033290404
0.033313881
0.033337944
0.033362526
0.033387562
0.033412939
0.033438413
0.033463531
0.033487652
0.033487707
0.033463613
0.033438528
0.033413098
0.033387776
0.033362816
0.033338339
0.03331442
0.033291143
0.033268625
0.033247022
0.033226532
0.033207397
0.033189899
0.033174365
0.033161162
0.033150685
0.033143343
0.033139532
0.033139597
0.033143782
0.033152178
0.033164666
0.033180917
0.033200403
0.033222436
0.033246244
0.033271065
0.033336049
0.033303165
0.033271424
0.033241923
0.033215792
0.033193978
0.033177164
0.033165712
0.033159606
0.033158547
0.03316206
0.033169586
0.033180549
0.033194405
0.033210659
0.033228882
0.033248706
0.033269828
0.033292
0.03331503
0.033338772
0.033363123
0.033387994
0.03341325
0.033438634
0.033463686
0.033487754
0.03348779
0.033463746
0.033438729
0.033413396
0.033388212
0.033363448
0.033339249
0.033315723
0.033292999
0.033271257
0.033250738
0.033231753
0.033214693
0.03320004
0.033188369
0.033180358
0.033176769
0.033178412
0.033186056
0.033200291
0.033221327
0.03324883
0.033281685
0.033318489
0.033357705
0.033397707
0.033437297
0.033167186
0.033447314
0.033403663
0.033359744
0.03331731
0.0332783
0.033245654
0.033220862
0.03320442
0.033195841
0.033194163
0.033198269
0.033207087
0.033219678
0.033235257
0.033253185
0.033272953
0.033294163
0.033316513
0.033339777
0.033363794
0.033388434
0.033413532
0.03343881
0.033463792
0.033487814
0.033487828
0.033463825
0.033438879
0.033413662
0.033388659
0.033364165
0.033340363
0.033317413
0.033295518
0.033274958
0.03325612
0.033239515
0.033225813
0.033215874
0.03321078
0.033211839
0.03322053
0.033238266
0.033265873
0.03330271
0.033345784
0.033391705
0.031581882
0.030227268
0.029379691
0.028975339
0.025086513
0.025274947
0.025884477
0.026987699
0.028678121
0.031012548
0.033366302
0.033320704
0.033281219
0.033252158
0.033234341
0.033226508
0.033226764
0.033233306
0.033244643
0.033259606
0.033277307
0.033297079
0.033318432
0.033341011
0.033364561
0.033388888
0.033413785
0.033438938
0.033463848
0.033487834
0.033487831
0.033463858
0.033438982
0.033413896
0.033389116
0.033364976
0.033341713
0.033319567
0.033298852
0.033280018
0.033263693
0.033250745
0.033242359
0.033240125
0.033246087
0.033262596
0.033291493
0.033331932
0.032614379
0.029105617
0.026304766
0.024195915
0.022756755
0.021910858
0.021549764
0.018173646
0.018311075
0.018928383
0.020142434
0.022016692
0.024563696
0.027854692
0.031930184
0.033336933
0.033297007
0.033270045
0.033256283
0.033253132
0.033257888
0.033268402
0.033283093
0.033300827
0.033320803
0.033342457
0.033365397
0.033389331
0.033413986
0.033439004
0.03346385
0.033487818
0.033487761
0.033463794
0.033438978
0.033414033
0.033389513
0.033365805
0.033343224
0.033322121
0.033302981
0.033286505
0.033273715
0.033266081
0.033265693
0.033275392
0.033298472
0.0333363
0.032100934
0.027401551
0.023563037
0.020510356
0.018123282
0.016416117
0.015460706
0.015067383
0.013029965
0.014548353
0.016834256
0.019743568
0.023335622
0.027807217
0.03323843
0.033330316
0.033297258
0.033279918
0.03327522
0.03327955
0.033290197
0.033305274
0.033323499
0.033344004
0.033366199
0.033389668
0.03341405
0.033438925
0.033463718
0.033487692
0.033487456
0.033463488
0.03343875
0.033413977
0.033389762
0.033366559
0.033344774
0.033324899
0.033307638
0.033294044
0.033285707
0.033284998
0.033295337
0.033320796
0.033362058
0.029217565
0.024008271
0.019777756
0.016365671
0.013455661
0.011341009
0.018136561
0.021540484
0.025287186
0.029410278
0.03344564
0.033356137
0.033270142
0.033199417
0.033144689
0.033103132
0.033071608
0.033047522
0.033028942
0.033014486
0.033003187
0.032994371
0.032987563
0.032982413
0.032978654
0.032976081
0.032974524
0.032973814
0.032973654
0.032973318
0.032972744
0.032971925
0.032970905
0.032969735
0.032968441
0.03296703
0.0329655
0.032963851
0.032962094
0.032960241
0.032958309
0.032956314
0.032954269
0.032952188
0.032950083
0.032947964
0.032945842
0.032943725
0.032941622
0.032939541
0.032937488
0.032935471
0.032933492
0.032931559
0.032929673
0.032927839
0.032926059
0.032924334
0.032922666
0.032921055
0.032919503
0.03291801
0.032916574
0.032915196
0.032913875
0.032912611
0.032911402
0.032910248
0.032909148
0.032908102
0.032907109
0.032906168
0.032905279
0.032904443
0.032903658
0.032902926
0.032902244
0.032901615
0.032901036
0.032900507
0.032900029
0.032899599
0.032899216
0.032898876
0.032898577
0.032898312
0.032898076
0.032897865
0.032897679
0.032897526
0.032897414
0.032897346
0.032897307
0.032897258
0.032897169
0.032897045
0.032896932
0.032896868
0.032919749
0.032942794
0.032966005
0.032989379
0.033012915
0.033036613
0.033060469
0.033084483
0.033108653
0.033132977
0.033157453
0.033182081
0.033206862
0.033231796
0.033256887
0.033282143
0.03330758
0.033333216
0.033359076
0.033385125
0.033411297
0.033437245
0.033462621
0.033486736
0.033509257
0.033509111
0.033486479
0.033462293
0.033437003
0.033411093
0.033385014
0.033359018
0.033333211
0.033307612
0.033282203
0.033256966
0.033231886
0.033206959
0.033182181
0.033157553
0.033133075
0.033108748
0.033084575
0.033060557
0.033036696
0.033012995
0.032989455
0.032966077
0.032942864
0.032919815
0.032919931
0.032920053
0.032920135
0.032920169
0.032920192
0.032920243
0.032920335
0.032920466
0.032920624
0.032920801
0.032920998
0.032921217
0.032921465
0.032921747
0.032922066
0.032922426
0.032922827
0.032923271
0.032923759
0.032924291
0.032924868
0.03292549
0.032926159
0.032926874
0.032927637
0.032928446
0.032929304
0.03293021
0.032931165
0.03293217
0.032933227
0.032934334
0.032935495
0.032936708
0.032937976
0.032939298
0.032940674
0.032942106
0.032943592
0.032945133
0.032946726
0.032948371
0.032950066
0.032951808
0.032953594
0.032955419
0.03295728
0.032959171
0.032961086
0.032963017
0.032964958
0.0329669
0.032968834
0.03297075
0.032972637
0.032974483
0.032976274
0.032977995
0.03297963
0.032981165
0.032982592
0.03298391
0.032985121
0.032986221
0.032987183
0.032987957
0.032988494
0.032988801
0.03298894
0.03300447
0.033004353
0.033004079
0.033003582
0.03300286
0.033001962
0.03300094
0.032999821
0.032998607
0.032997292
0.032995879
0.032994376
0.032992797
0.032991156
0.032989468
0.032987746
0.032986002
0.032984245
0.032982485
0.032980729
0.032978985
0.03297726
0.03297556
0.03297389
0.032972256
0.03297066
0.032969107
0.032967598
0.032966137
0.032964725
0.032963362
0.03296205
0.032960788
0.032959578
0.032958418
0.032957309
0.032956249
0.032955239
0.032954276
0.032953361
0.032952492
0.032951668
0.032950889
0.032950154
0.032949462
0.032948813
0.032948205
0.032947638
0.032947112
0.032946626
0.032946179
0.03294577
0.032945398
0.032945064
0.032944765
0.0329445
0.032944267
0.032944062
0.032943881
0.032943718
0.032943569
0.032943435
0.032943323
0.032943246
0.032943209
0.032943201
0.032943179
0.032943105
0.032942983
0.032966201
0.032966323
0.03296639
0.0329664
0.032966396
0.032966421
0.032966486
0.032966583
0.032966698
0.032966822
0.032966957
0.032967106
0.032967274
0.032967465
0.032967684
0.032967932
0.032968211
0.03296852
0.032968861
0.032969235
0.032969643
0.032970085
0.032970562
0.032971075
0.032971625
0.032972213
0.032972838
0.032973503
0.032974208
0.032974953
0.03297574
0.03297657
0.032977443
0.032978361
0.032979324
0.032980332
0.032981387
0.032982488
0.032983636
0.03298483
0.03298607
0.032987356
0.032988685
0.032990057
0.032991468
0.032992917
0.0329944
0.032995912
0.03299745
0.032999007
0.033000579
0.033002157
0.033003735
0.033005305
0.033006858
0.033008383
0.033009869
0.033011302
0.033012667
0.033013952
0.033015147
0.033016252
0.033017273
0.033018209
0.033019038
0.033019706
0.033020159
0.033020398
0.033020491
0.033037076
0.03303701
0.033036807
0.033036399
0.033035787
0.033035031
0.033034183
0.033033265
0.033032272
0.033031199
0.033030046
0.03302882
0.033027536
0.033026206
0.033024843
0.033023459
0.033022062
0.03302066
0.033019261
0.03301787
0.033016494
0.033015138
0.033013807
0.033012503
0.033011232
0.033009996
0.033008797
0.033007636
0.033006516
0.033005438
0.033004401
0.033003406
0.033002453
0.033001542
0.033000673
0.032999845
0.032999057
0.032998309
0.032997599
0.032996927
0.032996293
0.032995694
0.032995131
0.032994602
0.032994107
0.032993644
0.032993213
0.032992813
0.032992444
0.032992104
0.032991792
0.032991509
0.032991252
0.032991022
0.032990817
0.032990637
0.032990479
0.032990342
0.03299022
0.03299011
0.032990005
0.032989906
0.032989822
0.032989766
0.03298975
0.032989764
0.032989766
0.032989705
0.032989583
0.033013128
0.033013251
0.033013304
0.033013293
0.03301327
0.033013279
0.033013327
0.033013402
0.033013487
0.033013575
0.033013666
0.033013765
0.033013877
0.033014005
0.033014153
0.033014322
0.033014512
0.033014724
0.033014959
0.033015217
0.0330155
0.033015807
0.03301614
0.033016499
0.033016886
0.033017301
0.033017745
0.033018219
0.033018724
0.03301926
0.033019829
0.033020431
0.033021067
0.033021738
0.033022444
0.033023187
0.033023967
0.033024783
0.033025638
0.03302653
0.03302746
0.033028426
0.033029429
0.033030467
0.033031539
0.033032643
0.033033777
0.033034937
0.03303612
0.033037323
0.03303854
0.033039767
0.033040998
0.033042227
0.033043447
0.033044649
0.033045826
0.033046964
0.03304805
0.033049073
0.033050024
0.033050903
0.033051719
0.033052477
0.033053159
0.033053713
0.033054076
0.033054243
0.033054284
0.033072154
0.033072138
0.033072007
0.033071687
0.033071189
0.033070579
0.03306991
0.033069196
0.033068429
0.033067597
0.033066701
0.033065749
0.033064753
0.033063725
0.033062676
0.033061613
0.033060545
0.033059476
0.033058412
0.033057359
0.033056319
0.033055298
0.033054298
0.033053322
0.033052373
0.033051453
0.033050563
0.033049705
0.033048879
0.033048086
0.033047325
0.033046598
0.033045904
0.033045243
0.033044613
0.033044016
0.033043449
0.033042913
0.033042407
0.033041929
0.033041479
0.033041057
0.033040661
0.03304029
0.033039945
0.033039623
0.033039325
0.033039049
0.033038795
0.033038562
0.033038349
0.033038155
0.03303798
0.033037824
0.033037685
0.033037564
0.033037459
0.033037368
0.033037289
0.033037214
0.033037141
0.033037066
0.033036999
0.033036956
0.033036952
0.033036982
0.033037004
0.033036957
0.033036834
0.0330607
0.033060823
0.033060861
0.03306083
0.033060793
0.033060794
0.033060834
0.033060895
0.03306096
0.033061022
0.033061083
0.033061147
0.03306122
0.033061305
0.033061404
0.033061518
0.033061646
0.03306179
0.033061949
0.033062124
0.033062316
0.033062526
0.033062753
0.033062999
0.033063265
0.03306355
0.033063857
0.033064186
0.033064537
0.033064911
0.033065309
0.033065732
0.03306618
0.033066654
0.033067155
0.033067684
0.03306824
0.033068824
0.033069437
0.033070079
0.03307075
0.033071449
0.033072176
0.033072931
0.033073713
0.03307452
0.033075351
0.033076203
0.033077075
0.033077964
0.033078866
0.033079777
0.033080694
0.033081613
0.033082527
0.033083432
0.03308432
0.033085181
0.033086005
0.03308678
0.033087497
0.033088158
0.033088774
0.033089357
0.033089896
0.033090341
0.033090619
0.033090718
0.033090708
0.033109954
0.033109987
0.03310992
0.033109678
0.033109283
0.033108811
0.033108311
0.033107788
0.033107227
0.033106617
0.033105955
0.033105251
0.033104515
0.033103758
0.033102987
0.033102209
0.03310143
0.033100652
0.03309988
0.033099117
0.033098366
0.03309763
0.033096911
0.033096211
0.033095532
0.033094875
0.033094241
0.033093631
0.033093045
0.033092484
0.033091947
0.033091435
0.033090948
0.033090485
0.033090045
0.033089629
0.033089235
0.033088864
0.033088514
0.033088184
0.033087876
0.033087586
0.033087315
0.033087063
0.033086828
0.03308661
0.033086408
0.033086222
0.033086051
0.033085893
0.03308575
0.03308562
0.033085502
0.033085397
0.033085304
0.033085223
0.033085153
0.033085095
0.033085043
0.033084995
0.033084943
0.033084886
0.033084829
0.033084791
0.033084791
0.033084833
0.033084874
0.033084844
0.033084722
0.0331089
0.033109018
0.033109039
0.033108989
0.033108943
0.033108942
0.03310898
0.033109033
0.033109084
0.033109127
0.033109166
0.033109207
0.033109254
0.03310931
0.033109376
0.033109452
0.033109538
0.033109634
0.033109741
0.033109858
0.033109986
0.033110126
0.033110278
0.033110442
0.03311062
0.033110812
0.033111018
0.033111239
0.033111476
0.033111729
0.033111999
0.033112286
0.033112591
0.033112915
0.033113258
0.03311362
0.033114002
0.033114405
0.033114828
0.033115272
0.033115737
0.033116222
0.033116729
0.033117255
0.033117801
0.033118366
0.033118949
0.033119549
0.033120163
0.03312079
0.033121428
0.033122074
0.033122726
0.03312338
0.033124033
0.033124681
0.033125319
0.03312594
0.033126535
0.033127092
0.033127605
0.033128073
0.033128509
0.033128932
0.033129341
0.033129691
0.0331299
0.033129941
0.033129886
0.033150485
0.033150559
0.03315054
0.033150358
0.033150049
0.033149698
0.033149347
0.033148989
0.033148606
0.033148182
0.033147718
0.033147222
0.033146705
0.033146174
0.033145636
0.033145095
0.033144553
0.033144014
0.033143481
0.033142954
0.033142437
0.03314193
0.033141437
0.033140957
0.033140492
0.033140043
0.033139611
0.033139196
0.033138797
0.033138417
0.033138053
0.033137707
0.033137378
0.033137066
0.03313677
0.033136491
0.033136227
0.033135979
0.033135745
0.033135526
0.033135321
0.033135128
0.033134949
0.033134782
0.033134626
0.033134482
0.033134349
0.033134226
0.033134112
0.033134008
0.033133913
0.033133826
0.033133747
0.033133677
0.033133615
0.033133561
0.033133515
0.033133478
0.033133446
0.033133415
0.03313338
0.033133335
0.033133285
0.033133247
0.033133246
0.033133293
0.033133353
0.033133343
0.033133229
0.033157708
0.033157815
0.033157813
0.033157745
0.033157697
0.0331577
0.033157739
0.033157787
0.033157827
0.033157856
0.03315788
0.033157904
0.033157934
0.033157971
0.033158015
0.033158066
0.033158123
0.033158187
0.033158258
0.033158335
0.03315842
0.033158511
0.033158611
0.033158718
0.033158834
0.033158959
0.033159094
0.033159238
0.033159392
0.033159558
0.033159734
0.033159922
0.033160123
0.033160335
0.033160561
0.033160799
0.033161051
0.033161317
0.033161597
0.033161891
0.033162199
0.033162522
0.033162859
0.03316321
0.033163574
0.033163951
0.033164341
0.033164743
0.033165155
0.033165576
0.033166005
0.03316644
0.033166879
0.033167321
0.033167764
0.033168204
0.03316864
0.033169066
0.033169474
0.033169855
0.0331702
0.033170509
0.033170794
0.033171081
0.033171379
0.033171652
0.033171811
0.033171814
0.033171724
0.03319357
0.033193671
0.033193679
0.033193537
0.033193294
0.033193045
0.033192817
0.033192594
0.033192351
0.033192074
0.033191766
0.033191435
0.033191089
0.033190737
0.033190381
0.033190025
0.033189669
0.033189316
0.033188967
0.033188622
0.033188284
0.033187954
0.033187632
0.03318732
0.033187017
0.033186725
0.033186445
0.033186175
0.033185917
0.033185671
0.033185436
0.033185212
0.033185
0.033184798
0.033184608
0.033184428
0.033184259
0.033184099
0.033183949
0.033183809
0.033183677
0.033183554
0.033183439
0.033183331
0.033183232
0.033183139
0.033183053
0.033182973
0.0331829
0.033182832
0.033182769
0.033182712
0.03318266
0.033182613
0.033182571
0.033182535
0.033182505
0.033182482
0.033182463
0.033182445
0.033182422
0.033182387
0.033182342
0.033182301
0.033182294
0.03318234
0.033182416
0.033182432
0.033182336
0.033207109
0.033207191
0.03320716
0.033207077
0.033207034
0.033207046
0.033207089
0.033207132
0.033207162
0.03320718
0.033207192
0.033207206
0.033207225
0.033207249
0.033207278
0.033207313
0.033207351
0.033207394
0.03320744
0.033207491
0.033207545
0.033207604
0.033207667
0.033207736
0.033207809
0.033207888
0.033207973
0.033208064
0.033208161
0.033208265
0.033208376
0.033208494
0.03320862
0.033208753
0.033208895
0.033209045
0.033209203
0.03320937
0.033209547
0.033209732
0.033209926
0.03321013
0.033210342
0.033210564
0.033210794
0.033211032
0.033211279
0.033211533
0.033211794
0.033212061
0.033212333
0.033212609
0.033212889
0.03321317
0.033213453
0.033213735
0.033214015
0.033214291
0.033214557
0.033214803
0.033215022
0.033215208
0.033215376
0.033215551
0.033215756
0.033215972
0.033216104
0.033216092
0.033215984
0.033238928
0.033239036
0.033239044
0.033238918
0.033238725
0.033238561
0.033238432
0.033238311
0.033238172
0.033238003
0.033237809
0.033237599
0.033237382
0.033237162
0.033236942
0.033236722
0.033236504
0.033236287
0.033236072
0.033235861
0.033235654
0.033235452
0.033235254
0.033235063
0.033234878
0.033234699
0.033234528
0.033234363
0.033234205
0.033234054
0.03323391
0.033233774
0.033233644
0.033233521
0.033233404
0.033233294
0.033233191
0.033233093
0.033233001
0.033232915
0.033232834
0.033232758
0.033232687
0.033232621
0.033232559
0.033232501
0.033232447
0.033232397
0.03323235
0.033232307
0.033232266
0.033232229
0.033232194
0.033232162
0.033232134
0.03323211
0.03323209
0.033232076
0.033232066
0.033232058
0.033232045
0.03323202
0.033231979
0.033231935
0.033231916
0.033231954
0.033232043
0.033232089
0.033232027
0.033257092
0.033257126
0.033257064
0.03325697
0.033256941
0.033256966
0.033257012
0.033257049
0.03325707
0.033257078
0.033257083
0.033257089
0.0332571
0.033257116
0.033257136
0.03325716
0.033257185
0.033257214
0.033257244
0.033257276
0.033257311
0.033257348
0.033257388
0.03325743
0.033257475
0.033257523
0.033257574
0.033257629
0.033257687
0.03325775
0.033257816
0.033257886
0.033257961
0.03325804
0.033258124
0.033258213
0.033258307
0.033258406
0.03325851
0.03325862
0.033258734
0.033258855
0.03325898
0.033259111
0.033259247
0.033259388
0.033259533
0.033259683
0.033259837
0.033259995
0.033260155
0.033260318
0.033260483
0.033260649
0.033260816
0.033260985
0.033261153
0.033261321
0.033261484
0.033261635
0.033261764
0.033261865
0.033261946
0.033262034
0.033262161
0.033262335
0.033262458
0.033262465
0.033262363
0.033286256
0.033286342
0.03328631
0.033286186
0.03328603
0.033285938
0.033285884
0.033285836
0.033285765
0.033285669
0.033285553
0.033285428
0.0332853
0.033285174
0.033285048
0.033284924
0.0332848
0.033284678
0.033284558
0.033284439
0.033284322
0.033284208
0.033284096
0.033283988
0.033283883
0.033283782
0.033283685
0.033283591
0.033283502
0.033283416
0.033283335
0.033283257
0.033283183
0.033283113
0.033283046
0.033282983
0.033282924
0.033282867
0.033282814
0.033282764
0.033282717
0.033282673
0.033282631
0.033282592
0.033282555
0.033282521
0.033282488
0.033282457
0.033282428
0.0332824
0.033282374
0.03328235
0.033282327
0.033282306
0.033282287
0.03328227
0.033282257
0.033282249
0.033282245
0.033282244
0.03328224
0.033282224
0.03328219
0.033282144
0.033282112
0.03328213
0.033282226
0.033282305
0.033282307
0.033307684
0.033307633
0.033307541
0.033307444
0.03330744
0.033307477
0.033307523
0.033307553
0.033307563
0.033307563
0.033307561
0.033307563
0.033307569
0.03330758
0.033307594
0.03330761
0.033307627
0.033307646
0.033307665
0.033307686
0.033307707
0.03330773
0.033307754
0.033307779
0.033307806
0.033307833
0.033307863
0.033307894
0.033307927
0.033307962
0.033307999