/*--------------------------------*- C++ -*----------------------------------*\
| =========                 |                                                 |
| \\      /  F ield         | OpenFOAM: The Open Source CFD Toolbox           |
|  \\    /   O peration     | Version:  v2012                                 |
|   \\  /    A nd           | Website:  www.openfoam.com                      |
|    \\/     M anipulation  |                                                 |
\*---------------------------------------------------------------------------*/
FoamFile
{
    version     2.0;
    format      ascii;
    class       volScalarField;
    location    "200";
    object      omega;
}
// * * * * * * * * * * * * * * * * * * * * * * * * * * * * * * * * * * * * * //

dimensions      [0 0 -1 0 0 0 0];


internalField   nonuniform List<scalar> 
120951
(
11.115511
11.115291
11.150876
11.150364
11.150963
11.1507
11.151515
11.151178
11.151591
11.151432
11.151495
11.15144
11.151428
11.151419
11.15142
11.151421
11.151422
11.151423
11.151423
11.151422
11.151421
11.151419
11.151419
11.151428
11.15144
11.151495
11.151432
11.151591
11.151178
11.151516
11.1507
11.150963
11.150364
11.150876
11.150558
11.151277
11.150928
11.151313
11.151173
11.151236
11.151191
11.151181
11.151173
11.151173
11.151174
11.151175
11.151176
11.151177
11.151177
11.151178
11.151178
11.151178
11.151179
11.151179
11.151179
11.151179
11.15118
11.15118
11.15118
11.15118
11.151181
11.151181
11.151181
11.151181
11.151181
11.151181
11.151181
11.151181
11.151181
11.151181
11.151181
11.151181
11.151181
11.151181
11.151181
11.151181
11.151181
11.151181
11.151181
11.151181
11.151181
11.15118
11.15118
11.15118
11.15118
11.151179
11.151179
11.151179
11.151178
11.151178
11.151177
11.151176
11.151175
11.151174
11.151182
11.151193
11.151238
11.151175
11.151314
11.150929
11.151279
11.15056
11.150878
11.150366
11.150965
11.150704
11.151523
11.15119
11.151608
11.151456
11.151526
11.15148
11.151477
11.151476
11.151486
11.151495
11.151504
11.151512
11.151517
11.151519
11.151519
11.151517
11.151512
11.151516
11.151518
11.151563
11.151488
11.151634
11.151209
11.151536
11.150713
11.15097
11.150369
11.150881
11.150565
11.151285
11.150937
11.151325
11.151189
11.151255
11.151213
11.151205
11.151201
11.151204
11.151207
11.15121
11.151213
11.151215
11.151216
11.151217
11.151218
11.151217
11.151214
11.151206
11.151193
11.151171
11.15114
11.151102
11.151059
11.151013
11.15097
11.150939
11.150933
11.150931
11.15093
11.150929
11.150928
11.150927
11.150926
11.150925
11.150925
11.150924
11.150923
11.150922
11.150926
11.150955
11.150996
11.15104
11.151081
11.151117
11.151145
11.151165
11.151178
11.151184
11.151186
11.151186
11.151185
11.151184
11.151183
11.151182
11.15118
11.151178
11.151177
11.151176
11.151183
11.151193
11.151238
11.151174
11.151313
11.150928
11.151277
11.150559
11.115136
11.115725
11.115502
11.115883
11.115819
11.115888
11.115852
11.115836
11.115824
11.115822
11.115823
11.115826
11.115828
11.11583
11.115832
11.115834
11.115834
11.115826
11.115799
11.115739
11.115633
11.115474
11.115264
11.115017
11.114748
11.114475
11.114222
11.114051
11.114031
11.114029
11.114031
11.114033
11.114035
11.114037
11.11404
11.114042
11.114045
11.114047
11.11405
11.114056
11.114081
11.114258
11.114515
11.114793
11.115067
11.11532
11.115533
11.115697
11.115807
11.11587
11.1159
11.11591
11.115912
11.115911
11.115909
11.115906
11.115902
11.115897
11.115893
11.115891
11.115898
11.11591
11.115941
11.115866
11.115926
11.11554
11.11576
11.115169
11.115322
11.114744
11.077582
11.037223
10.995823
10.953232
10.910972
10.869264
10.828564
10.789111
10.751268
10.715615
10.683121
10.655439
10.635243
10.626847
10.638255
10.684264
10.791283
11.011343
11.445895
9.0496889
9.0771433
9.1049059
9.1329572
9.1612794
9.1898544
9.218662
9.247681
9.2768862
9.306252
9.3357483
9.3653452
9.3950112
9.4247181
9.454441
9.4841622
9.5138743
9.5435825
9.5733061
9.6030786
9.6329476
9.6629691
9.6932051
9.7237183
9.7545648
9.785793
9.8174402
9.8495326
9.8820854
9.9151039
9.9485864
9.9825249
10.016908
10.051722
10.086952
10.122584
10.158605
10.195003
10.231765
10.268885
10.306352
10.344162
10.38231
10.420791
10.459603
10.498744
10.538213
10.57801
10.618136
10.658594
10.69939
10.740536
10.782055
10.823978
10.866333
10.909102
10.952107
10.995009
11.037001
11.077411
11.077179
11.077498
11.077389
11.077684
11.077693
11.077753
11.07773
11.07771
11.077696
11.077691
11.077691
11.077693
11.077697
11.0777
11.077703
11.077705
11.077703
11.077685
11.077631
11.077514
11.077308
11.077001
11.076602
11.076132
11.075623
11.075111
11.074652
11.07435
11.074303
11.074298
11.0743
11.074304
11.074307
11.074311
11.074315
11.074319
11.074323
11.074328
11.074333
11.074347
11.074402
11.074714
11.075182
11.075701
11.076218
11.076697
11.077105
11.077419
11.077632
11.077757
11.077816
11.077838
11.077844
11.077846
11.077844
11.077842
11.077839
11.077835
11.077832
11.077834
11.077844
11.077859
11.077876
11.07781
11.077796
11.077496
11.077601
11.07728
11.07751
11.037246
10.995522
10.953072
10.910786
10.869117
10.828411
10.788938
10.75106
10.715352
10.682762
10.654922
10.634401
10.625437
10.635911
10.680692
10.789278
11.020697
11.546716
11.674295
11.201594
10.900888
10.733338
10.646709
10.607122
10.596253
10.603198
10.621451
10.647353
10.678341
10.712744
10.749537
10.788071
10.827936
10.868874
10.910686
10.953119
10.995723
11.037747
11.078176
11.116061
11.116506
11.116446
11.116532
11.116502
11.116496
11.116491
11.116494
11.116495
11.116493
11.116486
11.116474
11.116459
11.116441
11.116423
11.116408
11.116406
11.116411
11.116446
11.116368
11.116439
11.116006
11.116173
11.115411
11.115441
11.114722
11.07751
11.037043
10.995446
10.95251
10.909692
10.867103
10.825045
10.783513
10.742491
10.701954
10.661898
10.622329
10.583255
10.544691
10.506648
10.469137
10.432166
10.39574
10.359858
10.324514
10.289697
10.255387
10.221559
10.188182
10.155217
10.122622
10.090351
10.058356
10.026588
9.9950022
9.9954727
10.027008
10.058726
10.090675
10.122904
10.155458
10.188385
10.221728
10.255524
10.289805
10.324597
10.359919
10.395782
10.432192
10.469148
10.506647
10.544679
10.583233
10.622298
10.661861
10.701912
10.742449
10.783478
10.825017
10.867079
10.909632
10.952489
10.995292
11.037229
11.077593
11.077546
11.037154
10.995095
10.952293
10.909444
10.866929
10.8249
10.783386
10.742375
10.701854
10.661817
10.622269
10.58322
10.544684
10.506672
10.469198
10.432269
10.395892
10.360068
10.324792
10.290051
10.255829
10.2221
10.18883
10.155982
10.123514
10.091377
10.059524
10.027907
9.9964768
9.9981323
10.029395
10.06085
10.092545
10.124533
10.156862
10.189581
10.222732
10.256356
10.290485
10.325144
10.36035
10.396116
10.432444
10.469332
10.506775
10.544761
10.583277
10.62231
10.661846
10.701872
10.742384
10.783385
10.824891
10.866918
10.909448
10.952347
10.99525
11.037475
11.078075
11.078061
11.037526
10.995322
10.952425
10.909531
10.867009
10.824991
10.783493
10.742498
10.701993
10.661974
10.622449
10.583432
10.544938
10.506982
10.469581
10.432746
10.396484
10.360801
10.325694
10.291152
10.257158
10.223687
10.190706
10.158175
10.126049
10.094278
10.062809
10.031592
10.000573
10.003925
10.034609
10.065502
10.096659
10.128134
10.159982
10.192256
10.225002
10.258263
10.292072
10.326454
10.361427
10.396997
10.433167
10.469931
10.507277
10.545191
10.583655
10.622652
10.662164
10.702175
10.742676
10.783667
10.825163
10.867183
10.909712
10.952624
10.995555
11.037812
11.078417
11.078429
11.037863
10.995625
10.952708
10.909811
10.867297
10.825293
10.78381
10.74283
10.702343
10.662349
10.622861
10.583896
10.545475
10.507619
10.47035
10.433684
10.397636
10.362216
10.327424
10.293254
10.259691
10.226709
10.194274
10.162343
10.130865
10.099783
10.069039
10.038575
10.043651
10.073561
10.10377
10.134343
10.165342
10.19683
10.228861
10.26148
10.294724
10.328618
10.363175
10.3984
10.434288
10.470826
10.507995
10.545772
10.584135
10.623056
10.662511
10.70248
10.742948
10.78391
10.825378
10.867368
10.909869
10.952757
10.995674
11.037919
11.078496
11.07848
11.037913
10.995675
10.952768
10.909892
10.867406
10.825433
10.783983
10.74304
10.702597
10.662659
10.623246
10.584381
10.546094
10.508416
10.471375
10.435001
10.399317
10.364341
10.330084
10.296544
10.263709
10.231554
10.200041
10.169121
10.138734
10.108814
10.079288
10.050086
10.058247
10.086549
10.115204
10.144293
10.173895
10.204088
10.234938
10.266499
10.298811
10.331901
10.365777
10.400437
10.435863
10.472032
10.508911
10.546467
10.58466
10.623455
10.662818
10.702717
10.743133
10.784054
10.825486
10.867444
10.909916
10.952781
10.99568
11.037913
11.078477
11.078483
11.037926
10.9957
10.952809
10.909955
10.867496
10.825553
10.78414
10.743243
10.70286
10.663005
10.623705
10.584995
10.546917
10.509516
10.472838
10.436928
10.401827
10.36757
10.33418
10.301667
10.270025
10.239228
10.209233
10.179976
10.151383
10.123364
10.095826
10.068673
10.082128
10.107799
10.133893
10.160524
10.187805
10.215842
10.244726
10.27453
10.305302
10.337069
10.369833
10.403575
10.438261
10.473842
10.510266
10.547473
10.585406
10.62401
10.663233
10.703033
10.743377
10.784246
10.825639
10.867565
10.910012
10.952855
10.995735
11.037953
11.078504
11.07853
11.037988
10.995779
10.95291
10.910079
10.867648
10.82574
10.784372
10.743537
10.703242
10.663511
10.624384
10.585914
10.548164
10.511202
10.475104
10.439943
10.405794
10.37272
10.340773
10.309982
10.280353
10.251859
10.224441
10.198014
10.172462
10.147655
10.123451
10.099709
10.144202
10.165904
10.188282
10.21152
10.235789
10.261238
10.287978
10.316079
10.345571
10.376439
10.408635
10.442085
10.476699
10.512378
10.549024
10.58654
10.62484
10.663844
10.703488
10.743722
10.784514
10.825851
10.867737
10.910151
10.952968
10.995826
11.038024
11.078556
11.07858
11.038057
10.99587
10.953024
10.910223
10.867829
10.82597
10.784671
10.743934
10.703778
10.664245
10.625397
10.587317
10.550101
10.513864
10.47873
10.444833
10.412308
10.381282
10.351865
10.32413
10.298108
10.273762
10.250998
10.229665
10.209561
10.190451
10.172095
10.223973
10.238638
10.254444
10.271714
10.290748
10.311768
10.334911
10.360225
10.387662
10.417103
10.44839
10.481336
10.515753
10.551458
10.588283
10.626082
10.664729
10.704121
10.744178
10.784846
10.826097
10.867922
10.910292
10.953076
10.995908
11.038085
11.078599
11.078612
11.038106
10.995939
10.953121
10.910357
10.868015
10.826231
10.78504
10.74446
10.704529
10.665319
10.62693
10.589494
10.553175
10.518168
10.484701
10.453029
10.423424
10.396158
10.371475
10.349559
10.330493
10.314151
10.300287
10.288571
10.278616
10.270058
10.334251
10.33576
10.339666
10.346389
10.356319
10.369718
10.386816
10.407594
10.431824
10.459118
10.489066
10.521266
10.555353
10.591013
10.627981
10.66604
10.70502
10.744791
10.785262
10.826378
10.868111
10.910419
10.95316
10.995963
11.038119
11.078619
11.078622
11.038128
10.995982
10.953195
10.91048
10.868213
10.826542
10.785518
10.745184
10.705613
10.666924
10.629284
10.592918
10.558116
10.525241
10.49474
10.467146
10.443068
10.423137
10.407833
10.397357
10.391812
10.391285
10.395574
10.404119
10.416251
10.543911
10.508941
10.479785
10.457381
10.442513
10.435602
10.436368
10.444166
10.458177
10.477759
10.502112
10.530326
10.561601
10.595291
10.630889
10.668
10.706328
10.745652
10.785819
10.82673
10.868327
10.910547
10.953232
10.996
11.038135
11.078623
11.078629
11.038147
10.996023
10.953274
10.910623
10.868458
10.826947
10.786169
10.746202
10.707177
10.669294
10.63284
10.598213
10.565956
10.536788
10.511663
10.491761
10.47828
10.472469
10.476018
10.490782
10.518097
10.558365
10.611157
10.675689
10.955172
10.824596
10.717575
10.63362
10.572469
10.532701
10.511305
10.504855
10.509951
10.523931
10.544914
10.571321
10.60175
10.635164
10.670813
10.708162
10.746831
10.786563
10.827189
10.868602
10.910706
10.953321
10.996048
11.038161
11.078638
11.078651
11.038171
10.996067
10.95336
10.910782
10.868742
10.827437
10.786983
10.747519
10.709261
10.672543
10.637859
10.605929
10.577792
10.554969
10.539346
10.53323
10.540213
10.565273
10.6147
10.696425
10.81764
10.981424
11.191556
11.125948
10.89245
10.736252
10.6409
10.587607
10.562937
10.558169
10.567048
10.585423
10.610711
10.640874
10.674433
10.710432
10.748227
10.787394
10.827658
10.868846
10.910815
10.95335
10.996028
11.038109
11.078574
11.078548
11.038048
10.99596
10.953295
10.910797
10.868897
10.827829
10.787762
10.748911
10.711614
10.676403
10.644099
10.61598
10.594033
10.580983
10.580895
10.600684
10.650825
10.747933
10.92177
11.209045
10.960756
10.674428
10.507077
10.402662
10.33472
10.28782
10.253897
10.229259
10.211212
10.197775
10.187617
10.179825
10.173772
10.169022
10.165263
10.162279
10.159927
10.158116
10.156793
10.155907
10.155383
10.155143
10.15499
10.154763
10.154477
10.154141
10.153751
10.153297
10.152772
10.152179
10.151527
10.150823
10.150077
10.149294
10.148482
10.147644
10.146785
10.145909
10.145022
10.144126
10.143228
10.142329
10.141434
10.140546
10.139668
10.138802
10.137952
10.137118
10.136302
10.135506
10.134732
10.133979
10.133249
10.132542
10.131859
10.1312
10.130566
10.129955
10.12937
10.128808
10.128271
10.127758
10.127269
10.126804
10.126364
10.125947
10.125555
10.125187
10.124842
10.124521
10.124224
10.123951
10.1237
10.123472
10.123266
10.123081
10.122918
10.122774
10.12265
10.122545
10.122457
10.122384
10.12232
10.122261
10.122202
10.122143
10.122094
10.122071
10.122082
10.12212
10.12216
10.122184
10.158457
10.19504
10.231933
10.26914
10.306661
10.3445
10.382657
10.421134
10.459933
10.499056
10.538504
10.57828
10.618386
10.658825
10.699603
10.740733
10.782233
10.824142
10.866492
10.9093
10.952275
10.995318
11.036981
11.077484
11.114714
11.115291
11.077411
11.037003
10.995015
10.952118
10.909121
10.866362
10.82402
10.782113
10.740615
10.699491
10.658721
10.618291
10.578194
10.538427
10.498986
10.45987
10.421077
10.382606
10.344454
10.30662
10.269103
10.2319
10.19501
10.15843
10.158385
10.158341
10.158325
10.158345
10.15839
10.158444
10.158495
10.158544
10.158596
10.158655
10.158727
10.158814
10.158917
10.159037
10.159174
10.15933
10.159504
10.159697
10.15991
10.160142
10.160396
10.16067
10.160966
10.161283
10.161622
10.161982
10.162364
10.162769
10.163196
10.163645
10.164116
10.16461
10.165126
10.165665
10.166227
10.166812
10.167419
10.168049
10.168701
10.169374
10.170068
10.170783
10.171517
10.172269
10.173037
10.173821
10.174617
10.175424
10.176238
10.177058
10.17788
10.1787
10.179515
10.18032
10.181112
10.181886
10.182638
10.183364
10.184058
10.184714
10.185323
10.185877
10.186366
10.18679
10.187152
10.187466
10.187738
10.187958
10.188109
10.221487
10.221339
10.221126
10.220871
10.220581
10.220249
10.21986
10.219409
10.218898
10.218335
10.217731
10.217093
10.216427
10.215738
10.215031
10.214309
10.213577
10.212837
10.212094
10.211351
10.21061
10.209876
10.20915
10.208435
10.207733
10.207046
10.206375
10.20572
10.205085
10.204468
10.203871
10.203294
10.202738
10.202203
10.201688
10.201195
10.200722
10.200271
10.19984
10.199429
10.199039
10.19867
10.19832
10.19799
10.19768
10.19739
10.197119
10.196866
10.196633
10.196418
10.196221
10.196041
10.195878
10.195732
10.195601
10.195486
10.195386
10.195301
10.195229
10.195171
10.195124
10.195083
10.195042
10.194997
10.194948
10.194906
10.194889
10.194909
10.194958
10.231843
10.231787
10.231763
10.231778
10.231819
10.231865
10.231904
10.231937
10.231969
10.232006
10.232053
10.232111
10.232182
10.232265
10.232361
10.23247
10.232593
10.23273
10.232881
10.233047
10.233229
10.233426
10.23364
10.233871
10.234118
10.234383
10.234666
10.234966
10.235284
10.23562
10.235975
10.236348
10.23674
10.237151
10.237581
10.23803
10.238498
10.238985
10.23949
10.240015
10.240558
10.241118
10.241696
10.242289
10.242898
10.243521
10.244157
10.244803
10.245458
10.246119
10.246785
10.247451
10.248116
10.248775
10.249426
10.250064
10.250687
10.251291
10.251871
10.252422
10.252935
10.253401
10.253812
10.254164
10.254464
10.254727
10.254966
10.255169
10.255315
10.289625
10.289482
10.289287
10.289067
10.28883
10.288564
10.28825
10.287881
10.287461
10.286998
10.286502
10.285981
10.28544
10.284882
10.284312
10.283732
10.283145
10.282555
10.281964
10.281375
10.28079
10.280212
10.279642
10.279083
10.278535
10.278001
10.277481
10.276976
10.276486
10.276013
10.275556
10.275116
10.274694
10.274288
10.273899
10.273528
10.273174
10.272836
10.272516
10.272211
10.271924
10.271652
10.271396
10.271156
10.270931
10.270721
10.270526
10.270346
10.270179
10.270027
10.269887
10.269761
10.269646
10.269544
10.269453
10.269373
10.269304
10.269246
10.269199
10.269162
10.269133
10.269108
10.269082
10.269047
10.269004
10.268964
10.268949
10.268977
10.269039
10.306549
10.306481
10.30645
10.306464
10.306504
10.306545
10.306576
10.306598
10.306616
10.306638
10.306667
10.306705
10.306752
10.306809
10.306876
10.306951
10.307036
10.307132
10.307237
10.307354
10.307481
10.307621
10.307772
10.307936
10.308113
10.308302
10.308505
10.308722
10.308952
10.309197
10.309456
10.30973
10.310018
10.310321
10.310639
10.310972
10.311321
10.311685
10.312064
10.312458
10.312867
10.31329
10.313728
10.314179
10.314644
10.31512
10.315607
10.316104
10.316609
10.317121
10.317637
10.318156
10.318674
10.31919
10.319701
10.320205
10.320698
10.321177
10.32164
10.322082
10.322494
10.322869
10.323196
10.323471
10.323703
10.323912
10.324115
10.324301
10.324442
10.359785
10.359646
10.359467
10.359282
10.359101
10.358903
10.358665
10.358379
10.358049
10.357686
10.357297
10.356891
10.35647
10.35604
10.355601
10.355155
10.354706
10.354256
10.353806
10.353358
10.352916
10.352479
10.35205
10.35163
10.35122
10.35082
10.350432
10.350057
10.349694
10.349344
10.349007
10.348683
10.348373
10.348076
10.347792
10.347522
10.347265
10.347021
10.346789
10.346571
10.346364
10.34617
10.345988
10.345818
10.345659
10.345511
10.345374
10.345247
10.345131
10.345025
10.344928
10.344841
10.344761
10.344691
10.344628
10.344573
10.344526
10.344488
10.344457
10.344435
10.344419
10.344406
10.34439
10.344362
10.344322
10.344281
10.344266
10.344301
10.344376
10.382519
10.382437
10.3824
10.382416
10.382458
10.382497
10.382522
10.382535
10.382543
10.382554
10.382571
10.382595
10.382627
10.382665
10.382711
10.382762
10.382821
10.382886
10.382959
10.383039
10.383127
10.383223
10.383328
10.383442
10.383565
10.383697
10.383839
10.383991
10.384153
10.384326
10.384509
10.384704
10.384909
10.385125
10.385353
10.385592
10.385843
10.386105
10.386379
10.386664
10.386961
10.387269
10.387588
10.387918
10.388258
10.388608
10.388966
10.389333
10.389706
10.390085
10.390469
10.390855
10.391242
10.391628
10.392011
10.392389
10.392762
10.393125
10.393478
10.393816
10.394133
10.39442
10.394666
10.394868
10.395033
10.395188
10.395355
10.395527
10.395666
10.432091
10.43195
10.431783
10.431633
10.431504
10.43137
10.431203
10.430994
10.430747
10.430474
10.430183
10.42988
10.429569
10.429252
10.42893
10.428604
10.428276
10.427947
10.42762
10.427295
10.426974
10.426659
10.426349
10.426047
10.425752
10.425465
10.425187
10.424919
10.42466
10.424411
10.424171
10.423942
10.423723
10.423513
10.423313
10.423123
10.422942
10.422771
10.42261
10.422457
10.422314
10.422179
10.422053
10.421936
10.421826
10.421725
10.421631
10.421544
10.421465
10.421392
10.421326
10.421267
10.421213
10.421165
10.421122
10.421085
10.421053
10.421027
10.421008
10.420996
10.420989
10.420985
10.420976
10.420953
10.420914
10.42087
10.420853
10.420892
10.420982
10.459765
10.459667
10.459626
10.459645
10.459691
10.45973
10.459751
10.459757
10.459758
10.459761
10.459769
10.459784
10.459805
10.459831
10.459862
10.459897
10.459937
10.459981
10.46003
10.460085
10.460144
10.460209
10.46028
10.460357
10.46044
10.46053
10.460627
10.46073
10.460841
10.460959
10.461085
10.461218
10.461359
10.461508
10.461666
10.461831
10.462005
10.462187
10.462377
10.462576
10.462783
10.462998
10.463222
10.463453
10.463691
10.463937
10.46419
10.464448
10.464712
10.464981
10.465252
10.465527
10.465802
10.466077
10.466351
10.466622
10.466889
10.467152
10.467408
10.467656
10.467889
10.468099
10.468274
10.468409
10.468513
10.468617
10.468752
10.468915
10.469059
10.506566
10.506418
10.506257
10.506136
10.506056
10.505979
10.505873
10.505729
10.505552
10.505355
10.505147
10.504932
10.504713
10.504491
10.504266
10.504039
10.503811
10.503584
10.503357
10.503132
10.50291
10.502693
10.502479
10.502271
10.502068
10.501872
10.501682
10.501498
10.501321
10.501151
10.500988
10.500831
10.500682
10.50054
10.500404
10.500276
10.500154
10.500038
10.49993
10.499827
10.49973
10.49964
10.499556
10.499477
10.499404
10.499336
10.499273
10.499215
10.499162
10.499114
10.499069
10.499029
10.498993
10.49896
10.498931
10.498906
10.498884
10.498867
10.498856
10.49885
10.49885
10.498852
10.498849
10.49883
10.498791
10.498743
10.49872
10.498763
10.49887
10.538299
10.538183
10.538138
10.538164
10.538216
10.538255
10.538272
10.538273
10.538268
10.538266
10.538269
10.538278
10.538291
10.538309
10.53833
10.538354
10.53838
10.53841
10.538443
10.538479
10.538518
10.538562
10.538608
10.538659
10.538714
10.538773
10.538837
10.538905
10.538978
10.539056
10.539139
10.539227
10.53932
10.539419
10.539523
10.539633
10.539748
10.539869
10.539996
10.540128
10.540266
10.54041
10.540559
10.540714
10.540874
10.541039
10.541208
10.541382
10.54156
10.54174
10.541923
10.542108
10.542294
10.54248
10.542666
10.542849
10.543032
10.543212
10.543389
10.543563
10.543727
10.543874
10.543991
10.544071
10.544122
10.54418
10.54429
10.54445
10.544604
10.583162
10.582999
10.582838
10.58274
10.582702
10.582674
10.582617
10.582524
10.582403
10.582266
10.582124
10.581979
10.581833
10.581686
10.581537
10.581388
10.581239
10.581089
10.580941
10.580794
10.580649
10.580506
10.580367
10.580231
10.580098
10.57997
10.579846
10.579727
10.579611
10.579501
10.579394
10.579293
10.579196
10.579104
10.579016
10.578933
10.578854
10.578779
10.578709
10.578642
10.57858
10.578522
10.578467
10.578416
10.578369
10.578325
10.578284
10.578247
10.578212
10.57818
10.578151
10.578124
10.5781
10.578078
10.578059
10.578041
10.578027
10.578016
10.578009
10.578008
10.578012
10.578019
10.578021
10.578006
10.577966
10.577911
10.57788
10.577926
10.578052
10.618134
10.617998
10.617951
10.617986
10.618045
10.618085
10.618099
10.618094
10.618085
10.618079
10.618079
10.618084
10.618093
10.618105
10.618119
10.618135
10.618153
10.618172
10.618194
10.618217
10.618243
10.618271
10.618301
10.618333
10.618368
10.618406
10.618446
10.618489
10.618535
10.618584
10.618637
10.618692
10.618751
10.618814
10.618879
10.618949
10.619021
10.619098
10.619178
10.619262
10.619349
10.61944
10.619535
10.619633
10.619734
10.619838
10.619946
10.620056
10.620168
10.620283
10.620399
10.620517
10.620635
10.620753
10.620871
10.620988
10.621105
10.621221
10.621338
10.621454
10.621566
10.621666
10.621739
10.621775
10.621783
10.621802
10.621891
10.622055
10.622228
10.66179
10.661604
10.661435
10.661355
10.661353
10.661363
10.661344
10.661287
10.661206
10.661115
10.661021
10.660929
10.660837
10.660746
10.660655
10.660563
10.660472
10.66038
10.660289
10.660199
10.66011
10.660023
10.659938
10.659854
10.659773
10.659695
10.659619
10.659545
10.659475
10.659407
10.659342
10.65928
10.65922
10.659164
10.65911
10.659059
10.65901
10.658965
10.658921
10.65888
10.658842
10.658806
10.658772
10.658741
10.658712
10.658684
10.658658
10.658635
10.658613
10.658592
10.658574
10.658556
10.65854
10.658526
10.658512
10.658501
10.658491
10.658484
10.65848
10.658482
10.65849
10.658501
10.658507
10.658496
10.658455
10.658393
10.658352
10.6584
10.658547
10.699299
10.69914
10.69909
10.699138
10.699203
10.699243
10.699252
10.699243
10.69923
10.699221
10.699218
10.699221
10.699226
10.699235
10.699244
10.699255
10.699267
10.69928
10.699294
10.699309
10.699325
10.699342
10.699361
10.699381
10.699402
10.699425
10.699449
10.699475
10.699503
10.699532
10.699564
10.699597
10.699632
10.699669
10.699708
10.699749
10.699792
10.699837
10.699885
10.699934
10.699986
10.70004
10.700095
10.700153
10.700213
10.700275
10.700338
10.700403
10.700469
10.700536
10.700605
10.700674
10.700743
10.700812
10.700882
10.700951
10.70102
10.701091
10.701163
10.701238
10.701313
10.701379
10.701422
10.701427
10.701402
10.701388
10.701462
10.701638
10.701839
10.742371
10.742151
10.741967
10.741897
10.741926
10.741963
10.741968
10.741935
10.74188
10.74182
10.74176
10.741704
10.741651
10.741599
10.741548
10.741497
10.741446
10.741395
10.741344
10.741293
10.741243
10.741194
10.741146
10.7411
10.741054
10.74101
10.740967
10.740925
10.740885
10.740847
10.74081
10.740775
10.740741
10.740709
10.740678
10.740649
10.740621
10.740595
10.74057
10.740547
10.740524
10.740504
10.740484
10.740465
10.740448
10.740432
10.740416
10.740402
10.740388
10.740376
10.740364
10.740353
10.740342
10.740333
10.740324
10.740316
10.740309
10.740304
10.740303
10.740307
10.740317
10.740331
10.740343
10.740337
10.740298
10.740231
10.740177
10.740228
10.7404
10.781873
10.781687
10.781631
10.781691
10.781759
10.781796
10.781799
10.781784
10.781767
10.781756
10.781752
10.781753
10.781756
10.781762
10.781768
10.781776
10.781784
10.781792
10.781801
10.78181
10.78182
10.78183
10.781842
10.781853
10.781866
10.781879
10.781892
10.781907
10.781923
10.781939
10.781956
10.781975
10.781994
10.782014
10.782035
10.782058
10.782081
10.782105
10.782131
10.782158
10.782185
10.782214
10.782244
10.782275
10.782307
10.78234
10.782373
10.782408
10.782443
10.782479
10.782515
10.782551
10.782588
10.782624
10.782661
10.782697
10.782735
10.782774
10.782816
10.782863
10.782914
10.78296
10.782985
10.782973
10.782927
10.782885
10.782954
10.783149
10.783393
10.824923
10.824646
10.824439
10.824369
10.824423
10.824474
10.824491
10.824469
10.824429
10.824386
10.824349
10.824318
10.82429
10.824264
10.824238
10.824213
10.824189
10.824164
10.824139
10.824114
10.824089
10.824065
10.824041
10.824018
10.823995
10.823973
10.823952
10.823931
10.823911
10.823892
10.823873
10.823855
10.823838
10.823821
10.823806
10.823791
10.823776
10.823763
10.82375
10.823737
10.823725
10.823714
10.823704
10.823693
10.823684
10.823675
10.823666
10.823658
10.823649
10.823642
10.823635
10.823628
10.823621
10.823615
10.823609
10.823603
10.823599
10.823596
10.823596
10.823601
10.823612
10.823631
10.823649
10.823652
10.823617
10.823551
10.823484
10.823545
10.823745
10.866044
10.865833
10.865768
10.865845
10.865908
10.865938
10.86593
10.865908
10.865888
10.865875
10.86587
10.865869
10.865872
10.865875
10.86588
10.865885
10.86589
10.865895
10.865901
10.865906
10.865912
10.865918
10.865924
10.865931
10.865937
10.865944
10.865952
10.865959
10.865967
10.865975
10.865984
10.865993
10.866002
10.866012
10.866022
10.866033
10.866044
10.866055
10.866067
10.86608
10.866093
10.866106
10.86612
10.866134
10.866149
10.866164
10.866179
10.866194
10.86621
10.866226
10.866242
10.866258
10.866275
10.866291
10.866307
10.866323
10.86634
10.86636
10.866383
10.866413
10.866449
10.866486
10.866507
10.866488
10.866436
10.866367
10.866439
10.866654
10.866973
10.909513
10.909144
10.908938
10.908866
10.908953
10.909005
10.909025
10.909004
10.908969
10.908937
10.908913
10.908896
10.908883
10.908873
10.908863
10.908853
10.908844
10.908834
10.908824
10.908815
10.908805
10.908796
10.908786
10.908777
10.908768
10.908759
10.90875
10.908741
10.908733
10.908725
10.908717
10.908709
10.908702
10.908695
10.908688
10.908682
10.908675
10.908669
10.908663
10.908657
10.908652
10.908646
10.908641
10.908636
10.908631
10.908627
10.908622
10.908617
10.908613
10.908609
10.908604
10.9086
10.908596
10.908592
10.908588
10.908584
10.908581
10.90858
10.90858
10.908586
10.908599
10.908621
10.908646
10.908659
10.908632
10.908573
10.90848
10.908548
10.908752
10.951731
10.951569
10.951504
10.951623
10.951677
10.951705
10.951688
10.951661
10.951638
10.951625
10.95162
10.951619
10.951621
10.951623
10.951626
10.951629
10.951632
10.951636
10.951639
10.951642
10.951645
10.951648
10.951652
10.951655
10.951658
10.951662
10.951665
10.951668
10.951672
10.951675
10.951679
10.951683
10.951687
10.951691
10.951695
10.951699
10.951703
10.951707
10.951712
10.951716
10.951721
10.951726
10.95173
10.951735
10.95174
10.951745
10.951751
10.951756
10.951761
10.951766
10.951771
10.951776
10.951781
10.951786
10.951791
10.951796
10.951802
10.95181
10.951823
10.951842
10.95187
10.951903
10.951925
10.951902
10.951851
10.951735
10.951803
10.951966
10.952353
10.995144
10.994744
10.994676
10.994612
10.994771
10.994818
10.99485
10.994828
10.994799
10.994774
10.994759
10.994751
10.994746
10.994743
10.994741
10.994739
10.994737
10.994735
10.994733
10.994731
10.994728
10.994726
10.994724
10.994721
10.994719
10.994717
10.994714
10.994712
10.99471
10.994707
10.994705
10.994702
10.9947
10.994698
10.994696
10.994693
10.994691
10.994689
10.994687
10.994685
10.994682
10.99468
10.994678
10.994676
10.994674
10.994672
10.994669
10.994667
10.994665
10.994662
10.99466
10.994658
10.994655
10.994653
10.994651
10.994648
10.994646
10.994645
10.994646
10.99465
10.994662
10.994684
10.99471
10.994729
10.994695
10.994646
10.994485
10.994548
10.994615
11.036728
11.036826
11.036757
11.036976
11.037014
11.03706
11.03704
11.037016
11.036996
11.036987
11.036983
11.036983
11.036984
11.036986
11.036988
11.036989
11.036991
11.036993
11.036995
11.036996
11.036998
11.036999
11.037001
11.037002
11.037004
11.037005
11.037007
11.037008
11.037009
11.03701
11.037012
11.037013
11.037014
11.037015
11.037016
11.037017
11.037019
11.03702
11.037021
11.037022
11.037023
11.037024
11.037024
11.037025
11.037026
11.037027
11.037028
11.037029
11.037029
11.03703
11.03703
11.037031
11.037031
11.037031
11.037032
11.037032
11.037033
11.037035
11.03704
11.037051
11.037072
11.037098
11.037119
11.037074
11.037037
11.036818
11.036888
11.036791
11.037066
11.077437
11.077205
11.077523
11.077413
11.077707
11.077714
11.077773
11.077748
11.077726
11.077709
11.077702
11.0777
11.077699
11.0777
11.0777
11.077701
11.077701
11.077701
11.077702
11.077702
11.077702
11.077702
11.077702
11.077703
11.077702
11.077702
11.077702
11.077702
11.077701
11.077701
11.077701
11.077701
11.0777
11.0777
11.077699
11.077699
11.077698
11.077698
11.077698
11.077697
11.077696
11.077695
11.077694
11.077694
11.077693