/*--------------------------------*- C++ -*----------------------------------*\
| =========                 |                                                 |
| \\      /  F ield         | OpenFOAM: The Open Source CFD Toolbox           |
|  \\    /   O peration     | Version:  v2012                                 |
|   \\  /    A nd           | Website:  www.openfoam.com                      |
|    \\/     M anipulation  |                                                 |
\*---------------------------------------------------------------------------*/
FoamFile
{
    version     2.0;
    format      ascii;
    class       volScalarField;
    location    "100";
    object      k;
}
// * * * * * * * * * * * * * * * * * * * * * * * * * * * * * * * * * * * * * //

dimensions      [0 2 -2 0 0 0 0];


internalField   nonuniform List<scalar> 
24571
(
0.37008107
0.37006291
0.37273621
0.37271035
0.37275919
0.37273851
0.372808
0.37278018
0.37281405
0.37279909
0.3728046
0.3728046
0.37279909
0.37281404
0.37278018
0.372808
0.37273851
0.3727592
0.37271036
0.37273621
0.37270129
0.37274457
0.37271422
0.37274052
0.37273057
0.37273523
0.37273228
0.37273156
0.37273107
0.37273112
0.37273121
0.37273131
0.3727314
0.37273146
0.3727315
0.37273153
0.37273156
0.37273159
0.3727316
0.37273161
0.37273163
0.37273163
0.37273162
0.3727316
0.37273156
0.37273149
0.37273144
0.37273142
0.37273195
0.3727327
0.37273567
0.37273103
0.372741
0.37271472
0.37274507
0.37270181
0.37273671
0.37271087
0.37276005
0.37274022
0.37281087
0.3727848
0.3728205
0.37280763
0.37281499
0.37281641
0.37281162
0.37282625
0.37279135
0.37281714
0.37274584
0.37276456
0.3727144
0.37274059
0.37270593
0.3727492
0.37271905
0.37274549
0.37273575
0.37274054
0.37273768
0.37273695
0.37273643
0.3727368
0.37273834
0.37274155
0.37274592
0.37275034
0.37275281
0.37275272
0.37275246
0.3727522
0.37275195
0.3727517
0.37275145
0.37275104
0.37274807
0.37274318
0.37273835
0.37273472
0.3727328
0.37273211
0.37273238
0.37273295
0.37273576
0.37273097
0.3727408
0.3727144
0.37274467
0.37270134
0.37003142
0.37005724
0.37003239
0.37005669
0.37005212
0.37005765
0.37005586
0.37005522
0.37005497
0.37005584
0.37005813
0.37006217
0.37006734
0.37007238
0.37007545
0.37007636
0.37007696
0.37007759
0.37007821
0.37007889
0.37007956
0.37007997
0.37007816
0.37007446
0.37007057
0.3700678
0.37006676
0.37006709
0.37006848
0.37007018
0.37007294
0.37006835
0.37007379
0.37005044
0.37007611
0.37005114
0.37008287
0.37005848
0.3673426
0.36447674
0.36166581
0.35900081
0.35671871
0.3551551
0.35471008
0.35561775
0.35790249
0.36133379
0.36697847
0.37609008
0.39106991
0.409025
0.43588951
0.49088959
0.56468392
0.7255723
0.83671859
0.78684106
0.75917871
0.70608429
0.69046174
0.67461232
0.65665185
0.622747
0.60455475
0.59170955
0.5796649
0.56100468
0.54745014
0.53668538
0.52672412
0.51761472
0.50955668
0.50234623
0.49338893
0.48546606
0.4788045
0.47268845
0.46753247
0.46109285
0.45367954
0.4456617
0.43880188
0.43310773
0.42915582
0.42386973
0.417488
0.41136193
0.4054362
0.39962706
0.39377199
0.38784738
0.38180369
0.37563294
0.36932257
0.3628919
0.35630583
0.34963341
0.34279667
0.33595083
0.32891188
0.32188561
0.31471527
0.30750436
0.30023568
0.29283308
0.28539538
0.27742721
0.26903298
0.26079697
0.26460047
0.26022846
0.25464836
0.24895598
0.24328927
0.23730031
0.30672899
0.30879862
0.31083968
0.31285589
0.31486274
0.31688726
0.31895733
0.32109389
0.32330902
0.32560616
0.32798307
0.33043453
0.3329545
0.33553736
0.33817857
0.34087495
0.34362488
0.34642855
0.34928811
0.35220634
0.35518422
0.35821179
0.36126874
0.36429823
0.36725452
0.36721169
0.36721391
0.36719464
0.36721194
0.36721244
0.36721772
0.36721724
0.36721679
0.36721671
0.36721781
0.36722056
0.36722519
0.36723098
0.36723648
0.36724001
0.36724149
0.3672426
0.36724373
0.36724499
0.36724634
0.36724775
0.36724885
0.36724797
0.36724522
0.36724233
0.36724069
0.36724112
0.36724335
0.36724695
0.36725114
0.36725558
0.36725457
0.36725852
0.3672459
0.36726955
0.36727109
0.36731594
0.36445471
0.36162027
0.35894916
0.35665184
0.3550542
0.35462401
0.35575915
0.35892855
0.3620662
0.36180573
0.36142233
0.36051893
0.36286551
0.36494363
0.36707496
0.36787821
0.36703349
0.37902584
0.40222924
0.42001195
0.41584887
0.43909689
0.46079642
0.46292772
0.46577126
0.49293553
0.55435733
0.68605346
0.82797157
0.78415846
0.78852413
0.71819589
0.69967014
0.68190886
0.66836867
0.63053732
0.61059954
0.59657389
0.58558988
0.56569241
0.55151434
0.54041952
0.53023842
0.52081016
0.5121885
0.50503193
0.49572342
0.48726826
0.48022591
0.47394407
0.47034447
0.46646784
0.46769378
0.47550976
0.4835183
0.49157419
0.49874656
0.50766499
0.51573801
0.5253559
0.53496924
0.54515906
0.55692847
0.56714314
0.58789862
0.59966546
0.61289652
0.62788596
0.66883002
0.68120513
0.69718069
0.75112034
0.74702829
0.70151943
0.75428825
0.62423007
0.52816598
0.53394667
0.57532209
0.61824997
0.71637189
0.70026981
0.63511213
0.54911046
0.59902311
0.6304167
0.65811398
0.6788265
0.70386254
0.70860301
0.79030514
0.80738004
0.71169509
0.69351284
0.67928159
0.63552686
0.6228123
0.60826754
0.59556746
0.58655096
0.56467366
0.56380627
0.55128616
0.54083872
0.53103244
0.52181414
0.51333125
0.50743884
0.49642659
0.49669971
0.48779709
0.48008086
0.47283894
0.46652656
0.4610225
0.45424617
0.44535793
0.43687675
0.43359177
0.43433016
0.43146981
0.43058984
0.42916581
0.42484208
0.42780101
0.42386051
0.42164055
0.41671276
0.41131847
0.40584705
0.40029297
0.3945762
0.38875568
0.38276448
0.3766542
0.37036694
0.36396947
0.35740516
0.35072399
0.34389571
0.33702671
0.3299974
0.32293435
0.3157667
0.30851638
0.30119682
0.29372559
0.28591992
0.2773721
0.26956219
0.27353332
0.28252669
0.28694064
0.29250707
0.30370019
0.31202896
0.3167305
0.32684266
0.3306793
0.3244481
0.32114061
0.31630386
0.30849517
0.30323684
0.29323588
0.28552857
0.27924505
0.27284793
0.26540942
0.26236358
0.26282376
0.25807722
0.2611418
0.27009492
0.26859831
0.27164986
0.27852068
0.2765504
0.28350466
0.28410886
0.28618287
0.29401678
0.29587421
0.28872681
0.30887373
0.31400417
0.31461091
0.3211532
0.33908543
0.34738474
0.34828441
0.35553598
0.36492763
0.35897343
0.35496759
0.37557225
0.3905819
0.39216352
0.3993651
0.40738503
0.41530815
0.42329219
0.43081105
0.43839974
0.44496182
0.45200277
0.44893741
0.44958257
0.44162789
0.43697778
0.42794702
0.42165801
0.4115777
0.4009447
0.42144063
0.43718343
0.45138006
0.4651949
0.4774663
0.4903631
0.50384155
0.51791328
0.5327576
0.56414102
0.58621554
0.599199
0.61308032
0.62845288
0.64678638
0.67742298
0.69305594
0.71287184
0.73470659
0.75842422
0.7844365
0.81488653
0.8411167
0.90612698
0.9412307
0.97982377
1.0289895
1.1784148
1.2336329
1.3120201
1.3754384
1.7953862
1.9735699
2.243484
1.7117833
1.5708101
1.0840904
0.73142943
0.6758563
0.51684186
0.4431867
0.47668031
0.49550781
0.41590122
0.38703229
0.37285779
0.36443233
0.36254599
0.36520819
0.36839512
0.37861695
0.40010143
0.44015165
0.48239448
0.46262617
0.44122998
0.42911576
0.44632382
0.48394871
0.51965249
0.58795916
0.70370015
0.92534975
0.56564344
1.0446341
1.0871857
1.9789097
1.9225938
1.8814673
1.7754606
1.4243189
1.432895
1.3297267
1.2505496
1.0963761
1.0523213
1.0022732
0.96011169
0.92733052
0.85078756
0.85440272
0.81940192
0.79080241
0.76446352
0.74006087
0.71777629
0.69722625
0.66818764
0.65094469
0.6323615
0.616042
0.6012198
0.57833696
0.5598763
0.58762028
0.60941431
0.62636953
0.64366842
0.66432831
0.69478777
0.71287448
0.73541939
0.75989413
0.78645527
0.81551137
0.84881469
0.88036792
0.94948372
0.99074636
1.0359519
1.0925794
1.2334565
1.2935602
1.3705529
1.4659898
1.8039895
1.9342895
1.7968535
2.0451731
1.5721442
1.2324524
1.8960332
2.2736185
1.9106824
1.867368
1.7818842
1.4494364
1.3923178
1.3170479
1.2536024
1.1155878
1.0606362
1.0142649
0.97141961
0.93737935
0.87421622
0.86876175
0.83275385
0.80283741
0.77517549
0.749653
0.72612121
0.70433921
0.67586197
0.65694245
0.63799436
0.62045329
0.60485699
0.58265235
0.57184999
0.56934991
0.59093467
0.59928312
0.61399435
0.62977478
0.64728478
0.6674634
0.69720684
0.71614386
0.73912159
0.76408493
0.79116483
0.8208884
0.85464486
0.88734981
0.95396415
0.99611451
1.0423828
1.0949596
1.1439717
1.2887107
1.3674566
1.4620318
1.7592016
1.8422689
1.8331723
2.1852157
1.5855869
1.0178847
0.81802858
1.192726
1.5523453
2.2005324
1.9828102
1.5960241
0.91970996
1.2137767
1.4112361
1.6856689
1.3255721
1.2755794
0.97192812
1.1678082
0.67872784
0.48641095
0.50584829
0.48606601
0.46700344
0.448102
0.51367908
0.64936332
0.71029731
0.8159776
0.96421146
1.3302469
1.6912399
2.1873111
1.9887802
1.715797
2.2515491
2.5195904
1.9880423
2.0137023
1.8697871
1.5218905
1.4376185
1.3456659
1.2771991
1.1403677
1.130452
1.0719089
1.0235302
0.97961716
0.94362539
0.88059145
0.87648296
0.83954837
0.80894098
0.78091643
0.75506542
0.73125546
0.70892764
0.68045267
0.66201942
0.64299624
0.62591356
0.61027056
0.58815457
0.57749985
0.54938941
0.53931066
0.52302033
0.50783584
0.493467
0.47979361
0.4663503
0.45276557
0.43882995
0.42605918
0.40818859
0.39684041
0.36756969
0.35924799
0.33354549
0.32634062
0.30498573
0.29884238
0.27866016
0.26594749
0.26031583
0.25448943
0.24844118
0.24176577
0.69110408
0.70588404
0.72022066
0.73593334
0.75001895
0.77717187
0.78849824
0.79490423
0.79091191
0.8100323
0.75351578
0.70899113
0.64818696
0.64718837
0.59472863
0.55207353
0.55908475
0.49607479
0.44043615
0.47140035
0.49167055
0.40924727
0.37567147
0.3592081
0.35805097
0.35441241
0.35242923
0.34952023
0.34817026
0.35000909
0.35262638
0.35589195
0.36031391
0.36450134
0.37020385
0.39594004
0.44811313
0.47421256
0.47037088
0.44719986
0.43531944
0.46290709
0.4838254
0.49880861
0.52468657
0.54391938
0.56462744
0.54609228
0.56527415
0.65198197
0.69686078
0.7688128
0.79254161
0.78570124
0.78319434
0.77900789
0.77094787
0.76134873
0.74151903
0.73600921
0.7202208
0.74642863
0.69372706
0.69349662
0.62797263
0.57639754
0.60255255
0.652906
0.61895754
0.60697983
0.61718588
0.64505414
0.71958178
0.76231954
0.7675544
0.77176787
0.76810823
0.75874776
0.73574424
0.72265657
0.27149085
0.27587129
0.2807428
0.2845881
0.2893707
0.29262322
0.27778524
0.27826583
0.28404489
0.2919918
0.29945043
0.30667637
0.31364779
0.32052744
0.32730845
0.33402989
0.34068771
0.34727629
0.35379454
0.36023311
0.36656985
0.37281477
0.3789423
0.38496079
0.39085556
0.39663335
0.40229861
0.40786579
0.41334068
0.41870434
0.42366524
0.42787823
0.43105203
0.43706832
0.44271526
0.44769835
0.44967424
0.44912037
0.44439224
0.43614178
0.42483177
0.41288287
0.39696374
0.38414317
0.37448547
0.36660772
0.36085404
0.35606404
0.35413357
0.35361542
0.35453772
0.3564274
0.35887033
0.36161352
0.36448816
0.36735959
0.37012311
0.37019526
0.37018429
0.37022059
0.37021098
0.37021452
0.37021112
0.37020131
0.37020606
0.37016682
0.37017649
0.37010429
0.37010318
0.3700417
0.36729123
0.36434006
0.3613571
0.35832736
0.35536169
0.35246735
0.34966817
0.34696471
0.34435713
0.34184313
0.33941878
0.33707653
0.33480462
0.33258759
0.33040793
0.32824782
0.3260925
0.32393173
0.32176037
0.31957826
0.31738988
0.31520217
0.31302424
0.3108644
0.30873024
0.30662607
0.30455363
0.30251021
0.30284729
0.30488411
0.30694649
0.30903797
0.31115747
0.31330109
0.31546112
0.31762965
0.3197978
0.32195869
0.32410806
0.32624623
0.32837882
0.33051656
0.33267502
0.33487279
0.33712797
0.33945655
0.34187049
0.34437724
0.34698053
0.34968168
0.35247992
0.35537078
0.35833911
0.36135702
0.36436464
0.36730482
0.36730986
0.36437106
0.36135834
0.35834323
0.3553783
0.35249336
0.34970209
0.34701004
0.34441939
0.34193034
0.33954026
0.33724217
0.33502395
0.33286861
0.33075683
0.32866854
0.32658662
0.32449937
0.32240036
0.3202887
0.3181682
0.31604545
0.31392881
0.31182568
0.30974366
0.30768707
0.30565641
0.30364806
0.30504416
0.30700711
0.30898527
0.31098311
0.31300088
0.31503455
0.31707634
0.3191191
0.32115545
0.3231798
0.32518933
0.32718625
0.32917847
0.33117945
0.33320881
0.33528931
0.33744262
0.33968746
0.34203629
0.34449518
0.34706494
0.3497433
0.35252627
0.35540735
0.35837271
0.36139302
0.36441605
0.36736815
0.3673747
0.36443144
0.36141381
0.35839837
0.35543935
0.35256782
0.3497997
0.34714425
0.34460888
0.34219961
0.33991892
0.33776261
0.33571762
0.33376205
0.33186954
0.33001243
0.32816687
0.32631595
0.32444928
0.32256279
0.32065765
0.31873798
0.31680992
0.314881
0.31295905
0.31104771
0.30914635
0.30725109
0.3105103
0.31233145
0.31414144
0.31594537
0.31774415
0.3195344
0.32130786
0.32305556
0.3247725
0.32645625
0.32810784
0.32973397
0.33134916
0.33297612
0.33464623
0.33639657
0.33826283
0.34027324
0.34244255
0.34477192
0.34725307
0.34987347
0.35262001
0.35547903
0.35843168
0.36144509
0.36446383
0.36741012
0.3674143
0.36447408
0.36146126
0.35845599
0.35551626
0.35267841
0.34996644
0.34740149
0.34500679
0.34280678
0.34082085
0.3390532
0.33748438
0.33607081
0.33475761
0.33348964
0.33222332
0.33092778
0.32958247
0.32817762
0.3267104
0.32518238
0.32359858
0.32197095
0.32030935
0.31861743
0.31689502
0.31513873
0.3213617
0.32311869
0.32480641
0.32642648
0.32797618
0.32944963
0.33083317
0.33211129
0.33327874
0.3343346
0.33528191
0.33612968
0.33690165
0.33763687
0.33839665
0.33926621
0.34033816
0.34169518
0.34337398
0.34536176
0.34761819
0.3500966
0.35275594
0.35556267
0.3584845
0.36147994
0.36448775
0.36742554
0.36743187
0.36449891
0.36149965
0.35851956
0.355625
0.35286613
0.35028877
0.34794811
0.34591806
0.34428916
0.34313619
0.34246259
0.34216925
0.34210107
0.34212249
0.34211406
0.34199363
0.34171701
0.34125386
0.34059874
0.33975128
0.33871326
0.33748948
0.33609626
0.33456032
0.33289446
0.3311071
0.32920454
0.33800805
0.34034855
0.34252747
0.3445256
0.34631325
0.34784896
0.34907812
0.34998671
0.3505591
0.35077982
0.35064193
0.35017405
0.34946175
0.34854402
0.34752862
0.3465757
0.34581816
0.34548157
0.34578965
0.34681148
0.34846102
0.35057819
0.35302641
0.35571174
0.35856465
0.36152139
0.3645074
0.36743269
0.36743915
0.36451902
0.36154868
0.35862427
0.35583257
0.35325931
0.3510133
0.34926157
0.34823961
0.34815426
0.34895557
0.35041507
0.35241268
0.35474993
0.35713962
0.35924251
0.36118272
0.36263383
0.3633726
0.36339985
0.36278428
0.36160061
0.35989318
0.3576924
0.35514378
0.35231663
0.34923701
0.34595919
0.34792434
0.35274664
0.35748303
0.36207311
0.36681663
0.37104564
0.37456865
0.37736551
0.3793317
0.38030448
0.38000563
0.37791851
0.37353664
0.37038286
0.36554362
0.36077064
0.35664851
0.35344972
0.35136708
0.3503945
0.35048145
0.35165609
0.35358542
0.35598993
0.35869054
0.36156532
0.36450807
0.36741232
0.36741282
0.36451406
0.36159702
0.35878058
0.3561976
0.35402502
0.35254881
0.35218503
0.35303744
0.35513781
0.35961611
0.36583816
0.37388198
0.38315157
0.39267248
0.39958511
0.39867121
0.39522404
0.39492408
0.39224441
0.39175885
0.38931677
0.38843287
0.38585945
0.38444735
0.38164114
0.37966995
0.37659209
0.37397956
0.37072789
0.36774044
0.36419855
0.35318936
0.35525264
0.35972765
0.36449551
0.36991744
0.37523518
0.3801114
0.38445566
0.38852036
0.39217207
0.39557737
0.39848275
0.40106802
0.40304737
0.40458092
0.40515164
0.40419939
0.42219477
0.42391613
0.42514771
0.42248153
0.41826474
0.41098095
0.40352836
0.39511864
0.38740687
0.3791203
0.37241197
0.36705061
0.36343406
0.36461564
0.36030926
0.35351706
0.34888019
0.34540426
0.34307868
0.34165748
0.3407975
0.34025877
0.33990713
0.33967316
0.3395236
0.33943893
0.33940042
0.33936552
0.33932111
0.3392743
0.33922749
0.33917762
0.33912241
0.33906178
0.3389974
0.33893132
0.33886526
0.3388004
0.33873757
0.33867733
0.33862007
0.33856606
0.33851546
0.33846835
0.33842474
0.33838461
0.33834789
0.33831448
0.33828428
0.3382572
0.33823315
0.33821207
0.33819389
0.33817854
0.33816583
0.33815535
0.33814635
0.33813786
0.33812947
0.33812273
0.33812167
0.3381312
0.33814978
0.33816927
0.33818074
0.34088841
0.34364418
0.34645028
0.34931088
0.35222996
0.35521233
0.35823948
0.36130991
0.36431738
0.3672821
0.37003884
0.37006295
0.36725473
0.36429883
0.36127004
0.35821414
0.35518793
0.35221153
0.34929452
0.34643536
0.34363028
0.34087569
0.34085382
0.34083326
0.34082266
0.34082331
0.34082929
0.34083631
0.34084275
0.34084911
0.34085637
0.34086526
0.34087616
0.34088921
0.34090448
0.34092204
0.34094194
0.34096428
0.34098914
0.34101662
0.3410468
0.34107976
0.34111555
0.34115416
0.34119557
0.34123966
0.34128628
0.34133515
0.34138587
0.34143784
0.34149008
0.34154111
0.34158904
0.34163236
0.34167142
0.34170902
0.34174951
0.3417908
0.34182502
0.34433918
0.34430519
0.34426663
0.34423205
0.34420319
0.34417422
0.3441419
0.34410554
0.34406658
0.34402673
0.34398727
0.34394895
0.34391222
0.34387733
0.34384446
0.34381371
0.34378514
0.34375875
0.34373455
0.34371247
0.34369245
0.34367443
0.34365831
0.34364401
0.34363147
0.34362063
0.34361143
0.34360385
0.34359777
0.34359288
0.34358849
0.34358357
0.34357752
0.34357202
0.34357149
0.34358309
0.34360572
0.3464076
0.34638273
0.3463701
0.34637069
0.34637586
0.34638118
0.34638494
0.34638786
0.346391
0.34639503
0.34640019
0.34640653
0.34641407
0.34642283
0.34643285
0.34644418
0.34645689
0.34647105
0.34648673
0.34650397
0.34652281
0.34654326
0.34656534
0.34658902
0.34661423
0.34664087
0.34666879
0.34669771
0.34672704
0.3467557
0.34678213
0.34680495
0.34682512
0.34684618
0.34687575
0.34691229
0.3469469
0.34964988
0.34961332
0.34957792
0.34955223
0.34953779
0.3495248
0.34950974
0.34949136
0.34947102
0.3494502
0.3494298
0.34941022
0.34939164
0.34937412
0.34935771
0.34934244
0.34932832
0.34931535
0.34930349
0.34929273
0.34928303
0.34927433
0.3492666
0.34925977
0.3492538
0.34924869
0.34924441
0.349241
0.34923846
0.3492366
0.34923481
0.34923202
0.3492273
0.34922243
0.34922159
0.34923535
0.34926263
0.35217444
0.35214486
0.35212995
0.35213129
0.35213582
0.35214002
0.35214197
0.35214285
0.35214375
0.35214524
0.3521474
0.3521502
0.35215358
0.35215752
0.35216203
0.35216714
0.35217286
0.35217925
0.35218636
0.35219418
0.35220275
0.35221208
0.35222218
0.35223305
0.35224468
0.35225707
0.3522702
0.35228401
0.35229826
0.35231219
0.35232443
0.35233349
0.35234094
0.35234986
0.35237276
0.3524077
0.35244773
0.35533674
0.35529153
0.3552573
0.35523638
0.35523221
0.35522875
0.35522414
0.35521634
0.35520712
0.35519773
0.35518879
0.35518044
0.35517263
0.35516533
0.35515853
0.35515221
0.35514637
0.35514101
0.3551361
0.35513164
0.35512763
0.35512403
0.3551208
0.35511794
0.35511542
0.35511327
0.3551115
0.3551102
0.35510946
0.35510926
0.3551091
0.35510791
0.35510412
0.35509998
0.35509764
0.35511352
0.35514443
0.35816624
0.35813627
0.35811975
0.3581239
0.35812763
0.35813121
0.35813178
0.35813139
0.3581311
0.35813135
0.35813207
0.35813314
0.35813447
0.35813601
0.35813774
0.35813967
0.35814181
0.35814418
0.3581468
0.35814968
0.35815281
0.35815621
0.35815989
0.35816384
0.35816809
0.35817267
0.35817765
0.35818313
0.35818909
0.35819502
0.35819976
0.35820114
0.35820189
0.35820161
0.35822108
0.35825296
0.35830178
0.3613173
0.36126425
0.36123804
0.36121957
0.36122451
0.36122534
0.36122639
0.36122363
0.36121991
0.36121626
0.36121313
0.3612104
0.36120797
0.36120573
0.36120366
0.36120172
0.36119993
0.36119826
0.36119672
0.36119529
0.361194
0.36119282
0.36119175
0.36119075
0.36118985
0.36118907
0.36118845
0.36118809
0.36118813
0.36118871
0.36118943
0.36118933
0.36118559
0.36118235
0.36117532
0.36119222
0.36121741
0.36425312
0.36423857
0.36422103
0.36423228
0.36423462
0.36423887
0.36423856
0.36423769
0.36423698
0.36423682
0.36423699
0.36423735
0.36423779
0.3642383
0.36423883
0.36423938
0.36423998
0.3642406
0.3642413
0.36424203
0.36424281
0.36424363
0.36424452
0.36424546
0.36424646
0.36424758
0.36424889
0.36425054
0.36425273
0.36425504
0.36425671
0.36425374
0.36425255
0.36424231
0.36426058
0.36427563
0.36432153
0.36726393
0.36722094
0.36722276
0.36720297
0.36721952
0.36721919
0.36722355
0.36722207
0.36722054
0.3672192
0.36721844
0.36721793
0.36721755
0.36721721
0.36721688
0.36721656
0.36721626
0.36721595
0.36721567
0.36721539
0.36721511
0.36721484
0.36721459
0.36721432
0.36721405
0.3672138
0.36721358
0.36721348
0.36721364
0.36721438
0.36721533
0.36721626
0.36721139
0.36721127
0.3671943
0.36721382
0.36721179
0.37003139
0.37005707
0.37003205
0.37005614
0.37005132
0.37005657
0.37005448
0.37005351
0.37005282
0.37005276
0.37005285
0.37005301
0.37005318
0.3700533
0.37005342
0.37005352
0.37005361
0.37005374
0.37005379
0.37005389
0.37005398
0.37005407
0.37005412
0.37005418
0.37005422
0.37005426
0.37005436
0.3700546
0.37005548
0.37005662
0.37005887
0.37005377
0.37005872
0.37003477
0.37005985
0.37003424
0.3700658
0.37008468
0.37274673
0.37273207
0.37273446
0.37273291
0.3727448
0.37274783
0.37275016
0.37274912
0.37274813
0.37274743
0.37274714
0.37274703
0.372747
0.37274699
0.37274697
0.37274698
0.37274698
0.37274694
0.37274691
0.37274686
0.37274684
0.37274681
0.37274679
0.3727467
0.37274666
0.3727466
0.37274657
0.37274662
0.37274685
0.37274749
0.37274842
0.37274941
0.37274704
0.37274397
0.37273204
0.37273358
0.37273118
0.37274586
0.37275692
0.37275471
0.37275255
0.37275959
0.37277104
0.37277844
0.3727807
0.37278011
0.37277898
0.37277821
0.37277783
0.37277771
0.3727777
0.37277775
0.3727778
0.37277791
0.37277795
0.37277799
0.37277803
0.37277811
0.37277817
0.37277823
0.37277826
0.37277828
0.37277835
0.37277843
0.37277854
0.37277878
0.37277927
0.37278016
0.37278139
0.37278209
0.37277992
0.37277261
0.37276124
0.37275425
0.37275643
0.37275863
0.37279546
0.37278489
0.37278499
0.37279606
0.37280968
0.37281795
0.37282005
0.37281906
0.37281755
0.37281646
0.37281583
0.37281548
0.37281528
0.37281514
0.37281502
0.37281493
0.37281484
0.37281475
0.37281465
0.37281455
0.37281447
0.3728144
0.37281432
0.37281422
0.37281414
0.37281409
0.37281409
0.37281424
0.37281468
0.37281557
0.37281689
0.3728177
0.37281543
0.372807
0.37279323
0.37278206
0.37278191
0.37279252
0.37279839
0.37280188
0.37280669
0.37282056
0.37283535
0.37284373
0.37284558
0.37284438
0.37284284
0.37284185
0.37284139
0.37284125
0.37284126
0.37284133
0.37284144
0.37284155
0.37284167
0.37284178
0.3728419
0.37284204
0.37284218
0.37284232
0.37284248
0.37284264
0.37284282
0.37284304
0.37284333
0.37284377
0.37284454
0.37284583
0.37284767
0.37284914
0.37284756
0.37283944
0.37282489
0.3728112
0.37280649
0.37280301
0.37282101
0.37281976
0.37282536
0.3728394
0.37285354
0.37286093
0.37286181
0.37285982
0.37285766
0.37285617
0.37285528
0.37285473
0.37285436
0.37285406
0.37285379
0.37285356
0.37285333
0.37285313
0.37285294
0.37285276
0.37285259
0.37285244
0.37285229
0.37285215
0.37285201
0.37285191
0.37285187
0.372852
0.37285247
0.37285353
0.37285527
0.37285686
0.3728556
0.37284785
0.37283337
0.37281906
0.37281329
0.37281451
0.37281171
0.37281503
0.3728209
0.37283449
0.37284808
0.37285509
0.37285583
0.37285395
0.37285208
0.37285097
0.37285051
0.37285041
0.37285048
0.37285061
0.37285077
0.37285094
0.37285112
0.37285132
0.37285153
0.37285175
0.37285199
0.37285227
0.37285256
0.37285287
0.37285321
0.3728536
0.37285406
0.37285471
0.37285572
0.37285738
0.3728598
0.37286219
0.37286195
0.37285541
0.37284227
0.37282904
0.37282343
0.37282022
0.37282285
0.37282415
0.37282903
0.37284146
0.37285385
0.37285981
0.37285966
0.372857
0.37285442
0.37285264
0.37285152
0.37285079
0.37285024
0.37284977
0.37284936
0.37284899
0.37284863
0.3728483
0.37284801
0.37284775
0.37284749
0.37284726
0.37284704
0.37284685
0.37284667
0.37284651
0.37284642
0.3728465
0.37284695
0.37284806
0.37284999
0.37285201
0.37285156
0.37284502
0.3728321
0.37281923
0.372814
0.37281253
0.37281252
0.37281398
0.37281922
0.37283212
0.37284505
0.3728516
0.37285206
0.37285005
0.37284813
0.37284705
0.37284662
0.37284656
0.37284667
0.37284685
0.37284705
0.37284726
0.3728475
0.37284776
0.37284804
0.37284834
0.37284867
0.37284904
0.37284944
0.37284986
0.37285033
0.37285085
0.37285147
0.37285227
0.37285344
0.37285528
0.37285794
0.37286066
0.37286087
0.37285496
0.37284262
0.37283024
0.37282542
0.3728242
0.37282401
0.37282701
0.37283243
0.37284553
0.37285854
0.37286493
0.37286503
0.37286246
0.37285987
0.37285804
0.37285685
0.37285603
0.37285539
0.37285484
0.37285434
0.37285389
0.37285346
0.37285307
0.37285272
0.37285241
0.37285211
0.37285183
0.37285158
0.37285135
0.37285114
0.37285095
0.37285084
0.37285088
0.37285128
0.37285232
0.37285415
0.37285598
0.3728552
0.37284816
0.37283455
0.37282092
0.37281504
0.37281171
0.37281452
0.37281331
0.37281911
0.37283346
0.37284798
0.37285579
0.37285711
0.37285559
0.37285393
0.37285298
0.37285281
0.37285284
0.37285297
0.37285317
0.37285338
0.37285362
0.37285387
0.37285415
0.37285445
0.37285477
0.37285512
0.37285552
0.37285594
0.3728564
0.37285689
0.37285743
0.37285805
0.37285878
0.37285972
0.37286142
0.37286382
0.37286602
0.37286533
0.3728581
0.37284412
0.37283028
0.37282495
0.37282652
0.37280925
0.37281233
0.37281674
0.37283026
0.3728447
0.37285271
0.37285414
0.37285247
0.37285041
0.3728489
0.37284826
0.37284861
0.37284823
0.37284776
0.3728473
0.37284687
0.37284647
0.3728461
0.37284576
0.37284544
0.37284515
0.37284488
0.37284462
0.37284439
0.37284417
0.37284395
0.37284363
0.37284258
0.37284253
0.37284337
0.37284481
0.37284591
0.37284398
0.37283553
0.37282068
0.37280676
0.37280191
0.3727984
0.37279253
0.37278195
0.37278214
0.37279337
0.37280722
0.37281574
0.37281811
0.37281741
0.37281621
0.3728155
0.37281564
0.37281714
0.37281973
0.37282026
0.37282052
0.37282075
0.372821
0.37282126
0.37282154
0.37282184
0.37282216
0.3728225
0.37282287
0.37282325
0.3728236
0.3728237
0.37282173
0.37282084
0.37282128
0.37282253
0.37282421
0.37282531
0.37282327
0.37281501
0.37280139
0.37279041
0.37279057
0.37280151
0.37276401
0.37276151
0.37275918
0.3727662
0.37277767
0.37278508
0.3727873
0.37278659
0.37278527
0.37278429
0.37278406
0.37278518
0.37278791
0.37279094
0.37279104
0.37279076
0.37279044
0.37279013
0.37278983
0.37278955
0.37278929
0.37278904
0.37278881
0.3727885
0.37278787
0.37278427
0.372781
0.37277937
0.37277914
0.37277972
0.3727807
0.37278117
0.37277879
0.37277129
0.37275975
0.37275264
0.37275475
0.37275693
0.37274586
0.37273122
0.37273368
0.37273222
0.37274424
0.37274743
0.37274993
0.37274907
0.37274829
0.37274786
0.37274825
0.37275001
0.37275349
0.37275806
0.37276172
0.3727624
0.37276265
0.37276289
0.37276315
0.37276341
0.37276368
0.37276397
0.37276422
0.37276409
0.37276091
0.37275685
0.37275383
0.3727525
0.37275248
0.37275321
0.37275422
0.3727552
0.37275275
0.37274955
0.37273751
0.37273895
0.37273658
0.37275129
0.37010241
0.37012122
0.36735721
0.36449532
0.36165069
0.3589619
0.35663288
0.35497511
0.35448057
0.35541311
0.35837874
0.36110455
0.36573114
0.37356719
0.38601843
0.40226435
0.42435762
0.44833586
0.45827942
0.46179706
0.46268507
0.46897424
0.46805094
0.47157818
0.470534
0.47225284
0.46942731
0.46796973
0.46332858
0.46144386
0.45678353
0.45600741
0.46028357
0.46351217
0.46758
0.47224878
0.47741785
0.48273487
0.48620617
0.48730867
0.48881274
0.48979306
0.48995711
0.48730319
0.47785975
0.50602142
0.47903428
0.50912462
0.54977975
0.54722223
0.53090968
0.50144061
0.47521562
0.44593758
0.41499987
0.40478206
0.38320349
0.36982582
0.3622703
0.36417463
0.36707501
0.37650985
0.39403119
0.40360517
0.41939047
0.43628984
0.42789179
0.48286864
0.52213921
0.55883816
0.58441507
0.59286475
0.58710971
0.58872151
0.58969285
0.62051208
0.58283636
0.58216843
0.59041935
0.60018894
0.59362062
0.53562997
0.53640923
0.50417603
0.48493445
0.46164928
0.43963521
0.42536709
0.43963066
0.46625106
0.491771
0.5212761
0.57881169
0.55783782
0.51116845
0.47922985
0.52196502
0.53566736
0.48091441
0.42822026
0.44408059
0.41090671
0.42033703
0.43607018
0.48647712
0.57803278
0.5328903
0.56991556
0.60484545
0.58155181
0.5622109
0.64671327
0.53971664
0.5730239
0.5811175
0.6290776
0.58346957
0.52339062
0.46596633
0.43289956
0.40946934
0.3878058
0.37481988
0.36708315
0.35692014
0.35038067
0.34574173
0.34239924
0.34029652
0.3390287
0.33824903
0.33775149
0.33742812
0.3372249
0.33710989
0.33705787
0.33702215
0.3369747
0.33692177
0.33686603
0.33680545
0.33673828
0.33666469
0.33658648
0.33650586
0.33642478
0.33634466
0.33626657
0.33619123
0.33611922
0.33605091
0.33598656
0.33592631
0.33587024
0.33581833
0.33577052
0.33572673
0.33568687
0.33565084
0.33561858
0.33559004
0.33556519
0.33554396
0.33552617
0.33551138
0.33549881
0.33548754
0.33547719
0.33546924
0.3354674
0.33547568
0.33549227
0.33550956
0.33551975
0.33290453
0.33033422
0.32780782
0.32532411
0.32288156
0.32047822
0.3181118
0.31577957
0.31347854
0.31120555
0.30895724
0.3067301
0.30452045
0.30232418
0.30013655
0.29795196
0.29576292
0.29356063
0.29133389
0.28906968
0.28675105
0.28668674
0.28674668
0.28689333
0.28709082
0.28730266
0.28751457
0.28773999
0.28796395
0.28820531
0.28844311
0.28868111
0.28891344
0.28913619
0.28933652
0.28952903
0.28970369
0.28986514
0.29002647
0.29017871
0.29256163
0.29242317
0.29228165
0.29213499
0.29198259
0.29182914
0.29166412
0.2914842
0.29129338
0.29108352
0.29086118
0.29063073
0.29040079
0.29017026
0.28995655
0.28974741
0.28955414
0.28936872
0.28920112
0.2890777
0.2890247
0.29130256
0.2913497
0.29145373
0.29159628
0.29176044
0.29193632
0.2921308
0.29233559
0.29255638
0.29277979
0.29300424
0.29321872
0.29341903
0.29360154
0.29377123
0.29392789
0.29407416
0.29421844
0.2943592
0.2944968
0.29463263
0.29477409
0.29491689
0.29710879
0.29696961
0.29683153
0.29669458
0.29656266
0.29643043
0.29629524
0.29615806
0.29601779
0.29586823
0.29570585
0.29552969
0.29533553
0.29512648
0.2949067
0.29468873
0.2944761
0.29427976
0.29409752
0.29393592
0.29379137
0.29366916
0.2935814
0.293541
0.29575142
0.29578652
0.29586069
0.29596603
0.29609365
0.29624303
0.2964149
0.29660303
0.29680888
0.29702195
0.29723834
0.29744409
0.29763462
0.29780701
0.29796481
0.29810935
0.2982452
0.29837684
0.29850735
0.29863472
0.29876263
0.29889462
0.29902813
0.29916381
0.29929954
0.29943829
0.29957754
0.29971061
0.29983804
0.30248195
0.3024638
0.30244278
0.30240744
0.30235265
0.30228189
0.3021965
0.30209889
0.30199162
0.30187615
0.3017546
0.30162787
0.30149596
0.3013635
0.30123252
0.30110173
0.30097252
0.30084488
0.30072021
0.30059623
0.30046975
0.30034149
0.30020812
0.30006593
0.29991054
0.29973962
0.29955018
0.29934629
0.29913325
0.29892405
0.29872446
0.29854367
0.29838195
0.29824385
0.29812995
0.2980392
0.29797656
0.29794638
0.30013455
0.30016075
0.30021367
0.30029209
0.30039415
0.30052144
0.30067328
0.30084652