/*--------------------------------*- C++ -*----------------------------------*\
| =========                 |                                                 |
| \\      /  F ield         | OpenFOAM: The Open Source CFD Toolbox           |
|  \\    /   O peration     | Version:  v2012                                 |
|   \\  /    A nd           | Website:  www.openfoam.com                      |
|    \\/     M anipulation  |                                                 |
\*---------------------------------------------------------------------------*/
FoamFile
{
    version     2.0;
    format      ascii;
    class       volScalarField;
    location    "100";
    object      nut;
}
// * * * * * * * * * * * * * * * * * * * * * * * * * * * * * * * * * * * * * //

dimensions      [0 2 -1 0 0 0 0];


internalField   nonuniform List<scalar> 
24571
(
0.033475716
0.033475392
0.033515374
0.033515224
0.033515765
0.033515734
0.03351648
0.033516341
0.033516701
0.033516586
0.033516628
0.033516628
0.033516586
0.033516701
0.033516341
0.03351648
0.033515734
0.033515765
0.033515224
0.033515374
0.033515046
0.033515331
0.033515083
0.033515343
0.03351529
0.033515335
0.033515308
0.033515294
0.033515287
0.033515287
0.033515289
0.033515292
0.033515295
0.033515297
0.033515298
0.0335153
0.033515301
0.033515302
0.033515303
0.033515303
0.033515304
0.033515304
0.033515304
0.033515304
0.033515304
0.033515303
0.033515302
0.033515303
0.033515312
0.033515327
0.033515356
0.033515312
0.033515366
0.033515108
0.033515355
0.033515071
0.033515398
0.033515249
0.033515803
0.033515803
0.033516593
0.033516518
0.033516947
0.033516909
0.033517017
0.033517067
0.033517049
0.033517148
0.033516745
0.033516803
0.033515987
0.033515947
0.033515374
0.033515525
0.033515208
0.033515498
0.033515265
0.033515534
0.033515492
0.033515544
0.03351552
0.033515507
0.03351551
0.033515614
0.033516035
0.033516946
0.033518251
0.033519628
0.033520438
0.033520482
0.033520474
0.033520463
0.033520452
0.03352044
0.033520426
0.03352036
0.033519531
0.033518137
0.033516816
0.03351589
0.033515456
0.033515338
0.033515326
0.033515333
0.033515355
0.033515305
0.033515354
0.03351509
0.033515335
0.033515048
0.033475248
0.033474897
0.033474935
0.033475016
0.033475163
0.033475215
0.03347524
0.033475241
0.033475288
0.033475612
0.033476783
0.033479245
0.03348273
0.033486344
0.033488466
0.03348868
0.033488724
0.033488753
0.033488783
0.033488813
0.033488829
0.033488671
0.0334866
0.033483035
0.0334796
0.03347719
0.033476072
0.033475801
0.033475802
0.033475846
0.03347586
0.033475843
0.033475724
0.03347567
0.033475648
0.033476013
0.033476161
0.033476515
0.033436529
0.033395901
0.033357854
0.033326895
0.033310712
0.033321713
0.033373826
0.027118171
0.017918089
0.010341335
0.0076144107
0.0058047728
0.0036260445
0.0021237017
0.0014506063
0.0011269071
0.0012792237
0.00063742476
0.00079920419
0.0012462919
0.0027147637
0.0025873835
0.0032197257
0.0032666419
0.0033249167
0.0037436158
0.0038063652
0.0038589632
0.0039278568
0.0043025355
0.0043771909
0.0044434849
0.0045072493
0.0045690398
0.0046314964
0.0047044411
0.0050011283
0.0050734647
0.0051310351
0.005186042
0.005231822
0.0054065124
0.0060233054
0.0064340356
0.0064817863
0.0065164091
0.0065468947
0.0065903559
0.0066701739
0.006711447
0.0067392412
0.0067521059
0.0067531663
0.0067464573
0.0067322212
0.0067106983
0.0066818936
0.0066460604
0.0066030063
0.0065532776
0.0064964064
0.0064337197
0.0063637236
0.0062881788
0.0062060455
0.0061183154
0.0060252429
0.005926377
0.0058226854
0.0057083515
0.0056024691
0.0055887929
0.0060644417
0.0060873299
0.0060381104
0.0059779011
0.0059101998
0.0058225266
0.032532259
0.032565311
0.032595393
0.032622901
0.032648672
0.032674004
0.032700192
0.032728189
0.032758515
0.03279129
0.032826367
0.032863463
0.032902265
0.032942476
0.032983849
0.033026195
0.033069377
0.033113317
0.033157983
0.033203371
0.033249447
0.033296027
0.033342736
0.033388728
0.033433276
0.033432986
0.033432151
0.033432301
0.033432208
0.033432472
0.033432532
0.033432599
0.033432621
0.033432721
0.033433284
0.033435238
0.033439294
0.033444991
0.033450801
0.033454177
0.033454609
0.033454702
0.033454761
0.03345482
0.033454881
0.033454908
0.033454589
0.033451317
0.033445612
0.033440034
0.03343611
0.033434298
0.033433884
0.033433938
0.033434075
0.033434171
0.03343428
0.033434183
0.033434436
0.033434422
0.033435358
0.033435707
0.033394955
0.033356812
0.033325685
0.033309177
0.033320219
0.033373549
0.025559509
0.016421951
0.010287039
0.010178763
0.010963196
0.011830931
0.014012459
0.0083626018
0.00771061
0.0070630013
0.0085057121
0.0050765197
0.0032230335
0.0020238711
0.0018638504
0.0021315319
0.0012388657
0.0014218238
0.0015266982
0.0010296747
0.0015693635
0.00070829497
0.00078840962
0.0010633822
0.0018480483
0.0024411955
0.0031808978
0.0032428699
0.0032858977
0.0037084347
0.0037984129
0.0038648284
0.0039191644
0.0043107815
0.0044300297
0.004509862
0.0045781115
0.0046406392
0.0047046164
0.0047556513
0.0050563636
0.0051461282
0.0052033646
0.0052537463
0.0052646898
0.0053143008
0.0054561022
0.0054209919
0.0053996656
0.0053562855
0.0053199747
0.0049374307
0.0048832225
0.0048397459
0.0047950223
0.0047522327
0.0047075569
0.0047014663
0.0041988175
0.0041520252
0.0041234001
0.0040953309
0.0035334778
0.0034982348
0.0021380748
0.0021685827
0.0014292062
0.0010040446
0.00060826305
0.00076730355
0.0015641401
0.0012544229
0.0012119678
0.0012346816
0.00066420455
0.00068875589
0.00055350555
0.00041901383
0.00056569134
0.00065294856
0.00061794028
0.00057704825
0.00065160662
0.00079908907
0.0009930979
0.0015484727
0.0023524969
0.0033412559
0.0034177547
0.0039745619
0.0040204492
0.0040729754
0.0041366447
0.004199937
0.0046104932
0.0046979648
0.0047641191
0.0048248766
0.0048847983
0.0049449436
0.0050053906
0.0050625852
0.0053236097
0.0054422237
0.005501044
0.0055480564
0.0056113082
0.006118364
0.00598004
0.0063453276
0.0064394049
0.0064910742
0.006478298
0.0064786506
0.0064976034
0.0064672278
0.0064650431
0.0064916984
0.0065138711
0.0065107052
0.0065244011
0.0065685208
0.0066692813
0.0067000487
0.006713342
0.0067176597
0.0067147063
0.006704256
0.0066866178
0.0066615382
0.0066293394
0.0065898503
0.0065432189
0.0064894334
0.0064295594
0.0063623884
0.0062892809
0.0062093193
0.0061228286
0.0060303789
0.0059316674
0.0058247919
0.0056865827
0.0055158691
0.0055957329
0.0057544145
0.0058566664
0.0059722798
0.0061773908
0.0063616753
0.0064414608
0.00658882
0.0066482549
0.0066458828
0.0065474703
0.0064536881
0.0063679435
0.006256581
0.0060176151
0.0059288184
0.0057575568
0.0055932568
0.0054696336
0.0053835689
0.0054051806
0.0053656982
0.0054994945
0.0061210495
0.0056982691
0.0056334753
0.0058228166
0.0059318468
0.0064970336
0.0061272549
0.006007838
0.0061262941
0.0062833302
0.0061935715
0.0069147442
0.0066413529
0.0064830859
0.0067344487
0.0072629225
0.0069591327
0.0068042792
0.0068540134
0.0069128684
0.0069406286
0.0070072278
0.0074462722
0.0072357261
0.0070991884
0.0071236562
0.0071431454
0.0071493243
0.0071547558
0.0071479852
0.007147189
0.0071330726
0.0071425245
0.0071875257
0.007282135
0.0072701279
0.007313568
0.0072949306
0.0073130529
0.0072856375
0.0072545068
0.0075144575
0.0074856737
0.0074730638
0.0074392767
0.0073807124
0.0073298245
0.0072829218
0.0072395674
0.0071983665
0.0070344413
0.0068020208
0.0067735252
0.0067427961
0.0067076068
0.0066749441
0.0065573205
0.0065319737
0.0065018075
0.006470612
0.0064391183
0.006408284
0.0063808649
0.0063466654
0.006218593
0.0061883832
0.0061683642
0.0061598989
0.0061171911
0.0061298062
0.0061504993
0.0061573308
0.0063417159
0.0059859778
0.0052142709
0.0042949789
0.0038348494
0.0031060643
0.0019275354
0.0019231769
0.0011582997
0.0017784331
0.0018882074
0.002311047
0.0030785973
0.0048770939
0.0060379105
0.0085511915
0.010813053
0.01273125
0.0070056948
0.0051927756
0.0037947056
0.0025951807
0.0016576189
0.0021580272
0.0019958093
0.0023115785
0.0027468559
0.001587917
0.0018956253
0.0019499371
0.0024494311
0.0029018139
0.0014582986
0.0034344635
0.0031570154
0.0042216546
0.0059137917
0.0067212494
0.0066971481
0.0063405188
0.0065095597
0.0064703736
0.0064604164
0.0064955332
0.0065105297
0.0065080188
0.0065128768
0.0065218028
0.0064686972
0.0065985097
0.0066241685
0.0066528611
0.0066816926
0.0067099476
0.006737795
0.0067699603
0.0068706183
0.0069049318
0.0069349369
0.0069594815
0.0069835874
0.0072054064
0.0074586661
0.0074050281
0.0072134487
0.0071745758
0.0071429769
0.0071121003
0.0070372894
0.0070184997
0.0069970801
0.00697601
0.0069575161
0.0069424852
0.0069333199
0.0069128902
0.0068461483
0.0068356199
0.0068376214
0.0068552823
0.0068913113
0.0069180083
0.0069549458
0.0070278447
0.0072366704
0.0073435124
0.0047441623
0.005374969
0.0044229067
0.0040978427
0.0049346912
0.0062890607
0.0073076504
0.0073256601
0.0075096598
0.0073487241
0.0073485186
0.0073107002
0.0072662219
0.0072583461
0.0072268822
0.0072082672
0.0071946709
0.0071879187
0.0070651759
0.007215811
0.0072227234
0.0072376908
0.0072547262
0.00727384
0.007294446
0.0073202412
0.0073953239
0.0074311689
0.0074578906
0.0074899866
0.0075403476
0.0075387021
0.0076083666
0.0077423063
0.0075861822
0.0077912948
0.0077624029
0.0077283208
0.0076900415
0.0076623725
0.0075993566
0.0075844867
0.0075673201
0.0075515828
0.0075395792
0.0075324486
0.0075310388
0.0075288252
0.0074861383
0.0074949181
0.0075154967
0.0075449762
0.0075702733
0.0075910105
0.0076444668
0.0077223826
0.0079413373
0.0079567556
0.0071950825
0.0055124412
0.0043492428
0.0043178995
0.0034402599
0.0035496037
0.0055993023
0.0063614729
0.0062768958
0.0056030631
0.0020412443
0.0036001799
0.0037271116
0.0068180294
0.0040997945
0.0046750624
0.0037818854
0.0055182792
0.0027338709
0.0021274179
0.0015963298
0.0018176026
0.0016906606
0.0017746965
0.0022015564
0.0023591952
0.0028374169
0.003636066
0.0042233872
0.0040022532
0.0058271081
0.0069139301
0.0064791478
0.0048593193
0.0058826846
0.0079411416
0.008210873
0.0083942298
0.0083270181
0.0080587779
0.0079946912
0.0079237893
0.0078636689
0.0076878171
0.0078195287
0.0077815691
0.0077610442
0.0077444931
0.0077299603
0.0076389762
0.0077612679
0.0077678031
0.0077803012
0.0077943387
0.0078100322
0.0078272732
0.0078478351
0.0079182281
0.0079442474
0.0079715137
0.0079943755
0.0080162311
0.0082095336
0.0079893041
0.0080768161
0.0075769309
0.0076329373
0.0076902722
0.0077489829
0.0078073305
0.0078569579
0.0078864271
0.0079051632
0.0079454521
0.0076271595
0.0076750585
0.0075953337
0.0076366786
0.0074331684
0.0074584736
0.0070823135
0.0070880003
0.0065300804
0.0061659852
0.0061301979
0.0060786236
0.006013217
0.0059202531
0.013091896
0.012995269
0.012883607
0.012750905
0.012626986
0.012306795
0.012056507
0.011734865
0.011371655
0.010068658
0.0046370152
0.0031428204
0.0028530111
0.0026594563
0.0029633522
0.0026678534
0.0031823828
0.0019939934
0.0019334558
0.0026399632
0.0031453896
0.0030228595
0.0042953461
0.00652179
0.0077094966
0.0078407514
0.010085859
0.010514411
0.012878427
0.014873972
0.0078743422
0.0071244426
0.0062019786
0.0055117741
0.0048487962
0.0032909085
0.0031765436
0.0015872613
0.0026267445
0.0021098827
0.0020873507
0.0027481351
0.0020663203
0.0023692575
0.0028513808
0.0027063441
0.0029488804
0.002595045
0.0025901854
0.0025377918
0.0036094282
0.0084797813
0.011027589
0.011498575
0.011730037
0.01211101
0.012390863
0.012591986
0.01273901
0.012884505
0.013032667
0.0099124332
0.0046688892
0.0035623021
0.002469605
0.0029292208
0.0026784148
0.0025160099
0.0022480618
0.0021664455
0.0020956171
0.0029265376
0.0051120323
0.011169391
0.011979636
0.01234975
0.01263149
0.012848706
0.013115093
0.013231487
0.0077931514
0.0077639571
0.0077775238
0.007711311
0.0077151082
0.0076186729
0.0064501242
0.0062350808
0.0062708474
0.0064199575
0.0065477223
0.006663401
0.0067644541
0.0068576744
0.0069427854
0.0070225747
0.0070967785
0.0071667593
0.0072323298
0.0072942023
0.007352235
0.0074078126
0.0074604718
0.0075118914
0.007561617
0.0076115118
0.007660282
0.0077085087
0.0077533782
0.0078092385
0.0079006637
0.0081187919
0.0088396292
0.0096138882
0.009968563
0.010184427
0.011707057
0.013189462
0.01160269
0.0099190383
0.0082691126
0.007973264
0.0071171734
0.007252178
0.0077978747
0.0096844429
0.014409707
0.021392051
0.030844187
0.033339366
0.033300345
0.033299847
0.033321841
0.033355753
0.03339542
0.033436864
0.033477405
0.03347792
0.033478443
0.033478714
0.033478826
0.033478758
0.033478632
0.033478465
0.033478175
0.033477791
0.033477231
0.033476714
0.033476098
0.033475866
0.033434459
0.033390489
0.033345432
0.033300154
0.033255871
0.033213187
0.033172512
0.033134087
0.033098054
0.033064475
0.033033276
0.033004207
0.032976814
0.03295047
0.032924449
0.032898002
0.032870506
0.032841528
0.032810852
0.032778479
0.032744605
0.032709526
0.032673615
0.032637181
0.032600455
0.032563454
0.032525988
0.032487521
0.032503005
0.032541495
0.032578662
0.032615138
0.032651178
0.032686806
0.032721809
0.03275591
0.032788762
0.032820078
0.032849675
0.032877563
0.032903977
0.03292937
0.032954396
0.032979834
0.033006431
0.033034831
0.03306549
0.033098647
0.033134356
0.033172537
0.03321302
0.033255551
0.03329972
0.033344911
0.033390079
0.033434199
0.033434944
0.033390775
0.033345452
0.033300237
0.033256115
0.033213725
0.033173478
0.033135666
0.033100513
0.033068157
0.03303859
0.033011596
0.032986716
0.032963268
0.032940455
0.032917439
0.0328935
0.032868142
0.032841096
0.032812324
0.032781984
0.03275034
0.032717708
0.032684335
0.03265042
0.03261594
0.032580596
0.032543756
0.032615333
0.032649576
0.032681882
0.032712976
0.032743227
0.032772698
0.032801204
0.032828517
0.032854379
0.032878584
0.032901027
0.032921813
0.032941283
0.032960013
0.032978828
0.032998681
0.033020463
0.033044919
0.03307251
0.0331034
0.03313751
0.033174598
0.033214349
0.033256403
0.033300316
0.033345442
0.033390811
0.033435146
0.033436138
0.03339199
0.033346704
0.033301664
0.033257919
0.033216199
0.03317705
0.033140963
0.033108415
0.033079821
0.033055419
0.033035143
0.033018517
0.033004672
0.032992515
0.03298088
0.032968745
0.032955372
0.03294029
0.032923294
0.032904393
0.032883707
0.032861424
0.032837777
0.032812916
0.032786737
0.032758826
0.032728528
0.032887504
0.032914726
0.032938435
0.032959438
0.032978197
0.032994863
0.033009335
0.033021351
0.033030785
0.033037608
0.033041936
0.033044127
0.033044873
0.03304521
0.033046533
0.033050455
0.033058494
0.033071801
0.033090898
0.033115687
0.033145641
0.033180031
0.033218102
0.033259148
0.03330247
0.033347249
0.033392386
0.03343648
0.033437039
0.033393141
0.033348221
0.033303771
0.033261002
0.033220901
0.033184416
0.033152614
0.033126731
0.033108071
0.033097698
0.033095965
0.033102103
0.033114184
0.033129702
0.033146113
0.033161363
0.033173977
0.033182969
0.033187854
0.033188472
0.033184884
0.033177293
0.033166
0.033151017
0.033132203
0.033109145
0.033081187
0.033229166
0.033270709
0.033305456
0.033333937
0.033356289
0.033372388
0.03338249
0.033386283
0.033383053
0.033372363
0.033354074
0.033328413
0.03329633
0.033259594
0.033221187
0.033185271
0.033156482
0.033139003
0.033134807
0.033143364
0.033162683
0.0331904
0.033224413
0.033263051
0.033304967
0.033348922
0.033393559
0.033437297
0.033437542
0.03339401
0.033349746
0.033306474
0.03326579
0.033229339
0.033199125
0.033177869
0.033169245
0.033177522
0.033205643
0.03325243
0.033311199
0.033372763
0.033429676
0.033476202
0.033508441
0.03352566
0.033527817
0.03351587
0.033491231
0.033455945
0.033412895
0.033363092
0.033304979
0.033239623
0.033167524
0.033088704
0.032084573
0.032226355
0.032368651
0.032512285
0.03265629
0.032796974
0.032944751
0.033090945
0.033225204
0.033341705
0.03343571
0.033503387
0.033541911
0.032542547
0.032121486
0.032783187
0.033383513
0.033306498
0.033245374
0.033210194
0.03320123
0.033212109
0.033236408
0.033269557
0.033308426
0.033350729
0.033394486
0.033437754
0.033437604
0.033394608
0.033351554
0.033310677
0.033274527
0.033246426
0.03323137
0.033237126
0.033273401
0.033342326
0.030472061
0.026848161
0.025428149
0.025359891
0.026073664
0.027777195
0.029427428
0.031397716
0.031945413
0.03156677
0.031185864
0.030804916
0.030440247
0.03014484
0.029870551
0.029637335
0.029435334
0.029255457
0.023772259
0.023815754
0.023890543
0.024025137
0.024464299
0.025081363
0.025694382
0.026299711
0.026924867
0.027601603
0.027291017
0.024488042
0.022490561
0.020939332
0.020143971
0.019709907
0.020262173
0.02275077
0.027849736
0.033359627
0.03329042
0.033259865
0.033260895
0.033281654
0.033314021
0.033352981
0.033395085
0.033437607
0.03343687
0.033394723
0.033353779
0.03331731
0.033289965
0.033279245
0.033297576
0.033357758
0.028351123
0.02098283
0.016220966
0.01445265
0.014339238
0.015051631
0.016578032
0.019176861
0.022956725
0.02221408
0.023721716
0.024148903
0.023761195
0.02396745
0.023473336
0.023567768
0.023044657
0.023096266
0.022537416
0.022502478
0.021889645
0.021903619
0.021428641
0.021240613
0.017415733
0.015522645
0.015530287
0.015666577
0.015983699
0.01639084
0.016741255
0.017050302
0.017340257
0.017657389
0.018004319
0.018398886
0.018807277
0.019200974
0.019592761
0.020052621
0.020509989
0.014654756
0.015395283
0.016054014
0.014648511
0.013861454
0.011618272
0.010895573
0.0099247269
0.0095870055
0.009282121
0.0098370076
0.010392466
0.01352501
0.013148461
0.015456993
0.022708181
0.03068581
0.033303756
0.033203972
0.033138115
0.033097334
0.033071786
0.033055552
0.033045129
0.033038761
0.033034905
0.033033153
0.033032782
0.03303164
0.033029943
0.033027761
0.033025487
0.033023074
0.033020542
0.033017894
0.033015177
0.033012451
0.033009772
0.033007179
0.033004701
0.033002353
0.033000147
0.032998088
0.032996178
0.032994418
0.032992803
0.032991328
0.03298999
0.032988782
0.0329877
0.032986738
0.032985893
0.032985162
0.032984538
0.032984007
0.032983549
0.032983142
0.032982787
0.032982536
0.032982436
0.032982614
0.032982752
0.032982809
0.032982524
0.032982337
0.033025379
0.033069001
0.033113222
0.033158082
0.033203629
0.033249864
0.033296613
0.033343514
0.033389554
0.03343407
0.033475737
0.033475392
0.033433278
0.033388736
0.033342753
0.033296055
0.033249483
0.033203399
0.033157973
0.033113208
0.033069066
0.033025511
0.033025736
0.033025572
0.033025398
0.033025181
0.03302526
0.033025455
0.033025729
0.033026025
0.033026348
0.033026719
0.033027158
0.033027677
0.033028283
0.033028978
0.033029766
0.033030651
0.033031639
0.033032733
0.033033939
0.033035261
0.033036702
0.033038263
0.033039945
0.033041744
0.033043653
0.03304566
0.033047746
0.03304988
0.033052014
0.033054097
0.033056087
0.033057993
0.033059798
0.033061612
0.033063032
0.033064063
0.033064363
0.033097936
0.033097693
0.033096746
0.033095594
0.033094128
0.033092765
0.033091326
0.03308983
0.033088256
0.033086641
0.03308503
0.033083461
0.03308196
0.033080538
0.033079205
0.033077963
0.033076814
0.033075759
0.033074795
0.03307392
0.033073129
0.033072419
0.033071785
0.033071225
0.033070733
0.033070308
0.033069946
0.033069643
0.033069388
0.033069164
0.033068947
0.033068732
0.033068575
0.033068499
0.033068744
0.033068941
0.033069224
0.033113286
0.033112867
0.03311266
0.033112395
0.033112481
0.033112612
0.033112786
0.033112943
0.033113097
0.033113267
0.033113472
0.03311372
0.033114013
0.033114353
0.033114742
0.033115184
0.033115681
0.033116236
0.033116853
0.033117535
0.033118284
0.033119101
0.033119988
0.033120943
0.033121965
0.033123049
0.033124186
0.033125359
0.033126535
0.033127677
0.03312875
0.033129786
0.033130755
0.033131917
0.033132824
0.033133728
0.033133941
0.033172314
0.033172096
0.033171187
0.033170493
0.033169581
0.033168945
0.033168238
0.033167509
0.033166716
0.033165893
0.033165072
0.033164279
0.033163526
0.033162819
0.03316216
0.033161549
0.033160988
0.033160475
0.033160009
0.033159588
0.03315921
0.033158873
0.033158573
0.03315831
0.03315808
0.033157883
0.033157717
0.033157582
0.033157471
0.033157369
0.033157255
0.033157112
0.033157
0.033156894
0.033157176
0.033157379
0.033157953
0.033203261
0.033202517
0.033202336
0.033202042
0.033202175
0.033202269
0.033202389
0.033202469
0.033202535
0.033202603
0.03320269
0.033202798
0.033202928
0.033203079
0.033203252
0.033203448
0.03320367
0.033203918
0.033204194
0.0332045
0.033204837
0.033205207
0.033205609
0.033206044
0.033206512
0.033207012
0.033207542
0.033208092
0.033208644
0.033209169
0.033209632
0.033210087
0.033210451
0.033211167
0.033211676
0.033212637
0.033212902
0.033255462
0.033255117
0.033254072
0.033253729
0.033253162
0.033253012
0.033252742
0.033252474
0.033252145
0.033251793
0.033251441
0.033251106
0.033250792
0.033250498
0.033250226
0.033249975
0.033249744
0.033249533
0.033249341
0.033249168
0.033249013
0.033248874
0.03324875
0.03324864
0.033248544
0.033248461
0.033248393
0.03324834
0.0332483
0.033248262
0.033248208
0.033248106
0.033248029
0.033247862
0.033248163
0.033248298
0.03324921
0.033295676
0.033294628
0.033294564
0.033294268
0.033294471
0.033294534
0.033294621
0.033294654
0.033294674
0.033294694
0.033294725
0.033294767
0.033294818
0.033294877
0.033294944
0.033295018
0.033295101
0.033295193
0.033295295
0.033295408
0.033295531
0.033295666
0.033295812
0.033295971
0.033296142
0.033296327
0.033296526
0.033296738
0.03329695
0.033297144
0.033297276
0.033297419
0.033297403
0.033297856
0.033298043
0.033299166
0.033299584
0.03334467
0.033344196
0.033343039
0.033342995
0.03334264
0.033342777
0.033342717
0.033342674
0.033342567
0.033342447
0.033342328
0.03334222
0.033342121
0.03334203
0.033341946
0.033341868
0.033341796
0.03334173
0.033341669
0.033341613
0.033341563
0.033341517
0.033341474
0.033341436
0.033341401
0.033341371
0.033341346
0.033341329
0.033341321
0.033341315
0.033341298
0.033341221
0.03334117
0.03334093
0.0333412
0.033341177
0.033342297
0.033388364
0.033387304
0.033387411
0.033387199
0.033387463
0.033387509
0.033387574
0.033387578
0.033387576
0.033387577
0.033387586
0.0333876
0.033387617
0.033387637
0.033387658
0.03338768
0.033387704
0.033387729
0.033387757
0.033387786
0.033387818
0.033387851
0.033387888
0.033387927
0.033387969
0.033388015
0.033388068
0.033388129
0.033388193
0.033388249
0.033388241
0.03338825
0.033388036
0.033388289
0.033388215
0.033389292
0.033389671
0.03343367
0.033433373
0.033432524
0.03343265
0.033432527
0.033432754
0.033432773
0.033432796
0.033432764
0.033432732
0.033432703
0.033432682
0.033432665
0.033432649
0.033432635
0.033432621
0.033432608
0.033432595
0.033432583
0.033432571
0.03343256
0.033432549
0.033432539
0.033432528
0.033432518
0.033432508
0.0334325
0.033432495
0.033432497
0.033432504
0.033432511
0.033432464
0.033432423
0.033432175
0.033432281
0.033432141
0.033432984
0.033475245
0.033474889
0.033474921
0.033474993
0.03347513
0.033475171
0.033475183
0.033475168
0.033475159
0.033475157
0.03347516
0.033475165
0.03347517
0.033475175
0.03347518
0.033475185
0.033475189
0.033475193
0.033475197
0.033475201
0.033475205
0.033475209
0.033475212
0.033475215
0.033475218
0.033475222
0.033475227
0.033475238
0.033475255
0.033475279
0.033475274
0.03347524
0.033475109
0.033475043
0.033475015
0.033475373
0.03347552
0.033475874
0.033515575
0.033515245
0.033515232
0.033515191
0.033515371
0.033515424
0.033515464
0.03351545
0.033515434
0.033515422
0.033515416
0.033515414
0.033515413
0.033515412
0.033515412
0.033515411
0.033515411
0.033515409
0.033515408
0.033515407
0.033515405
0.033515404
0.033515402
0.0335154
0.033515398
0.033515396
0.033515394
0.033515394
0.033515397
0.033515406
0.03351542
0.033515432
0.03351539
0.033515335
0.033515153
0.033515193
0.033515205
0.033515536
0.033515639
0.033515439
0.033515363
0.033515453
0.033515639
0.033515761
0.033515805
0.0335158
0.033515783
0.033515771
0.033515766
0.033515765
0.033515767
0.033515769
0.033515771
0.033515774
0.033515776
0.033515778
0.03351578
0.033515783
0.033515785
0.033515787
0.033515789
0.033515791
0.033515793
0.033515795
0.033515799
0.033515804
0.033515814
0.033515831
0.033515852
0.033515861
0.033515821
0.033515703
0.03351552
0.033515432
0.033515509
0.033515709
0.033516266
0.033515976
0.033515921
0.033516081
0.0335163
0.033516437
0.033516476
0.03351646
0.033516433
0.033516411
0.033516397
0.033516388
0.033516382
0.033516377
0.033516373
0.033516369
0.033516365
0.033516362
0.033516358
0.033516354
0.033516351
0.033516348
0.033516345
0.033516342
0.033516338
0.033516336
0.033516334
0.033516335
0.033516342
0.033516356
0.033516376
0.033516384
0.033516339
0.033516195
0.03351597
0.033515806
0.033515859
0.033516151
0.033516286
0.03351619
0.033516228
0.033516445
0.03351669
0.033516836
0.033516876
0.033516861
0.033516838
0.033516822
0.033516816
0.033516815
0.033516817
0.033516821
0.033516825
0.033516829
0.033516833
0.033516838
0.033516842
0.033516847
0.033516853
0.033516858
0.033516864
0.033516871
0.033516878
0.033516885
0.033516895
0.033516907
0.033516925
0.033516953
0.033516988
0.033517013
0.033516984
0.033516848
0.033516611
0.033516401
0.033516368
0.033516464
0.033516789
0.033516653
0.033516701
0.03351692
0.033517151
0.033517275
0.033517291
0.033517255
0.033517213
0.03351718
0.033517157
0.033517141
0.033517128
0.033517117
0.033517107
0.033517098
0.03351709
0.033517082
0.033517074
0.033517068
0.033517061
0.033517055
0.03351705
0.033517044
0.033517039
0.033517035
0.033517032
0.033517032
0.033517039
0.033517055
0.033517082
0.033517102
0.033517072
0.033516934
0.03351669
0.03351646
0.033516406
0.033516541
0.033516521
0.033516445
0.033516509
0.033516732
0.033516965
0.033517092
0.033517114
0.033517089
0.033517061
0.033517044
0.033517038
0.033517039
0.033517043
0.033517048
0.033517054
0.03351706
0.033517067
0.033517075
0.033517083
0.033517091
0.033517101
0.033517111
0.033517122
0.033517134
0.033517147
0.033517161
0.033517177
0.033517197
0.033517224
0.033517262
0.033517311
0.033517356
0.033517352
0.033517244
0.033517028
0.033516818
0.033516763
0.033516842
0.03351692
0.03351682
0.033516863
0.03351706
0.033517263
0.033517361
0.033517356
0.033517305
0.033517251
0.033517209
0.033517179
0.033517155
0.033517136
0.033517118
0.033517103
0.033517088
0.033517075
0.033517063
0.033517052
0.033517042
0.033517032
0.033517023
0.033517015
0.033517008
0.033517001
0.033516995
0.03351699
0.033516988
0.033516994
0.03351701
0.03351704
0.033517067
0.033517048
0.033516928
0.033516705
0.033516491
0.033516437
0.033516533
0.033516533
0.033516437
0.033516491
0.033516706
0.03351693
0.03351705
0.033517069
0.033517042
0.033517014
0.033516998
0.033516993
0.033516995
0.033517001
0.033517008
0.033517015
0.033517024
0.033517033
0.033517042
0.033517053
0.033517064
0.033517077
0.033517091
0.033517106
0.033517122
0.03351714
0.033517159
0.033517181
0.033517207
0.03351724
0.033517284
0.033517341
0.033517394
0.033517401
0.033517305
0.033517104
0.033516909
0.033516867
0.033516969
0.033516979
0.033516896
0.033516947
0.033517152
0.033517362
0.033517465
0.033517463
0.033517412
0.033517356
0.033517313
0.033517281
0.033517255
0.033517233
0.033517212
0.033517193
0.033517176
0.03351716
0.033517145
0.033517132
0.03351712
0.033517109
0.033517099
0.033517089
0.03351708
0.033517072
0.033517065
0.033517059
0.033517055
0.033517057
0.03351707
0.033517097
0.03351712
0.033517096
0.033516968
0.033516734
0.03351651
0.033516445
0.033516521
0.033516542
0.033516407
0.033516462
0.033516693
0.033516939
0.033517079
0.033517112
0.033517094
0.033517071
0.033517065
0.033517099
0.033517115
0.033517124
0.033517132
0.033517141
0.03351715
0.033517159
0.03351717
0.033517181
0.033517193
0.033517207
0.033517222
0.033517238
0.033517255
0.033517274
0.033517294
0.033517313
0.033517326
0.033517321
0.033517356
0.033517407
0.033517451
0.033517443
0.033517326
0.033517101
0.033516887
0.033516845
0.033516986
0.033516686
0.033516585
0.033516614
0.033516819
0.033517051
0.033517182
0.033517204
0.033517171
0.033517128
0.033517102
0.03351716
0.033517343
0.033517364
0.033517351
0.033517335
0.033517318
0.033517303
0.033517288
0.033517275
0.033517263
0.033517252
0.033517241
0.033517232
0.033517222
0.033517213
0.033517198
0.033517151
0.033516943
0.033516858
0.033516859
0.033516878
0.033516888
0.033516846
0.033516697
0.033516449
0.03351623
0.033516192
0.033516287
0.033516151
0.033515861
0.033515809
0.033515976
0.033516203
0.03351635
0.033516399
0.033516395
0.033516381
0.033516384
0.033516485
0.033516859
0.0335174
0.033517489
0.033517509
0.03351752
0.03351753
0.03351754
0.033517551
0.033517563
0.033517576
0.03351759
0.033517604
0.033517618
0.033517622
0.033517558
0.033517038
0.033516686
0.033516608
0.033516626
0.033516659
0.033516679
0.033516644
0.033516508
0.03351629
0.03351613
0.033516187
0.033516478
0.033515892
0.033515694
0.03351562
0.033515713
0.0335159
0.033516022
0.033516064
0.033516053
0.03351603
0.03351602
0.03351611
0.033516506
0.033517337
0.033518182
0.033518283
0.033518284
0.033518273
0.03351826
0.033518247
0.033518236
0.033518225
0.033518215
0.033518203
0.033518178
0.033518055
0.03351719
0.033516342
0.033515926
0.033515819
0.033515812
0.033515823
0.033515823
0.033515774
0.033515649
0.03351546
0.033515367
0.033515441
0.03351564
0.033515536
0.033515207
0.033515197
0.03351516
0.033515345
0.033515405
0.033515451
0.033515445
0.033515437
0.033515447
0.03351556
0.03351599
0.033516903
0.033518159
0.03351914
0.033519271
0.033519293
0.033519304
0.033519315
0.033519326
0.033519338
0.033519349
0.03351935
0.033519241
0.033518278
0.033517039
0.033516141
0.033515728
0.033515629
0.033515631
0.033515648
0.033515659
0.033515613
0.033515551
0.033515363
0.033515394
0.0335154
0.033515723
0.033476535
0.033476761
0.033436222
0.03339522
0.033356622
0.033324783
0.033307068
0.033315979
0.033367901
0.027228446
0.018094515
0.013107646
0.0094569496
0.0072162198
0.0060632377
0.005037986
0.0052987601
0.0059035832
0.0066659522
0.0070971505
0.0070126125
0.0085297939
0.0088917364
0.010455043
0.010026174
0.0090748692
0.0086359259
0.0081163762
0.007954842
0.0073955763
0.0069545528
0.0065412191
0.0059279749
0.0059633673
0.0061285121
0.0063028801
0.0064809951
0.0066005656
0.0069842988
0.0075938318
0.0080204295
0.0083813928
0.0087441509
0.0080264987
0.0073662469
0.0078994569
0.0057119071
0.0051955788
0.0059051243
0.0060296413
0.0042977682
0.0035990717
0.0030061321
0.0028671686
0.0028574894
0.0034336706
0.0053002668
0.0073523217
0.011796799
0.0095393281
0.0075614625
0.0058433449
0.00426666
0.0022865138
0.0021086403