/*--------------------------------*- C++ -*----------------------------------*\
| =========                 |                                                 |
| \\      /  F ield         | OpenFOAM: The Open Source CFD Toolbox           |
|  \\    /   O peration     | Version:  v2012                                 |
|   \\  /    A nd           | Website:  www.openfoam.com                      |
|    \\/     M anipulation  |                                                 |
\*---------------------------------------------------------------------------*/
FoamFile
{
    version     2.0;
    format      ascii;
    class       volScalarField;
    location    "100";
    object      omega;
}
// * * * * * * * * * * * * * * * * * * * * * * * * * * * * * * * * * * * * * //

dimensions      [0 0 -1 0 0 0 0];


internalField   nonuniform List<scalar> 
24571
(
11.05521
11.054774
11.12135
11.120629
11.121906
11.121299
11.123125
11.122341
11.123232
11.122824
11.122975
11.122975
11.122824
11.123232
11.122341
11.123125
11.121299
11.121906
11.120629
11.12135
11.120417
11.121614
11.12079
11.121489
11.12121
11.121334
11.121255
11.121238
11.121226
11.121227
11.121229
11.121231
11.121233
11.121234
11.121235
11.121235
11.121236
11.121236
11.121236
11.121236
11.121237
11.121237
11.121236
11.121236
11.121235
11.121233
11.121232
11.121231
11.121243
11.121261
11.12134
11.121216
11.121496
11.120797
11.121621
11.120424
11.121357
11.120636
11.121919
11.121327
11.123173
11.12242
11.123343
11.122972
11.123155
11.123181
11.123044
11.123448
11.12254
11.12329
11.121434
11.122006
11.120699
11.121431
11.120502
11.121697
11.120875
11.121574
11.121297
11.121423
11.121345
11.121328
11.121312
11.121288
11.121195
11.120988
11.120685
11.12036
11.120165
11.120148
11.120143
11.120139
11.120135
11.120131
11.120129
11.120138
11.120325
11.120641
11.120935
11.121134
11.121221
11.12124
11.121252
11.121266
11.121343
11.121217
11.121494
11.120794
11.121616
11.120418
11.053881
11.054768
11.054014
11.054713
11.054528
11.054676
11.054614
11.054595
11.054571
11.054491
11.054172
11.05348
11.052484
11.051442
11.050833
11.05079
11.050793
11.050802
11.050811
11.050821
11.050836
11.0509
11.05153
11.052596
11.053614
11.054327
11.054665
11.054764
11.054805
11.054842
11.05492
11.054788
11.05499
11.05431
11.055084
11.054218
11.055117
11.054271
10.986266
10.913817
10.841999
10.772105
10.708829
10.658368
10.628391
10.638313
10.726127
10.951261
11.443128
12.465031
15.043906
20.191241
31.387126
61.545411
102.25912
279.80764
374.8244
303.38136
279.64817
223.21427
214.44738
206.51554
197.49423
166.34907
158.82731
153.33381
147.57791
130.38932
125.06883
120.78028
116.86155
113.28742
110.01988
106.78128
98.655524
95.687285
93.315382
91.146283
89.363222
85.28471
75.320694
69.266279
67.697678
66.464172
65.55105
64.316668
62.590272
61.292584
60.160512
59.185544
58.309239
57.489043
56.712885
55.975239
55.272141
54.602559
53.961152
53.35245
52.767121
52.2172
51.685444
51.189003
50.71108
50.259645
49.829639
49.411821
49.014391
48.600233
48.020432
46.664275
43.631464
42.749197
42.173519
41.646052
41.164305
40.755556
9.4284563
9.4824403
9.536307
9.5900696
9.6439679
9.6984521
9.7539895
9.8109276
9.8694648
9.9296538
9.991452
10.054769
10.119501
10.185554
10.252853
10.321351
10.39103
10.46191
10.534058
10.607548
10.68241
10.758394
10.835006
10.910815
10.9847
10.983514
10.983855
10.98323
10.983778
10.983706
10.983844
10.983808
10.983787
10.983752
10.9836
10.98304
10.981847
10.980149
10.978406
10.977404
10.977306
10.977309
10.977324
10.977341
10.977362
10.977395
10.977533
10.97858
10.980371
10.982116
10.983356
10.983964
10.984167
10.984257
10.984337
10.984438
10.984372
10.984522
10.984061
10.984774
10.984512
10.985739
10.913466
10.840972
10.770946
10.707314
10.655818
10.6259
10.644474
10.779262
10.99261
10.969431
10.936332
10.866645
10.998078
11.210138
11.421362
11.52882
11.409047
12.931625
17.42736
23.037113
21.682523
28.969111
43.382862
41.806098
43.799005
60.613188
91.552309
224.51959
354.54308
301.65706
295.54184
231.89221
219.95995
210.27944
203.4052
170.02789
160.75123
154.35973
149.41702
131.22735
124.4945
119.83061
115.82034
112.22811
108.86935
106.19617
98.039512
94.686383
92.291421
90.210688
89.339446
87.775958
85.719395
87.716376
89.545971
91.775203
93.749799
102.81967
105.61428
108.55031
111.56762
114.71641
118.3052
120.63112
140.01529
144.42722
148.63862
153.31751
189.28378
194.72824
200.75106
253.01468
252.72199
228.87632
305.65835
160.50633
72.290459
81.372269
120.46998
155.02685
261.34815
239.90888
203.65413
123.02632
159.39453
189.59535
222.08228
262.60635
252.02911
243.44447
299.25858
302.41012
217.18553
207.56053
198.75083
159.8986
154.91112
149.34231
143.97356
139.65708
122.47576
120.01075
115.71628
112.09379
108.71123
105.52479
102.55568
100.23315
93.249998
91.267786
88.673548
86.531359
84.265366
76.250214
77.093549
71.587506
69.16135
67.30423
66.929889
67.04022
66.404454
66.58028
66.382514
65.443903
65.675389
65.102089
64.625172
63.440883
61.673583
60.573746
59.626483
58.737152
57.896156
57.09276
56.329554
55.59781
54.902826
54.235702
53.60114
52.993179
52.418321
51.866906
51.346784
50.853673
50.387884
49.946584
49.518216
49.086717
48.776588
48.870303
48.882483
49.097382
48.993851
48.977456
49.163183
49.048237
49.170601
49.605645
49.739263
48.819414
49.048044
49.011333
48.445023
48.46686
48.729583
48.15944
48.500616
48.781584
48.524169
48.734137
48.624418
48.097603
47.484692
44.125591
47.136824
48.220653
47.832638
46.621299
43.636016
46.36805
47.634917
47.9926
47.088757
46.617175
44.668858
47.280151
48.527956
47.688119
46.687189
49.91782
51.186085
51.87267
52.789611
51.720593
50.65735
50.43762
53.979642
55.240613
56.061816
57.031602
58.090545
59.162354
60.270278
61.338764
62.380106
63.283335
62.460634
61.737741
60.745546
59.748919
58.663617
57.658274
56.491652
55.26836
56.083972
58.402684
60.400938
62.532275
64.691085
66.899705
69.181238
71.539259
74.010902
80.196991
86.182557
88.461913
90.923753
93.692563
96.897648
103.3079
106.10207
109.6421
113.54515
117.78386
122.40976
127.70785
132.52892
145.71254
152.09638
158.84661
167.04649
192.63986
201.25153
213.31929
223.38226
283.10732
308.83536
350.69609
311.05639
303.36453
236.81863
143.20731
128.08695
66.979771
29.703423
44.930738
48.297168
19.949617
14.049846
12.088197
11.196325
11.023127
11.19454
11.563836
12.814668
16.389568
26.674172
48.139948
35.981553
28.684676
24.020924
28.913176
45.121289
56.810049
78.377302
111.57094
165.57493
85.147592
194.06752
215.59853
325.04069
295.0918
279.92821
265.10695
224.6376
220.12164
205.51003
193.57104
168.78923
161.63375
154.00589
147.41745
142.18929
131.52379
129.4842
123.69883
118.86652
114.41166
110.29309
106.52985
102.98823
97.252913
94.272428
91.184895
88.518376
86.090395
80.264308
75.063865
79.354227
84.483073
87.304051
90.112068
93.408175
98.729459
101.57078
105.10375
108.92962
113.03679
117.46678
122.42543
127.35164
138.68874
144.93877
151.50764
159.37775
178.9872
186.98449
197.06162
208.59736
249.28446
263.40114
262.0857
306.69991
261.46101
199.87046
277.10029
296.60457
261.4633
249.33889
237.27895
197.23647
189.46918
180.15345
172.52465
153.69725
146.76262
140.70855
135.01933
130.4104
123.73595
120.39697
115.29638
110.92452
106.8511
103.06152
99.544395
96.218033
91.390449
88.403651
85.546222
82.837704
80.216062
77.288151
75.160678
73.537508
77.896187
76.917012
79.098491
81.489213
84.171819
87.109233
91.74551
94.422192
97.672833
101.18209
104.93488
108.98029
113.483
117.86033
127.43074
132.90532
138.69779
145.12433
151.11366
169.768
178.88187
189.32393
221.5246
231.53518
235.90293
283.7076
236.81739
159.36644
121.652
184.09679
220.54546
280.50129
266.52475
242.45766
162.72407
197.96628
217.97705
247.23696
210.70323
202.66324
145.76006
165.62125
94.726589
44.646296
55.501943
46.675113
39.388157
31.991675
51.381544
82.978046
93.907822
111.69456
135.28577
188.30648
220.38345
259.41015
253.21056
232.65168
271.6866
289.07857
242.12313
239.89126
224.54462
188.84879
179.82164
169.82605
162.41771
148.33439
144.5678
137.74971
131.88047
126.4921
122.07377
115.27611
112.93038
108.08054
103.97297
100.19021
96.678912
93.424037
90.334166
85.934967
83.333182
80.66175
78.294241
76.129362
71.642873
72.284124
68.020542
71.177983
68.521502
66.036133
63.681518
61.454246
59.355072
57.410733
55.511814
53.623025
53.517773
51.705196
48.394147
47.04244
44.872586
43.754344
43.06301
42.161734
42.673313
43.131386
42.464506
41.866292
41.315851
40.837066
52.788694
54.318538
55.9021
57.716164
59.398099
63.149819
65.400225
67.73868
69.551169
76.564807
78.30523
80.047472
71.996241
72.133144
61.78416
50.805112
52.433072
40.140691
26.304331
32.980189
33.601112
19.224863
13.382447
11.280678
11.197179
10.948329
10.763613
10.596141
10.501961
10.600183
10.841032
11.121176
11.482187
11.959722
12.607052
16.793458
25.333357
33.868662
30.363297
26.975384
24.510025
30.106228
35.805598
38.055138
41.684545
46.886274
49.701987
44.988782
53.352589
70.84543
72.18683
73.401123
71.868985
68.330313
66.768274
64.322289
62.219061
60.462959
58.208531
57.123594
55.262735
66.797457
66.337362
72.618664
64.461696
52.524588
60.608561
71.676775
63.81998
59.702869
61.75146
62.962409
68.560634
68.250771
64.071595
62.492588
60.808996
59.052466
56.09905
54.616428
34.837107
35.532305
36.096682
36.905281
37.507018
38.408687
43.06665
44.629066
45.296093
45.481889
45.733527
46.024001
46.367051
46.739962
47.143679
47.565161
48.005966
48.456531
48.918475
49.386224
49.858287
50.32724
50.793343
51.246853
51.689415
52.109668
52.517467
52.911115
53.311044
53.616539
53.624006
52.702204
48.763588
45.46218
44.411142
43.959111
38.410529
34.051456
29.511516
25.485021
21.541342
18.62026
15.040942
13.094542
12.031764
11.308061
10.893824
10.656385
10.598469
10.606543
10.646668
10.703575
10.769823
10.841114
10.914316
10.986664
11.055908
11.057893
11.057393
11.058387
11.058063
11.058192
11.058132
11.057894
11.058131
11.057086
11.05756
11.055574
11.055744
11.053985
10.98541
10.911492
10.83678
10.760532
10.685683
10.612271
10.540901
10.471534
10.40415
10.338683
10.275057
10.213138
10.152728
10.093561
10.035337
9.9777433
9.9205195
9.8634793
9.8065227
9.7496367
9.6928908
9.636403
9.5803368
9.5248546
9.4701206
9.4162638
9.3633935
9.3115818
9.3175164
9.3690876
9.4217036
9.4752923
9.5297471
9.5849406
9.6406994
9.6968652
9.7532747
9.809809
9.8664008
9.9230661
9.9799127
10.037136
10.095012
10.153865
10.214008
10.275716
10.339193
10.404572
10.471926
10.541301
10.612703
10.686059
10.761025
10.836947
10.912362
10.985902
10.985807
10.912327
10.83681
10.760981
10.686104
10.612882
10.541617
10.472403
10.405259
10.340169
10.277081
10.21587
10.156329
10.098168
10.041052
9.9846326
9.9286067
9.8727628
9.8169792
9.7612317
9.7055809
9.6501424
9.5950732
9.5405239
9.486667
9.433641
9.3815475
9.3304554
9.3527839
9.4030964
9.4543291
9.5064146
9.559256
9.6127132
9.6666068
9.7207893
9.7751186
9.8294926
9.8838657
9.9382817
9.9928855
10.047916
10.103719
10.160688
10.219197
10.279567
10.342012
10.40664
10.473477
10.542503
10.613674
10.686885
10.761841
10.837854
10.913663
10.987485
10.987354
10.913738
10.838067
10.762176
10.68736
10.614334
10.543424
10.474779
10.408498
10.344664
10.283304
10.224342
10.167556
10.11257
10.058934
10.006174
9.9538781
9.901753
9.8496181
9.7974033
9.745132
9.6928848
9.6407847
9.5889866
9.5376786
9.4869981
9.4370398
9.3878677
9.4415889
9.4891099
9.5372305
9.5858846
9.6349765
9.6843679
9.7338486
9.7832329
9.8324184
9.8813525
9.9300428
9.9785953
10.027249
10.076381
10.126516
10.178274
10.232252
10.288924
10.348542
10.411136
10.476583
10.5447
10.615297
10.688158
10.762916
10.838828
10.914579
10.988302
10.988243
10.914639
10.838997
10.763225
10.688682
10.61616
10.546108
10.478857
10.414755
10.354176
10.297419
10.244548
10.195255
10.148848
10.104456
10.061199
10.018385
9.9755232
9.9322779
9.8884858
9.8440927
9.7991116
9.7536162
9.7078618
9.6621273
9.6165482
9.5712231
9.5262221
9.6710735
9.7118066
9.7523484
9.7926172
9.832514
9.8719226
9.9103802
9.9475372
9.9834708
10.018308
10.052203
10.085379
10.118282
10.151563
10.18617
10.223397
10.264604
10.310967
10.362939
10.420239
10.482209
10.548128
10.617372
10.689418
10.763695
10.839329
10.914912
10.988494
10.988603
10.915099
10.839652
10.76426
10.690412
10.619114
10.551145
10.487356
10.42888
10.377181
10.333671
10.298874
10.271898
10.250907
10.234095
10.21962
10.206193
10.1927
10.178231
10.162312
10.144484
10.124158
10.100576
10.073894
10.045355
10.014989
9.9828706
9.949152
10.534909
10.561187
10.582074
10.596782
10.604795
10.60613
10.595865
10.57651
10.550999
10.520752
10.487049
10.4519
10.418659
10.391279
10.370123
10.358674
10.35895
10.372798
10.401136
10.442922
10.495425
10.555734
10.621677
10.691809
10.764983
10.839985
10.915197
10.988558
10.9888
10.915505
10.840535
10.766045
10.693843
10.625482
10.562709
10.508176
10.466006
10.441811
10.442428
10.471709
10.530777
10.622487
10.746576
10.882382
11.054109
11.221486
11.374797
11.512101
11.632972
11.738406
11.822939
11.865792
11.889429
11.887595
11.864551
11.825458
14.635729
14.811483
14.96337
15.070595
14.993956
14.793679
14.577842
14.348656
14.088526
13.778348
13.393721
12.859642
12.095576
11.70536
11.231118
10.902729
10.695698
10.572152
10.512481
10.50355
10.527997
10.572986
10.630665
10.696281
10.766954
10.84057
10.915022
10.987997
10.988254
10.915319
10.841261
10.768594
10.699849
10.638012
10.587822
10.557815
10.562255
10.627784
10.830654
11.187141
11.83797
12.932748
14.716629
16.962476
17.001576
16.457122
16.648209
16.242743
16.487338
16.243562
16.547834
16.372337
16.682711
16.523932
16.846205
16.735583
17.08477
16.925417
17.161165
17.14633
20.279903
22.88609
23.162974
23.265804
23.143419
22.892981
22.705072
22.54832
22.405687
22.210083
21.971249
21.657982
21.325151
20.990986
20.64951
20.204424
19.057824
28.809402
27.535456
26.48233
23.651612
20.973005
18.403021
16.40482
14.750325
13.520996
12.405581
11.725568
11.298091
11.035653
11.116471
10.875514
10.578922
10.441465
10.37133
10.332459
10.310106
10.296826
10.288491
10.282906
10.279069
10.276523
10.27516
10.274539
10.273598
10.272609
10.271719
10.270981
10.270178
10.269256
10.268208
10.267081
10.265925
10.264771
10.26364
10.262542
10.261488
10.260483
10.259532
10.258639
10.257804
10.25703
10.256316
10.255661
10.255065
10.254525
10.25404
10.25361
10.253233
10.25291
10.252638
10.252418
10.252243
10.252096
10.251949
10.251773
10.2516
10.251512
10.251758
10.252304
10.252983
10.253389
10.322014
10.391732
10.462596
10.534713
10.608177
10.683121
10.759037
10.835988
10.911118
10.985265
11.053941
11.054776
10.984706
10.91083
10.835039
10.758456
10.68251
10.607695
10.534254
10.46215
10.391291
10.321587
10.320855
10.320283
10.320017
10.320104
10.320261
10.320412
10.320522
10.320622
10.32074
10.320894
10.321087
10.32132
10.321593
10.321907
10.322263
10.322663
10.323107
10.323597
10.324134
10.324718
10.325351
10.326032
10.326759
10.327532
10.328346
10.329198
10.33008
10.330986
10.331899
10.332792
10.33362
10.334334
10.334952
10.335522
10.336303
10.337229
10.33817
10.403645
10.402695
10.401827
10.401144
10.400733
10.400286
10.399761
10.399133
10.39845
10.397754
10.397067
10.396402
10.395763
10.395155
10.39458
10.394041
10.393538
10.393072
10.392643
10.392251
10.391894
10.391572
10.391284
10.391028
10.390803
10.390609
10.390444
10.39031
10.390206
10.390129
10.390064
10.389983
10.38985
10.389707
10.389614
10.389903
10.390498
10.461287
10.460669
10.460353
10.460454
10.460583
10.460703
10.460761
10.460799
10.460846
10.460914
10.461005
10.461118
10.461253
10.46141
10.46159
10.461792
10.462019
10.462272
10.46255
10.462855
10.463187
10.463547
10.463933
10.464346
10.464784
10.465246
10.46573
10.466232
10.466746
10.467251
10.467709
10.468071
10.468374
10.468642
10.469248
10.470065
10.471042
10.540412
10.53938
10.538601
10.538047
10.537902
10.537712
10.537483
10.53716
10.536799
10.536433
10.536078
10.53574
10.535419
10.535115
10.53483
10.534563
10.534316
10.534087
10.533878
10.533687
10.533515
10.53336
10.533222
10.533099
10.532992
10.532901
10.532824
10.532765
10.532723
10.532699
10.532682
10.532643
10.532536
10.532423
10.532308
10.532659
10.533299
10.606622
10.605969
10.605577
10.605712
10.605806
10.605902
10.605923
10.605923
10.60593
10.605953
10.60599
10.60604
10.6061
10.606171
10.606251
10.606342
10.606444
10.606557
10.606683
10.606821
10.606971
10.607134
10.60731
10.607498
10.607699
10.607912
10.608138
10.608379
10.608631
10.608883
10.609104
10.609231
10.609339
10.609379
10.609906
10.610651
10.611772
10.685064
10.683815
10.683122
10.682603
10.68266
10.682604
10.682552
10.682403
10.682232
10.682062
10.681907
10.681763
10.681629
10.681504
10.681387
10.681277
10.681176
10.681083
10.680997
10.680918
10.680847
10.680784
10.680726
10.680676
10.680631
10.680592
10.680561
10.680539
10.68053
10.680536
10.680549
10.680546
10.680456
10.680385
10.680218
10.680653
10.681289
10.757139
10.756578
10.756103
10.756323
10.756369
10.756457
10.756445
10.756423
10.756408
10.756409
10.756421
10.756439
10.756463
10.75649
10.75652
10.756554
10.756592
10.756633
10.756679
10.756729
10.756783
10.756842
10.756905
10.756972
10.757045
10.757123
10.757208
10.757304
10.757414
10.75753
10.75763
10.757625
10.757652
10.757498
10.758022
10.758616
10.759948
10.835834
10.834397
10.833987
10.833447
10.833711
10.833691
10.833742
10.833673
10.833596
10.833526
10.83347
10.833424
10.833383
10.833346
10.833311
10.833278
10.833247
10.833219
10.833192
10.833168
10.833146
10.833125
10.833107
10.833089
10.833074
10.83306
10.833049
10.833044
10.833048
10.833067
10.833094
10.833116
10.833021
10.833002
10.832703
10.833218
10.833609
10.909583
10.909493
10.908933
10.90934
10.909323
10.909435
10.909405
10.909377
10.909357
10.909352
10.909354
10.90936
10.909368
10.909376
10.909385
10.909395
10.909405
10.909415
10.909427
10.909439
10.909452
10.909466
10.909481
10.909496
10.909513
10.909531
10.909553
10.909582
10.909627
10.909678
10.90973
10.909638
10.909673
10.909284
10.909855
10.909954
10.911204
10.984852
10.983664
10.983998
10.983364
10.9839
10.983815
10.983939
10.983887
10.983852
10.983823
10.983809
10.983801
10.983795
10.98379
10.983785
10.98378
10.983775
10.983771
10.983766
10.983762
10.983757
10.983752
10.983748
10.983744
10.983739
10.983735
10.983731
10.98373
10.983733
10.983753
10.983779
10.983823
10.983691
10.983768
10.983226
10.983856
10.983518
11.053881
11.054766
11.054008
11.054704
11.054515
11.054658
11.054592
11.054568
11.05455
11.054549
11.054551
11.054554
11.054557
11.054559
11.054561
11.054562
11.054564
11.054566
11.054567
11.054568
11.05457
11.054571
11.054571
11.054572
11.054572
11.054572
11.054573
11.054577
11.054598
11.054624
11.054693
11.054552
11.054743
11.054049
11.054808
11.053924
11.054818
11.055266
11.121598
11.12127
11.121345
11.121312
11.121607
11.12168
11.121736
11.12171
11.121686
11.121669
11.121662
11.12166
11.121659
11.121659
11.121659
11.121659
11.121659
11.121659
11.121658
11.121657
11.121657
11.121657
11.121656
11.121655
11.121654
11.121653
11.121653
11.121654
11.12166
11.121676
11.121699
11.121725
11.121668
11.121595
11.121299
11.121332
11.121256
11.121584
11.12188
11.12188
11.121841
11.122021
11.122301
11.122482
11.122534
11.122519
11.122491
11.122471
11.122462
11.122459
11.122458
11.122459
11.122459
11.122462
11.122462
11.122463
11.122463
11.122465
11.122466
11.122467
11.122467
11.122467
11.122469
11.12247
11.122472
11.122478
11.122489
11.12251
11.12254
11.122557
11.122506
11.122327
11.122048
11.121869
11.121908
11.121908
11.122822
11.122603
11.122624
11.122901
11.123235
11.123436
11.123486
11.123462
11.123426
11.1234
11.123386
11.123379
11.123375
11.123372
11.12337
11.123369
11.123367
11.123366
11.123364
11.123362
11.123361
11.12336
11.123358
11.123357
11.123355
11.123355
11.123355
11.123359
11.12337
11.123392
11.123425
11.123446
11.123394
11.12319
11.122854
11.122575
11.122553
11.122772
11.122903
11.123039
11.12317
11.123512
11.123871
11.124073
11.124115
11.124084
11.124046
11.124021
11.12401
11.124006
11.124006
11.124007
11.124008
11.12401
11.124012
11.124014
11.124016
11.124019
11.124021
11.124024
11.124026
11.124029
11.124032
11.124036
11.124041
11.124051
11.124067
11.124097
11.12414
11.124176
11.124138
11.123941
11.123585
11.123247
11.123117
11.122981
11.123411
11.123419
11.12357
11.123916
11.124261
11.12444
11.124461
11.124414
11.124364
11.12433
11.124311
11.1243
11.124293
11.124288
11.124283
11.124279
11.124275
11.124272
11.124269
11.124266
11.124263
11.12426
11.124257
11.124255
11.124253
11.124251
11.124251
11.124255
11.124266
11.124293
11.124336
11.124376
11.124349
11.124163
11.123812
11.123462
11.123307
11.123299
11.123222
11.123346
11.1235
11.123832
11.12416
11.124327
11.124342
11.124294
11.124247
11.12422
11.124208
11.124205
11.124206
11.124208
11.124211
11.124214
11.124217
11.12422
11.124224
11.124228
11.124232
11.124237
11.124242
11.124247
11.124253
11.12426
11.124268
11.124281
11.124302
11.124339
11.124395
11.124451
11.124445
11.124286
11.123966
11.123641
11.123492
11.123369
11.123422
11.123494
11.123626
11.123931
11.124233
11.124378
11.124376
11.124313
11.124254
11.124215
11.124192
11.124178
11.124168
11.12416
11.124152
11.124146
11.12414
11.124134
11.124129
11.124125
11.12412
11.124116
11.124112
11.124109
11.124106
11.124103
11.124102
11.124105
11.124117
11.124144
11.124192
11.124243
11.124236
11.124081
11.123769
11.123456
11.123319
11.123243
11.123243
11.123318
11.123456
11.12377
11.124081
11.124237
11.124244
11.124193
11.124145
11.124118
11.124107
11.124105
11.124106
11.124109
11.124112
11.124116
11.12412
11.124125
11.12413
11.124135
11.12414
11.124147
11.124154
11.124161
11.124169
11.124178
11.124189
11.124205
11.124229
11.124269
11.124329
11.124393
11.124397
11.124252
11.123951
11.123646
11.123516
11.123446
11.123437
11.123554
11.123699
11.124022
11.12434
11.124497
11.1245
11.124441
11.124382
11.124341
11.124317
11.124301
11.124289
11.124279
11.124271
11.124263
11.124256
11.124249
11.124243
11.124238
11.124232
11.124228
11.124223
11.124219
11.124216
11.124213
11.124211
11.124214
11.124225
11.124252
11.124297
11.124344
11.124329
11.124161
11.123833
11.123501
11.123347
11.123222
11.123299
11.123308
11.123463
11.123814
11.124166
11.124352
11.124381
11.124341
11.124299
11.124273
11.124257
11.124252
11.124253
11.124256
11.12426
11.124264
11.124268
11.124273
11.124278
11.124284
11.12429
11.124297
11.124304
11.124312
11.12432
11.12433
11.124342
11.124359
11.124389
11.124428
11.124483
11.124534
11.124516
11.124339
11.123997
11.123655
11.12351
11.12351
11.123094
11.123219
11.123341
11.123677
11.124031
11.124226
11.124261
11.124222
11.124175
11.124139
11.1241
11.12405
11.124032
11.124022
11.124014
11.124007
11.124
11.123993
11.123988
11.123982
11.123977
11.123973
11.123968
11.123964
11.123961
11.123959
11.123966
11.124003
11.12403
11.124055
11.124091
11.124121
11.124077
11.123874
11.123514
11.123171
11.123039
11.122903
11.122773
11.122553
11.122576
11.122856
11.123194
11.123399
11.123453
11.123434
11.123403
11.123381
11.123351
11.123272
11.12317
11.123156
11.123157
11.12316
11.123165
11.123169
11.123174
11.123179
11.123184
11.123189
11.123196
11.123202
11.123212
11.123236
11.12335
11.12344
11.123479
11.12351
11.123549
11.123575
11.123526
11.123325
11.122991
11.122716
11.122702
11.122932
11.122008
11.121999
11.121954
11.122133
11.122413
11.122593
11.122646
11.122628
11.122597
11.12257
11.122534
11.122435
11.122241
11.122051
11.122021
11.122012
11.122006
11.122001
11.121997
11.121992
11.121988
11.121984
11.121981
11.12198
11.122002
11.122181
11.122365
11.122455
11.122484
11.122503
11.122529
11.122543
11.122488
11.122306
11.122024
11.121843
11.121881
11.12188
11.121584
11.121257
11.121333
11.121302
11.1216
11.121675
11.121734
11.12171
11.121689
11.121673
11.121648
11.121557
11.121358
11.121078
11.120862
11.120839
11.120839
11.120842
11.120846
11.12085
11.120855
11.120859
11.120867
11.120899
11.121123
11.121414
11.121621
11.121719
11.121751
11.121772
11.121797
11.121822
11.121764
11.121689
11.121393
11.121425
11.121353
11.121684
11.055577
11.056064
10.986804
10.914595
10.841946
10.77162
10.707423
10.6548
10.6234
10.632535
10.745915
10.890677
11.229086
11.971437
13.559203
16.158763
21.396113
29.477944
33.522407
35.742973
36.814662
40.859155
41.336258
45.105332
46.930564
52.03963
54.357497
57.657472
58.244849
62.394578
65.681222
69.712909
77.646005
77.726583
76.295844
74.925871
73.664282
73.135379
69.614171
64.171645
60.945956
58.438146
56.032554
52.549277
45.360866
64.057748
43.818438
58.882539
89.527258
85.114683
73.161493
55.443335
43.249979
31.745505
20.067452
17.471897
13.340486
11.657556
10.976627
11.15894
11.421791
12.484332
15.208835
17.674319
22.345294
27.206749
24.556835
49.410079
67.734539
90.075482
110.50745
116.50999
115.94169
114.40245
113.17231
150.09894
107.3564
109.66929
115.76464
128.59946
114.25855
74.741163
76.652676
56.194628
45.946771
35.570463
27.237396
22.930932
28.797016
38.532731
50.559204
66.896412
104.86023
91.003137
60.983127
47.048222
71.114604
80.383475
51.610298
26.084164
34.438527
19.98579
24.182451
31.055523
62.94795
128.21213
90.998363
113.80685
133.81561
119.36939
108.53613
209.70707
92.845347
114.05392
123.1204
170.64067
122.42669
72.59225
41.412522
25.424287
17.897929
13.735279
11.981806
11.295236
10.719557
10.473767
10.357935
10.297668
10.263715
10.243958
10.231851
10.223974
10.218715
10.215319
10.213459
10.212618
10.211674
10.210625
10.209627
10.208725
10.207735
10.206604
10.205328
10.203958
10.202545
10.201125
10.199724
10.198356
10.197034
10.195767
10.194562
10.193424
10.192356
10.19136
10.190435
10.189582
10.1888
10.188087
10.187443
10.186867
10.186358
10.185916
10.185541
10.185232
10.184981
10.184772
10.184575
10.184364
10.184167
10.184073
10.184298
10.184815
10.185444
10.185825
10.119302
10.053803
9.9893094
9.9257992
9.8632456
9.8016155
9.7408711
9.6809696
9.6218669
9.5635213
9.5058954
9.44896
9.3926967
9.3370993
9.2821734
9.2279364
9.1744188
9.1216564
9.0697003
9.0186118
8.9684712
8.9689973
8.9694149
8.9700469
8.9711784
8.97303
8.9756006
8.9787465
8.9824244
8.9864393
8.9907248
8.995087
8.9993705
9.0034287
9.0072252
9.0107109
9.0139638
9.0170532
9.0200085
9.0229302
9.0766535
9.0738
9.0709818
9.0681795
9.0653477
9.0624111
9.0593265
9.0560214
9.0524311
9.0485678
9.0444748
9.0402876
9.036153
9.0322557
9.0286857
9.025606
9.0230799
9.0212259
9.0200586
9.0194044
9.0190119
9.0700079
9.0703687
9.0710201
9.0721889
9.0740153
9.0764839
9.079488
9.0829533
9.0867432
9.0907503
9.094798
9.0987401
9.102446
9.1058725
9.1090266
9.1119676
9.11477
9.1174851
9.1201743
9.122879
9.1256164
9.1283711
9.1311552
9.1837226
9.1810301
9.1783538
9.1757048
9.1730765
9.1704757
9.1678894
9.1652766
9.1625851
9.1597562
9.1567177
9.1534098
9.1498184
9.1459854
9.1420423
9.1381389
9.1344471
9.1310823
9.128164
9.1257688
9.1239878
9.1228453
9.122217
9.1218898
9.1745939
9.1748803
9.1754701
9.1765659
9.178283
9.1805921
9.183415
9.1866796
9.1902787
9.1940968
9.1979645
9.2017264
9.2052465
9.2084797
9.2114416
9.2141916
9.2168004
9.2193307
9.2218303
9.2243398
9.2268707
9.2294224
9.2319966
9.2345818
9.2371672
9.2397258
9.2422397
9.2446926
9.2470559
9.3112826
9.3106517
9.3097392
9.3086307
9.3073784
9.3059691
9.3043717
9.302574
9.3005908
9.298454
9.296196
9.293847
9.291433
9.2889735
9.2864867
9.2839943
9.2815087
9.2790395
9.2765878
9.2741505
9.271714
9.2692412
9.2666841
9.2639788
9.2610554
9.2578583
9.2543748
9.2506563
9.2468452
9.2431057
9.2396008
9.2364437
9.2337262
9.231515
9.2298788
9.2288449
9.228306
9.2280641
9.2822618
9.2824533
9.2829302
9.2838884
9.2854298
9.2875301
9.2901281
9.2931649
9.2965644
9.30022
9.3039762
9.3076628
9.3111315
9.314321
9.3172377
9.3199309
9.3224681
9.3249127
9.327313
9.3297038
9.3321014
9.3345106
9.336929
9.3393484
9.3417558
9.3441326
9.3464607
9.3487196
9.3508851
9.3529287
9.3548194
9.3565264
9.3580351
9.3593586
9.3605338
9.3615812
9.3624578
9.3630792
9.4159365
9.4153196
9.4144703
9.4134735
9.4123652
9.4111162
9.4096837
9.4080529
9.4062383
9.404269
9.4021755
9.3999846
9.3977198
9.3954012
9.3930469
9.3906735
9.3882942
9.3859164
9.3835426
9.3811671
9.378772
9.3763239
9.3737755
9.3710662
9.3681337
9.3649368
9.3614778
9.3578303
9.3541467
9.3505972
9.3473271
9.3444321
9.3419732
9.3399997
9.3385664
9.3376958
9.3372895
9.337151
9.392714
9.392796
9.3931254
9.3938984
9.3952108
9.3970401
9.3993363
9.4020598
9.4051648
9.4085691
9.4121418
9.4157188
9.4191492
9.4223491
9.4253056
9.4280496
9.430635
9.4331172
9.4355404
9.437936
9.4403209
9.442701
9.4450749
9.4474349
9.4497683
9.4520592
9.4542904
9.4564419
9.4584905
9.4604105
9.4621726
9.4637482
9.4651236
9.466315
9.4673706
9.4683296
9.4691617
9.46978
9.5244992
9.5238731
9.5230474
9.5221108
9.5210889
9.5199341
9.5185927
9.517047
9.5153098
9.5134089
9.5113731
9.5092277
9.5069944
9.504693
9.5023419
9.4999572
9.4975521
9.4951349
9.4927078
9.4902656
9.487792
9.4852586
9.4826261
9.479847
9.476878
9.4737
9.470337
9.4668789
9.4634691
9.4602589
9.4573617
9.4548421
9.4527323
9.4510633
9.4498824
9.4492141
9.4489666
9.4489434
9.5058452
9.5058073
9.5059697
9.5065286
9.5075706
9.509066
9.5109679
9.5132527
9.5159011
9.5188657
9.5220521
9.5253313
9.5285728
9.531686
9.5346379
9.5374356
9.5401097
9.5426981
9.5452332
9.5477391
9.5502293
9.5527069
9.5551688
9.557606
9.5600044
9.5623478
9.5646175
9.5667938
9.5688545
9.5707734
9.5725217
9.5740712
9.5754085
9.5765525
9.5775617
9.5784918
9.5793229
9.5799644
9.6360099
9.6353442
9.6344937
9.6335502
9.6325307
9.6313715
9.6300099
9.6284267
9.6266364
9.6246684
9.6225526
9.6203158
9.6179812
9.6155695
9.6131002
9.6105912
9.6080576
9.6055097
9.6029523
9.600385
9.5977976
9.5951716
9.5924825
9.5897033
9.5868156
9.5838233
9.5807662
9.5777269
9.5748177
9.5721446
9.5697799
9.567754
9.566075
9.5647614
9.5638616
9.5634137
9.5633374
9.5634372
9.6217499
9.6215886
9.6215795
9.6219178
9.6226767
9.6238074
9.6252572
9.6270109
9.62907
9.6314194
9.6340086
9.6367565
9.6395719
9.6423819
9.6451464
9.6478545
9.6505129
9.6531386
9.6557478
9.6583529
9.6609602
9.6635669
9.6661663
9.6687468
9.6712917
9.6737817
9.676196
9.6785125
9.6807064
9.6827494
9.6846092
9.6862545
9.6876678
9.6888679
9.6899198
9.690895
9.6917778
9.6924753
9.7491973
9.7484617
9.7475352
9.7465133
9.7454121
9.7441532