/*--------------------------------*- C++ -*----------------------------------*\
| =========                 |                                                 |
| \\      /  F ield         | OpenFOAM: The Open Source CFD Toolbox           |
|  \\    /   O peration     | Version:  v2012                                 |
|   \\  /    A nd           | Website:  www.openfoam.com                      |
|    \\/     M anipulation  |                                                 |
\*---------------------------------------------------------------------------*/
FoamFile
{
    version     2.0;
    format      ascii;
    class       volVectorField;
    location    "100";
    object      U;
}
// * * * * * * * * * * * * * * * * * * * * * * * * * * * * * * * * * * * * * //

dimensions      [0 1 -1 0 0 0 0];


internalField   nonuniform List<vector> 
24571
(
(5.0001667 0.00031943811 -0.00063142987)
(5.0001678 0.00010802653 -0.00064624957)
(5.0000231 3.598155e-05 -0.0002133307)
(5.0000328 3.5444057e-05 -7.3644798e-05)
(5.000032 0.00010285561 -7.1192655e-05)
(5.0000307 0.00017091087 -7.2508841e-05)
(5.0000307 0.0002336144 -6.8297026e-05)
(5.0000319 0.000292599 -6.7336747e-05)
(5.0000331 0.00033577361 -6.3095078e-05)
(5.0000358 0.00036697957 -5.9552024e-05)
(5.0000375 0.00038030412 -5.6197388e-05)
(5.0000396 0.00037788943 -5.2585177e-05)
(5.0000414 0.00035987866 -4.9752209e-05)
(5.0000436 0.00032558432 -4.5608645e-05)
(5.0000458 0.00028070508 -4.3993635e-05)
(5.0000461 0.000223145 -4.1648155e-05)
(5.0000483 0.00016353433 -4.2332352e-05)
(5.000047 0.00010002068 -4.281748e-05)
(5.0000523 3.4929189e-05 -4.3960058e-05)
(5.0000462 3.3810626e-05 -0.00012800475)
(5.0000484 3.3042027e-05 -0.00021393702)
(5.0000477 3.2856883e-05 -0.00030254995)
(5.0000492 3.5054054e-05 -0.0003978265)
(5.0000486 3.7282635e-05 -0.00048915854)
(5.000048 4.1978891e-05 -0.0005795799)
(5.0000479 4.5945433e-05 -0.00066264574)
(5.000048 5.0636249e-05 -0.00073941728)
(5.0000489 5.5063687e-05 -0.00080831992)
(5.0000501 5.9731612e-05 -0.00086957013)
(5.0000516 6.4715292e-05 -0.00092319195)
(5.0000534 7.0096248e-05 -0.00096949685)
(5.0000555 7.5847749e-05 -0.0010088468)
(5.0000579 8.1953825e-05 -0.0010417056)
(5.0000605 8.839875e-05 -0.0010685782)
(5.0000635 9.518642e-05 -0.0010899749)
(5.0000668 0.00010232749 -0.0011063557)
(5.0000704 0.00010983234 -0.0011180971)
(5.0000743 0.000117717 -0.0011254607)
(5.0000785 0.00012600174 -0.0011285719)
(5.0000829 0.00013470062 -0.0011274074)
(5.0000874 0.00014381734 -0.0011217988)
(5.0000922 0.00015334826 -0.0011114447)
(5.0000971 0.00016326192 -0.0010959176)
(5.000102 0.00017350964 -0.0010746794)
(5.000107 0.00018403643 -0.0010471342)
(5.0001121 0.00019475948 -0.0010126628)
(5.0001171 0.00020556779 -0.00097063755)
(5.000122 0.00021632637 -0.00092049793)
(5.0001266 0.00022690761 -0.00086167883)
(5.0001309 0.00023729471 -0.00079393263)
(5.0001342 0.00024744241 -0.00071664866)
(5.0001377 0.00025781321 -0.00063165735)
(5.0001393 0.00026570118 -0.00053695129)
(5.0001432 0.00027696178 -0.00044035046)
(5.0001439 0.0002768707 -0.00033721831)
(5.0001477 0.00028882381 -0.00023972741)
(5.0001483 0.00028478334 -0.00014386214)
(5.0001448 0.00029285015 -5.0881066e-05)
(5.0001077 0.00084271822 -5.2988558e-05)
(5.0001166 0.0013960314 -7.1159449e-05)
(5.0001029 0.0019467856 -7.5663235e-05)
(5.0000951 0.0025179638 -8.311586e-05)
(5.0000731 0.0030267326 -8.5465973e-05)
(5.0000409 0.00348981 -8.4079843e-05)
(5.000003 0.0038453345 -9.3132989e-05)
(4.9999585 0.0040761227 -0.00010077471)
(4.9999043 0.0041505902 -0.00011406111)
(4.9998326 0.004005941 -0.00011333747)
(4.9997623 0.0036760233 -0.00012679255)
(4.9997028 0.0030728963 -0.00013627709)
(4.9996377 0.0023303251 -0.00015613721)
(4.9996229 0.0014361221 -0.00018542736)
(4.9995969 0.00049703679 -0.00019773266)
(4.9996357 0.00047784312 -0.00057818317)
(4.9996318 0.00046862011 -0.00095310138)
(4.9996552 0.00044184232 -0.0013196988)
(4.9996679 0.00043461536 -0.0016828682)
(4.9996981 0.00041136577 -0.0019900924)
(4.9997286 0.00039929316 -0.0022516948)
(4.9997582 0.00037772799 -0.0024472438)
(4.9997855 0.00035727621 -0.0025888361)
(4.9998089 0.00033387898 -0.0026796701)
(4.9998297 0.00031044472 -0.0027289612)
(4.9998482 0.00028771035 -0.0027441512)
(4.9998647 0.00026625118 -0.0027323779)
(4.9998794 0.0002461256 -0.0026996889)
(4.9998923 0.00022734138 -0.002651313)
(4.9999037 0.00020986881 -0.0025916328)
(4.9999137 0.00019367451 -0.0025242391)
(4.9999225 0.00017867894 -0.0024519983)
(4.9999302 0.00016480835 -0.0023771584)
(4.9999371 0.00015198992 -0.0023013661)
(4.9999432 0.00014014474 -0.0022256992)
(4.9999488 0.00012919142 -0.0021506798)
(4.9999541 0.00011904459 -0.0020762956)
(4.9999591 0.00010962825 -0.0020020361)
(4.9999641 0.00010086323 -0.0019269319)
(4.9999691 9.2683347e-05 -0.001849638)
(4.9999742 8.5035626e-05 -0.0017685496)
(4.9999794 7.7862397e-05 -0.0016819419)
(4.9999847 7.1117185e-05 -0.001588138)
(4.9999899 6.4791531e-05 -0.0014856891)
(4.9999952 5.8992137e-05 -0.0013733546)
(4.9999999 5.3856108e-05 -0.0012504261)
(5.0000066 5.0288193e-05 -0.0011162534)
(5.0000122 4.7389023e-05 -0.00097331191)
(5.0000181 4.6181731e-05 -0.00081933313)
(5.0000219 4.4822663e-05 -0.00066508841)
(5.0000231 4.1606395e-05 -0.00050514008)
(5.0000251 4.0726769e-05 -0.00035684989)
(5.0001603 0.00011552598 -0.0010837582)
(5.0001469 0.00012230189 -0.0015474384)
(5.0001317 0.00013146594 -0.0020276267)
(5.0001077 0.00013923046 -0.0025074176)
(5.0000791 0.00014673963 -0.002972157)
(5.0000457 0.00015690169 -0.003410712)
(5.0000095 0.00016912959 -0.0038184433)
(4.9999716 0.00018440482 -0.004193287)
(4.9999329 0.00020188643 -0.00453551)
(4.9998939 0.00022119915 -0.0048477213)
(4.9998551 0.00024202368 -0.0051333972)
(4.9998172 0.00026432857 -0.0053970795)
(4.9997802 0.00028818789 -0.0056439327)
(4.999744 0.00031373825 -0.0058792711)
(4.999708 0.00034110953 -0.0061080831)
(4.9996715 0.0003705028 -0.0063344939)
(4.9996336 0.00040217778 -0.0065615123)
(4.999593 0.00043638591 -0.0067907105)
(4.9995486 0.00047338036 -0.0070221576)
(4.9994991 0.00051341627 -0.0072542507)
(4.9994434 0.00055674949 -0.0074837268)
(4.9993801 0.00060363215 -0.0077055597)
(4.9993079 0.00065430654 -0.007912952)
(4.9992254 0.00070894935 -0.0080971329)
(4.9991313 0.0007676618 -0.008247165)
(4.9990243 0.00083046075 -0.008349655)
(4.9989033 0.00089722067 -0.0083886711)
(4.9987671 0.00096749586 -0.0083456091)
(4.9986151 0.0010399725 -0.0081991355)
(4.9984471 0.0011126543 -0.0079256888)
(4.9982645 0.0011817363 -0.0075004645)
(4.9980711 0.0012499534 -0.0069014771)
(4.9978787 0.0013087355 -0.0061162517)
(4.9976937 0.0013733125 -0.0051556411)
(4.9975501 0.0014179032 -0.0040626749)
(4.9974189 0.0014631794 -0.0029050237)
(4.9973364 0.0014897861 -0.0017534739)
(4.9972157 0.001500004 -0.0005920068)
(4.9916571 0.0027070374 -0.0010680058)
(4.9820769 0.0040819729 -0.0015790607)
(4.9673503 0.0059150185 -0.0022318536)
(4.94615 0.0082712118 -0.0030362934)
(4.9166875 0.011484624 -0.0040526089)
(4.8771058 0.016331342 -0.0056458365)
(4.8242518 0.023262882 -0.007897322)
(4.7566961 0.036255161 -0.01122916)
(4.6629955 0.060547673 -0.016584001)
(4.5411224 0.059036029 -0.024472687)
(4.3920696 0.057253681 -0.030348057)
(4.2115802 0.085142727 -0.035917029)
(3.9751087 0.16877598 -0.062428194)
(3.6272254 0.19336222 -0.11728102)
(3.1821529 0.17991233 -0.12141598)
(2.6519528 0.17748738 -0.16479822)
(1.9284611 0.019131662 -0.23778702)
(1.4292671 0.47624532 -0.30995544)
(2.002521 1.5410084 -0.1672441)
(2.9398153 2.1678095 -0.060161792)
(3.387182 2.39562 -0.012829331)
(3.9947867 2.2837983 -0.031160599)
(4.2941418 2.2536487 -0.012794187)
(4.6033198 2.1178235 0.013361592)
(4.7817319 1.9310765 0.019488616)
(4.9768293 1.7350376 0.011740366)
(5.0862978 1.661101 0.017438413)
(5.2106238 1.5557258 0.023746877)
(5.2953843 1.4319553 0.020319976)
(5.3871995 1.311893 0.013626523)
(5.4421492 1.2551383 0.015282053)
(5.5078234 1.1766594 0.015720722)
(5.55595 1.0963771 0.01446982)
(5.5946034 1.023259 0.013926438)
(5.6281954 0.95276597 0.013882857)
(5.6517612 0.87590427 0.011853282)
(5.6849733 0.82590796 0.0098089235)
(5.7126933 0.78769382 0.010887899)
(5.7385116 0.73178948 0.011518119)
(5.7594153 0.68339161 0.006484463)
(5.7732843 0.6233791 0.005395383)
(5.7740323 0.58730329 0.010103592)
(5.7966805 0.57017723 0.012047559)
(5.8081393 0.53729555 0.015736858)
(5.82644 0.48927402 0.017626449)
(5.8403703 0.43501223 0.016872943)
(5.8471549 0.37763898 0.011950437)
(5.8431766 0.32043612 0.005945602)
(5.8472642 0.2925513 0.0058377986)
(5.8530721 0.25236853 0.0071887164)
(5.8533204 0.22550411 0.0061675426)
(5.854799 0.193038 0.0059849037)
(5.854554 0.16641212 0.0058181781)
(5.8540007 0.13709748 0.0054679484)
(5.8525535 0.11175717 0.0053603285)
(5.8500644 0.084188324 0.0049504766)
(5.8477748 0.061297145 0.0047300843)
(5.8435235 0.034317627 0.0045349235)
(5.8402374 0.015025454 0.0037659559)
(5.8340937 -0.012072928 0.0044592043)
(5.8320569 -0.026441353 0.0036693874)
(5.8267561 -0.05467681 0.0041031671)
(5.8206487 -0.068289712 0.0030646918)
(5.815824 -0.091626045 0.0038142572)
(5.8070689 -0.10861737 0.0030704264)
(5.8026245 -0.12487042 0.0028485926)
(5.7932665 -0.14612661 0.0030149617)
(5.7891736 -0.15644168 0.002105468)
(5.7824846 -0.17986429 0.0032036785)
(5.7715048 -0.1934355 0.0022614778)
(5.766208 -0.21010291 0.0025161394)
(5.7563846 -0.2275546 0.0031419236)
(5.7453248 -0.24010472 0.006158792)
(5.7327341 -0.25577956 0.0062468173)
(5.7182186 -0.27385784 0.0057574197)
(5.7053067 -0.28856639 0.0045809557)
(5.6902207 -0.30647295 0.0041440626)
(5.674929 -0.32020657 0.0026421685)
(5.1923484 0.0027734065 -0.017724294)
(5.1810143 0.0031514795 -0.021761584)
(5.166928 0.0034756295 -0.02516778)
(5.1507092 0.003716816 -0.027534151)
(5.1333374 0.0038462299 -0.028547374)
(5.1160284 0.003854136 -0.028266971)
(5.0995037 0.003752624 -0.026971741)
(5.08438 0.0035661638 -0.02497425)
(5.0709262 0.003320672 -0.022593515)
(5.0592141 0.0030406197 -0.020081781)
(5.0491672 0.0027458906 -0.017617897)
(5.0406314 0.0024514062 -0.015311405)
(5.033419 0.0021674593 -0.013218653)
(5.0273396 0.0019004987 -0.011358464)
(5.0222167 0.0016539478 -0.0097259368)
(5.0178958 0.0014289903 -0.0083026698)
(5.0142467 0.0012251933 -0.0070638195)
(5.011163 0.0010410094 -0.0059825389)
(5.0085602 0.00087453715 -0.0050330816)
(5.0063742 0.00072405015 -0.0041921961)
(5.0045597 0.00058912102 -0.0034415038)
(5.0030867 0.00046854829 -0.0027643666)
(5.0019372 0.00036302071 -0.0021546476)
(5.0010894 0.00026872717 -0.0016009686)
(5.0005115 0.00018474472 -0.0011036878)
(5.0004834 0.00019580665 -0.0018636709)
(5.0004451 0.0002094618 -0.0026676388)
(5.0003931 0.00022536045 -0.0034981449)
(5.0003222 0.00024099052 -0.0043286626)
(5.0002364 0.00025694523 -0.0051313441)
(5.0001372 0.00027621671 -0.0058886777)
(5.0000286 0.00029933386 -0.0065912805)
(4.9999137 0.00032699036 -0.0072363069)
(4.9997952 0.00035839813 -0.0078244861)
(4.9996755 0.0003929781 -0.0083601032)
(4.9995568 0.00043029145 -0.0088494574)
(4.9994406 0.00047030574 -0.009300699)
(4.9993273 0.00051311078 -0.0097230831)
(4.9992165 0.0005589215 -0.010126112)
(4.9991065 0.00060795496 -0.010518637)
(4.9989951 0.00066060276 -0.010908081)
(4.9988791 0.00071733706 -0.01129976)
(4.9987551 0.00077864291 -0.011696547)
(4.9986195 0.00084498712 -0.012098579)
(4.9984683 0.00091686968 -0.01250319)
(4.9982978 0.00099475772 -0.012904781)
(4.998104 0.0010791753 -0.013294783)
(4.9978829 0.0011705995 -0.013661547)
(4.9976305 0.001269388 -0.013990093)
(4.9973423 0.0013757381 -0.014261588)
(4.9970144 0.0014896818 -0.01445305)
(4.9966429 0.0016109516 -0.014536855)
(4.9962246 0.0017387273 -0.014480529)
(4.9957581 0.0018710783 -0.014246595)
(4.995244 0.0020048822 -0.013793037)
(4.994688 0.002136142 -0.013075538)
(4.9941028 0.0022646765 -0.012052708)
(4.9935167 0.0023866466 -0.010701187)
(4.9929624 0.0025027586 -0.0090340908)
(4.9924945 0.0025899558 -0.0071264968)
(4.9921144 0.0026450653 -0.0050907825)
(4.9918495 0.0026800139 -0.0030570829)
(4.9824013 0.0041320956 -0.0045867515)
(4.9679037 0.0059985638 -0.0065092784)
(4.9469675 0.0084494494 -0.0089606444)
(4.9179418 0.011822766 -0.012216568)
(4.8783746 0.01679305 -0.016643365)
(4.8243503 0.024310642 -0.022821749)
(4.7526892 0.038228559 -0.031096145)
(4.632559 0.075847395 -0.04025117)
(4.5120432 0.064646235 -0.042936886)
(4.5048539 0.070069805 -0.051906667)
(4.5145249 0.05949952 -0.10167476)
(4.5332079 0.059121429 -0.10583086)
(4.5020922 0.062503503 -0.13153969)
(4.4400399 0.06176225 -0.14408623)
(4.3996829 0.06816109 -0.12517343)
(4.3803242 0.077005163 -0.077152022)
(4.3728967 0.070985024 -0.054377123)
(4.1824729 0.091074041 -0.0807934)
(3.8037744 0.21305173 -0.15117951)
(3.4005124 0.18313716 -0.12749798)
(3.4283797 0.18136182 -0.16396927)
(3.2725375 0.16974189 -0.25327201)
(3.0298671 0.20598683 -0.36692402)
(2.9537804 0.2062193 -0.23822266)
(2.892246 0.14034331 -0.21627473)
(2.6246536 0.15026224 -0.26012981)
(2.0217501 -0.0024085051 -0.348097)
(1.6402106 0.44009579 -0.48580007)
(2.084514 1.3179609 -0.42175194)
(2.9035781 2.0150964 -0.24024027)
(3.4012514 2.3447668 -0.026102113)
(4.0185219 2.3170869 -0.033092243)
(4.2406159 2.3178116 0.026627775)
(4.5856282 2.2038824 0.044165466)
(4.8026782 1.9937566 0.066018452)
(4.9725728 1.7788893 0.037943965)
(5.0701463 1.7016051 0.040378104)
(5.2125213 1.5926716 0.043247755)
(5.3048275 1.4491389 0.043573624)
(5.3799358 1.3353568 0.034341579)
(5.4287569 1.2808644 0.037922174)
(5.4984526 1.2072727 0.038890554)
(5.5520745 1.1225407 0.035773534)
(5.5907113 1.0474739 0.033264013)
(5.6302252 0.96845236 0.031383208)
(5.6535132 0.88651497 0.031484046)
(5.6838082 0.83820641 0.025409688)
(5.7078352 0.80036716 0.025593271)
(5.737017 0.74880251 0.025779643)
(5.7642464 0.68896219 0.022006191)
(5.7737042 0.63555868 0.019774711)
(5.7693094 0.61285115 0.022621826)
(5.770865 0.63696608 0.040502051)
(5.7580239 0.70249534 0.043564392)
(5.7352309 0.76806874 0.046406428)
(5.7055666 0.8176938 0.04600528)
(5.6917635 0.85561663 0.049699058)
(5.6515428 0.91945646 0.052924965)
(5.6279137 0.99018351 0.050724024)
(5.5914628 1.0776914 0.054407494)
(5.5534035 1.1560458 0.057665586)
(5.4964439 1.2474898 0.057402417)
(5.4259856 1.3241481 0.058681873)
(5.3956203 1.3848636 0.064668093)
(5.3076812 1.5266213 0.065872164)
(5.2183952 1.6503964 0.060312307)
(5.0791258 1.7621706 0.051981788)
(4.9992668 1.8445931 0.046283382)
(4.7900822 2.1120136 0.056058903)
(4.6086983 2.2408933 0.0030478554)
(4.3913823 2.3293294 -0.057173052)
(3.7730987 2.5683825 -0.11058207)
(3.3703442 2.2334072 -0.25324615)
(2.7537262 1.8196638 -0.48983796)
(2.1680588 1.2406109 -0.69204383)
(1.7820302 0.35603237 -0.65037183)
(2.1977572 0.020809208 -0.43867841)
(2.2741109 0.11406204 -0.53789493)
(1.7011416 0.02486611 -0.66710462)
(1.4159 0.002940739 -0.99973277)
(1.2063785 0.27390298 -1.1001066)
(1.6217962 0.35029173 -0.6993593)
(1.7690556 0.55906397 -1.1324848)
(2.2952541 0.67217882 -0.65051239)
(1.8337645 0.31368146 -0.80346863)
(1.6162637 0.28777887 -1.0098164)
(1.4574873 0.47478018 -1.263431)
(1.5126858 0.9469511 -1.3636088)
(1.6449353 0.58953115 -1.2910848)
(2.3590652 1.4095972 -0.88780727)
(3.214045 2.084242 -0.11835194)
(3.7335496 2.5375662 -0.09715283)
(4.3457201 2.4043196 -0.082384076)
(4.5598286 2.3375011 -0.013248216)
(4.7680557 2.2286815 0.040185249)
(5.0106267 1.9193936 0.050197222)
(5.0581481 1.8323631 0.043973683)
(5.1936817 1.7210729 0.049522479)
(5.309466 1.5690946 0.060948045)
(5.3499551 1.4710247 0.061285893)
(5.4079661 1.3589989 0.066511887)
(5.4532257 1.3269712 0.059718452)
(5.4921135 1.2657457 0.065096308)
(5.5454897 1.1834139 0.070896179)
(5.5891084 1.1034267 0.066585621)
(5.6262333 1.0130639 0.065636056)
(5.6517147 0.94331382 0.060556865)
(5.6729663 0.88134849 0.055975654)
(5.6995465 0.83581433 0.051807881)
(5.7189808 0.81621492 0.053773325)
(5.7340314 0.77684422 0.05421438)
(5.7545612 0.71757863 0.054203671)
(5.7688611 0.66091423 0.050004985)
(5.7989755 0.61128726 0.045423184)
(5.7969591 0.59496114 0.035315823)
(5.8029607 0.56099954 0.037269661)
(5.8262289 0.50386082 0.041770778)
(5.8496147 0.4369275 0.038640168)
(5.8481454 0.37827703 0.02976539)
(5.8485638 0.38593318 0.039291572)
(5.8430676 0.36412996 0.034314442)
(5.8436008 0.33711851 0.038380965)
(5.843508 0.32786054 0.026943212)
(5.8437739 0.31783291 0.020573119)
(5.8447981 0.36408354 0.020729515)
(5.8434428 0.319631 0.016765513)
(5.8430555 0.3059491 0.0225461)
(5.8422421 0.28999567 0.015268186)
(5.8497561 0.25841395 0.01803087)
(5.852096 0.23108952 0.016261117)
(5.8534834 0.19940844 0.016605505)
(5.8536557 0.17332072 0.015395709)
(5.8532804 0.14327481 0.015260053)
(5.8519913 0.11850258 0.014101962)
(5.8496652 0.090005161 0.013851174)
(5.8472333 0.067306299 0.012507854)
(5.8435051 0.040223997 0.012694772)
(5.8394741 0.019540729 0.010322885)
(5.8333901 -0.006100305 0.011826124)
(5.8313197 -0.0221542 0.010374565)
(5.8264203 -0.048696037 0.010866417)
(5.819818 -0.064665245 0.0089042725)
(5.8149029 -0.085995679 0.0098551404)
(5.8065839 -0.1048416 0.0088124315)
(5.8014469 -0.12087835 0.0079703996)
(5.7929042 -0.14117679 0.008292188)
(5.7878594 -0.15340452 0.0062546443)
(5.7810313 -0.17407174 0.0076261279)
(5.770372 -0.1920961 0.0048935532)
(5.7675252 -0.19516183 0.0056708988)
(5.7676767 -0.1934796 0.0079873482)
(5.7713196 -0.17975987 0.010685895)
(5.7711439 -0.17584441 0.01428738)
(5.7795104 -0.17115779 0.019359624)
(5.7840064 -0.15410145 0.021389874)
(5.7827596 -0.14832164 0.024370933)
(5.7830461 -0.14485895 0.026560522)
(5.7852627 -0.13376179 0.02975828)
(5.7851272 -0.13028719 0.03360797)
(5.7818091 -0.13852151 0.035646159)
(5.7821392 -0.14658695 0.033728251)
(5.7822507 -0.14928239 0.028300081)
(5.7747342 -0.16904939 0.03023431)
(5.7747547 -0.17499142 0.026242284)
(5.7734368 -0.1809286 0.021589576)
(5.7620437 -0.18738834 0.019914295)
(5.7649547 -0.18787924 0.017083686)
(5.7653059 -0.19565678 0.011320472)
(5.7615372 -0.2056584 0.01216287)
(5.7670505 -0.2062106 0.0080547638)
(5.7677283 -0.20590543 0.0056913666)
(5.7657611 -0.22053779 0.0077427724)
(5.7619576 -0.22008986 0.014345773)
(5.7476204 -0.23098447 0.012156167)
(5.7602913 -0.21416611 0.014877098)
(5.7610292 -0.20184029 0.017060221)
(5.7602835 -0.19649647 0.01980971)
(5.7614066 -0.21000309 0.018980443)
(5.7481646 -0.21972156 0.020097128)
(5.7614286 -0.20334692 0.020749446)
(5.7596498 -0.19457324 0.022490851)
(5.7624651 -0.18800623 0.024141268)
(5.7663382 -0.1836096 0.024455304)
(5.7631373 -0.19321337 0.020709985)
(5.7639302 -0.18161326 0.029620219)
(5.7753006 -0.16410126 0.032194183)
(5.7763968 -0.16271134 0.034428954)
(5.7779621 -0.15148815 0.03324883)
(5.7826556 -0.13541645 0.040065097)
(5.7962463 -0.11403099 0.043253541)
(5.7978568 -0.10507214 0.046243032)
(5.7986242 -0.090695357 0.045904334)
(5.7998073 -0.081165416 0.046005236)
(5.7973556 -0.088980691 0.045445834)
(5.7958905 -0.10144302 0.042538612)
(5.7963347 -0.084283777 0.045841882)
(5.8048762 -0.063945453 0.04317227)
(5.8080017 -0.057279261 0.047009373)
(5.8111855 -0.033573429 0.047034818)
(5.812861 -0.018965413 0.045790097)
(5.8196001 0.00038905228 0.049399612)
(5.8254062 0.02473452 0.048215075)
(5.8253507 0.05077704 0.054107068)
(5.8248449 0.062822654 0.05768706)
(5.8379685 0.078998261 0.064926698)
(5.8391416 0.13163769 0.0638616)
(5.8398592 0.11590414 0.060077845)
(5.8334258 0.092491627 0.05710816)
(5.8281038 0.070558449 0.051197806)
(5.8237054 0.047174802 0.051619109)
(5.8180616 0.022454291 0.049227406)
(5.8113688 0.00054009724 0.047369657)
(5.8061411 -0.018948058 0.044704139)
(5.8033929 -0.045835391 0.042539925)
(5.8032378 -0.01605488 0.060016532)
(5.8158724 0.033277696 0.066883031)
(5.8274803 0.083064222 0.071333002)
(5.8374001 0.13919918 0.075843953)
(5.8446937 0.19632599 0.077980787)
(5.8526443 0.26211453 0.084278566)
(5.8547737 0.32474017 0.088334894)
(5.8531621 0.38945873 0.091396062)
(5.8464767 0.45121879 0.091597122)
(5.8408348 0.50040377 0.090888976)
(5.8171011 0.5471885 0.087861063)
(5.8117893 0.58933138 0.087520434)
(5.8044648 0.63457845 0.090595593)
(5.7919532 0.68906708 0.087605455)
(5.780564 0.7281697 0.087140641)
(5.7476159 0.78001335 0.078443549)
(5.7328121 0.84261517 0.077164402)
(5.7107569 0.90927977 0.074467502)
(5.6878941 0.98488237 0.070790289)
(5.6597216 1.0676425 0.066083433)
(5.6153715 1.154137 0.054191982)
(5.5649484 1.2275797 0.041520258)
(5.5412898 1.2862333 0.03022976)
(5.4502316 1.401689 0.0092474354)
(5.3885345 1.5265498 -0.0090417387)
(5.2989465 1.6387813 -0.040674432)
(5.2277074 1.7241358 -0.072614684)
(5.0230935 1.9386002 -0.13049767)
(4.888735 2.1115371 -0.16889617)
(4.6403324 2.2810056 -0.24371357)
(4.4891418 2.3611795 -0.34953226)
(3.8746213 2.6338815 -0.54983075)
(3.1506551 2.5154665 -0.80833902)
(2.0879876 1.7538474 -1.1515374)
(1.9413003 1.1040361 -1.2773247)
(1.8209681 0.9925082 -1.2034378)
(2.017102 0.43130734 -1.3046368)
(2.4800308 0.22022266 -1.1705273)
(2.4262928 0.15362813 -1.1859021)
(2.9482175 0.26195554 -0.94547222)
(3.3451601 0.16451588 -0.66927861)
(3.2124699 0.22573775 -0.71478603)
(3.1079033 0.20603496 -0.7377874)
(3.8480579 0.18322538 -0.45764762)
(4.118516 0.11408445 -0.36086997)
(4.3088781 0.096374863 -0.28446498)
(4.4393691 0.083932954 -0.23615972)
(4.4845853 0.076402172 -0.22175768)
(4.4574072 0.080118071 -0.24454717)
(4.379242 0.082453214 -0.27804939)
(4.2314088 0.11323244 -0.3493203)
(4.0416669 0.16269905 -0.44554816)
(3.5922456 0.27973465 -0.61850174)
(3.1037027 0.17825106 -0.89401686)
(3.3057813 0.18253564 -0.752162)
(3.4422846 0.17938274 -0.74085544)
(3.5890734 0.18627047 -0.65222626)
(3.519333 0.19463543 -0.68421464)
(3.2827046 0.19759012 -0.81429322)
(3.1133318 0.18757294 -0.88980908)
(2.9838779 0.20523296 -0.93560577)
(2.7423033 0.21933566 -1.0942661)
(2.3763173 0.2219607 -1.1271569)
(2.8692191 0.16574015 -0.83866673)
(2.07103 0.32978318 -1.1052396)
(2.2115154 0.53156895 -1.0457546)
(2.0202959 1.4271186 -1.078945)
(2.9578057 2.281685 -0.98666452)
(3.8052617 2.6161062 -0.66194783)
(4.1496136 2.5596001 -0.49366828)
(4.4879459 2.3259726 -0.24393297)
(4.6433847 2.2451288 -0.29378669)
(4.8183988 2.1419728 -0.2000587)
(4.9894166 1.9743009 -0.12863172)
(5.1831916 1.7611691 -0.07043569)
(5.2388921 1.6796323 -0.041774176)
(5.3457921 1.570491 -0.011669281)
(5.4380179 1.4369422 0.011253814)
(5.4760149 1.3351263 0.017734479)
(5.5401483 1.2566186 0.043504578)
(5.5662542 1.2314732 0.041646447)
(5.5996421 1.1726958 0.052723096)
(5.6419026 1.0956746 0.06600129)
(5.6755007 1.0107985 0.073816239)
(5.6999556 0.9344542 0.079247606)
(5.7228432 0.86796876 0.08097951)
(5.740624 0.79528809 0.081303153)
(5.7736411 0.74327739 0.089703679)
(5.7806456 0.70413871 0.090496396)
(5.7967304 0.65840188 0.094267165)
(5.8097638 0.60590727 0.094597673)
(5.8138257 0.558862 0.092299764)
(5.835887 0.51122425 0.099168998)
(5.8343089 0.47342931 0.093992803)
(5.8341924 0.52437465 0.097045297)
(5.8132371 0.56617329 0.092857855)
(5.806217 0.62095541 0.094907213)
(5.7935389 0.67028712 0.09175099)
(5.7871436 0.709475 0.091305277)
(5.7491885 0.76804506 0.083797458)
(5.7379007 0.81333465 0.081440419)
(5.7206138 0.89043269 0.079744249)
(5.691356 0.96594422 0.07578903)
(5.6638021 1.0360912 0.070797189)
(5.6245579 1.123753 0.056914532)
(5.5789744 1.1983458 0.045765513)
(5.5553827 1.2558731 0.03601659)
(5.4625385 1.3641724 0.012901171)
(5.4121243 1.4718849 -0.0017070692)
(5.3223521 1.5988921 -0.033944507)
(5.2479572 1.6852411 -0.065303015)
(5.0689066 1.8816102 -0.12832801)
(4.9607562 2.0294465 -0.15888441)
(4.7426099 2.190642 -0.23561174)
(4.5604713 2.2839551 -0.32468647)
(3.9634015 2.5342539 -0.4953178)
(3.586424 2.5241012 -0.62345222)
(2.8750059 2.1405063 -1.1077881)
(1.682111 1.2444866 -1.6606582)
(2.0060061 0.39330162 -1.6226912)
(2.2715309 0.24959829 -1.2872051)
(1.8431244 1.1667828 -1.4602098)
(2.4650649 2.0695457 -1.180852)
(3.0612058 2.3185592 -0.85460072)
(3.3564341 2.4200935 -0.89550825)
(3.8172604 2.5133075 -0.65274589)
(4.4455338 2.3036748 -0.39170218)
(4.6027924 2.2430609 -0.28464322)
(4.8478588 2.0986593 -0.20270696)
(5.0099209 1.932576 -0.14437655)
(5.2036121 1.7229391 -0.086728217)
(5.2795771 1.6344554 -0.052323101)
(5.3819113 1.5121873 -0.0181481)
(5.4502639 1.395978 -0.00066594056)
(5.4894954 1.313455 0.009683292)
(5.5600737 1.2285808 0.045003144)
(5.5863766 1.2038945 0.040642397)
(5.6123846 1.1399616 0.051779137)
(5.6489526 1.0646797 0.067502126)
(5.6837182 0.98737478 0.070656148)
(5.7119319 0.91625602 0.077670776)
(5.7335675 0.8398013 0.084427493)
(5.7484973 0.78174226 0.084764409)
(5.7842024 0.72463402 0.094688421)
(5.7878804 0.68355928 0.094165431)
(5.8026925 0.63874834 0.098188471)
(5.8160289 0.58216495 0.099903603)
(5.8205906 0.53962535 0.096197936)
(5.8315046 0.51676517 0.10273098)
(5.8447496 0.47875112 0.098010383)
(5.8515477 0.45945106 0.10531739)
(5.8282268 0.50030206 0.096959547)
(5.8273239 0.51607509 0.10255036)
(5.8219852 0.55551824 0.099916454)
(5.8149549 0.60204852 0.10085868)
(5.8022653 0.6516347 0.096494006)
(5.7953992 0.68935021 0.09583736)
(5.7678884 0.7411251 0.085899765)
(5.7503487 0.80135029 0.083692394)
(5.7298824 0.86653559 0.083327303)
(5.7032716 0.94022165 0.07470166)
(5.6781446 1.0111306 0.06696419)
(5.6340095 1.1002557 0.058990972)
(5.5895511 1.1679819 0.047356843)
(5.5693248 1.232491 0.034364059)
(5.473219 1.3385826 0.002836469)
(5.4215962 1.4362283 -0.011514536)
(5.3336789 1.5686547 -0.042586062)
(5.2231309 1.6878453 -0.074914668)
(5.1628146 1.7760217 -0.1021736)
(4.9570742 1.98091 -0.16884068)
(4.7718962 2.1333799 -0.24927826)
(4.5943233 2.2301185 -0.34976872)
(4.0310791 2.5059035 -0.53384443)
(3.695798 2.5588742 -0.6308604)
(3.1646828 2.3076509 -0.94299326)
(2.5102879 1.9363652 -1.0713291)
(2.0318993 0.87372598 -1.3622845)
(2.4345951 0.15505637 -1.1910983)
(2.7364443 0.17911405 -1.0267797)
(2.2455627 0.23410402 -1.2281024)
(2.0981738 0.26270345 -1.3333875)
(1.7281566 1.2259743 -1.5622242)
(1.794285 1.072131 -1.3313539)
(1.9492817 1.0976162 -1.4591467)
(2.3979315 0.85397003 -1.2461162)
(2.265183 0.55115527 -1.3720651)
(2.0736633 0.52651876 -1.3639367)
(1.7310427 1.2320512 -1.4734741)
(2.1030795 1.5598644 -1.3549869)
(2.1303349 1.0301167 -1.2856565)
(2.3861769 0.80157647 -1.1703985)
(2.3687678 0.16394606 -1.1648573)
(2.9374017 0.20780843 -0.99227746)
(3.1535456 0.22932814 -0.8292735)
(3.1166814 0.25108184 -0.84736936)
(3.2298842 0.26621407 -0.80669054)
(3.30928 0.20487229 -0.80666128)
(3.425925 0.16567228 -0.73113764)
(3.2892734 0.22979222 -0.78362593)
(3.0142971 0.22613416 -0.99884061)
(2.8629924 0.2424739 -0.97293455)
(2.8454209 0.25139241 -0.99116793)
(2.6931606 0.21721881 -1.0407074)
(2.1642002 0.30530901 -1.3081525)
(2.0248543 0.37236689 -1.4060359)
(1.6373767 1.3286243 -1.576394)
(1.7457413 1.0858991 -1.3962758)
(1.9589729 0.9236855 -1.3748122)
(2.4894571 1.9808893 -1.0832494)
(2.4611137 2.1716768 -1.2639699)
(3.1673488 2.4082624 -0.77172806)
(3.412937 2.4429378 -0.86344765)
(3.8994783 2.4765702 -0.61961905)
(4.5050437 2.2494481 -0.37343703)
(4.6611849 2.1843986 -0.26964336)
(4.9005794 2.045732 -0.20052138)
(5.0486505 1.8790443 -0.15630798)
(5.1725445 1.7328637 -0.078629238)
(5.2313329 1.6948961 -0.089508768)
(5.3066784 1.606058 -0.052730158)
(5.4011684 1.4841604 -0.013914154)
(5.4732886 1.373757 0.0018731442)
(5.5194014 1.2674558 0.01374492)
(5.5697796 1.1987759 0.046771526)
(5.5924951 1.1842368 0.043089488)
(5.6296684 1.1270428 0.054480163)
(5.6715994 1.0401336 0.069123752)
(5.6981264 0.96585289 0.075901278)
(5.7268303 0.8947216 0.083807196)
(5.7507471 0.82578357 0.08707476)
(5.7680336 0.75422037 0.089256957)
(5.7946069 0.70444587 0.098411729)
(5.7991113 0.66459674 0.097261477)
(5.8140482 0.62353979 0.10263656)
(5.8244918 0.57192541 0.10596722)
(5.8290532 0.53226154 0.10644944)
(5.8517115 0.48330127 0.11232859)
(5.8501962 0.46991775 0.10402228)
(5.8488368 0.42198382 0.10320541)
(5.8469474 0.41109105 0.097127287)
(5.8533114 0.34503402 0.095748913)
(5.85177 0.28150491 0.092802017)
(5.8462349 0.21804482 0.088947427)
(5.8396058 0.1613215 0.08531749)
(5.8295735 0.10405541 0.079417881)
(5.8182414 0.054420073 0.073968479)
(5.8064138 0.0058186146 0.068111952)
(5.7917037 -0.040454026 0.06257854)
(5.7920994 -0.05966201 0.054210435)
(5.7781582 -0.0973866 0.051027043)
(5.7820674 -0.11783127 0.04384035)
(5.7655139 -0.1480465 0.040811939)
(5.7658869 -0.16336263 0.035507291)
(5.7491868 -0.19082104 0.032153705)
(5.7494362 -0.20518568 0.026166629)
(5.7330812 -0.22812987 0.022928746)
(5.731825 -0.23983253 0.017896757)
(5.7321945 -0.24951065 0.010595367)
(5.7170989 -0.26817425 0.0099394898)
(5.7027051 -0.28485201 0.0084222839)
(5.6869525 -0.30285727 0.00877313)
(5.6711166 -0.31881135 0.0074655124)
(5.7138572 1.1320273 0.086972247)
(5.6724828 1.2360021 0.069849902)
(5.6113286 1.360363 0.047951229)
(5.5315472 1.4748003 0.022546666)
(5.4886968 1.5751591 -1.8919546e-05)
(5.3741886 1.7437204 -0.038802162)
(5.2151485 1.9624155 -0.091471489)
(4.99491 2.160528 -0.15864001)
(4.8441454 2.3058593 -0.24547431)
(4.3880548 2.6442687 -0.37979342)
(3.5768705 2.6532953 -0.63121868)
(2.3329268 1.8368071 -0.93500283)
(2.0869908 1.1657319 -1.1888534)
(1.9210013 1.0577041 -1.105587)
(2.0806966 0.47134486 -1.2553073)
(2.4864871 0.28013831 -1.1462282)
(2.4420789 0.20730596 -1.2566312)
(2.9171632 0.26704231 -1.0623949)
(3.3644022 0.15065695 -0.76570256)
(3.2168098 0.24780788 -0.78782241)
(3.2091018 0.23267053 -0.82134383)
(3.9014347 0.22332648 -0.50932541)
(4.232812 0.15206245 -0.4258032)
(4.4027349 0.11672765 -0.33034767)
(4.4438753 0.12029632 -0.31652841)
(4.4942824 0.098584154 -0.30762028)
(4.5346653 0.086389791 -0.28106561)
(4.5638948 0.075157164 -0.27934189)
(4.5974549 0.06748276 -0.25408202)
(4.5748261 0.07024667 -0.26472616)
(4.5130458 0.070172575 -0.29795494)
(4.4628514 0.080819805 -0.31858567)
(4.4090493 0.096200809 -0.32511723)
(4.3433273 0.11189509 -0.36111071)
(4.275714 0.13296016 -0.38239263)
(4.0473411 0.19802156 -0.46424699)
(3.4654924 0.27112293 -0.63869307)
(3.0134108 0.20733325 -0.90243229)
(3.1430112 0.17569624 -0.80386811)
(3.2913252 0.16319966 -0.79529937)
(3.4409146 0.1532964 -0.71660408)
(3.2930241 0.24252449 -0.74549534)
(2.9908003 0.26009754 -0.98871216)