/*--------------------------------*- C++ -*----------------------------------*\
| =========                 |                                                 |
| \\      /  F ield         | OpenFOAM: The Open Source CFD Toolbox           |
|  \\    /   O peration     | Version:  v2012                                 |
|   \\  /    A nd           | Website:  www.openfoam.com                      |
|    \\/     M anipulation  |                                                 |
\*---------------------------------------------------------------------------*/
FoamFile
{
    version     2.0;
    format      ascii;
    class       volScalarField;
    location    "0";
    object      p;
}
// * * * * * * * * * * * * * * * * * * * * * * * * * * * * * * * * * * * * * //

dimensions      [0 2 -2 0 0 0 0];


internalField   nonuniform List<scalar> 
98679
(
-0.43938209
-0.40742517
-0.3998891
-0.38247883
-0.41619545
-0.4598788
-0.58488111
-0.66038058
-0.77253895
-0.81324507
-0.84241506
-0.84340336
-0.80995225
-0.7691372
-0.65415142
-0.57882797
-0.45057909
-0.40523233
-0.36969848
-0.38722555
-0.39464306
-0.41283966
-0.409181
-0.4092946
-0.39641492
-0.39062291
-0.37985232
-0.36393225
-0.34564614
-0.3268385
-0.30777379
-0.28839503
-0.26855966
-0.24816361
-0.22715297
-0.20557003
-0.18349493
-0.16102809
-0.13829202
-0.1154451
-0.092639455
-0.07005496
-0.047870937
-0.026293697
-0.0055725601
0.013963868
0.031806412
0.047185491
0.058763372
0.066982039
0.07519101
0.087531006
0.10012147
0.1232022
0.12717574
0.14641918
0.15527191
0.17243909
0.14077303
0.10176522
-0.017954367
-0.082697695
-0.19550881
-0.23763077
-0.2762371
-0.2704806
-0.26722733
-0.27102897
-0.20490818
-0.15766649
-0.059125981
-0.023393495
0.0047371063
-0.019568194
-0.035985077
-0.061317694
-0.065305428
-0.085954761
-0.089833933
-0.088193304
-0.079948362
-0.074747246
-0.07563966
-0.082375293
-0.093392422
-0.10738607
-0.12354963
-0.14132809
-0.16023738
-0.17986982
-0.19991758
-0.22012489
-0.2401556
-0.25975811
-0.27876153
-0.29703372
-0.31446506
-0.33100333
-0.34668472
-0.36165988
-0.37614819
-0.39030541
-0.4039867
-0.41521331
-0.42128562
-0.42198461
-0.43199056
-0.42874771
-0.42938845
-0.40889425
-0.40541287
-0.4242016
-0.41570546
-0.42181979
-0.41330858
-0.4119691
-0.40423118
-0.39278757
-0.37960424
-0.36603227
-0.35199613
-0.33733669
-0.32188169
-0.3055145
-0.28822177
-0.27004471
-0.25110402
-0.23151931
-0.21144423
-0.19114399
-0.17094281
-0.15111492
-0.1319586
-0.11385189
-0.09726771
-0.082724248
-0.07087599
-0.062476008
-0.059229717
-0.060991159
-0.065173135
-0.064181397
-0.06047564
-0.03750515
-0.041025584
-0.01732171
-0.010949825
0.01067521
-0.051207534
-0.12013261
-0.11941204
-0.10711282
-0.079399586
-0.0011673912
0.1817185
0.4417111
0.59181885
0.26699383
0.93191755
2.0941438
3.1877473
4.0567882
4.25525
5.2987815
6.4916982
6.7503015
5.2994822
3.8291776
2.84801
2.3132806
1.3937682
0.72543111
0.087405105
-0.26911017
-0.65141686
-0.86695652
-1.0084023
-0.96766509
-1.2195967
-1.4315337
-1.5638566
-1.6094261
-1.5420563
-1.4970856
-1.1459831
-1.2081695
-1.0298912
-0.67896312
-0.42212641
-1.4838646
-4.8028861
-4.1294005
-3.2897771
-3.3547669
-4.007061
-3.9283032
-3.7853655
-3.002785
-2.7893994
-2.7447224
-2.8238136
-2.8755039
-2.9003269
-2.9238517
-2.9369486
-2.9466416
-2.9403777
-2.9347546
-2.9323574
-2.9222262
-2.8856885
-2.8481168
-2.80295
-2.7388946
-2.6760904
-2.6200124
-2.5626333
-2.6590519
-2.7596588
-3.0593448
-3.0546511
-2.7723818
-2.9243614
-3.0713723
-3.1242748
-3.1332748
-3.4615904
-4.8149574
-3.73698
-2.2179448
-1.6037433
-2.0237994
-2.4558755
-2.380182
-1.6803297
-1.7643209
-1.8663697
-1.960382
-2.0150008
-2.0166318
-1.9777538
-1.9147091
-1.871945
-1.9348195
-2.0734547
-2.1906456
-2.0837248
-2.3806513
-2.1732114
-2.622828
-4.0642313
-2.7943371
-1.3957988
-0.97449061
-1.4068801
-1.7595818
-1.6497071
-0.92599401
-0.99600938
-1.0789206
-1.1371933
-1.1418712
-1.1090625
-1.0949163
-1.1633459
-1.269591
-1.322599
-1.252554
-1.5483563
-1.8739552
-3.3620499
-1.7523435
-0.37192439
-0.10538064
-0.41823098
-0.62753138
-0.49361873
0.086582274
0.11901655
0.13672833
0.20939474
0.28399547
0.34164355
0.39772737
0.40230902
0.54399804
0.45829992
1.2775992
1.4206087
0.76459594
0.19020597
0.030787516
-0.18215037
-0.31950356
-0.36333282
-0.35779704
-0.33230698
-0.30362701
-0.28454713
-0.27289721
-0.26574634
-0.26115848
-0.2564813
-0.25098704
-0.24467898
-0.23782338
-0.23056113
-0.2230171
-0.21529074
-0.20745379
-0.19955542
-0.19162837
-0.18369406
-0.17576677
-0.16785668
-0.15997202
-0.15211984
-0.14430607
-0.13653388
-0.12880562
-0.12111769
-0.11345283
-0.10580383
-0.097982776
-0.089690996
-0.08049659
-0.069528001
-0.055466763
-0.036803562
-0.012994175
0.014261856
0.042582854
0.064744599
0.067468356
0.044280067
0.0092293292
-0.010912452
0.026528642
0.031499979
0.027111291
0.036472845
0.030076629
0.042843337
0.034938044
0.03742111
0.036699674
0.038675918
0.04018506
0.041093012
0.041318527
0.041336323
0.041315989
0.041307117
0.04132255
0.041350641
0.041388379
0.041427538
0.041460292
0.041491932
0.041528747
0.041567347
0.041604043
0.041644658
0.041697601
0.041763808
0.041843139
0.041870766
0.041651107
0.040757376
0.03932948
0.037435706
0.038205802
0.035712126
0.043673885
0.030891044
0.03731065
0.027933766
0.032328969
0.016986391
0.018635003
-0.0068748496
-0.012382742
-0.029337778
-0.028929181
-0.031432652
-0.031434394
-0.028919469
-0.029317181
-0.012351131
-0.0068355077
0.018682553
0.017038373
0.032386732
0.027989097
0.037365869
0.030942297
0.043725442
0.035762441
0.038256038
0.037488101
0.039380211
0.040813273
0.041710955
0.041931982
0.041906581
0.041829174
0.041764178
0.041714183
0.041671552
0.04163272
0.041597568
0.041566481
0.041532723
0.04149473
0.04146051
0.041428089
0.041400804
0.041384473
0.041390516
0.041410711
0.041394088
0.041169751
0.04026009
0.038747264
0.036773677
0.037494156
0.035011873
0.042918925
0.030150735
0.036552511
0.027192102
0.0315858
0.016259517
0.017907856
-0.0075292646
-0.013035213
-0.029976182
-0.029589864
-0.032103159
-0.032105058
-0.029612807
-0.030013514
-0.013086413
-0.0075900526
0.017836829
0.016182793
0.02039578
0.016935946
-0.0040016324
-0.012785471
-0.027382131
-0.029738311
-0.032516498
-0.032513705
-0.029713265
-0.027340236
-0.012732723
-0.0039431142
0.017001632
0.020469687
0.033646005
0.027354161
0.011620904
-0.0027533378
-0.01566102
-0.021759032
-0.029535106
-0.029535522
-0.021785272
-0.015702087
-0.0028059498
0.011561295
0.02728819
0.033574705
0.039478516
0.038243767
0.024464426
0.005981362
-0.007776416
-0.014320237
-0.01662848
-0.016623318
-0.014293791
-0.0077358669
0.0060309418
0.024522225
0.038310291
0.039550119
0.045785087
0.041781983
0.025999583
0.0065109456
-0.0095710534
-0.016909798
-0.018570023
-0.018579633
-0.016937709
-0.0096108973
0.0064608794
0.025942205
0.041715576
0.045713028
0.041204873
0.03746466
0.020649427
-0.0014173885
-0.018287241
-0.025673078
-0.026885194
-0.026874604
-0.025646037
-0.018248408
-0.001368006
0.020706983
0.037529834
0.041276119
0.039624138
0.033913346
0.015875643
-0.0074138682
-0.02452576
-0.03174757
-0.032691861
-0.032702669
-0.031773011
-0.024564624
-0.0074622017
0.015818384
0.033848695
0.039554153
0.038720609
0.03263699
0.014136606
-0.0095602429
-0.026570074
-0.033453243
-0.034172222
-0.034161307
-0.033428179
-0.026531356
-0.0095190554
0.014194128
0.03270158
0.038790618
0.040045001
0.033445918
0.014745409
-0.0089481839
-0.025812722
-0.032461561
-0.033059141
-0.0330701
-0.0324868
-0.025852067
-0.0089974815
0.014687098
0.033381069
0.039974968
0.041445176
0.034764307
0.016111262
-0.0074965472
-0.024210328
-0.030799219
-0.031345166
-0.031334647
-0.030774258
-0.02417139
-0.0074466849
0.016168883
0.034829695
0.041516685
0.042446503
0.035698854
0.016983602
-0.0065786795
-0.023263476
-0.029887571
-0.030468307
-0.030475983
-0.029911095
-0.02330206
-0.0066287748
0.016926347
0.035633577
0.042374466
0.042643546
0.035968589
0.017302495
-0.0062603384
-0.022943398
-0.029586054
-0.030179003
-0.030174504
-0.029564417
-0.022905531
-0.0062103658
0.017359639
0.03603314
0.042713793
0.042735954
0.036080372
0.01746483
-0.0061080583
-0.022825163
-0.029512071
-0.030138374
-0.030141612
-0.029532538
-0.022862353
-0.0061575347
0.017408977
0.036018762
0.042667579
0.042684856
0.036050209
0.017464684
-0.0060953436
-0.02280763
-0.029487026
-0.030097464
-0.030094888
-0.029467472
-0.022771103
-0.0060462574
0.017520125
0.036111352
0.042753052
0.042779808
0.036158595
0.017586422
-0.0059846112
-0.022714619
-0.029416027
-0.0300426
-0.030044798
-0.029434963
-0.022750768
-0.0060338602
0.017529858
0.036094186
0.042708961
0.042737091
0.036132617
0.017586198
-0.0059806966
-0.022700525
-0.029387628
-0.029996207
-0.029993953
-0.029368681
-0.022664349
-0.0059312955
0.017644827
0.036201186
0.042811345
0.042841135
0.036233366
0.017689721
-0.005890346
-0.022621157
-0.029326778
-0.02995073
-0.029953811
-0.029346554
-0.022657689
-0.0059362231
0.017631999
0.036164299
0.04276627
0.042806936
0.036204736
0.017674311
-0.0058996229
-0.022619858
-0.029310716
-0.029917818
-0.029911378
-0.02928919
-0.022583245
-0.0058595641
0.017729321
0.036267014
0.042874876
0.04290905
0.036300357
0.017765206
-0.0058313024
-0.022548484
-0.029254786
-0.029876201
-0.029886071
-0.029278457
-0.022585622
-0.0058702284
0.017712738
0.036246144
0.042849558
0.042879247
0.036274539
0.017744831
-0.0058437213
-0.022554363
-0.029248477
-0.029856064
-0.029845272
-0.029223927
-0.022516319
-0.0058037236
0.017800159
0.036338459
0.042949014
0.042982299
0.036370112
0.017830388
-0.0057782708
-0.022486611
-0.029195581
-0.029817439
-0.029828578
-0.029220659
-0.02252513
-0.0058186129
0.01777361
0.036299571
0.042906987
0.042944213
0.036335074
0.017803209
-0.0057944575
-0.02249771
-0.029194688
-0.02980371
-0.02979253
-0.029169777
-0.02245921
-0.0057539708
0.017856597
0.036393874
0.043008876
0.043043943
0.036426838
0.017883061
-0.0057312607
-0.022434567
-0.029147001
-0.029771334
-0.029782404
-0.029171437
-0.022472269
-0.0057705011
0.017830477
0.036371965
0.042984138
0.043017398
0.036402306
0.017853213
-0.0057479072
-0.022450097
-0.02915189
-0.029765853
-0.02975503
-0.029128136
-0.022412629
-0.0057072551
0.017908239
0.036462676
0.043083135
0.04312372
0.036499446
0.017926333
-0.0056881414
-0.022395759
-0.029112835
-0.029743164
-0.02975414
-0.029136661
-0.022432156
-0.0057262185
0.017871437
0.036434035
0.043054111
0.043091177
0.036459421
0.017873394
-0.0057150171
-0.022429688
-0.029136731
-0.029759433
-0.029748522
-0.029113344
-0.022395603
-0.0056803153
0.017922708
0.036517327
0.043154618
0.043199045
0.036551055
0.017931424
-0.0056521196
-0.022385139
-0.029105936
-0.029747341
-0.029757898
-0.029128125
-0.022417215
-0.005684878
0.017886188
0.036497566
0.043138874
0.043192668
0.036545217
0.017892934
-0.0056673928
-0.022399097
-0.029102963
-0.029732243
-0.029721928
-0.029081312
-0.022366503
-0.0056263989
0.017940118
0.036597776
0.043250934
0.043237766
0.036547783
0.017819774
-0.0057329431
-0.022440477
-0.029111123
-0.029723143
-0.029733183
-0.029131965
-0.022472088
-0.0057734406
0.017773942
0.036495522
0.043180849
0.042925788
0.036171733
0.017432182
-0.0061372676
-0.022835386
-0.029462444
-0.030036493
-0.030026681
-0.029442268
-0.022805036
-0.006098199
0.017476858
0.036222818
0.042982584
0.042059702
0.03533212
0.016682638
-0.0069618348
-0.023700468
-0.030307763
-0.03086519
-0.03087474
-0.030327428
-0.023730015
-0.0069994732
0.016638701
0.035282923
0.042006107
0.040613746
0.033973822
0.015271252
-0.0084388008
-0.025318924
-0.031989464
-0.032567656
-0.032558608
-0.031970325
-0.02528985
-0.0084026434
0.015313869
0.03402099
0.040664266
0.039474551
0.033339572
0.014806364
-0.0090300158
-0.02596897
-0.03289181
-0.033623449
-0.033631538
-0.032909986
-0.025996688
-0.0090594476
0.014765415
0.033293787
0.039425101
0.040305362
0.034552983
0.016485192
-0.0068403495
-0.023956012
-0.031183977
-0.032117711
-0.032112726
-0.031168229
-0.023929911
-0.006807175
0.016524999
0.034598099
0.04035387
0.042040027
0.038253992
0.021380213
-0.00071089673
-0.017616527
-0.025020314
-0.026257993
-0.026260244
-0.025034154
-0.017640166
-0.00074358304
0.021341534
0.0382087
0.041991171
0.046524908
0.042514582
0.026646607
0.0071757908
-0.0089205241
-0.016246622
-0.017904768
-0.017902821
-0.016234961
-0.0088996975
0.0072075728
0.026685134
0.04255965
0.046573855
0.040363361
0.039117841
0.025250638
0.0067507613
-0.0071129765
-0.013636492
-0.015963244
-0.01597
-0.013647746
-0.0071305862
0.0067202448
0.025212474
0.039073059
0.040314632
0.034402702
0.028094475
0.012357747
-0.0020413547
-0.01498166
-0.021084626
-0.028874524
-0.028864204
-0.021073767
-0.014960699
-0.0020093164
0.012396743
0.028139036
0.034451737
0.021260628
0.017755484
-0.0032397632
-0.01201716
-0.026645164
-0.029027902
-0.031836889
-0.03183961
-0.029038817
-0.026667623
-0.012049436
-0.0032780432
0.0177111
0.021209937
0.044039698
0.049248614
0.038631357
0.048274205
0.071882741
0.082300995
0.071812297
0.050461167
0.024522245
-0.00075806681
-0.022846128
-0.040532276
-0.053713443
-0.063823688
-0.072250627
-0.079909507
-0.087289969
-0.094634826
-0.10206441
-0.10964871
-0.11741577
-0.12536864
-0.13351598
-0.14186759
-0.15043105
-0.15921233
-0.1682164
-0.17744611
-0.18690116
-0.19657488
-0.20645023
-0.21649789
-0.22667382
-0.23691853
-0.24716516
-0.25736658
-0.26755732
-0.27796965
-0.28920147
-0.30238371
-0.31925989
-0.34204603
-0.37299837
-0.41379557
-0.46499764
-0.52614964
-0.59661901
-0.67615242
-0.76457575
-0.86117575
-0.96442453
-1.0723258
-1.1824972
-1.2924696
-1.4001395
-1.5036512
-1.6013239
-1.6915567
-1.7727098
-1.8430031
-1.9004416
-1.9423472
-1.9657502
-1.9682595
-1.9474169
-1.9009761
-1.8283354
-1.731359
-1.6148582
-1.4861731
-1.3544549
-1.2291992
-1.1176355
-1.0233787
-0.94685706
-0.88638543
-0.83932016
-0.80282688
-0.77401968
-0.74992651
-0.7279278
-0.70570063
-0.68024584
-0.65255982
-0.62843367
-0.60990912
-0.59868594
-0.59390301
-0.56888696
-0.4792478
-0.45657568
-0.44522132
-0.43590069
-0.43939044
-0.4398682
-0.43735183
-0.43085248
-0.4218463
-0.41088874
-0.39847244
-0.38490747
-0.37034477
-0.35478504
-0.33818327
-0.32055954
-0.30196467
-0.28250731
-0.26227847
-0.24135199
-0.22007919
-0.19877285
-0.17772454
-0.15727729
-0.13777875
-0.11964615
-0.10333706
-0.089275489
-0.077494333
-0.067761853
-0.059488525
-0.051974548
-0.043686901
-0.033475187
-0.023238591
-0.024032336
-0.028107673
-0.042290554
-0.096761872
-0.10482121
-0.096644411
-0.068123656
0.013221975
0.17547216
0.38035913
0.43678681
0.31887532
0.7945526
0.67857007
1.0742558
1.3187831
1.5509349
1.3317967
1.3534564
1.1393527
2.0013358
3.0910522
3.9879513
4.2500135
4.5743174
4.9568922
4.7709775
4.8532767
5.248659
6.3255919
6.7507566
5.5797847
4.2858841
2.7566147
2.6691571
1.4376353
0.7355162
0.13461492
0.27153658
-0.58231621
-0.81490655
-1.0658953
-0.5905596
-1.2345111
-1.43632
-1.507257
-1.5294786
-1.5355812
-1.4959671
-0.38037628
-1.2003677
-1.0449055
-0.73234479
-0.3573154
-0.65844384
-0.71407324
-0.80570028
-1.2670488
-1.1942592
-1.0146379
-1.4993799
-1.6279408
-1.566294
-1.5238867
-1.5403198
-1.1416476
-0.92541188
-1.1721077
-1.0199995
-0.64259952
0.15698583
0.52895342
0.45515116
1.1812784
2.2147855
2.7141985
4.221761
6.3336614
6.7767252
6.0549123
5.8595294
7.1298587
7.8755526
7.8888781
7.3474182
6.6211788
6.153334
6.6048622
6.9321154
7.0547392
6.5646828
6.3317415
3.6867067
3.1288992
2.2815618
1.282349
0.66850859
0.43700188
0.098879436
-0.42104772
-0.9865299
-1.2356626
-1.3702339
-1.1724006
-1.3879468
-1.375422
-1.4907424
-1.5892186
-1.5901511
-1.5705473
-1.5883907
-1.3215672
-1.4469023
-1.1625861
-1.0020653
-1.0473008
-2.3551703
-2.5192684
-3.6459286
-3.5247501
-3.1405273
-3.6894038
-3.2692726
-3.241638
-3.5588134
-3.8497322
-3.4886901
-3.57166
-3.5574653
-3.7637228
-3.9653262
-3.1188865
-2.8135514
-2.7568917
-2.8376162
-2.8810187
-2.9013525
-2.9239732
-2.9373475
-2.9473498
-2.9391254
-2.9316036
-2.9301674
-2.9213984
-2.8854858
-2.8500217
-2.8132041
-2.7661817
-2.7223264
-2.6452489
-2.6646734
-2.8997818
-2.79433
-2.871439
-2.4465146
-2.4602404
-2.8936821
-2.6867964
-2.7851579
-2.8451952
-2.6860149
-3.1831307
-2.8638276
-2.8778498
-2.9014264
-3.2580232
-2.9204724
-2.9529984
-3.1855015
-2.6410154
-3.0650796
-3.3251028
-2.8230706
-2.6745052
-2.8620215
-2.9686345
-2.7252878
-2.838056
-3.1300531
-2.7179573
-2.5416727
-2.8797769
-2.0600845
-2.3315078
-3.1372408
-2.8455041
-2.0939532
-2.7119118
-2.2475718
-2.5931112
-2.1461446
-2.5321967
-2.5357636
-3.1395582
-3.3071437
-3.2395412
-3.0975822
-2.5498463
-2.7547386
-3.0723674
-3.0616159
-3.156792
-3.1275352
-3.0598814
-3.1061106
-3.1313383
-2.9662806
-3.2808635
-3.3942955
-3.2953389
-2.9673671
-3.1101543
-3.1545138
-3.1941703
-3.1636425
-3.0968188
-3.0021716
-3.0161451
-3.0777918
-3.0813214
-2.9743443
-2.9748704
-3.0799015
-3.1492253
-3.3028879
-4.3270547
-1.71648
-0.8894403
-1.487349
-1.786961
-1.7489336
-1.8849044
-2.2376678
-2.3678247
-2.2118217
-2.1145997
-2.110002
-2.0669187
-1.5275455
-1.9322614
-2.3847033
-1.9202669
-1.60984
-1.3344825
-1.258549
-1.0125572
-0.3945029
0.10862037
-0.19362229
0.87806292
2.2355105
1.6925892
1.943333
3.6974523
5.0227044
4.967646
4.990823
4.4902151
4.7731387
4.5788479
3.352839
2.7852823
1.9642882
1.2627709
1.4741021
1.6217962
1.960173
2.2894723
2.663676
3.6625952
4.7637569
4.236881
3.9743966
3.7503383
3.7862973
4.1741346
4.4078619
4.5987281
4.9417447
6.1235104
5.4869885
4.2478079
2.3218246
2.6635922
1.2673168
0.36750181
0.30885852
-0.0077848427
-0.33803711
-1.0420622
-1.1361706
-1.1867566
-1.4314083
-1.9778424
-2.3359182
-2.1756731
-1.716403
-1.799613
-1.8624104
-2.0697447
-2.1887352
-2.2786433
-2.3598165
-2.3262639
-1.8865147
-1.8118736
-1.9844298
-1.349242
-0.73454067
-1.5976085
-3.6873794
-2.3617018
-1.3114445
-1.4070959
-1.6866563
-2.046296
-2.391722
-2.3933406
-2.3013644
-2.2226061
-2.2070089
-2.1956407
-1.7358458
-1.8313662
-2.2746043
-2.1806133
-1.9150527
-1.5661019
-1.3624817
-1.0441549
-0.65215392
-0.15158254
0.5802762
0.97371804
1.5447521
4.3048402
3.6119294
4.6990318
4.410407
3.5004429
1.9784131
1.8092889
0.59689665
0.15100998
-0.43746813
-0.96985807
-1.280528
-1.5016427
-1.7451256
-2.0468408
-2.3120466
-2.2607365
-1.8795174
-2.0042163
-2.0199125
-2.1604854
-2.2778371
-2.3580862
-2.4306231
-2.5013599
-1.9783539
-1.692988
-1.8035842
-1.7665053
-2.1589046
-2.6693454
-1.2357237
-0.98234438
-0.89517784
-0.92875148
-1.5189969
-1.8219507
-1.8287795
-2.039531
-2.4302528
-2.5410048
-2.388577
-2.2974672
-2.289453
-2.2771262
-1.8926537
-2.01798
-2.3666518
-2.2797038
-2.0748958
-1.5747905
-1.2984553
-1.1836373
-1.0247274
-0.31717432
0.40756843
1.2163765
2.3424175
3.9163052
4.6055563
4.8742131
5.0898597
4.5774698
4.9225897
5.1500453
4.6561785
4.0013676
3.8883557
4.1265189
4.1381279
4.1760024
3.7340269
3.881614
4.6716985
4.9173897
4.6125539
4.199131
4.7190252
4.5507649
4.4326651
4.1670017
4.4338637
4.6441187
4.9415876
5.1262424
5.7690763
4.270252
4.3549721
4.9036816
4.4451759
4.600402
4.0067138
3.2776989
2.2585752
1.7517308
0.24642663
-0.09911836
-0.56233051
-1.1775957
-1.4478156
-1.4260598
-1.5662465
-1.8936986
-2.0576855
-2.462885
-2.4915679
-2.0548829
-2.0948576
-2.0797067
-2.2411374
-2.3511149
-2.4489559
-2.5389089
-2.5278264
-2.0666421
-1.9119507
-1.9753995
-1.3886265
-0.82098916
-1.7220419
-1.7756807
-4.4834611
-3.4895333
-3.2093427
-3.1937854
-3.1204737
-3.0639545
-3.0783987
-3.0806756
-3.0361956
-2.9079688
-2.8884788
-2.7560579
-2.6928586
-2.7654435
-2.780993
-2.8163624
-2.8282065
-2.840813
-2.9133185
-2.8341459
-2.960877
-3.0441877
-3.0988661
-3.0701828
-3.3097277
-4.1478333
-3.6383149
-3.7576473
-3.5822848
-3.6836147
-3.5238009
-3.7187647
-3.4488074
-3.5793593
-3.5837872
-2.6281972
-2.8274061
-3.2844395
-3.6304488
-3.6304648
-3.6473819
-3.6466516
-3.6832916
-3.7073781
-3.7450797
-3.7112432
-3.6046671
-3.6724871
-3.519095
-3.5717746
-3.5933445
-2.7057983
-2.7812339
-3.2055058
-3.8264666
-3.8476404
-3.886895
-3.9228287
-3.986718
-3.9788056
-3.7276051
-3.7278594
-3.781993
-2.8614416
-2.9245816
-3.3493974
-3.9094419
-4.0001654
-3.8732443
-3.8923828
-3.8135074
-3.0165584
-3.4417959
-3.8891588
-3.9748409
-4.0964788
-4.0522313
-3.2481348
-3.9702629
-4.4240172
-3.9631877
-4.092794
-4.2825091
-3.7362355
-3.3629844
-3.3457527
-3.36972
-3.7189651
-4.2168716
-3.7421682
-2.7600752
-2.5931889
-2.5292283
-2.3041815
-2.8063519
-3.4469919
-3.3327477
-3.1328026
-3.0934436
-3.100184
-3.1206193
-3.1544794
-3.1791571
-3.2093956
-3.1833582
-3.1207114
-2.9644795
-2.9615304
-3.3273534
-3.4350061
-3.011684
-3.0375538
-3.252701
-2.8472628
-2.5709317
-2.5285997
-2.2725708
-1.7436773
-1.3795459
-2.2435804
-1.1760808
0.37909344
-0.21712234
0.12948118
2.2253919
4.1218168
3.8845971
4.8225795
4.4591996
4.6852486
4.7775768
3.1104576
2.0179613
1.395071
1.1909579
0.91820336
0.62850746
0.50377086
0.72755252
0.88472293
1.2037344
1.2652119
1.4522119
1.6711834
1.8937243
2.7447563
3.5821732
4.9367187
4.2978797
4.0748179
3.8235085
4.1706998
4.3152196
4.6519774
4.8299682
6.4254273
4.9104325
3.7666655
0.13530333
1.0746219
-0.75311337
-1.6979731
-1.2069926
-1.4056438
-1.6637169
-2.2527921
-2.489802
-2.7552704
-2.7536178
-2.9192327
-3.0487824
-2.975911
-3.1314401
-3.4532117
-3.3234289
-2.8682526
-2.8788658
-3.2578248
-3.2916013
-3.2040397
-3.1779781
-3.1756935
-3.1621792
-3.1399002
-3.1076652
-3.1046668
-3.1774795
-3.3450234
-3.4740074
-2.8615416
-2.8971553
-2.3361843
-2.5686145
-3.0986015
-3.8714783
-3.6035791
-3.2894194
-3.3330735
-3.3583005
-3.7811859
-3.7658698
-3.9220373
-3.4366819
-3.3861982
-3.6942992
-3.1408927
-3.3810834
-3.7448179
-3.3240282
-3.2236626
-3.2389119
-2.976508
-3.2337325
-3.4494096
-3.1069491
-3.0176197
-3.0975563
-3.0621631
-2.8011195
-2.9246993
-3.3942558
-3.6338825
-3.0725664
-2.916279
-3.0695687
-3.1272809
-3.0626435
-3.0050111
-2.9874615
-2.9847762
-2.6783837
-2.7668881
-3.247468
-3.5061631
-3.0431145
-2.9337574
-2.9515669
-2.7994615
-2.8727146
-2.943995
-2.9040628
-2.8627388
-2.820521
-2.8140905
-2.8288034
-2.8744169
-2.7193533
-2.7265656
-3.2463777
-3.5631159
-3.0977465
-2.9213086
-3.0801616
-2.9202227
-2.9561723
-2.7761016
-2.9208034
-2.9116296
-3.2004852
-2.9996026
-2.3934453
-1.6693766
-2.1248982
-3.0063537
-2.2242973
-1.9247748
-1.881673
-2.1196523
-1.9881911
-1.8049294
-1.7382383
-1.7034333
-1.7240327
-1.7373889
-1.7827938
-1.9329317
-2.1518061
-2.579072
-2.4881689
-2.3629378
-2.2639562
-2.1815448
-2.1254184
-2.0491017
-2.0345472
-2.2441127
-2.0416176
-1.9065369
-1.8379618
-1.8267017
-1.8714734
-2.0300804
-2.2707622
-2.6947891
-2.5274236
-2.3799856
-2.2627824
-2.1467105
-2.1053143
-2.2676634
-2.043497
-1.9486153
-1.9697484
-2.1038962
-2.3612654
-2.8092537
-2.5969674
-2.4326811
-2.3041269
-2.2883722
-2.5061262
-2.4044716
-2.5377587
-2.7290636
-3.0379999
-2.6399342
-2.6114339
-2.7373886
-2.6239187
-2.8317819
-3.1197605
-2.697669
-2.701389
-2.7504042
-2.8634573
-3.2608405
-3.061906
-3.0931013
-3.28278
-3.4061086
-3.276851
-3.111314
-3.0741847
-3.1593295
-3.3180679
-3.3842633
-3.2882277
-3.1958005
-3.1972565
-3.2170746
-3.2007505
-3.1947076
-3.2119982
-3.2280531
-3.2437511
-3.2516574
-3.2455045
-3.2269627
-3.3161256
-3.3564805
-2.8978277
-2.946159
-3.312449
-3.2569706
-3.264188
-3.2003209
-2.9486001
-2.7921318
-2.6907766
-2.5181662
-2.4466639
-1.8703534
-1.3075082
-0.8702356
0.69138941
2.0150277
3.6072724
4.4234079
3.3034486
3.934183
3.4584481
3.1476193
3.0102884
0.72311345
-0.74339102
-1.0604144
-1.5589718
-1.9877002
-2.4217414
-2.8687149
-2.8231713
-2.7597012
-3.0847507
-3.1989043
-3.3978463
-3.3240788
-2.7149346
-2.759933
-3.3806759
-3.3225253
-3.1976665
-3.2031715
-3.2007667
-3.1989652
-3.1806178
-3.1426996
-3.1258407
-3.1407862
-3.2023226
-3.3669643
-3.4180614
-2.8502109
-2.8719085
-2.509279
-3.0866532
-3.3802214
-3.4173849
-3.3227047
-3.3663264
-3.4104531
-3.4703405
-3.3876575
-3.3013987
-3.0230938
-2.7781877
-2.6419663
-2.8905234
-3.0143911
-2.8715289
-2.8129885
-2.5969205
-2.3926444
-2.6421337
-2.87645
-2.8741449
-2.6276825
-2.5510885
-2.3094153
-2.213026
-2.2103235
-2.4185584
-2.8452812
-3.0044215
-2.6391709
-2.4408217
-2.1061073
-1.9768668
-2.1304612
-2.1579913
-2.1227011
-2.080616
-2.0922201
-2.2860973
-2.7335361
-2.881575
-2.571488
-2.4235043
-2.1519446
-2.0733596
-1.9692187
-1.9094896
-2.0743686
-2.1086886
-2.0805008
-2.0556898
-2.0260975
-2.0065111
-2.0505231
-2.2811517
-2.739455
-2.773288
-2.5151259
-2.3875186
-2.1214649
-2.0567651
-1.9804857
-1.9853292
-1.9070929
-1.874174
-2.0778799
-2.1837108
-2.0234829
-2.0809652
-2.1087192
-2.2096208
-2.1105419
-2.1169099
-2.0345249
-1.9705642
-1.9352434
-1.6502739
-1.5967819
-1.5551659
-1.5158553
-1.4100676
-2.2278463
-2.8221657
-2.9758906
-2.9247919
-2.9234276
-2.9488979
-2.9158876
-2.9950687
-2.7939326
-2.6943842
-2.7796609
-2.6954348
-2.6554426
-2.6851471
-2.7379684
-2.7989574
-2.8401139
-2.8807549
-2.9216797
-2.9290915
-2.932576
-2.9353895
-2.9420597
-2.9312643
-2.9156119
-2.8957452
-2.8717109
-2.8330782
-2.7613715
-2.8784911
-3.213221
-3.4699779
-3.5603418
-3.6954678
-3.4023154
-3.1367077
-2.8810333
-1.8356013
-1.6434684
-1.6082661
-1.4507154
-1.1688043
-0.72730759
-0.015605696
0.83988755
1.6029624
2.0320129
1.9783746
1.4327471
0.95089295
0.61715433
0.3404549
0.15295435
0.03064399
-0.042869238
-0.09490034
-0.14831489
-0.13186533
-0.068786499
-0.17144258
-0.22371118
-0.29588641
-0.31152144
-0.3249462
-0.32668285
-0.28634376
-0.22899791
-0.12322009
-0.040698778
0.081516749
0.12510301
0.16749201
0.076805978
-0.016752002
-0.026937462
-0.035028411
-0.057316911
-0.10767314
-0.1804406
-0.26187337
-0.35800817
-0.4691261
-0.59728129
-0.74330231
-0.90526651
-1.079102
-1.2593755
-1.4400737
-1.6153049
-1.779328
-1.926986
-2.0541553
-2.1578493
-2.2361705
-2.2883056
-2.3147723
-2.3165305
-2.2935885
-2.247513
-2.1810764
-2.0963092
-1.9955043
-1.8811569
-1.7559154
-1.6225296
-1.4838079
-1.3425731
-1.2016858
-1.0639381
-0.93175699
-0.80730332
-0.69254587
-0.58905366
-0.49791467
-0.41967438
-0.35431432
-0.3012797
-0.25956055
-0.22782334
-0.20456032
-0.1882193
-0.17730899
-0.17048287
-0.1665882
-0.16467777
-0.16399518
-0.16395694
-0.1641327
-0.1642184
-0.1640081
-0.16336702
-0.16220366
-0.1604973
-0.15826416
-0.15549249
-0.15218929
-0.14839119
-0.14414062
-0.13948072
-0.13445383
-0.1291058
-0.1234821
-0.11762105
-0.11155163
-0.10531918
-0.098859036
-0.092033665
-0.08464752
-0.076229125
-0.065928012
-0.052441809
-0.034269065
-0.010867285
0.01604358
0.044053254
0.065969192
0.068455484
0.045029318
0.009788865
-0.010528166
0.026764946
0.0020328568
-0.02604937
0.0028760588
0.038297695
0.053118703
0.050529189
0.034822644
0.01147596
-0.012865488
-0.0345502
-0.052267808
-0.065631559
-0.075870706
-0.084284897
-0.091724181
-0.098626002
-0.10517401
-0.11148852
-0.11762749
-0.12355729
-0.12924625
-0.13465646
-0.13974409
-0.14446707
-0.14878326
-0.15265072
-0.15602821
-0.15888161
-0.16119366
-0.16296986
-0.16420869
-0.16492594
-0.16519647
-0.16514609
-0.16496585
-0.16494148
-0.16548463
-0.16716328
-0.17071624
-0.17707069
-0.18737334
-0.20298629
-0.22543976
-0.2563376
-0.29725559
-0.34961075
-0.41448727
-0.49248479
-0.58363532
-0.68737827
-0.80258914
-0.92765281
-1.0605571
-1.1990941
-1.3408132
-1.4829062
-1.6224903
-1.756736
-1.8828344
-1.9980366
-2.0996897
-2.1852941
-2.2525398
-2.2993327
-2.3234966
-2.3230476
-2.2973178
-2.2457105
-2.1676194
-2.0636938
-1.9357476
-1.7866841
-1.620623
-1.4428524
-1.2592553
-1.0759782
-0.89931095
-0.73491207
-0.58701782
-0.45739121
-0.34547287
-0.25026841
-0.17095137
-0.10900274
-0.067469368
-0.039910491
-0.026278652
-0.020966911
0.045750162
-0.012239509
-0.061492643
-0.040549966
-0.044538062
-0.066827638
-0.10095696
-0.15561553
-0.2286944
-0.3208824
-0.43313721
-0.56499412
-0.71683255
-0.88656542
-1.0694043
-1.2592622
-1.4491761
-1.6324545
-1.802871
-1.9549518
-2.0846038
-2.1890599
-2.2666321
-2.3167748
-2.3402505
-2.3382107
-2.3119784
-2.2633863
-2.1943323
-2.106904
-2.0034262
-1.8863918
-1.7584633
-1.6223804
-1.4809485
-1.3370066
-1.193476
-1.0532118
-0.91871917
-0.79230821
-0.67608782
-0.57178021
-0.48059808
-0.40314161
-0.33934916
-0.28851458
-0.24938368
-0.22034971
-0.19968005
-0.18565515
-0.17665783
-0.17130627
-0.16847232
-0.16727277
-0.16701391
-0.16716182
-0.16733981
-0.16730577
-0.16690203
-0.16602814
-0.16462707
-0.16268144
-0.16019408
-0.15717277
-0.1536385
-0.14962501
-0.14517014
-0.14031453
-0.13509915
-0.12955935
-0.12373556
-0.11766726
-0.11138506
-0.10491427
-0.098210122
-0.091171498
-0.083657453
-0.075314394
-0.065426447
-0.053038498
-0.037288891
-0.018807013
0.00082476404
0.018914487
0.031430105
0.033910941
0.019582043
-0.021728305
-0.063811447
-0.01819283
-0.076867788
-0.12267488
-0.06957188
-0.020878888
0.0042241412
0.0097658465
0.0023583793
-0.011405122
-0.026873874
-0.041861259
-0.054950193
-0.065822643
-0.074982357
-0.083057861
-0.090567201
-0.097738578
-0.10463169
-0.11130827
-0.11779369
-0.12406366
-0.1300843
-0.13581735
-0.14122991
-0.14628995
-0.15095975
-0.15520289
-0.15898561
-0.1622741
-0.16504233
-0.16726967
-0.16894375
-0.17007961
-0.17071343
-0.17090486
-0.17076003
-0.17046421
-0.17032792
-0.17080169
-0.17250466
-0.17627758
-0.18319874
-0.19466228
-0.21238976
-0.23831464
-0.27445872
-0.32273718
-0.38469348
-0.4612369
-0.55248313
-0.65774084
-0.77562527
-0.90423527
-1.0413056
-1.1843622
-1.3308036
-1.4777376
-1.6221214
-1.7611354
-1.8919833
-2.0119611
-2.1183617
-2.2086052
-2.2804655
-2.3319602
-2.361232
-2.3669113
-2.3476617
-2.300619
-2.2241213
-2.1189494
-1.9867059
-1.8299493
-1.6526554
-1.4603863
-1.2600044
-1.0591824
-0.86598752
-0.68739673
-0.52930956
-0.39435041
-0.2824255
-0.19397519
-0.12700767
-0.080851956
-0.057980656
-0.051907153
-0.067088029
-0.10660403
-0.094376351
-0.19134022
-0.17492894
-0.10549509
-0.057765671
-0.041094202
-0.049376166
-0.084609055
-0.14408359
-0.22792683
-0.33930325
-0.47857266
-0.64561093
-0.83702894
-1.0456008
-1.2625473
-1.4780266
-1.6828111
-1.8693556
-2.0321514
-2.1674995
-2.2732276
-2.3479731
-2.3899499
-2.4024548
-2.3917905
-2.3585795
-2.3032706
-2.2277686
-2.1337624
-2.0234494
-1.8994796
-1.7646341
-1.6216018
-1.4731635
-1.3221554
-1.171695
-1.0247595
-0.88409061
-0.7523752
-0.6320837
-0.52539834
-0.43401536
-0.35880431
-0.29958322
-0.25511933
-0.22337955
-0.20195452
-0.18840354
-0.18050298
-0.17639918
-0.17472521