/*--------------------------------*- C++ -*----------------------------------*\
| =========                 |                                                 |
| \\      /  F ield         | OpenFOAM: The Open Source CFD Toolbox           |
|  \\    /   O peration     | Version:  v2012                                 |
|   \\  /    A nd           | Website:  www.openfoam.com                      |
|    \\/     M anipulation  |                                                 |
\*---------------------------------------------------------------------------*/
FoamFile
{
    version     2.0;
    format      ascii;
    class       volVectorField;
    location    "0";
    object      U;
}
// * * * * * * * * * * * * * * * * * * * * * * * * * * * * * * * * * * * * * //

dimensions      [0 1 -1 0 0 0 0];


internalField   nonuniform List<vector> 
98679
(
(4.9847607 -0.032583093 -0.022805264)
(4.983137 -0.013980769 0.025395518)
(4.98859 -0.0038710764 0.078078132)
(4.979764 -0.013881552 0.031772397)
(4.9944846 -0.034453084 0.011255402)
(4.9828171 -0.014933646 -0.0063950701)
(5.0088124 -0.0092946625 0.0079700077)
(5.0036315 -0.018440158 -0.014542315)
(5.0180635 -0.013111452 -0.010835209)
(5.0144638 -0.013778913 -0.020704387)
(5.016241 0.00020788723 -0.019218006)
(5.0166283 0.0091303315 -0.019132549)
(5.0145697 0.022065145 -0.020514593)
(5.0180621 0.020631826 -0.010585251)
(5.0036382 0.024988091 -0.014092275)
(5.0090529 0.014593031 0.0081906701)
(4.9832641 0.018795761 -0.0061637908)
(4.9949823 0.036799304 0.011371752)
(4.980371 0.014705815 0.03190461)
(4.989208 0.0047492172 0.078522872)
(4.977709 -0.0033310589 0.11390222)
(4.9903971 -0.040428464 0.10191807)
(4.9800615 -0.030903264 0.058806922)
(4.9869394 -0.03461586 0.025243945)
(4.984184 -0.023349549 -0.0057152324)
(4.9854523 -0.021983362 -0.019698071)
(4.9839918 -0.020094701 -0.02965575)
(4.9831542 -0.019886551 -0.034173105)
(4.9826133 -0.019929432 -0.036732711)
(4.9824305 -0.020105857 -0.038622194)
(4.982357 -0.020194068 -0.040490483)
(4.9823282 -0.020215498 -0.042355573)
(4.9823084 -0.02018605 -0.044150177)
(4.9822879 -0.020126801 -0.045791643)
(4.982266 -0.020027094 -0.047196579)
(4.9822403 -0.019943719 -0.048330499)
(4.9822192 -0.019856426 -0.049208546)
(4.9822008 -0.019766538 -0.04983211)
(4.9821867 -0.019649451 -0.050175875)
(4.9821741 -0.019532652 -0.05021643)
(4.9821654 -0.019411893 -0.049956373)
(4.9821514 -0.019303422 -0.049403662)
(4.9821385 -0.019184954 -0.048555557)
(4.9821274 -0.019029044 -0.047360788)
(4.9821141 -0.018848159 -0.045746727)
(4.9821076 -0.018618262 -0.043633857)
(4.9821484 -0.018317646 -0.040952765)
(4.9823046 -0.017914285 -0.03770943)
(4.9828238 -0.017619372 -0.034514815)
(4.9836311 -0.017521932 -0.032551463)
(4.9850347 -0.01909015 -0.035147378)
(4.9838682 -0.020721954 -0.041774802)
(4.9870399 -0.032572561 -0.067020154)
(4.9769465 -0.027193214 -0.090519331)
(4.9883671 -0.037705232 -0.12046904)
(4.9784353 -0.00076178313 -0.12539873)
(4.9891678 0.0077942213 -0.085450135)
(4.9805393 0.017237062 -0.033955328)
(4.994583 0.044704037 -0.0141774)
(4.9825162 0.03255978 0.0029705774)
(5.0075536 0.033669584 -0.011334437)
(5.0011531 0.048566903 0.010068947)
(5.0155505 0.048451919 0.0066778274)
(5.0119486 0.054248642 0.01634116)
(5.0141714 0.0458828 0.01508608)
(5.0117279 0.037478449 0.016115962)
(5.0085939 0.018027408 0.017630948)
(5.0130399 0.012909294 0.0074274228)
(4.9993328 0.0024627856 0.012593195)
(5.004063 0.0058911198 -0.01063937)
(4.9779869 -0.0050451476 0.003831327)
(4.990069 -0.028570047 -0.014343013)
(4.9754757 -0.011641762 -0.033973036)
(4.9840876 -0.0022737211 -0.085595761)
(4.9727245 0.0067002226 -0.12596261)
(4.9826552 0.04230443 -0.12316706)
(4.9697395 0.034049566 -0.096206295)
(4.9802139 0.039880544 -0.074062501)
(4.9772075 0.026619194 -0.050652416)
(4.9787359 0.025303056 -0.04648357)
(4.9776401 0.023568466 -0.045330558)
(4.9771763 0.023435942 -0.048361673)
(4.9770228 0.023478148 -0.052279522)
(4.9772332 0.023613949 -0.055916959)
(4.9775486 0.023638163 -0.058703216)
(4.9778954 0.023586495 -0.060682895)
(4.9782293 0.023488472 -0.061973558)
(4.978543 0.023348642 -0.062718879)
(4.9788293 0.023203358 -0.063033354)
(4.9790962 0.023061359 -0.062978609)
(4.9793469 0.022925558 -0.062588966)
(4.9795812 0.022797414 -0.061889824)
(4.9797993 0.0226767 -0.060904757)
(4.9800042 0.022562647 -0.059654835)
(4.9801987 0.022456167 -0.058153593)
(4.9803864 0.022352447 -0.056411033)
(4.9805606 0.022270949 -0.054423972)
(4.9807305 0.022162107 -0.052220901)
(4.9808869 0.022037124 -0.049874494)
(4.9810423 0.021874083 -0.047465085)
(4.9812351 0.021656107 -0.045053525)
(4.9815293 0.021362316 -0.042613861)
(4.9821731 0.021214244 -0.03948842)
(4.9831066 0.021329428 -0.034380135)
(4.9846474 0.023100755 -0.023846141)
(4.983426 0.02433676 -0.0094103204)
(4.9862044 0.035762061 0.0221326)
(4.9794979 0.032043725 0.05666682)
(4.9897507 0.041351674 0.10058086)
(4.9770667 0.0042858053 0.1130388)
(4.9650589 -0.00095205935 0.023783013)
(4.9789007 0.0067636891 0.010582975)
(4.966712 0.0044177762 -0.0062844861)
(4.97637 0.00055456737 -0.022568596)
(4.9730935 -0.003120945 -0.02956965)
(4.974552 -0.0042070439 -0.033303752)
(4.9724953 -0.0048178839 -0.035267014)
(4.9709644 -0.0049659696 -0.038007686)
(4.9697708 -0.0049365515 -0.041094679)
(4.9690313 -0.0048258927 -0.04423665)
(4.9684504 -0.004702702 -0.047202907)
(4.9679319 -0.0045834946 -0.049940658)
(4.9674162 -0.0044699063 -0.052433066)
(4.9668803 -0.004358946 -0.054685227)
(4.9663316 -0.0042494994 -0.056695964)
(4.9657536 -0.0041335195 -0.058463131)
(4.965153 -0.0040120883 -0.059985874)
(4.9645216 -0.0038840106 -0.061254094)
(4.9638531 -0.0037494924 -0.062256589)
(4.963139 -0.0036080927 -0.062978683)
(4.9623764 -0.0034605038 -0.06339881)
(4.9615629 -0.003308277 -0.063487124)
(4.9606929 -0.0031543236 -0.06320632)
(4.9597565 -0.0030043718 -0.062517289)
(4.9587691 -0.0028693433 -0.061371251)
(4.9577482 -0.0027558317 -0.059705196)
(4.9567728 -0.0026731002 -0.057431404)
(4.95597 -0.0026203827 -0.054418839)
(4.9556792 -0.0025564659 -0.050353059)
(4.95584 -0.0024452974 -0.044839558)
(4.956684 -0.0022387676 -0.03713382)
(4.9541076 -0.00099166378 -0.029895679)
(4.956001 0.0050375409 -0.026058337)
(4.9432157 0.007511184 -0.035436966)
(4.9587708 0.0079245133 -0.045377168)
(4.9492804 0.00045711617 -0.047237666)
(4.9683663 -0.012840031 -0.038200179)
(4.966062 -0.030465269 -0.013581279)
(4.9873329 -0.021850182 -0.013261985)
(4.9887146 -0.0042062503 -0.0081331771)
(4.9803959 -0.0042586596 -0.0060070603)
(4.9640288 0.0055951335 -0.0057136757)
(4.9363675 0.0092204165 -0.0028829896)
(4.888117 0.026565849 -0.0067889951)
(4.7948355 0.052563903 -0.0074342376)
(4.6836782 0.081566127 0.010859231)
(4.635045 -0.01696219 0.036244815)
(4.7686378 0.053819875 0.067376639)
(4.6192962 0.076343058 -0.057172716)
(4.2115481 0.13745358 -0.041789421)
(3.9838528 0.031644658 0.034264332)
(3.9950954 0.083735339 0.011534432)
(3.641715 0.063140179 -0.0060598737)
(3.1159741 0.035649313 -0.11736286)
(2.4404049 0.10209209 -0.10304563)
(1.3782593 1.7783122 -0.33700136)
(1.8580121 2.1749406 -0.20499741)
(2.8321984 2.1996045 -0.12544397)
(3.381913 2.1389648 -0.12629214)
(3.8742181 2.0784564 -0.013757391)
(4.3021766 1.9678937 0.037603958)
(4.627345 1.8559686 0.0063961023)
(4.8464475 1.7893906 -0.01912498)
(5.0666874 1.6659652 -0.034216039)
(5.1932757 1.5855635 0.021572524)
(5.2906092 1.395644 -0.09337615)
(5.3229775 1.3317804 -0.036103627)
(5.3693974 1.2557318 -0.038285654)
(5.4499135 1.1818862 0.029842291)
(5.5692121 1.1243161 0.032639468)
(5.6421909 1.0604676 0.0061914069)
(5.6715768 0.99138214 -0.0020348815)
(5.6024097 0.92256839 -0.070882237)
(5.5313692 0.79607836 -0.024951354)
(5.5740737 0.76767506 -0.037386179)
(5.6165869 0.7303283 0.023639639)
(5.6799436 0.68941503 0.0099243515)
(5.6842505 0.69748249 0.020320945)
(5.8179703 0.63621312 0.11711181)
(6.3425535 0.56498701 0.028716741)
(6.4441806 0.58381561 -0.023238943)
(6.1143732 0.64886547 -0.085436858)
(6.0780167 0.30566189 -0.12332187)
(6.1021864 0.38383891 0.096952962)
(6.3077661 0.34950781 0.044733616)
(6.3552667 0.33576633 -0.05563784)
(6.0112485 0.37792799 -0.023333308)
(5.8150357 0.21371189 -0.034431163)
(5.754664 0.21640517 -0.008596186)
(5.7424177 0.17064191 0.010358149)
(5.7543753 0.1576575 0.011600718)
(5.7627864 0.12302518 0.012604944)
(5.7713357 0.1040701 0.011857064)
(5.777693 0.071075262 0.009920957)
(5.7798191 0.055133709 0.00818664)
(5.7802479 0.02056467 0.0076432225)
(5.7760655 0.013782726 0.0066204124)
(5.7704396 -0.026777614 0.0059925316)
(5.7655783 -0.027219889 0.003353516)
(5.7540831 -0.071397817 0.0018131871)
(5.7403202 -0.069193002 -0.00020935008)
(5.7256824 -0.10795468 -0.0003635708)
(5.7054538 -0.106721 0.00031631646)
(5.6879256 -0.13006679 0.0050105436)
(5.674172 -0.12390146 0.024841332)
(5.690327 -0.13578031 0.044738617)
(5.7043265 -0.15231322 0.032583454)
(5.8317483 -0.27195691 0.033218047)
(6.238382 -0.27247428 0.072591278)
(6.1729528 -0.21856136 -0.050058648)
(5.890872 -0.18344538 -0.055029523)
(5.863215 -0.26441238 0.038843963)
(5.9189253 -0.30413695 0.041633539)
(5.967169 -0.30887694 0.029459153)
(5.9647059 -0.31513076 0.016797303)
(5.924908 -0.25057091 0.054863446)
(5.915697 -0.43220507 0.097140392)
(6.1998241 -0.37840563 0.050078786)
(6.1370582 -0.34670483 -0.040683291)
(5.5959639 -0.42101609 -0.099839452)
(5.4367704 -0.39618244 -0.0018317756)
(5.4266379 -0.37422475 0.0024444861)
(5.4334542 -0.34405658 0.056167804)
(5.3363873 -0.36525823 0.028236343)
(5.3945343 -0.43466473 0.070103334)
(5.470218 -0.41705197 -0.00016218552)
(5.4704656 -0.43848336 0.00013008742)
(5.4730003 -0.44638982 -0.00029480476)
(5.4717821 -0.45416024 -0.0040016457)
(5.4665429 -0.45195094 -0.0078495428)
(5.4537983 -0.47274306 -0.0093563379)
(5.4424751 -0.47914723 -0.011683951)
(5.4499817 -0.500079 -0.014159833)
(5.5122912 -0.52538793 -0.0071709204)
(5.5534672 -0.51507637 -0.012254574)
(5.7337525 -0.5185118 0.089180443)
(5.8073011 -0.4656284 0.034009369)
(5.6145894 -0.49343826 -0.072605814)
(5.5626321 -0.45308065 0.046832748)
(5.5912947 -0.64440538 0.092085053)
(5.9073971 -0.54923487 0.031036809)
(5.8254758 -0.52220424 -0.032405773)
(5.3558736 -0.55146676 -0.092116543)
(5.2158804 -0.54602785 -0.010505873)
(5.2189316 -0.49852524 0.020420544)
(5.2091146 -0.4718991 0.040717895)
(5.0817946 -0.49753437 0.023786933)
(5.1372254 -0.56628265 0.058457765)
(5.2111722 -0.54901163 -0.0032230796)
(5.212233 -0.5614336 -0.0047123948)
(5.2103926 -0.56631849 -0.0080903323)
(5.1998037 -0.57761802 -0.0092698044)
(5.1927073 -0.58004354 -0.012722864)
(5.19993 -0.59895374 -0.016416227)
(5.2529911 -0.6312656 -0.0047198032)
(5.273534 -0.58535958 -0.0059405965)
(5.365509 -0.57871039 0.077042148)
(5.4317815 -0.57379006 0.031303952)
(5.2447106 -0.57517203 -0.077815591)
(5.2989551 -0.68452213 0.16820011)
(5.5988508 -0.63088023 0.0099917411)
(5.4511489 -0.58778515 -0.030327206)
(5.016467 -0.60410437 -0.067636344)
(4.8822682 -0.61044918 -0.005410295)
(4.8619248 -0.53866433 0.024893234)
(4.821092 -0.54947581 0.03211391)
(4.7189289 -0.5526776 0.021242037)
(4.7381408 -0.61153953 0.051834043)
(4.7787302 -0.59674979 -0.0027361812)
(4.7525426 -0.60367713 -0.0089886893)
(4.7247894 -0.61229826 -0.011711874)
(4.7036581 -0.62870426 -0.014752916)
(4.7201724 -0.64689077 -0.010378208)
(4.7173529 -0.62503063 -0.01996437)
(4.8591747 -0.66795163 0.067402555)
(4.9212648 -0.61156171 0.024273925)
(4.7249354 -0.61519118 -0.069439978)
(4.3074211 -0.66784167 -0.033534564)
(4.40513 -0.059965233 -0.019339243)
(4.734365 -0.11401085 -0.040275929)
(4.7316364 -0.020549 -0.018741863)
(4.7856568 -0.076855835 -0.021761001)
(4.8722081 -0.051714272 -0.0041248973)
(4.9417775 -0.026802056 -0.0022412964)
(4.9720225 -0.010685733 -0.0044541093)
(4.9789813 -0.0037967028 -0.0027105059)
(4.9756971 0.0008303123 -0.0024311737)
(4.9698202 8.3632606e-05 -0.0012943659)
(4.9672328 -0.00024172279 -0.00084181431)
(4.9667661 -0.00062796702 -0.00028907222)
(4.9681264 -0.0010093314 -0.00012283363)
(4.9704247 -0.0009787252 0.00011841655)
(4.9730438 -0.00088941587 0.0002296837)
(4.9756238 -0.00078686439 0.0002589224)
(4.9780205 -0.00067882795 0.00027613401)
(4.9802015 -0.00057580473 0.00028098346)
(4.9821581 -0.00048338178 0.00027776272)
(4.9839002 -0.00040325763 0.00026972637)
(4.9854459 -0.00033493549 0.00025898687)
(4.9868157 -0.0002772984 0.00024672661)
(4.9880297 -0.00022900528 0.00023365275)
(4.9891065 -0.00018864963 0.00022019615)
(4.9900621 -0.00015488621 0.00020663678)
(4.9909105 -0.0001265014 0.0001931352)
(4.991663 -0.00010241486 0.00017974587)
(4.9923287 -8.1633118e-05 0.0001664487)
(4.9929142 -6.3202397e-05 0.00015311529)
(4.9934232 -4.6125781e-05 0.00013937674)
(4.9938565 -2.8922749e-05 0.00012554747)
(4.9942113 -1.0926491e-05 0.00011049475)
(4.9944801 1.2592916e-05 9.6504421e-05)
(4.9946474 4.1332926e-05 7.911522e-05)
(4.9946859 8.051802e-05 5.8080052e-05)
(4.9945523 0.00013687038 3.199966e-05)
(4.9941845 0.00021413497 -2.86213e-06)
(4.9934849 0.00031491147 -6.4167907e-05)
(4.992309 0.00043664493 -0.00017042015)
(4.9904537 0.00060854903 -0.0003239168)
(4.9876616 0.00084062829 -0.00052826261)
(4.9841709 0.00095239744 -0.00054849318)
(4.9805865 0.0011919371 -0.00027906856)
(4.9797052 0.00057632998 0.0011704668)
(4.9828485 0.0007375741 0.0023688139)
(4.996033 -0.0022207299 0.0060895232)
(5.0153909 0.00016667229 0.0070051054)
(5.0328467 -0.0011212282 0.0059949261)
(5.0347123 0.014205683 0.0064678526)
(5.0070545 0.020862366 -0.00060880309)
(5.0123199 -0.0071644012 0.019605421)
(5.0174856 -0.0063794814 0.038499477)
(5.0656124 -0.0095208271 0.068245282)
(5.0816828 -0.042007864 0.069858162)
(5.1086071 -0.038241722 0.053032191)
(5.0982957 -0.044708405 0.044121739)
(5.096301 -0.035747235 0.018642254)
(5.0905043 -0.035392841 0.0079787028)
(5.0897142 -0.033683608 -0.00073368149)
(5.0897193 -0.033827767 -0.0023695247)
(5.0904904 -0.034113493 -0.0019580123)
(5.0911901 -0.034392115 -0.0010144191)
(5.0917652 -0.034557532 -0.00036120169)
(5.0921956 -0.034646542 -1.727096e-05)
(5.0925312 -0.034688412 9.8061844e-05)
(5.0928198 -0.034700158 0.00010409682)
(5.0930715 -0.034692849 9.5040045e-05)
(5.0933019 -0.034700745 8.9236465e-05)
(5.0935134 -0.034710401 7.9416614e-05)
(5.0937037 -0.034704801 6.9724357e-05)
(5.0938773 -0.034698037 6.5162715e-05)
(5.0940376 -0.034703782 6.0388826e-05)
(5.0941779 -0.034711587 4.948981e-05)
(5.094288 -0.034708359 3.5958507e-05)
(5.0943603 -0.034710627 2.5051083e-05)
(5.0943947 -0.034694854 5.0923444e-05)
(5.0943497 -0.034657809 0.000183531)
(5.0942058 -0.034569386 0.00052982522)
(5.0939372 -0.034405339 0.0011933268)
(5.0935874 -0.034130369 0.0021405014)
(5.0931483 -0.033859317 0.0025166934)
(5.0933359 -0.03371711 0.00082853463)
(5.0943035 -0.03542121 -0.0079040538)
(5.1002624 -0.035777801 -0.018590731)
(5.1024281 -0.044741681 -0.044102994)
(5.1128829 -0.038277677 -0.053033698)
(5.0860428 -0.042052311 -0.069890424)
(5.0700252 -0.0095412259 -0.068279286)
(5.0218967 -0.0063973179 -0.038516128)
(5.01674 -0.0071865365 -0.019615634)
(4.9692251 -0.007758348 0.014356693)
(4.9575741 -0.052474832 0.046776792)
(4.9160803 -0.071043726 0.028697261)
(4.901883 -0.058600774 0.053377453)
(4.8658247 -0.049000939 0.043144593)
(4.8586751 -0.019265332 0.051717814)
(4.850979 -0.0089668176 0.048647222)
(4.8509825 0.0089748571 0.048644301)
(4.8586844 0.019276703 0.051721121)
(4.8658378 0.049006701 0.043146922)
(4.9018998 0.058604021 0.053378314)
(4.9161009 0.071046005 0.028697572)
(4.9575973 0.052476188 0.046776397)
(4.9692524 0.0077584211 0.014355305)
(5.0167706 0.0071862305 -0.019620517)
(5.0219339 0.0063996495 -0.038523754)
(5.0700662 0.0095406924 -0.068293629)
(5.086075 0.042053922 -0.069911502)
(5.1129106 0.038278395 -0.053050998)
(5.1024546 0.044742264 -0.044114866)
(5.1002891 0.035779589 -0.018592673)
(5.0943328 0.035421602 -0.0078995881)
(5.0933631 0.033720224 0.00084640566)
(5.0931815 0.033859403 0.0025509317)
(5.0936205 0.03413036 0.00217564)
(5.0939703 0.034403217 0.0012226429)
(5.0942401 0.034567022 0.0005498925)
(5.0943855 0.034654877 0.00019228968)
(5.094433 0.034694346 5.4168604e-05)
(5.0943968 0.034716736 2.8245821e-05)
(5.0943233 0.034709339 3.8369435e-05)
(5.0942123 0.03470566 4.9867909e-05)
(5.0940739 0.03470026 5.717484e-05)
(5.0939179 0.034707745 6.3885143e-05)
(5.0937421 0.034708978 7.3934646e-05)
(5.0935469 0.034697259 8.0377808e-05)
(5.0933388 0.03470005 8.5419455e-05)
(5.0931113 0.034699492 9.3838155e-05)
(5.0928588 0.034702587 0.00010461374)
(5.0925702 0.034685776 9.1297462e-05)
(5.0922322 0.034643429 -3.2547061e-05)
(5.0918018 0.034554726 -0.00037942199)
(5.0912275 0.034389554 -0.0010366935)
(5.0905291 0.034112489 -0.0019864622)
(5.0897599 0.033827578 -0.0024005179)
(5.08975 0.033686693 -0.00075091908)
(5.0905428 0.03539323 0.0079734)
(5.0963367 0.035749216 0.018642942)
(5.0983311 0.04470918 0.044133385)
(5.1086445 0.038242901 0.053050449)
(5.0817268 0.042010103 0.069881495)
(5.06567 0.0095212549 0.068261791)
(5.017539 0.0063825989 0.038508862)
(5.0123592 0.0071619831 0.01961147)
(4.9648804 0.0077019114 -0.014334133)
(4.953243 0.052363843 -0.046732169)
(4.9117844 0.070926512 -0.028671157)
(4.8975985 0.058520238 -0.053329182)
(4.8615678 0.048963507 -0.043105009)
(4.8544153 0.019271143 -0.051666336)
(4.8467191 0.0089763276 -0.048597554)
(4.8467135 -0.0089550835 -0.048592675)
(4.8544005 -0.019260719 -0.051665819)
(4.8615474 -0.048961296 -0.043105096)
(4.8975749 -0.058521792 -0.05332908)
(4.9117587 -0.070930708 -0.028670242)
(4.9532147 -0.052370645 -0.0467311)
(4.9648485 -0.007708181 -0.014334789)
(5.0279554 -0.035492905 -0.036000074)
(5.0340786 -0.094134417 -0.097045162)
(5.0022818 -0.14629464 -0.08001174)
(4.9700727 -0.15594864 -0.1149837)
(4.9341263 -0.12547216 -0.10164683)
(4.9195445 -0.076193291 -0.11227521)
(4.91211 -0.025112646 -0.10727275)
(4.9121123 0.025121674 -0.10728437)
(4.9195586 0.076205434 -0.11227563)
(4.9341469 0.12547737 -0.10164683)
(4.9700978 0.15594812 -0.11498448)
(5.0023112 0.14629204 -0.080013666)
(5.0341131 0.09413303 -0.09704663)
(5.0279956 0.035496009 -0.035995489)
(5.0888705 0.069372389 -0.032495684)
(5.102505 0.16590022 -0.082000753)
(5.0703263 0.23460935 -0.083640031)
(5.022878 0.24113861 -0.09488758)
(4.9833357 0.19158248 -0.08809488)
(4.9633523 0.11748488 -0.088158142)
(4.9557309 0.038499985 -0.084560883)
(4.9557328 -0.038512933 -0.084556407)
(4.9633387 -0.11747052 -0.088158425)
(4.9833145 -0.19157529 -0.088094335)
(5.022852 -0.24113751 -0.094886224)
(5.0702958 -0.2346095 -0.083638685)
(5.1024696 -0.16589898 -0.082001262)
(5.0888278 -0.069370679 -0.032504555)
(5.1178808 -0.13567419 -0.0048395191)
(5.1297091 -0.23637555 -0.032179146)
(5.0911506 -0.3041853 -0.033608562)
(5.0332932 -0.299157 -0.031961317)
(4.9878751 -0.23236748 -0.026629862)
(4.9646443 -0.14012383 -0.022458985)
(4.9565578 -0.045952319 -0.019594805)
(4.9565587 0.045958162 -0.019585507)
(4.9646588 0.14014136 -0.022459336)
(4.9878967 0.23237444 -0.026631295)
(5.0333195 0.2991582 -0.031962568)
(5.0911812 0.30418612 -0.033609086)
(5.129744 0.23637801 -0.032177251)
(5.1179211 0.13567821 -0.0048304563)
(5.1290813 0.13943576 0.022722181)
(5.1299028 0.25983726 0.015477752)
(5.0799211 0.33279538 0.02073426)
(5.0109684 0.32289009 0.026581899)
(4.9596425 0.24830412 0.030809334)
(4.9344192 0.14843371 0.033830875)
(4.9261127 0.048464277 0.035714226)
(4.9261055 -0.048428403 0.035705868)
(4.9344032 -0.14841948 0.033832725)
(4.9596205 -0.24830039 0.030811237)
(5.0109418 -0.32288978 0.026582847)
(5.0798904 -0.33279458 0.020734297)
(5.1298686 -0.25983515 0.015475743)
(5.1290444 -0.13943321 0.022714909)
(5.1185429 -0.148217 0.034327226)
(5.1147208 -0.263183 0.038785656)
(5.0600982 -0.33644471 0.04740356)
(4.9881933 -0.3263094 0.053303946)
(4.935179 -0.25016222 0.056063012)
(4.9094133 -0.14897693 0.057317547)
(4.9011215 -0.048500086 0.057938793)
(4.9011297 0.048516966 0.057939121)
(4.9094292 0.1489825 0.057315643)
(4.9352008 0.25016283 0.056061741)
(4.9882199 0.32630898 0.053303451)
(5.0601293 0.33644526 0.047403623)
(5.1147554 0.26318477 0.038786687)
(5.1185792 0.14821897 0.034330785)
(5.1126842 0.13308722 0.030332293)
(5.104796 0.25422654 0.039281918)
(5.0466336 0.33080383 0.046211345)
(4.9723124 0.32197577 0.049732373)
(4.9183758 0.24673668 0.05070964)
(4.8925589 0.14670737 0.050675103)
(4.8844059 0.047716311 0.050526324)
(4.8843974 -0.047700396 0.050525878)
(4.8925431 -0.14670301 0.050675643)
(4.9183539 -0.2467363 0.050709894)
(4.9722853 -0.32197602 0.04973226)
(5.0466021 -0.33080309 0.046211144)
(5.1047612 -0.25422442 0.039282061)
(5.1126481 -0.13308384 0.030333315)
(5.1072757 -0.13056925 0.019261262)
(5.0985912 -0.24955766 0.027388494)
(5.0394592 -0.32610213 0.031991542)
(4.9646657 -0.31761068 0.03369513)
(4.9107662 -0.24304379 0.033605665)
(4.8851959 -0.14423329 0.032982736)
(4.877231 -0.046835771 0.03253574)
(4.8772398 0.046854456 0.032536005)
(4.8852119 0.14423946 0.032982956)
(4.9107884 0.24304528 0.033606196)
(4.9646932 0.31761103 0.03369609)
(5.0394913 0.32610311 0.031992417)
(5.0986266 0.2495597 0.02738782)
(5.1073127 0.13057089 0.019255192)
(5.1054672 0.12752874 0.0094675179)
(5.0964637 0.24711539 0.015108234)
(5.0373099 0.32356615 0.017573079)
(4.9627362 0.31489722 0.018124751)
(4.9092303 0.24059904 0.017642127)
(4.8840136 0.14254904 0.016969421)
(4.8762375 0.046254744 0.016539055)
(4.8762287 -0.04623397 0.016538838)
(4.8839974 -0.14254096 0.016968593)
(4.9092077 -0.2405963 0.017640613)
(4.9627082 -0.31489621 0.018122459)
(5.0372773 -0.32356494 0.01757077)
(5.0964278 -0.24711326 0.015108387)
(5.10543 -0.1275243 0.0094766024)
(5.1053874 -0.12754871 0.0033746199)
(5.0966157 -0.24663776 0.0067320048)
(5.0378467 -0.32262985 0.007951284)
(4.9638252 -0.31362011 0.0079929593)
(4.9108608 -0.23929027 0.0075955775)
(4.8860459 -0.14158969 0.007168922)
(4.8784796 -0.045889042 0.0069050014)
(4.878488 0.045913507 0.0069041461)
(4.8860617 0.14159986 0.0071702328)
(4.910883 0.23929421 0.0075981528)
(4.9638529 0.3136217 0.0079966762)
(5.0378792 0.32263087 0.0079551795)
(5.0966519 0.24663834 0.006733102)
(5.1054259 0.12754864 0.0033660163)
(5.1064994 0.1279709 0.00096036498)
(5.0981015 0.24675761 0.0025420833)
(5.0397889 0.3224163 0.0031551583)
(4.9661893 0.3131288 0.0031245617)
(4.9135538 0.23872062 0.0028949719)
(4.8889479 0.14116099 0.00266679)
(4.881475 0.045746171 0.0025263614)
(4.88147 -0.045733634 0.0025284323)
(4.8889342 -0.14115231 0.0026657352)
(4.9135333 -0.23871621 0.0028923774)
(4.9661633 -0.31312673 0.0031208255)
(5.0397581 -0.32241553 0.0031513911)
(5.098067 -0.24675862 0.0025410359)
(5.106462 -0.12797298 0.0009656097)
(5.1074956 -0.12851976 0.00033122662)
(5.0994713 -0.24710186 0.00085586617)
(5.0414702 -0.32245932 0.001115095)
(4.9681265 -0.31300089 0.0011258548)
(4.9156796 -0.23852999 0.0010555947)
(4.8911934 -0.1410026 0.00098102604)
(4.8837815 -0.04568493 0.00093479969)
(4.8837832 0.04568066 0.00093341216)
(4.891205 0.14100668 0.00098115965)
(4.9156984 0.23853334 0.0010567074)
(4.9681511 0.31300273 0.0011276675)
(5.0414997 0.32245986 0.0011167939)
(5.0995044 0.24710125 0.00085503793)
(5.1075308 0.12851662 0.00032355648)
(5.1083344 0.1288357 0.00010837743)
(5.1005073 0.24734544 0.00033788718)
(5.0426926 0.32256555 0.00042472916)
(4.9694647 0.31298702 0.00045745612)
(4.9170769 0.23846775 0.00046543604)
(4.8926135 0.14094473 0.00046419299)
(4.8852025 0.045653786 0.00046186145)
(4.8852008 -0.045665432 0.00046226332)
(4.8926024 -0.14094585 0.00046481492)
(4.9170578 -0.23846683 0.00046586203)
(4.9694387 -0.31298568 0.00045764951)
(5.0426615 -0.32256355 0.00042498048)
(5.1004746 -0.24734661 0.000350781)
(5.1082999 -0.12884092 0.00012607493)
(5.1088258 -0.12899904 7.7678363e-05)
(5.1010964 -0.24746683 0.00019412128)
(5.043376 -0.32264248 0.00023298263)
(4.9702118 -0.31302167 0.00025077794)
(4.9178606 -0.23847826 0.00025933998)
(4.8934176 -0.14094847 0.00026286443)
(4.8860197 -0.045668263 0.00026390175)
(4.886021 0.045648853 0.00026359679)
(4.8934276 0.14094177 0.00026211399)
(4.9178785 0.23847627 0.00025837835)
(4.9702368 0.31302234 0.00024981232)
(5.0434059 0.32264412 0.00022958255)
(5.1011282 0.24746438 0.00015853248)
(5.1088602 0.12899276 5.0697586e-05)
(5.1092393 0.12907548 6.3101678e-05)
(5.1015437 0.24752913 8.3151985e-05)
(5.0438517 0.32268931 0.00014503077)
(4.9707097 0.31305681 0.00015914538)
(4.9183701 0.2384981 0.00016405004)
(4.89393 0.1409524 0.00016733212)
(4.8865285 0.045650097 0.00016900436)
(4.8865275 -0.045675127 0.0001690615)
(4.8939207 -0.14096311 0.0001677361)
(4.9183529 -0.23850245 0.00016529417)
(4.970685 -0.31305856 0.00016025752)
(5.0438215 -0.32269084 0.00015207067)
(5.1015094 -0.24753099 0.00013078287)
(5.1092028 -0.12907901 9.6546073e-05)
(5.1095014 -0.1291078 0.00011325771)
(5.1018229 -0.24756282 0.00012101762)
(5.0441503 -0.32272059 0.00011463615)
(4.9710255 -0.31308789 0.00011833434)
(4.9187023 -0.2385264 0.00012087026)
(4.8942765 -0.14097854 0.00012159036)
(4.8868865 -0.045681164 0.00012281786)
(4.8868878 0.045653216 0.00012311126)
(4.894286 0.14096472 0.00012194756)
(4.9187197 0.23851918 0.00011949484)
(4.9710503 0.31308317 0.00011728419)
(5.0441818 0.32271705 0.00011063806)
(5.1018603 0.2475634 8.5939687e-05)
(5.1095411 0.1291122 8.5934854e-05)
(5.1097974 0.12911574 9.2857562e-05)
(5.1021206 0.24758639 9.5928663e-05)
(5.0444484 0.322748 9.6243749e-05)
(4.9713227 0.31310692 9.6186154e-05)
(4.9189967 0.23853564 9.6315909e-05)
(4.8945664 0.14097543 9.8437981e-05)
(4.88717 0.045657686 9.9769759e-05)
(4.8871682 -0.045682888 9.7791588e-05)
(4.894556 -0.14098703 9.7258865e-05)
(4.9189786 -0.23854352 9.7713845e-05)
(4.9712979 -0.3131136 9.6364365e-05)
(5.0444176 -0.32275609 9.607873e-05)
(5.1020832 -0.24758812 9.8265307e-05)
(5.1097577 -0.12910652 9.8145212e-05)
(5.1099914 -0.12912098 7.6750404e-05)
(5.1023198 -0.24759805 7.0417522e-05)
(5.044653 -0.32276562 8.6000281e-05)
(4.971533 -0.31312664 8.3819451e-05)
(4.919214 -0.23855323 8.4483165e-05)
(4.8947921 -0.14098977 8.3254799e-05)
(4.8874044 -0.045674135 8.2754114e-05)
(4.8874095 0.04567071 8.6133905e-05)
(4.8948042 0.14098724 8.4866054e-05)
(4.9192326 0.23855177 8.3090037e-05)
(4.9715574 0.31312574 8.3836435e-05)
(5.0446826 0.32276448 8.5597723e-05)
(5.1023534 0.24759682 8.7503216e-05)
(5.1100272 0.12911974 8.4366326e-05)
(5.1102367 0.12912191 6.6690544e-05)
(5.1025639 0.24761231 7.0841376e-05)
(5.0448925 0.32278415 7.8570451e-05)
(4.9717669 0.31314051 7.4392627e-05)
(4.9194424 0.23856353 7.4472416e-05)
(4.8950146 0.14099835 7.5296864e-05)
(4.8876205 0.045684808 7.5814854e-05)
(4.8876124 -0.045665599 7.3775381e-05)
(4.8950005 -0.14099278 7.4143704e-05)
(4.9194229 -0.23856147 7.5288591e-05)
(4.971743 -0.31313661 7.5308371e-05)
(5.0448652 -0.32277032 7.7238593e-05)
(5.1025365 -0.2476043 8.930508e-05)
(5.1102065 -0.12913647 9.164695e-05)
(5.1103959 -0.12913413 0.00010868989)
(5.1027261 -0.2476186 0.00011596607)
(5.0450559 -0.32279062 6.9254248e-05)
(4.9719324 -0.31315172 6.8292731e-05)
(4.919611 -0.23857122 6.7688014e-05)
(4.8951883 -0.14099688 6.673019e-05)
(4.8878005 -0.04566573 6.6971531e-05)
(4.8878093 0.045688046 6.734529e-05)
(4.8952037 0.14100577 6.7348354e-05)
(4.9196321 0.23857401 6.7352291e-05)
(4.9719581 0.31315169 6.7382999e-05)
(5.0450865 0.32278729 7.166421e-05)
(5.1027608 0.24761624 6.9700743e-05)
(5.1104332 0.12913817 6.1143366e-05)
(5.1106103 0.12914094 7.2924944e-05)
(5.1029381 0.24762804 8.8308436e-05)
(5.0452606 0.32280237 6.2750144e-05)
(4.9721304 0.31316347 6.109414e-05)
(4.9198032 0.23858299 6.0211756e-05)
(4.8953741 0.14101196 5.9930233e-05)
(4.8879793 0.04569126 5.9822473e-05)
(4.8879703 -0.045666123 5.9706553e-05)
(4.8953578 -0.14100194 5.9602365e-05)
(4.919781 -0.2385811 5.9793673e-05)
(4.972104 -0.31316517 6.1216863e-05)
(5.0452287 -0.32281159 6.3547094e-05)
(5.1028966 -0.24763129 9.1444502e-05)
(5.1105681 -0.12912781 8.6616653e-05)
(5.1107294 -0.1291375 5.5040442e-05)
(5.1030583 -0.2476355 5.216246e-05)
(5.0453862 -0.32281513 5.6795765e-05)
(4.9722568 -0.31317338 5.0552559e-05)
(4.9199321 -0.23858635 5.0914723e-05)
(4.8955081 -0.14100387 5.1319801e-05)
(4.8881201 -0.045666096 5.1180694e-05)
(4.8881291 0.045693506 5.1169353e-05)
(4.8955243 0.14101696 5.1330176e-05)
(4.9199543 0.23859082 5.1920728e-05)
(4.9722836 0.31317497 5.6020217e-05)
(5.0454148 0.32282091 5.452143e-05)
(5.10309 0.24763823 7.1885915e-05)
(5.1107644 0.12913299 6.0676738e-05)
(5.110903 0.12914194 3.4354996e-05)
(5.103228 0.24764127 3.6346956e-05)
(5.0455493 0.32282165 4.5425288e-05)
(4.972413 0.3131809 4.6504308e-05)
(4.9200812 0.23859658 4.142949e-05)
(4.8956497 0.14101985 3.9716719e-05)
(4.8882539 0.0456948 3.9349417e-05)
(4.888245 -0.045666282 3.9480386e-05)
(4.8956337 -0.14100555 3.9910986e-05)
(4.9200594 -0.23858902 4.0083816e-05)
(4.972387 -0.3131778 3.7049191e-05)
(5.0455203 -0.32281548 4.2997118e-05)
(5.1031989 -0.24763666 4.9389579e-05)
(5.1108715 -0.12914804 5.2332157e-05)
(5.1109802 -0.12914706 5.9036339e-05)
(5.1033047 -0.24764363 5.8287456e-05)
(5.0456217 -0.32282263 2.6429495e-05)
(4.9724838 -0.31318133 2.087085e-05)
(4.9201526 -0.2385928 2.4068666e-05)
(4.8957248 -0.14100785 2.3732403e-05)
(4.8883348 -0.045666831 2.1785201e-05)
(4.8883434 0.045695305 2.0776367e-05)
(4.8957404 0.14102101 2.1270019e-05)
(4.9201753 0.23859687 2.5948672e-05)
(4.9725132 0.31318339 3.8498445e-05)
(5.0456541 0.32282696 3.9159973e-05)
(5.1033383 0.24764591 2.3690718e-05)
(5.1110157 0.12914799 2.573253e-05)
(5.1110913 0.1291556 5.5496994e-05)
(5.1034097 0.24763778 5.2577342e-05)
(5.0457133 0.3228134 3.6720965e-05)
(4.9725606 0.31318094 2.5168188e-05)
(4.9202178 0.23859959 5.1904589e-06)
(4.89578 0.14102182 -1.2615613e-06)
(4.8883818 0.045694957 -9.9380224e-07)
(4.8883729 -0.04566796 4.1694478e-07)
(4.8957639 -0.1410097 3.2866187e-06)
(4.920194 -0.23859363 -2.0755561e-07)
(4.9725303 -0.31317903 -2.3588388e-06)
(5.0456767 -0.32281831 1.1445976e-05)
(5.1033696 -0.24763821 6.1937698e-05)
(5.1110523 -0.12914642 6.9400647e-05)
(5.1110644 -0.12911834 8.7421686e-05)
(5.1033662 -0.24761859 4.871722e-05)
(5.0456579 -0.3228067 -2.6135533e-05)
(4.972498 -0.31317102 -4.9081956e-05)
(4.9201491 -0.23858488 -5.0394186e-05)