/*--------------------------------*- C++ -*----------------------------------*\
| =========                 |                                                 |
| \\      /  F ield         | OpenFOAM: The Open Source CFD Toolbox           |
|  \\    /   O peration     | Version:  v2012                                 |
|   \\  /    A nd           | Website:  www.openfoam.com                      |
|    \\/     M anipulation  |                                                 |
\*---------------------------------------------------------------------------*/
FoamFile
{
    version     2.0;
    format      ascii;
    class       volScalarField;
    location    "200";
    object      k;
}
// * * * * * * * * * * * * * * * * * * * * * * * * * * * * * * * * * * * * * //

dimensions      [0 2 -2 0 0 0 0];


internalField   nonuniform List<scalar> 
49454
(
0.27037422
0.26792292
0.26497253
0.26139365
0.25922255
0.25633505
0.25319821
0.2510574
0.24910144
0.24703893
0.24486307
0.24261732
0.24031803
0.23799502
0.23569941
0.23320146
0.23204969
0.23556436
0.23487408
0.23309527
0.23058341
0.22746641
0.22385811
0.22199852
0.2191748
0.21606456
0.21401695
0.21206151
0.21016973
0.20825046
0.20625022
0.20415168
0.20169819
0.19846442
0.19462023
0.19072875
0.18833562
0.19014675
0.19671439
0.19588847
0.19385096
0.19126521
0.1883346
0.18750105
0.18529628
0.1830877
0.18207296
0.1810045
0.17968714
0.17834863
0.17756285
0.17808847
0.18403137
0.19164619
0.19842036
0.19709653
0.1951147
0.19632419
0.20269853
0.20099715
0.19792297
0.19463584
0.19127868
0.18801073
0.18481201
0.18171801
0.1787146
0.17580357
0.172978
0.17023322
0.16756393
0.16496552
0.16243368
0.15996516
0.15755416
0.24950084
0.25109203
0.25263354
0.25413484
0.25559792
0.25703148
0.25843985
0.2598257
0.26119355
0.26254725
0.26388966
0.26522204
0.26654649
0.26786441
0.26917658
0.27048356
0.27178584
0.27308371
0.27437779
0.2756691
0.27695906
0.27824966
0.27954323
0.28084234
0.28214983
0.28346852
0.28480109
0.28615006
0.28751774
0.29057371
0.28928322
0.28799926
0.28671848
0.28543802
0.28415544
0.28286888
0.28157706
0.28027927
0.2789753
0.2776653
0.27634971
0.27502908
0.2737039
0.27237456
0.27104113
0.26970336
0.26836056
0.26701165
0.26565496
0.26428852
0.26290971
0.26151569
0.26010299
0.25866808
0.25720651
0.25571285
0.25418086
0.25584962
0.2573508
0.25881778
0.26025755
0.2616745
0.26307235
0.26445448
0.2658239
0.2671832
0.26853446
0.26987931
0.27121891
0.27255396
0.27388476
0.2752112
0.2765329
0.27784933
0.27915996
0.28046432
0.28176221
0.28305386
0.28433994
0.28562175
0.28690115
0.28818056
0.28946289
0.29075146
0.29114595
0.28986162
0.28858296
0.28730664
0.28602976
0.2847499
0.28346522
0.28217446
0.28087698
0.27957264
0.27826172
0.2769448
0.27562249
0.27429546
0.27296418
0.27162888
0.27028934
0.26894493
0.26759457
0.26623672
0.26486936
0.26348995
0.26209555
0.26068284
0.25924819
0.25778719
0.25629373
0.25702844
0.25851491
0.25996936
0.26139846
0.26280659
0.26419736
0.265574
0.26693933
0.26829599
0.2696458
0.27099026
0.2723303
0.27366647
0.27499884
0.27632711
0.27765059
0.27896847
0.28027999
0.28158438
0.28288123
0.28417059
0.28545302
0.28672972
0.28800252
0.28927385
0.29054656
0.29182402
0.29286726
0.29159928
0.29033467
0.28907007
0.28780263
0.28652993
0.28525018
0.28396223
0.28266562
0.28136043
0.28004728
0.27872714
0.27740102
0.27607001
0.2747349
0.27339617
0.27205398
0.27070789
0.26935715
0.26800038
0.2666361
0.26526138
0.26387345
0.26246906
0.26104486
0.25959634
0.25811838
0.2595504
0.26103109
0.2624832
0.26391157
0.26532041
0.26671334
0.26809351
0.26946387
0.27082698
0.2721844
0.27353717
0.27488624
0.27623201
0.27757415
0.27891202
0.28024452
0.28157028
0.28288805
0.28419655
0.28549496
0.28678298
0.28806098
0.28933005
0.29059196
0.29184915
0.29310447
0.29436126
0.29639333
0.29514745
0.29390056
0.29264937
0.29139102
0.29012303
0.28884361
0.28755173
0.28624713
0.28493031
0.2836024
0.28226503
0.28091982
0.27956851
0.2782124
0.27685239
0.27548902
0.27412213
0.27275114
0.2713748
0.26999176
0.2685992
0.26719421
0.26577374
0.26433426
0.26287157
0.26138073
0.26354933
0.26506928
0.26655934
0.26802602
0.26947367
0.27090576
0.27232575
0.27373628
0.27513981
0.27653786
0.27793159
0.27932162
0.28070804
0.28208991
0.28346619
0.28483515
0.28619467
0.28754267
0.28887703
0.2901963
0.29149977
0.29278761
0.29406091
0.29532151
0.29657195
0.29781515
0.29905436
0.30243431
0.30119108
0.29994058
0.29867962
0.29740518
0.29611456
0.29480568
0.29347734
0.29212934
0.29076259
0.28937898
0.28798119
0.28657189
0.28515384
0.2837292
0.28229951
0.28086585
0.27942823
0.2779862
0.27653867
0.27508409
0.27362022
0.27214502
0.27065444
0.26914479
0.26761193
0.26605122
0.26872627
0.2703532
0.27195325
0.2735313
0.27509071
0.2766353
0.27816839
0.27969219
0.28120891
0.28272027
0.28422693
0.28572947
0.28722756
0.28871987
0.2902044
0.29167828
0.29313809
0.29458034
0.29600159
0.29739949
0.29877313
0.30012292
0.30145053
0.30275847
0.30404979
0.30532771
0.30659539
0.31152355
0.31019876
0.30886217
0.30751057
0.30614041
0.30474796
0.30332985
0.30188341
0.30040748
0.29890257
0.29737147
0.29581866
0.29424873
0.29266622
0.29107461
0.28947664
0.28787416
0.28626795
0.2846579
0.2830432
0.28142241
0.27979345
0.27815395
0.27650095
0.27483123
0.27314259
0.27142876
0.27380233
0.27563684
0.27744821
0.27924207
0.28102113
0.28278876
0.28454787
0.28630062
0.28804895
0.28979409
0.29153656
0.29327603
0.29501151
0.29674032
0.29845895
0.30016267
0.30184558
0.30350148
0.30512439
0.30671138
0.3082631
0.30978254
0.31127425
0.31274327
0.31419452
0.31563221
0.31705976
0.32283244
0.32124734
0.31965878
0.31806331
0.31645556
0.31482877
0.31317516
0.31148672
0.30975691
0.307982
0.30616471
0.30431319
0.30243612
0.30054155
0.29863556
0.29672287
0.29480713
0.29288996
0.29097212
0.28905357
0.28713348
0.28521008
0.28328162
0.28134541
0.279399
0.27744064
0.27546398
0.27577851
0.27792774
0.28006475
0.28219634
0.28432333
0.28644809
0.28857138
0.29069544
0.29282187
0.29495093
0.29708251
0.29921512
0.30134559
0.30346883
0.30557892
0.30766754
0.30972373
0.31173496
0.31368928
0.31558518
0.31743294
0.31924568
0.32103714
0.32281952
0.3246024
0.32639234
0.3281931
0.33000656
0.33183245
0.33642538
0.33428545
0.33218064
0.3301131
0.32808098
0.32607836
0.32409698
0.32212481
0.32014375
0.31813066
0.3160611
0.31391222
0.31168319
0.30939309
0.30706078
0.30470176
0.30232662
0.29994359
0.29755945
0.29517848
0.29280362
0.29043604
0.28807637
0.28572414
0.28337847
0.28103785
0.27870103
0.27636765
0.27403183
0.26912217
0.27165762
0.27420112
0.27675932
0.27933139
0.28191826
0.28452071
0.28713902
0.28977322
0.29242114
0.29508013
0.29774597
0.30041279
0.30307085
0.30571021
0.30831631
0.31086781
0.31333495
0.31568417
0.31791405
0.32007184
0.32220114
0.32433833
0.32650957
0.32873267
0.33102255
0.3333916
0.33583518
0.33834402
0.33561788
0.33276324
0.32998362
0.32731642
0.32480018
0.32239843
0.32008826
0.31784559
0.31562836
0.31337279
0.31100566
0.3084351
0.30570298
0.30287184
0.2999792
0.29704989
0.29409955
0.29114205
0.28818966
0.28525058
0.28233133
0.2794356
0.27656753
0.27372607
0.27091117
0.26812298
0.26536145
0.26262791
0.25991634
0.24507722
0.24790972
0.25077581
0.25368357
0.25663032
0.25961658
0.26264251
0.26570805
0.26881277
0.2719526
0.27512332
0.27831743
0.28152541
0.28472853
0.28791006
0.29104816
0.29412438
0.29708908
0.30028276
0.30276818
0.30495168
0.30704616
0.30917407
0.31136606
0.31358644
0.3160124
0.31923387
0.32238053
0.3254628
0.32848836
0.32227356
0.32163698
0.31890727
0.31836079
0.31561584
0.3149221
0.31222831
0.3114804
0.30889012
0.30718592
0.3002362
0.28746048
0.28081235
0.29479741
0.2927481
0.29042881
0.28827257
0.28642518
0.28438503
0.28173947
0.27812188
0.27493985
0.27189795
0.26870243
0.26539946
0.26205165
0.2587019
0.25537523
0.25208549
0.24884319
0.24564804
0.24250458
0.23940949
0.23636252
0.23336421
0.23041471
0.22751736
0.22466435
0.19981762
0.20261449
0.2054631
0.20837228
0.21133766
0.21436367
0.2174403
0.2205753
0.22377062
0.22702456
0.23033896
0.23370168
0.23709903
0.24048338
0.2437588
0.24671733
0.24903976
0.24027326
0.22343542
0.20567427
0.20388814
0.20404739
0.20337193
0.19188028
0.1902758
0.18648637
0.18326229
0.18263453
0.18306193
0.18416941
0.18508713
0.18553036
0.18397493
0.18656534
0.19204536
0.19248538
0.18892422
0.19128484
0.19602355
0.21390549
0.21212826
0.21192828
0.20142163
0.19944414
0.20219576
0.20522849
0.20796796
0.21014586
0.2120656
0.21390479
0.21551823
0.21689736
0.2165214
0.21936177
0.22427765
0.22578962
0.22383967
0.22630844
0.23037778
0.244854
0.24549969
0.24715311
0.24706439
0.23720747
0.23691721
0.23910554
0.24146929
0.24382808
0.24617971
0.24837445
0.250476
0.25225038
0.25375141
0.25366808
0.25640902
0.26090826
0.26265444
0.2613793
0.26371789
0.26723961
0.27920403
0.2797727
0.28465853
0.28319604
0.28174809
0.28031389
0.27889255
0.27748319
0.2760849
0.27469678
0.27331791
0.27194736
0.27058422
0.26922747
0.2678761
0.26652893
0.26518473
0.26384195
0.2624989
0.26115368
0.25980403
0.25844755
0.2570818
0.25570339
0.25430938
0.25289567
0.251459
0.24999463
0.24849921
0.24696688
0.24539218
0.24526991
0.24521353
0.24523115
0.24526891
0.24534216
0.2471748
0.24705252
0.24696973
0.2468903
0.24684543
0.24682141
0.24686579
0.24841376
0.24838245
0.24841219
0.24846357
0.24854778
0.24864074
0.24877019
0.24891559
0.24908136
0.24927387
0.24949438
0.24973132
0.24998626
0.25025289
0.25052645
0.25079446
0.25105249
0.2512897
0.25150511
0.2517069
0.25187729
0.25204448
0.25220368
0.25234615
0.25249251
0.25262158
0.25274605
0.25467657
0.25483838
0.25499264
0.25513856
0.25527107
0.25539018
0.2554933
0.25559682
0.25710685
0.2570156
0.25692094
0.25681044
0.25668663
0.25655
0.25640664
0.25625552
0.25611928
0.25598212
0.25583873
0.25570053
0.25555715
0.25541865
0.255276
0.25514058
0.25500202
0.25486668
0.25472785
0.25460147
0.25447148
0.25434423
0.25422232
0.25409103
0.25394564
0.25380195
0.25364202
0.25347566
0.25330085
0.25309599
0.25288242
0.25263976
0.25237952
0.2521134
0.25183398
0.25156749
0.25130445
0.25106468
0.25084195
0.25064114
0.25046883
0.25031709
0.25018345
0.25008415
0.24999597
0.24993889
0.2499041
0.24992546
0.25140245
0.25139153
0.25143082
0.25149309
0.25158457
0.25168935
0.2518263
0.251983
0.25215919
0.25236571
0.25259235
0.25283525
0.25310238
0.25337197
0.25365358
0.25392177
0.25418225
0.25442825
0.25464357
0.25484926
0.25502785
0.2551932
0.25535425
0.25549966
0.2556436
0.25577536
0.25589835
0.25602732
0.25615762
0.25628501
0.25642272
0.25655837
0.25669501
0.256831
0.25697142
0.25710998
0.25725043
0.25738759
0.25752637
0.25765929
0.25778946
0.25793217
0.25806666
0.25819477
0.25831098
0.25841416
0.25850119
0.2585829
0.26002953
0.25995705
0.25987672
0.25978002
0.25967029
0.25954931
0.25942183
0.25928735
0.25916056
0.25903109
0.25889649
0.25875967
0.25862237
0.25848319
0.25834528
0.25820821
0.25807408
0.2579372
0.25780102
0.25767266
0.25754215
0.25741428
0.25728854
0.25715766
0.25701502
0.25686879
0.25670823
0.25654294
0.2563592
0.25615332
0.25593487
0.25568674
0.25542658
0.25515584
0.25487269
0.25460056
0.25433142
0.25408485
0.25385287
0.25364293
0.25346363
0.25330282
0.25316279
0.25305325
0.25295878
0.25289197
0.25284877
0.25285178
0.25427524
0.25428024
0.25432686
0.25439774
0.25449471
0.25460856
0.25475113
0.25491532
0.25509903
0.25531173
0.25554669
0.25579627
0.25606691
0.25634168
0.25662566
0.25689941
0.2571606
0.25740931
0.25763057
0.25783749
0.25802317
0.25819001
0.25834998
0.2584974
0.25863896
0.25876896
0.25889715
0.25902371
0.25915449
0.25928408
0.25941854
0.25955555
0.25968976
0.25982562
0.25996357
0.26010111
0.26023786
0.26037212
0.26050435
0.26063075
0.26075488
0.26088253
0.2610035
0.26111823
0.26122233
0.26131324
0.26138805
0.26145323
0.26285609
0.26279788
0.26272793
0.26264198
0.26254327
0.26243335
0.2623187
0.26219655
0.26207548
0.26195087
0.26181972
0.26168865
0.26155132
0.26141623
0.26127719
0.26114327
0.26100743
0.26087105
0.26073868
0.26060812
0.2604782
0.26035217
0.26022121
0.26009095
0.25995073
0.25980218
0.25964279
0.25947421
0.25928722
0.25907957
0.25885632
0.25860647
0.25834417
0.25806754
0.25778286
0.2575061
0.25723433
0.25698215
0.25674481
0.25653051
0.2563424
0.25617525
0.25603046
0.25591287
0.25581369
0.25573929
0.25568979
0.25567874
0.25706437
0.25708138
0.25713333
0.25721079
0.25731183
0.25743275
0.25757949
0.25774908
0.25794077
0.25815623
0.25839561
0.25865018
0.25892279
0.25920116
0.25948617
0.25976428
0.26002826
0.26027905
0.26050434
0.26071244
0.26090072
0.26107125
0.26122999
0.26137873
0.26151865
0.26165006
0.26178198
0.26190825
0.2620375
0.26216827
0.26230073
0.26243626
0.26257177
0.26270581
0.26284423
0.26297879
0.26311509
0.26324517
0.26337448
0.2634976
0.26361603
0.26373351
0.26384277
0.2639486
0.26404279
0.2641245
0.26419022
0.26424299
0.26561583
0.26556804
0.26550591
0.26542766
0.26533718
0.26523518
0.26513041
0.26501671
0.26490076
0.26477844
0.26465098
0.26452144
0.26438626
0.2642519
0.26411427
0.26397993
0.2638446
0.26371031
0.26357652
0.26344615
0.26331749
0.26319045
0.26305835
0.26292607
0.26278524
0.26263676
0.26247888
0.26230654
0.2621182
0.26190867
0.26168087
0.26142966
0.26116383
0.26088523
0.26060007
0.26032056
0.26004727
0.25979112
0.25955076
0.25933412
0.25913881
0.25896722
0.25881882
0.25869494
0.25859233
0.25851229
0.25845839
0.25843681
0.25979907
0.25982452
0.25988051
0.25996241
0.2600666
0.26019266
0.26034282
0.26051567
0.2607128
0.26093091
0.26117192
0.26142946
0.26170302
0.26198355
0.26226854
0.26254743
0.26281407
0.26306621
0.26329587
0.26350588
0.26369562
0.26386842
0.264027
0.26417504
0.26431636
0.26444942
0.26458162
0.26470953
0.26483792
0.2649683
0.26510207
0.26523574
0.26537132
0.26550621
0.26564308
0.26577739
0.26591153
0.26604072
0.26616652
0.26628767
0.26640205
0.26651268
0.26661436
0.26671248
0.26679974
0.266875
0.26693428
0.26697825
0.26833163
0.26829114
0.2682343
0.2681615
0.26807688
0.267982
0.26788285
0.2677746
0.26766119
0.26754131
0.26741704
0.267288
0.26715471
0.26702046
0.2668842
0.26674896
0.26661314
0.26647945
0.26634632
0.26621548
0.2660869
0.26595819
0.2658258
0.26569227
0.26555096
0.265403
0.2652431
0.26507035
0.26487883
0.26466895
0.26443793
0.26418504
0.26391805
0.26363915
0.26335446
0.26307331
0.26279969
0.26254123
0.26229985
0.26208058
0.2618827
0.26170882
0.2615567
0.26142912
0.26132283
0.26123999
0.26118227
0.26115394
0.2625032
0.26253429
0.26259331
0.26267689
0.26278466
0.26291374
0.26306717
0.26324216
0.26344056
0.26366068
0.26390214
0.26416113
0.26443452
0.26471591
0.26500009
0.26527875
0.26554604
0.26579881
0.26603035
0.26624057
0.26643278
0.26660615
0.2667664
0.2669147
0.26705604
0.26719014
0.26732271
0.26745256
0.26758165
0.2677126
0.26784546
0.26797963
0.26811537
0.26825086
0.26838659
0.26852085
0.26865339
0.26878206
0.26890585
0.26902452
0.26913693
0.26924311
0.26934032
0.26943251
0.2695149
0.26958573
0.26964051
0.26967834
0.27101913
0.27098364
0.27093057
0.27086139
0.27078079
0.27069076
0.27059495
0.27049068
0.27037942
0.27026158
0.27013759
0.27000943
0.26987757
0.26974317
0.26960789
0.26947211
0.26933655
0.26920189
0.26906898
0.26893752
0.26880756
0.26867708
0.26854424
0.26840964
0.26826818
0.26811947
0.26795914
0.26778539
0.26759315
0.26738263
0.26715085
0.26689883
0.26663155
0.26635351
0.2660702
0.26578893
0.26551619
0.26525701
0.26501584
0.26479519
0.26459657
0.26442066
0.26426642
0.26413616
0.26402755
0.26394318
0.26388286
0.26384984
0.26519515
0.26523
0.26529137
0.26537653
0.26548581
0.26561698
0.26577171
0.26594825
0.26614699
0.26636741
0.26660838
0.26686691
0.26713903
0.26741927
0.26770157
0.26797858
0.26824519
0.2684962
0.26872747
0.26893784
0.26912983
0.26930384
0.26946405
0.26961315
0.26975469
0.26988986
0.27002294
0.27015392
0.27028492
0.27041707
0.27055039
0.27068529
0.2708209
0.27095662
0.27109197
0.27122616
0.27135776
0.27148563
0.27160935
0.27172672
0.27183713
0.27193992
0.27203459
0.27212287
0.27220196
0.27226974
0.27232146
0.27235516
0.27368648
0.27365435
0.27360377
0.27353714
0.27345931
0.27337245
0.27327877
0.27317704
0.27306732
0.27295023
0.27282695
0.2726992
0.27256761
0.27243368
0.27229804
0.27216245
0.27202664
0.27189143
0.2717577
0.27162494
0.27149299
0.27136139
0.27122797
0.27109227
0.27095066
0.27080128
0.27064136
0.27046737
0.27027598
0.27006617
0.26983597
0.26958654
0.26932133
0.26904575
0.26876484
0.26848627
0.26821514
0.26795781
0.26771733
0.26749758
0.26729899
0.26712214
0.2669672
0.26683543
0.26672569
0.26663983
0.26657773
0.2665415
0.26789024
0.26792767
0.26799029
0.26807667
0.26818667
0.26831878
0.26847364
0.26865033
0.26884844
0.26906743
0.26930677
0.26956265
0.26983201
0.27010861
0.27038737
0.2706608
0.27092379
0.27117123
0.27139984
0.27160861
0.27179903
0.27197254
0.27213226
0.2722815
0.27242325
0.27255944
0.27269322
0.27282555
0.27295794
0.27309132
0.27322561
0.2733611
0.27349721
0.27363304
0.27376875
0.27390277
0.27403426
0.2741619
0.27428481
0.27440155
0.27451073
0.27461175
0.27470468
0.27479037
0.27486712
0.27493282
0.27498239
0.27501331
0.27633522
0.27630535
0.27625663
0.27619175
0.27611588
0.27603119
0.27593883
0.27583838
0.2757296
0.27561323
0.27549066
0.27536302
0.27523166
0.27509747
0.27496171
0.27482556
0.27468914
0.27455343
0.27441846
0.27428456
0.27415179
0.27401878
0.27388466
0.27374808
0.27360625
0.27345742
0.27329799
0.2731254
0.27293642
0.27272925
0.27250283
0.27225801
0.27199795
0.27172737
0.27145149
0.27117748
0.27091054
0.27065662
0.27041893
0.27020106
0.27000373
0.26982762
0.26967311
0.26954093
0.26943084
0.26934415
0.26928115
0.2692429
0.27060058
0.27063949
0.27070269
0.27078952
0.2708995
0.2710315
0.2711854
0.27136063
0.27155675
0.27177307
0.27200858
0.27225996
0.27252383
0.27279453
0.27306673
0.2733337
0.27359004
0.27383153
0.27405506
0.27425994
0.27444712
0.27461843
0.27477707
0.2749255
0.2750672
0.27520402
0.27533839
0.27547193
0.27560524
0.27573959
0.275875
0.27601111
0.27614777
0.27628421
0.27641999
0.27655426
0.27668565
0.27681317
0.27693558
0.27705158
0.27716001
0.27725996
0.27735181
0.27743565
0.27751073
0.27757488
0.27762287
0.27765189
0.27896271
0.27893448
0.27888716
0.27882368
0.27874933
0.27866627
0.2785749
0.27847536
0.27836729
0.27825165
0.27812933
0.278002
0.27787055
0.27773627
0.2776005
0.27746383
0.27732701
0.27719051
0.27705474
0.27692002
0.27678618
0.27665226
0.27651777
0.27638087
0.2762395
0.27609172
0.27593428
0.27576465
0.27557972
0.27537787
0.27515795
0.27492057
0.27466877
0.27440628
0.27413856
0.27387199
0.27361189
0.27336368
0.27313087
0.27291662
0.2727221
0.2725481
0.27239506
0.27226351
0.27215382
0.27206705
0.2720038
0.27196448
0.27333552
0.2733751
0.27343827
0.27352482
0.27363401
0.27376487
0.27391676
0.27408921
0.2742817
0.27449339
0.27472294
0.2749673
0.2752229
0.27548454
0.27574689
0.27600397
0.27625046
0.27648282
0.27669838
0.27689657
0.27707859
0.27724606
0.27740192
0.27754877
0.27768956
0.27782631
0.27796089
0.278095
0.27822922
0.27836419
0.27850023
0.27863698
0.27877393
0.27891072
0.27904651
0.27918071
0.27931205
0.27943923
0.27956133
0.2796767
0.27978437
0.27988354
0.27997435
0.28005669
0.28013033
0.28019313
0.28023981
0.28026738
0.28156571
0.28153877
0.28149274
0.28143065
0.28135773
0.28127609
0.28118589
0.28108716
0.2809799
0.28086483
0.28074306
0.28061611
0.28048498
0.28035099
0.28021524
0.28007848
0.2799415
0.27980468
0.27966854
0.27953343
0.27939898
0.27926486
0.27913034
0.27899401
0.27885405
0.27870849
0.2785546
0.27838982
0.27821135
0.2780175
0.27780707
0.27758057
0.27734026
0.27708953
0.27683341
0.27657754
0.27632718
0.27608732
0.27586159
0.27565296
0.27546291
0.27529236
0.2751419
0.275012
0.27490351
0.27481735
0.27475441
0.27471474
0.27610307
0.27614268
0.27620529
0.27629085
0.27639847
0.27652714
0.27667592
0.27684421
0.27703142
0.2772365
0.27745787
0.27769259
0.277937
0.2781863
0.27843534
0.27867885
0.27891209
0.27913194
0.27933644
0.27952523
0.27969954
0.27986115
0.28001263
0.28015655
0.28029538
0.28043102
0.28056522
0.28069915
0.28083356
0.28096865
0.28110472
0.28124146
0.28137833
0.28151488
0.28165041
0.28178406
0.28191484
0.28204142
0.28216276
0.28227739
0.28238417
0.28248239
0.28257194
0.28265283
0.28272497
0.2827863
0.28283165
0.28285802
0.28414499
0.28411918
0.28407458
0.2840141
0.28394281
0.28386274
0.28377393
0.28367633
0.28357014
0.2834561
0.28333536
0.28320932
0.2830791
0.28294597
0.28281085
0.28267472
0.28253816
0.28240171
0.28226593
0.28213108
0.28199701
0.28186351
0.2817299
0.28159522
0.28145787
0.28131598
0.28116734
0.28100943
0.28083983
0.28065675
0.28045892
0.2802465
0.28002113
0.27978566
0.27954448
0.27930248
0.27906467
0.27883566
0.27861916
0.27841806
0.27823408
0.27806837
0.27792155
0.27779439
0.27768783
0.27760304
0.27754088
0.27750147
0.27891082
0.27894996
0.27901152
0.2790954
0.27920068
0.27932613
0.27947069
0.27963354
0.27981393
0.28001066
0.28022186
0.28044465
0.28067531
0.28090938
0.28114207
0.2813688
0.2815856
0.28178991
0.28198046
0.28215726
0.2823216
0.28247533
0.28262074
0.28276018
0.28289573
0.28302913
0.28316178
0.28329455
0.28342801
0.28356234
0.28369758
0.28383346
0.28396943
0.28410492
0.28423935
0.28437175
0.28450121
0.28462649
0.28474645
0.28485972
0.28496514
0.28506197
0.28514993
0.28522907
0.28529938
0.28535893
0.28540269
0.28542793
0.28670873
0.28668409
0.28664125
0.28658276
0.28651357
0.28643548
0.28634854
0.28625267
0.28614821
0.28603592
0.28591698
0.28579271
0.28566429
0.28553289
0.28539944
0.28526487
0.28512981
0.28499479
0.28486039
0.2847269
0.28459437
0.28446265
0.28433131
0.28419954
0.28406614
0.28392951
0.28378772
0.28363859
0.28347994
0.28330992
0.28312718
0.28293149
0.2827238
0.28250634
0.28228264
0.28205698
0.2818339
0.28161771
0.28141215
0.28122012
0.28104359
0.28088387
0.2807418
0.28061829
0.28051449
0.28043167
0.28037082
0.28033207
0.28176613
0.28180441
0.28186443
0.28194602
0.28204817
0.28216953
0.28230888
0.28246525
0.28263768
0.28282479
0.2830245
0.28323385
0.28344911
0.28366609
0.28388048
0.28408834
0.28428659
0.28447331
0.2846479
0.2848108
0.28496342
0.28510759
0.28524542
0.28537889
0.28550979
0.28563955
0.28576924
0.28589953
0.28603078
0.28616305
0.28629627
0.28643005
0.28656389
0.2866972
0.28682935
0.28695945
0.28708655
0.28720952
0.28732718
0.28743824
0.2875415
0.28763619
0.28772194
0.28779881
0.28786674
0.28792401
0.28796586
0.28798986
0.28927417
0.28925085
0.28921012
0.28915422
0.28908775
0.28901227
0.28892793
0.28883467
0.28873285
0.28862332
0.28850724
0.28838588
0.28826044
0.288132
0.2880015
0.28786982
0.28773759
0.28485333
0.28464594
0.28444352
0.28424977
0.2840677
0.28389951
0.28374668
0.28361024
0.28349122
0.2833909
0.28331067
0.2832516
0.28321386
0.28467611
0.28471322
0.28477123
0.28484995
0.28494829
0.2850648
0.28519818
0.28534735
0.28551121
0.28931595
0.28944441
0.28957082
0.28969425
0.28981364
0.28992782
0.29003553
0.29013561
0.29022718
0.29030989
0.29038375
0.29044859
0.29050295
0.29054243
0.29056502
0.29073716
0.28944816
0.28816545
0.28688566
0.28560591
0.28432374
0.28303727
0.28174522
0.28044685
0.27914192
0.2778306
0.27651332
0.27519057
0.27386282
0.27253041
0.27119332
0.26985125
0.26850335
0.26714844
0.26578475
0.26441014
0.26302181
0.26161682
0.26019162
0.25874259
0.25726502
0.25575268
0.16228279
0.16491845
0.16762785
0.17042768
0.1733154
0.17629411
0.17937239
0.18256518
0.18586284
0.18928798
0.19284945
0.19656411
0.20043308
0.20442213
0.20847341
0.21245604
0.21565787
0.22119349
0.22436593
0.22666922
0.22286522
0.21995057
0.20862235
0.20677059
0.20780875
0.20915379
0.21045008
0.21165921
0.2131997
0.21616592
0.21781472
0.21970356
0.22083553
0.22220264
0.2231012
0.22412324
0.22481554
0.2256933
0.22633218
0.22706436
0.22766195
0.22836941
0.22897908
0.2297261
0.23035745
0.23130192
0.2320909
0.23312696
0.23400627
0.23527641
0.23639279
0.23787285
0.2390973
0.2407276
0.24221621
0.24420088
0.24594673
0.24797456
0.24942571
0.25116064
0.25264438
0.25430275
0.25554388
0.25665679
0.25741269
0.25814441
0.25870449
0.25907878
0.25936047
0.25951472
0.2596533
0.25953756
0.25942451
0.25908314
0.25884112
0.25835185
0.25802756
0.25747739
0.2571589
0.25667587
0.25642091
0.25607215
0.25595756
0.25567401
0.2555255
0.25527621
0.2552168
0.25500959
0.25493217
0.25477975
0.25480815
0.25469837
0.2546699
0.25440754
0.25419513
0.25384911
0.25370508
0.25343176
0.25331572
0.25300207
0.2528515
0.25264054
0.25266233
0.25262405
0.2527732
0.25300199
0.253461
0.25401768
0.254676
0.25549965
0.25638815
0.25737137
0.25830563
0.25932333
0.26022486
0.26113214
0.26190626
0.26273942
0.26351898
0.26432595
0.26508216
0.26595105
0.26681486
0.26775322
0.26861119
0.26958929
0.2706
0.27167443
0.272775
0.27402549
0.27533958
0.27681944
0.27825602
0.27996976
0.28161766
0.28340677
0.28506603
0.28697779
0.28871584
0.29046472
0.29193747
0.29325453
0.29415076
0.2945125
0.29440786
0.29350642
0.29252487
0.29026158
0.28694181
0.27995924
0.27251712
0.25903346
0.24774185
0.23107694
0.22409496
0.22454655
0.23063626
0.23343482
0.2359998
0.23460265
0.23205337
0.22824184
0.22558263
0.21260625
0.21097791
0.21416156
0.21342792
0.21814695
0.21941377
0.22330268
0.24402744
0.25621209
0.26880453
0.27657607
0.28329727
0.28695743
0.28943409
0.29069494
0.29162051
0.29173802
0.29133032
0.29050468
0.28935301
0.28793785
0.28635232
0.28466412
0.28282038
0.28113019
0.27933433
0.27767366
0.27609166
0.27472078
0.2733221
0.27192772
0.27070352
0.26973889
0.26889428
0.26787425
0.26678686
0.2658765
0.26493604
0.26409297
0.26320865
0.26245492
0.26162035
0.26084396
0.25999008
0.25922606
0.25835505
0.25750014
0.25654608
0.25561446
0.25470013
0.25376793
0.25295531
0.25225151
0.25171326
0.25123714
0.25102099
0.25087698
0.25093801
0.25093869
0.25114071
0.25126962
0.25154622
0.25168114
0.2520195
0.25228745
0.25256119
0.25258185
0.25274812
0.25274052
0.25283034
0.25282138
0.25302749
0.25314541
0.25332726
0.25335714
0.25357924
0.25371254
0.25398237
0.25412023
0.2544713
0.25476562
0.25525964
0.2556092
0.25615011
0.25650533
0.25696376
0.25717707
0.25747329
0.25755138
0.25761107
0.25741461
0.25724195
0.25693828
0.2565725
0.25602441
0.25527876
0.2545553
0.25349794
0.25223091
0.25067034
0.24911969
0.24742271
0.24587751
0.24394097
0.24222951
0.24043078
0.23888691
0.2372928
0.23602939
0.234589
0.23345819
0.23219184
0.23129923
0.23029287
0.22953128
0.22871836
0.22821809
0.22748052
0.22676737
0.22605824
0.22539332
0.22469307
0.22408115
0.22325314
0.2225573
0.22154624
0.22064123
0.21934081
0.21814878
0.21635782
0.21460789
0.21343005
0.21213765
0.21076436
0.20979402
0.2118751
0.22342409
0.2264766
0.2333005
0.22845914
0.22534158
0.21388769
0.21180769
0.21273353
0.21405122
0.21528914
0.21705929
0.21582287
0.2145599
0.21375881
0.21592607
0.22764055
0.23087282
0.23775844
0.23202893
0.2288321
0.21701764
0.21491089
0.21572538
0.21703054
0.2182866
0.21954403
0.21825364
0.21695553
0.21622405
0.21849278
0.23027995
0.23363629
0.24072634
0.23435661
0.23098337
0.21928285
0.2170427
0.21781355
0.21914045
0.22045679
0.22137644
0.22006048
0.21877376
0.21806142
0.22039282
0.2322074
0.23565014
0.24277997
0.23600518
0.23261954
0.2208614
0.21860147
0.21939986
0.22073121
0.22205044
0.22283034
0.22158836
0.22031661
0.21949816
0.22177809
0.23365145
0.2370947
0.24440463
0.23740302
0.23398065
0.22209888
0.21999991
0.22090637
0.22220282
0.22347049
0.22411238
0.22285374
0.2216384
0.22078651
0.22300629
0.23499125
0.23848602
0.24580051
0.23857927
0.23514683
0.22335351
0.22120256
0.22214182
0.22340792
0.22475528
0.22550671
0.22416195
0.22284659
0.22201722
0.22430553
0.23619091
0.23967156
0.24721402
0.2397776
0.2361949
0.2246092
0.22245726
0.22338175
0.22488605
0.22628912
0.22702896
0.22565339
0.22427429
0.22337121
0.22555695
0.23710713
0.2407905
0.24856097
0.24093402
0.23724489
0.22597535
0.22389646
0.22487775
0.22626658
0.22760457
0.22842025
0.22716161
0.2258146
0.22486367
0.22707029
0.23832517
0.24214424
0.25034954
0.24254387
0.23862352
0.22764409
0.22551811
0.22650094
0.22788335
0.22915827
0.23007429
0.2287932
0.22750985
0.22669703
0.22902562
0.24003025
0.24403665
0.25251398
0.24460423
0.24055599
0.22979299
0.22752701
0.22831818
0.22960289
0.23095553
0.23217757
0.2308313
0.22954539
0.22877965
0.23113463
0.24194854
0.24612079
0.25506402
0.2468862
0.24254391
0.23201028
0.22973887
0.23060789
0.23194645
0.23332267
0.23472144
0.23336779
0.23207125
0.23124027
0.23358224
0.24413918
0.24859746
0.2579542
0.24965504
0.24512171
0.23478679
0.23246598
0.23329707
0.23462175
0.23600234
0.2376645
0.23627903
0.23491337
0.23409048
0.23650242
0.2469136
0.25158953
0.26141141
0.25272026
0.24782423
0.23760674
0.23537398
0.23633641
0.23781002
0.23925224
0.24092113
0.23953447
0.23811143
0.23714292
0.23943524
0.24973078
0.25474196
0.26500533
0.25613429
0.25102555
0.24093004
0.23872607
0.23973638
0.24113694
0.24253502
0.24442028
0.24305344
0.24171716
0.24080501
0.24313108
0.25334286
0.25858992
0.26924041
0.2600895
0.2546568
0.24464329
0.24233083
0.24325274
0.24466757
0.24608992
0.24784226
0.24637818
0.2448986
0.24398793
0.24648531
0.2566065
0.26217148
0.27292618
0.26329885
0.25765341
0.24771963
0.24522747
0.24619999
0.2477549
0.24929077
0.25072145
0.24920536
0.24774568
0.24685942
0.24946737
0.2595467
0.26545263
0.27655615
0.26641402
0.26037119
0.25051346
0.24798528
0.24890797
0.25038484
0.25196289
0.25299312
0.25144182
0.25000567
0.24914796
0.25181547
0.26176749
0.26801784
0.27920722
0.26844188
0.26211006
0.25235429
0.24975385
0.25066551
0.25216759
0.2537622
0.25452429
0.2529625
0.25148212
0.25061594
0.253369
0.26325014
0.26983969
0.28140158
0.27004374
0.26328073
0.25363251
0.25099023
0.25193639
0.25345667
0.25506143
0.25546199
0.25393672
0.25251172
0.2516323
0.25438659
0.26413381
0.2711441
0.28302818
0.27109309
0.26400973
0.25448226
0.25185571
0.25274026
0.25420798
0.25576325
0.25594544
0.25441228
0.25297569
0.25221172
0.25502951
0.26465684
0.27202804
0.28439842
0.27196444
0.26438785
0.25496381
0.25217778
0.25298509
0.25451125
0.25614586
0.25608745
0.25446407
0.25297176
0.2522624
0.25525718
0.26476262
0.2725987
0.28530827
0.27220753
0.26425315
0.25494006
0.25201898
0.25280104
0.25435793
0.25603186
0.25577391
0.2541653
0.25268613
0.25200792
0.25511261
0.26453203
0.27279383
0.28595822
0.27237785
0.26392229
0.25475362
0.25174291
0.25247656
0.253955
0.25558216
0.25516036
0.2536191
0.2523126
0.25171238
0.25476345
0.26401154
0.27271605