/*--------------------------------*- C++ -*----------------------------------*\
| =========                 |                                                 |
| \\      /  F ield         | OpenFOAM: The Open Source CFD Toolbox           |
|  \\    /   O peration     | Version:  v2012                                 |
|   \\  /    A nd           | Website:  www.openfoam.com                      |
|    \\/     M anipulation  |                                                 |
\*---------------------------------------------------------------------------*/
FoamFile
{
    version     2.0;
    format      ascii;
    class       volScalarField;
    location    "200";
    object      nut;
}
// * * * * * * * * * * * * * * * * * * * * * * * * * * * * * * * * * * * * * //

dimensions      [0 2 -1 0 0 0 0];


internalField   nonuniform List<scalar> 
49454
(
0.0081196773
0.008064887
0.0079926024
0.007914214
0.0079102268
0.0078471311
0.0077787488
0.0077561366
0.0077326704
0.007703177
0.0076686864
0.0076307358
0.0075892828
0.0075458364
0.0075027202
0.0074554265
0.0074798949
0.0077381087
0.007778633
0.0077629642
0.007693699
0.0076029895
0.0075046817
0.0074862412
0.0074095031
0.0073253568
0.0072887874
0.0072526143
0.0072141431
0.0071721365
0.0071267213
0.0070767404
0.0070161053
0.0069155868
0.0067895662
0.0066638125
0.0066000514
0.0067111064
0.0070410969
0.0070394034
0.006973867
0.0068867101
0.0067976818
0.0067987795
0.006730284
0.0060451456
0.0061031741
0.0063117704
0.0065731916
0.0065318967
0.0039496125
0.0017617306
0.00027784553
0.00074098439
0.0018042869
0.0045996309
0.0047329757
0.0051552694
0.0059816945
0.0061625598
0.0062259157
0.0062590716
0.0062840826
0.0063073495
0.0063294137
0.0063504583
0.0063698691
0.00638757
0.0064034399
0.0064175188
0.0064298456
0.0064404839
0.0064494911
0.0064569471
0.006462808
0.03132332
0.031401483
0.03147163
0.031535044
0.031592057
0.031643832
0.03169097
0.031733868
0.031773148
0.031809352
0.031842905
0.031874043
0.031903119
0.031930405
0.03195611
0.031980417
0.032003494
0.03202546
0.032046444
0.032066582
0.032086012
0.03210489
0.03212338
0.032141646
0.032159857
0.032178174
0.032196741
0.032215694
0.032235148
0.032348363
0.032332708
0.032317044
0.032301199
0.032285023
0.03226838
0.032251156
0.032233263
0.032214633
0.032195217
0.032174978
0.032153882
0.032131892
0.032108955
0.032085
0.032059921
0.032033582
0.032005796
0.031976341
0.031944933
0.031911253
0.031874911
0.031835492
0.031792503
0.03174544
0.031693685
0.031636483
0.031572978
0.031643334
0.031701404
0.031753755
0.031801334
0.031844755
0.031884547
0.031921191
0.031955123
0.031986729
0.032016343
0.032044249
0.032070677
0.032095817
0.032119809
0.032142761
0.032164747
0.03218582
0.032206021
0.032225379
0.032243935
0.032261738
0.032278856
0.032295378
0.032311418
0.032327112
0.032342613
0.032358093
0.03237986
0.032364772
0.032349636
0.032334281
0.032318556
0.032302323
0.032285471
0.03226791
0.032249576
0.032230422
0.032210416
0.032189532
0.032167735
0.032144983
0.032121208
0.032096313
0.032070161
0.032042574
0.032013328
0.031982149
0.031948713
0.031912641
0.031873505
0.031830837
0.031784118
0.031732735
0.031675857
0.031727616
0.031783283
0.031833517
0.031879212
0.031920973
0.03195931
0.031994682
0.032027497
0.032058146
0.032086927
0.03211411
0.032139902
0.032164475
0.032187955
0.032210432
0.032231958
0.032252566
0.032272284
0.032291123
0.032309111
0.032326288
0.032342716
0.03235848
0.032373693
0.03238849
0.032403026
0.032417471
0.03247534
0.032461795
0.032448089
0.032434051
0.032419526
0.032404379
0.0323885
0.032371802
0.032354231
0.032335751
0.032316346
0.032296018
0.03227475
0.032252531
0.032229312
0.032205013
0.032179532
0.032152703
0.032124336
0.03209418
0.032061977
0.032027305
0.031989764
0.031948898
0.031904233
0.031855155
0.031800967
0.031886839
0.031940981
0.031990111
0.032034881
0.032075867
0.032113565
0.032148415
0.032180837
0.032211206
0.032239785
0.032266789
0.032292434
0.032316883
0.032340232
0.032362553
0.03238387
0.032404185
0.0324235
0.032441801
0.032459094
0.032475407
0.03249079
0.032505328
0.032519133
0.032532342
0.032545112
0.032557614
0.032667044
0.032655425
0.032643384
0.032630746
0.032617356
0.03260307
0.032587773
0.032571383
0.032553848
0.03253515
0.032515295
0.032494313
0.032472216
0.032449025
0.032424717
0.032399235
0.032372499
0.032344367
0.032314662
0.032283146
0.032249585
0.032213576
0.032174713
0.032132575
0.032086683
0.032036475
0.031981292
0.0320595
0.032118454
0.032172206
0.032221593
0.032267183
0.032309435
0.032348806
0.032385663
0.032420359
0.032453142
0.032484238
0.032513828
0.032542052
0.03256896
0.032594607
0.032618992
0.032642082
0.032663844
0.032684228
0.032703217
0.032720828
0.032737112
0.032752158
0.032766089
0.032779051
0.032791208
0.03280273
0.032954728
0.032941441
0.03292727
0.032912047
0.032895603
0.032877777
0.032858431
0.032837459
0.032814802
0.032790445
0.03276442
0.032736795
0.032707629
0.032676988
0.032644895
0.032611327
0.032576245
0.032539515
0.032500977
0.032460424
0.032417608
0.032372221
0.032323981
0.032272379
0.032216948
0.032157164
0.032092435
0.032017239
0.032091412
0.03216082
0.032226054
0.032287522
0.032345681
0.03240093
0.032453546
0.032503817
0.032551986
0.032598201
0.032642624
0.032685352
0.032726406
0.032765774
0.03280339
0.032839158
0.032872983
0.032904767
0.03293447
0.032962122
0.032987814
0.03301169
0.033033928
0.033054718
0.033074249
0.033092693
0.033146472
0.033118034
0.033088538
0.033057777
0.033025507
0.032991457
0.03295536
0.032916974
0.032876134
0.032832759
0.032786893
0.032738677
0.032688258
0.032635802
0.032581411
0.032525161
0.032467082
0.03240714
0.032345245
0.032281261
0.032215006
0.032146244
0.032074712
0.032000088
0.031922019
0.031840256
0.031754098
0.031183069
0.031283663
0.031380396
0.031473852
0.031564297
0.031652055
0.031737401
0.031820521
0.031901592
0.031980725
0.032057985
0.032133377
0.032206879
0.032278367
0.032347692
0.03241465
0.032478988
0.032540456
0.032598828
0.03265406
0.032706324
0.032755952
0.032803381
0.032849093
0.032893555
0.032937175
0.032980276
0.032372233
0.032314207
0.032256938
0.032199817
0.032142032
0.032082667
0.032020801
0.031955614
0.031886517
0.031813214
0.03173584
0.031654832
0.031570644
0.031483703
0.031394328
0.031302795
0.031209345
0.031114111
0.031017189
0.030918623
0.030818406
0.030716446
0.030612647
0.030506816
0.030398767
0.030288356
0.030174996
0.02859638
0.028717662
0.028836981
0.028954888
0.029071421
0.029186701
0.02930072
0.029413533
0.029525131
0.029635397
0.029744181
0.029851254
0.029956305
0.030058953
0.030158798
0.03025536
0.030347965
0.030435752
0.030517709
0.030593255
0.030662644
0.030726759
0.030787052
0.03084531
0.030903409
0.03096307
0.03102554
0.03109138
0.031160671
0.028744427
0.028692815
0.028645861
0.028604893
0.028569604
0.028537279
0.028504212
0.028466673
0.028421292
0.028365581
0.028298564
0.028220776
0.028134329
0.028041603
0.027944143
0.027842882
0.027738366
0.027631087
0.02752154
0.02741015
0.027297305
0.027183304
0.027068408
0.026952782
0.026836529
0.026719676
0.02660223
0.026484212
0.026365229
0.023487556
0.023591963
0.023695858
0.023799608
0.02390309
0.024006231
0.024108905
0.024210911
0.024312005
0.024411788
0.024509854
0.024605752
0.024699021
0.024789132
0.024875715
0.024958428
0.025036517
0.025107775
0.025167107
0.02520781
0.025226714
0.025224563
0.025205712
0.025176132
0.025142936
0.025114114
0.025096199
0.025087126
0.025079028
0.020409362
0.020516779
0.020608123
0.020709625
0.020835754
0.020970667
0.021096777
0.02120275
0.021278973
0.021315911
0.021311456
0.021273333
0.021225451
0.021175249
0.021122911
0.021067179
0.021007605
0.020944474
0.020878248
0.020809314
0.020738099
0.020664992
0.020590462
0.020514734
0.020438073
0.020360701
0.020282797
0.020204558
0.020125742
0.016599323
0.016650846
0.016701152
0.016750494
0.016798518
0.016844989
0.016889616
0.01693206
0.01697197
0.017008851
0.01704232
0.017071976
0.017097378
0.017117465
0.017130941
0.01713715
0.017140902
0.017149932
0.017249563
0.017231308
0.017132533
0.016966974
0.016755318
0.016502877
0.016203248
0.015936897
0.015823051
0.015687274
0.015484761
0.015232366
0.013595183
0.013960528
0.013822447
0.014190399
0.014043409
0.014359028
0.014204777
0.014473427
0.014312088
0.01434582
0.01324353
0.011620895
0.011198199
0.013000966
0.013207981
0.013362077
0.013511119
0.013654935
0.013728703
0.013683609
0.013576547
0.013573767
0.013610979
0.013631627
0.013635826
0.013630006
0.01361843
0.013602941
0.013584145
0.013562444
0.013537904
0.01351096
0.013481754
0.013450594
0.013417802
0.013383654
0.013348546
0.013312286
0.010466124
0.010502094
0.010538128
0.010574601
0.010611238
0.010648178
0.010684917
0.010721755
0.010758796
0.010796073
0.01083395
0.010872348
0.010911039
0.010947372
0.010974024
0.010974494
0.010927873
0.0099567468
0.0086092037
0.0068256285
0.0065316854
0.0049541792
0.0026372849
0.00090389123
0.00077499092
0.00078379099
0.0017847214
0.0024474928
0.0047247684
0.0057149639
0.0060200553
0.0064352928
0.0066465258
0.00680994
0.0070353817
0.0070240659
0.0068376777
0.0069211542
0.0071124101
0.0079452472
0.0077839186
0.0077047487
0.0071600773
0.0070355096
0.0071038116
0.0071858465
0.0072582952
0.0073105064
0.007351356
0.0073879514
0.0074132096
0.0074278054
0.0073687025
0.0074654553
0.0076703395
0.0076776551
0.0075251786
0.0076052686
0.0077675042
0.0085357614
0.0084413734
0.0084114177
0.008302889
0.0077294727
0.0076401788
0.0076757427
0.0077226468
0.0077682784
0.0078120851
0.0078476075
0.0078785677
0.0078950909
0.0078998646
0.0078337393
0.0079196758
0.0081119661
0.0081046854
0.0079450857
0.008012221
0.0081537736
0.0089029351
0.0087333865
0.032072567
0.032046241
0.032020138
0.031994223
0.031968453
0.031942783
0.03191716
0.031891527
0.031865821
0.031839969
0.031813891
0.031787488
0.031760655
0.031733256
0.031705144
0.031676126
0.031645985
0.031614472
0.031581289
0.031546114
0.031508611
0.031468325
0.031424849
0.031377618
0.03132617
0.031269843
0.031208139
0.031140232
0.031065328
0.031048273
0.031038308
0.031036399
0.031035583
0.031037938
0.031127744
0.031121826
0.031119662
0.031116565
0.031116495
0.031117602
0.031125986
0.031195962
0.031189274
0.031188872
0.031189741
0.031193394
0.031196807
0.031203566
0.031211022
0.031219695
0.031230385
0.031243267
0.03125697
0.031271897
0.031287521
0.031303619
0.031319002
0.031333521
0.031346164
0.031357071
0.03136745
0.031375096
0.031383509
0.031391949
0.031399125
0.031407434
0.03141401
0.031420285
0.031538881
0.031552434
0.031565667
0.031578497
0.031590324
0.03160129
0.031611321
0.031622616
0.031681929
0.031672217
0.031663289
0.031653452
0.031642772
0.031631176
0.031619384
0.031607254
0.031597573
0.031588294
0.031578668
0.031570029
0.031560994
0.031552746
0.03154409
0.031536392
0.031528316
0.031520621
0.031512458
0.031505818
0.031498725
0.031492029
0.031486149
0.031479376
0.031471288
0.031464055
0.031455637
0.031447448
0.031439375
0.031428768
0.031418259
0.031405122
0.031390531
0.031375594
0.031358964
0.031343546
0.03132777
0.031313862
0.031300833
0.031289205
0.031279797
0.03127162
0.031264408
0.031260244
0.031256146
0.031254591
0.03125438
0.031259788
0.031317752
0.031313668
0.031314415
0.031316583
0.031321037
0.031325831
0.031333381
0.031342093
0.031351892
0.031364119
0.031377505
0.031391654
0.031407768
0.031423389
0.031440089
0.031455085
0.031469509
0.031482877
0.031493445
0.031504005
0.031512425
0.031520375
0.031528823
0.031536175
0.031543988
0.031550737
0.031556679
0.031563516
0.031570576
0.031577274
0.031585227
0.031592894
0.031600665
0.031608372
0.031616685
0.031624878
0.031633481
0.031641927
0.031650911
0.031659595
0.031668455
0.031679462
0.031690079
0.031700552
0.031710233
0.031719114
0.031727056
0.031735539
0.031784093
0.031776786
0.031769707
0.031761667
0.031752837
0.031743303
0.031733616
0.031723698
0.031715318
0.031707125
0.031698724
0.031690384
0.031682234
0.031674026
0.031666088
0.031658311
0.031650913
0.031643163
0.03163547
0.031628718
0.031621704
0.031615077
0.031608869
0.031602308
0.031594749
0.031587389
0.031579106
0.031571272
0.031562334
0.031551894
0.031541089
0.031527636
0.031513442
0.03149832
0.031481628
0.031465874
0.031449686
0.031435229
0.031421315
0.031408785
0.031398699
0.031389563
0.031381712
0.031376387
0.031371623
0.031368934
0.031367732
0.031370823
0.031419294
0.031417196
0.031418784
0.03142193
0.03142694
0.03143273
0.03144081
0.031450269
0.031460798
0.031473545
0.031487687
0.031502363
0.031518563
0.031534465
0.031551067
0.031566373
0.031580514
0.03159387
0.031604875
0.031615309
0.031624369
0.031632291
0.0316404
0.031647816
0.031655153
0.031661526
0.03166796
0.031674351
0.031681326
0.03168816
0.031695571
0.031703269
0.031710614
0.031718179
0.031726061
0.031734003
0.031742024
0.031749987
0.031758034
0.031765789
0.031773782
0.031782794
0.03179162
0.031800333
0.031808427
0.031815718
0.031822091
0.031828471
0.031869002
0.031863498
0.031857744
0.03185109
0.031843695
0.031835621
0.031827621
0.031819342
0.031811783
0.031804305
0.031796453
0.031788939
0.03178091
0.031773327
0.031765376
0.03175811
0.031750632
0.03174308
0.031735994
0.031729112
0.031722317
0.031716062
0.031709368
0.031703043
0.031695955
0.031688492
0.031680548
0.031672512
0.031663403
0.031653004
0.031641893
0.031628558
0.031614451
0.031598969
0.031582467
0.031566497
0.031550329
0.031535486
0.031521194
0.031508378
0.031497416
0.031487692
0.031479427
0.03147325
0.031468035
0.031464511
0.031462606
0.031463966
0.031505152
0.031504511
0.031506673
0.031510515
0.031515885
0.031522395
0.031530806
0.031540726
0.031552013
0.03156484
0.031579239
0.031594221
0.031610324
0.03162632
0.031642685
0.031658177
0.03167233
0.031685631
0.031696865
0.031707201
0.031716364
0.031724543
0.031732317
0.031739717
0.031746684
0.031753071
0.0317598
0.03176601
0.031772649
0.031779485
0.03178651
0.031793889
0.031801262
0.03180848
0.031816292
0.031823748
0.031831591
0.031838925
0.031846493
0.031853731
0.031860912
0.031868566
0.03187586
0.031883392
0.031890201
0.031896311
0.031901528
0.031906352
0.031940825
0.03193662
0.031931854
0.031926189
0.031919861
0.031912836
0.031906132
0.031898989
0.031892163
0.03188508
0.031877794
0.031870584
0.03186294
0.031855567
0.031847916
0.031840726
0.031833444
0.031826284
0.031819171
0.031812456
0.031805965
0.031799738
0.031793067
0.031786654
0.031779662
0.031772377
0.031764792
0.031756482
0.031747407
0.031737002
0.031725583
0.031712366
0.031698134
0.031682742
0.031666525
0.031650554
0.031634531
0.031619507
0.031605134
0.031592294
0.031580681
0.031570625
0.031562107
0.031555317
0.03154983
0.031545733
0.03154338
0.031543482
0.031579365
0.031579711
0.031582272
0.031586529
0.031592134
0.031599103
0.031607736
0.031617837
0.031629551
0.03164244
0.031656749
0.031671795
0.031687695
0.031703636
0.031719679
0.031734962
0.031749159
0.031762369
0.031773909
0.031784278
0.031793436
0.03180172
0.031809308
0.031816459
0.031823429
0.031829855
0.031836458
0.03184271
0.031849093
0.031855732
0.031862769
0.031869783
0.031877026
0.031884217
0.031891711
0.031899016
0.031906472
0.031913582
0.031920608
0.031927494
0.031934077
0.031940798
0.031947086
0.031953606
0.031959516
0.031964799
0.031969205
0.031972937
0.032002939
0.031999632
0.031995531
0.031990563
0.031984996
0.031978901
0.03197296
0.031966574
0.031960161
0.031953483
0.031946697
0.031939666
0.031932372
0.031925138
0.031917783
0.031910617
0.031903416
0.031896474
0.03188959
0.031882974
0.031876646
0.031870377
0.031863833
0.03185743
0.031850543
0.031843477
0.031835806
0.0318276
0.031818304
0.03180803
0.031796415
0.031783218
0.031769092
0.031753935
0.031738066
0.031722193
0.031706429
0.031691415
0.031677197
0.031664296
0.031652611
0.031642494
0.031633723
0.031626657
0.031620875
0.031616569
0.031613848
0.031613179
0.031645173
0.031646146
0.031648975
0.031653306
0.031659188
0.031666345
0.031675178
0.03168532
0.031696952
0.031709832
0.031723929
0.031738876
0.03175448
0.031770257
0.031785947
0.031800969
0.031815038
0.031828141
0.031839747
0.031849999
0.031859316
0.031867531
0.031875178
0.03188221
0.031889025
0.031895417
0.031901899
0.031908222
0.03191453
0.03192108
0.031927853
0.031934778
0.031941896
0.031949022
0.031956249
0.031963419
0.031970562
0.031977489
0.03198416
0.031990638
0.03199688
0.03200297
0.032008641
0.03201438
0.032019658
0.032024372
0.032028216
0.032031199
0.032057902
0.0320552
0.032051568
0.032047067
0.032042025
0.032036572
0.032031108
0.032025291
0.032019237
0.032012914
0.032006277
0.031999469
0.031992468
0.031985346
0.031978241
0.031971151
0.031964127
0.031957223
0.031950522
0.031943993
0.031937665
0.031931351
0.031924918
0.031918546
0.03191179
0.031904776
0.03189718
0.03188897
0.031879696
0.031869453
0.031857866
0.031844909
0.031830908
0.031816041
0.031800548
0.031784891
0.031769478
0.031754627
0.031740683
0.031727856
0.03171631
0.03170616
0.031697327
0.031690114
0.031684208
0.031679849
0.031676913
0.031675737
0.031705047
0.031706412
0.031709424
0.031713816
0.031719726
0.031726965
0.031735763
0.031745891
0.031757349
0.031770045
0.03178386
0.031798534
0.031813781
0.031829236
0.031844542
0.031859238
0.031873121
0.031885932
0.031897436
0.03190764
0.031916855
0.031925057
0.03193259
0.031939591
0.031946286
0.03195265
0.03195903
0.031965319
0.031971688
0.031978214
0.031984883
0.031991737
0.031998692
0.032005702
0.032012748
0.03201978
0.032026688
0.032033402
0.032039949
0.032046164
0.032052065
0.032057662
0.032062954
0.032068172
0.032073015
0.032077336
0.032080802
0.032083289
0.032107479
0.032105176
0.032101849
0.032097676
0.032092997
0.032087975
0.032082835
0.032077406
0.032071635
0.032065508
0.032059068
0.032052427
0.032045583
0.032038645
0.032031635
0.032024711
0.032017809
0.032010998
0.032004363
0.031997848
0.031991454
0.031985173
0.031978832
0.03197248
0.031965841
0.031958858
0.031951396
0.031943217
0.03193408
0.031923939
0.031912552
0.031899922
0.031886205
0.031871693
0.031856584
0.031841375
0.03182631
0.031811856
0.031798185
0.03178566
0.031774311
0.031764234
0.031755496
0.031748264
0.03174237
0.031737954
0.031734902
0.031733403
0.031760976
0.031762588
0.031765659
0.03177008
0.03177594
0.03178314
0.031791794
0.031801774
0.031812991
0.031825355
0.031838828
0.03185306
0.031867883
0.031882848
0.031897712
0.031911996
0.031925492
0.031937933
0.031949176
0.031959229
0.031968269
0.03197639
0.031983807
0.031990732
0.031997332
0.032003673
0.03200998
0.032016264
0.032022628
0.032029132
0.032035749
0.032042514
0.032049375
0.032056255
0.032063205
0.032070088
0.032076861
0.032083432
0.032089773
0.032095806
0.032101466
0.03210677
0.032111787
0.032116649
0.032121187
0.032125238
0.032128447
0.03213061
0.032152747
0.032150703
0.032147591
0.032143645
0.032139221
0.032134496
0.032129578
0.032124381
0.032118814
0.032112873
0.032106625
0.03210011
0.032093412
0.032086572
0.032079683
0.032072836
0.032066013
0.0320593
0.032052685
0.032046202
0.032039874
0.03203359
0.032027314
0.032020989
0.032014427
0.032007576
0.032000199
0.031992166
0.031983248
0.031973317
0.031962246
0.031950023
0.031936785
0.03192276
0.031908183
0.031893493
0.031878949
0.031864964
0.031851723
0.031839539
0.031828473
0.031818622
0.031810074
0.031802927
0.031797116
0.031792708
0.031789635
0.031787952
0.031814452
0.031816189
0.031819252
0.031823631
0.03182938
0.031836454
0.031844882
0.031854584
0.031865473
0.031877451
0.031890432
0.031904139
0.031918371
0.031932749
0.031947001
0.031960728
0.03197367
0.031985642
0.031996502
0.032006271
0.032015056
0.032022987
0.032030288
0.03203708
0.032043591
0.032049891
0.032056132
0.032062404
0.032068717
0.032075175
0.032081763
0.032088447
0.032095225
0.032102037
0.032108865
0.032115655
0.032122299
0.032128747
0.032134927
0.032140778
0.032146262
0.032151365
0.032156195
0.032160803
0.032165126
0.032168983
0.032172012
0.032173964
0.032194294
0.032192424
0.032189466
0.032185687
0.032181454
0.032176949
0.032172201
0.032167179
0.032161775
0.032156007
0.032149883
0.032143506
0.032136906
0.032130172
0.032123405
0.03211663
0.0321099
0.032103243
0.032096686
0.032090259
0.032083957
0.032077706
0.032071505
0.032065237
0.032058785
0.032052063
0.032044863
0.032037053
0.032028418
0.032018853
0.03200824
0.031996556
0.031983948
0.031970561
0.031956671
0.031942645
0.031928759
0.031915364
0.031902668
0.031890926
0.031880236
0.031870701
0.031862407
0.031855422
0.031849748
0.031845411
0.031842372
0.031840608
0.031866509
0.031868287
0.031871293
0.031875577
0.031881166
0.031888047
0.031896193
0.031905544
0.031916014
0.031927495
0.031939879
0.031952931
0.031966437
0.031980072
0.031993557
0.032006558
0.032018801
0.03203015
0.032040482
0.032049813
0.032058261
0.032065925
0.032073007
0.032079647
0.03208603
0.032092252
0.032098419
0.032104636
0.032110919
0.03211731
0.032123833
0.032130453
0.032137138
0.032143867
0.032150584
0.032157259
0.032163799
0.032170118
0.032176176
0.032181876
0.032187201
0.032192151
0.032196815
0.032201228
0.03220538
0.032209087
0.032211981
0.032213785
0.032232471
0.032230725
0.032227891
0.032224254
0.032220181
0.032215852
0.032211271
0.032206393
0.032201142
0.032195507
0.032189518
0.032183261
0.032176783
0.032170172
0.032163506
0.032156828
0.032150194
0.03214362
0.032137142
0.03213079
0.032124533
0.032118357
0.03211223
0.032106066
0.032099764
0.032093223
0.032086278
0.032078784
0.032070559
0.032061494
0.032051479
0.032040505
0.032028664
0.032016095
0.032003054
0.031989848
0.031976755
0.031964077
0.03195203
0.031940833
0.031930603
0.031921451
0.031913466
0.031906702
0.031901209
0.031896988
0.031894025
0.031892249
0.031917902
0.031919663
0.03192258
0.031926723
0.031932116
0.031938747
0.031946563
0.031955501
0.031965472
0.031976364
0.031988051
0.032000328
0.032012977
0.03202572
0.032038279
0.032050377
0.032061774
0.032072339
0.032081997
0.03209076
0.032098736
0.032106035
0.032112823
0.032119249
0.032125457
0.03213155
0.032137626
0.032143751
0.032149966
0.032156274
0.032162699
0.032169221
0.032175801
0.032182417
0.032189023
0.032195564
0.032201974
0.032208164
0.032214081
0.032219646
0.032224824
0.032229631
0.03223413
0.032238376
0.032242373
0.03224594
0.032248715
0.032250411
0.032267672
0.032266024
0.032263307
0.03225981
0.032255891
0.032251728
0.032247311
0.03224258
0.032237476
0.032231988
0.03222615
0.032220035
0.032213703
0.032207238
0.032200701
0.032194157
0.032187639
0.03218118
0.032174816
0.032168563
0.032162407
0.032156343
0.03215033
0.032144321
0.032138221
0.032131928
0.032125317
0.032118236
0.032110538
0.032102107
0.032092841
0.03208272
0.032071803
0.03206021
0.032048165
0.032035919
0.032023738
0.032011887
0.032000579
0.03199001
0.031980311
0.031971602
0.031963964
0.031957477
0.031952194
0.031948135
0.031945271
0.031943535
0.031969205
0.031970913
0.031973715
0.031977685
0.031982849
0.031989185
0.031996632
0.032005107
0.03201452
0.032024751
0.032035665
0.032047073
0.032058763
0.032070489
0.032081996
0.032093053
0.032103459
0.032113107
0.032121954
0.032130027
0.032137425
0.032144263
0.032150682
0.032156821
0.032162797
0.03216871
0.03217464
0.03218063
0.032186714
0.032192899
0.032199192
0.032205575
0.032212015
0.032218479
0.032224933
0.032231313
0.032237558
0.032243589
0.032249341
0.032254746
0.032259767
0.032264417
0.032268749
0.032272827
0.032276664
0.032280089
0.032282745
0.032284348
0.032300552
0.032298992
0.032296401
0.032293053
0.032289302
0.032285314
0.032281074
0.032276512
0.032271581
0.03226627
0.032260613
0.032254678
0.032248531
0.032242249
0.032235892
0.032229522
0.032223174
0.03221688
0.032210673
0.032204571
0.032198573
0.032192671
0.032186842
0.032181042
0.032175203
0.032169235
0.032163025
0.032156448
0.03214937
0.032141677
0.032133271
0.032124117
0.032114242
0.032103742
0.03209279
0.032081601
0.032070415
0.032059461
0.032048951
0.032039067
0.032029948
0.032021715
0.032014467
0.03200829
0.032003252
0.031999377
0.031996641
0.031994969
0.032020873
0.032022506
0.032025171
0.032028945
0.032033852
0.032039863
0.032046907
0.032054892
0.032063712
0.032073247
0.03208335
0.032093845
0.032104525
0.03211517
0.032125559
0.032135494
0.032144827
0.032153475
0.032161427
0.032168727
0.032175471
0.032181772
0.032187757
0.03219354
0.032199226
0.032204895
0.032210609
0.032216405
0.032222301
0.032228302
0.032234407
0.032240594
0.032246835
0.032253097
0.032259342
0.032265513
0.032271548
0.032277374
0.032282923
0.032288131
0.032292962
0.032297425
0.032301567
0.032305459
0.032309117
0.032312382
0.032314906
0.032316421
0.03233211
0.03233064
0.032328187
0.032325012
0.032321456
0.032317667
0.032313631
0.032309278
0.032304559
0.032299467
0.032294039
0.032288335
0.032282427
0.032276384
0.032270267
0.032264131
0.032258015
0.03212762
0.032117439
0.032107399
0.032097698
0.032088512
0.03207999
0.032072256
0.032065421
0.032059579
0.032054809
0.03205114
0.03204855
0.032046961
0.032073268
0.03207481
0.032077323
0.032080882
0.032085511
0.032091179
0.032097804
0.032105287
0.032113515
0.032287587
0.032293558
0.032299457
0.032305222
0.032310787
0.03231608
0.032321042
0.032325637
0.032329869
0.032333788
0.032337464
0.032340911
0.03234399
0.032346366
0.032347789
0.032357209
0.032341702
0.032326173
0.032310451
0.032294382
0.032277828
0.032260673
0.032242827
0.03222422
0.032204796
0.032184515
0.032163342
0.032141229
0.032118118
0.032093928
0.032068542
0.032041812
0.032013533
0.031983468
0.031951315
0.031916738
0.031879319
0.031838628
0.03179416
0.0317454
0.031691689
0.031632173
0.0067377436
0.0067383754
0.0067376486
0.0067359888
0.0067330168
0.0067285694
0.0067226608
0.0067155124
0.0067064899
0.0066961676
0.0066846901
0.0066726956
0.0066601485
0.0066453511
0.0066225128
0.0065734385
0.0064218026
0.0060875383
0.0045949873
0.0017947567
0.001244139
0.00060806418
0.001811854
0.0073679812
0.0080294466
0.0075908091
0.0080974476
0.0080803717
0.0081496137
0.0083367651
0.0084281474
0.0085439564
0.0086045398
0.0086815143
0.0087287957
0.0087965828
0.008839765
0.008857572
0.0087400464
0.0086126331
0.0085031396
0.0090466583
0.0092699649
0.0093893941
0.0094657417
0.009603033
0.0096918135
0.0098363897
0.0099342147
0.010090794
0.010011401
0.0097142451
0.010093674
0.010647311
0.010774334
0.010950365
0.010395661
0.010506076
0.011398314
0.011563634
0.011689508
0.010849489
0.010528123
0.010568613
0.010680268
0.010729958
0.010715686
0.010821123
0.011072212
0.01136412
0.011950127
0.012733115
0.012775096
0.012820086
0.012851978
0.012880914
0.012902846
0.012925063
0.012944915
0.012938772
0.012547778
0.012405056
0.012285906
0.01237247
0.012638382
0.012986498
0.013125718
0.013146232
0.01316525
0.013185095
0.01320688
0.013214854
0.012972803
0.013250012
0.013258526
0.013258134
0.013260265
0.013256966
0.013259707
0.013252608
0.013252082
0.013248894
0.013256612
0.013261951
0.013277068
0.013298375
0.013331556
0.013371996
0.01341724
0.013473183
0.013530589
0.013592803
0.013649883
0.013710541
0.013762867
0.013813536
0.013855883
0.013899293
0.01393971
0.013979261
0.014016374
0.01405668
0.01409711
0.014136849
0.014172664
0.014208531
0.014245271
0.014272459
0.014300544
0.014319871
0.014342741
0.014349874
0.014354633
0.014337753
0.014322655
0.014270152
0.014216369
0.014115713
0.014023285
0.013867471
0.01372271
0.013498471
0.013298513
0.013009675
0.012753432
0.01239923
0.012114294
0.011734174
0.0113866
0.010855348
0.010380521
0.0096363093
0.0090675798
0.0082932551
0.0080008401
0.0080024331
0.0082269351
0.0083068895
0.0083856735
0.0083296394
0.0082547992
0.0081309288
0.0080368513
0.0075365379
0.0074916873
0.0076320645
0.007572152
0.007754554
0.0078162021
0.0079996345
0.0089513769
0.0095701278
0.010272856
0.010771567
0.011281667
0.011650499
0.01202157
0.012323692
0.012662459
0.012927996
0.013198021
0.013406588
0.01362168
0.01377246
0.013919948
0.014017389
0.014110428
0.014166681
0.014211813
0.014228059
0.01424429
0.014242772
0.014234268
0.014208986
0.01418908
0.01416469
0.012862083
0.012900576
0.014066014
0.014029739
0.013988905
0.013949691
0.013907962
0.013871772
0.013830591
0.013790949
0.013746267
0.013704761
0.013655139
0.013604354
0.01354641
0.013488385
0.013429994
0.013370446
0.013316596
0.01326946
0.013231069
0.013196759
0.013176557
0.013161287
0.013157029
0.013149553
0.013152679
0.013152467
0.013158722
0.01315653
0.013042161
0.011683102
0.011682229
0.012789001
0.012996467
0.013119971
0.013103769
0.013082283
0.012348399
0.01152646
0.011655337
0.011749952
0.011666328
0.011535031
0.011323285
0.011176247
0.011028367
0.010785845
0.010461026
0.010190132
0.0099095337
0.0096240325
0.0095577353
0.0096239619
0.0096512788
0.0098110463
0.010171196
0.010451203
0.010521317
0.010499263
0.010444824
0.010423443
0.010295606
0.0099966091
0.0097699792
0.0095811437
0.0096469516
0.010395595
0.010590438
0.01022113
0.010186676
0.0099116955
0.0095496304
0.009199045
0.0091737295
0.0092737516
0.0092344519
0.0093768124
0.0095915823
0.0097907092
0.009655581
0.0095623849
0.0088740448
0.0075321586
0.007749624
0.0081609561
0.0082983661
0.008809959
0.0089326742
0.0087090493
0.0082757554
0.0085101539
0.0087024215
0.0086521334
0.0085776721
0.0084663674
0.0083405709
0.008263406
0.0081453132
0.0074298763
0.0082062308
0.0075643706
0.0018319344
0.00062500806
0.0012205611
0.0018497967
0.0012919242
0.00063608049
0.0018415582
0.0072160495
0.0083248671
0.0076003902
0.0081824767
0.0081129764
0.0080619235
0.0084369745
0.0071380715
0.0018937018
0.00063886398
0.001262427
0.0018698643
0.0013100501
0.00063660253
0.0019003161
0.0071058012
0.008510095
0.0081819601
0.0079954402
0.0079331806
0.0083164334
0.0085821585
0.0068294418
0.0018871497
0.00064898468
0.0012860375
0.0018740601
0.0013126246
0.00065491356
0.0018729929
0.0067666937
0.0086374457
0.0083844212
0.0080812207
0.0084922996
0.0084767892
0.0087004537
0.0069068593
0.0018858475
0.00065859217
0.0012974687
0.0018725683
0.0013241365
0.00066047823
0.0018742654
0.0071478255
0.0087491537
0.0082786899
0.0087996969
0.0088653711
0.0078018911
0.0084960937
0.0075691405
0.001920059
0.00066371202
0.0013147784
0.0018752036
0.0013244569
0.00065851138
0.0019686533
0.0074520914
0.0083833078
0.0077481578
0.0089187146
0.0089925031
0.0080071138
0.0081463925
0.0076162233
0.0019716532
0.00066604534
0.0013202811
0.0018835201
0.0013418293
0.00067170429
0.0019463804
0.007559057
0.0077599375
0.0085272126
0.0090545953
0.0088194749
0.0084084363
0.0090895045
0.007353734
0.0019425308