/*--------------------------------*- C++ -*----------------------------------*\
| =========                 |                                                 |
| \\      /  F ield         | OpenFOAM: The Open Source CFD Toolbox           |
|  \\    /   O peration     | Version:  v2012                                 |
|   \\  /    A nd           | Website:  www.openfoam.com                      |
|    \\/     M anipulation  |                                                 |
\*---------------------------------------------------------------------------*/
FoamFile
{
    version     2.0;
    format      ascii;
    class       surfaceScalarField;
    location    "200";
    object      phi;
}
// * * * * * * * * * * * * * * * * * * * * * * * * * * * * * * * * * * * * * //

dimensions      [0 3 -1 0 0 0 0];
oriented        oriented;


internalField   nonuniform List<scalar> 
144700
(
0.00074660761
0.0001336917
0.00021104168
0.00020067588
0.0003235398
0.00022239194
0.00013046325
4.9350537e-05
2.0862086e-05
0.00016380802
-1.3479814e-05
-1.9864948e-05
0.00021075062
-3.1292319e-05
-1.5650286e-05
0.00015214879
6.3151584e-05
-4.5497513e-06
0.00016367615
-4.0994307e-06
-7.4279281e-06
0.00019259114
-2.8958665e-05
4.3674399e-08
0.00021577889
-2.0914699e-05
-2.2730548e-06
0.00022907491
-1.2692497e-05
-6.0351526e-07
0.00023560231
-7.6002659e-06
1.072861e-06
0.00023662572
-4.1199753e-06
3.0965674e-06
0.00023095676
-1.013535e-06
6.6824957e-06
0.00021787527
6.350357e-08
1.3017986e-05
0.00020749341
-9.4207458e-06
1.9802599e-05
0.0002408211
-1.5542555e-05
-1.7785133e-05
0.00054258302
-0.0001025281
-0.00019923382
0.00095778681
-0.00023984739
-0.0001753564
0.0010434297
-8.9721128e-05
4.078267e-06
0.00072308104
0.00012274431
0.00019760432
0.00019600109
0.00031203031
0.00021504964
0.00012671507
4.901741e-05
2.0268611e-05
0.00015871986
-1.2642688e-05
-1.9362107e-05
0.00020325566
-2.9456582e-05
-1.5079222e-05
0.00014627285
6.1436936e-05
-4.4541192e-06
0.00015708105
-3.7464949e-06
-7.0617102e-06
0.00018490784
-2.7868074e-05
4.1288252e-08
0.0002071784
-2.0010327e-05
-2.2602321e-06
0.00022088169
-1.265122e-05
-1.052074e-06
0.00022899476
-8.1596591e-06
4.6589265e-08
0.00023234545
-4.6714691e-06
1.3207791e-06
0.00022856915
3.4045469e-07
3.4358463e-06
0.00020556386
1.8097457e-05
4.9078331e-06
0.00011710318
8.3660089e-06
8.0094669e-05
0.00010727705
2.7176365e-06
7.1085012e-06
0.00010132599
-9.9808057e-06
1.5931861e-05
0.00019340997
-7.7510955e-05
-1.4573024e-05
0.0004810624
-0.00012585047
-0.00016180197
0.00082810385
-0.00024407602
-0.00010296542
0.00063283647
6.9778497e-05
0.00012548888
0.00017227865
0.00027126373
0.0001892941
0.0001121229
4.2645615e-05
1.7510128e-05
0.00014345
-1.2589596e-05
-1.8737499e-05
0.00018613487
-2.861831e-05
-1.4066561e-05
0.00013424215
5.5697941e-05
-3.8052169e-06
0.00014403484
-3.8058935e-06
-5.9868038e-06
0.00016814784
-2.5646709e-05
1.5337119e-06
0.00018491359
-1.7747892e-05
9.8214094e-07
0.00018945496
-9.7269179e-06
5.1855531e-06
0.0001821404
-4.8444693e-06
1.2159022e-05
0.00017073144
-9.6007451e-06
2.1009709e-05
0.00018689587
-1.3506184e-05
-2.6582419e-06
0.00025795401
4.97537e-05
-0.00012081184
0.00042678967
-0.00013368998
-3.5145681e-05
0.00072701537
-0.00015800795
-0.00014221775
0.00077470028
-7.6308055e-05
2.8623146e-05
0.00088690308
-4.4611921e-05
-6.7590879e-05
0.0018773159
-0.00030622313
-0.00068418967
0.003291308
-0.00062369326
-0.00079029886
0.0036996301
-0.00013745343
-0.0002708687
0.0038040635
-1.6167179e-05
-8.8266179e-05
0.0038241288
9.5490098e-06
-2.9614309e-05
0.003824497
1.1710661e-05
-1.2078859e-05
0.0038254929
8.0640908e-06
-9.0599695e-06
0.003828596
4.9312809e-06
-8.0343845e-06
0.0038343414
2.5642994e-06
-8.3096994e-06
0.0038404361
1.5496872e-06
-7.6444112e-06
0.0038465561
1.0077211e-06
-7.1277541e-06
0.0038520732
8.7810946e-07
-6.3951545e-06
0.0038569568
8.7436787e-07
-5.7579606e-06
0.0038612179
9.187552e-07
-5.1799348e-06
0.0038649322
9.7412041e-07
-4.6883915e-06
0.0038681777
1.0279531e-06
-4.2734768e-06
0.003871025
1.0734632e-06
-3.9207556e-06
1.1130503e-06
-3.6212766e-06
-0.0039170475
3.9357605e-07
-9.1181912e-07
1.3773841e-06
-0.0039180003
2.4401634e-07
-6.1420453e-07
1.322969e-06
-0.0039190619
6.7838916e-08
-2.6420976e-07
1.2580296e-06
-0.0039202506
-1.370995e-07
1.435818e-07
1.1822004e-06
-0.0039215878
-3.7545825e-07
6.175999e-07
1.0950904e-06
-0.0039231013
-6.5118044e-07
1.1681772e-06
9.9652414e-07
-0.0039248255
-9.6784526e-07
1.8039683e-06
8.8806515e-07
-0.00392679
-1.3329546e-06
2.5333995e-06
7.6397984e-07
-0.0039290313
-1.7492311e-06
3.3648424e-06
6.2568232e-07
-0.0039316
-2.21606e-06
4.3051424e-06
4.796532e-07
-0.0039345439
-2.7373924e-06
5.3592228e-06
3.2210332e-07
-0.0039379052
-3.3156351e-06
6.5255826e-06
1.5137194e-07
-0.0039417297
-3.9423196e-06
7.7905963e-06
-2.3861491e-08
-0.0039460678
-4.60639e-06
9.1432426e-06
-1.9867512e-07
-0.0039509523
-5.3004372e-06
1.0560545e-05
-3.7567789e-07
-0.003956397
-6.0063622e-06
1.2003114e-05
-5.5199436e-07
-0.0039624031
-6.6963286e-06
1.3418472e-05
-7.1602976e-07
-0.0039689478
-7.3470896e-06
1.475486e-05
-8.6308974e-07
-0.0039759829
-7.936871e-06
1.5962898e-05
-9.9094606e-07
-0.0039834435
-8.4437197e-06
1.699876e-05
-1.0944329e-06
-0.0039912537
-8.8491344e-06
1.7827503e-05
-1.1681796e-06
-0.003999327
-9.141144e-06
1.8424874e-05
-1.2103993e-06
-0.0040075666
-9.3141744e-06
1.8776055e-05
-1.2223393e-06
-0.0040158727
-9.3627485e-06
1.887225e-05
-1.2034039e-06
-0.0040241498
-9.2843778e-06
1.8714585e-05
-1.1530343e-06
-0.0040323041
-9.0835343e-06
1.830976e-05
-1.0719957e-06
-0.0040402382
-8.764374e-06
1.766464e-05
-9.6617628e-07
-0.004047862
-8.3268263e-06
1.6784615e-05
-8.3399076e-07
-7.7731665e-06
1.5674499e-05
-6.733207e-07
0.0040197229
1.3007386e-05
-2.2097494e-06
0.0040088569
1.302922e-05
-2.1631632e-06
0.0039980366
1.2933255e-05
-2.1130439e-06
0.0039873683
1.2721687e-05
-2.053315e-06
0.0039769531
1.2407606e-05
-1.9924117e-06
0.00396689
1.2000162e-05
-1.9371114e-06
0.003957263
1.1506384e-05
-1.8793517e-06
0.0039481361
1.0942022e-05
-1.8151742e-06
0.0039395629
1.032466e-05
-1.7514224e-06
0.0039315853
9.672418e-06
-1.6948016e-06
0.0039242301
8.9938805e-06
-1.6387381e-06
0.0039175067
8.2997244e-06
-1.576263e-06
0.003911411
7.6113108e-06
-1.5155913e-06
0.003905929
6.9442319e-06
-1.4622261e-06
0.0039010377
6.3031999e-06
-1.411961e-06
0.0038967068
5.689677e-06
-1.3587339e-06
0.0038929019
5.1087763e-06
-1.3039104e-06
0.0038895849
4.5702006e-06
-1.2532166e-06
0.003886714
4.080083e-06
-1.2091338e-06
0.0038842477
3.6321311e-06
-1.1658589e-06
0.0038821443
3.2234022e-06
-1.1199776e-06
0.003880366
2.8547453e-06
-1.0764513e-06
0.0038788786
2.5257345e-06
-1.0383062e-06
0.0038776453
2.2356848e-06
-1.0024357e-06
0.0038766313
1.9775063e-06
-9.6346037e-07
0.0038758119
1.7452664e-06
-9.2588591e-07
0.0038751645
1.5402624e-06
-8.9292348e-07
-0.004148986
3.205533e-06
-9.8775694e-07
-0.0041498363
3.6273155e-06
-1.0318173e-06
-0.0041508925
4.108195e-06
-1.0744253e-06
-0.0041521876
4.6472489e-06
-1.1164899e-06
-0.0041537568
5.2545512e-06
-1.1596279e-06
-0.0041556331
5.9394497e-06
-1.2084295e-06
-0.0041578539
6.7058569e-06
-1.2616228e-06
-0.0041604628
7.5573302e-06
-1.3162954e-06
-0.0041635098
8.4962626e-06
-1.3691458e-06
-0.004167041
9.524875e-06
-1.4235483e-06
-0.0041710915
1.0647033e-05
-1.4877529e-06
-0.0041756998
1.1856135e-05
-1.5581398e-06
-0.0041809141
1.3142324e-05
-1.6248127e-06
-0.0041867763
1.4493423e-05
-1.6869944e-06
-0.0041933089
1.589847e-05
-1.7545552e-06
-0.0042005188
1.7341054e-05
-1.8313828e-06
-0.0042084087
1.8794118e-05
-1.9104125e-06
-0.0042169778
2.0224619e-05
-1.9830498e-06
-0.0042262005
2.1603226e-05
-2.0558613e-06
-0.0042360275
2.2901583e-05
-2.1326008e-06
-0.0042463986
2.4087595e-05
-2.2101043e-06
-0.0042572426
2.5127995e-05
-2.2837984e-06
-0.0042684768
2.5992437e-05
-2.3506721e-06
-0.00427999
2.6654735e-05
-2.4198272e-06
-0.0042916678
2.7098887e-05
-2.4878069e-06
-0.0043034003
2.7307214e-05
-2.5454672e-06
2.7266856e-05
-2.5983098e-06
0.0047312397
4.3458116e-05
-3.1726234e-06
0.0047181443
4.3512096e-05
-3.1095288e-06
0.0047051138
4.3168798e-05
-3.0394092e-06
0.0046922783
4.2449197e-05
-2.9589647e-06
0.0046797701
4.1376113e-05
-2.875406e-06
0.0046677045
3.998266e-05
-2.789061e-06
0.0046561743
3.8311318e-05
-2.6935591e-06
0.004645265
3.6406691e-05
-2.5957861e-06
0.0046350472
3.4319239e-05
-2.4982773e-06
0.0046255715
3.2102136e-05
-2.4017669e-06
0.004616863
2.9807134e-05
-2.3045594e-06
0.0046089218
2.7485252e-05
-2.2029311e-06
0.0046017428
2.518065e-05
-2.1032056e-06
0.0045953189
2.2931577e-05
-2.0142336e-06
0.0045896243
2.0768867e-05
-1.9319961e-06
0.0045846048
1.8720986e-05
-1.8452894e-06
0.0045802023
1.6804345e-05
-1.7548612e-06
0.0045763722
1.5027021e-05
-1.6719888e-06
0.0045730767
1.3392622e-05
-1.6008908e-06
0.0045702644
1.1902687e-05
-1.5330762e-06
0.0045678797
1.055614e-05
-1.4656098e-06
0.0045658709
9.3475676e-06
-1.3992879e-06
0.0045641941
8.2679528e-06
-1.3366092e-06
0.004562818
7.3066218e-06
-1.2832299e-06
0.0045617078
6.4534005e-06
-1.2350117e-06
0.0045608163
5.7008344e-06
-1.1820834e-06
5.043988e-06
-1.1263071e-06
-0.0049728906
6.9819611e-06
-1.2242299e-06
-0.0049738
7.8914884e-06
-1.2812979e-06
-0.0049749377
8.9307275e-06
-1.3396045e-06
-0.0049763556
1.0115866e-05
-1.3912969e-06
-0.0049780941
1.1454376e-05
-1.4479535e-06
-0.0049801908
1.2957987e-05
-1.5137319e-06
-0.0049826953
1.4643256e-05
-1.5825815e-06
-0.0049856631
1.652418e-05
-1.6537276e-06
-0.0049891536
1.8609635e-05
-1.726502e-06
-0.0049932262
2.0902407e-05
-1.8028059e-06
-0.0049979308
2.339916e-05
-1.890234e-06
-0.0050033239
2.6097603e-05
-1.9834654e-06
-0.0050094686
2.8988816e-05
-2.075237e-06
-0.0050164223
3.204981e-05
-2.1645601e-06
-0.0050242244
3.524213e-05
-2.2593481e-06
-0.005032892
3.8517229e-05
-2.3644254e-06
-0.0050424367
4.1823551e-05
-2.4716952e-06
-0.0050528565
4.5098877e-05
-2.5769477e-06
-0.0050641265
4.8270418e-05
-2.681207e-06
-0.0050761931
5.125979e-05
-2.7865014e-06
-0.0050889774
5.3988071e-05
-2.8924216e-06
-0.0051023829
5.6384727e-05
-2.9965808e-06
-0.0051162985
5.8385979e-05
-3.0942999e-06
-0.0051305964
5.9934457e-05
-3.1873034e-06
-0.0051451321
6.0980499e-05
-3.2759699e-06
-0.0051597512
6.1488728e-05
-3.3575754e-06
6.143459e-05
-3.4319536e-06
0.0054667402
8.0717468e-05
-3.3366798e-06
0.0054507317
8.0748162e-05
-3.250871e-06
0.0054348356
8.0037221e-05
-3.1606712e-06
0.005419223
7.8615147e-05
-3.0680232e-06
0.0054040543
7.6527388e-05
-2.9727666e-06
0.0053894755
7.3838507e-05
-2.8749397e-06
0.0053756145
7.0623887e-05
-2.774812e-06
0.00536258
6.6969076e-05
-2.6748377e-06
0.0053504546
6.2972742e-05
-2.5768901e-06
0.0053392952
5.8739664e-05
-2.4813578e-06
0.0053291272
5.4377307e-05
-2.3857811e-06
0.0053199496
4.9985176e-05
-2.2904071e-06
0.0053117426
4.5647284e-05
-2.1981429e-06
0.0053044691
4.143632e-05
-2.1129439e-06
0.005298077
3.7412527e-05
-2.0316494e-06
0.005292503
3.3622017e-05
-1.9503931e-06
0.0052876787
3.0093337e-05
-1.8699319e-06
0.0052835353
2.6839173e-05
-1.7932767e-06
0.005280006
2.3862373e-05
-1.7234464e-06
0.0052770239
2.1163094e-05
-1.6568644e-06
0.005274525
1.8734396e-05
-1.5921928e-06
0.0052724509
1.6562249e-05
-1.5302385e-06
0.0052707482
1.4628178e-05
-1.4710376e-06
0.0052693691
1.2912062e-05
-1.4170931e-06
0.005268269
1.1396933e-05
-1.3661121e-06
0.0052674049
1.0067283e-05
-1.3117306e-06
8.9028641e-06
-1.2601661e-06
-0.0054192345
1.0734197e-05
-1.2755046e-06
-0.0054199846
1.2140908e-05
-1.3235118e-06
-0.0054209634
1.3749601e-05
-1.3739092e-06
-0.0054222105
1.5583682e-05
-1.4245257e-06
-0.0054237714
1.7666069e-05
-1.4769502e-06
-0.0054256984
2.0021084e-05
-1.5318116e-06
-0.0054280486
2.2673494e-05
-1.5889448e-06
-0.0054308836
2.5647178e-05
-1.6490548e-06
-0.0054342725
2.8962751e-05
-1.7114581e-06
-0.0054382902
3.2633491e-05
-1.7766698e-06
-0.0054430166
3.6664838e-05
-1.8451207e-06
-0.0054485328
4.1054824e-05
-1.9165535e-06
-0.0054549188
4.5788626e-05
-1.9901627e-06
-0.0054622507
5.0833718e-05
-2.0654632e-06
-0.0054705974
5.6137862e-05
-2.1438285e-06
-0.0054800136
6.1628035e-05
-2.2267096e-06
-0.0054905342
6.7210985e-05
-2.3130354e-06
-0.0055021676
7.2773774e-05
-2.400732e-06
-0.0055148911
7.8186158e-05
-2.4899725e-06
-0.005528648
8.3308215e-05
-2.5822262e-06
-0.0055433481
8.800142e-05
-2.6774494e-06
-0.0055588719
9.2137104e-05
-2.7747331e-06
-0.0055750727
9.5601726e-05
-2.8735159e-06
-0.0055917854
9.8300137e-05
-2.9723504e-06
-0.0056088332
0.00010015619
-3.071174e-06
-0.0056260297
0.00010111435
-3.1696216e-06
0.00010113971
-3.2666757e-06
0.0056838455
0.00012279871
-3.3839989e-06
0.005665556
0.00012267865
-3.2747966e-06
0.0056474556
0.00012142177
-3.1651713e-06
0.0056297464
0.00011906535
-3.0560192e-06
0.0056126256
0.0001156704
-2.947857e-06
0.005596279
0.00011132484
-2.8411058e-06
0.0055808737
0.00010614465
-2.73794e-06
0.0055665461
0.00010027301
-2.6372064e-06
0.0055533958
9.387646e-05
-2.5400317e-06
0.00554148
8.713561e-05
-2.4460207e-06
0.0055308133
8.0232679e-05
-2.3550252e-06
0.0055213717
7.3336238e-05
-2.2665689e-06
0.0055131007
6.6590515e-05
-2.1816278e-06
0.0055059241
6.0110719e-05
-2.100434e-06
0.0054997527
5.3982493e-05
-2.022524e-06
0.0054944912
4.8263745e-05
-1.9473971e-06
0.0054900436
4.2987843e-05
-1.8754147e-06
0.0054863156
3.8168168e-05
-1.8066609e-06
0.0054832155
3.3802238e-05
-1.739399e-06
0.0054806607
2.9876837e-05
-1.674813e-06
0.0054785778
2.637027e-05
-1.6139146e-06
0.005476901
2.3254143e-05
-1.5562411e-06
0.0054755708
2.0496939e-05
-1.5006628e-06
0.0054745341
1.8067066e-05
-1.4466395e-06
0.0054737444
1.5933284e-05
-1.3940616e-06
0.0054731625
1.4066216e-05
-1.3433304e-06
1.2436137e-05
-1.2952512e-06
-0.0054819759
1.3973113e-05
-1.3151731e-06
-0.0054823473
1.5802289e-05
-1.3647057e-06
-0.0054828988
1.7901678e-05
-1.4168982e-06
-0.0054836666
2.0306994e-05
-1.4721133e-06
-0.0054846966
2.3055867e-05
-1.5289332e-06
-0.0054860428
2.6187177e-05
-1.5868792e-06
-0.0054877667
2.9741267e-05
-1.6470881e-06
-0.0054899379
3.3758699e-05
-1.7106291e-06
-0.0054926332
3.8277107e-05
-1.7795503e-06
-0.0054959426
4.3328585e-05
-1.8509981e-06
-0.0054999687
4.8937497e-05
-1.9235496e-06
-0.0055048198
5.5114637e-05
-1.9997803e-06
-0.0055106111
6.1853265e-05
-2.079532e-06
-0.0055174604
6.9123251e-05
-2.1631855e-06
-0.0055254836
7.6864386e-05
-2.2507284e-06
-0.0055347852
8.4980339e-05
-2.3424615e-06
-0.0055454493
9.333475e-05
-2.4379373e-06
-0.0055575256
0.00010174889
-2.5370633e-06
-0.0055710147
0.00011000575
-2.6401035e-06
-0.0055858599
0.00011786531
-2.7471682e-06
-0.0056019474
0.00012509106
-2.8588841e-06
-0.0056191156
0.00013146803
-2.9750052e-06
-0.0056371682
0.00013681728
-3.0943085e-06
-0.0056558896
0.00014100259
-3.2158409e-06
-0.0056750584
0.00014392921
-3.3386011e-06
-0.0056944556
0.00014553819
-3.4623236e-06
0.00014579677
-3.5858059e-06
0.0056896979
0.00017016427
-3.7890403e-06
0.0056691649
0.00016972023
-3.6490024e-06
0.0056488887
0.00016771429
-3.5088761e-06
0.0056291021
0.0001641584
-3.3692414e-06
0.0056100599
0.00015909012
-3.2306439e-06
0.0055920257
0.00015259758
-3.0953801e-06
0.0055752466
0.00014483504
-2.9648446e-06
0.0055599252
0.0001360273
-2.8405716e-06
0.0055461952
0.0001264586
-2.7228122e-06
0.0055341084
0.00011644683
-2.6111551e-06
0.005523633
0.00010631461
-2.5044587e-06
0.0055146745
9.6341006e-05
-2.4022377e-06
0.0055071028
8.6740578e-05
-2.3044338e-06
0.0055007724
7.7665164e-05
-2.211569e-06
0.0054955361
6.9213376e-05
-2.1237617e-06
0.0054912514
6.144017e-05
-2.0408715e-06
0.0054877849
5.4365949e-05
-1.9619659e-06
0.0054850147
4.7985444e-05
-1.886591e-06
0.0054828304
4.227416e-05
-1.8127688e-06
0.0054811359
3.7194273e-05
-1.7410599e-06
0.0054798511
3.2700971e-05
-1.6748829e-06
0.0054789044
2.8746113e-05
-1.6123159e-06
0.0054782325
2.5279569e-05
-1.5517886e-06
0.005477782
2.2249499e-05
-1.4920107e-06
0.0054775103
1.9608054e-05
-1.4346452e-06
0.0054773847
1.7309074e-05
-1.3811381e-06
1.531028e-05
-1.329801e-06
-0.0054725227
1.6417994e-05
-1.34001e-06
-0.0054723714
1.85508e-05
-1.3930026e-06
-0.0054723251
2.1009237e-05
-1.4474936e-06
-0.0054724119
2.3843154e-05
-1.5068292e-06
-0.0054726703
2.7106646e-05
-1.5687237e-06
-0.0054731515
3.0858546e-05
-1.6312139e-06
-0.0054739175
3.5162996e-05
-1.6960615e-06
-0.0054750394
4.0081067e-05
-1.764873e-06
-0.0054765984
4.5670974e-05
-1.8378055e-06
-0.0054786917
5.1990748e-05
-1.9120291e-06
-0.0054814321
5.9094141e-05
-1.9877318e-06
-0.0054849488
6.7023185e-05
-2.0663553e-06
-0.0054893863
7.5800566e-05
-2.1496863e-06
-0.0054949063
8.5424614e-05
-2.239475e-06
-0.0055016894
9.586038e-05
-2.3366841e-06
-0.0055099355
0.00010702723
-2.4400599e-06
-0.0055198523
0.00011877902
-2.5476685e-06
-0.0055316214
0.00013087525
-2.6593291e-06
-0.0055453446
0.0001429587
-2.7768916e-06
-0.0055609938
0.00015458018
-2.9036318e-06
-0.0055784082
0.00016529172
-3.0423216e-06
-0.0055973135
0.00017469539
-3.1925018e-06
-0.0056173678
0.00018249554
-3.3511533e-06
-0.0056382189
0.00018852328
-3.5137217e-06
-0.0056595575
0.00019272861
-3.6757905e-06
-0.0056811446
0.00019514248
-3.8351363e-06
0.0001958151
-3.9922909e-06
0.0056691441
0.00022243093
-4.2110248e-06
0.0056468163
0.00022151053
-4.0402422e-06
0.0056246309
0.00021877248
-3.8584796e-06
0.0056028205
0.00021399779
-3.6641142e-06
0.0055818049
0.00020697452
-3.4633741e-06
0.0055621191
0.00019764814
-3.2669777e-06
0.0055442918
0.00018620592
-3.0868611e-06
0.005528724
0.00017307806
-2.9300988e-06
0.0055156041
0.00015887573
-2.7971481e-06
0.0055048812
0.00014427678
-2.6785783e-06
0.005496288
0.00012993725
-2.5650278e-06
0.0054894639
0.00011630218
-2.4509263e-06
0.0054840703
0.00010359373
-2.3397539e-06
0.0054798397
9.1893236e-05
-2.2380273e-06
0.0054765713
8.1217734e-05
-2.1487607e-06
0.0054741066
7.1557998e-05
-2.0700372e-06
0.0054723108
6.2886743e-05
-1.9968056e-06
0.0054710656
5.5160994e-05
-1.9251221e-06
0.0054702509
4.8338863e-05
-1.8531218e-06
0.0054698072
4.2305749e-05
-1.7809732e-06
0.0054696427
3.7038758e-05
-1.7112649e-06
0.0054697078
3.2438099e-05
-1.6447127e-06
0.0054699166
2.8478676e-05
-1.5807587e-06
0.0054702376
2.5038932e-05
-1.5168232e-06
0.005470638
2.2064368e-05
-1.4555223e-06
0.0054710961
1.9492844e-05
-1.4001289e-06
1.7284137e-05
-1.345409e-06
-0.0054734634
1.7836482e-05
-1.3427729e-06
-0.0054726744
2.0103509e-05
-1.3996516e-06
-0.0054718883
2.2734769e-05
-1.4564394e-06
-0.0054711202
2.5789706e-05
-1.5189474e-06
-0.0054703955
2.9338823e-05
-1.5847848e-06
-0.0054697665
3.34592e-05
-1.6500939e-06
-0.0054692439
3.8233491e-05
-1.7173401e-06
-0.005468895
4.3742324e-05
-1.7854718e-06
-0.0054687659
5.0063123e-05
-1.8533856e-06
-0.0054689579
5.7271476e-05
-1.9185124e-06
-0.0054695288
6.5437288e-05
-1.9796585e-06
-0.0054705528
7.46214e-05
-2.0393438e-06
-0.0054721096
8.4879441e-05
-2.1049009e-06
-0.0054743144
9.6287236e-05
-2.1891952e-06
-0.0054773091
0.00010888675
-2.2983883e-06
-0.0054814382
0.00012285682
-2.4255457e-06
-0.0054872548
0.00013830558
-2.5517416e-06
-0.0054954827
0.00015516738
-2.6626187e-06
-0.0055067749
0.00017293669
-2.7687811e-06
-0.0055214029
0.00019060282
-2.8967698e-06
-0.005539175
0.00020705208
-3.0740379e-06
-0.0055594674
0.00022124246
-3.3019737e-06
-0.0055813856
0.00023245435
-3.5615738e-06
-0.0056040002
0.00024043812
-3.8258015e-06
-0.0056266277
0.00024546923
-4.0692328e-06
-0.0056490516
0.00024820969
-4.2752537e-06
0.00024932073
-4.4472631e-06
0.0056149811
0.00027525726
-4.6819013e-06
0.0055935361
0.00027420707
-4.552348e-06
0.0055709671
0.00027237802
-4.3398245e-06
0.0055475066
0.00026792506
-4.0264646e-06
0.005524502
0.00025910927
-3.6502673e-06
0.0055037118
0.00024530619
-3.2735538e-06
0.0054867132
0.00022701754
-2.9668532e-06
0.0054745108
0.00020557454
-2.7693676e-06
0.0054672317
0.00018289156
-2.6757803e-06
0.0054640604
0.00016095107
-2.6123294e-06
0.0054634824
0.00014139672
-2.5131521e-06
0.0054640695
0.00012463241
-2.3627255e-06
0.0054649634
0.00011019384
-2.200925e-06
0.0054658528
9.7473915e-05
-2.0760837e-06
0.0054667173
8.601635e-05
-2.0014339e-06
0.0054676177
7.5680328e-05
-1.9593513e-06
0.0054686022
6.6376556e-05
-1.9237376e-06
0.0054696902
5.806531e-05
-1.8818657e-06
0.0054708746
5.070922e-05
-1.8304893e-06
0.0054721299
4.4258405e-05
-1.7713504e-06
0.0054734232
3.8647478e-05
-1.7073377e-06
0.0054747241
3.3799175e-05
-1.6408984e-06
0.0054760085
2.9629181e-05
-1.574691e-06
0.0054772538
2.6052353e-05
-1.5079616e-06
0.005478447
2.2986495e-05
-1.4449576e-06
0.0054795801
2.0357046e-05
-1.3866126e-06
1.8101025e-05
-1.327885e-06
-0.0054888051
1.8040015e-05
-1.2945512e-06
-0.0054873225
2.0229301e-05
-1.3549166e-06
-0.0054857115
2.2790178e-05
-1.414707e-06
-0.0054839688
2.5787911e-05
-1.4782133e-06
-0.0054820924
2.9298136e-05
-1.5453983e-06
-0.0054800857
3.3404033e-05
-1.6115269e-06
-0.0054779527
3.8189457e-05
-1.6749983e-06
-0.005475693
4.3730817e-05
-1.7320413e-06
-0.0054732928
5.0086939e-05
-1.7779758e-06
-0.0054707057
5.7287841e-05
-1.8095649e-06
-0.005467836
6.533203e-05
-1.8251806e-06
-0.0054645193
7.4195213e-05
-1.8316678e-06
-0.0054605018
8.3850544e-05
-1.8516096e-06
-0.0054554204
9.4324084e-05
-1.9316046e-06
-0.0054488891
0.00010576968
-2.1071364e-06
-0.0054409017
0.00011899043
-2.3453865e-06
-0.0054325875
0.00013561697
-2.5344764e-06
-0.0054266593
0.00015758184
-2.5589621e-06
-0.0054264984
0.00018520889
-2.4782735e-06
-0.005434135
0.00021568312
-2.4719799e-06
-0.0054495716
0.00024516443
-2.7102738e-06
-0.0054711261
0.00027005059
-3.1898969e-06
-0.0054961398
0.00028794513
-3.822108e-06
-0.0055212998
0.00029751684
-4.4318345e-06
-0.005543602
0.00029947991
-4.7996905e-06
-0.0055624908
0.00029795606
-4.8601626e-06
-0.0055806307
0.00029818655
-4.7893993e-06
-0.0056012497
0.00030146728
-4.8066201e-06
0.00030441854
-5.0057892e-06
0.0055197231
0.00033474991
-4.6243718e-06
0.0055012067
0.00032416491
-4.1812166e-06
0.0054895562
0.00031406852
-4.231485e-06
0.0054763276
0.00031637209
-5.1873566e-06
0.0054538513
0.0003281043
-6.1480718e-06
0.0054243908
0.00033286438
-5.8870834e-06
0.005395262
0.00032160772
-4.533814e-06
0.0053718963
0.00029650317
-3.0868335e-06
0.0053582349
0.00026097178
-2.1459056e-06
0.0053574714
0.00021824915
-1.8025544e-06
0.0053697233
0.00017499725
-2.0402798e-06
0.0053903334
0.00013953913
-2.5674378e-06
0.005411921
0.00011694113
-2.9116791e-06
0.0054297492
0.00010393645
-2.7742989e-06
0.0054430291
9.4811957e-05
-2.3221281e-06
0.0054528802
8.6393034e-05
-1.9200306e-06
0.0054604583
7.7995436e-05
-1.7230236e-06
0.0054665045
6.9827024e-05
-1.6780091e-06
0.0054714854
6.2038307e-05
-1.6871791e-06
0.0054757244
5.4745914e-05
-1.6970928e-06
0.0054794412
4.8058756e-05
-1.6886356e-06
0.0054827706
4.2060728e-05
-1.6592311e-06
0.0054857855
3.6786589e-05
-1.612053e-06
0.005488524
3.221866e-05
-1.5531657e-06
0.0054910089
2.8301341e-05
-1.4880507e-06
0.0054932573
2.4959957e-05
-1.420462e-06
0.0054952886
2.2114734e-05
-1.3559146e-06
0.0054971208
1.9691561e-05
-1.2944636e-06
1.762613e-05
-1.2327825e-06
-0.0054908504
1.6814578e-05
-1.1238176e-06
-0.0054886718
1.8699595e-05
-1.1866495e-06
-0.005486222
2.0915623e-05
-1.2506113e-06
-0.0054834682
2.3523726e-05
-1.317633e-06
-0.0054803736
2.6592913e-05
-1.3861738e-06
-0.0054768994
3.01949e-05
-1.450411e-06
-0.0054729957
3.4387571e-05
-1.5046737e-06
-0.0054685878
3.919397e-05
-1.5411161e-06
-0.0054635481
4.4572673e-05
-1.5536443e-06
-0.0054576635
5.0402478e-05
-1.541125e-06
-0.0054506157
5.6508739e-05
-1.5182229e-06
-0.0054420005
6.2750056e-05
-1.5382887e-06
-0.0054313303
6.9083079e-05
-1.7578583e-06
-0.0054177705
7.5311831e-05
-2.4785994e-06
-0.0053993387
8.0227952e-05
-3.8477788e-06
-0.0053721566
8.1855076e-05
-5.1007326e-06
-0.0053336733
8.3281375e-05
-4.8235312e-06
-0.0052909438
9.9659325e-05
-2.8496652e-06
-0.0052610277
0.00014598219
-9.0103398e-07
-0.0052543351
0.00021184471
-2.8816868e-07
-0.0052683747
0.00027593564
-9.2429915e-07
-0.0052955463
0.00032641607
-2.7412732e-06
-0.0053314865
0.00036415773
-6.6098309e-06
-0.0053727383
0.00038556536
-1.1449218e-05
-0.0054015891
0.00036868855
-1.1733411e-05
-0.0054048216
0.00032509223
-5.4876153e-06
-0.0054041743
0.00031420938
-7.8823937e-07
-0.0054230958
0.00034456436
-1.4778938e-06
0.00037129236
-3.2610181e-06
0.0052658169
0.00042325574
5.3251963e-06
0.0052356585
0.00036529282
9.4299677e-06
0.0052513386
0.00028183991
1.6689407e-05
0.0053163542
0.00027002115
-9.944557e-06
0.0052736187
0.00045751032
-4.6086224e-05
0.0052217375
0.00047079642
-3.3349929e-05
0.0051827644
0.00041215616
-9.0253344e-06
0.0051491627
0.0003607412
-7.2339237e-07
0.0051266133
0.00029654246
1.9425488e-06
0.0051353651
0.00019978188
3.3110487e-06
0.0051878601
9.0172991e-05
3.3142235e-06
0.0052591627
3.1528951e-05
-3.1722715e-06
0.0053096286
4.5086372e-05
-1.22709e-05
0.0053359597
6.9152363e-05
-1.3628311e-05
0.0053526204
7.2101206e-05
-8.534019e-06
0.0053664165
6.5438699e-05
-3.9229501e-06
0.0053784924
5.8863993e-05
-1.8567632e-06
0.0053888153
5.3693519e-05
-1.2663772e-06
0.0053974559
4.9059546e-05
-1.1914561e-06
0.0054047177
4.4377595e-05
-1.2368956e-06
0.0054109271
3.9645751e-05
-1.282454e-06
0.0054163235
3.5094231e-05
-1.2967112e-06
0.0054210588
3.0930341e-05
-1.2780717e-06
0.0054252288
2.7258756e-05
-1.233815e-06
0.0054289026
2.4093274e-05
-1.1741444e-06
0.0054321386
2.1395413e-05
-1.1076656e-06
0.0054349891
1.9105921e-05
-1.0408843e-06
0.0054375023
1.7163224e-05
-9.7674343e-07
1.5511217e-05
-9.1463586e-07
-0.0052834742
1.3549809e-05
-5.1629669e-07
-0.0052806541
1.4914874e-05
-5.7171913e-07
-0.0052774408
1.6520964e-05
-6.2839852e-07
-0.005273775
1.8415175e-05
-6.855785e-07
-0.0052695883
2.0647563e-05
-7.4092805e-07
-0.0052648092
2.3266407e-05
-7.867968e-07
-0.0052593617
2.629114e-05
-8.0829695e-07
-0.005253159
2.9681177e-05
-7.8961258e-07
-0.0052460855
3.3288585e-05
-7.1636789e-07
-0.0052379766
3.6852428e-05
-5.8377052e-07
-0.0052286516
4.0164625e-05
-4.2998149e-07
-0.005218123
4.3603639e-05
-4.3877499e-07
-0.0052071309
4.9225089e-05
-1.353233e-06
-0.0051976491
6.1373521e-05
-5.4165346e-06
-0.0051927493
8.4674216e-05
-1.7472813e-05
-0.0051872992
0.00010855663
-4.4854363e-05
-0.0051402662
5.2129962e-05
-5.4076683e-05
-0.0049826773
-0.00011528997
-1.076991e-05
-0.0049198624
8.4996774e-06
1.8858366e-05
-0.0049276906
0.00019828783
9.3223127e-06
-0.0049745994
0.00033721669
6.2345207e-06
-0.0050144869
0.00039403049
6.5982142e-06
-0.0050304794
0.00042916272
-1.0140173e-06
-0.0050396219
0.00052904493
-4.9106018e-05
-0.0051747432
0.00095240225
-0.00035977061
-0.0048572138
-0.00048051821
0.00031528111
0.00011772881
-0.0048795579
-0.00041985173
0.00062420092
9.9834805e-05
-0.004920592
-0.00036655421
0.00069418803
7.8693069e-05
-0.0050295128
-0.00032335198
0.00077174093
8.3787667e-05
-0.00036237902
0.00078432568
7.0992261e-05
0.0012197742
8.7244509e-05
0.00011423216
0.0017635693
0.0001246368
0.0001158938
0.0011858406
0.00011148244
0.00014289423
0.0017271411
0.00011883778
0.00011160271
0.0011681236
7.7398984e-05
0.00011506426
0.0017117685
7.5196037e-05
7.5347056e-05
0.0011568496
4.5256698e-05
8.9810485e-05
0.001645509
6.1384885e-05
7.4156635e-05
0.0010134742
4.2567277e-05
0.00010894928
0.0012019914
4.2083379e-05
8.4680573e-05
0.00051989945
0.0021547385
-0.00055966791
-0.00091297863
0.0010756234
0.0013695103
-0.00090232999
-0.0010229042
0.00023344965
-0.00014331067
-9.4430715e-05
0.0010799151
0.0043757523
0.00079579979
-0.00046145145
0.0044033051
-0.00031373934
0.00075842969
5.6801792e-05
0.0044388772
-0.00039565051
0.00070732751
8.1913579e-05
0.0045304328
-1.9133347e-05
-0.00039375366
0.00071536191
0.0045692125
-3.1765705e-05
-0.0003502007
0.00068040342
0.0044971808
6.1630987e-05
-0.00037315599
0.00058184452
0.0044844152
7.165994e-05
-0.00048742671
0.00043703202
0.0048785862
4.3998067e-05
-0.00064434537
9.0886426e-05
0.0049103371
0.00043021776
-0.00040983877
0.0049116396
0.00021256833
-0.00010531413
0.0049062638
0.00011551808
-2.5468047e-05
0.0049105394
6.1150111e-05
-4.0522271e-06
0.0049186452
3.9912874e-05
1.2064129e-06
0.004927591
3.2905029e-05
1.7528094e-06
0.0049362995
3.0197868e-05
1.2582649e-06
0.0049443759
2.8036076e-05
7.3993189e-07
0.0049517231
2.5564063e-05
3.773329e-07
0.0049583023
2.2939163e-05
1.627992e-07
0.0049641271
2.0410915e-05
5.5450842e-08
0.0049692471
1.8130516e-05
1.587837e-08
0.0049737275
1.6150588e-05
1.6541119e-08
0.0049776464
1.446145e-05
3.4871953e-08
0.004981078
1.3029078e-05
6.027855e-08
0.0049840856
1.181725e-05
8.9990535e-08
1.078891e-05
1.2176957e-07
-0.0045659153
7.3328223e-06
8.2516599e-07
-0.0045629201
7.9888225e-06
8.3320855e-07
-0.0045595037
8.7634766e-06
8.4913165e-07
-0.0045556005
9.6803613e-06
8.7791649e-07
-0.0045511395
1.0764835e-05
9.2480025e-07
-0.0045460485
1.2032706e-05
1.0067599e-06
-0.0045402855
1.3484383e-05
1.1635824e-06
-0.0045338693
1.5073185e-05
1.4497555e-06
-0.0045269273
1.6658444e-05
1.9635943e-06
-0.0045197865
1.808534e-05
2.8099394e-06
-0.0045128926
1.9124881e-05
4.1790857e-06
-0.0045068749
2.0977197e-05
5.9101209e-06
-0.0045017047
2.759809e-05
7.1445671e-06
-0.0044968878
5.3056655e-05
3.2766334e-06
-0.0044894721
0.00013007715
-2.1974829e-05
-0.0044552432
0.00032763704
-0.00014929757
-0.0015720731
0.00060676591
-0.00094475676
-0.0021149615
0.00031041138
-0.00027855009
-0.00087382433
-0.00073011002
0.00024173549
0.0018368756
-0.00094786653
-0.00082033322
-0.00078090024
0.0012714663
-0.00055505366
-0.00078155426
-7.6706427e-05
3.274852e-05
-0.00083410411
-4.3678499e-05
1.9920298e-05
-0.00030295048
-0.00010104704
-0.00042061382
-0.00016750073
-5.4822028e-05
-8.3293972e-05
-4.4449548e-05
-0.00012038493
-7.7678249e-05
-6.108006e-05
-0.00015544092
-3.2165781e-05
2.6634477e-05
-0.00016512332
-1.1566515e-05
7.7427341e-06
-0.00018588115
4.8036084e-06
6.353477e-06
-0.0001930109
-6.487352e-06
8.7726369e-06
-0.00018892862
-1.6354782e-05
2.5455774e-06
-0.00017408555
-3.0118177e-05
-2.4727863e-06
-0.00012774221
-6.7946622e-05
-4.0434243e-06
-0.00012692572
-4.6223813e-06
-7.0920462e-05
-3.0731837e-07
-0.00016811599
0.00016238446
-5.2922751e-05
-1.2266179e-05
-0.00010375913
-1.8947247e-05
-7.4027917e-05
-0.00010919559
-7.1531442e-06
-7.2579969e-05
6.0299994e-06
-5.9976097e-05
6.5403784e-05
0.00019325607
-0.0011490319
-0.00019258271
0.00092974627
0.00028617689
6.5715317e-05
-0.0010633829
-0.00012593291
0.00011006247