/*--------------------------------*- C++ -*----------------------------------*\
| =========                 |                                                 |
| \\      /  F ield         | OpenFOAM: The Open Source CFD Toolbox           |
|  \\    /   O peration     | Version:  v2012                                 |
|   \\  /    A nd           | Website:  www.openfoam.com                      |
|    \\/     M anipulation  |                                                 |
\*---------------------------------------------------------------------------*/
FoamFile
{
    version     2.0;
    format      ascii;
    class       volVectorField;
    location    "200";
    object      U;
}
// * * * * * * * * * * * * * * * * * * * * * * * * * * * * * * * * * * * * * //

dimensions      [0 1 -1 0 0 0 0];


internalField   nonuniform List<vector> 
49454
(
(5.3925863 -0.51250625 0.00046049307)
(5.3855486 -0.51815264 -0.00041865674)
(5.3739393 -0.53195278 0.0018018068)
(5.3600768 -0.53616712 0.0018253678)
(5.3523178 -0.53545926 0.0015881549)
(5.346218 -0.53653931 0.00093664179)
(5.3402658 -0.53934972 0.00045186693)
(5.3371886 -0.53996457 0.00011816988)
(5.3280925 -0.55116772 0.0015758488)
(5.3127878 -0.55523209 0.001145364)
(5.3028552 -0.55588393 0.00080736636)
(5.2947592 -0.55644773 0.00045515269)
(5.2868352 -0.55783568 -0.00037955711)
(5.2777671 -0.56225074 -2.9508753e-05)
(5.2644884 -0.56903916 0.0011443006)
(5.2509614 -0.57123895 0.0010033159)
(5.2408441 -0.5706804 0.00092558843)
(5.2323384 -0.56902654 0.0017840645)
(5.2172484 -0.57266498 0.0020001657)
(5.1965365 -0.57400569 0.00073707936)
(5.1836088 -0.57713047 -0.00047066769)
(5.1733663 -0.58523341 0.00039208917)
(5.1626881 -0.59213183 0.00033604721)
(5.1498743 -0.5969628 0.0015196831)
(5.1356307 -0.59968794 0.0012538313)
(5.1250791 -0.60294709 0.00080005025)
(5.1137615 -0.60326979 0.00044861021)
(5.1045673 -0.6023031 0.00041964038)
(5.0937205 -0.60647223 0.0015372822)
(5.0786069 -0.61084063 0.001826974)
(5.0624178 -0.61229389 0.00081365818)
(5.0475907 -0.6124528 5.2058712e-05)
(5.0323626 -0.61124253 -0.00011580013)
(5.0227052 -0.6141046 1.597741e-05)
(5.0076692 -0.62630748 0.0013161872)
(4.9893735 -0.62814155 0.00049815659)
(4.9771435 -0.62437943 0.00089054137)
(4.9662659 -0.6231991 0.0014224814)
(4.9484611 -0.61606163 0.0030298905)
(4.9232438 -0.61128212 0.0019605716)
(4.901051 -0.61516954 0.00014338095)
(4.8780041 -0.62707073 0.00096063091)
(4.8565656 -0.6295064 0.00093809624)
(4.8366137 -0.62429136 0.00074040368)
(4.8177145 -0.62419181 0.00068940158)
(4.794208 -0.63349651 0.0018882285)
(4.7640391 -0.63395147 0.0027776849)
(4.7351893 -0.63094228 0.0016277746)
(4.7036376 -0.62855198 0.00047876312)
(4.68513 -0.62896669 -0.00025301641)
(4.6539283 -0.65643481 -0.0033067181)
(4.6358024 -0.68576672 -0.046789054)
(4.3209887 -1.0216735 -0.045358413)
(3.8643551 -0.31246743 0.079579102)
(4.3852988 -0.010403373 0.069789253)
(4.6030479 -0.0092341642 0.033258915)
(4.6457962 -0.0089742339 0.014762545)
(4.7131469 -0.01773895 0.0098406204)
(4.7842765 -0.015797051 9.9493496e-05)
(4.834281 -0.011568247 -0.0035666364)
(4.8714849 -0.00893614 -0.0034793889)
(4.9005829 -0.0072741828 -0.0027076488)
(4.9241842 -0.0061800991 -0.0020359673)
(4.9436229 -0.0053529054 -0.001624103)
(4.9597707 -0.0046940453 -0.0013290416)
(4.9732644 -0.0041364865 -0.0011480059)
(4.984573 -0.0036653976 -0.0010278261)
(4.9941214 -0.0032666049 -0.00094584213)
(5.0022315 -0.0029344094 -0.00088680488)
(5.009162 -0.0026593396 -0.00083879505)
(5.0151197 -0.0024221624 -0.00080944483)
(5.0202858 -0.0022177255 -0.00078917018)
(5.0247863 -0.0020430696 -0.00077338404)
(5.0287239 -0.0018927012 -0.00076152544)
(5.0321839 -0.0017625682 -0.00075295065)
(4.9852728 0.00064477191 -0.00070418951)
(4.9864214 0.00061705016 -0.0004397891)
(4.987697 0.00058437505 -0.00012984081)
(4.9891222 0.00054640549 0.00023208971)
(4.9907233 0.00050260307 0.0006532978)
(4.9925314 0.00045262667 0.0011418157)
(4.9945839 0.00039606871 0.0017060466)
(4.9969231 0.00033252247 0.0023537232)
(4.9995978 0.00026195949 0.0030920218)
(5.0026623 0.00018444446 0.0039262962)
(5.0061771 0.00010077714 0.0048583458)
(5.0102046 1.2404761e-05 0.0058847828)
(5.0148048 -7.8956183e-05 0.0069973633)
(5.0200333 -0.0001732715 0.0081830954)
(5.0259403 -0.00026941675 0.0094189104)
(5.0325592 -0.00036474688 0.010670204)
(5.0398985 -0.00045575041 0.011896192)
(5.0479396 -0.00053916106 0.013053206)
(5.0566362 -0.00061202628 0.014098639)
(5.0659171 -0.00067176601 0.014995098)
(5.0756902 -0.00071663219 0.015712687)
(5.0858483 -0.00074522633 0.016229714)
(5.0962691 -0.00075683085 0.016532751)
(5.1068446 -0.00075165424 0.016615099)
(5.1174302 -0.00072986584 0.01647707)
(5.1279198 -0.00069189315 0.01612212)
(5.1381881 -0.00063885583 0.015554886)
(5.1481211 -0.00057121957 0.014780169)
(5.1576048 -0.00048972823 0.013801688)
(5.2307486 -0.0063071692 0.0012303088)
(5.2166395 -0.0063166228 0.0012015636)
(5.2025036 -0.0062687958 0.001171322)
(5.1885066 -0.006166483 0.0011401197)
(5.1747768 -0.0060135376 0.0011080506)
(5.1614441 -0.0058148095 0.0010755244)
(5.1486241 -0.0055760993 0.0010428103)
(5.1364151 -0.005303958 0.0010101167)
(5.1248979 -0.0050055178 0.00097763562)
(5.1141341 -0.0046881921 0.00094552745)
(5.1041655 -0.0043593211 0.00091390957)
(5.0950145 -0.0040259184 0.00088286448)
(5.086686 -0.0036943619 0.00085247091)
(5.0791686 -0.0033701572 0.00082279345)
(5.0724376 -0.0030578562 0.00079389146)
(5.0664574 -0.0027610023 0.00076581284)
(5.0611846 -0.0024821551 0.00073858056)
(5.0565702 -0.0022229563 0.00071221526)
(5.0525618 -0.0019842607 0.00068672566)
(5.049106 -0.0017662633 0.00066212298)
(5.0461495 -0.0015686285 0.0006384006)
(5.0436408 -0.0013906232 0.00061554094)
(5.0415304 -0.0012312235 0.00059352934)
(5.0397722 -0.0010892194 0.00057234845)
(5.0383232 -0.00096328776 0.00055197998)
(5.0371442 -0.00085207373 0.0005323935)
(5.0361994 -0.00075422007 0.00051356085)
(5.0354567 -0.00066840223 0.0004954578)
(5.036424 -0.0022913822 0.00052536829)
(5.0373421 -0.0025895935 0.00054471109)
(5.0384927 -0.0029285963 0.00056484643)
(5.0399113 -0.0033125665 0.00058581371)
(5.0416376 -0.0037457014 0.00060764077)
(5.0437145 -0.0042320678 0.00063035648)
(5.0461887 -0.0047754123 0.00065396992)
(5.0491102 -0.0053789029 0.00067849728)
(5.0525314 -0.0060448572 0.00070394968)
(5.0565065 -0.0067743626 0.00073035376)
(5.0610901 -0.0075669185 0.00075770673)
(5.066336 -0.0084199685 0.00078598734)
(5.072295 -0.0093285304 0.00081513468)
(5.0790122 -0.01028479 0.00084515086)
(5.086525 -0.011277958 0.00087602216)
(5.0948597 -0.01229403 0.00090769768)
(5.1040291 -0.013316016 0.00094005938)
(5.1140299 -0.014324257 0.00097298825)
(5.12484 -0.015297178 0.001006385)
(5.1364176 -0.016212072 0.0010401201)
(5.1487006 -0.017046162 0.0010740181)
(5.1616073 -0.017777577 0.0011078608)
(5.1750378 -0.018386202 0.0011414161)
(5.1888747 -0.018854307 0.0011744711)
(5.2029859 -0.019167072 0.0012065835)
(5.2172423 -0.019312987 0.0012376493)
(5.231475 -0.01928344 0.0012671106)
(5.2329153 -0.033331186 0.0013199292)
(5.2184593 -0.033377574 0.001287796)
(5.2039857 -0.033120169 0.0012540257)
(5.1896691 -0.032573951 0.0012192278)
(5.1756404 -0.031757847 0.0011834965)
(5.1620357 -0.030697789 0.0011472982)
(5.1489758 -0.029424527 0.0011108643)
(5.136563 -0.027973025 0.0010744662)
(5.1248812 -0.026381489 0.0010383549)
(5.1139931 -0.024689835 0.0010027225)
(5.1039404 -0.022937888 0.0009677077)
(5.0947436 -0.021163558 0.00093341537)
(5.0864037 -0.019401106 0.00089996931)
(5.0789048 -0.017680152 0.00086749636)
(5.0722173 -0.01602488 0.00083604492)
(5.0663006 -0.014454044 0.00080558943)
(5.061106 -0.012980859 0.00077612788)
(5.0565797 -0.01161368 0.00074771251)
(5.0526654 -0.010356594 0.00072037555)
(5.0493064 -0.0092102478 0.00069409688)
(5.0464467 -0.0081724818 0.00066883462)
(5.0440325 -0.0072390569 0.00064456319)
(5.0420131 -0.0064042354 0.00062125461)
(5.040341 -0.0056613724 0.00059889112)
(5.038973 -0.0050032914 0.0005774402)
(5.0378693 -0.0044226518 0.00055685713)
(5.0369943 -0.00391219 0.0005371013)
(5.0379881 -0.0056176876 0.00054375132)
(5.0387989 -0.0063525615 0.00056338317)
(5.0398315 -0.0071891779 0.00058382252)
(5.0411218 -0.0081383259 0.00060510324)
(5.0427092 -0.0092109532 0.0006272787)
(5.0446378 -0.010417802 0.00065038347)
(5.0469556 -0.011768971 0.00067445871)
(5.0497148 -0.013273287 0.00069954922)
(5.052971 -0.014937534 0.00072570727)
(5.0567828 -0.016765544 0.00075298575)
(5.0612104 -0.018757136 0.00078143811)
(5.0663144 -0.020907031 0.000811074)
(5.0721533 -0.023203724 0.00084191759)
(5.0787813 -0.025628349 0.00087399607)
(5.0862449 -0.02815393 0.00090736832)
(5.0945798 -0.030744939 0.00094202018)
(5.103807 -0.033357692 0.00097789039)
(5.1139297 -0.035941199 0.0010148888)
(5.1249303 -0.038438965 0.0010529094)
(5.1367681 -0.04079143 0.0010918115)
(5.1493788 -0.042938939 0.0011313764)
(5.1626758 -0.044824559 0.001171328)
(5.1765521 -0.046396477 0.0012113654)
(5.1908821 -0.047609562 0.0012511742)
(5.2055228 -0.048426011 0.0012902705)
(5.2203399 -0.048818176 0.0013285652)
(5.2351502 -0.048764859 0.0013653948)
(5.2382401 -0.065637915 0.0013996322)
(5.222912 -0.065682344 0.0013573708)
(5.2075937 -0.065125108 0.0013139877)
(5.1924808 -0.063992921 0.0012701586)
(5.1777128 -0.062323124 0.0012260085)
(5.1634429 -0.060166279 0.0011820509)
(5.1498046 -0.057583408 0.0011385995)
(5.1369117 -0.054645645 0.0010960023)
(5.1248559 -0.051431781 0.0010545759)
(5.1137028 -0.04802477 0.0010145526)
(5.1034919 -0.044507482 0.00097606217)
(5.0942361 -0.040958286 0.0009391759)
(5.0859253 -0.037447361 0.00090392816)
(5.0785297 -0.034034224 0.00087030054)
(5.0720043 -0.030766514 0.00083824554)
(5.0662936 -0.027679784 0.00080766752)
(5.0613348 -0.024798225 0.00077847452)
(5.0570621 -0.022135945 0.00075058199)
(5.0534087 -0.019698556 0.00072391041)
(5.0503094 -0.017484835 0.00069837829)
(5.047702 -0.015488313 0.00067390901)
(5.0455281 -0.013698738 0.00065043702)
(5.0437337 -0.012103318 0.00062790152)
(5.0422698 -0.010687747 0.0006062451)
(5.0410921 -0.0094370479 0.0005854236)
(5.0401609 -0.0083360799 0.00056538168)
(5.0394409 -0.0073701833 0.00054609815)
(5.0413179 -0.0091023061 0.00054917111)
(5.041917 -0.010296336 0.00056844968)
(5.0427121 -0.011659525 0.00058843179)
(5.0437377 -0.013210976 0.00060909288)
(5.0450332 -0.014970507 0.00063054432)
(5.0466434 -0.016958129 0.00065284357)
(5.0486183 -0.019193264 0.00067605145)
(5.0510141 -0.021693787 0.00070024205)
(5.0538924 -0.024474726 0.00072549476)
(5.0573204 -0.027546641 0.00075190512)
(5.06137 -0.030913685 0.00077958142)
(5.0661163 -0.034571416 0.00080864865)
(5.0716357 -0.038504458 0.00083923929)
(5.0780028 -0.042684167 0.00087149314)
(5.0852866 -0.047066608 0.00090555467)
(5.0935456 -0.051591279 0.00094153235)
(5.1028225 -0.056181036 0.00097951569)
(5.1131383 -0.060743522 0.0010195294)
(5.1244871 -0.065174415 0.0010615442)
(5.1368322 -0.069362731 0.0011054149)
(5.1501048 -0.073197725 0.0011508641)
(5.1642066 -0.076574942 0.001197418)
(5.1790127 -0.079401087 0.0012446158)
(5.1943777 -0.081597497 0.0012923642)
(5.2101361 -0.083100323 0.001340195)
(5.2261335 -0.083862255 0.0013879013)
(5.2421694 -0.083852101 0.0014348953)
(5.246834 -0.10331556 0.0014834413)
(5.2298893 -0.1032588 0.0014323354)
(5.2130167 -0.10224506 0.0013809341)
(5.1964247 -0.10030935 0.0013297462)
(5.1802874 -0.097507343 0.0012789944)
(5.1647871 -0.093916274 0.0012290757)
(5.1500872 -0.08963444 0.0011799839)
(5.1363274 -0.084780263 0.0011322919)
(5.1236171 -0.079488652 0.0010864292)
(5.1120289 -0.073904352 0.0010426439)
(5.1015964 -0.068172928 0.0010010423)
(5.0923148 -0.062430141 0.00096161653)
(5.084147 -0.056794162 0.00092430399)
(5.0770317 -0.051361584 0.00088898583)
(5.0708913 -0.046206067 0.0008555435)
(5.0656386 -0.041379005 0.00082382366)
(5.0611827 -0.036911781 0.00079368464)
(5.0574338 -0.032818914 0.00076499156)
(5.0543059 -0.029101423 0.00073761688)
(5.0517188 -0.02575006 0.00071145598)
(5.0495996 -0.022748202 0.00068641462)
(5.0478827 -0.020074365 0.00066241012)
(5.0465097 -0.017704149 0.00063936713)
(5.0454295 -0.015611935 0.00061722535)
(5.0445974 -0.013771854 0.00059593096)
(5.0439746 -0.012158793 0.00057538857)
(5.0435277 -0.010748731 0.00055557699)
(5.0459568 -0.012258195 0.00056413233)
(5.0462213 -0.013864595 0.00058485009)
(5.0466363 -0.015706555 0.0006064487)
(5.0472339 -0.017813379 0.00062896876)
(5.0480515 -0.020216237 0.00065246597)
(5.0491333 -0.022947784 0.00067697797)
(5.0505311 -0.026041205 0.0007025157)
(5.0523051 -0.029528993 0.00072918895)
(5.0545249 -0.033441169 0.00075710454)
(5.0572701 -0.037802916 0.00078634877)
(5.0606302 -0.042631493 0.00081701859)
(5.0647043 -0.047932493 0.00084922983)
(5.0695993 -0.053695485 0.00088308783)
(5.0754269 -0.059889185 0.00091872033)
(5.0822984 -0.06645664 0.0009562531)
(5.0903176 -0.073311386 0.0009957801)
(5.099572 -0.080335734 0.001037403)
(5.1101219 -0.087381267 0.0010811928)
(5.1219884 -0.094273364 0.0011271827)
(5.1351425 -0.10082253 0.0011752466)
(5.1495046 -0.10684165 0.0012251097)
(5.1649492 -0.1121585 0.0012765478)
(5.1813148 -0.11662529 0.0013294345)
(5.1984138 -0.12012292 0.0013835611)
(5.2160402 -0.12256148 0.0014385403)
(5.233995 -0.12387929 0.0014941239)
(5.252057 -0.12403982 0.0015498649)
(5.2576015 -0.14615281 0.0016333386)
(5.2382067 -0.14585055 0.0015713206)
(5.2189511 -0.14417314 0.0015100128)
(5.2000754 -0.14115464 0.0014498197)
(5.1818089 -0.13685879 0.0013909781)
(5.1643899 -0.13138607 0.0013338405)
(5.14804 -0.1248772 0.0012786334)
(5.1329526 -0.11751446 0.0012255042)
(5.1192768 -0.10951644 0.0011745802)
(5.107103 -0.10112474 0.0011258486)
(5.0964539 -0.092586959 0.0010793219)
(5.0872841 -0.084127095 0.0010348879)
(5.0794991 -0.075929178 0.00099247521)
(5.0729748 -0.06813314 0.00095204098)
(5.0675721 -0.060836846 0.00091355426)
(5.0631484 -0.054099299 0.00087692712)
(5.0595658 -0.047947235 0.00084207082)
(5.056697 -0.042382423 0.00080890749)
(5.0544281 -0.03738833 0.00077734587)
(5.0526591 -0.032935956 0.00074729317)
(5.0513039 -0.028988428 0.00071866503)
(5.0502894 -0.025504748 0.00069138057)
(5.0495541 -0.022442411 0.00066534663)
(5.0490464 -0.019759318 0.00064050216)
(5.0487235 -0.017415069 0.00061678313)
(5.0485502 -0.015371829 0.00059411531)
(5.048497 -0.013594613 0.00057243865)
(5.0510524 -0.014730016 0.0005789966)
(5.0508679 -0.016647478 0.00060158788)
(5.0507673 -0.01885849 0.00062528882)
(5.0507763 -0.021403991 0.00065016428)
(5.050927 -0.024329023 0.00067630421)
(5.0512595 -0.027682575 0.00070378305)
(5.0518233 -0.031517009 0.00073269708)
(5.0526801 -0.035886939 0.0007631428)
(5.0539053 -0.040847198 0.00079522192)
(5.0555906 -0.046450051 0.00082903866)
(5.0578464 -0.052740983 0.00086470067)
(5.0608029 -0.059753125 0.0009022864)
(5.0646108 -0.067499966 0.00094187913)
(5.0694399 -0.075966014 0.00098353282)
(5.075473 -0.085095463 0.0010273317)
(5.0828961 -0.09478329 0.001073234)
(5.0918845 -0.1048669 0.0011211901)
(5.102584 -0.1151207 0.0011712509)
(5.1150781 -0.12525612 0.0012236576)
(5.1293523 -0.1349451 0.001278506)
(5.145299 -0.14387393 0.0013360941)
(5.162733 -0.15176541 0.0013964221)
(5.1814148 -0.1583973 0.0014593534)
(5.201075 -0.16360715 0.0015246495)
(5.2214321 -0.16728799 0.0015919633)
(5.24222 -0.16938019 0.0016610763)
(5.2631705 -0.1698593 0.0017316126)
(5.2684061 -0.19538343 0.0018425756)
(5.2456728 -0.19470077 0.0017610019)
(5.2231088 -0.19214478 0.0016817956)
(5.2010191 -0.1877185 0.0016052968)
(5.1797142 -0.1814681 0.0015316699)
(5.1595327 -0.17349935 0.0014613389)
(5.1408111 -0.16399404 0.0013946723)
(5.123856 -0.15322073 0.001331822)
(5.1089087 -0.14153198 0.0012727083)
(5.0961055 -0.12933883 0.0012163699)
(5.0854499 -0.11708634 0.0011625502)
(5.0767965 -0.10514984 0.0011107236)
(5.0699221 -0.093802296 0.0010608769)
(5.0645793 -0.083225579 0.0010132756)
(5.0605202 -0.073525563 0.00096808718)
(5.0575116 -0.064744481 0.00092523832)
(5.055346 -0.056877253 0.00088469574)
(5.0538467 -0.049886267 0.00084638268)
(5.0528672 -0.043714308 0.00081020701)
(5.0522884 -0.038293637 0.00077605022)
(5.0520148 -0.033552298 0.0007437806)
(5.0519711 -0.02941863 0.00071326653)
(5.0520981 -0.025823922 0.0006843773)
(5.0523499 -0.022704216 0.00065699345)
(5.0526912 -0.020001139 0.00063101817)
(5.0530948 -0.017662088 0.00060633322)
(5.05354 -0.015640128 0.00058288403)
(5.0558799 -0.01630176 0.00058307213)
(5.0551564 -0.018387019 0.00060737387)
(5.0544261 -0.020807544 0.00063302113)
(5.0537034 -0.023616074 0.0006600984)
(5.0530083 -0.026872772 0.00068874367)
(5.052369 -0.030645807 0.00071908265)
(5.0518247 -0.035011614 0.0007512715)
(5.0514288 -0.040055031 0.00078549462)
(5.0512526 -0.045867624 0.00082190389)
(5.0513913 -0.052545819 0.00086066492)
(5.0519697 -0.060186455 0.00090192084)
(5.0531483 -0.068879896 0.00094580016)
(5.0551302 -0.078699859 0.00099227572)
(5.0581656 -0.089687039 0.0010413687)
(5.0625492 -0.10182656 0.0010931011)
(5.0686088 -0.11502543 0.0011471154)
(5.0766928 -0.12909168 0.0012026609)
(5.0871451 -0.14370213 0.001259517)
(5.1002145 -0.15836345 0.0013187929)
(5.1159114 -0.17245048 0.0013811633)
(5.1340491 -0.18541825 0.0014493361)
(5.1542989 -0.19681598 0.0015233951)
(5.1762542 -0.20632326 0.0016029311)
(5.199485 -0.21374603 0.0016871053)
(5.22358 -0.21899243 0.0017752748)
(5.2481671 -0.22204386 0.0018672524)
(5.2729116 -0.22293935 0.0019629512)
(5.2763106 -0.25264605 0.0020899301)
(5.2493293 -0.25155405 0.0019762694)
(5.2224701 -0.24800742 0.0018683698)
(5.1960727 -0.24189534 0.0017652561)
(5.1705917 -0.23317887 0.0016669905)
(5.1465318 -0.22191748 0.0015750628)
(5.124452 -0.20830441 0.0014913604)
(5.1049082 -0.19271148 0.0014176475)
(5.0883695 -0.17571486 0.001354624)
(5.075114 -0.15804505 0.0012957599)
(5.0651148 -0.14062147 0.0012391577)
(5.0579428 -0.12410286 0.0011814869)
(5.0530658 -0.10885386 0.0011236469)
(5.0499953 -0.095053085 0.0010677118)
(5.0483022 -0.082757057 0.0010144585)
(5.0476202 -0.071930194 0.00096388142)
(5.0476537 -0.062476875 0.00091610578)
(5.0481765 -0.054272066 0.00087133576)
(5.0490199 -0.047181044 0.00082954953)
(5.0500601 -0.041070654 0.00079053169)
(5.0512079 -0.035815219 0.00075407063)
(5.0524008 -0.0313009 0.00071996457)
(5.053597 -0.02742582 0.00068800395)
(5.0547677 -0.024100399 0.00065797947)
(5.0558947 -0.021246778 0.00062972924)
(5.0569673 -0.018797618 0.00060307164)
(5.0579797 -0.016695013 0.00057790652)
(5.0597028 -0.016797566 0.00056528017)
(5.0583979 -0.018866468 0.00059153412)
(5.0569755 -0.021284617 0.00061947961)
(5.055431 -0.024114042 0.00064924628)
(5.0537637 -0.027427821 0.00068106379)
(5.0519781 -0.03131247 0.00071517716)
(5.0500867 -0.035869631 0.00075188218)
(5.0481164 -0.041218195 0.00079144619)
(5.0461126 -0.047497302 0.00083415868)
(5.0441493 -0.054865126 0.00088029233)
(5.0423393 -0.063498449 0.0009299857)
(5.0408488 -0.073588276 0.00098302821)
(5.0399182 -0.085330773 0.0010387055)
(5.0398848 -0.098904657 0.0010963386)
(5.0411936 -0.11443076 0.0011556938)
(5.0443934 -0.13192985 0.0012150808)
(5.050162 -0.15128332 0.0012703898)
(5.0593326 -0.17210985 0.0013212462)
(5.0726618 -0.19353318 0.0013721775)
(5.0901903 -0.21412412 0.001426202)
(5.1114628 -0.23288977 0.0015015814)
(5.1357766 -0.24909744 0.0015969339)
(5.1623597 -0.26233989 0.0017084928)
(5.1904756 -0.27244899 0.001827551)
(5.2194842 -0.27943203 0.0019506591)
(5.2488965 -0.28343556 0.0020802687)
(5.2783227 -0.28464378 0.0022198487)
(5.3074663 -0.28327388 0.0023671103)
(5.336096 -0.27949296 0.0025223336)
(5.3414545 -0.31292737 0.0027502949)
(5.3104977 -0.31707475 0.0025541381)
(5.2788794 -0.31868624 0.0023694431)
(5.2467863 -0.31751606 0.0022023998)
(5.2145113 -0.31318655 0.0020393144)
(5.1824755 -0.30540828 0.0018852418)
(5.1512557 -0.29391164 0.0017274585)
(5.1216094 -0.27854932 0.0015821509)
(5.0944726 -0.25935606 0.0014654604)
(5.0709563 -0.2367571 0.0013828527)
(5.052164 -0.21168134 0.0013485881)
(5.0389048 -0.18548185 0.001320157)
(5.031117 -0.16051586 0.0012887021)
(5.0274449 -0.13793704 0.0012414332)
(5.026582 -0.11804969 0.0011850599)
(5.0276001 -0.10082029 0.0011257793)
(5.0298168 -0.086087265 0.001065179)
(5.0327109 -0.073598758 0.0010038619)
(5.035916 -0.063060565 0.00094394187)
(5.0391961 -0.054185613 0.00088743409)
(5.0424054 -0.04671537 0.00083506256)
(5.045457 -0.04042442 0.00078690896)
(5.0483041 -0.035119804 0.00074275551)
(5.0509268 -0.03063935 0.00070226702)
(5.0533219 -0.026847644 0.00066502452)
(5.0554959 -0.02363248 0.00063063594)
(5.0574613 -0.020900679 0.00059876901)
(5.0592338 -0.018575061 0.00056908175)
(5.0608297 -0.016591529 0.00054136834)
(5.0609989 -0.016035833 0.0004993311)
(5.0591107 -0.017877546 0.00052928389)
(5.056986 -0.020042367 0.00056175769)
(5.0545954 -0.022594128 0.00059704009)
(5.0519077 -0.025610496 0.00063562055)
(5.0488906 -0.029187608 0.00067796865)
(5.0455129 -0.033443715 0.00072466333)
(5.0417481 -0.038525763 0.00077626116)
(5.0375809 -0.044615641 0.00083306348)
(5.0330174 -0.051938236 0.00089511976)
(5.0281009 -0.060768311 0.00096190583)
(5.0229331 -0.071439268 0.0010317775)
(5.0177163 -0.084349936 0.0011000052)
(5.0128177 -0.099953187 0.001161084)
(5.0088109 -0.11870992 0.0012149544)
(5.0064932 -0.14104094 0.0012632512)
(5.0070859 -0.16730436 0.0012899388)
(5.0126469 -0.19741045 0.0012733303)
(5.0256758 -0.22995779 0.0012427464)
(5.0462777 -0.2608986 0.0012319888)
(5.0728868 -0.28823631 0.0013402626)
(5.1037033 -0.31088225 0.0015055627)
(5.1372121 -0.32860114 0.0017052313)
(5.1721793 -0.34159498 0.0019148666)
(5.2076752 -0.35014386 0.002115502)
(5.2431106 -0.35457667 0.0023491102)
(5.2781041 -0.35539259 0.0025851299)
(5.3123335 -0.35331297 0.0028483139)
(5.3456792 -0.34867605 0.0031149951)
(5.3491907 -0.38488601 0.0036972347)
(5.3133886 -0.38995712 0.0033373782)
(5.2764832 -0.39272822 0.0029705932)
(5.2382094 -0.39261189 0.0026432038)
(5.1991056 -0.38885446 0.0023949738)
(5.1593946 -0.38032983 0.0020956381)
(5.1198116 -0.36642496 0.0016540949)
(5.0813388 -0.3465651 0.0011963468)
(5.0454909 -0.32017914 0.00081583755)
(5.0144297 -0.287254 0.00056331618)
(4.9910347 -0.24883183 0.00060162419)
(4.9784823 -0.20737414 0.0007729349)
(4.9765071 -0.17102439 0.00098339719)
(4.9804731 -0.14082004 0.0010713837)
(4.9871773 -0.11617443 0.0010949634)
(4.9950428 -0.096195303 0.0010944889)
(5.0032125 -0.080102379 0.001066729)
(5.0111295 -0.067150385 0.0010115484)
(5.018492 -0.056688614 0.00094250204)
(5.0251832 -0.048195916 0.00087029876)
(5.0311809 -0.04126388 0.00079995758)
(5.0365084 -0.035573629 0.00073442074)
(5.0412147 -0.030875494 0.00067474308)
(5.04536 -0.02697489 0.0006209791)
(5.049007 -0.023719001 0.0005727358)
(5.0522144 -0.020988239 0.000529273)
(5.0550368 -0.018687448 0.00049005262)
(5.0575221 -0.016741371 0.00045441593)
(5.0597135 -0.015089051 0.00042198705)
(5.0564454 -0.013631708 0.00027668177)
(5.053923 -0.01504207 0.00030950204)
(5.0510496 -0.01670396 0.00034613157)
(5.0477681 -0.018671592 0.00038702708)
(5.0440131 -0.021012351 0.00043295415)
(5.0397069 -0.023812848 0.00048437924)
(5.0347606 -0.027183554 0.00054176865)
(5.0290719 -0.031269954 0.00060488174)
(5.0225282 -0.036263257 0.00067154074)
(5.0150116 -0.042417134 0.00073692439)
(5.006411 -0.050070167 0.00079229903)
(4.9966348 -0.05967548 0.00082648495)
(4.985653 -0.071848138 0.00081815892)
(4.9736221 -0.087427483 0.00073325172)
(4.9609951 -0.10749486 0.00054950478)
(4.9484829 -0.13345223 0.00026278221)
(4.9377572 -0.1674993 -0.00023441101)
(4.933689 -0.21235934 -0.001084152)
(4.9454978 -0.264874 -0.0014429734)
(4.9739621 -0.31494687 -0.0012380373)
(5.0117711 -0.35563693 -0.00038132118)
(5.0547814 -0.386629 0.00047883868)
(5.0999683 -0.40878396 0.0013540593)
(5.1454859 -0.42392259 0.001924211)
(5.1903125 -0.4339919 0.0019427825)
(5.2323165 -0.44111388 0.0020265071)
(5.2739665 -0.43710537 0.0026936715)
(5.3136711 -0.43315758 0.0033995367)
(5.3520348 -0.42695657 0.0040743653)
(5.3887722 -0.41885699 0.0047017052)
(5.3977172 -0.44496122 0.003166414)
(5.3799678 -0.4456503 0.0025790287)
(5.3604979 -0.45298983 0.0030117105)
(5.3413685 -0.45255514 0.0023279258)
(5.3211297 -0.4592119 0.0028349027)
(5.3011292 -0.45821791 0.0020453751)
(5.2804309 -0.46414491 0.0024850526)
(5.2595607 -0.46217636 0.0015652836)
(5.2400871 -0.46636302 0.0018156075)
(5.2171804 -0.4584282 0.00043897212)
(5.1970796 -0.46894222 -0.0017521703)
(5.1899246 -0.50115426 -0.00067086262)
(5.1768772 -0.51147099 0.00176439)
(5.1724841 -0.47970186 0.0011113132)
(5.1263352 -0.4719159 0.00096328453)
(5.0748135 -0.4588745 -0.00058647638)
(5.0205849 -0.43725051 -0.003090179)
(4.9667587 -0.40393922 -0.0059417693)
(4.9168282 -0.35644791 -0.0089570655)
(4.8808286 -0.29099287 -0.010631001)
(4.8724764 -0.21003967 -0.007159188)
(4.8880952 -0.16128574 -0.0032694783)
(4.9114903 -0.12225845 -0.0017566251)
(4.9324481 -0.095003709 -0.00094490289)
(4.9507289 -0.075582681 -0.00038859825)
(4.9668973 -0.061172036 -5.6792255e-05)
(4.9809471 -0.050259655 0.00011526686)
(4.9930312 -0.041863238 0.00019583493)
(5.0034107 -0.035302668 0.00022295148)
(5.0123173 -0.030108221 0.00021826616)
(5.0199616 -0.025945186 0.00019737802)
(5.0265353 -0.022572796 0.00016965271)
(5.0322041 -0.019813656 0.00013940339)
(5.0371104 -0.017534799 0.00010944116)
(5.0413709 -0.01563789 8.1040048e-05)
(5.0450833 -0.01404829 5.4979072e-05)
(5.0483272 -0.012708885 3.122949e-05)
(5.0511718 -0.011573792 9.6743439e-06)
(5.0446238 -0.0087669777 -0.00038610792)
(5.0415344 -0.009574968 -0.00039701468)
(5.0380137 -0.010527898 -0.00041280873)
(5.0339854 -0.01165862 -0.00043511287)
(5.0293596 -0.013009026 -0.00046683366)
(5.0240228 -0.014633762 -0.00051217582)
(5.017835 -0.016606283 -0.00057749228)
(5.0106279 -0.019023061 -0.00067202612)
(5.0021984 -0.02201964 -0.00080863236)
(4.9922944 -0.025793294 -0.0010051311)
(4.9806167 -0.030619734 -0.0012843607)
(4.9668021 -0.036905288 -0.0016656155)
(4.9503772 -0.045244895 -0.0021591922)
(4.93072 -0.056528822 -0.0027557934)
(4.9068534 -0.072330623 -0.0032619642)
(4.8777053 -0.095127147 -0.0029540289)
(4.8423902 -0.12717538 -0.0010453165)
(4.7906837 -0.141103 0.00095427027)
(4.7644692 -0.11580948 0.00030769139)
(4.737545 -0.065856946 -0.0073786795)
(4.7019024 -0.086639023 -0.009063884)
(4.6406905 -0.13012755 -0.0032644355)
(4.5336495 -0.17777878 0.011313646)
(4.3358701 -0.30547538 0.026161829)
(4.135279 -0.31803397 0.021362302)
(4.3369536 -0.54678578 0.015090708)
(4.4692985 -0.6783639 -0.025346008)
(4.6172736 -0.62058764 -0.0098505087)
(4.6741496 -0.60123172 -0.00047794285)
(4.7121093 -0.60139575 0.00043050415)
(4.7470314 -0.60533601 0.001415992)
(4.7770676 -0.61338328 0.0024335596)
(4.7962045 -0.6191699 0.0023273683)
(4.8111011 -0.61300371 0.0016146489)
(4.8193891 -0.60264959 0.0010718306)
(4.8433179 -0.61121074 0.0011821576)
(4.8593318 -0.61766081 0.001324337)
(4.8711361 -0.61554441 0.0013684119)
(4.8837303 -0.60514601 0.0013430632)
(4.8812907 -0.56450716 -0.0018070316)
(4.9245434 -0.57724475 0.0013674586)
(4.9622391 -0.58081234 0.0020022043)
(4.9787603 -0.60497087 0.00040082301)
(4.9972396 -0.60813737 0.0013218139)
(5.0161205 -0.60591563 0.00030067572)
(5.0316231 -0.60250372 -2.9591895e-05)
(5.0492171 -0.60080344 0.00023565745)
(5.0653351 -0.59994143 0.0006823816)
(5.0811447 -0.5990058 0.0010328583)
(5.0957119 -0.59623803 0.00086772018)
(5.1081568 -0.59401507 0.00056388476)
(5.1195928 -0.59543141 0.00099886704)
(5.1271453 -0.59706445 0.0013653083)
(5.1340268 -0.59478466 0.001437922)
(5.1397841 -0.58857565 0.0012058731)
(5.1535577 -0.59014654 0.0013265554)
(5.1632476 -0.58767574 0.00069988687)
(5.1694964 -0.58364825 0.00073440518)
(5.1744882 -0.57838996 0.00056657401)
(5.1707281 -0.56075112 -0.00029129914)
(5.1939473 -0.5600095 0.00069787225)
(5.2179267 -0.55514915 0.0016664169)
(5.2372973 -0.55163372 0.0017310877)
(5.2466563 -0.56150714 0.0010964545)
(5.2557715 -0.56212099 0.0006121747)
(5.2661456 -0.56075351 0.00023428835)
(5.2779428 -0.55530813 3.8154756e-05)
(5.2875376 -0.55141928 5.0001231e-05)
(5.296953 -0.54892161 0.00048495998)
(5.3065048 -0.54752638 0.00066304439)
(5.3175642 -0.54606535 0.00085827839)
(5.3299888 -0.54332211 0.00095818986)
(5.3383334 -0.53618385 0.00058914223)
(5.3416471 -0.53628597 0.00093191193)
(5.345713 -0.53409841 0.0010574012)
(5.3489619 -0.53050883 0.0011259756)
(5.3568274 -0.53041289 0.0015479364)
(5.3625829 -0.53121751 0.0016496042)
(5.369203 -0.52907553 0.0017095466)
(5.3751765 -0.52145683 0.0009534923)
(5.3724882 -0.50716483 5.6811553e-05)
(5.389641 -0.50320797 0.00065228308)
(5.1281738 -0.00037661226 0.0021250095)
(5.1221372 -0.00044778061 0.0022275561)
(5.1157185 -0.00050568828 0.0023111711)
(5.108996 -0.00055030809 0.0023760649)
(5.1020471 -0.00058182658 0.0024227198)
(5.0949458 -0.00060059097 0.0024518731)
(5.0877666 -0.00060722199 0.0024645142)
(5.0805712 -0.0006025387 0.0024619951)
(5.0734276 -0.00058741624 0.0024456312)
(5.066389 -0.00056283094 0.0024167112)
(5.0595058 -0.00052993569 0.0023767833)
(5.0528223 -0.00048994744 0.0023274449)
(5.046375 -0.00044415411 0.0022702989)
(5.0401933 -0.00039380915 0.0022068956)
(5.0343002 -0.00034017475 0.0021387032)
(5.028712 -0.0002844264 0.0020671021)
(5.023439 -0.00022767468 0.0019933449)
(5.0184859 -0.00017090314 0.001918559)
(5.0138527 -0.00011492641 0.001843758)
(5.0095352 -6.0401104e-05 0.0017698719)
(5.0055254 -7.9662952e-06 0.0016976254)
(5.0018124 4.1721243e-05 0.0016273224)
(4.9983838 8.8082363e-05 0.00155912)
(4.9952252 0.00013091727 0.0014934063)
(4.9923216 0.00017019026 0.0014305429)
(4.9896568 0.00020598714 0.0013707473)
(4.9872146 0.00023836669 0.0013140665)
(4.9849789 0.00026743895 0.0012605044)
(4.9829338 0.00029327658 0.0012099672)
(4.9828986 0.00029446995 0.0037027729)
(4.9829266 0.00029072511 0.0063352009)
(4.983031 0.00028671252 0.0091033076)
(4.983212 0.00028639252 0.011956784)
(4.9834634 0.00028983639 0.014826303)
(4.9860134 0.00025349852 0.021161345)
(4.985688 0.00025947201 0.018328025)
(4.9854134 0.00025854702 0.015403892)
(4.9851936 0.0002568317 0.012431905)
(4.985037 0.00025883526 0.0094713822)
(4.9849505 0.00026415485 0.0065948303)
(4.984935 0.00026851938 0.0038562034)
(4.9871624 0.00023938156 0.004018806)
(4.9871655 0.00023438641 0.0068700548)