/*--------------------------------*- C++ -*----------------------------------*\
| =========                 |                                                 |
| \\      /  F ield         | OpenFOAM: The Open Source CFD Toolbox           |
|  \\    /   O peration     | Version:  v2012                                 |
|   \\  /    A nd           | Website:  www.openfoam.com                      |
|    \\/     M anipulation  |                                                 |
\*---------------------------------------------------------------------------*/
FoamFile
{
    version     2.0;
    format      ascii;
    class       volScalarField;
    location    "100";
    object      nut;
}
// * * * * * * * * * * * * * * * * * * * * * * * * * * * * * * * * * * * * * //

dimensions      [0 2 -1 0 0 0 0];


internalField   nonuniform List<scalar> 
15162
(
0.0044344645
0.0043427663
0.0042493852
0.0041535798
0.0040553455
0.0039545654
0.0038513835
0.0037459179
0.0036383125
0.0035287442
0.003417413
0.0033045341
0.0031903371
0.0030750634
0.0029589706
0.0028423315
0.0027254341
0.0026085778
0.002492092
0.0023762864
0.0022615053
0.002148066
0.0020362918
0.0019264996
0.0018189883
0.0017140437
0.0016119364
0.0015130071
0.0014173359
0.0013254244
0.0012375557
0.0011542735
0.0010768752
0.001003345
0.00093117994
0.00095304858
0.0015593689
0.0013952943
0.0017913366
0.0014789483
0.0018401422
0.001512239
0.0019433758
0.0016284752
0.0020620031
0.0017317057
0.0021292474
0.0017560583
0.0021583457
0.0018422354
0.0023065414
0.0019661894
0.0023759306
0.001773834
0.0012775342
0.00078679022
0.00071285843
0.0013822239
0.0042952392
0.0067529001
0.0092156862
0.0098416876
0.010257264
0.010269858
0.0100015
0.01032125
0.010685669
0.010204527
0.010043983
0.010094743
0.010082879
0.010181312
0.010154756
0.010081156
0.0099903405
0.0098132818
0.0097272503
0.01000042
0.010884448
0.009997612
0.0097473371
0.009747444
0.0097735488
0.0097774053
0.0098040645
0.0098108207
0.0098253421
0.0097910809
0.0097735764
0.0097529719
0.0097961897
0.0097122269
0.0097867481
0.0098143284
0.0098411087
0.0097442979
0.0098198224
0.0098857202
0.0098766015
0.0098192969
0.0098203673
0.0097969339
0.0098560279
0.009859149
0.0099179337
0.010012342
0.010099623
0.010431744
0.010947775
0.011820135
0.011342918
0.011774732
0.011335911
0.011736933
0.011158092
0.011468297
0.010568849
0.010162258
0.0082866176
0.0064824337
0.0036419479
0.001740939
0.0021524316
0.0040778591
0.0062455244
0.0084495608
0.0096968564
0.010626188
0.010870847
0.011125183
0.011221794
0.011519526
0.011423911
0.011354307
0.010912766
0.010995924
0.011294819
0.011225833
0.011087794
0.010787041
0.010761584
0.0098445603
0.0085552163
0.0065482702
0.0044755407
0.0025902851
0.0026869228
0.0045300228
0.0065995939
0.0083118058
0.009608777
0.010443125
0.010587528
0.010818627
0.011010282
0.010846322
0.010531567
0.010397478
0.010413832
0.010459561
0.01061295
0.010809068
0.010735562
0.010611116
0.010513337
0.0096430977
0.0083749266
0.0067271608
0.0048457835
0.0029883878
0.0029411
0.004815073
0.0066526558
0.0083442578
0.0095440757
0.010427448
0.010386959
0.01055229
0.010614365
0.010476626
0.010350865
0.010172846
0.01008969
0.010157666
0.010627124
0.010609271
0.010634506
0.01045837
0.010345459
0.0093412624
0.0081295291
0.0067956358
0.0049429645
0.002987677
0.0030405235
0.004961882
0.0066717437
0.0081718728
0.0094867456
0.01035868
0.0103753
0.010531852
0.010445845
0.010648677
0.01042438
0.010151623
0.0100721
0.010180926
0.010690045
0.01062627
0.010796723
0.010667908
0.010322974
0.0093816532
0.0082429827
0.0068282788
0.005113031
0.0031731904
0.0032565474
0.0051437626
0.0068016589
0.0083327488
0.0095425841
0.010309822
0.010729426
0.010692861
0.010640375
0.010541432
0.010160193
0.010154333
0.010091719
0.01017125
0.010553008
0.01059298
0.010744815
0.010568449
0.010270123
0.0093460115
0.0083347457
0.0070299312
0.0051778643
0.0033048324
0.0033791199
0.0052963224
0.0070341601
0.008327352
0.009411245
0.010187306
0.010459461
0.010592843
0.010573798
0.010410336
0.010218367
0.010239088
0.010269406
0.010287092
0.010487195
0.010651497
0.010594697
0.010477095
0.010199742
0.0094091951
0.0084183354
0.0070849594
0.0053212381
0.0034574534
0.0034198349
0.0053072073
0.0071232189
0.0084208984
0.0095356212
0.01029898
0.010493697
0.010473932
0.010531762
0.010444731
0.010195681
0.010114007
0.0099512857
0.010168686
0.010401187
0.010373297
0.010300891
0.010370775
0.010062173
0.0093840034
0.0084234375
0.0072606867
0.0055140753
0.0034999045
0.0034865108
0.0053975113
0.0071278318
0.0083830452
0.0093863133
0.010112497
0.010254656
0.010254573
0.01045109
0.010462581
0.010414085
0.010232002
0.010208067
0.01030309
0.010632735
0.010622236
0.010571296
0.010376891
0.010129972
0.0094935285
0.008740367
0.007316753
0.0056954447
0.0037605498
0.0036507903
0.0055348671
0.0071934275
0.0084532821
0.0092860682
0.010035885
0.010261476
0.010432915
0.010518693
0.010612829
0.010366108
0.010150067
0.0099344585
0.010150802
0.010754098
0.010734665
0.010424232
0.010255384
0.0099022946
0.0090550985
0.0080936989
0.0067551664
0.005433434
0.0038224771
0.0031678435
0.0046346271
0.0059544286
0.007302121
0.0084071554
0.0093292944
0.00992787
0.010348914
0.010494847
0.010696821
0.010412454
0.010164749
0.010014019
0.010161253
0.010706109
0.010736991
0.01055424
0.0098782506
0.0088973806
0.0078512891
0.0062882706
0.0043643154
0.0032727821
0.0021926037
0.0011622609
0.0016513085
0.0031492341
0.0053665357
0.0074088903
0.008782421
0.0099879469
0.010368915
0.010717968
0.010453439
0.010077038
0.010136967
0.010084758
0.010194473
0.010553313
0.010536472
0.010469316
0.010062129
0.0088468876
0.0073505468
0.0052466241
0.0030184523
0.0016363081
0.00094286309
0.0022377023
0.0035144599
0.0048439937
0.0064802397
0.0082079665
0.0094591802
0.010352072
0.010641513
0.010817102
0.010622758
0.010262411
0.010202861
0.010087254
0.010341549
0.010608206
0.010707257
0.010817173
0.01055299
0.010031931
0.009181027
0.0079471876
0.0068864582
0.0059463303
0.0050445323
0.0072524453
0.007948536
0.0084303016
0.0091191203
0.0099761783
0.010552304
0.010874704
0.010989725
0.010744057
0.010469683
0.010255699
0.010055048
0.010064849
0.010472192
0.010660836
0.010642536
0.010800828
0.010862758
0.011012887
0.010679532
0.0099430889
0.0095818217
0.0093359157
0.0090098729
0.010088494
0.010232202
0.010233778
0.010455463
0.010835091
0.011102346
0.011166542
0.010936307
0.010793503
0.01067494
0.010316153
0.0099908817
0.010102858
0.010411105
0.010703643
0.010801074
0.010956178
0.011157544
0.011176498
0.011055675
0.010835677
0.01059905
0.01070537
0.010531065
0.010493276
0.010636459
0.010523482
0.010768804
0.010775462
0.010981671
0.010911152
0.010820186
0.010573875
0.010472871
0.010200254
0.0099944072
0.0099539535
0.01004339
0.010224101
0.010504738
0.010521448
0.010584173
0.010692109
0.010476292
0.010625936
0.010499088
0.010502895
0.01041944
0.011035104
0.010644813
0.011343378
0.012062455
0.01280389
0.013569386
0.014345552
0.015134608
0.015939069
0.01675739
0.017583878
0.018413501
0.019242838
0.020069799
0.02089035
0.021699019
0.022493377
0.023272934
0.024023161
0.024746746
0.025445794
0.026117691
0.026757175
0.027354847
0.027914879
0.028435491
0.028916967
0.029356518
0.029756227
0.030117366
0.030439149
0.030722609
0.030971342
0.031580023
0.031421807
0.031238129
0.031026369
0.030783872
0.030508459
0.030198004
0.029851107
0.02946649
0.029043761
0.028582652
0.028083861
0.02754815
0.026977234
0.026372771
0.025737258
0.025073039
0.02438322
0.023670732
0.022939122
0.022191526
0.02143149
0.020662104
0.019886774
0.01910847
0.018330391
0.017555245
0.016785841
0.016025103
0.015275606
0.014541343
0.013823166
0.013118889
0.012438454
0.011986779
0.012691851
0.013413132
0.01414939
0.01489966
0.015663109
0.016436718
0.017218472
0.018005866
0.018796653
0.019587792
0.020376267
0.021158974
0.021932811
0.022694288
0.023440363
0.024167674
0.024872898
0.025552486
0.026203533
0.026823126
0.027409196
0.027959754
0.028473252
0.028948574
0.029385125
0.02978285
0.030142236
0.030464286
0.030750491
0.031002844
0.031223544
0.031415176
0.031581784
0.031651518
0.031487338
0.031297345
0.03107882
0.03082927
0.03054644
0.030228456
0.029873881
0.029481751
0.029051593
0.028583464
0.028077959
0.027536171
0.026959313
0.026349409
0.025708795
0.025040183
0.024346527
0.023631436
0.022897842
0.022149076
0.021388377
0.020619008
0.019844153
0.01906691
0.018290223
0.01751715
0.016749546
0.01599001
0.015241257
0.014505125
0.013785206
0.013082276
0.012402879
0.011992247
0.012707321
0.01344005
0.014187946
0.01495114
0.015729489
0.016520414
0.017311669
0.018106349
0.018903712
0.019700564
0.020494565
0.021282091
0.022059912
0.022824757
0.023573524
0.02430279
0.025009801
0.02569089
0.026343542
0.026965146
0.02755306
0.028105141
0.02862029
0.029097403
0.029535873
0.029935635
0.030297273
0.030621764
0.030910589
0.03116544
0.031388676
0.031582855
0.031752045
0.03187627
0.031703045
0.031503759
0.031275754
0.031016495
0.03072363
0.030395862
0.030031951
0.02963078
0.02919141
0.028714615
0.028201033
0.027651658
0.027067032
0.02645003
0.025803067
0.025128679
0.024428694
0.023707161
0.022966909
0.022211411
0.021442946
0.020665292
0.019881615
0.019099111
0.018315864
0.017533166
0.016754727
0.015987039
0.015230068
0.014487281
0.013762311
0.013056422
0.012372205
0.011815939
0.012536085
0.013269193
0.014016447
0.014779605
0.015559049
0.016350342
0.017143555
0.01794231
0.018748083
0.019552139
0.020352311
0.021147798
0.021926889
0.022691212
0.023439884
0.024174384
0.024885689
0.025570313
0.026227714
0.026859163
0.027457248
0.028020064
0.028547472
0.029040248
0.029499986
0.029918956
0.030300084
0.030646628
0.030960766
0.03123965
0.0314868
0.031705839
0.031900426
0.031620327
0.031398449
0.031152146
0.030879554
0.030578754
0.030247548
0.029885048
0.029490497
0.029063118
0.028602256
0.028108764
0.027583087
0.027026406
0.02643904
0.025823028
0.02518018
0.024512652
0.0238227
0.02311327
0.022387688
0.021648832
0.020899309
0.020141533
0.0193787
0.018617784
0.017856378
0.017095923
0.016340286
0.015595552
0.014861289
0.014140544
0.013436639
0.012751248
0.012085624
0.011185584
0.011854257
0.01253885
0.013235843
0.013946942
0.014663488
0.015386867
0.016116042
0.016853189
0.017589524
0.018324595
0.019057361
0.019785468
0.020506675
0.021218276
0.021920537
0.02261141
0.023284717
0.023937126
0.02456668
0.025173741
0.025750804
0.026300032
0.026822115
0.027316466
0.027782823
0.028220558
0.028631369
0.02901681
0.029373321
0.029703585
0.03001052
0.030295502
0.030559789
0.028125176
0.027839446
0.027538494
0.027221209
0.026886478
0.026532891
0.026159618
0.025766187
0.025351961
0.024916227
0.024459363
0.023981323
0.023482488
0.022962993
0.022423811
0.021866106
0.021290892
0.020699458
0.020094293
0.019477614
0.018851305
0.018216918
0.01757691
0.016933036
0.016287242
0.015641088
0.014996717
0.014356059
0.013720816
0.013094122
0.012482464
0.011884483
0.011300308
0.010725935
0.008772346
0.0092870902
0.0098056887
0.010332724
0.010871842
0.011414579
0.011961337
0.012510787
0.013064141
0.013615765
0.014165351
0.014711718
0.015255278
0.01579707
0.016327261
0.016847413
0.017358645
0.017862054
0.018348682
0.018820291
0.019279342
0.019721846
0.020147667
0.020557007
0.020950887
0.021330827
0.021691641
0.022035881
0.02236473
0.022678872
0.022978968
0.023265919
0.023541114
0.023806791
0.018048138
0.01785678
0.01765569
0.017444144
0.017221589
0.016987529
0.016741732
0.016483921
0.016213878
0.015931332
0.015636552
0.015329757
0.015011237
0.014681023
0.014339615
0.013987681
0.013625702
0.013254171
0.012874225
0.012486788
0.012094586
0.01169671
0.01129354
0.010886935
0.0104781
0.010067967
0.0096576229
0.0092480439
0.0088405547
0.0084373599
0.0080414431
0.0076550759
0.0072787781
0.0069082077
0.0039098639
0.0041847165
0.0044571126
0.0047407106
0.0050331922
0.0053306108
0.005631353
0.0059318062
0.0062329102
0.0065342262
0.0068350187
0.0071352674
0.0074342037
0.0077298883
0.0080217848
0.0083086697
0.0085900284
0.008865954
0.0091335457
0.0093943439
0.0096496639
0.0098955623
0.010133355
0.010363958
0.010587197
0.010801913
0.011007994
0.011205428
0.0113943
0.011574781
0.011747007
0.011910993
0.012067749
0.012218508
0.030792967
0.03056805
0.030310555
0.030017764
0.029687796
0.029318625
0.028909671
0.028460075
0.027971327
0.027443755
0.026879154
0.026277831
0.025642744
0.024975757
0.024280413
0.023559453
0.022817058
0.022056321
0.021281617
0.020496203
0.019705146
0.018911547
0.018118355
0.017328607
0.016545541
0.015772088
0.015011302
0.014265388
0.013539298
0.012833007
0.012144244
0.011482846
0.010637799
0.010396655
0.010406116
0.010432103
0.010440998
0.010461864
0.010463407
0.010477044
0.010444813
0.010425678
0.010406887
0.01044757
0.010368525
0.010439336
0.010462854
0.010492778
0.010402503
0.010475685
0.010536193
0.010531552
0.010476898
0.010478255
0.010457467
0.010518108
0.010521587
0.010588105
0.010670602
0.010771179
0.011091208
0.011596673
0.012311108
0.011806048
0.011498893
0.011389187
0.011315135
0.011245239
0.011240921
0.011177597
0.011192522
0.011194304
0.011243511
0.011249541
0.011192532
0.011120832
0.011205586
0.011173875
0.011152475
0.01108489
0.011159999
0.011121533
0.011135005
0.01116019
0.01118709
0.011178546
0.011180908
0.011162037
0.011149692
0.011116923
0.011100863
0.01134275
0.012062303
0.011824965
0.011844127
0.011885378
0.011895646
0.011920592
0.011915798
0.011918953
0.011894411
0.011866523
0.011854982
0.011894179
0.011820278
0.011887338
0.011906893
0.011940239
0.011857784
0.011928502
0.011984813
0.01197585
0.011932779
0.011926767
0.011918548
0.011981813
0.011988367
0.012057507
0.012126844
0.012242039
0.01254046
0.013043893
0.013787147
0.013291814
0.01300387
0.012887322
0.012819019
0.01274592
0.012741556
0.012674912
0.012684144
0.012687054
0.012730714
0.01273926
0.012683819
0.012614833
0.012689911
0.012658877
0.012637493
0.012575438
0.012643649
0.012608095
0.012616814
0.012647775
0.012669163
0.0126726
0.012674486
0.012648398
0.012641127
0.012593357
0.012572134
0.012795872
0.01354504
0.01333835
0.013365924
0.013416713
0.013422702
0.013447878
0.013448644
0.013440402
0.013422349
0.013386545
0.013382387
0.013413491
0.013350019
0.013407912
0.013432667
0.013459626
0.013391066
0.013459021
0.013515439
0.013506846
0.013460575
0.013463153
0.013450274
0.013521132
0.013522845
0.013600522
0.013668488
0.013785601
0.014062069
0.014548677
0.015320681
0.014850752
0.014577845
0.014465166
0.014393803
0.014321296
0.01431265
0.01424607
0.014254799
0.014254695
0.014295057
0.014301182
0.014245363
0.014184749
0.014245042
0.014216308
0.014194016
0.014142355
0.014199335
0.014168946
0.014176726
0.014207676
0.014227619
0.014242789
0.014243056
0.014216404
0.014209999
0.01415652
0.014122239
0.014321294
0.015103011
0.014922686
0.014961591
0.015015795
0.01501807
0.015051153
0.015049979
0.015030943
0.015004725
0.014983963
0.01497024
0.015001932
0.014948159
0.014997233
0.015013542
0.015046271
0.014991889
0.015047725
0.015100366
0.015097735
0.015065807
0.015061408
0.015058797
0.015119813
0.015133057
0.01520291
0.015278058
0.015382869
0.015654182
0.016107337
0.016898915
0.01646153
0.016201552
0.016094259
0.01602177
0.0159554
0.015937496
0.015877636
0.015883357
0.015882947
0.015915841
0.015911673
0.015860294
0.015809796
0.015858447
0.015823235
0.015811159
0.015764658
0.015815273
0.015786535
0.015796767
0.015816129
0.01585002
0.015867824
0.01586963
0.015831766
0.015831661
0.015777456
0.015728954
0.015900179
0.016706351
0.016545675
0.016602524
0.016658591
0.016657934
0.016699186
0.016696587
0.016679123
0.016644469
0.016619482
0.016615455
0.016638505
0.01659329
0.016635248
0.016643248
0.01668192
0.016639966
0.016684089
0.016732674
0.016745221
0.01671024
0.016716625
0.016705661
0.016766712
0.016789709
0.016850888
0.016916431
0.017029385
0.017277154
0.017700687
0.018502632
0.018102439
0.017856077
0.017749922
0.017691799
0.017622745
0.017601379
0.017543759
0.017550104
0.017548864
0.017574721
0.017564836
0.01751353
0.017469652
0.017511159
0.017474158
0.01746967
0.017420614
0.017471791
0.017443358
0.017452157
0.017470752
0.017514063
0.017523372
0.017527644
0.017488703
0.017484682
0.017434053
0.017374427
0.017526838
0.018339449
0.018205507
0.018267314
0.018313446
0.018324645
0.018359402
0.018351827
0.018351326
0.018299219
0.018290267
0.018273429
0.018310705
0.018249864
0.018311771
0.01831447
0.018346514
0.018301668
0.018348687
0.018404288
0.018409313
0.018390389
0.018389258
0.018388676
0.0184404
0.01845756
0.018535388
0.018583807
0.018686401
0.018928901
0.019309556
0.0201098
0.019752953
0.019514372
0.019417366
0.019377976
0.019293081
0.019283717
0.019226016
0.019227369
0.019231241
0.019242669
0.019243311
0.019182581
0.019138809
0.019180884
0.01915525
0.019145963
0.019083805
0.019143432
0.01910795
0.019122757
0.019128412
0.019187993
0.019184379
0.019194954
0.01915417
0.019145168
0.019099431
0.019036399
0.019155107
0.019967938
0.019865793
0.019930678
0.019974893
0.019980945
0.02002913
0.020019075
0.020023517
0.019958977
0.019954397
0.019945008
0.01997651
0.019918764
0.01997592
0.019992735
0.020014529
0.019978418
0.02001537
0.020082541
0.02007532
0.02007168
0.020063329
0.020058568
0.020125969
0.020129347
0.020219261
0.020255721
0.02034065
0.020575092
0.020908774
0.021694626
0.021381304
0.021158003
0.021078134
0.021046561
0.020963789
0.020955318
0.020885159
0.020897086
0.020897765
0.020900061
0.020906979
0.020840002
0.02081175
0.020840396
0.02082329
0.02079998
0.020747066
0.020800515
0.020775566
0.020778493
0.020787917
0.020845358
0.020845797
0.02084943
0.020805128
0.020790631
0.02074607
0.020681568
0.020783527
0.021585439
0.021488688
0.021549131
0.021596097
0.021619014
0.021659269
0.021661908
0.021657333
0.021607102
0.021593399
0.021594963
0.021612082
0.0215681
0.021617605
0.021646223
0.021657181
0.021634254
0.02165692
0.021719393
0.021715695
0.021711076
0.021722869
0.021705769
0.021775352
0.021786887
0.021863839
0.021888047
0.021964434
0.022174417
0.022472317
0.023230866
0.022953225
0.022760901
0.022684316
0.022665156
0.022594422
0.022580196
0.0225173
0.02252799
0.022515768
0.022523584
0.022518239
0.022458513
0.022441842
0.022458728
0.022449142
0.022425242
0.022369426
0.022414016
0.022399484
0.022392923
0.022412163
0.022453501
0.022463374
0.022453001
0.022418422
0.022386391
0.022338432
0.022280287
0.022377432
0.023147788
0.023056118
0.023110073
0.023160335
0.023198646
0.023229835
0.023245554
0.023232997
0.023198508
0.023176605
0.023188372
0.023196396
0.023154369
0.023216931
0.023235141
0.023244369
0.023233941
0.02324399
0.02329919
0.023313502
0.02330152
0.023316545
0.023311274
0.023368197
0.023385793
0.023449847
0.023462515
0.023541189
0.023716405
0.023974842
0.024692646
0.024460551
0.024292758
0.024222926
0.024211719
0.024147859
0.024132685
0.024083291
0.024082262
0.024066532
0.024080893
0.024058977
0.024012834
0.023997194
0.024007682
0.024004485
0.023981232
0.023922362
0.023955344
0.023948152
0.023937231
0.023962167
0.023989049
0.024004535
0.023983071
0.023955994
0.023911848
0.023860592
0.023808869
0.023900601
0.024623586
0.024538173
0.024586005
0.024638232
0.02468882
0.02471053
0.024738203
0.024719464
0.024701131
0.024673878
0.024680975
0.024692878
0.024666384
0.024720646
0.024747928
0.024746204
0.024732976
0.024756348
0.02479267
0.024824595
0.024810301
0.024824648
0.024828707
0.024872713
0.024882021
0.024949365
0.024962313
0.02501995
0.025181301
0.025388321
0.026050945
0.02586595
0.025716505
0.025671858
0.025656001
0.025591071
0.025582464
0.025543952
0.02553606
0.025523454
0.025532392
0.025499939
0.025470199
0.025440318
0.025459023
0.025461347
0.025429635
0.02538158
0.025401353
0.025385826
0.025386267
0.025405482
0.02542369
0.025436857
0.025411973
0.025387038
0.025339527
0.025283217
0.025237251
0.025320766
0.025984427
0.025906654
0.025948516
0.026010411
0.026052511
0.026082429
0.026103789
0.026096618
0.026078383
0.02606683
0.026062953
0.026079347
0.026064727
0.026107225
0.026143648
0.026140946
0.02611861
0.026153588
0.026181766
0.026208368
0.026205718
0.026215143
0.026227495
0.026261097
0.026271828
0.026330726
0.026348653
0.026381452
0.026516735
0.026684877
0.02728157
0.027132989
0.027015027
0.026989878
0.026968437
0.026916279
0.026902843
0.026870269
0.026861802
0.026846849
0.02684773
0.026821065
0.026796197
0.026765444
0.026781981
0.026783812
0.026748163
0.02671255
0.026722048
0.026704455
0.02671174
0.026714224
0.026729311
0.026733054
0.026712551
0.02668581
0.026641552
0.026579271
0.026539817
0.026611091
0.027196582
0.027135091
0.027173043
0.027234897
0.027282657
0.027304764
0.027323428
0.02732455
0.027310833
0.027319575
0.027309218
0.027328007
0.02732256
0.02735236
0.027384353
0.027384929
0.027374126
0.027401224
0.027421154
0.027450083
0.027448021
0.027471426
0.027474977
0.0275066
0.027522464
0.027568389
0.027591576
0.027611237
0.02771229
0.027845128
0.028368101
0.028252498
0.028166814
0.028152059
0.028127115
0.028088149
0.0280698
0.028042963
0.028036123
0.028012261
0.028012964
0.027982151
0.027965662
0.027942241
0.027947694
0.02794559
0.027915963
0.027892633
0.027893998
0.027877628
0.027882905
0.02787087
0.027880521
0.027875003
0.027860255
0.027835674
0.027791876
0.02772852
0.027692502
0.027747058
0.028257628
0.028210615
0.028243978
0.028309723
0.028347582
0.028375751
0.02838581
0.028397035
0.028392933
0.028405611
0.028404858
0.028419499
0.028420761
0.028439688
0.028465823
0.028469972
0.028469901
0.02848999
0.028502281
0.028536087
0.028538226
0.028559696
0.028568747
0.028592024
0.02861134
0.028644879
0.028671268
0.028680948
0.028752924
0.028854705
0.029299367
0.029212312
0.029152545
0.029143881
0.02911942
0.029091385
0.029070831
0.029051069
0.029039295
0.029021125
0.029016008
0.028983103
0.028971898
0.028951079
0.028949814
0.028944391
0.028920591
0.028905999
0.028901929
0.028889355
0.028884762
0.028872542
0.028870769
0.02885735
0.028845552
0.028820062
0.028781505
0.028720653
0.028688447
0.028732629
0.029164391
0.029126903
0.02915846
0.029210414
0.029250425
0.029274019
0.029289272
0.029302992
0.029309611
0.029322024
0.029330653
0.029341661
0.029348919
0.029359518
0.029380749
0.029387984
0.029388365
0.029412187
0.029423931
0.029453748
0.02946069
0.029476683
0.029490852
0.029506755
0.02952891
0.029551495
0.029572162
0.029581549
0.029631063
0.029706477
0.030072497
0.030009132
0.029968555
0.029960101
0.029943361
0.029921239
0.029902009
0.029884714
0.029871008
0.029857243
0.029848458
0.029822208
0.029809467
0.02978573
0.029784273
0.029775407
0.029758218
0.029746612
0.029740635
0.029729153
0.029715998
0.029703874
0.029692168
0.029678549
0.029659949
0.029638975
0.02959943
0.029554399
0.029525328
0.029557091
0.029906691
0.029882142
0.029909575
0.029949804
0.02998648
0.030005094
0.030026531
0.030040457
0.03005631
0.030068766
0.030085615
0.030098556
0.03010275
0.030116255
0.030128873
0.030140255
0.03014376
0.030165689
0.030178681
0.030202067
0.030212584
0.030224076
0.030235962
0.030256149
0.030272122
0.030294728
0.030310051
0.030315727
0.030347987
0.030401997
0.03069337
0.030648763
0.030621543
0.03061759
0.030603998
0.030584815
0.030568385
0.030547842
0.030538965
0.030525582
0.030515343
0.030494811
0.03048108
0.030461632
0.030455851
0.030444466
0.030432421
0.0304205
0.030414006
0.030401575
0.030383724
0.030369815
0.030351405
0.030335881
0.030313169
0.030295149
0.030260722
0.030224904
0.030199349
0.03021899
0.030492689
0.030478033
0.030501475
0.030533451
0.030564004
0.030583418
0.030605414
0.030624086
0.030643023
0.030659959
0.030678722
0.030690833
0.030699781
0.030710617
0.030722008
0.030733907
0.030741273
0.030758786
0.030773092
0.030791175
0.030799898
0.030816549
0.030823288
0.030843193
0.03085983
0.030875724
0.03088728
0.030890612
0.030913895
0.030951336
0.03117585
0.031145701
0.03112699
0.031122775
0.031112361
0.03109956
0.031082802
0.03106443
0.03105682
0.031039956
0.031031479
0.031014181
0.03100049
0.030984868
0.030976034
0.030963705
0.030954236
0.030943709
0.030933722
0.030920999
0.030900997
0.030881669
0.030861926
0.0308411
0.030819309
0.030798757
0.030771407
0.030742741
0.030721813
0.03073328
0.03115522
0.031165852
0.031174211
0.031186308
0.031196266
0.031210245
0.031223192
0.031240161
0.031249031
0.031265176
0.031273691
0.031289872
0.031306374
0.031316902
0.031326264
0.031331752
0.031346584
0.031371432
0.031540144
0.031520432
0.031508106
0.031502196
0.03149361
0.031483973
0.031468688
0.031555592
0.031385133
0.031187824
0.030960957
0.030702023
0.030408796
0.030079309
0.029712315
0.029306778
0.028862521
0.028379548
0.027858808
0.027301344
0.026708578
0.026082629
0.025424899
0.024736864
0.02402392
0.023293271
0.022546302
0.021785611
0.021013024
0.020229999
0.019442023
0.018652719
0.017865531
0.017087018
0.016315689
0.015552723
0.014802072
0.014066384
0.013349077
0.012653253
0.011975257
0.01206116
0.011635529
0.011530763
0.011046145
0.011175664
0.011879656
0.01235443
0.012763834
0.013490525
0.014273244
0.015017351
0.014472325
0.014286919
0.013576818
0.012879644
0.012203493
0.011761147
0.012492049
0.012611644
0.013054545
0.013772036
0.013386814
0.013275709
0.014040591
0.014142131
0.014233285
0.014637742
0.014930019
0.014205955
0.013493602
0.01280078
0.01213432
0.011873678
0.011818127
0.011512383
0.011429537
0.011743586
0.01191361
0.011902638
0.011473698
0.011664848
0.011473061
0.011238082
0.011948142
0.01215929
0.012211488
0.012514687
0.012587402
0.013317944
0.014089813
0.014840666
0.014644486
0.013931775
0.013226521
0.012929703
0.013685275
0.014418359
0.014278621
0.0146523
0.014736606
0.014018719
0.013931024
0.013235938
0.012562812
0.012601299
0.01330994
0.01303724
0.012807981
0.012138893
0.012350171
0.012187106
0.012481435
0.013201507
0.012869308
0.012683268
0.012933117
0.013694034
0.013936848
0.013587301
0.013456501
0.014201239
0.014472474
0.014486621
0.01376675
0.013530886
0.01328608
0.013119761
0.013098517
0.012392226
0.011707801
0.011038706
0.011079402
0.010978179
0.010821718
0.010746868
0.010795765
0.011050618
0.010800773
0.011517581
0.011493052
0.011535266
0.012269272
0.012345132
0.012427285
0.011752295
0.011666972
0.011499337
0.012226749
0.012215055
0.012258272
0.012423963
0.011742543
0.011933342
0.011912087
0.011768899
0.011879971
0.011228013
0.011443009
0.011271397
0.011114034
0.011248745
0.01124861
0.011094357
0.011281188
0.01130678
0.010820561
0.010723193
0.010779692
0.010799746
0.010808249
0.010737162
0.01086022
0.010854008
0.0115502
0.011511236
0.011503548
0.01152464
0.011462162
0.01217899
0.012255916
0.012232213
0.012139857
0.011467658
0.011468951
0.012179889
0.012242736
0.012278684
0.0122141
0.011543588
0.011541145
0.010889861
0.010896846
0.010835296
0.01075738
0.010594537
0.010781609
0.011025943
0.010871536
0.011602429
0.011298318
0.0114695
0.012205959
0.012272016
0.012229836
0.011568089
0.011536018
0.012265392
0.013043807
0.012979097
0.013053721
0.012990887
0.013008543
0.013007544
0.013210007
0.012977664
0.013129339
0.013054107
0.01382696
0.013880954
0.013899249
0.013898891
0.01374752
0.013668281
0.012952007
0.013043465
0.013815925
0.013983711
0.01410292
0.014060236
0.013930862
0.014069476
0.01425219
0.013529809
0.012816344
0.012588027
0.012488143
0.01265845
0.01196676
0.01212326
0.012043733
0.011377156
0.011251039
0.011038315
0.011216254
0.011340074
0.011091286
0.011022075
0.011196641
0.011945803
0.012051033
0.011969517
0.012697576
0.012795021
0.01262845
0.011947331
0.011750066
0.012481417
0.013254967
0.013385111
0.013564283
0.014348735
0.014159359
0.014006163
0.014149674
0.014108194
0.013388409
0.013220891
0.013338184
0.012625569
0.012622807
0.011942273
0.011807878
0.012549268
0.012651466
0.013386853
0.013329177
0.013384909
0.014162432
0.014083669
0.014124637
0.014217577
0.013489312
0.013437166
0.012772564
0.012456653
0.011782682
0.011735777
0.012469922
0.012673629
0.013408463
0.013243543
0.01320639
0.013975957
0.013996003
0.014085925
0.014188205
0.014062279
0.014094254
0.013778866
0.013634543
0.01291664
0.012916195
0.013674985
0.013761018
0.013759255
0.013628058
0.012913672
0.012989472
0.013749784
0.013805477
0.013896725
0.014095577
0.014000245
0.013289524
0.013373943
0.012666569
0.011979025
0.011913626
0.011258799
0.01127424
0.01121893
0.011198611
0.011244046
0.011213992
0.011047294
0.011765975
0.01192894
0.011894746
0.01259024
0.012636912
0.012626217
0.013353761
0.013417233
0.01417742
0.014161086
0.013454591
0.013472781
0.012770321
0.012083802
0.011414276
0.011299766
0.011367812
0.011379865
0.0114278
0.011207603
0.011075414
0.011270419
0.011965625
0.012150146
0.012065047
0.011962264
0.011955155
0.012690879
0.012643259
0.012475924
0.012561795
0.011889449
0.011939023
0.011750421
0.0111089
0.01128587
0.011162637
0.011090633
0.011046965
0.011026785
0.011080762
0.011104488
0.011827653
0.011776031
0.011820038
0.012538205
0.012458482
0.012673187
0.012525679
0.011850431
0.011729466
0.011876215
0.011225028
0.011093085
0.0110963
0.011080329
0.01095041
0.010991211
0.010879208
0.010900607
0.011631762
0.011686285
0.011738734
0.01247549
0.012493493
0.012106025
0.012024297
0.012329392
0.01236771
0.011701727
0.011451709
0.011529831
0.011470676
0.010823076
0.010903427
0.010977142
0.010788632
0.010575738
0.010777822
0.011023195
0.010804467
0.011534726
0.011282381
0.011518496
0.01224183
0.012198042
0.012248375
0.012317647
0.011651284
0.011468714
0.012185861
0.01200851
0.012259603
0.012362523
0.011697263
0.011962314
0.012005911
0.011872334
0.011880528
0.011235475
0.011236964
0.011158045
0.011233478
0.011359255
0.011350431
0.011128981
0.011320452
0.011320805
0.010794445
0.010656375
0.010772051
0.010707354
0.010830851
0.010730849
0.010835688
0.010899073
0.011596426
0.011534491
0.011401549
0.01148799
0.011360034
0.01208466
0.01220723
0.012123527
0.012129029
0.011452853
0.011438342
0.012168609
0.012267018
0.012323867
0.012198114
0.011519547
0.011346473
0.010703907
0.01095784
0.010895823
0.01070017
0.010741582
0.011118409
0.010955955
0.010631617
0.011335123
0.011435937
0.011436056
0.012149717
0.012069084
0.012307461
0.011637573
0.011598704
0.012328817
0.013079669
0.01308144
0.0130935
0.013017569
0.012865351
0.012973469
0.013132367
0.012929988
0.013089429
0.012995684
0.013141725
0.012850686
0.012775308
0.012993226
0.013068115
0.013819519
0.013747474
0.013812426
0.013763125
0.013547053
0.013612078