/*--------------------------------*- C++ -*----------------------------------*\
| =========                 |                                                 |
| \\      /  F ield         | OpenFOAM: The Open Source CFD Toolbox           |
|  \\    /   O peration     | Version:  v2012                                 |
|   \\  /    A nd           | Website:  www.openfoam.com                      |
|    \\/     M anipulation  |                                                 |
\*---------------------------------------------------------------------------*/
FoamFile
{
    version     2.0;
    format      ascii;
    class       volScalarField;
    location    "100";
    object      omega;
}
// * * * * * * * * * * * * * * * * * * * * * * * * * * * * * * * * * * * * * //

dimensions      [0 0 -1 0 0 0 0];


internalField   nonuniform List<scalar> 
15162
(
23.879799
23.461019
23.059419
22.674781
22.30782
21.957799
21.623732
21.304642
20.99959
20.707681
20.428051
20.159879
19.902415
19.654956
19.416845
19.187462
18.966233
18.752616
18.546083
18.346142
18.152327
17.964208
17.781382
17.603477
17.430163
17.261152
17.096286
16.935533
16.780865
16.632
16.496617
16.370288
16.260896
16.161753
16.079414
15.699043
14.881349
14.69283
14.309683
14.468532
14.163094
14.391766
14.051855
14.284954
13.949632
14.186879
13.884402
14.166532
13.891155
14.132164
13.810954
14.091284
13.887497
14.457561
15.23162
16.548387
17.871105
16.753536
12.698507
10.815911
9.7147887
9.3499462
9.1398417
9.1138659
9.1870626
9.1013315
8.962239
9.1280576
9.1850133
9.1741379
9.1766446
9.1413938
9.1396702
9.1493044
9.1640863
9.1976016
9.2216564
9.131547
8.8581715
9.1279835
9.2002228
9.2016779
9.2011548
9.2080826
9.2067998
9.2087905
9.2118697
9.23016
9.2404875
9.2533372
9.2468475
9.280033
9.2640206
9.2619614
9.2581979
9.2941864
9.2763569
9.2637141
9.2698623
9.2952632
9.2974294
9.3154718
9.3016865
9.3067189
9.2937466
9.2779231
9.2649992
9.1827164
9.0545261
8.8182836
8.9590193
8.8415818
9.010541
8.9237747
9.1409261
9.1065652
9.4682143
9.7241429
10.580944
11.645016
13.44785
15.127127
14.668812
13.149827
11.694583
10.476587
9.8493031
9.4201641
9.2580845
9.1116328
9.0475553
8.9166731
8.9010441
8.9139422
9.016328
9.0023683
8.9530429
9.0103604
9.0917402
9.2539012
9.3621131
9.7778511
10.417805
11.49718
12.819097
14.108157
13.678236
12.598086
11.391462
10.456768
9.8275103
9.4417709
9.2890811
9.1497497
9.0556849
9.0664796
9.1267221
9.1512586
9.1333759
9.1415638
9.1236749
9.1017991
9.164393
9.2703516
9.4001128
9.7954802
10.387027
11.242928
12.246657
13.29791
13.135615
12.032221
11.125409
10.338525
9.7885467
9.4034145
9.3141545
9.1995317
9.1406055
9.1516646
9.1542337
9.1886881
9.2108751
9.2087069
9.09132
9.1271774
9.1658604
9.284256
9.4093984
9.8157637
10.336033
10.963442
11.835572
13.031166
12.920122
11.740848
10.91579
10.272217
9.7495517
9.3980508
9.3032958
9.1910692
9.1694561
9.0780169
9.1183337
9.1830503
9.2081496
9.1938451
9.0641131
9.1188278
9.1178942
9.2185239
9.402121
9.7639181
10.220182
10.816608
11.635453
12.837033
12.737395
11.58641
10.790872
10.169654
9.7070799
9.3952599
9.1966688
9.1392534
9.1049366
9.0993114
9.1867085
9.1712333
9.1860417
9.1746862
9.0755746
9.1031867
9.1116308
9.2265792
9.3985256
9.747096
10.156091
10.699766
11.552968
12.733962
12.650121
11.495103
10.691888
10.150146
9.7204915
9.4059941
9.2466995
9.1446659
9.1067744
9.1132077
9.1472005
9.1312264
9.1163914
9.130647
9.0932883
9.0728165
9.1337469
9.2299556
9.3923425
9.7142922
10.117933
10.668423
11.483341
12.637213
12.624712
11.484235
10.650027
10.1065
9.6712549
9.3568679
9.2177575
9.1624326
9.098994
9.0950505
9.1477216
9.1545517
9.2045012
9.1588098
9.0966123
9.1349271
9.1943972
9.2375227
9.4100364
9.7044395
10.102717
10.6114
11.413238
12.616008
12.60358
11.462584
10.649564
10.112452
9.698809
9.392129
9.2716209
9.2055754
9.1113211
9.0751762
9.0673919
9.1057236
9.1159797
9.1051796
9.030167
9.0581647
9.1155177
9.2373039
9.3935408
9.6832628
10.036269
10.613323
11.380638
12.505324
12.582661
11.480554
10.687914
10.138288
9.7510806
9.4251678
9.2732642
9.1493762
9.0757263
9.031243
9.0759782
9.123895
9.1887938
9.1385754
8.9848652
9.0197839
9.1492229
9.2772432
9.4789905
9.8575305
10.301719
10.908494
11.629782
12.625344
13.148027
12.142257
11.368025
10.661158
10.103387
9.6638617
9.3727143
9.1746541
9.08419
8.9959915
9.0458732
9.1029465
9.1465557
9.1191924
8.9908921
9.0197153
9.1220056
9.3979034
9.8325589
10.378527
11.228491
12.489494
13.341008
14.189143
16.488873
16.12104
13.989155
11.901638
10.628865
9.8979863
9.3752394
9.162378
9.0053694
9.0506574
9.1335885
9.1036554
9.1116009
9.089211
9.0006496
9.0419663
9.1189226
9.3360995
9.8552914
10.637793
12.046345
14.367175
16.508394
17.90864
15.010181
13.439087
12.206828
11.079886
10.178397
9.5953934
9.2101654
9.0512779
8.9516383
8.971691
9.0588644
9.0715436
9.0991599
9.0307279
8.9747314
8.9705517
8.9738965
9.0963368
9.3304677
9.7140141
10.274373
10.848996
11.401718
11.967595
10.583255
10.303525
10.035371
9.7060309
9.353931
9.1115588
8.9690147
8.8985738
8.9395175
9.0013395
9.0438136
9.1005777
9.0944351
8.9797474
8.9330523
8.9593413
8.9355492
8.9419805
8.9354066
9.0674069
9.3216582
9.4862834
9.6183137
9.7457295
9.2639575
9.2129666
9.180617
9.0929951
8.9715908
8.8837331
8.8430898
8.8854434
8.9072809
8.9180027
9.0115259
9.1038602
9.0685853
8.9883286
8.9083382
8.9010371
8.8774023
8.8344165
8.8462702
8.8917753
8.947801
9.0235041
9.0057114
9.0563252
9.0399104
8.9959306
9.0201365
8.9510068
8.9532697
8.8872079
8.8964331
8.9063075
8.9499311
8.9663343
9.0463319
9.0985423
9.1233502
9.1000149
9.0463699
8.9812597
8.9911812
8.9842981
8.9615392
9.0355312
8.9861396
9.0239905
9.019861
9.0470969
8.949198
9.0753515
8.9642697
8.8601315
8.7633176
8.6724894
8.5887174
8.5101928
8.4359357
8.3658274
8.3004683
8.2402414
8.1853634
8.135907
8.0920515
8.0541159
8.0220369
7.9955625
7.9756319
7.9615588
7.9529171
7.949625
7.9517643
7.9595982
7.9724283
7.9900608
8.0121767
8.0386122
8.068955
8.1028696
8.1401055
8.1803478
8.2232119
8.3569703
8.3067613
8.2582739
8.211781
8.1675697
8.1259317
8.0871716
8.0515882
8.0194862
7.9911486
7.9668569
7.9468562
7.9313805
7.9206149
7.9147301
7.9138411
7.9180481
7.9273914
7.9418937
7.961516
7.9862103
8.0158733
8.0503965
8.0896194
8.1333777
8.1814601
8.2336896
8.2899119
8.3503206
8.4147792
8.4848496
8.5597984
8.6432976
8.7309095
8.8588672
8.7585224
8.6656925
8.5809368
8.503201
8.4314858
8.3648403
8.3028372
8.2453335
8.1923545
8.1440624
8.1006182
8.0621652
8.0288207
8.0007009
7.9778617
7.9603547
7.9481995
7.9413954
7.9398792
7.9435666
7.9523107
7.9659459
7.9842738
8.0070652
8.0340624
8.0649861
8.0995411
8.1374207
8.1783122
8.221902
8.2678912
8.3159806
8.3658444
8.3834823
8.3333556
8.285002
8.2386947
8.1947159
8.1533533
8.1149
8.0796519
8.0478978
8.019915
7.9959662
7.9762939
7.9611118
7.9506175
7.9449621
7.9442646
7.9486045
7.9580231
7.9724983
7.9920136
8.0164996
8.0458642
8.0799831
8.1187049
8.161855
8.2092463
8.2606774
8.3160958
8.3755276
8.4392292
8.5080916
8.5830921
8.66518
8.7525875
8.9078568
8.8045035
8.7091935
8.6225613
8.5434994
8.4703716
8.4022066
8.3398434
8.2822959
8.2294568
8.1814859
8.1384773
8.1005962
8.0679478
8.0406079
8.0186186
8.0020125
7.990759
7.984851
7.9841983
7.9886935
7.9982096
8.0125778
8.031576
8.0549717
8.0825064
8.1139021
8.1488657
8.1870977
8.2282933
8.2721564
8.3183928
8.3667155
8.4168111
8.4753588
8.4251066
8.3766149
8.330145
8.2859676
8.2443648
8.205609
8.169982
8.1377724
8.1092751
8.0847348
8.0643948
8.0484789
8.0372229
8.0307571
8.0292056
8.032665
8.0412467
8.0549278
8.0737164
8.0975543
8.1264269
8.1602027
8.1987465
8.2414294
8.2885261
8.3401097
8.3959487
8.4555664
8.5195416
8.5885792
8.6636582
8.7455081
8.833477
9.0383963
8.9354317
8.8412532
8.7559897
8.6783268
8.6065494
8.5399126
8.4789129
8.4225723
8.3705826
8.323798
8.2822359
8.2457366
8.2152268
8.1901748
8.1704379
8.1556584
8.1463547
8.1424095
8.1435934
8.1495486
8.1605
8.1761856
8.1963309
8.2206005
8.2486643
8.2805989
8.3159655
8.3543837
8.3955512
8.4393376
8.4854021
8.5334451
8.5831988
8.7881736
8.7387323
8.6908269
8.6446934
8.600573
8.5587227
8.5193886
8.4828295
8.4493158
8.4191283
8.3925035
8.3696886
8.3509003
8.3363782
8.3262943
8.3208061
8.3200425
8.3241044
8.3330379
8.3468297
8.3654577
8.3888838
8.4170639
8.4498608
8.4866688
8.5277799
8.5732386
8.6227993
8.6760347
8.7335705
8.7961898
8.8649473
8.9404844
9.0223978
9.3742942
9.2829713
9.2003627
9.1269798
9.0613488
9.0029117
8.9499173
8.9016897
8.8575687
8.818421
8.7840267
8.7543777
8.7295486
8.7095863
8.6945421
8.6842246
8.6786403
8.6780401
8.6824113
8.6915846
8.7052584
8.7235805
8.746063
8.7724068
8.80236
8.8356594
8.8720519
8.911225
8.9529065
8.9969259
9.042973
9.090783
9.1401172
9.1907453
9.9755531
9.9159309
9.8572589
9.7998672
9.7440385
9.6900332
9.6381054
9.5884975
9.5414577
9.4972415
9.4560925
9.418253
9.3839476
9.353399
9.3268004
9.3043113
9.2860784
9.2722191
9.2627696
9.2577375
9.2571169
9.2608959
9.2689893
9.2813243
9.2977913
9.3182907
9.3426908
9.3709279
9.4031233
9.4395378
9.4804837
9.5277826
9.5825306
9.6463407
10.512359
10.450255
10.399713
10.359098
10.326222
10.300439
10.280081
10.264478
10.253082
10.246443
10.244402
10.247024
10.254179
10.265727
10.282556
10.304345
10.330875
10.361993
10.398261
10.439331
10.484921
10.535134
10.589777
10.648669
10.711609
10.778438
10.849063
10.92324
11.000784
11.081519
11.165254
11.251762
11.340758
11.431879
13.839023
13.676761
13.520872
13.371639
13.22914
13.093305
12.963992
12.841042
12.724312
12.613698
12.509097
12.410421
12.31759
12.230552
12.149229
12.073532
12.003382
11.938702
11.879362
11.825231
11.77593
11.731525
11.691978
11.657026
11.626494
11.60025
11.578202
11.560394
11.547044
11.538604
11.535966
11.540489
11.55346
11.5766
13.427198
13.417952
13.426068
13.441868
13.465429
13.496467
13.533602
13.576421
13.624012
13.676211
13.733115
13.794769
13.861429
13.933576
14.011415
14.095285
14.185352
14.281717
14.385006
14.495023
14.6117
14.735861
14.8674
15.006369
15.153016
15.307736
15.470772
15.642379
15.822825
16.012355
16.211131
16.419156
16.636039
16.860937
8.1371556
8.0922676
8.049879
8.0103244
7.9739372
7.9410726
7.9120535
7.8872147
7.8667972
7.8510723
7.8402412
7.8345585
7.8341461
7.8391515
7.849621
7.8656027
7.8870382
7.9138894
7.9460089
7.9832732
8.02539
8.0721514
8.1233348
8.1786724
8.2378714
8.300689
8.3672112
8.4372771
8.5122597
8.5914375
8.6786295
8.7690369
9.0151492
9.080583
9.080298
9.0794573
9.0854598
9.0854947
9.0888572
9.0925266
9.1097221
9.1204627
9.132335
9.1273099
9.157752
9.1437822
9.1427931
9.1390523
9.171466
9.1556882
9.1448696
9.1500441
9.1734623
9.1762336
9.192724
9.1797018
9.1845719
9.1705163
9.1583951
9.1433747
9.0674824
8.9485418
8.8410624
8.9538404
9.0233056
9.0393534
9.0488873
9.0628819
9.0582786
9.0707978
9.0563147
9.0523772
9.0312781
9.0258404
9.0353855
9.0494544
9.0200722
9.0234589
9.0238742
9.0361336
9.0079769
9.01175
9.0013578
8.9894732
8.9738354
8.968833
8.964504
8.964007
8.9586829
8.9610248
8.9624898
8.9005496
8.794714
8.8523567
8.8503356
8.8466133
8.8521844
8.8518237
8.8568092
8.8629426
8.8778364
8.8900365
8.8998544
8.8965763
8.9232693
8.9119787
8.9120895
8.9089701
8.9363149
8.9236588
8.9147857
8.920678
8.9396604
8.9447222
8.9573062
8.9456992
8.949863
8.9367094
8.9286479
8.9123135
8.8478036
8.7411346
8.6505019
8.7502973
8.809989
8.8258996
8.8332606
8.8463503
8.8419097
8.8531983
8.8411067
8.836259
8.8181546
8.8124134
8.820604
8.8318204
8.807168
8.8094123
8.8093879
8.819037
8.7944413
8.79656
8.7873929
8.7748916
8.7607558
8.753415
8.7486624
8.7489482
8.7429853
8.7474762
8.7497479
8.6977613
8.6079439
8.654406
8.6512857
8.6467488
8.6527772
8.652879
8.6575288
8.6656304
8.6791008
8.6921208
8.7004378
8.6994973
8.7223348
8.7140257
8.7137753
8.7126063
8.7349394
8.7249365
8.7171274
8.7227985
8.7403622
8.7446152
8.7566502
8.7455956
8.7503184
8.7372735
8.7304995
8.7150553
8.6599584
8.5666192
8.4895039
8.5754604
8.6273815
8.6415855
8.6483616
8.6598701
8.6563391
8.6658605
8.6550658
8.6501878
8.6344286
8.6292261
8.6363799
8.6442943
8.6244256
8.6254809
8.6250756
8.6318053
8.6109051
8.6113022
8.6025202
8.5905245
8.5768528
8.5677435
8.5626489
8.5624955
8.5566704
8.5611718
8.5650927
8.5224371
8.4432913
8.4807446
8.4763941
8.4722247
8.4784714
8.4780293
8.483529
8.4930272
8.507489
8.5178345
8.5273421
8.5271513
8.5468142
8.5409411
8.5424088
8.5412069
8.5592215
8.5527838
8.5465871
8.5512471
8.5650276
8.5706892
8.5801121
8.5721397
8.5750647
8.5645048
8.5577727
8.5452297
8.496153
8.4172013
8.3503078
8.4227864
8.4677978
8.4801621
8.48592
8.4954642
8.4930669
8.5002308
8.4907943
8.4857416
8.4725008
8.4687476
8.4743194
8.4793199
8.4630124
8.4640811
8.4619214
8.4669815
8.4484874
8.4478823
8.4389857
8.4289275
8.4136151
8.4044664
8.3986155
8.3992692
8.3929991
8.3967794
8.4022122
8.3682568
8.2978401
8.3283126
8.3221434
8.3184721
8.3245759
8.3239077
8.3300353
8.3390846
8.3541734
8.3648761
8.3728892
8.3745752
8.3916743
8.3876757
8.390406
8.3893618
8.4039619
8.4004167
8.3956445
8.3984329
8.4112216
8.4156133
8.4252885
8.4185468
8.4204535
8.4120831
8.4077579
8.3953258
8.3542145
8.2876664
8.230268
8.2901068
8.328839
8.3397184
8.3427095
8.3515924
8.3492822
8.3550318
8.3463577
8.3412101
8.330241
8.3269646
8.3316956
8.3346632
8.3208694
8.321203
8.3180636
8.3224866
8.3052859
8.3039739
8.295385
8.2855877
8.269731
8.2617276
8.2552486
8.2551767
8.2499473
8.2526091
8.2587373
8.231175
8.1708827
8.1945605
8.188597
8.1866452
8.1908104
8.1917858
8.1987273
8.2058215
8.222249
8.2309365
8.240343
8.2410388
8.2586108
8.2532756
8.2565948
8.2572702
8.2706806
8.2679054
8.263157
8.2670118
8.2766939
8.282038
8.2897166
8.2851786
8.288087
8.2788249
8.2773117
8.2674188
8.2313846
8.17733
8.1299794
8.1782156
8.2116525
8.220334
8.2206393
8.2299654
8.2261619
8.2309326
8.2233919
8.217868
8.2093892
8.2049726
8.2097648
8.2116247
8.1993014
8.1975186
8.1950116
8.1996317
8.1830571
8.1816612
8.172701
8.1642253
8.1475228
8.1406548
8.1333861
8.1327151
8.1284328
8.1302141
8.1358827
8.1152982
8.0649539
8.0826301
8.0771582
8.0757026
8.080087
8.0804776
8.0876369
8.0946831
8.1112592
8.1197912
8.1280335
8.130274
8.1458616
8.1424261
8.1442117
8.1466755
8.1576812
8.1569761
8.1520998
8.1570393
8.1644444
8.170289
8.1779121
8.1726826
8.1770328
8.1679896
8.1680767
8.1611899
8.1302919
8.0874286
8.0506804
8.088904
8.1166679
8.1226255
8.1219704
8.1294514
8.1257911
8.1306194
8.1226052
8.1177588
8.1106283
8.1059863
8.1101522
8.1096324
8.1000046
8.0968274
8.0955475
8.0979687
8.0836063
8.0802732
8.0728005
8.063597
8.0484072
8.0405801
8.0341598
8.0328023
8.0295105
8.0308739
8.0358796
8.0191553
7.979456
7.9947437
7.9905231
7.989048
7.9914638
7.9936411
7.9994962
8.0078834
8.0218722
8.031532
8.0386197
8.0429854
8.0557541
8.0542064
8.0551591
8.059068
8.0677233
8.0689244
8.0658611
8.0699487
8.0771607
8.0807392
8.0888234
8.0847102
8.0880351
8.0817661
8.0831614
8.0779618
8.0533163
8.0190082
7.993215
8.0234421
8.0448189
8.0495896
8.0477761
8.0528761
8.0498396
8.05269
8.045645
8.04205
8.0347521
8.0316821
8.0338883
8.0320454
8.0242905
8.0201993
8.0185818
8.0202156
8.0078948
8.0031458
7.9964195
7.9862572
7.9735144
7.9645231
7.9592982
7.9562209
7.9546465
7.9560526
7.9597175
7.9452374
7.9173226
7.9304824
7.9275225
7.9260432
7.9272153
7.9308224
7.9357851
7.9450012
7.956875
7.9671282
7.9735662
7.9790701
7.9905891
7.9889629
7.9912053
7.9953634
8.0023019
8.0047528
8.0035202
8.0057638
8.0131772
8.0165152
8.022766
8.0209534
8.0236798
8.0197082
8.0220143
8.0175702
7.9991492
7.9726324
7.9579688
7.9805042
7.9969864
8.0001583
7.9978842
8.0013461
7.9984
7.9991335
7.9936742
7.9903334
7.9830446
7.9813909
7.9813591
7.9794312
7.9726663
7.9679611
7.9660839
7.9667223
7.9564674
7.9508243
7.9441038
7.9337644
7.922733
7.9133127
7.9085986
7.9044515
7.903591
7.9049813
7.9074565
7.8950432
7.8791636
7.8903005
7.8884287
7.8871322
7.8877067
7.892415
7.8969148
7.9064972
7.9167275
7.9270321
7.9342385
7.9395908
7.9489577
7.9492417
7.9509817
7.9560144
7.9627808
7.9641817
7.9653714
7.9663657
7.9733404
7.9767881
7.9818449
7.9818657
7.9852438
7.9820372
7.9840521
7.9822477
7.9675677
7.9485933
7.9450318
7.9610444
7.9736007
7.9741128
7.9724175
7.9748831
7.9715559
7.9708238
7.9661885
7.9626108
7.9563303
7.9551709
7.9532213
7.9521455
7.9452134
7.9402375
7.9386207
7.9373672
7.9288363
7.9236122
7.9157038
7.9062512
7.8960667
7.8870532
7.8820194
7.8775002
7.8764079
7.8778266
7.8792936
7.8690022
7.8647982
7.8739972
7.8730979
7.8715167
7.8732169
7.8774767
7.8829902
7.8915116
7.901599
7.9104152
7.9185758
7.9239064
7.9318238
7.9338704
7.9354048
7.9403395
7.9472234
7.9481815
7.9504239
7.9521641
7.9577882
7.9615742
7.965798
7.9671298
7.9702212
7.9686816
7.9702113
7.9707205
7.9602776
7.9466531
7.9537505
7.9650261
7.9733233
7.9722033
7.9708941
7.9715265
7.9686936
7.9670962
7.9626545
7.9592965
7.9539225
7.9520689
7.9494494
7.9479198
7.9417543
7.9369558
7.9350832
7.932237
7.9248823
7.9194606
7.9110885
7.902917
7.8931509
7.8848969
7.8791467
7.8745265
7.8728216
7.8741196
7.8746536
7.8665178
7.8739799
7.8809431
7.8806992
7.879731
7.8813981
7.8864017
7.8924143
7.9003264
7.9099129
7.9174298
7.9259237
7.9314427
7.9383955
7.9418509
7.9442147
7.9487884
7.9543859
7.9563319
7.9593912
7.9612303
7.9665557
7.9694123
7.9740559
7.9758923
7.9785672
7.9786883
7.9799801
7.9815041
7.9751045
7.9657452
7.9827868
7.9903229
7.9951092
7.9932697
7.9919757
7.9911331
7.9886035
7.9862971
7.9819951
7.9790571
7.9739754
7.9720747
7.9687389
7.9664141
7.9612955
7.9568547
7.9541329
7.9500971
7.9435129
7.9376562
7.9295745
7.9221081
7.9128948
7.9052316
7.8988726
7.8939866
7.89186
7.8926137
7.8925601
7.8864735
7.9039821
7.9092614
7.9096191
7.9090522
7.9116746
7.9164369
7.9231111
7.9304883
7.9392807
7.9468435
7.9546213
7.9607124
7.9670908
7.971487
7.9746144
7.9788961
7.9836064
7.9862474
7.9898659
7.9917911
7.996572
7.9997289
8.0038307
8.0064414
8.0089723
8.0103349
8.0116871
8.0138225
8.0103886
8.0043213
8.030351
8.035052
8.0373571
8.0351975
8.0335946
8.0317645
8.0292404
8.0263605
8.0224495
8.0190488
8.0145538
8.0123665
8.0086934
8.005985
8.0014049
7.9972109
7.9937912
7.9890788
7.9828916
7.976568
7.9690909
7.9613834
7.9529852
7.945656
7.9390823
7.9340654
7.9313823
7.9313293
7.930788
7.9259729
7.9525765
7.9567569
7.9574526
7.9582553
7.9609873
7.966165
7.9725754
7.9799403
7.9880679
7.9958452
8.0031525
8.0096439
8.0156587
8.0206231
8.024319
8.0284066
8.032972
8.0356569
8.0393003
8.0418276
8.0461559
8.0496825
8.0534608
8.0565883
8.0591089
8.0613403
8.0632584
8.0653761
8.0639736
8.060352
8.0942081
8.0968516
8.0975223
8.0953552
8.0931612
8.0908219
8.0880689
8.0849862
8.0811758
8.0775361
8.0733534
8.0704967
8.0669037
8.0640651
8.0596287
8.0556065
8.0515968
8.0466634
8.0405677
8.0340303
8.0268825
8.0190258
8.0111364
8.0037265
7.9974549
7.992115
7.9892107
7.9878512
7.9869059
7.98326
8.0178865
8.0209967
8.0221451
8.0238961
8.0270726
8.0325186
8.0387139
8.0461253
8.0538661
8.0617514
8.0688202
8.0753618
8.0815328
8.0864244
8.0907192
8.0946575
8.0989396
8.1019895
8.1055925
8.1086917
8.1127623
8.1164991
8.1203878
8.123394
8.126349
8.1287706
8.1310879
8.1333788
8.1333227
8.131436
8.1718412
8.1730608
8.1727196
8.1703695
8.167933
8.1652705
8.1623021
8.1592337
8.1552381
8.1515903
8.1475262
8.1442136
8.1406153
8.1373481
8.1332076
8.1292217
8.1248653
8.1198472
8.1137893
8.1071566
8.1000345
8.0921732
8.0844858
8.0771324
8.0709271
8.0654645
8.0620675
8.0599847
8.0586392
8.0559003
8.0970722
8.099485
8.1010167
8.1033749
8.1070372
8.11244
8.1187325
8.1259786
8.1337027
8.1414851
8.1486592
8.1553557
8.1613301
8.1664259
8.1708535
8.1748521
8.1789156
8.1823404
8.1859526
8.189432
8.1935332
8.1970811
8.2011203
8.2042827
8.2072912
8.2101356
8.2126918
8.2150461
8.2157042
8.2149885
8.2606469
8.2609252
8.2599719
8.2576674
8.2550423
8.2520536
8.2490043
8.2457197
8.2417554
8.2381643
8.2340865
8.2305201
8.2268443
8.2232811
8.2192727
8.2152486
8.2107194
8.2055873
8.1996228
8.1929063
8.1856931
8.1779438
8.1702012
8.1629997
8.1566565
8.1512811
8.1474132
8.1448266
8.1431165
8.1409231
8.2522441
8.2573988
8.2619824
8.2660532
8.2700347
8.2737089
8.2774473
8.2810834
8.2851228
8.2887859
8.2926931
8.2961044
8.2992124
8.3022888
8.3049707
8.3072266
8.3084045
8.3084397
8.3580913
8.3577933
8.3564717
8.3542277
8.3515095
8.3484035
8.3452115
8.3661428
8.316476
8.2686685
8.2230097
8.1797975
8.1393367
8.1019404
8.0679123
8.0375588
8.0111604
7.9889932
7.971291
7.9582764
7.9501441
7.947044
7.9491554
7.9567209
7.9696204
7.9875056
8.0104381
8.0383865
8.0713616
8.1094908
8.1523998
8.199856
8.2516102
8.3069683
8.366206
8.4295106
8.4968917
8.5690901
8.6469908
8.7309888
8.822199
8.8050287
8.9009842
8.9204581
9.0394906
9.0169382
8.9090698
8.7963801
8.7092079
8.6206466
8.5321119
8.4625923
8.5660896
8.5934258
8.6647208
8.7422761
8.8260696
8.9280564
8.8267688
8.8100074
8.7103001
8.6321352
8.7147698
8.726802
8.6428048
8.635216
8.6423839
8.560266
8.5154024
8.5830043
8.6575287
8.7393424
8.8270273
8.9444377
9.0012823
9.1580545
9.1537856
8.9904749
8.90092
8.862841
8.9658057
8.9522569
9.0457898
9.1854035
9.0851494
9.0503588
9.0607893
8.9069151
8.8429521
8.7509072
8.6627025
8.5900138
8.6822707
8.748016
8.8213004
8.9727662
8.889169
8.8212074
8.8331949
8.6619233
8.5865753
8.6517156
8.6252134
8.6965664
8.7749887
8.8081998
8.7240887
8.7762042
8.7902031
8.8718187
8.8576234
8.9446186
8.8868453
8.8014934
8.9662636
8.994741
8.8517295
8.769186
8.7253443
8.8927865
8.9098879
8.8414382
8.6933159
8.6325228
8.6991068
8.7098011
8.7591285
8.7697025
8.755136
8.8388028
8.9292527
9.029133
9.0377446
9.0474345
9.0749352
9.0940898
9.0957877
9.0129817
9.069117
8.9556064
8.9724427
8.9620563
8.8587249
8.8534229
8.8490209
8.9367123
8.942197
8.9840185
8.8819896
8.8720276
8.8510386
8.8204233
8.9085233
8.8822012
8.8950484
8.947998
8.9290291
9.0231922
9.0017583
9.0330811
9.0439024
8.9902569
9.0243805
9.0616811
8.9744778
8.9653527
9.0805448
9.0922928
9.0642494
9.0737911
9.0624414
9.072039
9.0265179
9.036752
8.928588
8.9514018
8.9626169
8.9687282
8.971501
8.8715722
8.8659418
8.8609279
8.8679134
8.9578252
8.953329
8.8549443
8.8491606
8.8284186
8.8340741
8.9224333
8.9152239
9.0120293
9.0273535
9.0357582
9.0419617
9.0893001
9.0532521
8.9664496
8.9964658
8.8815906
8.9755741
8.9295274
8.8259501
8.8135641
8.8394545
8.92536
8.9260431
8.8251575
8.7271783
8.7471038
8.7314427
8.7567465
8.7623763
8.7725411
8.7226695
8.78851
8.7545962
8.7572782
8.6702472
8.6658312
8.6824284
8.6704802
8.7018378
8.7028337
8.7803684
8.7495432
8.6625387
8.6391633
8.6377969
8.6539659
8.6971219
8.6743292
8.6782496
8.7468912
8.8225476
8.8366444
8.8528437
8.8485622
8.933399
8.9065987
8.9725075
9.0635272
9.170958
9.2110161
9.0923993
9.0505589
9.187928
9.202531
9.0839116
8.9742783
8.952289
8.9819697
8.8928244
8.8777834
8.9969219
9.0752346
9.1109506
9.0214367
8.9363157
8.9161155
8.7929911
8.7154144
8.8420851
8.8665269
8.7486324
8.6997164
8.768794
8.7680858
8.7252683
8.8038047
8.8424922
8.9250017
8.9557192
8.8590794
8.7902548
8.7075489
8.7674913
8.7557963
8.6760216
8.6919148
8.7407377
8.7255965
8.7925478
8.8139145
8.8659351
9.0174445
9.0940562
9.1030417
9.0135545
8.8852665
8.8068657
8.9284324
8.9373678
8.8630845
8.8581515
8.8265493
8.7184505
8.6883419
8.6360507
8.6857932
8.7012825
8.7795051
8.7666441
8.6811693
8.6805001
8.6708216
8.6866977
8.7639642
8.7343961
8.6499932
8.6507832
8.6541073
8.6163735
8.6521709
8.7218847
8.7069824
8.7843064
8.8696962
8.9253764
9.0168207
9.0032892
8.9833184
8.9686219
8.9968999
9.0030868
9.0059097
8.8959839
8.8588573
8.8859692
8.7981851
8.8235298
8.8358536
8.7558027
8.732432
8.6564984
8.7196136
8.7837674
8.7839585
8.8552729
8.9350686
9.0247291
9.1245256
9.1018523
9.0283627
9.00279
9.1296052
9.1544309
9.0352382
8.9390706
8.9026127
8.9354443
8.9051221
8.8935163
8.7996342
8.7683269
8.8043554
8.8263878
8.9076967
8.8811424
8.8984502
8.9902328
8.9712702
8.9971067
8.9856013
8.9875553
9.025705
9.0092257
8.967671
8.8578375
8.8760218
8.8736911
8.780631
8.8065761
8.7882313
8.815923
8.8982321
8.9805499
8.9482473
9.0357108
9.1380379
9.129373
9.0690645
9.0889076
9.1438185
9.1757315
9.1000752
8.9911165
8.9798347
8.9199152
8.8238062
8.7831325
8.8637004
8.8710209
8.7826892
8.7817511
8.8663338
8.9498507
8.9123469
8.9155623
9.0121996
9.004324
8.9741287
9.0132828
9.0740178
9.0286343
8.9453843
8.9928865
8.8773389
8.9597946
8.8970326
8.79734
8.8138589
8.8136053
8.7879328
8.8733374
8.9200561
8.8204831
8.8552542
8.7780236
8.7616799
8.84587
8.8070515
8.80073
8.8404774
8.8432708
8.9341287
8.9619534
8.9717272
8.930141
8.890047
8.9250983
8.9808947
8.8958796
8.8936314
9.0087574
9.0330058
8.9943243
9.0226794
8.9786097
8.997992
8.9635829
8.9491275
8.8417659
8.8689249
8.9130506
8.9006592
8.9210726
8.8183098
8.8016446
8.8122748
8.80015
8.8903713
8.8861724
8.7831655
8.7678765
8.7427342
8.7696101
8.8596051
8.8963945
8.9934349
8.927485
8.9330534
8.9867619
8.9732193
8.8712894
8.901575
8.9905862
8.8780719
8.8652212
8.8675016
8.7685008
8.7935426
8.73907
8.8252851
8.8239686
8.7235804
8.6319545
8.6427393
8.6475189
8.6763202
8.7203398
8.7056883
8.6673854
8.7286009
8.692253
8.722089
8.6865572
8.770387
8.7738778
8.7242672
8.7103426
8.6291612
8.6612423
8.6430262
8.6377884
8.6832279
8.6841559
8.604506
8.616975
8.6939982
8.7114025
8.6308042
8.6380685
8.6101009
8.6305557
8.70783
8.7587079
8.6686452
8.6435355
8.5861828
8.6120438
8.689143
8.7175092
8.6333019
8.6259773
8.6351644
8.6329922
8.7099916
8.6804595
8.5973716
8.5915228
8.5683527
8.6061769
8.6822537
8.6977419
8.6084654
8.5623605
8.5470262
8.6002802
8.6773049
8.6840504
8.767472
8.6810227
8.7685614
8.7924014
8.6924361
8.7742137
8.6776383
8.58676
8.5898332
8.5258701
8.5981217
8.6011062
8.5173598
8.4541437
8.4682486
8.5417503
8.5355399
8.5199554
8.5464494
8.59465
8.5707397
8.5676061
8.5685132
8.6011257
8.6102917
8.6131311
8.6258231
8.6231556
8.6547146
8.7241191
8.7226218
8.6862875
8.7094869
8.6351719
8.679854
8.746544
8.7777674
8.7483176
8.8198949
8.8536912
8.9402541
8.961465
9.0365429
9.0151727
9.0289825
8.947196
8.9896734
8.8495828
8.862156
8.9725761
9.0480421
9.0639422
9.2450261
9.2346985
9.2373751
9.2433475
9.2336749
9.2415358
9.2326374
9.2251165
9.2703689
9.1986137
9.2534116
9.3322234
9.7621582
10.403731
11.651099
11.456336
10.353796
9.6918879
9.2767979
9.3505849
9.7338402
10.379748
11.350755
11.314465
11.423809
11.616415
10.351517
9.6795118
9.6170416
9.1711262
9.0918107
9.0323022
9.5259491
9.564707
10.275048
10.305627
11.592225
11.577825
11.573354
10.25008
10.218823
9.4650396
9.0122964
9.065255
9.1262542
9.561044
9.6201097
9.6456048
9.5751757
9.1888386
9.1133984
9.0523149
9.4781062
9.5199659
9.5049985
10.238266
10.268042
10.30672
10.314469
10.266555
11.295889
11.401569
11.382862
11.383075
11.294063
10.209398
10.229951
11.285731
12.7032
12.908669
13.217231
13.187971
13.166449
13.147179
14.717571
15.817388
15.94598
16.07399
16.210317
16.357483
16.514177
16.67524
16.838826
17.004245
17.171588
17.34125
17.513634
17.68917
17.868618
18.052177
18.240563
18.434238
18.633678
18.839713
19.052937
19.273951
19.503389
19.741884
19.990095
20.248715
20.518496
20.800255
21.094833
21.403129
21.72605
22.064456
22.41882
22.789294
23.175035
22.171256
21.803396
21.449576
21.110179
20.785116
20.473989
20.175754
19.889795
19.615478
19.352186
19.09896
18.855161
18.62016
18.393381
18.174218
17.962119
17.756602
17.557305
17.363683
17.175211
16.991439
16.811926
16.636057
16.463525
16.294104
16.127682
15.963892
15.803
15.645778
15.494483
15.353549
15.224034
15.104917
14.98987
14.768074
14.850185
14.935566
15.036833
15.152636
15.281419
15.417892
15.559529
15.705884
15.856849
16.012541
16.17302
16.33836
16.508897
16.684498
16.865499
17.052052
17.244342
17.442923
17.648156
17.860465
18.080325
18.308259
18.544826
18.790633
19.046352
19.312684
19.590276
19.879898
20.182451
20.498696
20.829196
21.175489
21.536956
20.875227
20.517078
20.175021
19.848142
19.535911
19.237605
18.952178
18.678979
18.417164
18.166054
17.925028
17.693533
17.471166
17.25744
17.051631
16.853462
16.66266
16.47888
16.30176
16.130768
15.965789
15.806661
15.652878
15.504412
15.361124
15.22285
15.089391
14.960682
14.83714
14.72103
14.616929
14.526612
14.451925
14.37925
14.525879
14.580581
14.632696
14.700373
14.782085
14.87653
14.977811
15.083174
15.192654
15.306871
15.425854
15.549807
15.679391
15.814882
15.956565
16.104711
16.259883
16.422465
16.592702
16.771126
16.95768
17.152827
17.356934
17.570274
17.793553
18.027464
18.272245
18.528614
18.797191
19.078744
19.374198
19.683939
20.010262
20.352708
19.907168
19.565375
19.240636
18.932098
18.638886
18.360101
18.094528
17.841574
17.600346
17.370353
17.150824
16.941413
16.741741
16.55137
16.369812
16.196671
16.03159
15.874214
15.723779
15.580032
15.442781
15.311907
15.186624
15.066942
14.95261
14.843328
14.738646
14.638224
14.542216
14.452861
14.375046
14.310554
14.261206
14.212352
14.432943
14.471325
14.505787
14.554478
14.615966
14.689196
14.768228
14.850243
14.935573
15.025182
15.11912
15.217691
15.321907
15.432248
15.549161
15.673035
15.804369
15.943466
16.090662
16.246633
16.411138
16.584718
16.767708
16.960264
17.163174
17.377223
17.602594
17.8397
18.089479
18.352711
18.630138
18.922011
19.230475
19.556221
18.903685
18.594618
18.301832
18.02439
17.761364
17.511427
17.274083
17.048402
16.834009
16.630179
16.436685
16.253229
16.079416
15.914775
15.758403
15.610044
15.469522
15.336354
15.210427
15.091608
14.979514
14.873621
14.772976
14.677493
14.58691
14.500805
14.418619
14.340393
14.268342
14.207186
14.158681
14.124429
14.089123
14.314356
14.340848
14.363607
14.400477
14.449948
14.510721
14.577058
14.646095
14.718239
14.794572
14.875081
14.960056
15.050613
15.147278
15.250539
15.360865
15.478644
15.604227
15.738135
15.880626
16.031979
16.193008
16.363627
16.543888
16.734582
16.936472
17.149506
17.374297
17.611333
17.861558
18.125618
18.4036
18.697607
18.478409
18.182373
17.902455
17.637715
17.387238
17.149661
16.924531
16.710667
16.507777
16.315144
16.132666
15.960076
15.796957
15.642314
15.495901
15.357389
15.226576
15.103026
14.986649
14.877345
14.774682
14.67808
14.587085
14.501198
14.419915
14.342723
14.269125
14.199128
14.134895
14.08036
14.037846
14.009087
13.97993
14.211685
14.233401
14.251468
14.283354
14.327722
14.382784
14.443563
14.507451
14.574375
14.645456
14.720641
14.800206
14.885304
14.976389
15.074055
15.178688
15.29059
15.410583