# Force         
# CofR          : (0.00000000e+00 0.00000000e+00 0.00000000e+00)
#
# Time          	(total_x total_y total_z)	(pressure_x pressure_y pressure_z)	(viscous_x viscous_y viscous_z)
1               	(8.89363208e-02 3.23209186e+00 -8.89903516e-02)	(8.85883163e-02 3.22954602e+00 -8.87282678e-02)	(3.48004459e-04 2.54584234e-03 -2.62083760e-04)
2               	(1.17089731e-01 4.19004433e+00 -1.08798679e-01)	(1.16429385e-01 4.18592694e+00 -1.08486565e-01)	(6.60346471e-04 4.11738210e-03 -3.12113921e-04)
3               	(1.13239989e-01 4.46177972e+00 -1.27364044e-01)	(1.12206034e-01 4.45740941e+00 -1.27190680e-01)	(1.03395512e-03 4.37030873e-03 -1.73364058e-04)
4               	(5.95245842e-02 4.10069631e+00 -1.44338154e-01)	(5.83133977e-02 4.09679979e+00 -1.44319748e-01)	(1.21118649e-03 3.89652783e-03 -1.84057521e-05)
5               	(-1.90317903e-03 3.56436746e+00 -1.52126410e-01)	(-3.21689946e-03 3.56108796e+00 -1.52219938e-01)	(1.31372043e-03 3.27949242e-03 9.35278713e-05)
6               	(-1.96189235e-02 3.27067329e+00 -1.45274385e-01)	(-2.10460149e-02 3.26782306e+00 -1.45435266e-01)	(1.42709140e-03 2.85023753e-03 1.60881081e-04)
7               	(1.83698922e-02 3.33198273e+00 -1.26521553e-01)	(1.67721897e-02 3.32933026e+00 -1.26730476e-01)	(1.59770250e-03 2.65246872e-03 2.08922265e-04)
8               	(7.79003169e-02 3.58671943e+00 -1.08415007e-01)	(7.61013142e-02 3.58411419e+00 -1.08664381e-01)	(1.79900278e-03 2.60523817e-03 2.49373367e-04)
9               	(1.13933350e-01 3.80376611e+00 -1.03430964e-01)	(1.11945589e-01 3.80113753e+00 -1.03714308e-01)	(1.98776164e-03 2.62857874e-03 2.83344148e-04)
10              	(1.07135275e-01 3.85525039e+00 -1.12470800e-01)	(1.04980744e-01 3.85258358e+00 -1.12784708e-01)	(2.15453040e-03 2.66680910e-03 3.13908231e-04)
11              	(7.28847622e-02 3.76484803e+00 -1.25952487e-01)	(7.05544303e-02 3.76216278e+00 -1.26304203e-01)	(2.33033184e-03 2.68524714e-03 3.51716267e-04)
12              	(4.17803535e-02 3.64123396e+00 -1.33298293e-01)	(3.92138406e-02 3.63857539e+00 -1.33710701e-01)	(2.56651285e-03 2.65856648e-03 4.12407952e-04)
13              	(3.40212187e-02 3.57815581e+00 -1.30422019e-01)	(3.11193027e-02 3.57558934e+00 -1.30928486e-01)	(2.90191598e-03 2.56647594e-03 5.06466491e-04)
14              	(4.89276621e-02 3.59672794e+00 -1.20904071e-01)	(4.55721616e-02 3.59433580e+00 -1.21543446e-01)	(3.35550046e-03 2.39213669e-03 6.39374396e-04)
15              	(7.14128121e-02 3.65961193e+00 -1.11723026e-01)	(6.74996452e-02 3.65747979e+00 -1.12526806e-01)	(3.91316695e-03 2.13213541e-03 8.03780174e-04)
16              	(8.64108569e-02 3.71414433e+00 -1.07811014e-01)	(8.18233065e-02 3.71236489e+00 -1.08815580e-01)	(4.58755039e-03 1.77943356e-03 1.00456602e-03)
17              	(8.82980974e-02 3.73052223e+00 -1.09140084e-01)	(8.29542985e-02 3.72917163e+00 -1.10368573e-01)	(5.34379890e-03 1.35060699e-03 1.22848859e-03)
18              	(8.15284337e-02 3.71242116e+00 -1.12281295e-01)	(7.53315528e-02 3.71157149e+00 -1.13761707e-01)	(6.19688088e-03 8.49677472e-04 1.48041146e-03)
19              	(7.46333996e-02 3.68381033e+00 -1.13804134e-01)	(6.75616274e-02 3.68350586e+00 -1.15534137e-01)	(7.07177222e-03 3.04466621e-04 1.73000339e-03)
20              	(7.34459281e-02 3.66671042e+00 -1.12447497e-01)	(6.55340613e-02 3.66697678e+00 -1.14398210e-01)	(7.91186680e-03 -2.66363882e-04 1.95071336e-03)
21              	(7.83141599e-02 3.66796940e+00 -1.09182534e-01)	(6.96005817e-02 3.66880293e+00 -1.11325945e-01)	(8.71357821e-03 -8.33535944e-04 2.14341136e-03)
22              	(8.55544706e-02 3.68042168e+00 -1.06048186e-01)	(7.63152525e-02 3.68174251e+00 -1.08270822e-01)	(9.23921808e-03 -1.32083028e-03 2.22263557e-03)
23              	(9.12227415e-02 3.69246834e+00 -1.04332718e-01)	(8.18433805e-02 3.69411709e+00 -1.06483538e-01)	(9.37936106e-03 -1.64875224e-03 2.15081955e-03)
24              	(9.35968567e-02 3.69649990e+00 -1.03986856e-01)	(8.43823649e-02 3.69831167e+00 -1.05948018e-01)	(9.21449186e-03 -1.81176555e-03 1.96116236e-03)
25              	(9.33253197e-02 3.69240753e+00 -1.04203383e-01)	(8.43508682e-02 3.69432309e+00 -1.05929428e-01)	(8.97445154e-03 -1.91555349e-03 1.72604458e-03)
26              	(9.20809950e-02 3.68530449e+00 -1.04248634e-01)	(8.33865893e-02 3.68727076e+00 -1.05719617e-01)	(8.69440574e-03 -1.96626286e-03 1.47098239e-03)
27              	(9.13617089e-02 3.68039567e+00 -1.03819505e-01)	(8.30003876e-02 3.68241528e+00 -1.05085921e-01)	(8.36132123e-03 -2.01961512e-03 1.26641612e-03)
28              	(9.16776590e-02 3.67970637e+00 -1.03106708e-01)	(8.37001298e-02 3.68177444e+00 -1.04213178e-01)	(7.97752920e-03 -2.06807177e-03 1.10647037e-03)
29              	(9.26721283e-02 3.68178272e+00 -1.02469652e-01)	(8.51230700e-02 3.68390045e+00 -1.03427857e-01)	(7.54905828e-03 -2.11773323e-03 9.58204730e-04)
30              	(9.35992893e-02 3.68368615e+00 -1.02170037e-01)	(8.65641756e-02 3.68583778e+00 -1.02901260e-01)	(7.03511376e-03 -2.15162539e-03 7.31222953e-04)
31              	(9.39382013e-02 3.68343733e+00 -1.02071414e-01)	(8.75249016e-02 3.68557162e+00 -1.02523715e-01)	(6.41329971e-03 -2.13429706e-03 4.52301037e-04)
32              	(9.37372755e-02 3.68112039e+00 -1.01921650e-01)	(8.79859013e-02 3.68321293e+00 -1.02114884e-01)	(5.75137423e-03 -2.09253164e-03 1.93234004e-04)
33              	(9.33085043e-02 3.67834981e+00 -1.01544188e-01)	(8.82438874e-02 3.68036447e+00 -1.01503629e-01)	(5.06461691e-03 -2.01466150e-03 -4.05594332e-05)
34              	(9.30582857e-02 3.67667311e+00 -1.00931952e-01)	(8.86548082e-02 3.67860769e+00 -1.00702520e-01)	(4.40347746e-03 -1.93457803e-03 -2.29431911e-04)
35              	(9.31397295e-02 3.67660765e+00 -1.00278230e-01)	(8.93656456e-02 3.67847902e+00 -9.98710356e-02)	(3.77408388e-03 -1.87136527e-03 -4.07194474e-04)
36              	(9.34685315e-02 3.67753857e+00 -9.97267658e-02)	(9.02660907e-02 3.67938705e+00 -9.91649897e-02)	(3.20244084e-03 -1.84848357e-03 -5.61776065e-04)
37              	(9.37788400e-02 3.67842261e+00 -9.93554060e-02)	(9.11340610e-02 3.68024467e+00 -9.86353515e-02)	(2.64477902e-03 -1.82206259e-03 -7.20054535e-04)
38              	(9.39035893e-02 3.67846782e+00 -9.91147993e-02)	(9.18064486e-02 3.68025920e+00 -9.82097114e-02)	(2.09714066e-03 -1.79137362e-03 -9.05087847e-04)
39              	(9.38146336e-02 3.67758080e+00 -9.88649491e-02)	(9.22565411e-02 3.67932623e+00 -9.77703287e-02)	(1.55809259e-03 -1.74542976e-03 -1.09462034e-03)
40              	(9.36128805e-02 3.67623244e+00 -9.84666855e-02)	(9.25844092e-02 3.67791895e+00 -9.72271589e-02)	(1.02847137e-03 -1.68650483e-03 -1.23952664e-03)
41              	(9.34136166e-02 3.67506864e+00 -9.79826526e-02)	(9.29132673e-02 3.67667820e+00 -9.65888268e-02)	(5.00349258e-04 -1.60956927e-03 -1.39382575e-03)
42              	(9.32861680e-02 3.67442748e+00 -9.74776526e-02)	(9.33098643e-02 3.67595054e+00 -9.59152683e-02)	(-2.36962656e-05 -1.52305977e-03 -1.56238434e-03)
43              	(9.32223216e-02 3.67421154e+00 -9.69749667e-02)	(9.37620471e-02 3.67564525e+00 -9.52552314e-02)	(-5.39725458e-04 -1.43371527e-03 -1.71973536e-03)
44              	(9.31718638e-02 3.67406336e+00 -9.64968367e-02)	(9.42128579e-02 3.67541597e+00 -9.46241837e-02)	(-1.04099408e-03 -1.35261670e-03 -1.87265293e-03)
45              	(9.30790293e-02 3.67368196e+00 -9.60411556e-02)	(9.46106724e-02 3.67495558e+00 -9.40180696e-02)	(-1.53164317e-03 -1.27362193e-03 -2.02308600e-03)
46              	(9.29286041e-02 3.67300743e+00 -9.55748973e-02)	(9.49411294e-02 3.67419295e+00 -9.34027385e-02)	(-2.01252528e-03 -1.18552078e-03 -2.17215875e-03)
47              	(9.27375676e-02 3.67222612e+00 -9.50661347e-02)	(9.52233743e-02 3.67329033e+00 -9.27438207e-02)	(-2.48580668e-03 -1.06420925e-03 -2.32231408e-03)
48              	(9.25414334e-02 3.67158288e+00 -9.45133837e-02)	(9.54916031e-02 3.67249652e+00 -9.20418476e-02)	(-2.95016967e-03 -9.13633544e-04 -2.47153613e-03)
49              	(9.23649838e-02 3.67123548e+00 -9.39407112e-02)	(9.57691611e-02 3.67197522e+00 -9.13167804e-02)	(-3.40417726e-03 -7.39735720e-04 -2.62393077e-03)
50              	(9.22081675e-02 3.67118358e+00 -9.33611641e-02)	(9.60552266e-02 3.67172296e+00 -9.05989197e-02)	(-3.84705908e-03 -5.39379224e-04 -2.76224434e-03)
51              	(9.20524580e-02 3.67126696e+00 -9.28064381e-02)	(9.63323901e-02 3.67158224e+00 -8.99093617e-02)	(-4.27993205e-03 -3.15273377e-04 -2.89707638e-03)
52              	(9.18807259e-02 3.67129479e+00 -9.22688904e-02)	(9.65841505e-02 3.67136163e+00 -8.92428495e-02)	(-4.70342451e-03 -6.68352656e-05 -3.02604097e-03)
53              	(9.16883497e-02 3.67117105e+00 -9.17297525e-02)	(9.68063254e-02 3.67095773e+00 -8.85820614e-02)	(-5.11797563e-03 2.13315131e-04 -3.14769107e-03)
54              	(9.14868809e-02 3.67092075e+00 -9.11703442e-02)	(9.70085208e-02 3.67040264e+00 -8.79110445e-02)	(-5.52163995e-03 5.18104428e-04 -3.25929970e-03)
55              	(9.12937066e-02 3.67069060e+00 -9.05923828e-02)	(9.72033418e-02 3.66983835e+00 -8.72304601e-02)	(-5.90963514e-03 8.52247960e-04 -3.36192271e-03)
56              	(9.11138143e-02 3.67063960e+00 -9.00165658e-02)	(9.73984773e-02 3.66941946e+00 -8.65568666e-02)	(-6.28466296e-03 1.22014156e-03 -3.45969920e-03)
57              	(9.09444076e-02 3.67084769e+00 -8.94605000e-02)	(9.75935743e-02 3.66922659e+00 -8.59034035e-02)	(-6.64916674e-03 1.62110209e-03 -3.55709656e-03)
58              	(9.07798987e-02 3.67127833e+00 -8.89227794e-02)	(9.77819251e-02 3.66922505e+00 -8.52698574e-02)	(-7.00202638e-03 2.05327885e-03 -3.65292192e-03)
59              	(9.06120031e-02 3.67181479e+00 -8.83994257e-02)	(9.79550879e-02 3.66929973e+00 -8.46555112e-02)	(-7.34308476e-03 2.51505900e-03 -3.74391450e-03)
60              	(9.04353734e-02 3.67233353e+00 -8.78909989e-02)	(9.81080268e-02 3.66932910e+00 -8.40601564e-02)	(-7.67265344e-03 3.00442997e-03 -3.83084249e-03)
61              	(9.02515882e-02 3.67277739e+00 -8.73956426e-02)	(9.82420812e-02 3.66925447e+00 -8.34794593e-02)	(-7.99049298e-03 3.52291560e-03 -3.91618329e-03)
62              	(9.00679461e-02 3.67315624e+00 -8.69067963e-02)	(9.83632583e-02 3.66908843e+00 -8.29089235e-02)	(-8.29531214e-03 4.06781155e-03 -3.99787283e-03)
63              	(8.98920238e-02 3.67353171e+00 -8.64233199e-02)	(9.84771070e-02 3.66889322e+00 -8.23497765e-02)	(-8.58508325e-03 4.63849011e-03 -4.07354342e-03)
64              	(8.97232708e-02 3.67397577e+00 -8.59567260e-02)	(9.85861174e-02 3.66873791e+00 -8.18071570e-02)	(-8.86284654e-03 5.23786371e-03 -4.14956895e-03)
65              	(8.95605559e-02 3.67452455e+00 -8.55115198e-02)	(9.86888749e-02 3.66865870e+00 -8.12857237e-02)	(-9.12831896e-03 5.86585068e-03 -4.22579613e-03)
66              	(8.94025020e-02 3.67517087e+00 -8.50864195e-02)	(9.87827540e-02 3.66865168e+00 -8.07859133e-02)	(-9.38025195e-03 6.51919099e-03 -4.30050613e-03)
67              	(8.92456360e-02 3.67589559e+00 -8.46850536e-02)	(9.88657366e-02 3.66869637e+00 -8.03072684e-02)	(-9.62010064e-03 7.19922210e-03 -4.37778512e-03)
68              	(8.90905604e-02 3.67667592e+00 -8.43032332e-02)	(9.89380395e-02 3.66877123e+00 -7.98471726e-02)	(-9.84747904e-03 7.90469019e-03 -4.45606062e-03)
69              	(8.89380072e-02 3.67750177e+00 -8.39420034e-02)	(9.90011460e-02 3.66886686e+00 -7.94040248e-02)	(-1.00631387e-02 8.63490502e-03 -4.53797866e-03)
70              	(8.87896996e-02 3.67837580e+00 -8.35977568e-02)	(9.90567342e-02 3.66898810e+00 -7.89754394e-02)	(-1.02670345e-02 9.38770422e-03 -4.62231739e-03)
71              	(8.86475516e-02 3.67930160e+00 -8.32680460e-02)	(9.91064424e-02 3.66913779e+00 -7.85585887e-02)	(-1.04588908e-02 1.01638118e-02 -4.70945725e-03)
72              	(8.85134656e-02 3.68026259e+00 -8.29527063e-02)	(9.91506876e-02 3.66930323e+00 -7.81522423e-02)	(-1.06372220e-02 1.09593594e-02 -4.80046409e-03)
73              	(8.83865765e-02 3.68123245e+00 -8.26458639e-02)	(9.91899760e-02 3.66946184e+00 -7.77553952e-02)	(-1.08033995e-02 1.17706151e-02 -4.89046863e-03)
74              	(8.82656636e-02 3.68219419e+00 -8.23520883e-02)	(9.92246343e-02 3.66959493e+00 -7.73693196e-02)	(-1.09589707e-02 1.25992592e-02 -4.98276869e-03)
75              	(8.81495189e-02 3.68313452e+00 -8.20751485e-02)	(9.92545331e-02 3.66969636e+00 -7.69972148e-02)	(-1.11050142e-02 1.34381618e-02 -5.07793366e-03)
76              	(8.80387722e-02 3.68407481e+00 -8.18156372e-02)	(9.92808942e-02 3.66978910e+00 -7.66397928e-02)	(-1.12421220e-02 1.42857116e-02 -5.17584433e-03)
77              	(8.79346732e-02 3.68505802e+00 -8.15703408e-02)	(9.93042036e-02 3.66991270e+00 -7.62958065e-02)	(-1.13695304e-02 1.51453226e-02 -5.27453432e-03)
78              	(8.78363964e-02 3.68610480e+00 -8.13298569e-02)	(9.93243353e-02 3.67010200e+00 -7.59632168e-02)	(-1.14879389e-02 1.60027939e-02 -5.36664016e-03)
79              	(8.77453829e-02 3.68724718e+00 -8.10961153e-02)	(9.93422111e-02 3.67037969e+00 -7.56396817e-02)	(-1.15968282e-02 1.68674883e-02 -5.45643351e-03)
80              	(8.76631966e-02 3.68846099e+00 -8.08695646e-02)	(9.93587604e-02 3.67073307e+00 -7.53247856e-02)	(-1.16955638e-02 1.77279202e-02 -5.54477891e-03)
81              	(8.75885985e-02 3.68969931e+00 -8.06469674e-02)	(9.93733061e-02 3.67112007e+00 -7.50185754e-02)	(-1.17847076e-02 1.85792455e-02 -5.62839197e-03)
82              	(8.75191524e-02 3.69090945e+00 -8.04215667e-02)	(9.93853248e-02 3.67149654e+00 -7.47213951e-02)	(-1.18661724e-02 1.94129086e-02 -5.70017163e-03)
83              	(8.74559082e-02 3.69208422e+00 -8.02009583e-02)	(9.93954354e-02 3.67183849e+00 -7.44324581e-02)	(-1.19395272e-02 2.02457287e-02 -5.76850025e-03)
84              	(8.74005854e-02 3.69321661e+00 -7.99760422e-02)	(9.94035395e-02 3.67214063e+00 -7.41499181e-02)	(-1.20029542e-02 2.10759830e-02 -5.82612412e-03)
85              	(8.73493944e-02 3.69431249e+00 -7.97421373e-02)	(9.94096793e-02 3.67241596e+00 -7.38707838e-02)	(-1.20602849e-02 2.18965328e-02 -5.87135353e-03)
86              	(8.73016143e-02 3.69538420e+00 -7.94937012e-02)	(9.94146621e-02 3.67269120e+00 -7.35946846e-02)	(-1.21130477e-02 2.26930069e-02 -5.89901654e-03)
87              	(8.72577143e-02 3.69646228e+00 -7.92399262e-02)	(9.94200346e-02 3.67299758e+00 -7.33220384e-02)	(-1.21623203e-02 2.34646997e-02 -5.91788778e-03)
88              	(8.72167926e-02 3.69756415e+00 -7.89733290e-02)	(9.94266505e-02 3.67335437e+00 -7.30549303e-02)	(-1.22098579e-02 2.42097785e-02 -5.91839874e-03)
89              	(8.71814717e-02 3.69869298e+00 -7.86871800e-02)	(9.94351263e-02 3.67376389e+00 -7.27940506e-02)	(-1.22536546e-02 2.49290930e-02 -5.89312940e-03)
90              	(8.71535428e-02 3.69985400e+00 -7.83845056e-02)	(9.94451018e-02 3.67420852e+00 -7.25370912e-02)	(-1.22915590e-02 2.56454851e-02 -5.84741445e-03)
91              	(8.71291815e-02 3.70100319e+00 -7.80556163e-02)	(9.94547804e-02 3.67465067e+00 -7.22808023e-02)	(-1.23255989e-02 2.63525184e-02 -5.77481400e-03)
92              	(8.71061679e-02 3.70210891e+00 -7.76901488e-02)	(9.94634035e-02 3.67506379e+00 -7.20249305e-02)	(-1.23572356e-02 2.70451119e-02 -5.66521836e-03)
93              	(8.70846432e-02 3.70316595e+00 -7.73022174e-02)	(9.94724540e-02 3.67545126e+00 -7.17701978e-02)	(-1.23878108e-02 2.77146853e-02 -5.53201965e-03)
94              	(8.70665051e-02 3.70418843e+00 -7.68909756e-02)	(9.94842124e-02 3.67583560e+00 -7.15169919e-02)	(-1.24177073e-02 2.83528323e-02 -5.37398369e-03)
95              	(8.70569877e-02 3.70521424e+00 -7.64699151e-02)	(9.95012988e-02 3.67624076e+00 -7.12652094e-02)	(-1.24443112e-02 2.89734821e-02 -5.20470570e-03)
96              	(8.70565298e-02 3.70625168e+00 -7.60469270e-02)	(9.95227917e-02 3.67666764e+00 -7.10142567e-02)	(-1.24662619e-02 2.95840402e-02 -5.03267036e-03)
97              	(8.70614355e-02 3.70728752e+00 -7.56188607e-02)	(9.95450938e-02 3.67710127e+00 -7.07628510e-02)	(-1.24836583e-02 3.01862444e-02 -4.85600972e-03)
98              	(8.70641950e-02 3.70829137e+00 -7.51869299e-02)	(9.95652197e-02 3.67752453e+00 -7.05091952e-02)	(-1.25010247e-02 3.07668433e-02 -4.67773469e-03)
99              	(8.70664561e-02 3.70926890e+00 -7.47471977e-02)	(9.95835017e-02 3.67793454e+00 -7.02500121e-02)	(-1.25170457e-02 3.13343645e-02 -4.49718557e-03)
100             	(8.70697547e-02 3.71022275e+00 -7.42965818e-02)	(9.96017584e-02 3.67833482e+00 -6.99846539e-02)	(-1.25320037e-02 3.18879279e-02 -4.31192788e-03)
101             	(8.70789283e-02 3.71116843e+00 -7.38437985e-02)	(9.96222444e-02 3.67873072e+00 -6.97143688e-02)	(-1.25433161e-02 3.24377128e-02 -4.12942974e-03)
102             	(8.70925264e-02 3.71209683e+00 -7.33907792e-02)	(9.96450621e-02 3.67912056e+00 -6.94404748e-02)	(-1.25525356e-02 3.29762700e-02 -3.95030436e-03)
103             	(8.71033863e-02 3.71299052e+00 -7.29311727e-02)	(9.96695408e-02 3.67950195e+00 -6.91637976e-02)	(-1.25661545e-02 3.34885643e-02 -3.76737512e-03)
104             	(8.71185638e-02 3.71387470e+00 -7.24714121e-02)	(9.96957881e-02 3.67987953e+00 -6.88837263e-02)	(-1.25772244e-02 3.39951673e-02 -3.58768574e-03)
105             	(8.71358126e-02 3.71474861e+00 -7.20104437e-02)	(9.97232526e-02 3.68025548e+00 -6.86001374e-02)	(-1.25874401e-02 3.44931352e-02 -3.41030629e-03)
106             	(8.71555692e-02 3.71561537e+00 -7.15509202e-02)	(9.97515705e-02 3.68063121e+00 -6.83137377e-02)	(-1.25960013e-02 3.49841667e-02 -3.23718249e-03)
107             	(8.71756999e-02 3.71647161e+00 -7.10953028e-02)	(9.97803757e-02 3.68100434e+00 -6.80266964e-02)	(-1.26046757e-02 3.54672687e-02 -3.06860636e-03)
108             	(8.71923393e-02 3.71731006e+00 -7.06446774e-02)	(9.98092222e-02 3.68136792e+00 -6.77406211e-02)	(-1.26168829e-02 3.59421381e-02 -2.90405630e-03)
109             	(8.72106745e-02 3.71812456e+00 -7.02021128e-02)	(9.98383289e-02 3.68171919e+00 -6.74567458e-02)	(-1.26276543e-02 3.64053660e-02 -2.74536704e-03)
110             	(8.72291832e-02 3.71891221e+00 -6.97655778e-02)	(9.98681419e-02 3.68205790e+00 -6.71746201e-02)	(-1.26389587e-02 3.68543100e-02 -2.59095768e-03)
111             	(8.72493493e-02 3.71968015e+00 -6.93349646e-02)	(9.98995565e-02 3.68238896e+00 -6.68930062e-02)	(-1.26502072e-02 3.72911852e-02 -2.44195847e-03)
112             	(8.72718954e-02 3.72043641e+00 -6.89087236e-02)	(9.99328115e-02 3.68271791e+00 -6.66113252e-02)	(-1.26609161e-02 3.77184996e-02 -2.29739833e-03)
113             	(8.72966323e-02 3.72118354e+00 -6.84881486e-02)	(9.99670000e-02 3.68304332e+00 -6.63313747e-02)	(-1.26703677e-02 3.81402212e-02 -2.15677383e-03)
114             	(8.73194103e-02 3.72190823e+00 -6.80751817e-02)	(1.00001064e-01 3.68336136e+00 -6.60555102e-02)	(-1.26816537e-02 3.85468688e-02 -2.01967148e-03)
115             	(8.73413628e-02 3.72261426e+00 -6.76685487e-02)	(1.00035328e-01 3.68367338e+00 -6.57845939e-02)	(-1.26939657e-02 3.89408729e-02 -1.88395484e-03)
116             	(8.73641099e-02 3.72330290e+00 -6.72737872e-02)	(1.00070573e-01 3.68398140e+00 -6.55193372e-02)	(-1.27064628e-02 3.93215054e-02 -1.75444995e-03)
117             	(8.73898187e-02 3.72398229e+00 -6.68889953e-02)	(1.00107328e-01 3.68428734e+00 -6.52595926e-02)	(-1.27175090e-02 3.96949457e-02 -1.62940270e-03)
118             	(8.74173081e-02 3.72465025e+00 -6.65128327e-02)	(1.00145162e-01 3.68458901e+00 -6.50047924e-02)	(-1.27278541e-02 4.00612372e-02 -1.50804030e-03)
119             	(8.74438999e-02 3.72529674e+00 -6.61474271e-02)	(1.00183215e-01 3.68488222e+00 -6.47551746e-02)	(-1.27393150e-02 4.04145148e-02 -1.39225255e-03)
120             	(8.74717460e-02 3.72592966e+00 -6.57920280e-02)	(1.00221343e-01 3.68516640e+00 -6.45117684e-02)	(-1.27495970e-02 4.07632594e-02 -1.28025958e-03)
121             	(8.74999262e-02 3.72654485e+00 -6.54488577e-02)	(1.00259285e-01 3.68544038e+00 -6.42753669e-02)	(-1.27593588e-02 4.11044747e-02 -1.17349079e-03)
122             	(8.75270232e-02 3.72713945e+00 -6.51149134e-02)	(1.00296946e-01 3.68570391e+00 -6.40452817e-02)	(-1.27699224e-02 4.14355410e-02 -1.06963165e-03)
123             	(8.75538671e-02 3.72771635e+00 -6.47893105e-02)	(1.00334480e-01 3.68595919e+00 -6.38216459e-02)	(-1.27806125e-02 4.17571588e-02 -9.67664580e-04)
124             	(8.75805574e-02 3.72827881e+00 -6.44762734e-02)	(1.00372063e-01 3.68620842e+00 -6.36048069e-02)	(-1.27915059e-02 4.20703934e-02 -8.71466550e-04)
125             	(8.76064584e-02 3.72882242e+00 -6.41781257e-02)	(1.00409348e-01 3.68645088e+00 -6.33960786e-02)	(-1.28028892e-02 4.23715319e-02 -7.82047131e-04)
126             	(8.76321154e-02 3.72934963e+00 -6.38921102e-02)	(1.00446673e-01 3.68668727e+00 -6.31948883e-02)	(-1.28145580e-02 4.26623654e-02 -6.97221917e-04)
127             	(8.76580037e-02 3.72986353e+00 -6.36188354e-02)	(1.00484326e-01 3.68691798e+00 -6.29999125e-02)	(-1.28263225e-02 4.29455531e-02 -6.18922860e-04)
128             	(8.76837448e-02 3.73036297e+00 -6.33557159e-02)	(1.00521960e-01 3.68714165e+00 -6.28108561e-02)	(-1.28382149e-02 4.32213213e-02 -5.44859844e-04)
129             	(8.77094153e-02 3.73084764e+00 -6.31033323e-02)	(1.00559385e-01 3.68735785e+00 -6.26277496e-02)	(-1.28499695e-02 4.34897905e-02 -4.75582655e-04)
130             	(8.77328543e-02 3.73131404e+00 -6.28640117e-02)	(1.00596384e-01 3.68756713e+00 -6.24506291e-02)	(-1.28635294e-02 4.37469070e-02 -4.13382553e-04)
131             	(8.77548209e-02 3.73176397e+00 -6.26355665e-02)	(1.00633489e-01 3.68777152e+00 -6.22791635e-02)	(-1.28786683e-02 4.39924486e-02 -3.56402983e-04)
132             	(8.77776090e-02 3.73220312e+00 -6.24184728e-02)	(1.00671225e-01 3.68797192e+00 -6.21134064e-02)	(-1.28936158e-02 4.42312011e-02 -3.05066410e-04)
133             	(8.78014622e-02 3.73263197e+00 -6.22113707e-02)	(1.00709320e-01 3.68816702e+00 -6.19535187e-02)	(-1.29078581e-02 4.44649474e-02 -2.57851981e-04)
134             	(8.78256735e-02 3.73304963e+00 -6.20138854e-02)	(1.00747175e-01 3.68835579e+00 -6.17990537e-02)	(-1.29215015e-02 4.46938427e-02 -2.14831719e-04)
135             	(8.78484399e-02 3.73345265e+00 -6.18253143e-02)	(1.00784112e-01 3.68853714e+00 -6.16497921e-02)	(-1.29356722e-02 4.49155067e-02 -1.75522222e-04)
136             	(8.78701945e-02 3.73384266e+00 -6.16442875e-02)	(1.00819794e-01 3.68871074e+00 -6.15061830e-02)	(-1.29495996e-02 4.51319172e-02 -1.38104441e-04)
137             	(8.78899983e-02 3.73421758e+00 -6.14765536e-02)	(1.00854317e-01 3.68887709e+00 -6.13687108e-02)	(-1.29643188e-02 4.53404892e-02 -1.07842778e-04)
138             	(8.79086891e-02 3.73457878e+00 -6.13233515e-02)	(1.00888235e-01 3.68903757e+00 -6.12370258e-02)	(-1.29795456e-02 4.55412151e-02 -8.63257027e-05)
139             	(8.79264869e-02 3.73492792e+00 -6.11834310e-02)	(1.00922125e-01 3.68919405e+00 -6.11100125e-02)	(-1.29956378e-02 4.57338758e-02 -7.34184596e-05)
140             	(8.79435983e-02 3.73526592e+00 -6.10555299e-02)	(1.00956276e-01 3.68934735e+00 -6.09868139e-02)	(-1.30126777e-02 4.59185668e-02 -6.87160115e-05)
141             	(8.79622922e-02 3.73559894e+00 -6.09333378e-02)	(1.00990608e-01 3.68949758e+00 -6.08671877e-02)	(-1.30283160e-02 4.61013587e-02 -6.61500406e-05)
142             	(8.79819797e-02 3.73592623e+00 -6.08152620e-02)	(1.01024158e-01 3.68964285e+00 -6.07520142e-02)	(-1.30421780e-02 4.62833771e-02 -6.32478255e-05)
143             	(8.80004922e-02 3.73624332e+00 -6.07067018e-02)	(1.01055854e-01 3.68978112e+00 -6.06424020e-02)	(-1.30553620e-02 4.64622064e-02 -6.42998527e-05)
144             	(8.80176304e-02 3.73655042e+00 -6.06079255e-02)	(1.01085526e-01 3.68991212e+00 -6.05386269e-02)	(-1.30678953e-02 4.66382960e-02 -6.92985263e-05)
145             	(8.80340771e-02 3.73684840e+00 -6.05170146e-02)	(1.01113786e-01 3.69003708e+00 -6.04399311e-02)	(-1.30797086e-02 4.68113158e-02 -7.70835445e-05)
146             	(8.80508850e-02 3.73713983e+00 -6.04310715e-02)	(1.01141275e-01 3.69015717e+00 -6.03454679e-02)	(-1.30903902e-02 4.69826557e-02 -8.56035931e-05)
147             	(8.80684380e-02 3.73742526e+00 -6.03490988e-02)	(1.01168295e-01 3.69027291e+00 -6.02545342e-02)	(-1.30998571e-02 4.71523565e-02 -9.45646876e-05)
148             	(8.80866181e-02 3.73770482e+00 -6.02700805e-02)	(1.01194711e-01 3.69038434e+00 -6.01670337e-02)	(-1.31080927e-02 4.73204881e-02 -1.03046740e-04)
149             	(8.81048393e-02 3.73797761e+00 -6.01956957e-02)	(1.01220202e-01 3.69049109e+00 -6.00832155e-02)	(-1.31153627e-02 4.74865266e-02 -1.12480254e-04)
150             	(8.81227305e-02 3.73824350e+00 -6.01251984e-02)	(1.01244417e-01 3.69059299e+00 -6.00032805e-02)	(-1.31216865e-02 4.76505095e-02 -1.21917906e-04)
151             	(8.81399632e-02 3.73850212e+00 -6.00592702e-02)	(1.01267250e-01 3.69069022e+00 -5.99274430e-02)	(-1.31272866e-02 4.78118995e-02 -1.31827211e-04)
152             	(8.81570030e-02 3.73875477e+00 -5.99977335e-02)	(1.01288947e-01 3.69078324e+00 -5.98556755e-02)	(-1.31319440e-02 4.79715297e-02 -1.42057922e-04)
153             	(8.81741369e-02 3.73900175e+00 -5.99393963e-02)	(1.01309824e-01 3.69087238e+00 -5.97875732e-02)	(-1.31356876e-02 4.81293656e-02 -1.51823170e-04)
154             	(8.81912861e-02 3.73924284e+00 -5.98835159e-02)	(1.01329896e-01 3.69095762e+00 -5.97227747e-02)	(-1.31386094e-02 4.82852140e-02 -1.60741169e-04)
155             	(8.82082160e-02 3.73947762e+00 -5.98302032e-02)	(1.01349014e-01 3.69103894e+00 -5.96609249e-02)	(-1.31407980e-02 4.84386799e-02 -1.69278225e-04)
156             	(8.82247847e-02 3.73970623e+00 -5.97796295e-02)	(1.01367054e-01 3.69111629e+00 -5.96018411e-02)	(-1.31422694e-02 4.85899353e-02 -1.77788457e-04)
157             	(8.82406921e-02 3.73992835e+00 -5.97314430e-02)	(1.01383822e-01 3.69118939e+00 -5.95456513e-02)	(-1.31431300e-02 4.87389622e-02 -1.85791673e-04)
158             	(8.82560133e-02 3.74014397e+00 -5.96861141e-02)	(1.01399419e-01 3.69125848e+00 -5.94924922e-02)	(-1.31434057e-02 4.88854904e-02 -1.93621879e-04)
159             	(8.82709731e-02 3.74035379e+00 -5.96436528e-02)	(1.01414073e-01 3.69132405e+00 -5.94422732e-02)	(-1.31430996e-02 4.90297439e-02 -2.01379562e-04)
160             	(8.82858238e-02 3.74055860e+00 -5.96033796e-02)	(1.01428070e-01 3.69138680e+00 -5.93945085e-02)	(-1.31422466e-02 4.91717922e-02 -2.08871069e-04)
161             	(8.83005798e-02 3.74075850e+00 -5.95650883e-02)	(1.01441483e-01 3.69144700e+00 -5.93489105e-02)	(-1.31409036e-02 4.93115033e-02 -2.16177791e-04)
162             	(8.83152244e-02 3.74095345e+00 -5.95285535e-02)	(1.01454334e-01 3.69150476e+00 -5.93051083e-02)	(-1.31391092e-02 4.94486894e-02 -2.23445199e-04)
163             	(8.83299055e-02 3.74114398e+00 -5.94929151e-02)	(1.01466733e-01 3.69156038e+00 -5.92626633e-02)	(-1.31368276e-02 4.95835951e-02 -2.30251804e-04)
164             	(8.83446810e-02 3.74132997e+00 -5.94580795e-02)	(1.01478726e-01 3.69161401e+00 -5.92214877e-02)	(-1.31340452e-02 4.97159558e-02 -2.36591741e-04)
165             	(8.83594402e-02 3.74151177e+00 -5.94240793e-02)	(1.01490309e-01 3.69166570e+00 -5.91816806e-02)	(-1.31308687e-02 4.98460699e-02 -2.42398752e-04)
166             	(8.83741484e-02 3.74168947e+00 -5.93907614e-02)	(1.01501502e-01 3.69171561e+00 -5.91431809e-02)	(-1.31273531e-02 4.99738597e-02 -2.47580443e-04)
167             	(8.83887334e-02 3.74186298e+00 -5.93582575e-02)	(1.01512293e-01 3.69176377e+00 -5.91059280e-02)	(-1.31235595e-02 5.00992032e-02 -2.52329482e-04)
168             	(8.84032428e-02 3.74203248e+00 -5.93264580e-02)	(1.01522745e-01 3.69181039e+00 -5.90696916e-02)	(-1.31195026e-02 5.02220924e-02 -2.56766398e-04)
169             	(8.84177613e-02 3.74219825e+00 -5.92951077e-02)	(1.01532913e-01 3.69185562e+00 -5.90343238e-02)	(-1.31151513e-02 5.03426294e-02 -2.60783907e-04)
170             	(8.84322737e-02 3.74236045e+00 -5.92642448e-02)	(1.01542835e-01 3.69189962e+00 -5.89997207e-02)	(-1.31105616e-02 5.04608368e-02 -2.64524093e-04)
171             	(8.84467699e-02 3.74251894e+00 -5.92340681e-02)	(1.01552530e-01 3.69194237e+00 -5.89658796e-02)	(-1.31057598e-02 5.05765687e-02 -2.68188534e-04)
172             	(8.84613148e-02 3.74267395e+00 -5.92040311e-02)	(1.01562024e-01 3.69198399e+00 -5.89327150e-02)	(-1.31007093e-02 5.06899624e-02 -2.71316107e-04)
173             	(8.84758801e-02 3.74282562e+00 -5.91741902e-02)	(1.01571334e-01 3.69202453e+00 -5.89001880e-02)	(-1.30954539e-02 5.08010953e-02 -2.74002172e-04)
174             	(8.84904150e-02 3.74297398e+00 -5.91445638e-02)	(1.01580441e-01 3.69206395e+00 -5.88683277e-02)	(-1.30900258e-02 5.09100262e-02 -2.76236090e-04)
