# Moment        
# CofR          : (0.00000000e+00 0.00000000e+00 0.00000000e+00)
#
# Time          	(total_x total_y total_z)	(pressure_x pressure_y pressure_z)	(viscous_x viscous_y viscous_z)
1               	(-2.05563634e+00 9.99903285e-02 4.99683648e-01)	(-2.05419332e+00 9.98677529e-02 4.98729594e-01)	(-1.44302125e-03 1.22575607e-04 9.54054048e-04)
2               	(-2.66747972e+00 1.23308149e-01 5.89496358e-01)	(-2.66516545e+00 1.22992899e-01 5.88308533e-01)	(-2.31426478e-03 3.15250203e-04 1.18782443e-03)
3               	(-2.84170286e+00 1.25423081e-01 5.81032810e-01)	(-2.83928893e+00 1.24932239e-01 5.79733426e-01)	(-2.41392820e-03 4.90841921e-04 1.29938420e-03)
4               	(-2.60986510e+00 9.64546676e-02 4.76249372e-01)	(-2.60776469e+00 9.59198457e-02 4.74898444e-01)	(-2.10040067e-03 5.34821856e-04 1.35092747e-03)
5               	(-2.26388254e+00 6.09388715e-02 3.66527248e-01)	(-2.26217518e+00 6.03786025e-02 3.65145874e-01)	(-1.70736463e-03 5.60268995e-04 1.38137344e-03)
6               	(-2.07418202e+00 4.79700618e-02 3.41726163e-01)	(-2.07274608e+00 4.73581882e-02 3.40305508e-01)	(-1.43594377e-03 6.11873560e-04 1.42065463e-03)
7               	(-2.11471486e+00 6.54695248e-02 4.12876224e-01)	(-2.11340545e+00 6.47609475e-02 4.11399188e-01)	(-1.30941760e-03 7.08577255e-04 1.47703607e-03)
8               	(-2.28090464e+00 9.60883581e-02 5.12461764e-01)	(-2.27962766e+00 9.52554608e-02 5.10920129e-01)	(-1.27697979e-03 8.32897223e-04 1.54163497e-03)
9               	(-2.42237178e+00 1.16159845e-01 5.62330490e-01)	(-2.42108393e+00 1.15200019e-01 5.60725081e-01)	(-1.28784646e-03 9.59825836e-04 1.60540870e-03)
10              	(-2.45563391e+00 1.14376339e-01 5.35007111e-01)	(-2.45433065e+00 1.13292528e-01 5.33341667e-01)	(-1.30326013e-03 1.08381155e-03 1.66544413e-03)
11              	(-2.39676253e+00 9.74136198e-02 4.65848362e-01)	(-2.39546107e+00 9.61939212e-02 4.64123292e-01)	(-1.30145770e-03 1.21969863e-03 1.72507076e-03)
12              	(-2.31651320e+00 8.06666956e-02 4.13673082e-01)	(-2.31524671e+00 7.92725671e-02 4.11883180e-01)	(-1.26648703e-03 1.39412852e-03 1.78990163e-03)
13              	(-2.27594379e+00 7.51546210e-02 4.11980769e-01)	(-2.27475467e+00 7.35313897e-02 4.10120454e-01)	(-1.18912591e-03 1.62323138e-03 1.86031482e-03)
14              	(-2.28876432e+00 8.15610415e-02 4.50155396e-01)	(-2.28770347e+00 7.96443322e-02 4.48219992e-01)	(-1.06085386e-03 1.91670923e-03 1.93540374e-03)
15              	(-2.32996492e+00 9.27338272e-02 4.92800076e-01)	(-2.32908105e+00 9.04757989e-02 4.90787249e-01)	(-8.83870791e-04 2.25802828e-03 2.01282657e-03)
16              	(-2.36513894e+00 1.00937073e-01 5.10860323e-01)	(-2.36448167e+00 9.82823303e-02 5.08763846e-01)	(-6.57270455e-04 2.65474254e-03 2.09647695e-03)
17              	(-2.37530243e+00 1.02543921e-01 4.99430030e-01)	(-2.37490139e+00 9.94806909e-02 4.97243935e-01)	(-4.01035517e-04 3.06322996e-03 2.18609502e-03)
18              	(-2.36346493e+00 9.91674371e-02 4.74664948e-01)	(-2.36334097e+00 9.56835955e-02 4.72379217e-01)	(-1.23956912e-04 3.48384160e-03 2.28573054e-03)
19              	(-2.34546093e+00 9.50132467e-02 4.57570188e-01)	(-2.34560955e+00 9.11679195e-02 4.55179005e-01)	(1.48618360e-04 3.84532716e-03 2.39118311e-03)
20              	(-2.33524686e+00 9.34203251e-02 4.58358967e-01)	(-2.33565085e+00 8.93115298e-02 4.55859971e-01)	(4.03994460e-04 4.10879532e-03 2.49899649e-03)
21              	(-2.33677251e+00 9.50264991e-02 4.72483581e-01)	(-2.33739753e+00 9.07357598e-02 4.69880268e-01)	(6.25014848e-04 4.29073931e-03 2.60331289e-03)
22              	(-2.34493842e+00 9.82232238e-02 4.87867006e-01)	(-2.34573484e+00 9.38960765e-02 4.85166690e-01)	(7.96417910e-04 4.32714727e-03 2.70031550e-03)
23              	(-2.35231181e+00 1.00892715e-01 4.95100024e-01)	(-2.35320737e+00 9.66910649e-02 4.92315797e-01)	(8.95560914e-04 4.20164964e-03 2.78422688e-03)
24              	(-2.35447192e+00 1.01829054e-01 4.92651719e-01)	(-2.35539071e+00 9.78786320e-02 4.89797359e-01)	(9.18793181e-04 3.95042212e-03 2.85435955e-03)
25              	(-2.35182149e+00 1.01181040e-01 4.85615752e-01)	(-2.35272827e+00 9.75192797e-02 4.82694570e-01)	(9.06780355e-04 3.66175979e-03 2.92118150e-03)
26              	(-2.34773354e+00 9.99329804e-02 4.80546299e-01)	(-2.34860904e+00 9.65784592e-02 4.77558084e-01)	(8.75494194e-04 3.35452118e-03 2.98821528e-03)
27              	(-2.34532037e+00 9.90761603e-02 4.80826633e-01)	(-2.34616533e+00 9.60438398e-02 4.77767534e-01)	(8.44960178e-04 3.03232052e-03 3.05909934e-03)
28              	(-2.34550332e+00 9.90250348e-02 4.85472972e-01)	(-2.34632777e+00 9.63279121e-02 4.82334266e-01)	(8.24447149e-04 2.69712267e-03 3.13870574e-03)
29              	(-2.34716015e+00 9.95587814e-02 4.91047080e-01)	(-2.34796245e+00 9.72075419e-02 4.87823171e-01)	(8.02303847e-04 2.35123955e-03 3.22390924e-03)
30              	(-2.34844012e+00 1.00138434e-01 4.94460430e-01)	(-2.34921585e+00 9.81392670e-02 4.91140069e-01)	(7.75720984e-04 1.99916668e-03 3.32036130e-03)
31              	(-2.34823391e+00 1.00306445e-01 4.94787922e-01)	(-2.34897058e+00 9.86626999e-02 4.91356047e-01)	(7.36671842e-04 1.64374509e-03 3.43187459e-03)
32              	(-2.34676756e+00 9.99891322e-02 4.93296354e-01)	(-2.34745443e+00 9.86999237e-02 4.89739983e-01)	(6.86861584e-04 1.28920849e-03 3.55637069e-03)
33              	(-2.34509540e+00 9.93961453e-02 4.92071133e-01)	(-2.34572124e+00 9.84606904e-02 4.88377257e-01)	(6.25839632e-04 9.35454903e-04 3.69387625e-03)
34              	(-2.34419859e+00 9.88422471e-02 4.92503891e-01)	(-2.34476518e+00 9.82576879e-02 4.88661424e-01)	(5.66587284e-04 5.84559184e-04 3.84246685e-03)
35              	(-2.34437764e+00 9.85336514e-02 4.94643615e-01)	(-2.34489408e+00 9.82939201e-02 4.90639797e-01)	(5.16444528e-04 2.39731242e-04 4.00381837e-03)
36              	(-2.34521571e+00 9.84646699e-02 4.97531050e-01)	(-2.34570005e+00 9.85578314e-02 4.93353137e-01)	(4.84340425e-04 -9.31614780e-05 4.17791315e-03)
37              	(-2.34601294e+00 9.84637214e-02 5.00043117e-01)	(-2.34647261e+00 9.88876347e-02 4.95675263e-01)	(4.59671460e-04 -4.23913366e-04 4.36785393e-03)
38              	(-2.34625950e+00 9.83397883e-02 5.01589920e-01)	(-2.34668906e+00 9.90939005e-02 4.97019159e-01)	(4.29564561e-04 -7.54112178e-04 4.57076096e-03)
39              	(-2.34587995e+00 9.79980168e-02 5.02292785e-01)	(-2.34626527e+00 9.90842363e-02 4.97508192e-01)	(3.85319157e-04 -1.08621954e-03 4.78459231e-03)
40              	(-2.34516334e+00 9.74728464e-02 5.02715236e-01)	(-2.34548904e+00 9.88981734e-02 4.97708861e-01)	(3.25704593e-04 -1.42532698e-03 5.00637528e-03)
41              	(-2.34452294e+00 9.68888660e-02 5.03408679e-01)	(-2.34476932e+00 9.86550795e-02 4.98172611e-01)	(2.46382874e-04 -1.76621341e-03 5.23606787e-03)
42              	(-2.34419284e+00 9.63550445e-02 5.04572027e-01)	(-2.34434360e+00 9.84613710e-02 4.99098571e-01)	(1.50761560e-04 -2.10632651e-03 5.47345589e-03)
43              	(-2.34412928e+00 9.59036681e-02 5.06038055e-01)	(-2.34417518e+00 9.83507232e-02 5.00319089e-01)	(4.59045048e-05 -2.44705504e-03 5.71896589e-03)
44              	(-2.34412444e+00 9.55008798e-02 5.07494418e-01)	(-2.34405781e+00 9.82866237e-02 5.01522343e-01)	(-6.66305149e-05 -2.78574389e-03 5.97207444e-03)
45              	(-2.34398976e+00 9.50919324e-02 5.08726143e-01)	(-2.34380113e+00 9.82135313e-02 5.02492378e-01)	(-1.88626935e-04 -3.12159881e-03 6.23376482e-03)
46              	(-2.34368115e+00 9.46327878e-02 5.09722480e-01)	(-2.34335591e+00 9.80868507e-02 5.03217897e-01)	(-3.25241663e-04 -3.45406299e-03 6.50458292e-03)
47              	(-2.34329754e+00 9.41110025e-02 5.10623974e-01)	(-2.34281732e+00 9.78934639e-02 5.03836901e-01)	(-4.80221550e-04 -3.78246138e-03 6.78707329e-03)
48              	(-2.34299264e+00 9.35490656e-02 5.11590034e-01)	(-2.34233655e+00 9.76560073e-02 5.04510011e-01)	(-6.56098592e-04 -4.10694171e-03 7.08002296e-03)
49              	(-2.34286176e+00 9.29809116e-02 5.12693150e-01)	(-2.34200795e+00 9.74074852e-02 5.05311458e-01)	(-8.53806042e-04 -4.42657360e-03 7.38169147e-03)
50              	(-2.34289107e+00 9.24306771e-02 5.13894870e-01)	(-2.34181983e+00 9.71736756e-02 5.06203129e-01)	(-1.07124711e-03 -4.74299849e-03 7.69174109e-03)
51              	(-2.34297862e+00 9.19075212e-02 5.15089978e-01)	(-2.34167082e+00 9.69619248e-02 5.07079545e-01)	(-1.30780585e-03 -5.05440359e-03 8.01043322e-03)
52              	(-2.34300851e+00 9.14012752e-02 5.16188669e-01)	(-2.34144706e+00 9.67617532e-02 5.07850115e-01)	(-1.56145273e-03 -5.36047806e-03 8.33855457e-03)
53              	(-2.34292801e+00 9.08968653e-02 5.17169782e-01)	(-2.34109575e+00 9.65579225e-02 5.08492726e-01)	(-1.83226141e-03 -5.66105719e-03 8.67705587e-03)
54              	(-2.34276913e+00 9.03856354e-02 5.18078725e-01)	(-2.34064893e+00 9.63415041e-02 5.09053263e-01)	(-2.12019670e-03 -5.95586869e-03 9.02546148e-03)
55              	(-2.34262318e+00 8.98689833e-02 5.18992802e-01)	(-2.34019790e+00 9.61132409e-02 5.09607245e-01)	(-2.42527919e-03 -6.24425765e-03 9.38555715e-03)
56              	(-2.34258281e+00 8.93577782e-02 5.19968663e-01)	(-2.33983447e+00 9.58829411e-02 5.10210708e-01)	(-2.74834031e-03 -6.52516296e-03 9.75795505e-03)
57              	(-2.34269237e+00 8.88618356e-02 5.21016434e-01)	(-2.33960235e+00 9.56595498e-02 5.10873531e-01)	(-3.09002711e-03 -6.79771423e-03 1.01429023e-02)
58              	(-2.34292229e+00 8.83845915e-02 5.22101596e-01)	(-2.33947357e+00 9.54463011e-02 5.11560945e-01)	(-3.44871938e-03 -7.06170964e-03 1.05406515e-02)
59              	(-2.34319923e+00 8.79260674e-02 5.23171511e-01)	(-2.33937628e+00 9.52425015e-02 5.12220245e-01)	(-3.82294943e-03 -7.31643410e-03 1.09512660e-02)
60              	(-2.34345261e+00 8.74838779e-02 5.24186857e-01)	(-2.33924101e+00 9.50454284e-02 5.12811755e-01)	(-4.21159807e-03 -7.56155055e-03 1.13751017e-02)
61              	(-2.34365184e+00 8.70552052e-02 5.25140189e-01)	(-2.33903831e+00 9.48516013e-02 5.13327768e-01)	(-4.61353422e-03 -7.79639607e-03 1.18124208e-02)
62              	(-2.34380952e+00 8.66379421e-02 5.26049553e-01)	(-2.33878097e+00 9.46583609e-02 5.13786170e-01)	(-5.02855433e-03 -8.02041880e-03 1.22633826e-02)
63              	(-2.34396226e+00 8.62332671e-02 5.26943490e-01)	(-2.33850650e+00 9.44666150e-02 5.14215733e-01)	(-5.45576048e-03 -8.23334789e-03 1.27277571e-02)
64              	(-2.34414888e+00 8.58441237e-02 5.27845276e-01)	(-2.33825390e+00 9.42789573e-02 5.14638608e-01)	(-5.89498422e-03 -8.43483363e-03 1.32066681e-02)
65              	(-2.34439010e+00 8.54731353e-02 5.28759578e-01)	(-2.33804443e+00 9.40977354e-02 5.15059561e-01)	(-6.34566355e-03 -8.62460008e-03 1.37000167e-02)
66              	(-2.34468303e+00 8.51210711e-02 5.29678783e-01)	(-2.33787642e+00 9.39238378e-02 5.15471404e-01)	(-6.80661242e-03 -8.80276668e-03 1.42073789e-02)
67              	(-2.34501640e+00 8.47870772e-02 5.30595490e-01)	(-2.33773889e+00 9.37560736e-02 5.15866515e-01)	(-7.27750483e-03 -8.96899647e-03 1.47289748e-02)
68              	(-2.34537818e+00 8.44694503e-02 5.31505422e-01)	(-2.33762161e+00 9.35929699e-02 5.16241047e-01)	(-7.75656579e-03 -9.12351962e-03 1.52643749e-02)
69              	(-2.34576524e+00 8.41676039e-02 5.32409651e-01)	(-2.33752181e+00 9.34337217e-02 5.16596109e-01)	(-8.24342602e-03 -9.26611778e-03 1.58135416e-02)
70              	(-2.34618136e+00 8.38807882e-02 5.33311876e-01)	(-2.33744434e+00 9.32777959e-02 5.16936060e-01)	(-8.73701615e-03 -9.39700776e-03 1.63758166e-02)
71              	(-2.34662752e+00 8.36083765e-02 5.34214188e-01)	(-2.33739085e+00 9.31245328e-02 5.17262913e-01)	(-9.23666374e-03 -9.51615629e-03 1.69512752e-02)
72              	(-2.34709356e+00 8.33498636e-02 5.35109035e-01)	(-2.33735254e+00 9.29735498e-02 5.17570849e-01)	(-9.74102284e-03 -9.62368620e-03 1.75381865e-02)
73              	(-2.34756193e+00 8.31032797e-02 5.35986791e-01)	(-2.33731434e+00 9.28245783e-02 5.17851902e-01)	(-1.02475948e-02 -9.72129853e-03 1.81348888e-02)
74              	(-2.34801768e+00 8.28688423e-02 5.36843459e-01)	(-2.33726306e+00 9.26779386e-02 5.18102466e-01)	(-1.07546289e-02 -9.80909635e-03 1.87409929e-02)
75              	(-2.34845287e+00 8.26453569e-02 5.37675597e-01)	(-2.33719528e+00 9.25336309e-02 5.18323888e-01)	(-1.12575882e-02 -9.88827397e-03 1.93517095e-02)
76              	(-2.34888383e+00 8.24327411e-02 5.38494958e-01)	(-2.33712689e+00 9.23915597e-02 5.18528067e-01)	(-1.17569345e-02 -9.95881860e-03 1.99668903e-02)
77              	(-2.34933907e+00 8.22302586e-02 5.39319093e-01)	(-2.33708377e+00 9.22511719e-02 5.18729412e-01)	(-1.22553042e-02 -1.00209133e-02 2.05896809e-02)
78              	(-2.34983718e+00 8.20334918e-02 5.40152168e-01)	(-2.33708796e+00 9.21115189e-02 5.18938657e-01)	(-1.27492198e-02 -1.00780272e-02 2.12135105e-02)
79              	(-2.35039036e+00 8.18432743e-02 5.41006177e-01)	(-2.33715074e+00 9.19720175e-02 5.19164145e-01)	(-1.32396246e-02 -1.01287432e-02 2.18420317e-02)
80              	(-2.35098780e+00 8.16604463e-02 5.41872521e-01)	(-2.33726255e+00 9.18329741e-02 5.19402688e-01)	(-1.37252436e-02 -1.01725279e-02 2.24698326e-02)
81              	(-2.35159789e+00 8.14828129e-02 5.42732838e-01)	(-2.33739600e+00 9.16942688e-02 5.19639494e-01)	(-1.42018961e-02 -1.02114559e-02 2.30933441e-02)
82              	(-2.35218885e+00 8.13066335e-02 5.43567778e-01)	(-2.33752308e+00 9.15559827e-02 5.19860366e-01)	(-1.46657746e-02 -1.02493492e-02 2.37074118e-02)
83              	(-2.35275132e+00 8.11349196e-02 5.44381586e-01)	(-2.33762753e+00 9.14181267e-02 5.20060061e-01)	(-1.51237913e-02 -1.02832071e-02 2.43215250e-02)
84              	(-2.35328051e+00 8.09628577e-02 5.45171783e-01)	(-2.33770656e+00 9.12799789e-02 5.20237401e-01)	(-1.55739442e-02 -1.03171212e-02 2.49343814e-02)
85              	(-2.35378401e+00 8.07871479e-02 5.45937489e-01)	(-2.33776906e+00 9.11401904e-02 5.20395959e-01)	(-1.60149593e-02 -1.03530425e-02 2.55415297e-02)
86              	(-2.35427482e+00 8.06028924e-02 5.46678024e-01)	(-2.33783237e+00 9.09985200e-02 5.20544513e-01)	(-1.64424495e-02 -1.03956275e-02 2.61335115e-02)
87              	(-2.35476950e+00 8.04154209e-02 5.47402990e-01)	(-2.33791435e+00 9.08551242e-02 5.20695795e-01)	(-1.68551552e-02 -1.04397033e-02 2.67071953e-02)
88              	(-2.35527928e+00 8.02186379e-02 5.48120186e-01)	(-2.33802497e+00 9.07110727e-02 5.20859345e-01)	(-1.72543112e-02 -1.04924349e-02 2.72608410e-02)
89              	(-2.35580507e+00 8.00107087e-02 5.48837382e-01)	(-2.33816308e+00 9.05669667e-02 5.21038831e-01)	(-1.76419836e-02 -1.05562580e-02 2.77985511e-02)
90              	(-2.35633556e+00 7.97908648e-02 5.49560436e-01)	(-2.33831519e+00 9.04219289e-02 5.21227813e-01)	(-1.80203678e-02 -1.06310642e-02 2.83326222e-02)
91              	(-2.35685065e+00 7.95503991e-02 5.50268573e-01)	(-2.33846105e+00 9.02744700e-02 5.21408847e-01)	(-1.83896037e-02 -1.07240709e-02 2.88597265e-02)
92              	(-2.35733773e+00 7.92829758e-02 5.50949019e-01)	(-2.33858900e+00 9.01251658e-02 5.21570894e-01)	(-1.87487322e-02 -1.08421900e-02 2.93781254e-02)
93              	(-2.35779747e+00 7.89978991e-02 5.51598866e-01)	(-2.33870099e+00 8.99754793e-02 5.21718427e-01)	(-1.90964772e-02 -1.09775802e-02 2.98804387e-02)
94              	(-2.35823963e+00 7.86944206e-02 5.52225319e-01)	(-2.33880776e+00 8.98262636e-02 5.21864774e-01)	(-1.94318680e-02 -1.11318429e-02 3.03605447e-02)
95              	(-2.35867790e+00 7.83850237e-02 5.52852589e-01)	(-2.33891867e+00 8.96779971e-02 5.22024418e-01)	(-1.97592325e-02 -1.12929734e-02 3.08281713e-02)
96              	(-2.35911466e+00 7.80747180e-02 5.53486046e-01)	(-2.33903433e+00 8.95294438e-02 5.22196855e-01)	(-2.00803353e-02 -1.14547258e-02 3.12891914e-02)
97              	(-2.35954587e+00 7.77598438e-02 5.54114851e-01)	(-2.33915081e+00 8.93784964e-02 5.22370641e-01)	(-2.03950531e-02 -1.16186525e-02 3.17442101e-02)
98              	(-2.35996810e+00 7.74391139e-02 5.54718967e-01)	(-2.33926419e+00 8.92230530e-02 5.22533986e-01)	(-2.07039063e-02 -1.17839391e-02 3.21849803e-02)
99              	(-2.36038109e+00 7.71101858e-02 5.55302497e-01)	(-2.33937354e+00 8.90612274e-02 5.22686106e-01)	(-2.10075480e-02 -1.19510415e-02 3.26163907e-02)
100             	(-2.36078445e+00 7.67716223e-02 5.55868834e-01)	(-2.33947893e+00 8.88932730e-02 5.22831521e-01)	(-2.13055208e-02 -1.21216507e-02 3.30373131e-02)
101             	(-2.36117943e+00 7.64319822e-02 5.56432779e-01)	(-2.33958049e+00 8.87208704e-02 5.22976898e-01)	(-2.15989435e-02 -1.22888882e-02 3.34558814e-02)
102             	(-2.36156360e+00 7.60919797e-02 5.56989867e-01)	(-2.33967680e+00 8.85451646e-02 5.23123269e-01)	(-2.18867988e-02 -1.24531849e-02 3.38665981e-02)
103             	(-2.36193543e+00 7.57461325e-02 5.57527559e-01)	(-2.33976690e+00 8.83666028e-02 5.23269402e-01)	(-2.21685344e-02 -1.26204703e-02 3.42581566e-02)
104             	(-2.36229821e+00 7.53999661e-02 5.58062431e-01)	(-2.33985248e+00 8.81847103e-02 5.23417109e-01)	(-2.24457204e-02 -1.27847441e-02 3.46453224e-02)
105             	(-2.36265468e+00 7.50519670e-02 5.58592095e-01)	(-2.33993640e+00 8.79993821e-02 5.23565980e-01)	(-2.27182769e-02 -1.29474151e-02 3.50261149e-02)
106             	(-2.36300690e+00 7.47048214e-02 5.59117652e-01)	(-2.34002102e+00 8.78109680e-02 5.23715500e-01)	(-2.29858820e-02 -1.31061466e-02 3.54021522e-02)
107             	(-2.36335377e+00 7.43600263e-02 5.59636309e-01)	(-2.34010599e+00 8.76209586e-02 5.23864482e-01)	(-2.32477827e-02 -1.32609323e-02 3.57718266e-02)
108             	(-2.36369180e+00 7.40185003e-02 5.60143841e-01)	(-2.34018799e+00 8.74303613e-02 5.24010133e-01)	(-2.35038145e-02 -1.34118611e-02 3.61337075e-02)
109             	(-2.36401963e+00 7.36817523e-02 5.60639170e-01)	(-2.34026505e+00 8.72399437e-02 5.24152207e-01)	(-2.37545787e-02 -1.35581914e-02 3.64869633e-02)
110             	(-2.36433677e+00 7.33487799e-02 5.61120900e-01)	(-2.34033608e+00 8.70497810e-02 5.24291486e-01)	(-2.40006881e-02 -1.37010011e-02 3.68294135e-02)
111             	(-2.36464381e+00 7.30203669e-02 5.61594403e-01)	(-2.34040206e+00 8.68594688e-02 5.24431238e-01)	(-2.42417433e-02 -1.38391019e-02 3.71631648e-02)
112             	(-2.36494366e+00 7.26952930e-02 5.62063576e-01)	(-2.34046593e+00 8.66687621e-02 5.24573797e-01)	(-2.44777349e-02 -1.39734690e-02 3.74897785e-02)
113             	(-2.36523796e+00 7.23744529e-02 5.62528829e-01)	(-2.34052884e+00 8.64787074e-02 5.24716746e-01)	(-2.47091235e-02 -1.41042545e-02 3.78120829e-02)
114             	(-2.36552621e+00 7.20581508e-02 5.62979341e-01)	(-2.34059026e+00 8.62906950e-02 5.24857040e-01)	(-2.49359554e-02 -1.42325442e-02 3.81223005e-02)
115             	(-2.36580791e+00 7.17458272e-02 5.63417715e-01)	(-2.34065022e+00 8.61053339e-02 5.24995724e-01)	(-2.51576873e-02 -1.43595067e-02 3.84219915e-02)
116             	(-2.36608229e+00 7.14417134e-02 5.63845959e-01)	(-2.34070874e+00 8.59232824e-02 5.25134665e-01)	(-2.53735540e-02 -1.44815690e-02 3.87112938e-02)
117             	(-2.36635001e+00 7.11451336e-02 5.64270362e-01)	(-2.34076595e+00 8.57447409e-02 5.25275632e-01)	(-2.55840578e-02 -1.45996072e-02 3.89947296e-02)
118             	(-2.36661184e+00 7.08551278e-02 5.64689895e-01)	(-2.34082149e+00 8.55694772e-02 5.25417399e-01)	(-2.57903433e-02 -1.47143494e-02 3.92724958e-02)
119             	(-2.36686645e+00 7.05727807e-02 5.65096859e-01)	(-2.34087447e+00 8.53975677e-02 5.25557099e-01)	(-2.59919791e-02 -1.48247870e-02 3.95397595e-02)
120             	(-2.36711419e+00 7.02978474e-02 5.65497442e-01)	(-2.34092468e+00 8.52297072e-02 5.25694197e-01)	(-2.61895088e-02 -1.49318598e-02 3.98032454e-02)
121             	(-2.36735457e+00 7.00319317e-02 5.65888934e-01)	(-2.34097165e+00 8.50664164e-02 5.25827872e-01)	(-2.63829200e-02 -1.50344847e-02 4.00610616e-02)
122             	(-2.36758731e+00 6.97726566e-02 5.66268216e-01)	(-2.34101529e+00 8.49070165e-02 5.25957758e-01)	(-2.65720185e-02 -1.51343599e-02 4.03104575e-02)
123             	(-2.36781293e+00 6.95193660e-02 5.66636867e-01)	(-2.34105660e+00 8.47516313e-02 5.26085015e-01)	(-2.67563279e-02 -1.52322652e-02 4.05518514e-02)
124             	(-2.36803261e+00 6.92764159e-02 5.66997348e-01)	(-2.34109660e+00 8.46007837e-02 5.26211128e-01)	(-2.69360141e-02 -1.53243679e-02 4.07862193e-02)
125             	(-2.36824663e+00 6.90449574e-02 5.67346898e-01)	(-2.34113530e+00 8.44557471e-02 5.26335721e-01)	(-2.71113276e-02 -1.54107898e-02 4.10111770e-02)
126             	(-2.36845515e+00 6.88230499e-02 5.67686902e-01)	(-2.34117275e+00 8.43161556e-02 5.26459386e-01)	(-2.72824067e-02 -1.54931057e-02 4.12275163e-02)
127             	(-2.36865803e+00 6.86114681e-02 5.68019856e-01)	(-2.34120865e+00 8.41808502e-02 5.26582296e-01)	(-2.74493782e-02 -1.55693821e-02 4.14375603e-02)
128             	(-2.36885514e+00 6.84075671e-02 5.68344733e-01)	(-2.34124264e+00 8.40493919e-02 5.26703158e-01)	(-2.76125080e-02 -1.56418249e-02 4.16415756e-02)
129             	(-2.36904655e+00 6.82117785e-02 5.68661133e-01)	(-2.34127495e+00 8.39217060e-02 5.26821335e-01)	(-2.77715995e-02 -1.57099275e-02 4.18397972e-02)
130             	(-2.36923325e+00 6.80262539e-02 5.68964824e-01)	(-2.34130624e+00 8.37978712e-02 5.26936608e-01)	(-2.79270152e-02 -1.57716174e-02 4.20282160e-02)
131             	(-2.36941530e+00 6.78496145e-02 5.69256755e-01)	(-2.34133668e+00 8.36777719e-02 5.27050519e-01)	(-2.80786218e-02 -1.58281573e-02 4.22062367e-02)
132             	(-2.36959258e+00 6.76820618e-02 5.69543054e-01)	(-2.34136593e+00 8.35615315e-02 5.27164292e-01)	(-2.82266501e-02 -1.58794697e-02 4.23787624e-02)
133             	(-2.36976496e+00 6.75219765e-02 5.69825085e-01)	(-2.34139353e+00 8.34492429e-02 5.27277318e-01)	(-2.83714268e-02 -1.59272665e-02 4.25477671e-02)
134             	(-2.36993236e+00 6.73694724e-02 5.70101755e-01)	(-2.34141956e+00 8.33406779e-02 5.27388473e-01)	(-2.85127996e-02 -1.59712055e-02 4.27132817e-02)
135             	(-2.37009473e+00 6.72240721e-02 5.70369011e-01)	(-2.34144408e+00 8.32357495e-02 5.27496343e-01)	(-2.86506504e-02 -1.60116774e-02 4.28726672e-02)
136             	(-2.37025231e+00 6.70846343e-02 5.70627912e-01)	(-2.34146741e+00 8.31348773e-02 5.27600194e-01)	(-2.87849056e-02 -1.60502431e-02 4.30277187e-02)
137             	(-2.37040584e+00 6.69563455e-02 5.70876511e-01)	(-2.34149000e+00 8.30384746e-02 5.27700220e-01)	(-2.89158376e-02 -1.60821292e-02 4.31762911e-02)
138             	(-2.37055545e+00 6.68400897e-02 5.71116108e-01)	(-2.34151200e+00 8.29462221e-02 5.27797673e-01)	(-2.90434549e-02 -1.61061324e-02 4.33184343e-02)
139             	(-2.37070122e+00 6.67350069e-02 5.71348041e-01)	(-2.34153319e+00 8.28571600e-02 5.27894229e-01)	(-2.91680245e-02 -1.61221531e-02 4.34538126e-02)
140             	(-2.37084275e+00 6.66401742e-02 5.71573044e-01)	(-2.34155328e+00 8.27705067e-02 5.27990659e-01)	(-2.92894678e-02 -1.61303324e-02 4.35823850e-02)
141             	(-2.37098006e+00 6.65496329e-02 5.71796690e-01)	(-2.34157224e+00 8.26860123e-02 5.28086870e-01)	(-2.94078234e-02 -1.61363794e-02 4.37098202e-02)
142             	(-2.37111358e+00 6.64620161e-02 5.72017921e-01)	(-2.34159032e+00 8.26045380e-02 5.28180710e-01)	(-2.95232556e-02 -1.61425219e-02 4.38372112e-02)
143             	(-2.37124386e+00 6.63822980e-02 5.72232191e-01)	(-2.34160794e+00 8.25272097e-02 5.28269796e-01)	(-2.96359239e-02 -1.61449117e-02 4.39623944e-02)
144             	(-2.37137109e+00 6.63108711e-02 5.72439322e-01)	(-2.34162518e+00 8.24543667e-02 5.28353719e-01)	(-2.97459123e-02 -1.61434956e-02 4.40856030e-02)
145             	(-2.37149515e+00 6.62460120e-02 5.72640404e-01)	(-2.34164199e+00 8.23853296e-02 5.28433752e-01)	(-2.98531621e-02 -1.61393175e-02 4.42066527e-02)
146             	(-2.37161592e+00 6.61850357e-02 5.72837929e-01)	(-2.34165818e+00 8.23193512e-02 5.28511145e-01)	(-2.99577363e-02 -1.61343155e-02 4.43267834e-02)
147             	(-2.37173329e+00 6.61270398e-02 5.73032472e-01)	(-2.34167360e+00 8.22558864e-02 5.28586453e-01)	(-3.00596908e-02 -1.61288466e-02 4.44460187e-02)
148             	(-2.37184738e+00 6.60711813e-02 5.73223971e-01)	(-2.34168838e+00 8.21949298e-02 5.28659542e-01)	(-3.01590042e-02 -1.61237485e-02 4.45644286e-02)
149             	(-2.37195856e+00 6.60190181e-02 5.73411481e-01)	(-2.34170277e+00 8.21367415e-02 5.28729892e-01)	(-3.02557898e-02 -1.61177234e-02 4.46815890e-02)
150             	(-2.37206714e+00 6.59699697e-02 5.73594457e-01)	(-2.34171708e+00 8.20815125e-02 5.28796966e-01)	(-3.03500557e-02 -1.61115427e-02 4.47974906e-02)
151             	(-2.37217344e+00 6.59246289e-02 5.73772294e-01)	(-2.34173149e+00 8.20294085e-02 5.28860689e-01)	(-3.04419471e-02 -1.61047795e-02 4.49116052e-02)
152             	(-2.37227733e+00 6.58828639e-02 5.73946275e-01)	(-2.34174582e+00 8.19804213e-02 5.28921550e-01)	(-3.05315126e-02 -1.60975574e-02 4.50247245e-02)
153             	(-2.37237841e+00 6.58436326e-02 5.74116894e-01)	(-2.34175970e+00 8.19342209e-02 5.28980084e-01)	(-3.06187124e-02 -1.60905883e-02 4.51368093e-02)
154             	(-2.37247656e+00 6.58063219e-02 5.74283885e-01)	(-2.34177309e+00 8.18905187e-02 5.29036242e-01)	(-3.07034736e-02 -1.60841968e-02 4.52476427e-02)
155             	(-2.37257221e+00 6.57709395e-02 5.74446834e-01)	(-2.34178622e+00 8.18490865e-02 5.29089813e-01)	(-3.07859891e-02 -1.60781469e-02 4.53570216e-02)
156             	(-2.37266557e+00 6.57377909e-02 5.74605623e-01)	(-2.34179926e+00 8.18098054e-02 5.29140616e-01)	(-3.08663149e-02 -1.60720145e-02 4.54650074e-02)
157             	(-2.37275676e+00 6.57065720e-02 5.74759888e-01)	(-2.34181227e+00 8.17727602e-02 5.29188329e-01)	(-3.09444859e-02 -1.60661883e-02 4.55715592e-02)
158             	(-2.37284577e+00 6.56775629e-02 5.74909687e-01)	(-2.34182520e+00 8.17380396e-02 5.29233197e-01)	(-3.10205683e-02 -1.60604767e-02 4.56764906e-02)
159             	(-2.37293259e+00 6.56508132e-02 5.75055690e-01)	(-2.34183795e+00 8.17055748e-02 5.29275690e-01)	(-3.10946380e-02 -1.60547616e-02 4.57799998e-02)
160             	(-2.37301715e+00 6.56257820e-02 5.75198491e-01)	(-2.34185045e+00 8.16749950e-02 5.29316415e-01)	(-3.11666980e-02 -1.60492130e-02 4.58820763e-02)
161             	(-2.37309948e+00 6.56023333e-02 5.75338128e-01)	(-2.34186271e+00 8.16461127e-02 5.29355527e-01)	(-3.12367646e-02 -1.60437794e-02 4.59826008e-02)
162             	(-2.37317966e+00 6.55803425e-02 5.75474494e-01)	(-2.34187478e+00 8.16186454e-02 5.29393110e-01)	(-3.13048797e-02 -1.60383029e-02 4.60813838e-02)
163             	(-2.37325779e+00 6.55591160e-02 5.75608053e-01)	(-2.34188668e+00 8.15922427e-02 5.29429445e-01)	(-3.13711109e-02 -1.60331267e-02 4.61786083e-02)
164             	(-2.37333390e+00 6.55385068e-02 5.75738748e-01)	(-2.34189845e+00 8.15667960e-02 5.29464652e-01)	(-3.14354531e-02 -1.60282892e-02 4.62740956e-02)
165             	(-2.37340809e+00 6.55185209e-02 5.75866833e-01)	(-2.34191008e+00 8.15423482e-02 5.29498760e-01)	(-3.14980020e-02 -1.60238273e-02 4.63680731e-02)
166             	(-2.37348036e+00 6.54990114e-02 5.75992322e-01)	(-2.34192161e+00 8.15188476e-02 5.29531853e-01)	(-3.15587518e-02 -1.60198362e-02 4.64604690e-02)
167             	(-2.37355074e+00 6.54800883e-02 5.76115093e-01)	(-2.34193300e+00 8.14962387e-02 5.29563922e-01)	(-3.16177369e-02 -1.60161504e-02 4.65511710e-02)
168             	(-2.37361937e+00 6.54616778e-02 5.76235291e-01)	(-2.34194433e+00 8.14743628e-02 5.29595124e-01)	(-3.16750380e-02 -1.60126850e-02 4.66401671e-02)
169             	(-2.37368627e+00 6.54435946e-02 5.76353138e-01)	(-2.34195559e+00 8.14531257e-02 5.29625566e-01)	(-3.17306860e-02 -1.60095311e-02 4.67275723e-02)
170             	(-2.37375147e+00 6.54258973e-02 5.76468701e-01)	(-2.34196675e+00 8.14324505e-02 5.29655323e-01)	(-3.17847188e-02 -1.60065532e-02 4.68133775e-02)
171             	(-2.37381495e+00 6.54087375e-02 5.76581863e-01)	(-2.34197778e+00 8.14123163e-02 5.29684422e-01)	(-3.18371722e-02 -1.60035788e-02 4.68974409e-02)
172             	(-2.37387670e+00 6.53916275e-02 5.76692868e-01)	(-2.34198862e+00 8.13926473e-02 5.29712954e-01)	(-3.18880730e-02 -1.60010198e-02 4.69799142e-02)
173             	(-2.37393679e+00 6.53746209e-02 5.76801821e-01)	(-2.34199930e+00 8.13734156e-02 5.29740982e-01)	(-3.19374858e-02 -1.59987947e-02 4.70608388e-02)
174             	(-2.37399527e+00 6.53577495e-02 5.76908670e-01)	(-2.34200982e+00 8.13546468e-02 5.29768441e-01)	(-3.19854446e-02 -1.59968973e-02 4.71402291e-02)
