/*--------------------------------*- C++ -*----------------------------------*\
| =========                 |                                                 |
| \\      /  F ield         | OpenFOAM: The Open Source CFD Toolbox           |
|  \\    /   O peration     | Version:  v2012                                 |
|   \\  /    A nd           | Website:  www.openfoam.com                      |
|    \\/     M anipulation  |                                                 |
\*---------------------------------------------------------------------------*/
FoamFile
{
    version     2.0;
    format      ascii;
    class       volScalarField;
    location    "0";
    object      p;
}
// * * * * * * * * * * * * * * * * * * * * * * * * * * * * * * * * * * * * * //

dimensions      [0 2 -2 0 0 0 0];


internalField   nonuniform List<scalar> 
33282
(
-0.024370883
-0.025248113
-0.025458991
-0.025156787
-0.024471384
-0.023507567
-0.022345763
-0.021045246
-0.019648497
-0.018185738
-0.016677397
-0.015135752
-0.013568005
-0.011978438
-0.010368134
-0.008734422
-0.0070724115
-0.0053765712
-0.0036388772
-0.0018472736
1.7266774e-05
0.0019855234
0.0041009225
0.0063937767
0.009025305
0.012206639
0.016186875
0.02149231
0.028961171
0.039765579
0.055003431
0.074945332
0.098870645
0.12518809
0.15047051
0.17035566
0.17803231
0.16628966
0.14041929
0.12573381
0.060922315
0.0475802
0.056499014
0.037601489
0.045840751
0.031939023
0.036040821
0.036844994
0.041636426
0.044446956
0.04619993
0.04699229
0.047477085
0.047838522
0.04812743
0.048367622
0.048568741
0.048726161
0.048846648
0.048941173
0.049012065
0.04905507
0.049077761
0.049090078
0.049082509
0.049040193
0.048952274
0.048845188
0.0487033
0.048511201
0.048264036
0.047948318
0.047509109
0.046743413
0.045019642
0.042225172
0.037445001
0.036675274
0.03259708
0.04655792
0.038321482
0.057264445
0.048347716
0.061709361
0.046415264
0.05437795
0.026920246
0.028108512
0.0079679302
0.014394042
0.015523142
0.019035429
0.019029969
0.015537596
0.01441447
0.0079961312
0.028141212
0.026958831
0.054421415
0.046463532
0.06176294
0.048393873
0.057317163
0.038362298
0.046594388
0.032632414
0.036713199
0.0374866
0.042270276
0.045067487
0.046794345
0.047561776
0.048002031
0.048317269
0.048563745
0.048759058
0.048909662
0.049017744
0.04908841
0.049125858
0.0491446
0.049142069
0.049117659
0.04906874
0.049002054
0.048910432
0.048788615
0.04863091
0.048433541
0.048196904
0.047906586
0.047543458
0.047057417
0.046265581
0.044511429
0.041699853
0.03690589
0.036099039
0.031994357
0.045897366
0.037663054
0.056574869
0.047649491
0.061002359
0.045737212
0.053681565
0.026268723
0.027455047
0.0073123441
0.013732912
0.014837832
0.018321353
0.018328406
0.014827579
0.013710353
0.0072732938
0.02740859
0.026208237
0.053612006
0.045664467
0.048102181
0.053673948
0.037398811
0.030461478
0.018051419
0.017471487
0.020891502
0.026722772
0.026709282
0.020901167
0.01749661
0.01808851
0.030508522
0.03745564
0.053738848
0.048171103
0.062707611
0.063275174
0.051866449
0.037028044
0.024033147
0.019902121
0.023201608
0.028104136
0.028119049
0.023191902
0.019876999
0.023996538
0.036982452
0.051811772
0.063213564
0.062637824
0.058640881
0.05739478
0.043226313
0.022952201
0.0068564015
0.00063060043
0.0014953055
0.0045105771
0.0045080344
0.0015074156
0.00065639009
0.0068931258
0.022996278
0.043278248
0.057452797
0.058703153
0.056949239
0.047765495
0.027805631
0.0023941312
-0.016314269
-0.023668898
-0.022715351
-0.019945753
-0.019947451
-0.022729132
-0.023695037
-0.016350948
0.0023501096
0.027756946
0.047710353
0.056891214
0.047297339
0.037325706
0.014011116
-0.01440967
-0.034176157
-0.041399871
-0.039865843
-0.036876589
-0.036871185
-0.03985066
-0.041373809
-0.034138438
-0.014372247
0.014060888
0.037379198
0.047353908
0.046742794
0.033472909
0.008292139
-0.020830007
-0.040954872
-0.046939354
-0.044668518
-0.041477871
-0.041484608
-0.04468284
-0.046964287
-0.040992217
-0.020875148
0.0082409081
0.033417793
0.046685294
0.047681575
0.034313312
0.0090349338
-0.019600044
-0.038887232
-0.043939878
-0.040880111
-0.037466107
-0.037461403
-0.040867309
-0.0439152
-0.038850777
-0.019558098
0.0090854719
0.034369156
0.047740876
0.052082978
0.038710559
0.013362549
-0.015221679
-0.03440429
-0.039486223
-0.036171011
-0.032864616
-0.032867933
-0.036183237
-0.039510864
-0.034440773
-0.015263267
0.013311597
0.038653506
0.052021665
0.054760533
0.0417771
0.016696287
-0.011792332
-0.030714564
-0.035824748
-0.032390625
-0.029128229
-0.029125844
-0.032379075
-0.035800355
-0.030677755
-0.011749801
0.016747051
0.041834649
0.054823025
0.056568275
0.043760524
0.018931911
-0.009445398
-0.028241985
-0.033490288
-0.030031829
-0.026763226
-0.026764876
-0.030043149
-0.033514597
-0.028279868
-0.00949159
0.01887977
0.043701871
0.056503863
0.057185454
0.044689825
0.020124856
-0.0081020636
-0.026883412
-0.032519143
-0.028779361
-0.025440295
-0.025439125
-0.02876816
-0.032494745
-0.026845618
-0.008063623
0.020176801
0.044748728
0.057246331
0.057720654
0.045340007
0.020936339
-0.0075007035
-0.025977047
-0.031803395
-0.027960962
-0.024594127
-0.024594937
-0.027971647
-0.031827347
-0.026014041
-0.0075387116
0.02088367
0.045282242
0.057657127
0.058082571
0.045752849
0.021436639
-0.00685847
-0.025355119
-0.031203196
-0.027314334
-0.023923928
-0.023923502
-0.027304051
-0.031179807
-0.025318251
-0.0068089199
0.021487991
0.045810503
0.058147587
0.058488633
0.0461905
0.021907518
-0.0062585118
-0.024823791
-0.030682877
-0.026800268
-0.023424406
-0.023424724
-0.026810374
-0.030706104
-0.024859803
-0.0063073114
0.021857269
0.046133285
0.058423916
0.058690099
0.046419629
0.022159416
-0.0059242926
-0.024507903
-0.030341706
-0.026446838
-0.023068584
-0.023067849
-0.026436798
-0.030318991
-0.024472869
-0.0058769937
0.022208727
0.046475355
0.058752309
0.058955402
0.046681782
0.02242238
-0.0056131217
-0.024226726
-0.030061879
-0.026177922
-0.022812683
-0.022816133
-0.026188527
-0.030084142
-0.024261159
-0.0056593376
0.022375077
0.04662926
0.058895723
0.059055884
0.046786309
0.022530929
-0.0054720301
-0.024086578
-0.029902294
-0.026004417
-0.022634303
-0.022630491
-0.025993349
-0.02987987
-0.024052139
-0.0054261336
0.022577978
0.046838342
0.059115063
0.059237469
0.04695675
0.022692877
-0.0052913969
-0.02392698
-0.029750322
-0.025861715
-0.022500635
-0.022502282
-0.025872675
-0.029772891
-0.023961579
-0.0053372903
0.022644918
0.046900059
0.059175748
0.059271095
0.046992479
0.022731105
-0.0052394425
-0.023871683
-0.029680815
-0.025779125
-0.022408694
-0.022407287
-0.025768228
-0.029658516
-0.023837604
-0.0051940453
0.022777639
0.047045101
0.059329446
0.05939643
0.047108233
0.022838019
-0.0051258031
-0.023775076
-0.029595101
-0.025703667
-0.022342124
-0.022344216
-0.025714609
-0.029616952
-0.023808704
-0.0051703222
0.022793914
0.047063959
0.059345267
0.059385271
0.047100942
0.022832768
-0.0051259791
-0.02376856
-0.029576786
-0.025674415
-0.022304768
-0.022299158
-0.025662611
-0.029555049
-0.023734935
-0.0050812161
0.022879872
0.047156724
0.059447567
0.059471521
0.047178331
0.022900506
-0.0050592385
-0.023715365
-0.029536201
-0.025642788
-0.022277452
-0.022287029
-0.025656049
-0.029558034
-0.0237489
-0.0051033219
0.022852766
0.047116616
0.059403262
0.05942048
0.04713319
0.022861144
-0.0050997526
-0.023747925
-0.029559562
-0.025657963
-0.02228818
-0.022278273
-0.025644841
-0.029538769
-0.023716671
-0.0050596013
0.022901551
0.047178949
0.059472536
0.059450334
0.047156566
0.022884525
-0.0050800206
-0.023738109
-0.029564224
-0.02567041
-0.022301731
-0.022311322
-0.025682611
-0.029583985
-0.02376823
-0.0051186486
0.022850821
0.047130822
0.059418485
0.059365617
0.047075853
0.022802474
-0.0051745353
-0.023820998
-0.029640042
-0.02573998
-0.022367825
-0.02235992
-0.025729367
-0.029619306
-0.023786228
-0.0051275413
0.022849815
0.047125709
0.059417344
0.059349211
0.047057331
0.022776416
-0.0052217382
-0.023876806
-0.029712951
-0.025823322
-0.022454339
-0.022460886
-0.025836627
-0.029735049
-0.023910739
-0.0052693776
0.022722856
0.046989824
0.059278272
0.059182
0.046893401
0.022615353
-0.0054096765
-0.024045549
-0.029879991
-0.025982835
-0.022602023
-0.022600518
-0.025972795
-0.029859888
-0.024014513
-0.0053687702
0.02265842
0.046941616
0.059236974
0.059082509
0.046778635
0.022482748
-0.0055919292
-0.024223909
-0.030081821
-0.026196686
-0.022817946
-0.022818231
-0.02620548
-0.030100875
-0.024252963
-0.0056290923
0.022443909
0.046732683
0.05903004
0.058808022
0.046483749
0.022181144
-0.0059657431
-0.024565384
-0.030429025
-0.026534578
-0.023138759
-0.023138688
-0.026525995
-0.0304101
-0.024536682
-0.0059283698
0.022218031
0.04652566
0.058856766
0.058560091
0.046187996
0.021848083
-0.0064300976
-0.024990411
-0.030872267
-0.026992779
-0.023600002
-0.023600385
-0.027001655
-0.030891179
-0.025019284
-0.0064683681
0.021809316
0.046143629
0.058509875
0.058138567
0.045739559
0.021313011
-0.0071617453
-0.02563125
-0.031468857
-0.027612936
-0.024224276
-0.024223343
-0.027603511
-0.031450173
-0.025602332
-0.0071237178
0.02135198
0.045784498
0.058189345
0.057768537
0.045264946
0.020639387
-0.0076919073
-0.026425323
-0.032096419
-0.028360972
-0.025015492
-0.025017629
-0.028371117
-0.032115147
-0.026453463
-0.0077208209
0.020600008
0.045219991
0.057719289
0.057039879
0.044233749
0.019356701
-0.0090426318
-0.027855316
-0.033114695
-0.029640202
-0.026351259
-0.026345857
-0.029628989
-0.033095326
-0.027826869
-0.0090082685
0.019395875
0.044278125
0.05708912
0.05538151
0.042385898
0.017227569
-0.011329511
-0.030260198
-0.035415214
-0.031985575
-0.028712018
-0.028720534
-0.031997093
-0.035434157
-0.030287325
-0.01136058
0.017190311
0.042343434
0.05533516
0.052630001
0.03925945
0.013836072
-0.014821406
-0.034003447
-0.039106473
-0.035777929
-0.032454166
-0.032445343
-0.035766737
-0.03908791
-0.033977344
-0.01479191
0.013872211
0.039299926
0.052673645
0.048322028
0.034925944
0.0095837672
-0.019124105
-0.03841944
-0.043498688
-0.040443848
-0.037024532
-0.037033089
-0.040454454
-0.043516162
-0.038444635
-0.019152896
0.009549279
0.034887927
0.048281437
0.047322382
0.034013685
0.0088002746
-0.020359047
-0.040511204
-0.046511105
-0.044228681
-0.041029072
-0.04102056
-0.044217648
-0.046493962
-0.040485922
-0.020328807
0.008834628
0.034050479
0.047360473
0.048005873
0.037988506
0.014629591
-0.013927495
-0.033621047
-0.040871954
-0.039342815
-0.036347887
-0.036356371
-0.03935603
-0.040890688
-0.033646502
-0.013952392
0.014596609
0.037953149
0.047968944
0.057612177
0.048394372
0.028373401
0.002936283
-0.015780593
-0.023133726
-0.022184812
-0.019397521
-0.019388555
-0.022169317
-0.02311313
-0.015755245
0.0029655056
0.028405664
0.048430801
0.057650099
0.059429882
0.058163293
0.04394965
0.023613786
0.0075097736
0.0012693934
0.0020490063
0.0051418392
0.0051332453
0.002032522
0.0012465653
0.0074836249
0.02358427
0.043915117
0.05812488
0.059388571
0.063413067
0.063978504
0.052546957
0.037663771
0.024671134
0.020539216
0.023884077
0.028810951
0.028810121
0.023906379
0.020563549
0.024698174
0.037694532
0.052583188
0.064019295
0.063460058
0.048904146
0.054474481
0.038161303
0.031186559
0.018763448
0.018181911
0.021633339
0.027458813
0.027463652
0.02161179
0.018157261
0.018735511
0.031154522
0.038123921
0.054432402
0.048859074
0.14689564
0.12935461
0.17762651
0.19954469
0.19685949
0.17701951
0.15293659
0.1298869
0.10707407
0.085426245
0.066939622
0.052831637
0.043251187
0.036882918
0.032487739
0.02926715
0.026750026
0.024654924
0.022804901
0.021073588
0.01938085
0.017695041
0.015995918
0.014253754
0.012440734
0.01053549
0.0085197148
0.0063828183
0.0041142653
0.0016984299
-0.00087691078
-0.0036201011
-0.0065387442
-0.0096389871
-0.01292482
-0.016397556
-0.02005632
-0.023900419
-0.027934289
-0.032176888
-0.03668172
-0.041567352
-0.047057051
-0.053580305
0.055473217
0.050909215
0.046182025
0.041472641
0.036913992
0.032601707
0.028603288
0.024967176
0.021686699
0.018767982
0.016239082
0.01408806
0.012300394
0.010858846
0.0097447301
0.0089414848
0.0084308107
0.0081942227
0.0082192842
0.0084985774
0.0090318537
0.0098288377
0.010889245
0.012292277
0.014165901
0.016645449
0.020013364
0.024783236
0.031782757
0.042174306
0.057050289
0.076685289
0.10035798
0.12643316
0.15148923
0.17117645
0.17867165
0.16678113
0.14078195
0.12596333
0.11565307
0.15429081
0.17870146
0.18175139
0.16486508
0.14140623
0.11866882
0.096124421
0.074676663
0.056031102
0.041469659
0.031405759
0.024638589
0.019992702
0.01667072
0.014199118
0.012316736
0.010890973
0.0098039636
0.0089823371
0.0084222162
0.0081148801
0.0080607996
0.0082674379
0.0087470021
0.0095167791
0.010595046
0.011998707
0.013745707
0.015853033
0.018334837
0.0212015
0.024440197
0.028037282
0.031986725
0.036254826
0.04077838
0.045465295
0.05018807
0.054772515
0.05325361
0.048630132
0.043922005
0.039287079
0.034840895
0.030664257
0.026810263
0.023309333
0.020173842
0.017411809
0.015028224
0.013014014
0.011353601
0.010030881
0.0090289105
0.0083299477
0.0079164478
0.0077730835
0.007888006
0.0082538352
0.0088695063
0.0097419817
0.010878552
0.01234064
0.014234669
0.01667489
0.019863919
0.024206788
0.030427312
0.039533356
0.05235389
0.068676303
0.087132521
0.10698256
0.13001905
0.15733359
0.18206469
0.18748765
0.16467584
0.12795303
0.088161052
0.14764646
0.17531631
0.16738081
0.14156947
0.11596544
0.094913948
0.077090958
0.06101214
0.047175059
0.036474158
0.028776849
0.023397345
0.019534455
0.016580292
0.014220218
0.012327093
0.010821998
0.0096171332
0.0086709002
0.0079732614
0.007519202
0.0073113579
0.0073570703
0.0076673134
0.0082562167
0.0091398714
0.010335194
0.011859138
0.013727961
0.0159565
0.018553201
0.021520495
0.024859797
0.02855847
0.032586765
0.036903974
0.041447358
0.046120517
0.050786818
0.047300441
0.042610193
0.038011813
0.033612203
0.029483871
0.025671062
0.022199011
0.019088476
0.016351212
0.013979438
0.011962533
0.010291366
0.0089518111
0.0079276636
0.0072026164
0.0067609254
0.0065878937
0.0066705664
0.0069987908
0.0075655522
0.0083674187
0.0094068158
0.010690825
0.012237973
0.01410852
0.016343669
0.019000346
0.022300091
0.026731929
0.032988464
0.041810518
0.053425627
0.067043598
0.081758956
0.097910978
0.11595144
0.13413661
0.13787177
0.11395927
0.075041819
0.028581007
0.062640276
0.091358355
0.095478424
0.08718473
0.077876805
0.067870343
0.057208899
0.046356633
0.036865241
0.029690985
0.024699962
0.021128973
0.018355265
0.015987301
0.013888311
0.012050095
0.010460567
0.0090929646
0.0079487748
0.0070283383
0.0063316301
0.0058624916
0.0056276476
0.0056364959
0.0059006321
0.0064331015
0.0072483472
0.0083619034
0.0097894303
0.0115452
0.013641425
0.016089186
0.018900847
0.0220791
0.025610733
0.029481514
0.033671845
0.038135862
0.042801635
0.037353084
0.032793732
0.02854421
0.02463723
0.021093451
0.017913577
0.015094931
0.01263496
0.010524058
0.0087486969
0.0072945391
0.0061471493
0.0052920247
0.0047143249
0.0043995795
0.0043347784
0.004508637
0.0049111583
0.0055339336
0.0063705516
0.0074164553
0.0086691582
0.010120625
0.011760135
0.013579608
0.015565862
0.017704154
0.020065007
0.022958685
0.026933649
0.032655076
0.040156191
0.048253221
0.054880086
0.058886207
0.059795758
0.058656372
0.049218711
0.028417067
0.022929234
0.016482292
0.0084815437
0.023112458
0.032666055
0.039452759
0.044337348
0.044797473
0.04130614
0.035407206
0.029499861
0.024879527
0.021640318
0.019209294
0.01712051
0.015131254
0.013203859
0.011373337
0.0096776308
0.0081412411
0.0067799858
0.0056066593
0.0046267229
0.0038448531
0.0032669142
0.0028999282
0.0027520959
0.0028329347
0.0031538238
0.0037277859
0.0045686779
0.0056910471
0.0071105741
0.0088437633
0.0109071
0.013316381
0.016086396
0.019232587
0.022769869
0.026708079
0.031054843
0.024032382
0.020023841
0.016495462
0.013406239
0.010722483
0.0084147147
0.006456857
0.0048257824
0.0035005645
0.0024619795
0.0016922327
0.0011752247
0.00089672341
0.00084402383
0.0010058273
0.0013725862
0.0019366238
0.0026916919
0.0036325092
0.0047540817
0.0060521514
0.0075197144
0.009144647
0.010907722
0.012776686
0.014710445
0.016650093
0.018617087
0.020828395
0.023691212
0.027726926
0.032744724
0.037467579
0.039270407
0.036459575
0.028767161
0.019606052
0.01009171
0.0017525564
0.019448219
0.019418872
0.0017003371
0.01005822
0.01955614
0.028697889
0.036369189
0.039161062
0.037336144
0.032587464
0.02753867
0.023471546
0.020576108
0.018324824
0.016308337
0.014313057
0.012318806
0.010379878
0.0085363916
0.0068202207
0.0052493249
0.0038328433
0.0025752812
0.0014810306
0.00055310287
-0.00020541332
-0.00079033667
-0.0011959339
-0.001414593
-0.0014368671
-0.0012514048
-0.0008446974
-0.0002008901
0.00069834906
0.001874133
0.0033509319
0.0051573507
0.0073270871
0.0099004184
0.012926946
0.016469972
0.0086254842
0.0056528796
0.0031966776
0.0011849875
-0.00043983078
-0.0017241551
-0.0027063047
-0.0034182449
-0.0038866422
-0.0041336223
-0.0041774328
-0.0040331764
-0.003713344
-0.0032278084
-0.0025840918
-0.0017878236
-0.0008427451
0.00024903552
0.0014866102
0.0028693635
0.0043952253
0.0060623626
0.0078688645
0.0098029274
0.011841107
0.013951298
0.016103425
0.018334868
0.020890356
0.024234723
0.028946088
0.034937651
0.040910996
0.044469592
0.044071017
0.039243785
0.032507572
0.022993106
0.0083759957
0.016420232
0.022843094
0.028265809
0.049015351
0.058388985
0.059449173
0.058448574
0.05434345
0.047607166
0.03938911
0.031754059
0.025882185
0.02172949
0.018632479
0.016037421
0.013634052
0.011350615
0.009190766
0.0071617454
0.0052709558
0.0035158656
0.0018926412
0.00039829245
-0.0009687412
-0.0022107391
-0.0033292256
-0.004324175
-0.0051936595
-0.005933972
-0.0065394615
-0.0070017379
-0.0073094711
-0.0074485777
-0.0074013102
-0.0071450334
-0.0066516099
-0.005886909
-0.0048097912
-0.0033716894
-0.0015135414
0.00083233571
-0.0065111692
-0.0082390413
-0.0095226016
-0.010419139
-0.010980526
-0.011255668
-0.011289054
-0.011117002
-0.010769176
-0.010268803
-0.0096331023
-0.0088751583
-0.0080051341
-0.0070300249
-0.0059538392
-0.0047785011
-0.0035042451
-0.0021292576
-0.00064965336
0.00093989746
0.0026454319
0.0044762168
0.0064429934
0.0085607562
0.01085752
0.013357337
0.016087959
0.019181067
0.02302847
0.028261454
0.03564161
0.045316073
0.05633324
0.067141642
0.077280573
0.086709685
0.095107737
0.091077949
0.062445876
0.028466312
0.074897265
0.11371583
0.13752781
0.13367382
0.11536078
0.097174401
0.080863596
0.06596988
0.052145852
0.040303475
0.031226533
0.024672574
0.019900358
0.016206529
0.013101745
0.010371056
0.0079415227
0.0057477098
0.0037190562
0.0018286239
5.7951503e-05
-0.0016080544
-0.0031805038
-0.0046675653
-0.006075119
-0.0074065331
-0.0086631433
-0.0098444377
-0.01094761
-0.011966947
-0.012893438
-0.013714712
-0.014413587
-0.014965724
-0.0153394
-0.015494836
-0.015381881
-0.014948718
-0.014145461
-0.012923344
-0.017976278
-0.018885345
-0.019357636
-0.019445096
-0.019205869
-0.018704568
-0.01799947
-0.017135736
-0.016147875
-0.015061926
-0.013895731
-0.012661363
-0.011366884
-0.010016881
-0.0086132879
-0.0071557289
-0.0056416731
-0.0040664484
-0.0024225927
-0.00069975253
0.00111799
0.0030495369
0.0051217866
0.0073725794
0.0099074815
0.012843382
0.016312141
0.020629499
0.026402352
0.034439844
0.04543883
0.059539614
0.075855489
0.093881848
0.11511101
0.14088198
0.16684389
0.17491585
0.14736379
0.08798734
0.12775193
0.16435427
0.1870461
0.18147857
0.15657454
0.1290792
0.10584517
0.085771972
0.067062621
0.050452803
0.037304477
0.027822985
0.021167457
0.016329661
0.012579266
0.0094987931
0.0068963214
0.0046134424
0.0025176461
0.00056374817
-0.0012840172
-0.0030456078
-0.0047385994
-0.0063768513
-0.0079684527
-0.0095181602
-0.011029626
-0.012504235
-0.013940435
-0.015334186
-0.016678042
-0.017959848
-0.019160715
-0.020252837
-0.021198442
-0.021946697
-0.0224296
-0.022561182
-0.022259043
-0.021446165
-0.083762675
-0.066706492
-0.052301289
-0.040194281
-0.030059138
-0.021598342
-0.014545463
-0.0086685654
-0.0037673451
0.00033128485
0.0037740495
0.006681291
0.009154824
0.011279903
0.013125956
0.014749936
0.016200086
0.017516147
0.018729712
0.019868138
0.020957513
0.022022007
0.023084906
0.024174261
0.025325676
0.026580343
0.028009015
0.029726583
0.031911698
0.034862275
0.039083028
0.045415417
0.055079203
0.069225917
0.088165819
0.11102177
0.13613897
0.16013169
0.17861966
0.18486002
0.17163018
0.14425371
0.12812306
0.12949569
0.15819809
0.13864168
0.15033668
0.12084632
0.11858242
0.11696996
0.12573803
0.13454711
0.140879
0.14488676
0.14758619
0.14940051
0.15062886
0.15147321
0.15205503
0.15245316
0.15271212
0.15285462
0.15292163
0.15291381
0.15283835
0.15269008
0.15247569
0.15217709
0.15177201
0.15122972
0.15050637
0.14953546
0.14818141
0.14623463
0.14339874
0.13927572
0.13290955
0.12405182
0.11518388
0.11670424
0.11887906
0.14824426
0.13651876
0.15601495
0.12732498
0.17434132
0.21604431
0.22863085
0.22749275
0.20055485
0.18121905
0.17232098
0.17594273
0.1861349
0.19608077
0.20426322
0.21036833
0.21462121
0.21752645
0.21953366
0.22095378
0.22197834
0.22272427
0.22326524
0.22364737
0.22389737
0.22402431
0.22402847
0.22389468
0.22360172
0.22309401
0.22230546
0.22111493
0.21931971
0.2166139
0.212554
0.20664569
0.19869889
0.18883513
0.17872787
0.17530586
0.18437816
0.20388023
0.23094902
0.23216467
0.2196209
0.17785867
0.19986237
0.23505748
0.2555756
0.24433102
0.2223619
0.19852481
0.18493288
0.18181976
0.18721654
0.19598475
0.20455648
0.21158025
0.2167846
0.22046186
0.22300358
0.22473776
0.22589615
0.2266467
0.22709573
0.22730549
0.22731534
0.22714396
0.22679268
0.22624397
0.22546039
0.22437721
0.22289074
0.2208431
0.21800029
0.21404128
0.20857945
0.20131297
0.19245116
0.18348331
0.17795542
0.18083253
0.19417616
0.21777441
0.23957573
0.25070579
0.23016909
0.19498703
0.19106771
0.20889518
0.21854233
0.20820063
0.19129612
0.17327286
0.16099003
0.1557893
0.157107
0.16258901
0.16929478
0.17560255
0.18089692
0.18508165
0.18828488
0.19069785
0.19250221
0.19384276
0.19482334
0.1955139
0.19595669
0.19617119
0.19615635
0.19589143
0.19533185
0.19441123
0.19301698
0.1910016
0.18818349
0.18436994
0.17942982
0.1734635
0.16703164
0.16179721
0.16066559
0.16616013
0.17874322
0.19703786
0.21419045
0.22465896
0.21505185
0.19727365
0.17754944
0.18011798
0.18065979
0.17370105
0.16246116
0.14996675
0.139893
0.13393384
0.13234694
0.13429016
0.1380041
0.14211402
0.14598469
0.14926576
0.15186279
0.15382074
0.15523175
0.15618576
0.15676741
0.1570364
0.15703194
0.15677309
0.15626147
0.15547934
0.15439017
0.15293606
0.15103911
0.14860552
0.14554444
0.14181342
0.13750675
0.13298844
0.12902763
0.12681511
0.12806604
0.13365632
0.14339397
0.15559622
0.1665675
0.17336362
0.17268204
0.17011728
0.14500635
0.14026783
0.13639419
0.13122674
0.12358023
0.11489659
0.10727133
0.10190762
0.099298428
0.099225112
0.10092793
0.103585
0.10655693
0.10943276
0.11200018
0.11418107
0.11597132
0.11739951
0.11850437
0.11931987
0.11986995
0.12016646
0.12020784
0.11997941
0.11945418
0.11859329
0.11735763
0.11571644
0.11367265
0.11129495
0.10879162
0.1065359
0.10516249
0.10563566
0.10883449
0.11462848
0.12258482
0.13152962
0.13936066
0.14475273
0.1488359
0.15359653
0.13067788
0.12362486
0.11724001
0.11170495
0.10535292
0.098522859
0.092133046
0.08690217
0.083190979
0.081288812
0.080988499
0.081753502
0.083022134
0.084459741
0.085837019
0.087019156
0.087946033
0.088602578
0.088992745
0.089130013
0.089027605
0.08869439
0.088131163
0.087333937
0.086293474
0.085000222
0.083452896
0.081672145
0.079723819
0.077743158
0.075965443
0.074740367
0.074515133
0.075815183
0.078865412
0.083668504
0.089750905
0.096348506
0.10251098
0.10782577
0.11408949
0.12099419
0.097390639
0.091156781
0.084519947
0.078865726
0.073541786
0.068239268
0.063210638
0.058963069
0.055876237
0.053981874
0.053305866
0.053549274
0.054413648
0.055628576
0.056982105
0.058328109
0.059576363
0.060677177
0.061605191
0.062350869
0.06291041
0.063282155
0.063464003
0.063453667
0.063250263
0.062859761
0.062301859
0.061621234
0.060902056
0.060291134
0.059997169
0.060332228
0.061671672
0.064224744
0.067865611
0.072514716
0.077869522
0.083447414
0.089022556
0.094847087
0.10159166
0.10799917
0.086499576
0.081686159
0.075943464
0.070550408
0.065608353
0.060850559
0.05628378
0.052141032
0.048668318
0.045945048
0.044071816
0.042995148
0.042536942
0.04246727
0.042608083
0.042824817
0.043024567
0.043147197
0.043157184
0.043035649
0.042773954
0.042369455
0.04182493
0.04114635
0.040346359
0.039448573
0.038492424
0.037542642
0.036695454
0.036086742
0.035888439
0.036292437
0.037478915
0.039592137
0.042618206
0.046323166
0.050506793
0.05493825
0.059626986
0.064834102
0.070390362
0.075090819
0.056050742
0.052872416
0.048618673
0.044361918
0.040436215
0.036777836
0.033353544
0.030243606
0.027492928
0.025417497
0.02398962
0.023198239
0.022946443
0.02310588
0.023547085
0.024156947
0.024845776
0.025547127
0.026216123
0.026821823
0.027346221
0.02777992
0.028120944
0.028374589
0.028555246
0.028689251
0.028819335
0.029008952
0.029347778
0.029949552
0.030951164
0.032478479
0.034591849
0.037271994
0.040441386
0.044003524
0.047839614
0.051851696
0.056060159
0.060517534
0.064915552
0.068181303
0.054275952
0.052324315
0.049400431
0.04606203
0.042683737
0.039402193
0.036217643
0.033170181
0.030321362
0.027771445
0.025609249
0.023880845
0.022571163
0.021616566
0.020927699
0.020418059
0.020013445
0.019655946
0.019303634
0.018928463
0.018513955
0.018053447
0.017548884
0.017010933
0.016459859
0.015927022
0.015457816
0.015112027
0.014964857
0.01510329
0.015617777
0.016587
0.018053781
0.019978682
0.022311428
0.024912322
0.027671544
0.030592584
0.033679221
0.036789912
0.039569918
0.041434755
0.031343685
0.03027812
0.028602408
0.026507525
0.024259582
0.022016069
0.019818678
0.017692037
0.015776298
0.01406809
0.01268594
0.011679179
0.011038929
0.010723399
0.010674519
0.010830052
0.011131596
0.011529383
0.011982978
0.012463313
0.012950695
0.01343451
0.013912789
0.014392222
0.014888682
0.015427994
0.016046628
0.016791731
0.017718806
0.018886417
0.020345736
0.022123752
0.024211062
0.026556092
0.029080466
0.031703082
0.034354497
0.036992797
0.039567884
0.041924347
0.04377684
0.044931529
0.03881976
0.038149668
0.036973478
0.035337512
0.033401416
0.031294052
0.029089305
0.026843105
0.024623227
0.022498838
0.020537071
0.018788043
0.017274314
0.015991345
0.014914072
0.014006869
0.013231695
0.012553515
0.011943389
0.01137989
0.010849427
0.010346238
0.009872256
0.0094371821
0.0090584889
0.0087614563
0.0085787338
0.0085493253
0.0087157233
0.0091193036
0.0097934061
0.010754264
0.011990221
0.013449676
0.015029608
0.016704339
0.018419671
0.020093571
0.021661723
0.023017221
0.024002512
0.024564195
0.019910786
0.019629454
0.019064985
0.018202039
0.017115095
0.015882213
0.014572062
0.013259134
0.01196222
0.010742721
0.0096738877
0.0088037937
0.0081541464
0.007724759
0.0074998644
0.0074544573
0.007559766
0.0077873851
0.0081122558
0.0085140752
0.0089783497
0.0094967759
0.010067422
0.010694647
0.011388968
0.012166588
0.013048481
0.014058428
0.015219941
0.016551622
0.018061446
0.019740895
0.021561844
0.023477847
0.025431009
0.027360417
0.029204439
0.030901048
0.032374468
0.033531609
0.034301562
0.034708209
0.031803054
0.031521638
0.030976524
0.030117941
0.028966113
0.02758057
0.026025305
0.024358506
0.022635261
0.020908833
0.019229352
0.017639075
0.016167891
0.014831592
0.013633161
0.012566039
0.011618037
0.010774863
0.010022881
0.0093510098
0.0087519681
0.0082229004
0.0077657372
0.0073872103
0.007098621
0.0069152076
0.0068550919
0.0069373204
0.0071795627
0.0075946305
0.0081864657
0.0089459885
0.0098478316
0.010849561
0.011895791
0.012931098
0.013919965
0.014819279
0.015570923
0.016118131
0.016443973
0.016591344
0.014140838
0.014056691
0.013859631
0.013505341
0.012984712
0.012329791
0.011581064
0.010771813
0.0099391991
0.0091271318
0.0083794631
0.0077329283
0.0072133648
0.0068348963
0.0066012578
0.0065082537
0.0065465727
0.0067043459
0.0069697057
0.0073320376
0.0077831122
0.0083177329
0.0089340403
0.0096334647
0.010420353
0.011301244
0.012283607
0.013374192
0.014576822
0.01588982
0.017303406
0.018797991
0.020343879
0.021902939
0.023431722
0.024884356
0.026213363
0.027369455
0.028304141
0.028982966
0.029410388
0.029635658
0.027924794
0.027725055
0.027359911
0.026787628
0.025995747
0.025002833
0.023844892
0.022562154
0.021194187
0.01977963
0.018355702
0.016956312
0.015609771
0.014337248
0.013152485
0.01206272
0.011070154
0.010173699
0.0093706979
0.0086584088
0.008034983
0.0075001972
0.0070558082
0.0067056298
0.0064552451
0.0063114027
0.006280986
0.0063700223
0.0065815703
0.006913897
0.0073586403
0.0078995242
0.0085121169
0.0091651201
0.0098234095
0.010452167
0.011020279
0.01150019
0.011866188
0.012106114
0.012233099
0.012283954
0.010876726
0.010837073
0.01074529
0.010573343
0.010307025
0.0099487105
0.0095139768
0.009023573
0.0085023324
0.007977942
0.0074786985
0.0070308769
0.0066564595
0.0063718883
0.0061878537
0.0061098997
0.0061394897
0.00627534
0.0065143469
0.0068529114
0.0072876689
0.0078160517
0.0084364587
0.0091482378
0.0099512819
0.010845466
0.011829786
0.012901244
0.01405356
0.015276061
0.016552863
0.017862545
0.0191787
0.020471361
0.021708747
0.022858638
0.023888692
0.024767033
0.025466962
0.025978115
0.026310269
0.026498293
0.025243577
0.025059853
0.024744019
0.024270341
0.02363162
0.0228363
0.021903329
0.020857088
0.019724478
0.018532737
0.017309402
0.016081179
0.014872523
0.013704411
0.012593664
0.011552843
0.01059074
0.0097131454
0.0089236432
0.0082243764
0.0076167615
0.007102031
0.0066814749
0.0063565604
0.0061287241
0.0059990113
0.0059674575
0.006032299
0.0061892159
0.0064305162
0.0067445626
0.0071155784
0.0075240878
0.007948066
0.0083646301
0.0087517559
0.0090910115
0.0093672992
0.0095708073
0.0097030032
0.009776899
0.0098128166
0.0090201709
0.0089901737
0.0089288918
0.008822019
0.0086594132
0.0084386156
0.0081655755
0.0078520169
0.0075123828
0.0071636924
0.0068243733
0.0065128674
0.0062462769
0.0060393243
0.0059038314
0.0058486337
0.0058798682
0.006001406
0.0062153909
0.0065227311
0.0069235399
0.0074173371
0.0080032031
0.0086796542
0.0094444347
0.010294063
0.011223358
0.01222484
0.013288224
0.014399962
0.0155431
0.016697526
0.017840701
0.018948707
0.019997159
0.020962636