/*--------------------------------*- C++ -*----------------------------------*\
| =========                 |                                                 |
| \\      /  F ield         | OpenFOAM: The Open Source CFD Toolbox           |
|  \\    /   O peration     | Version:  v2012                                 |
|   \\  /    A nd           | Website:  www.openfoam.com                      |
|    \\/     M anipulation  |                                                 |
\*---------------------------------------------------------------------------*/
FoamFile
{
    version     2.0;
    format      ascii;
    class       volVectorField;
    location    "0";
    object      U;
}
// * * * * * * * * * * * * * * * * * * * * * * * * * * * * * * * * * * * * * //

dimensions      [0 1 -1 0 0 0 0];


internalField   nonuniform List<vector> 
33282
(
(4.9740982 -0.00089563749 0.00017980214)
(4.9764497 -0.00076198168 0.00022097859)
(4.9785921 -0.00064591478 0.00024315938)
(4.9805273 -0.0005459363 0.00025348819)
(4.9822673 -0.0004604002 0.00025618978)
(4.983828 -0.00038784001 0.00025359385)
(4.9852266 -0.00032639018 0.00024771163)
(4.9864801 -0.00027427638 0.00023977077)
(4.987604 -0.00023030687 0.00023024505)
(4.9886128 -0.00019331339 0.00021994919)
(4.9895193 -0.00016218363 0.0002090004)
(4.9903344 -0.00013590226 0.00019750698)
(4.9910674 -0.00011352438 0.0001861124)
(4.9917268 -9.4455719e-05 0.00017483179)
(4.9923195 -7.8270905e-05 0.00016340555)
(4.9928508 -6.424107e-05 0.00015165658)
(4.9933243 -5.19001e-05 0.00013968811)
(4.9937434 -4.0966194e-05 0.0001278093)
(4.9941103 -3.0148323e-05 0.00011614314)
(4.9944244 -1.8821394e-05 0.0001043162)
(4.9946854 -1.0706406e-05 8.9622304e-05)
(4.9948867 3.4411607e-06 7.493855e-05)
(4.9950204 1.8493668e-05 6.0239221e-05)
(4.9950715 3.7306668e-05 3.727445e-05)
(4.9950151 6.4745994e-05 1.3337494e-05)
(4.9948286 9.9315605e-05 -1.3660582e-05)
(4.9944634 0.0001485653 -5.7945917e-05)
(4.9938413 0.00022068702 -0.00011537278)
(4.9928635 0.00032214136 -0.00019318468)
(4.9914045 0.00044754186 -0.00030614101)
(4.9893916 0.00056240204 -0.00043226902)
(4.987028 0.00068059039 -0.00037689801)
(4.9841924 0.0010395859 -0.00036640297)
(4.9838731 -0.00019335885 0.00090711463)
(4.9864616 0.00010975033 0.0012043039)
(4.9948653 -0.0026022187 0.0034275994)
(5.0067312 -0.0017606749 0.0026759646)
(5.019573 -0.0029952838 0.0042700053)
(5.0249559 0.0022599867 -0.0003287791)
(5.0114274 0.0097602849 -0.0021512007)
(5.0344951 -0.018398035 0.0212715)
(5.0236737 -0.012311374 0.03646689)
(5.0641018 -0.0092477475 0.069192416)
(5.0543759 -0.029944871 0.07402035)
(5.0677532 -0.016060633 0.057904258)
(5.0455707 -0.025085997 0.046406908)
(5.0452156 -0.016735731 0.014425656)
(5.0411711 -0.019710442 0.0032045851)
(5.0446673 -0.020254535 -0.0060981647)
(5.0497129 -0.022134313 -0.0064074303)
(5.0540931 -0.023426044 -0.0046001456)
(5.0570116 -0.024237029 -0.0023201309)
(5.0589384 -0.024669892 -0.0008519422)
(5.0601753 -0.024885948 -9.9419378e-05)
(5.0610061 -0.024979243 0.00016958097)
(5.0616058 -0.025014453 0.0001963839)
(5.0620679 -0.025021285 0.00015669403)
(5.0624317 -0.025020187 0.00012466228)
(5.062729 -0.025016593 0.00010428131)
(5.0629822 -0.025021921 9.0481722e-05)
(5.0632003 -0.025030619 7.5989173e-05)
(5.0633843 -0.025025405 6.2273489e-05)
(5.0635403 -0.02501744 5.4301979e-05)
(5.0636733 -0.025026844 4.5906946e-05)
(5.0637729 -0.025038506 2.940611e-05)
(5.063834 -0.0250248 1.0391977e-05)
(5.0638281 -0.025015204 -9.7111534e-06)
(5.0637662 -0.025028982 -4.2173335e-05)
(5.0635948 -0.025029269 -8.0082647e-05)
(5.0632675 -0.024990431 -4.1123044e-05)
(5.0626907 -0.024897463 0.00023557374)
(5.0616953 -0.024681176 0.00098448183)
(5.0599986 -0.02424553 0.0024520125)
(5.0573151 -0.023439022 0.0047387595)
(5.0531897 -0.02215188 0.0065512902)
(5.0484177 -0.020270984 0.0062202383)
(5.0450883 -0.019731042 -0.0031314111)
(5.0492251 -0.016751907 -0.014394567)
(5.0496685 -0.025105139 -0.046409918)
(5.0719404 -0.016076713 -0.057923623)
(5.058623 -0.02997352 -0.074058691)
(5.068423 -0.0092629784 -0.069228074)
(5.0279976 -0.012333999 -0.03648147)
(5.0388529 -0.018429068 -0.021282323)
(5.0113167 -0.028602205 -0.0051506695)
(5.0349798 -0.068536515 0.011659879)
(5.0133347 -0.08049883 -0.010285759)
(5.0196015 -0.062543388 0.0043569984)
(4.9903062 -0.049607741 -0.0012649273)
(4.9901456 -0.0169813 0.0024093021)
(4.9846056 -0.0075248675 0.00024084817)
(4.9860257 -0.0001161295 -5.9729852e-07)
(4.9860388 0.00014012503 3.4087381e-06)
(4.9846209 0.0075327804 0.00023885972)
(4.9901623 0.016981292 0.0024079586)
(4.9903257 0.049606206 -0.001265459)
(5.0196243 0.062542696 0.0043567054)
(5.0133606 0.080498247 -0.010286081)
(5.0350081 0.068534929 0.011658678)
(5.0113484 0.028598625 -0.005153659)
(5.0388875 0.018426631 -0.0212923)
(5.0280271 0.012333448 -0.03649623)
(5.0684561 0.0092599604 -0.069259983)
(5.0586542 0.029973602 -0.074107781)
(5.0719676 0.016079851 -0.057954004)
(5.0496958 0.025107911 -0.04641229)
(5.0492533 0.016753681 -0.014374557)
(5.0451171 0.019731972 -0.0030964514)
(5.0484489 0.020270917 0.0062632968)
(5.0532257 0.022150747 0.0065961947)
(5.0573496 0.023438696 0.0047795477)
(5.0600339 0.024243731 0.0024831689)
(5.0617315 0.024679912 0.0010040124)
(5.0627265 0.024895474 0.00024476433)
(5.0633022 0.024986646 -3.9393022e-05)
(5.0636297 0.025027346 -8.1281624e-05)
(5.0638029 0.02502685 -4.5627771e-05)
(5.0638694 0.025031569 -1.0218802e-05)
(5.0638666 0.025028166 1.5038437e-05)
(5.0638091 0.025019678 2.9149862e-05)
(5.063715 0.025025304 4.2101128e-05)
(5.0635843 0.025026572 5.4104101e-05)
(5.0634264 0.025029782 6.5865333e-05)
(5.0632379 0.025019686 7.6704005e-05)
(5.0630229 0.025023022 8.7755978e-05)
(5.0627715 0.025021729 0.00010426507)
(5.0624728 0.025019913 0.00012618266)
(5.0621082 0.025016308 0.00015583404)
(5.061649 0.025013648 0.00018947405)
(5.0610521 0.024976772 0.00014614321)
(5.0602195 0.02488688 -0.00013881949)
(5.0589814 0.024670504 -0.0008953367)
(5.0570537 0.024235537 -0.0023654571)
(5.0541352 0.023426452 -0.0046476495)
(5.0497571 0.022132899 -0.0064553824)
(5.0447075 0.020254066 -0.0061438997)
(5.0412096 0.01971086 0.00316559)
(5.0452533 0.016737007 0.014399972)
(5.0456069 0.025088607 0.046404256)
(5.0677893 0.01606382 0.057933098)
(5.0544187 0.029945303 0.074071953)
(5.0641506 0.009245502 0.069226494)
(5.0237205 0.012313917 0.036482393)
(5.0345419 0.018400211 0.021282281)
(5.0070261 0.028558855 0.0051552748)
(5.0306607 0.068448465 -0.011641568)
(5.0090427 0.080389686 0.010283404)
(5.0153016 0.062470071 -0.0043517988)
(4.9860348 0.049569912 0.0012662682)
(4.9858654 0.016983991 -0.0024026493)
(4.9803248 0.0075410475 -0.00023527805)
(4.9817399 0.00014312887 1.5628638e-06)
(4.9817281 -0.00012693429 8.3697022e-06)
(4.980312 -0.0075373396 -0.00023269613)
(4.9858499 -0.016982379 -0.0024023695)
(4.9860149 -0.04956228 0.0012654095)
(5.0152775 -0.062452966 -0.004352658)
(5.0090132 -0.080369362 0.010283922)
(5.0306266 -0.068438777 -0.011640683)
(5.0069872 -0.028556627 0.0051531949)
(5.0662906 -0.048260142 0.020937635)
(5.0997376 -0.10837384 0.0091600163)
(5.0909017 -0.16161424 0.046207811)
(5.0679811 -0.17229063 0.029404759)
(5.0373003 -0.14219023 0.038473187)
(5.0238801 -0.094569004 0.033760113)
(5.018427 -0.050683953 0.038389463)
(5.0185383 -0.015140611 0.039771409)
(5.0185353 0.015086903 0.03976081)
(5.0184345 0.050666591 0.038384995)
(5.0238943 0.094563011 0.033759882)
(5.0373215 0.14219053 0.03847518)
(5.0680083 0.1722946 0.029406472)
(5.0909343 0.16162035 0.046207649)
(5.0997745 0.10838132 0.0091612616)
(5.0663316 0.048266746 0.020941377)
(5.1096481 0.066348913 0.063408135)
(5.1465603 0.16778629 0.088847775)
(5.1299357 0.24962657 0.12574865)
(5.0873422 0.26504796 0.13277836)
(5.050403 0.21998803 0.13959417)
(5.0326713 0.1501846 0.13997829)
(5.0279277 0.081770816 0.14417954)
(5.0286683 0.025193817 0.14650323)
(5.0286756 -0.025276861 0.1465013)
(5.0279223 -0.081797115 0.14418026)
(5.0326572 -0.15019378 0.13997695)
(5.0503808 -0.21999028 0.13959189)
(5.0873137 -0.26504811 0.13277651)
(5.1299018 -0.24962576 0.12574723)
(5.1465215 -0.16778651 0.088843193)
(5.1096047 -0.066351375 0.063397743)
(5.11309 -0.11364785 0.11451131)
(5.1518044 -0.2280396 0.16869831)
(5.1241582 -0.31704378 0.21410871)
(5.0666548 -0.32698364 0.23377409)
(5.0203987 -0.26659445 0.23980581)
(4.9988145 -0.17902621 0.24172776)
(4.9938957 -0.096451011 0.24402171)
(4.9952721 -0.029452817 0.24576957)
(4.9952694 0.029416942 0.24577935)
(4.9939027 0.096435238 0.24402534)
(4.9988301 0.17902075 0.24173104)
(5.020422 0.26659264 0.23980809)
(5.0666845 0.32698277 0.23377599)
(5.1241927 0.31704405 0.2141109)
(5.1518425 0.22804098 0.16870342)
(5.1131302 0.11364922 0.11452708)
(5.1008415 0.10278526 0.13212379)
(5.1253459 0.2458101 0.19825159)
(5.0830672 0.3451316 0.2439238)
(5.0128216 0.35180875 0.26306705)
(4.9593173 0.28299743 0.2670844)
(4.9354335 0.18719986 0.26674171)
(4.9308851 0.099325851 0.26665724)
(4.9332908 0.029997533 0.2669535)
(4.9332909 -0.030010497 0.26694739)
(4.9308751 -0.09932613 0.26665275)
(4.9354158 -0.18719855 0.26673855)
(4.9592931 -0.28299771 0.26708261)
(5.0127916 -0.3518091 0.26306534)
(5.0830326 -0.34513072 0.24392167)
(5.1253086 -0.24580725 0.19824768)
(5.1008041 -0.10278019 0.13211399)
(5.0777408 -0.11566252 0.11491547)
(5.0963272 -0.25252588 0.17506296)
(5.0452617 -0.35087112 0.21165212)
(4.9678594 -0.35535501 0.22481676)
(4.9107405 -0.28339828 0.22560494)
(4.8860643 -0.1852472 0.22290731)
(4.8822286 -0.096971938 0.22086252)
(4.8856865 -0.029069557 0.21995774)
(4.8856891 0.02908106 0.21996148)
(4.8822415 0.096980012 0.2208654)
(4.8860837 0.18525113 0.22290896)
(4.9107655 0.283399 0.22560596)
(4.9678897 0.35535526 0.22481793)
(5.0452962 0.35087239 0.2116534)
(5.0963643 0.25252884 0.17506418)
(5.0777778 0.11566717 0.11491625)
(5.0685178 0.10398961 0.080262981)
(5.0817023 0.24937196 0.1261012)
(5.0268798 0.34966278 0.14993196)
(4.9471966 0.35252625 0.15646148)
(4.8892946 0.2791049 0.15460056)
(4.8647326 0.18064442 0.15069945)
(4.8615029 0.093517287 0.1476868)
(4.8657011 0.027875842 0.14617777)
(4.8656981 -0.027861574 0.1461785)
(4.8614886 -0.093507509 0.14768607)
(4.8647123 -0.18063985 0.15069912)
(4.8892691 -0.27910367 0.15460031)
(4.9471662 -0.35252559 0.15646119)
(5.026845 -0.34966145 0.14993202)
(5.0816649 -0.2493697 0.12610314)
(5.06848 -0.10398701 0.080270915)
(5.0653435 -0.10842011 0.045627582)
(5.0784978 -0.25111819 0.075704264)
(5.0236764 -0.34928752 0.089200159)
(4.9444938 -0.35005133 0.091253459)
(4.887396 -0.2753315 0.0884473)
(4.8635024 -0.17669454 0.084783084)
(4.8608986 -0.090625126 0.081982307)
(4.8657577 -0.026887213 0.080551489)
(4.8657579 0.026887384 0.08054997)
(4.8609129 0.09063232 0.081981657)
(4.8635227 0.17669866 0.084782481)
(4.8874216 0.275333 0.088446751)
(4.9445243 0.35005228 0.091252677)
(5.0237112 0.34928876 0.089198504)
(5.0785355 0.2511197 0.075699322)
(5.065382 0.10842129 0.04561287)
(5.069474 0.11025844 0.021008184)
(5.0836583 0.25350106 0.038767667)
(5.0307918 0.35039061 0.045419217)
(4.9536945 0.34916265 0.04553852)
(4.898344 0.27315875 0.043263326)
(4.875616 0.1741869 0.04075209)
(4.8737712 0.088746661 0.03887461)
(4.8793147 0.026246408 0.037919017)
(4.8793147 -0.026252127 0.03791978)
(4.8737576 -0.088742916 0.038875851)
(4.8755962 -0.17418383 0.04075338)
(4.8983187 -0.27315728 0.043264867)
(4.9536642 -0.3491616 0.045540687)
(5.0307571 -0.35038961 0.045422794)
(5.0836204 -0.25350047 0.038775352)
(5.0694348 -0.11025882 0.021027283)
(5.0762251 -0.1139072 0.0078953633)
(5.0920499 -0.25627405 0.017348517)
(5.0409884 -0.35164103 0.020540788)
(4.9654557 -0.3489187 0.020205853)
(4.911231 -0.27198474 0.018723216)
(4.8891593 -0.17274825 0.017233388)
(4.8876741 -0.087664763 0.016134034)
(4.8935486 -0.02588737 0.015572399)
(4.893548 0.025875231 0.015571637)
(4.8876867 0.087664904 0.016132499)
(4.8891784 0.17274993 0.017231347)
(4.9112558 0.27198582 0.018720369)
(4.9654856 0.3489196 0.020201756)
(5.0410228 0.35164163 0.020534643)
(5.0920879 0.2562736 0.017337927)
(5.0762654 0.11390511 0.007874017)
(5.0823877 0.11632595 0.0026232515)
(5.0993574 0.25809213 0.0067796698)
(5.0494844 0.3525533 0.0082947238)
(4.9748796 0.3489263 0.0080388515)
(4.9212562 0.27144909 0.0072517915)
(4.8994988 0.17205837 0.0064939745)
(4.8981513 0.087147954 0.0059374617)
(4.9041403 0.025697632 0.0056757494)
(4.9041412 -0.02571448 0.0056762217)
(4.8981393 -0.087150743 0.0059393199)
(4.8994801 -0.1720583 0.0064968109)
(4.9212315 -0.27144881 0.0072559866)
(4.9748495 -0.34892581 0.0080450724)
(5.0494498 -0.35255327 0.0083040394)
(5.0993189 -0.25809445 0.0067934912)
(5.0823455 -0.11632758 0.002636029)
(5.0863518 -0.11803866 0.0011725601)
(5.1042722 -0.25944541 0.002401673)
(5.0551325 -0.35318358 0.0030138402)
(4.981048 -0.34906114 0.0029433974)
(4.9277447 -0.27129901 0.00268062)
(4.9061512 -0.17181624 0.0024206089)
(4.9048746 -0.086959036 0.0022235483)
(4.9109112 -0.02564753 0.0021472663)
(4.9109101 0.025627072 0.002147099)
(4.9048867 0.086953533 0.0022223165)
(4.9061706 0.17181434 0.0024187094)
(4.9277707 0.2712978 0.0026778324)
(4.98108 0.3490613 0.0029394112)
(5.0551687 0.3531833 0.0030020072)
(5.1043133 0.25944719 0.0023936415)
(5.086393 0.11803963 0.0011586603)
(5.0889372 0.11892736 0.00050141703)
(5.1073537 0.26019048 0.00095994688)
(5.0586406 0.35358299 0.0011165313)
(4.9847774 0.34914535 0.0011584961)
(4.9315466 0.27122125 0.0011472054)
(4.9099511 0.17171003 0.001121404)
(4.9086386 0.086885781 0.0010937572)
(4.914648 0.025603212 0.0010821467)
(4.914649 -0.025626699 0.0010822751)
(4.9086267 -0.086893618 0.0010941748)
(4.909932 -0.17171355 0.0011219666)
(4.9315209 -0.27122357 0.0011478846)
(4.9847454 -0.34914723 0.0011592073)
(5.0586028 -0.35358307 0.0011235577)
(5.1073126 -0.26018909 0.0009601486)
(5.0888949 -0.11892623 0.0005241345)
(5.0903922 -0.11932377 0.00026119149)
(5.1090432 -0.26050937 0.00049549328)
(5.0605351 -0.35380221 0.00056913745)
(4.986789 -0.34925468 0.00059586257)
(4.9335947 -0.27125889 0.00060236824)
(4.911998 -0.1717187 0.00060074836)
(4.9106727 -0.08689306 0.00059616361)
(4.9166779 -0.025627006 0.00059325203)
(4.9166766 0.025600458 0.0005931498)
(4.9106838 0.086882752 0.00059579794)
(4.912016 0.17171348 0.00060028115)
(4.9336191 0.27125556 0.00060186743)
(4.9868197 0.34925271 0.00059539655)
(5.0605714 0.35380127 0.00056851744)
(5.1090832 0.26050878 0.00049741247)
(5.0904354 0.1193244 0.00024660128)
(5.0913725 0.11949658 0.00019140318)
(5.1100942 0.26065607 0.00027771515)
(5.0616569 0.35391721 0.00033034747)
(4.9879557 0.34933502 0.00034128441)
(4.9347846 0.27130757 0.00034757502)
(4.9131951 0.17174257 0.00035116228)
(4.9118677 0.086896515 0.00035329574)
(4.9178619 0.025603507 0.00035455229)
(4.9178632 -0.025633194 0.00035445182)
(4.9118572 -0.086909289 0.00035350633)
(4.9131779 -0.17174929 0.00035147445)
(4.934761 -0.27131136 0.00034795984)
(4.9879259 -0.34933658 0.00034148316)
(5.0616216 -0.35391777 0.00032975667)
(5.1100545 -0.26065776 0.00027260608)
(5.0913296 -0.11950052 0.00019518607)
(5.0919716 -0.11957678 0.0001760719)
(5.1107282 -0.26073333 0.00018485574)
(5.0623211 -0.35398524 0.00021782719)
(4.9886484 -0.34939567 0.00022152962)
(4.9355005 -0.27135604 0.00022487392)
(4.9139286 -0.17177823 0.00022792006)
(4.9126146 -0.086925415 0.00023052119)
(4.9186251 -0.025639798 0.00023161307)
(4.9186242 0.025606914 0.00023338941)
(4.912625 0.086910801 0.00023070108)
(4.9139454 0.17177061 0.00022780143)
(4.9355235 0.27135235 0.0002244546)
(4.9886777 0.34939446 0.00022095151)
(5.0623565 0.3539822 0.00021824076)
(5.1107668 0.26072963 0.00019453442)
(5.092012 0.11957411 0.00017809228)
(5.0924842 0.119594 0.00015545541)
(5.1112513 0.26077354 0.00015938866)
(5.0628531 0.35403439 0.00015910491)
(4.9891842 0.34943877 0.00015781297)
(4.9360384 0.27138596 0.00015928811)
(4.9144672 0.17179234 0.00016159445)
(4.9131522 0.086922713 0.00016389669)
(4.9191571 0.02561766 0.00016609099)
(4.9191546 -0.025635493 0.00016440144)
(4.913141 -0.086935541 0.00016336874)
(4.9144503 -0.17179918 0.0001613584)
(4.9360157 -0.27138863 0.00016000658)
(4.9891556 -0.34943802 0.00015882203)
(5.0628195 -0.35402957 0.00015905961)
(5.1112136 -0.2607734 0.00015691279)
(5.0924436 -0.11960157 0.00015389676)
(5.092816 -0.11960764 0.00012818548)
(5.1115924 -0.26079672 0.0001425712)
(5.0632003 -0.3540645 0.00012381008)
(4.9895387 -0.34947131 0.00012232893)
(4.9364016 -0.27141468 0.00012254102)
(4.9148396 -0.17181493 0.00012253013)
(4.9135336 -0.086942187 0.00012407509)
(4.9195505 -0.025635389 0.00012606943)
(4.9195533 0.025623563 0.00012473211)
(4.9135456 0.086933239 0.00012448169)
(4.9148573 0.17180904 0.00012298756)
(4.936425 0.27141058 0.00012164547)
(4.9895675 0.34946953 0.00012151363)
(5.0632337 0.35406605 0.00012468)
(5.1116283 0.26079873 0.00012763936)
(5.0928552 0.11960765 0.00012522936)
(5.0931576 0.11961559 0.00010291324)
(5.1119346 0.26081597 0.0001053789)
(5.0635404 0.35408986 0.00010186147)
(4.9898738 0.34949314 9.8807264e-05)
(4.9367318 0.27142965 9.7752593e-05)
(4.9151656 0.17182236 9.8521206e-05)
(4.9138555 0.086941162 9.9459351e-05)
(4.9198636 0.025621456 9.9342083e-05)
(4.919864 -0.02564133 0.00010100201)
(4.9138434 -0.086946868 9.9283097e-05)
(4.9151472 -0.17182658 9.8300089e-05)
(4.9367077 -0.2714345 9.8366309e-05)
(4.9898445 -0.34949728 9.9034785e-05)
(5.0635058 -0.35409554 0.00010106752)
(5.1118946 -0.26081541 0.00010908506)
(5.0931168 -0.11960694 0.0001023283)
(5.0933717 -0.11961976 7.7707385e-05)
(5.1121531 -0.26082885 7.1489983e-05)
(5.0637627 -0.35410939 8.5473011e-05)
(4.9900989 -0.34951423 8.2748506e-05)
(4.9369612 -0.27144798 8.136422e-05)
(4.9154009 -0.17183484 8.1811304e-05)
(4.914098 -0.086950505 8.2288466e-05)
(4.9201202 -0.025641151 8.2920167e-05)
(4.9201194 0.025624753 8.2917349e-05)
(4.9141102 0.086947553 8.2442416e-05)
(4.9154193 0.17183375 8.1853289e-05)
(4.936985 0.27144735 8.1032298e-05)
(4.9901281 0.3495138 8.2430596e-05)
(5.0637967 0.35410745 8.5141902e-05)
(5.1121913 0.26082744 9.0313386e-05)
(5.0934114 0.11962098 8.6471977e-05)
(5.0936289 0.11962094 6.8193428e-05)
(5.1124094 0.26084125 6.959726e-05)
(5.0640139 0.35412785 7.337804e-05)
(4.990344 0.34952963 6.9459455e-05)
(4.9371998 0.27145942 6.834482e-05)
(4.9156339 0.17184229 6.9391271e-05)
(4.9143252 0.086952528 6.9802927e-05)
(4.9203351 0.025626403 7.0896436e-05)
(4.9203357 -0.025641838 6.9048253e-05)
(4.9143126 -0.086953352 6.9294257e-05)
(4.9156152 -0.17184058 6.9088373e-05)
(4.9371758 -0.27145708 6.8893275e-05)
(4.990315 -0.34952606 7.0014891e-05)
(5.063982 -0.35411603 7.1980475e-05)
(5.1123779 -0.26083619 8.1504785e-05)
(5.0935941 -0.11963445 8.2139075e-05)
(5.0937772 -0.11963135 9.1149605e-05)
(5.1125609 -0.26084923 9.7315317e-05)
(5.0641671 -0.35413611 5.9733644e-05)
(4.9904989 -0.34954069 5.9144678e-05)
(4.9373584 -0.27146751 5.8713503e-05)
(4.9157972 -0.17184624 5.8036417e-05)
(4.9144946 -0.086954526 5.8104947e-05)
(4.9205173 -0.02563458 5.702173e-05)
(4.92052 0.025635342 6.0839992e-05)
(4.9145087 0.086957763 5.9265838e-05)
(4.9158171 0.17184995 5.8781656e-05)
(4.9373834 0.27146988 5.7690262e-05)
(4.9905291 0.34954128 5.8703775e-05)
(5.0642026 0.35413138 6.2400087e-05)
(5.1126013 0.26084496 6.4356239e-05)
(5.0938193 0.1196349 6.7226612e-05)
(5.0939778 0.11963448 7.9873592e-05)
(5.1127593 0.26085675 7.0823853e-05)
(5.0643597 0.35414806 5.028967e-05)
(4.9906849 0.34955249 4.8231541e-05)
(4.9375383 0.27147807 4.7348706e-05)
(4.9159716 0.17185628 4.8327692e-05)
(4.9146636 0.086963573 4.8859999e-05)
(4.920676 0.025646861 4.9563613e-05)
(4.9206692 -0.025625024 4.5698231e-05)
(4.9146475 -0.08695459 4.6717719e-05)
(4.9159503 -0.17185168 4.7217154e-05)
(4.9375122 -0.27147823 4.7640056e-05)
(4.9906543 -0.34955516 4.7986463e-05)
(5.064323 -0.35415715 4.7614794e-05)
(5.1127128 -0.26086244 5.2272102e-05)
(5.0939299 -0.11962456 5.1720201e-05)
(5.0940683 -0.1196382 1.1519744e-05)
(5.1128526 -0.26086425 6.3911642e-06)
(5.064456 -0.3541564 3.5809682e-05)
(4.990783 -0.34956074 3.6189974e-05)
(4.9376385 -0.27148313 3.5609129e-05)
(4.9160752 -0.17185474 3.5857586e-05)
(4.9147717 -0.086955087 3.4754729e-05)
(4.9207935 -0.025623218 3.3760026e-05)
(4.9208006 0.0256497 3.60503e-05)
(4.9147885 0.086967311 3.7195531e-05)
(4.9160962 0.17186218 3.6695125e-05)
(4.9376628 0.27148776 3.4304241e-05)
(4.9908103 0.34956316 3.1488809e-05)
(5.0644873 0.35415672 3.436094e-05)
(5.1128877 0.26086383 5.8659007e-05)
(5.0941056 0.11963628 7.2898844e-05)
(5.0941974 0.11963259 2.8483932e-05)
(5.1129787 0.26087625 1.0247185e-05)
(5.0645817 0.35417393 1.5904421e-05)
(4.9909053 0.34957041 1.5673995e-05)
(4.9377553 0.2714908 1.9004759e-05)
(4.9161871 0.17186516 2.294917e-05)
(4.9148796 0.086969548 2.6209165e-05)
(4.9208924 0.025650827 2.6296028e-05)
(4.9208853 -0.025623557 2.630324e-05)
(4.9148634 -0.086956951 2.5882339e-05)
(4.9161676 -0.17185742 2.6255166e-05)
(4.9377328 -0.27148627 2.7771778e-05)
(4.9908802 -0.34956327 3.0062045e-05)
(5.064558 -0.35415243 3.3546833e-05)
(5.1129616 -0.26086403 3.9283575e-05)
(5.0941756 -0.11965349 3.8956329e-05)
(5.0942233 -0.11963738 5.9066036e-05)
(5.1130062 -0.26087034 6.3430944e-05)
(5.0646058 -0.35416635 2.6281885e-05)
(4.990928 -0.34957008 2.0535152e-05)
(4.9377794 -0.27149012 1.6549058e-05)
(4.9162134 -0.17185981 1.3106309e-05)
(4.9149084 -0.086958923 1.3558651e-05)
(4.9209285 -0.025624433 1.6827851e-05)
(4.9209339 0.02565 7.7314857e-06)
(4.9149221 0.086966733 3.8978875e-06)
(4.9162339 0.17186063 4.5341984e-06)
(4.9378061 0.27148772 9.2866514e-06)
(4.9909601 0.34956945 1.4791752e-05)
(5.0646409 0.3541697 1.0060162e-05)
(5.1130418 0.26087759 -3.531537e-05)
(5.0942594 0.11964526 -1.9139832e-05)
(5.0942664 0.1196476 -3.4593929e-05)
(5.113047 0.26087129 -3.9133001e-05)
(5.0646371 0.35416069 4.668064e-06)
(4.9909496 0.34956362 5.8119229e-06)
(4.9377912 0.27148689 -1.383318e-05)
(4.9162189 0.1718618 -2.229383e-05)
(4.9149079 0.08696296 -2.7120192e-05)
(4.9209157 0.025635755 -2.5075304e-05)
(4.9209116 -0.025636926 -1.4031314e-05)
(4.9148919 -0.086961198 -1.6447179e-05)
(4.9161983 -0.17186032 -1.6339024e-05)
(4.937766 -0.27148991 -1.3688469e-05)
(4.9909169 -0.34957133 -1.0143665e-05)
(5.0645961 -0.35417447 -9.3094059e-06)
(5.1129946 -0.26087389 -1.2418355e-05)
(5.0942153 -0.1196256 -9.0992278e-06)
(5.0941566 -0.11963806 -6.5984465e-05)
(5.1129314 -0.26085795 -8.2120652e-05)
(5.0645176 -0.3541498 -5.6561402e-05)
(4.9908279 -0.34955631 -5.7405464e-05)
(4.9376701 -0.27148007 -6.0817719e-05)
(4.9160979 -0.1718546 -6.2610401e-05)
(4.9147887 -0.086960804 -6.3997597e-05)
(4.9208064 -0.025645595 -6.4517134e-05)
(4.9208055 0.025625309 -6.7424584e-05)
(4.9148003 0.086956659 -6.6161147e-05)
(4.9161152 0.17185417 -6.3829496e-05)
(4.9376927 0.27148059 -6.061901e-05)
(4.9908548 0.34955637 -3.5397332e-05)
(5.0645487 0.35415087 -2.5193172e-05)
(5.1129636 0.26086009 -5.3099839e-05)
(5.0941905 0.11963656 -5.0147153e-05)
(5.0940074 0.11962597 -5.2318802e-05)
(5.1127697 0.26082874 -6.6702104e-05)
(5.0643355 0.35411519 -9.0558874e-05)
(4.9906269 0.34953176 -0.00011589594)
(4.9374549 0.27146209 -0.00013055438)
(4.91587 0.17184123 -0.00013400211)
(4.9145501 0.086949232 -0.00013646008)
(4.920552 0.025622666 -0.00013773326)
(4.9205537 -0.025644229 -0.00013741728)
(4.9145403 -0.08695542 -0.00013596729)
(4.9158544 -0.17184251 -0.0001336877)
(4.9374343 -0.27145987 -0.00013092594)
(4.9906025 -0.34952983 -0.0001264488)
(5.064306 -0.35411714 -0.00011583607)
(5.1127357 -0.26083302 -8.7552356e-05)
(5.093972 -0.11963032 -5.9337433e-05)
(5.0936021 -0.11955429 -5.7897667e-05)
(5.1123319 -0.26077223 -0.00014651131)
(5.0638728 -0.35407312 -0.00023524154)
(4.9901457 -0.34949189 -0.00025290791)
(4.9369599 -0.27143124 -0.00025934839)
(4.9153687 -0.17182353 -0.00026280624)
(4.9140479 -0.086944293 -0.00026440888)
(4.9200572 -0.025639932 -0.00026499959)
(4.9200553 0.025619645 -0.00026495937)
(4.9140574 0.086939011 -0.00026431363)
(4.9153839 0.17182205 -0.00026274094)
(4.9369802 0.27143158 -0.00025919363)
(4.9901704 0.34949501 -0.00025162088)
(5.0639005 0.35407586 -0.00022446714)
(5.1123625 0.26076985 -0.00013627268)
(5.0936348 0.11954769 -5.3666217e-05)
(5.0929521 0.11937457 -0.00011847556)
(5.1115965 0.26063405 -0.00038292248)
(5.0630567 0.35397967 -0.0004807826)
(4.989274 0.34942996 -0.00051030496)
(4.9360605 0.27139442 -0.00051982574)
(4.9144513 0.17180193 -0.00051897044)
(4.9131207 0.086930077 -0.00051409816)
(4.9191181 0.025618685 -0.00051081907)
(4.9191198 -0.025634278 -0.00051105068)
(4.9131109 -0.086932088 -0.00051454948)
(4.9144359 -0.17180193 -0.00051910634)
(4.9360404 -0.27139417 -0.00051978165)
(4.9892497 -0.34942885 -0.00051046546)
(5.0630281 -0.35397874 -0.00048158854)
(5.1115639 -0.26063451 -0.00038251973)
(5.092918 -0.11937721 -0.00011746047)
(5.09166 -0.11898766 -0.00038623981)
(5.1100837 -0.26032876 -0.00087179859)
(5.0613502 -0.35377528 -0.0010453763)
(4.9874543 -0.34933602 -0.001076698)
(4.934192 -0.2713676 -0.0010687543)
(4.9125896 -0.17180344 -0.0010440396)
(4.9112834 -0.086935544 -0.0010163812)
(4.9173102 -0.025633149 -0.0010022584)
(4.9173088 0.025624917 -0.0010018022)
(4.9112941 0.086938393 -0.0010157587)
(4.9126053 0.17180562 -0.0010439152)
(4.934212 0.27136838 -0.0010689455)
(4.987479 0.34933724 -0.001076869)
(5.0613786 0.35377627 -0.00104885)
(5.1101164 0.26032818 -0.00087175123)
(5.0916951 0.11898573 -0.00038445549)
(5.0893734 0.11810266 -0.0010571004)
(5.107313 0.25960329 -0.0023268304)
(5.0581472 0.35339305 -0.0029540604)
(4.9840114 0.34926486 -0.0028765981)
(4.9306702 0.27145848 -0.0026155477)
(4.9090595 0.17191885 -0.0023562397)
(4.9077777 0.087012774 -0.0021591856)
(4.9138101 0.025653089 -0.0020657673)
(4.9138109 -0.025654294 -0.0020677472)
(4.9077658 -0.087005234 -0.0021591054)
(4.909043 -0.17191476 -0.0023552138)
(4.9306497 -0.27145713 -0.0026137332)
(4.9839867 -0.34926461 -0.0028745279)
(5.0581177 -0.35339239 -0.0029492145)
(5.1072805 -0.25960235 -0.0023276602)
(5.0893397 -0.11810423 -0.00106023)
(5.0855882 -0.11640255 -0.0025588972)
(5.1025787 -0.25826268 -0.0067335247)
(5.05268 -0.35277925 -0.0082476634)
(4.9780319 -0.34914905 -0.0079918937)
(4.9243794 -0.2716225 -0.0072059216)
(4.9026149 -0.17216675 -0.0064491617)
(4.9012732 -0.08719915 -0.0058934672)
(4.9072749 -0.025714168 -0.0056174147)
(4.9072776 0.025728718 -0.0056148167)
(4.9012867 0.087209339 -0.0058947577)
(4.9026325 0.17217131 -0.0064516482)
(4.9244007 0.27162383 -0.0072093719)
(4.978057 0.34914964 -0.0079956469)
(5.052709 0.35277969 -0.0082504356)
(5.1026108 0.25826163 -0.0067313742)
(5.0856227 0.11640104 -0.0025503673)
(5.0797669 0.11398695 -0.0078241395)
(5.0956005 0.25645012 -0.017297672)
(5.0444967 0.35188214 -0.020499999)
(4.9689032 0.34915766 -0.020169838)
(4.914632 0.27217114 -0.018689324)
(4.8925362 0.17286871 -0.0172001)
(4.891042 0.087729312 -0.016100557)
(4.8969069 0.025910873 -0.015537078)
(4.8969008 -0.0258867 -0.0155376)
(4.8910277 -0.087719819 -0.016098495)
(4.8925184 -0.17286498 -0.017197022)
(4.9146108 -0.27217023 -0.018685598)
(4.9688783 -0.34915725 -0.020166036)
(5.0444684 -0.35188171 -0.020497533)
(5.0955694 -0.25645032 -0.017300352)
(5.079734 -0.11398852 -0.0078399037)
(5.0731996 -0.1103404 -0.020990375)
(5.0873864 -0.25368454 -0.038750438)
(5.0344748 -0.35064459 -0.045404409)
(4.9573164 -0.34941585 -0.04552568)
(4.9019223 -0.27335617 -0.043250262)
(4.8791761 -0.17431079 -0.040737899)
(4.8773302 -0.088805979 -0.038859596)
(4.8828827 -0.02625895 -0.037904561)
(4.8828889 0.026277052 -0.037905545)
(4.8773443 0.088812073 -0.038862079)
(4.8791936 0.17431276 -0.040741392)
(4.9019433 0.27335633 -0.043254339)
(4.9573409 0.34941606 -0.045529801)
(5.0345026 0.35064522 -0.045407259)
(5.0874165 0.25368525 -0.03874842)
(5.0732304 0.11034062 -0.020975395)
(5.0693185 0.10851346 -0.045602382)
(5.0824897 0.25131751 -0.075712309)
(5.0276256 0.3495593 -0.089224094)
(4.9483754 0.35032224 -0.091294059)
(4.8912272 0.27554552 -0.088487142)
(4.8673086 0.17683358 -0.084819967)
(4.8646951 0.090699079 -0.082015952)
(4.8695314 0.026913261 -0.080581134)
(4.8695254 -0.026900743 -0.080580177)
(4.8646814 -0.090696739 -0.082013377)
(4.8672914 -0.17683371 -0.084816322)
(4.8912066 -0.27554625 -0.088482886)
(4.9483511 -0.35032218 -0.091289774)
(5.0275982 -0.3495583 -0.089220718)
(5.0824604 -0.25131578 -0.075712808)
(5.0692891 -0.10851153 -0.045613465)
(5.0725141 -0.1040735 -0.080281918)
(5.0857146 -0.24956951 -0.12615287)
(5.0308543 -0.34994202 -0.150004)
(4.9511154 -0.3528089 -0.15655403)
(4.8931725 -0.27932795 -0.15469336)
(4.8685952 -0.18078752 -0.15078998)
(4.8653679 -0.093588556 -0.14777523)
(4.8695897 -0.027887623 -0.14626602)
(4.8695959 0.027896074 -0.14626662)
(4.8653815 0.093587527 -0.14777723)
(4.8686123 0.18078548 -0.15079329)
(4.893193 0.27932643 -0.15469749)
(4.9511397 0.35280881 -0.15655834)
(5.0308816 0.34994331 -0.15000784)
(5.0857436 0.24957205 -0.12615439)
(5.072543 0.10407684 -0.080277331)
(5.0818947 0.11576014 -0.11496365)
(5.1004995 0.2527341 -0.17516287)
(5.0493939 0.35115744 -0.21178599)
(4.9719285 0.35564389 -0.22496551)
(4.9147606 0.28362858 -0.22575518)
(4.8900606 0.18539957 -0.22305539)
(4.8862172 0.097055625 -0.22100907)
(4.8896718 0.029104172 -0.22010604)
(4.8896652 -0.029095196 -0.22010616)
(4.8862033 -0.097056777 -0.22100901)
(4.8900434 -0.18540212 -0.22305327)
(4.91474 -0.28363037 -0.22575166)
(4.9719042 -0.35564399 -0.22496142)
(5.0493666 -0.35115593 -0.21178193)
(5.1004708 -0.25273088 -0.17515921)
(5.0818663 -0.11575519 -0.11496037)
(5.1050227 -0.10286941 -0.1321828)
(5.1295495 -0.24601201 -0.19837352)
(5.0872411 -0.34541528 -0.24408868)
(5.0169451 -0.3520991 -0.26324993)
(4.963404 -0.28323328 -0.26727083)
(4.9395064 -0.18735709 -0.26692813)
(4.9349597 -0.099407967 -0.26684502)
(4.937377 -0.030019088 -0.26714134)
(4.9373841 0.030041661 -0.26714019)
(4.9349749 0.099415549 -0.2668425)
(4.9395244 0.18735769 -0.26692847)
(4.9634247 0.28323237 -0.26727341)
(5.0169693 0.35209915 -0.26325341)
(5.0872684 0.34541674 -0.24409265)
(5.1295784 0.24601504 -0.19837895)
(5.1050511 0.1028744 -0.13219369)
(5.1174121 0.11375219 -0.1145891)
(5.1561577 0.22823903 -0.16881443)
(5.1284876 0.3173128 -0.21426472)