/*--------------------------------*- C++ -*----------------------------------*\
| =========                 |                                                 |
| \\      /  F ield         | OpenFOAM: The Open Source CFD Toolbox           |
|  \\    /   O peration     | Version:  v2012                                 |
|   \\  /    A nd           | Website:  www.openfoam.com                      |
|    \\/     M anipulation  |                                                 |
\*---------------------------------------------------------------------------*/
FoamFile
{
    version     2.0;
    format      ascii;
    class       volScalarField;
    location    "184";
    object      nut;
}
// * * * * * * * * * * * * * * * * * * * * * * * * * * * * * * * * * * * * * //

dimensions      [0 2 -1 0 0 0 0];


internalField   nonuniform List<scalar> 
24441
(
0.032190678
0.03221473
0.032239464
0.032265107
0.032291825
0.032319727
0.032348847
0.032379136
0.032410448
0.032442527
0.032474953
0.032507226
0.0096920011
0.0097647109
0.010114143
0.010217013
0.010357504
0.010472642
0.010565741
0.010634517
0.011016257
0.011101409
0.011480025
0.011567067
0.011950275
0.012050641
0.012465375
0.012586207
0.012734061
0.012846045
0.012938906
0.013019065
0.013388071
0.013488906
0.013834264
0.013937284
0.014054795
0.014129252
0.01419106
0.014263537
0.014540444
0.014632765
0.014741886
0.014801518
0.014843146
0.014910954
0.015126974
0.015194844
0.015255243
0.015225489
0.015179855
0.01513624
0.015087586
0.015023691
0.014912921
0.014808852
0.014746227
0.014682633
0.014607437
0.014538323
0.014487931
0.014418901
0.014346417
0.014272913
0.014197596
0.014120374
0.014043832
0.013965307
0.01388562
0.013803914
0.013718966
0.013628842
0.013518317
0.013365641
0.013275974
0.013211429
0.013327949
0.013431699
0.013516345
0.013687183
0.013791805
0.013882097
0.013966805
0.014047846
0.014126647
0.014204882
0.014281742
0.014358968
0.01443469
0.014508611
0.014581881
0.014652647
0.014718879
0.014658531
0.014766538
0.014838184
0.014908721
0.014976349
0.015055408
0.015149046
0.015220836
0.015289503
0.015344728
0.015396316
0.015463722
0.015278454
0.015174368
0.014982763
0.014872016
0.014891495
0.014941685
0.014710274
0.014580965
0.01433732
0.014211047
0.01422254
0.014273317
0.014019047
0.013874637
0.013576968
0.013419009
0.013093349
0.012948883
0.012940705
0.012993135
0.012671082
0.012505562
0.012147532
0.011984573
0.011647081
0.011505856
0.011174811
0.011033962
0.010695618
0.01056821
0.010549763
0.010593
0.010285605
0.010147453
0.0098409625
0.0097187767
0.0097822921
0.0099530877
0.010216439
0.010399124
0.010679042
0.010914762
0.011030457
0.011137765
0.011346123
0.011618693
0.011837959
0.012125647
0.012220726
0.012295389
0.012590241
0.012803865
0.013090936
0.013337091
0.013452133
0.013550819
0.013762229
0.014009447
0.014206242
0.014296915
0.014373184
0.014565328
0.014777751
0.014853187
0.014900973
0.015091988
0.015163118
0.015215354
0.015380255
0.015442628
0.015473705
0.015625109
0.015682758
0.015712325
0.015761416
0.015778582
0.015797213
0.015763058
0.015725872
0.015719707
0.015725191
0.015672172
0.015565737
0.015538778
0.015474059
0.015403268
0.015332716
0.015261851
0.01518943
0.015116034
0.015042047
0.014967765
0.014890868
0.014814417
0.014736663
0.014657372
0.014577453
0.014495319
0.014408359
0.014313707
0.01422391
0.014069681
0.013964852
0.013860345
0.013749292
0.013623153
0.013490964
0.013191149
0.013003701
0.012732846
0.01235949
0.010857252
0.013400638
0.013509732
0.013609855
0.013710327
0.013860958
0.013949886
0.014040946
0.014125974
0.014207037
0.014285351
0.014362293
0.01443991
0.014516615
0.014591719
0.014666531
0.014740185
0.014811852
0.014881223
0.014948524
0.01488554
0.014992248
0.015058399
0.015130919
0.015205472
0.015283259
0.015350901
0.015421691
0.015480005
0.015546426
0.015619851
0.01567628
0.015541216
0.015362931
0.015240722
0.015053759
0.015113134
0.015176484
0.015012475
0.014792035
0.014643248
0.014406538
0.014465471
0.014528828
0.014337006
0.014109767
0.013934912
0.013663716
0.013473103
0.013161034
0.01322773
0.013292707
0.01305713
0.012763017
0.012568519
0.012243973
0.012048651
0.01172873
0.011554496
0.011252273
0.011072775
0.010752068
0.010807398
0.010866955
0.010648128
0.010363564
0.01019971
0.0099220465
0.0097675739
0.011986913
0.012048723
0.012110178
0.012172149
0.012237126
0.012300621
0.012366335
0.012430799
0.012495528
0.012559076
0.012622894
0.012684765
0.012746589
0.012806962
0.012867403
0.012926148
0.012984954
0.013042512
0.013099887
0.013156105
0.013213224
0.013269934
0.013327268
0.013384421
0.013443182
0.013502446
0.013563029
0.013624265
0.013687651
0.01375225
0.013818642
0.013886288
0.013956463
0.014028416
0.014102556
0.014178383
0.014257002
0.014337677
0.014420441
0.014505198
0.014592842
0.014682988
0.014775737
0.014870963
0.014969393
0.015070736
0.015174699
0.015281607
0.015391847
0.015505526
0.015622285
0.015742421
0.015866001
0.015993182
0.016123237
0.016256838
0.0163935
0.016533192
0.016674476
0.016815941
0.016953931
0.017083065
0.017190294
0.017247203
0.017227498
0.017073671
0.016739023
0.016288616
0.0083489247
0.011175682
0.010917069
0.0060658348
0.0078812578
0.0057685707
0.0039499947
0.0030099684
0.0034229721
0.004969309
0.005532566
0.0050132634
0.0069749158
0.010775644
0.012601802
0.0077233833
0.016774351
0.0171282
0.017237272
0.017252072
0.01719934
0.017111172
0.016996153
0.016869658
0.016736387
0.016601088
0.01646606
0.016332474
0.01620104
0.016072372
0.015946508
0.015823281
0.01570273
0.015585051
0.015470312
0.0153584
0.015249569
0.01514394
0.015041541
0.014941899
0.014844984
0.014750896
0.014659313
0.014570077
0.014483208
0.014399083
0.0143174
0.014237923
0.014160395
0.014085201
0.014011792
0.013940274
0.013870406
0.013802884
0.013737064
0.013672766
0.013609529
0.013548175
0.013487871
0.013428541
0.013369447
0.01331159
0.013253952
0.013196846
0.013139131
0.013081783
0.013023339
0.012964459
0.012904191
0.012843524
0.012781331
0.012718738
0.012654498
0.012589797
0.012523371
0.012456716
0.012388588
0.012320424
0.012250889
0.012182128
0.012112382
0.01204415
0.011976989
0.011911856
0.01184589
0.011884247
0.011950723
0.012015065
0.012083141
0.012150275
0.012219768
0.012287122
0.012356099
0.012422554
0.012490009
0.012554865
0.012620438
0.01268337
0.012746687
0.012807455
0.01286862
0.01292754
0.01298678
0.013043969
0.013101306
0.013157185
0.013213739
0.013269378
0.013325808
0.013382275
0.013440142
0.013498026
0.013556982
0.013616939
0.013678821
0.013741654
0.013805983
0.01387209
0.013940423
0.014010445
0.014082153
0.014155835
0.01423152
0.014309419
0.014389111
0.014471669
0.014556403
0.014643972
0.014733188
0.014825568
0.014919883
0.015017719
0.01511728
0.015221101
0.015326845
0.015436837
0.015548201
0.015663899
0.0157806
0.015901359
0.016022429
0.016147844
0.016273515
0.016403768
0.016533048
0.01666588
0.016794151
0.01691924
0.017034434
0.01712582
0.01718437
0.017156999
0.017030153
0.016100573
0.013300402
0.014820692
0.0092661063
0.006648156
0.0057980625
0.0077261286
0.013878103
0.0142479
0.015568411
0.016168387
0.016500441
0.016705591
0.01674584
0.016716598
0.016645407
0.016540128
0.016442185
0.016314462
0.016211788
0.016083579
0.015980395
0.015857017
0.015755756
0.015637419
0.01553888
0.015426138
0.015331261
0.015224838
0.015134229
0.015034336
0.014948247
0.014854519
0.014772139
0.014684089
0.014605627
0.014522631
0.014447747
0.014370083
0.01429927
0.014226417
0.014158575
0.014090207
0.014025579
0.013961178
0.013899389
0.013839251
0.013780734
0.013724067
0.013667443
0.013614048
0.013559828
0.01350883
0.013455348
0.013406309
0.013353999
0.013306214
0.013253431
0.013206107
0.013152573
0.013105147
0.013050024
0.013001585
0.012944393
0.012895054
0.012835612
0.0127847
0.012722755
0.01267082
0.012606651
0.012553449
0.012487139
0.012433182
0.0123655
0.012311864
0.012243802
0.012191727
0.01212329
0.012087424
0.012152994
0.012224854
0.012283968
0.012342065
0.012397172
0.012453985
0.012510346
0.012566643
0.012623481
0.01268128
0.012737141
0.012793133
0.012848567
0.012904416
0.012959261
0.013014381
0.013068731
0.013123725
0.013177796
0.013232396
0.013286814
0.013342174
0.013397802
0.013454984
0.013512865
0.013572341
0.013632865
0.013695355
0.013759151
0.013824909
0.013892166
0.013961601
0.014032915
0.014106846
0.014182848
0.01426158
0.014342149
0.014424782
0.014509643
0.014597042
0.014687058
0.014780055
0.014875944
0.014974986
0.015076848
0.015181326
0.015289118
0.015399988
0.015514617
0.015632853
0.015755253
0.015881348
0.016011509
0.016144896
0.016282721
0.01642365
0.016568525
0.016715719
0.016864266
0.017010027
0.017149467
0.017273145
0.017365453
0.017416529
0.017430083
0.017433769
0.017436869
0.010596936
0.0091647965
0.0079284617
0.011134417
0.010170758
0.0082818618
0.009551691
0.0077284823
0.0048825393
0.0040803174
0.0029785039
0.0035290477
0.0043308197
0.005884892
0.0061304419
0.010336981
0.010598252
0.0076144666
0.0055175797
0.0043450987
0.0034020805
0.0032119819
0.0037786614
0.0042993555
0.0059730977
0.0047245328
0.0041822331
0.0037314645
0.0074245863
0.01338888
0.01464203
0.015035524
0.015331034
0.015593492
0.015637582
0.015787741
0.015694244
0.015784042
0.015638222
0.015682644
0.015527575
0.015543869
0.015395161
0.015393165
0.015252812
0.015236863
0.015106226
0.015080441
0.014959943
0.014927756
0.014817702
0.014780367
0.014679744
0.014638369
0.014546697
0.014502762
0.014419381
0.014373411
0.014298666
0.014251446
0.014184292
0.014135452
0.014075663
0.01402578
0.013972594
0.013921704
0.01387541
0.013824027
0.013783501
0.013730921
0.013696341
0.013642999
0.01361319
0.013557947
0.013532834
0.013476045
0.013454684
0.013395214
0.013377478
0.013314975
0.013300297
0.013234225
0.013222243
0.013151714
0.013142275
0.013067192
0.013060117
0.012979556
0.01297495
0.01288938
0.01288739
0.012795954
0.012796345
0.012699892
0.012703823
0.012602101
0.012609189
0.012502576
0.013038959
0.013105439
0.013166632
0.013226435
0.013282126
0.013337121
0.013389098
0.013441076
0.013491647
0.013543222
0.01359496
0.013648849
0.013703963
0.013761575
0.013821652
0.013885498
0.013952106
0.014021889
0.014094207
0.014168929
0.014245238
0.014322962
0.014399811
0.014471993
0.014535882
0.014585806
0.014612518
0.014602895
0.014538728
0.014402568
0.014177293
0.013883238
0.013573844
0.01408305
0.0082428681
0.0050243914
0.0051256527
0.0055887276
0.009115045
0.012812335
0.013723133
0.013528418
0.01340304
0.013363374
0.013362156
0.013386833
0.013432832
0.013479043
0.013532708
0.013575984
0.013623332
0.013657008
0.013695356
0.013718812
0.013748753
0.01376342
0.013786891
0.013794972
0.013813787
0.013816394
0.013831592
0.013829934
0.01384261
0.013837073
0.013847575
0.01383798
0.013845846
0.013831465
0.013835996
0.013816154
0.013816314
0.013789662
0.032167592
0.032192082
0.032217366
0.032243656
0.032271112
0.032299832
0.032329844
0.03236109
0.032393416
0.032426556
0.032460128
0.032493655
0.032489849
0.032456261
0.032422637
0.032389442
0.032357055
0.032325734
0.032295633
0.032266804
0.032239221
0.032212786
0.032187339
0.032162671
0.032075361
0.032095169
0.032115947
0.032135725
0.032151958
0.032177024
0.032161443
0.032142539
0.03212277
0.032104012
0.032133223
0.032150983
0.032169797
0.032187875
0.032202842
0.032229616
0.032215214
0.032197897
0.032179964
0.032163128
0.032179802
0.032193833
0.032209837
0.032226978
0.032243612
0.032257505
0.032286604
0.032273161
0.032257128
0.032240679
0.032225405
0.032212093
0.032245173
0.032257863
0.032272511
0.03228837
0.032303889
0.032316941
0.032348462
0.032335742
0.032320654
0.032305289
0.032291168
0.032279011
0.032313525
0.032325224
0.032338898
0.03235385
0.032368579
0.032381021
0.032414363
0.032402161
0.032387741
0.032373151
0.032359876
0.032348593
0.032384047
0.032394919
0.032407795
0.032422027
0.032436148
0.032448124
0.032481856
0.032470125
0.032456342
0.032442526
0.032430108
0.032419697
0.015360745
0.015331808
0.015316359
0.015315713
0.015334215
0.01537743
0.015453097
0.015572362
0.015752031
0.016017031
0.016405858
0.016979805
0.017823244
0.019041697
0.020835874
0.014434282
0.010751361
0.010547422
0.011942042
0.019091299
0.019210065
0.019384233
0.019620831
0.019929576
0.020322842
0.020816415
0.021429231
0.022183335
0.023102016
0.024206194
0.025503473
0.027067629
0.026817282
0.02032835
0.029814032
0.032419239
0.031795545
0.03111076
0.030424733
0.029763726
0.029108062
0.028479877
0.027890366
0.027345709
0.026848856
0.026400532
0.026000158
0.025646363
0.025337574
0.030126325
0.030371492
0.030625099
0.0308851
0.03114883
0.031412846
0.031672958
0.03192431
0.032161458
0.032378473
0.03257337
0.032747656
0.03284118
0.032801235
0.032750781
0.032690559
0.032620085
0.032540071
0.032451372
0.032354965
0.032251901
0.032143259
0.032030078
0.031913289
0.032312898
0.032362602
0.032409554
0.03245378
0.032495295
0.032534111
0.03257024
0.032603687
0.032634439
0.03266242
0.03268743
0.032708774
0.032602059
0.03257733
0.032551338
0.032524694
0.032497853
0.032470985
0.032444155
0.032417334
0.032390423
0.032363265
0.032335657
0.032307351
0.032240008
0.032264045
0.032288399
0.032313315
0.032338982
0.032365529
0.032393014
0.032421412
0.0324506
0.032480348
0.032510191
0.032539583
0.018157147
0.018176107
0.018193312
0.01821462
0.018234478
0.018250575
0.018265056
0.018278794
0.018289547
0.018295949
0.018299076
0.018299329
0.01829564
0.01827715
0.018241138
0.018204043
0.018161027
0.01812311
0.018033519
0.017931123
0.017744418
0.017564632
0.017271811
0.016988935
0.016558301
0.016235987
0.015812652
0.015481684
0.015058352
0.014775681
0.01444507
0.014159641
0.014077703
0.014015452
0.014058187
0.014392957
0.014737318
0.015047983
0.015464704
0.015816826
0.016227146
0.016571418
0.016985572
0.01728687
0.017570343
0.017763198
0.017944623
0.018055063
0.018142708
0.018187153
0.018221121
0.018267094
0.018299693
0.01831715
0.018321933
0.01832008
0.018313715
0.018304554
0.018291478
0.018274865
0.018257995
0.018239072
0.018216557
0.018192889
0.018172516
0.018150191
0.013280249
0.013371478
0.013309452
0.013390818
0.01324387
0.013270776
0.013238404
0.013179124
0.013031996
0.013036668
0.013021405
0.013035381
0.013002831
0.0129832
0.012953375
0.013096638
0.013018733
0.012967843
0.012924225
0.012881056
0.012836688
0.012791874
0.012746392
0.012701238
0.012654992
0.012609715
0.012563677
0.012516904
0.012465994
0.012409174
0.012339308
0.012636917
0.012691182
0.012738285
0.012783201
0.012826508
0.012870924
0.012914691
0.012959797
0.013004032
0.01304868
0.013092477
0.013136404
0.013179257
0.013224047
0.013276284
0.013357806
0.013616325
0.013608566
0.013525834
0.013473321
0.013428996
0.013387021
0.013343767
0.013300562
0.013256625
0.013212415
0.013167281
0.013123163
0.013077794
0.013032841
0.012985971
0.01293535
0.012872222
0.013152095
0.013208606
0.013253294
0.013296092
0.01333776
0.01338073
0.013422844
0.01346634
0.013508775
0.01355128
0.013592944
0.013634608
0.013674996
0.013717876
0.013768901
0.013851393
0.01410493
0.014086307
0.014004629
0.013954347
0.013913189
0.013873997
0.013833913
0.013793511
0.01375188
0.01371042
0.013667753
0.013625647
0.013582966
0.0135411
0.013497587
0.013452292
0.013398321
0.013646206
0.013587699
0.013826714
0.013880939
0.013930115
0.013699096
0.013743549
0.013786193
0.013826767
0.013868498
0.013909491
0.013950719
0.013990663
0.014031108
0.014069586
0.014108014
0.014145543
0.014184779
0.014233089
0.014313908
0.014559349
0.01453032
0.014450576
0.014403278
0.01436568
0.014329679
0.014292575
0.014255441
0.014216308
0.014177192
0.014136985
0.014096707
0.014055376
0.014015005
0.01397312
0.014202676
0.01416461
0.014122081
0.014073513
0.014273737
0.014323841
0.014367537
0.014407087
0.014447136
0.014241493
0.014279678
0.014319086
0.014357622
0.014396648
0.014434308
0.014471902
0.01450769
0.014543291
0.014577504
0.014613708
0.014658848
0.014737125
0.014972865
0.014933829
0.01485675
0.014812889
0.014777917
0.014745026
0.014710865
0.014675776
0.014639172
0.014602459
0.014563746
0.014525254
0.014486003
0.014689026
0.014650866
0.01461089
0.014571224
0.014527222
0.014477505
0.014410745
0.014623809
0.014679524
0.014723442
0.014765311
0.014804287
0.01484349
0.014881214
0.014919424
0.014727789
0.014765518
0.014803231
0.014838643
0.014874265
0.014908055
0.014940885
0.014972403
0.015005643
0.015047204
0.015122712
0.015348829
0.015301124
0.015227603
0.015187798
0.015156388
0.01512602
0.015094215
0.015061697
0.015027365
0.014992846
0.014956268
0.015142285
0.015107156
0.01507012
0.015033502
0.014995658
0.014958897
0.014919864
0.014880262
0.014832001
0.015008896
0.014952131
0.015156125
0.015201089
0.01524117
0.015056996
0.015098222
0.015137187
0.01517412
0.015211863
0.015248049
0.015283898
0.015317999
0.015352402
0.015177789
0.015211024
0.015243657
0.015274666
0.015305627
0.015335139
0.015365384
0.015400034
0.015470705
0.015691387
0.015620543
0.015563479
0.015540491
0.015503338
0.015474187
0.01544474
0.015415117
0.015384258
0.015551939
0.015522068
0.015489164
0.015456351
0.015421774
0.015387096
0.015350403
0.015314564
0.015278285
0.015441702
0.015404908
0.015364007
0.015318613
0.015256255
0.015433629
0.015484718
0.015524496
0.015563687
0.01559956
0.015635235
0.015477563
0.015513345
0.015549275
0.015583407
0.01561738
0.015649222
0.015680698
0.015709296
0.015736989
0.015581549
0.015609497
0.015636527
0.015661807
0.015688305
0.015693869
0.015818981
0.015948531
0.016076154
0.0162009
0.016321509
0.016443408
0.016564279
0.016682595
0.016798452
0.016910935
0.017005347
0.017057735
0.017126279
0.017218971
0.017275512
0.017185843
0.017096034
0.017094851
0.017002058
0.01690103
0.016789612
0.016673505
0.016555816
0.016437013
0.016317476
0.016198361
0.01607523
0.015949363
0.015822114
0.015708839
0.015653495
0.015670533
0.015739707
0.01571529
0.015821149
0.015862355
0.015979665
0.016038633
0.018087376
0.018093944
0.018109446
0.018115952
0.018128044
0.018135644
0.018151778
0.018160562
0.018163615
0.018169607
0.018171322
0.018174685
0.018169402
0.018170422
0.018162826
0.018162167
0.018134193
0.01812532
0.018062484
0.018042124
0.017914415
0.017868927
0.017632239
0.017548414
0.017153601
0.017021126
0.016459255
0.016308795
0.015760532
0.015599717
0.015074621
0.014930212
0.014806692
0.014752405
0.014791997
0.014760543
0.014803986
0.014776493
0.014819756
0.014790468
0.014828877
0.014795407
0.014831794
0.014792588
0.014821341
0.014767089
0.01479038
0.014742978
0.014809942
0.014762628
0.01475736
0.014757992
0.01474743
0.014653812
0.014642134
0.01466154
0.014647061
0.014587552
0.014569715
0.014599109
0.014606559
0.014618818
0.014615364
0.014615479
0.014603923
0.014601241
0.014587062
0.014578286
0.014558878
0.014549698
0.014530227
0.014525678
0.01452265
0.014567406
0.014543756
0.014864858
0.015076873
0.015541707
0.015793241
0.016271321
0.016510332
0.017002957
0.017212595
0.017551668
0.017685453
0.01789532
0.017969178
0.018077507
0.018110435
0.018167441
0.018184995
0.018208899
0.018212104
0.018217129
0.018214159
0.01821592
0.018210711
0.018205812
0.018197233
0.018191708
0.018179241
0.018162983
0.018151573
0.018138958
0.01812881
0.018113331
0.018103701
0.018176308
0.018201805
0.018223408
0.018235403
0.018209999
0.018183329
0.018159798
0.018186193
0.018211707
0.018235965
0.018254701
0.018270407
0.018277173
0.018257512
0.018248993
0.018231673
0.018211119
0.018183797
0.01815566
0.018144562
0.018173048
0.018196613
0.018166786
0.018141489
0.018140237
0.018152623
0.018169561
0.018172185
0.018187723
0.018183003
0.018196669
0.018203874
0.018219216
0.018210055
0.01822729
0.018238551
0.018255859
0.018242539
0.018251407
0.018268547
0.018280918
0.018261994
0.018269844
0.0182918
0.018300721
0.018276949
0.018277755
0.018304229
0.018306179
0.018280355
0.018277027
0.018304715
0.018300387
0.0182728
0.018251926
0.018281994
0.018257201
0.018227194
0.018167201
0.01812975
0.018034539
0.017941022
0.017744236
0.017579511
0.017272025
0.017012606
0.01655643
0.016262192
0.015822261
0.015518804
0.015081891
0.014826254
0.014502429
0.014257546
0.014304817
0.014333408
0.014346899
0.014363693
0.014383319
0.014404555
0.014422984
0.014443034
0.014460853
0.014475963
0.014488383
0.014501551
0.014511712
0.014518603
0.014521124
0.014517436
0.014487649
0.014506316
0.014497785
0.01450291
0.014517931
0.014518347
0.014513295
0.014504633
0.014492759
0.01447871
0.014464586
0.014448611
0.014429483
0.014408923
0.014389357
0.014368162
0.014344238
0.014321765
0.014300394
0.014265697
0.014222664
0.014146785
0.01411128
0.014116415
0.014033443
0.013986727
0.014036573
0.014351852
0.014708339
0.015041251
0.015453262
0.015818958
0.016222023
0.016580089
0.016984454
0.017297058
0.017576378
0.017777763
0.017957381
0.01807485
0.018164614
0.018174093
0.018234085
0.018279571
0.018311012
0.018327354
0.018331564
0.018328963
0.01832159
0.018310862
0.018295556
0.01829196
0.018279728
0.018264157
0.018243161
0.018220793
0.018192571
0.018166049
0.018149366
0.018178905
0.01832238
0.01821579
0.018184181
0.018197558
0.018221382
0.018246455
0.018266147
0.01828514
0.018299101
0.018309876
0.018321994
0.018313993
0.018302785
0.018286328
0.018268541
0.018245754
0.018224469
0.018213592
0.018247312
0.018382257
0.018265428
0.018231455
0.01824132
0.018260585
0.018281703
0.018297427
0.018313146
0.01832373
0.018330322
0.018334333
0.018330026
0.018320395
0.018306137
0.018292054
0.018271814
0.018253591
0.018244851
0.018279348
0.018405185
0.018282895
0.018247418
0.018254444
0.018273463
0.018292797
0.018304702
0.018318641
0.018328423
0.018331767
0.018316923
0.018314379
0.018306189
0.018293968
0.018282536
0.018264419
0.018246866
0.018240586
0.018276032
0.018381626
0.018249795
0.018214541
0.018221424
0.018238077
0.018254819
0.018266826
0.018277468
0.018284756
0.018287589
0.018241873
0.018239761
0.018233702
0.018224584
0.018212412
0.018196184
0.018179945
0.018172141
0.018205071
0.018279915
0.018137141
0.018106389
0.018114949
0.018131305
0.018147866
0.018160301
0.018170689
0.018177121
0.018179862
0.018086356
0.018082803
0.017959965
0.01796056
0.017954717
0.018083735
0.018077559
0.0180669
0.018054456
0.018037688
0.018021081
0.018011996
0.018038827
0.018064186
0.017897541
0.017874024
0.017885211
0.017902339
0.017920081
0.017933947
0.017946436
0.017765201
0.017775196
0.017781905
0.01778142
0.017573568
0.017569467
0.017559422
0.017546953
0.017531854
0.017753153
0.017738484
0.017720196
0.017703001
0.017690767
0.01770866
0.01767052
0.017478462
0.017462683
0.017476844
0.017495079
0.017515312
0.017236301
0.017254047
0.017269691
0.017282493
0.017292291
0.017296585
0.016976143
0.01696732
0.016955239
0.016941708
0.016925026
0.016907422
0.016886813
0.017216525
0.017197988
0.017184757
0.017198717
0.017104076
0.016867847
0.016854503
0.016868001
0.016492167
0.016509661
0.016527877
0.016543861
0.01655774
0.016568126
0.016576109
0.016580089
0.016212287
0.016202545
0.016190704
0.016178326
0.01616267
0.016146049
0.016127514
0.016109921
0.016096866
0.016481289
0.016493317
0.016362937
0.016108146
0.01571416
0.015701675
0.015714349
0.015733072
0.015751865
0.015768522
0.015784063
0.015796272
0.015806978
0.015814437
0.015438644
0.015424855
0.015409517
0.015394093
0.015375851
0.015357247
0.0153364
0.015316279
0.015301376
0.015312171
0.015585708
0.015600661
0.016375018
0.017113266
0.017682059
0.018082594
0.0183057
0.01841403
0.018440901
0.018418142
0.018358041
0.016305952
0.016245657
0.01611851
0.016073313
0.015947338
0.015993717
0.016038474
0.015912343
0.015791638
0.01599057
0.015829454
0.015679112
0.015505638
0.015331508
0.015134474
0.014941799
0.014727072
0.014515332
0.014277408
0.014047661
0.013795054
0.013547912
0.01326979
0.012994849
0.01282379
0.012738041
0.012705739
0.012669535
0.012628501
0.012584692
0.012540364
0.012495688
0.012451616
0.012407
0.012364603
0.012322182
0.012280602
0.012237138
0.012189749
0.011913293
0.011683364
0.011405228
0.011164311
0.011220342
0.010972777
0.010736088
0.01046325
0.010263703
0.010010284
0.0098199475
0.0099037785
0.0098644858
0.010063177
0.010106168
0.010146566
0.0099414166
0.010423882
0.010386468
0.0103492
0.010310897
0.010521653
0.010568391
0.010611206
0.010652378
0.010694477
0.010462401
0.010736066
0.01099054
0.010949607
0.010908468
0.010869687
0.010829519
0.010787499
0.011023381
0.011066697
0.011108865
0.011149866
0.011191973
0.011234414
0.011277213
0.011031136
0.011530805
0.0114866
0.011443968
0.011401503
0.01135867
0.011315648
0.011272127
0.011509219
0.011458388
0.011733276
0.01177676
0.011818702
0.011554993
0.011599285
0.011643243
0.011688147
0.011731945
0.011776458
0.012159354
0.012120205
0.012077471
0.012033525
0.011989925
0.011946464
0.011901604
0.011860111
0.012107302
0.012063237
0.012018617
0.011970758
0.012066041
0.011836132
0.011556598
0.011329
0.011046093
0.01081934
0.010539241
0.010344876
0.010088155
0.0099064107
0.033172242
0.028678062
0.033117849
0.023107262
0.023093989
0.033140965
0.033157817
0.033130015
0.033116886
0.027096241
0.029771335
0.029467506
0.029099146
0.029208186
0.028772863
0.028885624
0.029334937
0.029480059
0.029016194
0.02315607
0.023109549
0.023942964
0.023891988
0.023871652
0.024559956
0.024605269
0.029587606
0.032341706
0.032230272
0.032383308
0.033160963
0.033210674
0.032493269
0.029898897
0.025196408
0.025134069
0.020044749
0.019171042
0.018141605
0.017014898
0.014733447
0.016410173
0.016854765
0.015235186
0.015072028
0.014570258
0.014010101
0.013493165
0.01541095
0.012093309
0.013961044
0.014365455
0.012580569
0.01205309
0.011765203
0.011562009
0.012468881
0.012914785
0.03310273
0.033090659
0.033102845
0.033088947
0.033078652
0.033059288
0.033056773
0.033064456
0.033069177
0.03307755
0.033070659
0.0330752
0.033084233
0.033097524
0.03311328
0.03312927
0.033144544
0.033157034
0.033172609
0.033184999
0.033194576
0.033200882
0.03317451
0.033167155
0.033147675
0.033139641
0.033121722
0.033104128
0.033088956
0.0330778
0.033078113
0.033091389
0.033108436
0.03312785
0.033152987
0.033155134
0.033178655
0.033091136
0.033110068
0.033131282
0.033131577
0.033108575
0.033087735
0.033070153
0.033353258
0.033316166
0.033272644
0.033224206
0.03245845
0.032579741
0.032725084
0.033299857
0.033257366
0.032607807
0.030054778
0.029725393
0.02989615
0.024804044
0.024022989
0.024155563
0.023235312
0.029167496
0.029356402
0.023373199
0.024360974
0.029891389
0.032825197
0.032703214
0.032841624
0.033336792
0.033366772
0.032953451
0.030752455
0.03036279
0.03010944
0.029662465
0.024990447
0.025251374
0.025985982
0.025687397
0.030486477
0.030251627
0.025459976
0.025299087
0.024681411
0.019021778
0.017934184
0.016739747
0.01564266
0.014769031
0.013238034
0.012977265
0.010957837
0.011372602
0.013266083
0.013498082
0.011497746
0.011978279
0.014035321
0.013778253
0.011846883
0.01233914
0.014187773
0.014407243
0.01246512
0.011930091
0.011640481
0.011438945
0.011151093
0.01096338
0.010607223
0.010556094
0.010841107
0.011041467
0.010777941
0.010831014
0.010878456
0.011173965
0.01144606
0.01113555
0.011188428
0.011428015
0.011374388
0.011664288
0.011938253
0.011631433
0.011685634
0.011927924
0.012263096
0.012164199
0.01187354
0.012137336
0.012451939
0.013116137
0.014966905
0.016863404
0.015222877
0.015149803
0.01335796
0.013872699
0.015604327
0.015827757
0.016485295
0.016228069
0.014426933
0.014929716
0.016679219
0.016898448
0.017491782
0.017410093
0.015734734
0.016165293
0.01780281
0.018271619
0.016583632
0.016945532
0.018609286
0.02089788
0.025629491
0.029969861
0.032425085
0.033147651
0.033181188
0.032571322
0.032667317
0.032526146
0.033194591
0.033238969
0.032631327
0.032766239
0.033262174
0.033223164
0.033243477
0.033206487
0.032699657
0.032804654
0.033223056
0.033188058
0.032723223
0.030825848
0.030321668
0.026171871
0.026225207
0.0256681
0.030084702
0.030216034
0.02574405
0.026318734
0.030576146
0.030439519
0.030766432
0.032789331
0.032880791
0.033277191
0.033283982
0.033255283
0.032887645
0.032971292
0.031183378
0.030904796
0.026868463
0.026758588
0.026691844
0.03064898
0.030930513
0.027144909
0.027220875
0.031046303
0.031281362
0.03296707
0.033261226
0.033233217
0.033202233
0.022777681
0.021543946
0.019823996
0.01945033
0.019185291
0.019011359
0.017303022
0.017445558
0.017750225
0.0176142
0.019305485
0.01965834
0.017920129
0.018061949
0.020060199
0.019922234
0.018193886
0.018328615
0.01733979
0.016802124
0.016739445
0.016595757
0.016549422
0.016431951
0.01631422
0.016195218
0.016244886
0.016500033
0.016361056
0.016481891
0.016527128
0.016410212
0.016288035
0.016166797
0.016395719
0.016270688
0.016132028
0.01659279
0.016468446
0.016272286
0.016134668
0.015928518
0.015777993
0.015543203
0.015377547
0.015127719
0.014946119
0.014663565
0.014467408
0.014174246
0.013962918
0.013638383
0.013425437
0.013132202
0.013032221
0.012801705
0.012416746
0.012227108
0.012193696
0.012446451
0.012411844
0.012372334
0.012328815
0.012284252
0.012239581
0.012195215
0.012150035
0.012278491
0.012035476
0.011770512
0.011532066
0.011273533
0.011038075
0.011317161
0.011533235
0.011503687
0.011305732
0.011012677
0.010831138
0.010566784
0.010403872
0.010248564
0.010797214
0.013056203
0.01459731
0.012799812
0.0096695615
0.0097075662
0.010124706
0.010087086
0.033327588
0.033344817
0.033359448
0.033367607
0.033369008
0.033346079
0.033315919
0.033279801
0.032739719
0.032848478
0.032965885
0.033327286
0.033297253
0.032866792
0.030749854
0.030385397
0.030591602
0.026056194
0.025870807
0.026465781
0.026672461
0.030957684
0.031193525
0.03082913
0.032954022
0.033052434
0.033144856
0.033059875
0.033351122
0.033348882
0.033330951
0.0333067
0.032972377
0.03306094
0.033131662
0.033327137
0.033308261
0.033053693
0.031352649
0.031077636
0.031281005
0.027256141
0.027032594
0.027516927
0.027340589
0.022575999
0.022048371
0.021418297
0.020734926
0.019970251
0.019078153
0.018021565
0.016310426
0.015643591
0.015425588
0.013630615
0.013756599
0.013243231
0.01268678
0.01269051
0.012799127
0.012381826
0.012335778
0.012583668
0.012921327
0.013013858
0.012626995
0.012660083
0.01247526
0.012728764
0.012921541
0.013310486
0.013549275
0.013198792
0.013147033
0.012889191
0.013307357
0.013199167
0.01284393
0.013095672
0.013435008
0.013529445
0.013835696
0.013839626
0.013467261
0.013714926
0.014073456
0.014054123
0.013957054
0.013723408
0.013358819
0.013412799
0.013659232
0.013606052
0.013856994
0.014225229
0.014336316