/*--------------------------------*- C++ -*----------------------------------*\
| =========                 |                                                 |
| \\      /  F ield         | OpenFOAM: The Open Source CFD Toolbox           |
|  \\    /   O peration     | Version:  v2012                                 |
|   \\  /    A nd           | Website:  www.openfoam.com                      |
|    \\/     M anipulation  |                                                 |
\*---------------------------------------------------------------------------*/
FoamFile
{
    version     2.0;
    format      ascii;
    class       volScalarField;
    location    "184";
    object      p;
}
// * * * * * * * * * * * * * * * * * * * * * * * * * * * * * * * * * * * * * //

dimensions      [0 2 -2 0 0 0 0];


internalField   nonuniform List<scalar> 
24441
(
-0.82349638
-0.8925762
-0.9583811
-1.0196253
-1.07502
-1.1232174
-1.1628814
-1.1927764
-1.2111423
-1.2152685
-1.2047914
-1.1793825
-3.6710126
-3.6857305
-3.6865394
-3.6826176
-3.7650446
-3.801674
-3.8210221
-3.8657879
-3.8942972
-3.9155132
-3.919119
-3.9380765
-3.9512043
-3.9661812
-3.9662173
-3.9700564
-4.0454467
-4.0871862
-4.1074518
-4.1575487
-4.1829567
-4.2215338
-4.2331004
-4.2264942
-4.2806878
-4.3438563
-4.3636907
-4.4142324
-4.4170567
-4.3773064
-4.4826719
-4.5456488
-4.5572357
-4.6100867
-4.6184719
-4.6112014
-4.6678486
-4.7207819
-4.7829256
-4.821031
-4.8699824
-4.8930745
-4.933527
-5.0125048
-5.0523188
-5.0938649
-5.1107243
-5.1966967
-5.2229153
-5.2847137
-5.2718528
-5.3835303
-5.3765014
-5.3864604
-5.4416579
-5.4432365
-5.449432
-5.4763701
-5.4362108
-5.3450613
-5.4116189
-5.3749245
-5.4145548
-5.115643
-5.218692
-5.4020669
-5.4330623
-5.3865636
-5.2949462
-5.3926298
-5.5037274
-5.4619996
-5.4623439
-5.4348567
-5.4211967
-5.3858927
-5.3993755
-5.283085
-5.3099308
-5.2695069
-5.1554355
-5.1688718
-5.1957371
-5.0931517
-5.0522611
-5.0375364
-4.9759444
-4.937551
-4.8882276
-4.822686
-4.7811108
-4.6987539
-4.6191695
-4.6199972
-4.5932935
-4.5465024
-4.59402
-4.4979159
-4.3645494
-4.3548692
-4.3752157
-4.3670515
-4.4043179
-4.2950431
-4.1886037
-4.2084664
-4.1854673
-4.1941153
-4.1950867
-4.132683
-4.1304737
-4.0705033
-3.9582497
-3.9957863
-3.9820342
-3.9547384
-3.9409954
-3.9330569
-3.916102
-3.8814246
-3.8531492
-3.8343109
-3.8545296
-3.7796927
-3.6362141
-3.6771178
-3.6916382
-3.6663968
-3.6476857
-3.486341
-3.5006871
-3.5240427
-3.5502839
-3.5862512
-3.5853795
-3.5979406
-3.656837
-3.6637298
-3.6659585
-3.6764026
-3.6921291
-3.7473178
-3.7607412
-3.7920843
-3.8249047
-3.845238
-3.8491843
-3.9227092
-3.8815468
-3.9382926
-3.9996568
-3.9985713
-4.0377969
-4.0612009
-4.0740577
-4.0858137
-4.1561048
-4.172959
-4.2376537
-4.2492187
-4.2522501
-4.2936584
-4.3936022
-4.3933247
-4.4384605
-4.5198621
-4.4900472
-4.5346249
-4.6102952
-4.6737274
-4.7639219
-4.7425697
-4.8080121
-4.889572
-4.8797313
-4.9292152
-5.0261263
-5.0034351
-5.1084782
-5.1504914
-5.1826763
-5.2719605
-5.267463
-5.3260631
-5.3918627
-5.3832725
-5.4314792
-5.4658215
-5.445951
-5.4727745
-5.4954434
-5.3874783
-5.26269
-5.4683538
-5.3865051
-5.3564737
-5.3038845
-5.0773187
-4.7375265
-4.7473557
-4.6484452
-4.3010021
-3.4153497
-3.0150217
-2.1771468
-5.0183583
-5.2017959
-5.3726509
-5.4022184
-5.3906723
-5.2735838
-5.3197559
-5.5170509
-5.4599117
-5.4946593
-5.3921724
-5.4515755
-5.4177585
-5.361609
-5.3269802
-5.3318199
-5.2612279
-5.1952695
-5.1876755
-5.1744351
-5.1111813
-5.011343
-5.0455495
-4.9452475
-4.9365984
-4.848168
-4.8113399
-4.7359472
-4.6786958
-4.6332318
-4.5327103
-4.5156978
-4.4993425
-4.4557348
-4.4453573
-4.4271137
-4.3601988
-4.3413263
-4.3286689
-4.2917174
-4.2734751
-4.2067767
-4.1112695
-4.1034916
-4.0606313
-4.0388987
-4.0280424
-4.0056503
-4.0213755
-3.9314932
-3.8864869
-3.8442595
-3.8362451
-3.8361299
-3.8186084
-3.796742
-3.7771471
-3.7528906
-3.7240983
-3.7189374
-3.7379757
-3.6594553
-3.5937797
-3.5853404
-3.5762385
-3.5548342
-3.5428325
-3.5316405
-0.92216786
-0.97565859
-1.0025426
-1.0464991
-1.0704758
-1.0948955
-1.1110371
-1.1448304
-1.1616508
-1.1938784
-1.2096508
-1.2413991
-1.2578387
-1.2892408
-1.3042017
-1.3357612
-1.3518392
-1.3830102
-1.3980805
-1.4297049
-1.4459525
-1.4775459
-1.492914
-1.5254547
-1.5422341
-1.575224
-1.5915351
-1.6259385
-1.6440224
-1.6796053
-1.6977386
-1.73569
-1.7560789
-1.7960384
-1.8172619
-1.8607308
-1.8848718
-1.9318268
-1.958044
-2.0101696
-2.0406877
-2.0983205
-2.1332361
-2.1985438
-2.2404738
-2.3148693
-2.3649301
-2.4514342
-2.5121812
-2.6141157
-2.6895774
-2.8133038
-2.9103445
-3.0642262
-3.1960707
-3.3929718
-3.5755934
-3.8381726
-4.1088602
-4.4754597
-4.8934951
-5.4202746
-6.0968815
-6.9285702
-8.1572025
-9.8853961
-11.932011
-16.665334
-32.489526
-8.1068467
-5.400575
-0.24578908
0.73905964
3.2341267
3.6646484
2.2375882
-0.26678037
-0.3329671
-0.35888594
0.57051417
-4.5321938
-10.90134
-14.338685
-34.405525
-15.823772
-11.629308
-9.4634851
-7.7557705
-6.6205875
-5.8041945
-5.1804206
-4.6658372
-4.2911969
-3.9299324
-3.6857423
-3.421483
-3.2612858
-3.0617151
-2.9489989
-2.7930729
-2.7115081
-2.5862512
-2.5244533
-2.4203772
-2.3713828
-2.2831387
-2.2422715
-2.1655345
-2.1313932
-2.0636838
-2.0354277
-1.9756423
-1.950816
-1.8971608
-1.875535
-1.8268432
-1.8069001
-1.7616468
-1.7440417
-1.7020938
-1.685068
-1.645302
-1.6299341
-1.5924304
-1.5770585
-1.5409035
-1.5268139
-1.4917722
-1.4770097
-1.4423131
-1.4284453
-1.3945726
-1.3797621
-1.346022
-1.3318563
-1.2983673
-1.283005
-1.249303
-1.2345485
-1.2008684
-1.1847625
-1.1500204
-1.13414
-1.099008
-1.0810249
-1.0452487
-1.0264295
-0.99146806
-0.96882787
-0.93231033
-0.91997789
-0.87525317
-0.84469023
-0.94916538
-0.965802
-1.0056504
-1.0173484
-1.0528191
-1.0717274
-1.1045454
-1.1207548
-1.1548015
-1.1708078
-1.2047655
-1.2190458
-1.2525937
-1.2677988
-1.3005206
-1.3146152
-1.3475859
-1.3622367
-1.3955396
-1.4087528
-1.4425853
-1.4567179
-1.4907873
-1.5039759
-1.5391219
-1.5534991
-1.5891771
-1.6030878
-1.6404213
-1.6560571
-1.6948353
-1.710393
-1.7516519
-1.7694144
-1.8130671
-1.8313249
-1.8786024
-1.8997717
-1.9507272
-1.9736828
-2.0299069
-2.0565733
-2.119284
-2.1496405
-2.220687
-2.2576856
-2.3384864
-2.383116
-2.4764972
-2.5300764
-2.6401559
-2.7079399
-2.8399733
-2.928818
-3.0915814
-3.2125598
-3.4189305
-3.589536
-3.8624055
-4.1223731
-4.4996727
-4.902329
-5.4412813
-6.1131055
-6.9703465
-8.1444568
-9.7418792
-11.483082
-14.712967
-23.11078
-13.496542
-6.5311686
-2.6341397
-1.7527193
-4.1215931
-8.6028408
-8.4075788
-11.386705
-9.3868593
-8.3955365
-7.3224884
-6.4416068
-5.6919362
-5.1752181
-4.640264
-4.3376261
-3.918938
-3.7467556
-3.4164516
-3.3306488
-3.0654886
-3.0220869
-2.8041248
-2.7847
-2.5982814
-2.5930558
-2.4320525
-2.43424
-2.2967157
-2.2997591
-2.1789708
-2.184976
-2.0761124
-2.0859287
-1.9890493
-1.998234
-1.9108021
-1.9212422
-1.8414065
-1.8503254
-1.7756926
-1.7861394
-1.7171257
-1.7254159
-1.6597157
-1.6693701
-1.6077602
-1.6150714
-1.555452
-1.563842
-1.5071923
-1.5134113
-1.4576311
-1.4648096
-1.4111583
-1.4157491
-1.362614
-1.3678909
-1.3160774
-1.3184277
-1.2671711
-1.269981
-1.2195046
-1.2193764
-1.1685462
-1.1694573
-1.1181929
-1.1158603
-1.0644568
-1.0624391
-1.0109663
-1.0045362
-0.95081447
-0.9481632
-0.89125204
-0.88172452
-1.0235787
-1.1373024
-1.0318892
-1.0269165
-1.0704319
-1.1049441
-1.1320977
-1.1653218
-1.1769583
-1.2049155
-1.2224133
-1.25114
-1.2689906
-1.2975291
-1.3134429
-1.3423582
-1.3595968
-1.3884934
-1.4043352
-1.4337865
-1.4511366
-1.4805072
-1.496964
-1.527315
-1.5453994
-1.5760892
-1.5937562
-1.6259977
-1.6456004
-1.6788362
-1.6986357
-1.7341555
-1.756423
-1.7937138
-1.8169004
-1.8577068
-1.8839116
-1.9279956
-1.9563259
-2.0054492
-2.0382152
-2.0925527
-2.1299365
-2.1917711
-2.2363406
-2.3067196
-2.3595703
-2.4415545
-2.5055046
-2.6017933
-2.6805057
-2.798778
-2.8992479
-3.0467372
-3.1817275
-3.370428
-3.5565963
-3.8093406
-4.0835044
-4.4358774
-4.8550643
-5.3692567
-6.0366192
-6.8815659
-8.1628579
-9.722404
-11.806252
-19.282177
-27.695916
-5.3294387
-0.80266566
3.2211414
3.2235425
4.1832261
3.9015041
5.4240686
6.2596084
4.8132534
4.3623687
3.5905068
3.1851644
2.1808524
1.6548829
0.7229431
0.61135497
1.0540816
1.6457505
2.4862511
2.6897889
2.3588327
0.94220508
1.5573141
0.88407456
0.27769835
-0.80160062
-0.54071326
-3.530761
-5.7887621
-7.702754
-7.3490565
-6.4200889
-6.1430203
-5.1568828
-5.1487854
-4.2664246
-4.3996158
-3.6412786
-3.8286894
-3.1974589
-3.4196573
-2.8883364
-3.1035265
-2.6554938
-2.8625302
-2.4729743
-2.6643201
-2.3239739
-2.5007851
-2.198985
-2.3571771
-2.0898884
-2.2350988
-1.9951082
-2.1319741
-1.9153335
-2.0377469
-1.8407354
-1.9571081
-1.7762359
-1.8813866
-1.7137813
-1.8154134
-1.6590464
-1.7505799
-1.6037313
-1.6933072
-1.5545596
-1.6353779
-1.5034581
-1.5830926
-1.45745
-1.5293408
-1.4083595
-1.480145
-1.3628546
-1.4278779
-1.3141693
-1.3795261
-1.2682178
-1.3268608
-1.2189443
-1.2780629
-1.1717726
-1.2239194
-1.1202294
-1.1737241
-1.0709118
-1.1161286
-1.0159639
-1.0629028
-0.96343534
-1.0010882
-0.90287533
-0.94381285
-0.84488827
-0.8742842
-0.90940172
-0.97279379
-1.038136
-1.0937533
-1.1522145
-1.2019864
-1.2577602
-1.3038521
-1.3579585
-1.4024703
-1.4565581
-1.5010467
-1.5565982
-1.602877
-1.6615786
-1.7123813
-1.7765304
-1.8343908
-1.9073053
-1.9784539
-2.0666161
-2.1547781
-2.2628097
-2.3872908
-2.5262982
-2.6905628
-2.8777207
-3.1218385
-3.3994387
-3.7703196
-4.1654268
-4.7262422
-5.4470756
-3.9639369
-3.9079459
-2.4731094
-1.7325187
-2.9064485
-3.0670051
-3.2008471
-3.7951232
-3.5617141
-3.3823416
-3.1004398
-2.9041555
-2.6982051
-2.5397988
-2.3982143
-2.2716508
-2.1734033
-2.0664269
-1.999574
-1.9078403
-1.858652
-1.7759748
-1.7374067
-1.6606782
-1.6281264
-1.5552093
-1.5257933
-1.4550573
-1.4258479
-1.3557843
-1.3255911
-1.2550585
-1.2209963
-1.149508
-1.1083676
-1.0344911
-0.98522674
-0.90554423
-0.84668261
-0.82175469
-0.88981432
-0.95462384
-1.0148857
-1.0692946
-1.1164796
-1.1550987
-1.1839411
-1.2011124
-1.2038825
-1.1931231
-1.167635
-1.1639028
-1.1894684
-1.2003289
-1.1976587
-1.1808167
-1.1522992
-1.1139868
-1.067121
-1.0130374
-0.9531072
-0.88864209
-0.82094404
-0.80329
-0.80816648
-0.81259385
-0.81642806
-0.81918479
-0.88610634
-0.88212587
-0.87660471
-0.87009781
-0.86286041
-0.91943731
-0.92898362
-0.9375422
-0.94467585
-0.94982605
-1.0090362
-1.002767
-0.99407144
-0.98353237
-0.97175275
-1.0039401
-1.0185195
-1.0324268
-1.0448543
-1.0550677
-1.062424
-1.1086162
-1.1001997
-1.0885398
-1.0743343
-1.0584452
-1.0417951
-1.0718213
-1.0903004
-1.1079742
-1.1238167
-1.136838
-1.1462765
-1.1741336
-1.1636934
-1.1494021
-1.1320979
-1.112898
-1.0929124
-1.1038496
-1.124881
-1.145208
-1.1636669
-1.1790239
-1.1903614
-1.1927506
-1.180923
-1.1649992
-1.1459587
-1.1251278
-1.1036944
-1.0924393
-1.1135963
-1.1343278
-1.1534613
-1.1696037
-1.1817108
-1.1560928
-1.1440319
-1.1282377
-1.1097623
-1.0899745
-1.0699649
-0.89244086
-1.0224898
-1.1405649
-1.2487806
-1.3504666
-1.4482985
-1.5443735
-1.6412324
-1.740871
-1.8466493
-1.9653834
-2.0998915
-2.2422123
-2.3905222
-2.5246099
-2.4647883
-1.697267
-0.60084981
0.15292783
-0.95650515
-1.0687015
-1.1737887
-1.2732944
-1.3686935
-1.4612218
-1.5523162
-1.6424665
-1.7319143
-1.8207327
-1.9050496
-1.9735887
-2.0124466
-2.0174527
-1.8771744
-1.538311
-1.6921874
-1.7342425
-1.7355506
-1.7070536
-1.6577675
-1.5971132
-1.5296827
-1.4570396
-1.3796917
-1.2978101
-1.2111091
-1.1193236
-1.0218473
-0.91830491
-0.88401279
-0.97940475
-1.0699321
-1.1552547
-1.2352773
-1.3097252
-1.3779479
-1.4390293
-1.4914398
-1.5326966
-1.5582453
-1.5607327
-1.4224358
-1.4344082
-1.4243562
-1.3974494
-1.3574667
-1.3071087
-1.248254
-1.1821522
-1.1097747
-1.0317531
-0.94875896
-0.86161999
-0.84577846
-0.92606498
-1.0026546
-1.0744944
-1.1405595
-1.1997873
-1.2510802
-1.2931842
-1.3242144
-1.3411729
-1.3413949
-1.3217433
-1.2511701
-1.2745625
-1.2801377
-1.2694448
-1.244664
-1.208675
-1.1630476
-1.1090668
-1.048043
-0.98121215
-0.90973556
-0.83479457
-0.82766415
-0.89894157
-0.96688132
-1.0302302
-1.0877422
-1.1381128
-1.1799953
-1.2120785
-1.232738
-1.2394798
-1.2305541
-1.2055663
-2.4875602
-2.4946873
-2.4965392
-2.5082562
-2.5274005
-2.5462962
-2.5617517
-2.5744254
-2.5906881
-2.6114848
-2.6112903
-2.6277393
-2.6854721
-2.7108887
-2.6838255
-2.8055309
-2.7859774
-2.8055436
-2.810958
-2.8219642
-2.8347938
-2.8812506
-2.8982824
-2.9003145
-2.907051
-2.92108
-2.9609684
-2.9778566
-2.9984897
-3.0273134
-3.0327993
-3.0331997
-3.005645
-2.9488822
-2.993921
-2.954995
-2.9233392
-2.915298
-2.9152956
-2.9117513
-2.913105
-2.8949104
-2.8610135
-2.8337167
-2.8246655
-2.8304719
-2.8117111
-2.7797431
-2.7676916
-2.7294136
-2.6434149
-2.6526436
-2.629717
-2.6098858
-2.6301004
-2.6110536
-2.5532868
-2.5322566
-2.5178327
-2.4979222
-2.4879529
-2.4815469
-2.4733049
-2.4573958
-2.4386354
-2.4178033
-1.4341614
-1.494031
-1.6097555
-1.6821066
-1.7874668
-1.8814364
-1.8770612
-1.8884716
-1.893345
-1.8983857
-1.7399783
-1.7083473
-1.5635332
-1.4961015
-1.4011098
-2.7313169
-2.8002654
-2.8666185
-2.9397202
-3.0057799
-3.0839425
-3.1413934
-3.2039214
-3.2861083
-3.3387335
-3.4043539
-3.4787132
-3.5370871
-3.5925886
-3.669322
-3.7576406
-3.7618206
-3.6804595
-3.6166229
-3.5495273
-3.4909606
-3.4261365
-3.3526819
-3.2967971
-3.2225646
-3.1545942
-3.0920322
-3.0233865
-2.9475374
-2.8830341
-2.8063546
-2.7435417
-2.6364167
-2.7502474
-2.8145805
-2.8978551
-2.9536192
-3.0387177
-3.1028278
-3.1624777
-3.2405932
-3.3090058
-3.3616334
-3.4454095
-3.5059732
-3.5603359
-3.6340978
-3.6996527
-3.770793
-3.7984676
-3.7156281
-3.6499761
-3.5813959
-3.5219358
-3.4576431
-3.3783998
-3.3251813
-3.2511944
-3.1770707
-3.1176518
-3.0477389
-2.9676599
-2.9089734
-2.8295768
-2.7627276
-2.659065
-2.7709661
-2.8433206
-2.9149172
-2.9867948
-3.0545104
-3.1271558
-3.1963034
-3.2585983
-3.3353715
-3.3999648
-3.4676591
-3.5307021
-3.6030387
-3.6677315
-3.7295552
-3.8196628
-3.8002714
-3.9853421
-3.9553372
-3.7945304
-3.7832033
-3.7537511
-3.695477
-3.6205464
-3.5427707
-3.4854397
-3.421735
-3.3444566
-3.2724492
-3.2178337
-3.1347346
-3.0673938
-3.0055121
-2.9226879
-2.8577823
-2.7881137
-2.6779658
-2.798164
-2.8699742
-2.9338617
-3.0158396
-3.0841133
-3.1444566
-3.2295294
-3.2904387
-3.3554387
-3.4332858
-3.5032936
-3.5591125
-3.6318067
-3.7104092
-3.7204869
-3.8057213
-3.8106421
-3.9319308
-3.9616978
-3.8415643
-3.810467
-3.732812
-3.6723383
-3.6500831
-3.582532
-3.515763
-3.4458526
-3.3752641
-3.3054115
-3.2385141
-3.1629303
-3.0978358
-3.0247415
-2.9529028
-2.8799781
-2.8101782
-2.7009018
-2.8184724
-2.8855974
-2.9705469
-3.0356644
-3.1045654
-3.1842081
-3.2495721
-3.312327
-3.3951866
-3.4613246
-3.5240141
-3.5974244
-3.6098271
-3.6924645
-3.7573966
-3.8312218
-3.8592757
-3.9579963
-4.0632893
-4.0961349
-3.952219
-3.871776
-3.8570052
-3.7741041
-3.703714
-3.6243936
-3.5629108
-3.5412893
-3.4814023
-3.4098229
-3.3247012
-3.2684367
-3.1994142
-3.1155589
-3.053631
-2.9835086
-2.89831
-2.8342911
-2.7238128
-2.8388514
-2.9151457
-2.993101
-3.0662838
-3.1324993
-3.2092457
-3.2823225
-3.3429679
-3.4210128
-3.492522
-3.5018242
-3.5808126
-3.6482322
-3.721635
-3.7856688
-3.8755604
-3.9199044
-3.9633321
-4.0912104
-4.035594
-4.2510973
-4.2495573
-4.0536277
-3.9860051
-3.9537842
-3.9676257
-3.8780067
-3.8031621
-3.7435002
-3.6656965
-3.5900424
-3.5144398
-3.4606984
-3.4393184
-3.3646427
-3.2913737
-3.2236029
-3.1551876
-3.0743277
-3.0088725
-2.9346917
-2.8461805
-2.7505142
-2.8489527
-2.9476495
-3.0281961
-3.084569
-3.1703518
-3.2423218
-3.3016963
-3.3768662
-3.3894113
-3.4781551
-3.5367361
-3.6064701
-3.6787935
-3.7647868
-3.8352617
-3.8760592
-3.9906609
-3.9969128
-4.0529296
-4.0683097
-4.2326593
-4.2710441
-4.2779263
-4.2390913
-4.0969201
-4.0873978
-4.0060245
-3.9153669
-3.8830966
-3.8558246
-3.7744151
-3.6937488
-3.6277471
-3.5520532
-3.4879627
-3.405929
-3.3379409
-3.3198208
-3.263618
-3.1838756
-3.1047716
-3.057914
-2.9674633
-3.0131101
-3.0396984
-3.0531506
-3.0640193
-3.0802995
-3.1025755
-3.1285548
-3.1538455
-3.1320273
-3.1165899
-3.138994
-3.1886344
-3.1920752
-3.2009233
-3.2192738
-3.246048
-3.2186603
-3.1798587
-3.1974686
-3.158385
-3.1155841
-3.0749659
-3.0454051
-3.0344867
-3.0303171
-3.0286827
-3.0101648
-2.9886764
-2.9794092
-2.9868765
-2.9570865
-2.872419
-2.8070549
-2.9146886
-2.9176888
-2.8274024
-2.7618856
-2.6338576
-2.7155989
-2.7396436
-2.7535231
-2.7771885
-2.7845924
-2.801723
-2.8129765
-2.8435923
-2.8571082
-2.8808822
-2.8905736
-2.9190115
-2.9292979
-2.9311451
-2.9394984
-2.9963946
-3.0104088
-3.0327634
-3.0449543
-3.0746
-3.0827891
-3.1099058
-3.1205198
-3.1590012
-3.1748583
-3.1842801
-3.2045186
-3.2215612
-3.2539812
-3.2473513
-3.2806492
-3.263804
-3.3835001
-3.4739516
-3.5470622
-3.6695616
-3.7776032
-3.8727337
-3.9627762
-4.1570589
-4.2436726
-4.3133352
-4.4015684
-4.6668017
-4.719582
-4.8806464
-4.8837459
-5.1208621
-5.2099239
-5.3016066
-5.4942483
-5.5050229
-5.6195383
-5.6548607
-5.5577084
-5.5795203
-5.518082
-5.3333473
-5.1851612
-4.9231021
-4.876373
-4.7436073
-4.663385
-4.4284751
-4.3137345
-4.2812364
-4.1527479
-3.9745486
-3.8533711
-3.8268766
-3.6229903
-3.5602186
-3.4570091
-3.341099
-3.2370042
-3.220881
-3.2196102
-3.2154125
-3.2124762
-3.2029483
-3.1780794
-3.1535571
-3.1188482
-3.1035772
-3.0930898
-3.0762897
-3.0416742
-3.0196463
-2.9880055
-2.9782909
-2.9808205
-2.9726913
-2.9674493
-2.9433952
-2.8952836
-2.8706362
-2.8502709
-2.8298743
-2.8180865
-2.8097017
-2.7960898
-2.7785395
-2.7596753
-2.7407045
-2.7256168
-2.7157277
-2.7085422
-2.1457731
-2.2150967
-2.2959165
-2.3877009
-2.3718214
-2.3515266
-2.3258568
-2.001804
-2.0661499
-2.1663236
-2.2435478
-2.3170288
-2.4233388
-2.4078154
-2.3076543
-2.2277273
-2.1589086
-2.0542259
-1.9889646
-2.1251698
-2.2077749
-2.2794895
-2.2701723
-2.2754239
-2.5805649
-2.5986099
-2.6222073
-2.5219565
-2.5302592
-2.639834
-2.6509928
-2.5456087
-2.5608637
-2.6581891
-2.6718512
-2.5796687
-2.5951159
-2.6913857
-2.7137169
-2.604606
-2.6145775
-2.7314632
-2.7475664
-2.6319999
-2.6532782
-2.7627575
-2.7759671
-2.6642964
-2.6659642
-2.7882269
-2.8024695
-2.6812577
-2.7065193
-2.8090073
-2.8193825
-2.7304171
-2.7576965
-2.8271161
-2.8419986
-2.8783146
-2.906445
-2.9184727
-2.9301285
-2.9557801
-2.9776689
-2.9925634
-2.9973565
-3.0125003
-3.0349214
-3.0612256
-3.0901522
-3.1078219
-3.1220422
-3.1340873
-3.2368256
-3.361116
-3.4485483
-3.554517
-3.64464
-3.8119332
-3.8756125
-4.0020762
-4.1493548
-4.27346
-4.34841
-4.4834271
-4.6391148
-4.742659
-4.8951274
-4.9447979
-5.1663273
-5.1421448
-5.137226
-5.1637695
-4.8916523
-4.8163365
-4.691604
-4.581966
-4.4409707
-4.3032848
-4.2215899
-4.0943297
-3.9599632
-3.8472131
-3.7402733
-3.6165465
-3.5099755
-3.419832
-3.3336766
-3.1645975
-3.0815173
-2.9695758
-2.8570597
-2.891997
-2.8767191
-2.8838922
-2.8968993
-2.8535145
-2.8249239
-2.8176503
-2.78765
-2.7809876
-2.7699839
-2.7463539
-2.735896
-2.7115406
-2.7011701
-2.685746
-2.6688346
-2.6600182
-2.6519213
-2.5623316
-2.5325623
-2.5064549
-2.4787336
-2.4661592
-2.4613773
-2.4519196
-2.4507866
-2.4458897
-2.4344116
-2.3333689
-2.2558373
-2.1766576
-2.0822591
-2.0105144
-1.8985141
-1.8208793
-1.7247888
-1.6262621
-1.4894895
-1.641496
-1.7339977
-1.8279842
-1.9134649
-2.01945
-2.1001718
-2.1879139
-2.2661569
-2.3542966
-2.3640834
-2.2864908
-2.2021623
-2.1115368
-2.0317213
-1.9254829
-1.8393688
-1.7441957
-1.6507638
-1.5214651
-1.6356502
-1.7496755
-1.8674127
-1.9274523
-2.0514335
-2.1183929
-2.2144723
-2.3095154
-2.3601729
-2.3733483
-2.3343795
-2.2156059
-2.1273124
-2.0747595
-1.9336962
-1.8739285
-1.7657591
-1.6467058
-1.5319641
-1.6791735
-1.7960974
-1.8554268
-1.9483053
-2.1027679
-2.1317552
-2.2169743
-2.3602813
-2.4060331
-2.4369089
-2.3555668
-2.2327822
-2.1483583
-2.1064566
-1.9651905
-1.861657
-1.8054527
-1.7002815
-1.542869
-1.7140194
-1.7908828
-1.8875976
-1.9887638
-2.0852278
-2.1894904
-2.2441035
-2.3375326
-2.4722503
-2.49092
-2.3416663
-2.2485137
-2.2159423
-2.0811643
-2.0008014
-1.9069542
-1.787354
-1.7261279
-1.5722575
-1.7294849
-1.8028674
-1.9171575
-2.0095345
-2.0988922
-2.217346
-2.2750936
-2.365621
-2.4859379
-2.4856698
-2.5802821
-2.5849966
-2.5164568
-2.3915032
-2.3841241
-2.3012294
-2.2109891
-2.1203261
-2.0197438
-1.9223218
-1.8184472
-1.73556
-1.5998075
-1.7250272
-1.8176062
-1.9412195
-2.0344505
-2.1397404
-2.2224312
-2.3124905
-2.3061158
-2.39521
-2.5503751
-2.5801391
-2.6100044
-2.5554791
-2.4257417
-2.3105245
-2.269333
-2.2478965
-2.1463725
-2.0448928
-1.9694053
-1.8201844
-1.7176262
-1.6153098
-1.7249856
-1.8341049
-1.996881
-2.0439257
-2.1560847
-2.1698464
-2.2735375
-2.3365396
-2.4538529
-2.5399398
-2.6458954
-2.6462355
-2.5534899
-2.4671659
-2.3728219
-2.2676598
-2.1923426
-2.0552213
-2.0419176
-1.9926926
-1.856446
-1.7387427
-1.6440055
-1.7764628
-1.8799224
-1.9827996
-1.9982873
-2.0776825
-2.1953021
-2.2617705
-2.4001481
-2.472951
-2.589372
-2.6341725
-2.649465
-2.6136419
-2.4831043
-2.4260072
-2.2735475
-2.1836027
-2.116931
-2.011652
-1.9060235
-1.8883622
-1.7700879
-1.6560549
-1.7846302
-1.7855654
-1.9284474
-2.0039485
-2.1420451
-2.1928927
-2.2929802
-2.4311317
-2.5008067
-2.6163536
-2.689129
-2.7194414
-2.6163828
-2.5249222
-2.4283507
-2.3121475
-2.2211828
-2.1413657
-2.0206788
-1.9330482
-1.823931
-1.6758923
-1.5080584
-1.4805985
-1.4662659
-1.447686
-1.4232974
-1.3927344
-1.3848213
-1.3625028
-1.3399279
-1.3280195
-2.643479
-2.762704
-2.8567066
-2.91388
-2.9182252
-2.8398044
-2.8909984
-2.880588
-2.8717894
-2.8310755
-2.8131094
-2.8025425
-2.789312
-2.7812089
-2.7667931
-2.7586631
-2.7459658
-2.7369279
-2.7224158
-2.7141648
-2.7013478
-2.6945715
-2.6817337
-2.6777824
-2.7304751
-2.7916293
-2.8576662
-2.9266798
-2.9967093
-3.0778792
-3.1247661
-3.1932031
-3.2767594
-3.3211408
-3.390476
-3.4711375
-3.5188294
-3.5731554
-3.6846116
-3.6776586
-3.6726892
-3.6268757
-3.5623856
-3.5246442
-3.5233147
-3.4953111
-3.4752931
-3.4704352
-3.4669595
-3.4531167
-3.3234243
-3.3762698
-3.3879941
-3.3330111
-3.2708296
-3.2619327
-3.2322613
-3.279054
-3.3424586
-3.4104539
-3.4110555
-3.367074
-3.2919646
-3.2308797
-3.1861084
-3.1659446
-3.1075038
-3.1298304
-3.2077768
-3.2247733
-3.3165711
-3.3941258
-3.4054972
-3.4415162
-3.3834126
-3.3337738
-3.2553381
-3.1992356
-3.1417404
-3.0669082
-3.0375255
-3.1024
-3.1425125
-3.1970544
-3.2967893
-3.336298
-3.3794374
-3.4871903
-3.4735639
-3.5139026
-3.5287382
-3.4651958
-3.4695912
-3.4290462
-3.3386024
-3.286455
-3.2384883
-3.1449995
-3.0907511
-2.9112233
-2.9756893
-3.0652902
-3.0813856
-3.1603889
-3.2737827
-3.2768505
-3.3545527
-3.3742736
-3.4676464
-3.4905052
-3.5521498
-3.5138642
-3.4990807
-3.4824572
-3.4757151
-3.4732347
-3.4587704
-3.4377895
-3.4259982
-3.413217
-3.4017706
-2.0040228
-2.1053263
-1.8774812
-2.2644886
-2.4623775
-1.677091
-1.796012
-1.6866428
-1.6959741
-2.0169491
-2.1655629
-2.1446628
-2.124522
-2.2945089
-2.2752972
-2.4311253
-2.4496888
-2.5869598
-2.5699412
-2.8212362
-2.6490015
-2.6725485
-2.4863622
-2.2879417
-2.3127325
-2.5115291
-2.3144603
-2.1506612
-2.0034255
-2.0193282
-1.8894251
-2.0145067
-2.1654343
-2.3349549
-2.5378322
-2.3387875
-2.5191195
-2.4869593
-2.4563913
-2.42757
-2.4773129
-2.3856513
-2.4000553
-2.4934617
-2.6385579
-2.6211904
-2.6026476
-2.5878367
-2.4847389
-2.9258444
-2.801079
-2.8158156
-2.9431744
-2.9765803
-2.9666008
-2.9543618
-2.6594595
-2.6043904
-1.5665438
-1.5765542
-1.7049609
-1.7133859
-1.5859995
-1.4562816
-1.464183
-1.6019612
-1.5946021
-1.720993
-1.7274143
-1.8366558
-1.8317951
-1.8258362
-1.8190929
-1.8117713
-1.8040442
-1.9053861
-1.8996038
-1.9847741
-2.0480433
-2.0857838
-2.046414
-1.9873919
-1.989344
-1.9107184
-1.9155285
-1.919706
-1.9231079
-1.9254614
-1.9893003
-1.9907078
-1.9910717
-1.9905947
-2.0438073
-2.0702823
-2.0787151
-2.0300284
-2.0356195
-2.0402191
-2.0605206
-2.0494151
-2.0370559
-2.0233179
-2.3104089
-2.2711797
-2.2043582
-2.1140409
-2.281448
-2.3923532
-2.4019936
-2.2093757
-2.1222803
-2.2941987
-2.4877558
-2.4686196
-2.6038072
-2.8661331
-2.8437114
-2.9933225
-2.9724892
-2.687793
-2.7799335
-3.0961179
-3.1132978
-2.7897498
-2.5364593
-2.4790183
-2.4842455
-2.2718261
-2.3053339
-2.5355479
-2.8038842
-2.7979239
-2.7155669
-2.7020805
-3.0133315
-3.1291163
-3.1425359
-3.0322551
-2.7278847
-2.6203111
-2.8887265
-2.7221663
-2.696889
-2.9267169
-2.8931761
-2.8609166
-2.8304848
-2.8018722
-2.8915102
-2.9971
-3.1362887
-3.1530415
-3.0116393
-2.9074817
-3.0333976
-3.0551385
-2.9267418
-3.0307461
-3.1733033
-3.1901644
-3.045457
-2.9439143
-3.0738713
-3.1054016
-3.0953544
-3.0845773
-3.0733395
-3.0636937
-3.1141337
-3.1738181
-3.1234373
-3.1320194
-3.1804304
-3.1256228
-3.0558948
-3.0064132
-3.0180469
-3.0706304
-3.0009692
-3.0158281
-3.0799598
-3.0275869
-3.0360206
-3.0877082
-3.0319795
-3.0363928
-2.9852915
-3.0466743
-3.0972441
-3.111658
-3.0596856
-2.965236
-2.8353694
-2.6502856
-2.7272324
-2.5971513
-2.7113089
-2.7274673
-2.6117066
-2.5003636
-2.5179341
-2.630321
-2.7480998
-2.7661426
-2.6458132
-2.5342721
-2.5532275
-2.4184011
-2.5134863
-2.5305281
-2.4335181
-2.4532879
-2.5518696
-2.5700506
-2.4691791
-2.3049737
-2.1557207
-2.0035117
-1.8759664
-1.7631167
-1.7764323
-1.8934234
-2.05243
-2.0356686
-1.9015267
-2.024935
-2.1804371
-2.1956626
-2.0352559
-1.913728
-1.9259794
-1.7898991
-1.9114052
-1.9298158
-1.803415
-1.6545873
-1.7583465
-1.8753183
-2.0257078
-2.1834225
-2.3945965
-2.3660617
-2.1871337
-2.3559083
-2.5651871
-2.5936416
-2.3773127
-2.2093663
-2.2324109
-2.0696361
-2.2111517
-2.0454383
-2.0554723
-1.9382248
-2.087279
-2.2269562
-2.4222556
-2.3993546
-2.6233776
-2.424621
-2.2126665
-2.0487674
-2.072488
-2.242763
-2.4563004
-2.2562816
-2.281297
-2.1054097
-1.9504137
-1.8169106
-1.6686805
-2.1549431
-2.3379337
-2.4308055
-2.4081232
-2.3930503
-2.4900505
-2.5912495
-2.4771428
-2.4933563
-2.6083445
-2.5060097
-2.5282742
-2.6314891
-2.5161583
-2.4473457
-2.5454695
-2.6514035
-2.5352659
-2.5811796
-2.6916417
-2.8090782
-2.8985881
-2.9613673
-2.9761965
-2.9558458
-2.930866
-2.8694018
-2.7821935
-2.8640836
-2.8847824
-2.9435581
-2.9274024
-2.9149789
-2.9000912
-2.8633584
-2.854049
-2.8417128
-2.7887389
-2.7782955
-2.762962
-2.7533601
-2.7398183
-2.7300958
-2.7162195
-2.7076636
-2.6958087
-2.6868965
-2.6736065
-2.6656486
-2.6540092
-2.6470104
-2.6349684
-2.6268671
-2.613213
-2.6797647
-2.670642
-2.7169767
-2.7875191
-2.8475229
-2.8536824
-2.9129526
-2.9884658
-3.0711694
-3.1028617
-3.1789845
-3.2719064
-3.2981502
-3.2498047
-3.235524
-3.2287679
-3.2249779
-3.2054592
-3.1885188
-3.1429269
-3.1563002
-3.2229042
-3.2114348
-3.1977389
-3.1872654
-3.1777972
-3.1664843
-3.3027307
-3.2862845
-3.1306083
-2.9961134
-3.2426951
-3.833099
-3.7341232
-3.7505527
-3.8684261
-2.2495609
-2.264557
-2.2777468
-2.2890151
-2.2982075
-2.2710895
-2.2135876
-2.1301541
-2.306866
-2.4110525
-2.4195418
-2.2169681
-2.1376214
-2.3194528
-2.5264424
-2.5070414
-2.6364505
-2.9118091
-2.7483651
-2.7754982
-2.9355133
-2.6521512
-2.7487343
-2.738976
-2.4881749
-2.5325118
-2.5272835
-2.4907996
-2.2689554
-2.2654381
-2.2195207
-2.1446709
-2.3320203
-2.4275403
-2.4351862
-2.2213099
-2.151333
-2.3446704
-2.5665109
-2.5461695
-2.6676476
-2.9599783
-2.8037191
-2.8334266
-2.6547241
-2.8985344
-2.8578216
-2.8192061
-2.7824409
-2.747163
-2.7133408
-2.6810182
-2.7637716
-2.7442233
-2.8511141
-2.9840606
-2.8635033
-2.8455472
-2.8686353
-2.7994086
-2.7364254
-2.7869221
-2.8507909
-2.857927
-2.8087305
-2.746116
-2.794687
-2.7228326
-2.7844931
-2.6627141
-2.732652
-2.6885521
-2.6974141
-2.7427061
-2.8139169
-2.8041116
-2.7542585
-2.8178744
-2.8691099
-2.8793572
-2.8273136
-2.7642013
-2.7748959
-2.7074107
-2.752892
-2.7623152
-2.7170873
-2.7857204
-2.8483173
-2.8380595
-2.8898733
-2.8265628
-2.8374177
-2.8993603
-2.9115814
-2.8587451
-2.7952974
-2.7271912
-2.7743615
-2.7847867
-2.7367683
-2.8056299
-2.869222
-2.9242938
-2.8581557
-2.8487812
-2.8695325
-2.8169912
-2.7884581
-2.6659294
-2.6821065
-2.5704302
-2.6782937
-2.6598985
-2.7482749
-2.7972036
-2.8078628
-2.7586906
-2.8283468
-2.8927826
-2.8817078
-2.9384554
-2.9495901
-2.8804259
-2.8941919
-2.83918
-2.8076053
-2.9485738
-2.9282579
-2.9048029
-2.885622
-3.0072597
-2.8719881
-2.8883219
-2.7815512
-2.8025245
-2.9105631
-3.0512483
-3.0269961
-3.0648563
-3.0541837
-3.0419191
-3.0299319
-3.0184198
-3.0078409
-2.9952175
-2.9322112
-2.9883171
-2.9200744
-2.9304693
-2.8795905
-2.9430444
-2.9981337
-3.0567878
-3.0432879
-3.1243165
-3.0711805
-3.081695
-3.136785
-3.0713737
-3.0085511
-2.9531671
-2.88865
-2.9406868
-2.9503533
-2.8986045
-2.9628235
-3.0177061
-3.0836599
-3.1474001
-3.0914793
-3.1042184
-3.1617791
-3.0968446
-3.0286671
-2.9742177
-2.9102127
-2.9636744
-2.9755242
-2.9217376
-2.9849218
-3.0392342
-3.1076541
-3.1751073
-3.1162678
-3.127733
-3.1872883
-3.1206708
-3.0521359
-2.9962028
-2.9319185
-2.9866771
-2.9961548
-2.9421121
-3.0067465
-3.0630137
-3.1337657
-3.0766804
-3.1372942
-3.1969741
-3.2103136
-3.1504747
-3.0898592
-3.0195882
-2.9544168
-3.0087695
-3.0749242
-3.0858933
-3.0306816
-2.96625
-3.0212093
-3.0342737
-2.9776944
-2.9036793
-2.9608109
-2.971332
-2.9136
-2.8506604
-2.7795077
-2.7695733
-2.8196421
-2.8289723
-2.9065138
-2.9197054
-2.8631561
-2.8310589
-2.7036663
-2.5907019
-2.7007913
-2.7205592
-2.6087836
-2.720439
-2.8514085
-2.99465
-2.9733235
-2.8432986
-2.8208372
-2.9274158
-3.0721413
-3.0977123
-2.9512113
-2.9684324
-2.8621032
-2.886065
-2.7434847
-2.5528333
-2.6304212
-2.7441151
-2.8764755
-2.8977946
-2.7607867
-2.6489272
-2.7638416
-2.788553
-2.6718077
-2.5881449
-2.7852286
-2.9238669
-2.9462663
-2.8033421
-2.6914148
-2.8100481
-2.8502653
-2.8360738
-2.8257244
-2.8105078
-2.8009736
-2.6902348
-2.6735712
-2.651124
-2.6252134
-2.6025924
-2.5828228
-2.5625284
-2.5436864
-2.5188705
-2.6650747
-2.5588071
-2.5366755
-1.5363529
-1.6310667
-1.6486421
-1.5486038
-1.4542545
-1.5389073
-1.7620519
-1.7383797
-1.8686509
-1.8994192
-1.6421212
-1.7534216
-1.4852044
-1.4028391
-1.3283281
-1.268294
-0.8981449
-0.8958427
-0.89489048
-0.92350359
-0.90869226
-0.90487544
-0.90921778
-0.91293638
-2.0068582
-2.1666114
-1.8800397
-2.212087
-2.0450548
-2.3257778
-2.2822396
-2.240589
-2.1972813
-2.0470493
-1.8994684
-1.7772502
-1.9487015
-1.9678183
-1.8301797
-1.682496
-1.7962622
-1.9242757
-2.1227331
-2.0971798
-2.2751997