/*--------------------------------*- C++ -*----------------------------------*\
| =========                 |                                                 |
| \\      /  F ield         | OpenFOAM: The Open Source CFD Toolbox           |
|  \\    /   O peration     | Version:  v2012                                 |
|   \\  /    A nd           | Website:  www.openfoam.com                      |
|    \\/     M anipulation  |                                                 |
\*---------------------------------------------------------------------------*/
FoamFile
{
    version     2.0;
    format      ascii;
    class       surfaceScalarField;
    location    "184";
    object      phi;
}
// * * * * * * * * * * * * * * * * * * * * * * * * * * * * * * * * * * * * * //

dimensions      [0 3 -1 0 0 0 0];
oriented        oriented;


internalField   nonuniform List<scalar> 
71712
(
-0.0070190906
-1.9447623e-05
4.0949001e-05
-3.0376818e-06
-0.0070368552
-1.8477286e-05
3.8909401e-05
-2.6675372e-06
-0.0070535628
-1.7069921e-05
3.5950249e-05
-2.1727253e-06
-0.0070688736
-1.5236555e-05
3.2102517e-05
-1.5551327e-06
-0.0070824531
-1.2981141e-05
2.7381551e-05
-8.2090698e-07
-0.0070939579
-1.030485e-05
2.1784872e-05
2.4740239e-08
-0.0071030252
-7.2022767e-06
1.5294294e-05
9.7529682e-07
-0.007109288
-3.6747006e-06
7.9062931e-06
2.0311874e-06
-0.0071123839
2.2854838e-07
-3.2020902e-07
3.1875274e-06
-0.0071119444
4.3232446e-06
-9.1655079e-06
4.4028062e-06
-0.0071076739
8.8481006e-06
-1.8775007e-05
5.6564233e-06
1.3835384e-05
-2.9096194e-05
7.0156292e-06
-1.5484758e-05
0.00044767638
-0.00097266295
0.00052349778
-2.7289511e-05
0.00044340412
-0.00094907326
0.00051747389
-7.6214233e-05
0.00044838021
-0.00091233263
0.00051287714
-0.00036758715
0.00050714164
-0.00077685175
0.00056108303
-0.0003799103
0.00019788429
-0.00030060868
0.00011504753
-0.00041408207
6.3449314e-05
-7.9083193e-05
4.9805646e-05
-7.3579804e-05
0.00026270184
-0.0010249474
0.00042174326
-4.0514584e-05
0.00039167012
-0.00092033279
0.00049559744
-1.8151761e-05
0.00042927634
-0.00096780647
0.00051616731
-2.025754e-05
0.00044297506
-0.00096456985
0.00052370057
-1.3041438e-05
0.00044852165
-0.00098321376
0.00052747601
-2.0825201e-05
0.00045058666
-0.00097269413
0.00052989123
-1.8953713e-05
0.00045003832
-0.00098112863
0.00052921882
-3.5642637e-05
0.00044650915
-0.0009542954
0.00052447517
-8.3409731e-05
0.00045141664
-0.00092284211
0.00051919257
-0.00037628646
0.00050822307
-0.00078097276
0.00056562643
-0.00038573219
0.00019316164
-0.00029381955
0.00011010364
-0.00042455167
6.0293753e-05
-6.711357e-05
4.5639292e-05
-8.0739452e-05
0.00026404867
-0.0010328323
0.00042497137
-5.2037887e-05
0.00039121857
-0.00091717263
0.00049725249
-2.8563019e-05
0.00042629614
-0.00096515138
0.00051538038
-4.4006333e-05
0.00043723059
-0.00094013519
0.00051834792
-8.9092763e-05
0.00044838283
-0.0009216226
0.0005183262
-0.00038323646
0.00050502997
-0.00077631589
0.00056542961
-0.00038818996
0.00018333411
-0.00028037187
0.00010199126
-0.00043260576
5.424424e-05
-4.8672562e-05
3.8844124e-05
-9.0947453e-05
0.00026129823
-0.0010258993
0.00042294273
-7.5623663e-05
0.00038549387
-0.00089265204
0.00049183438
-9.9915314e-05
0.00042699491
0.00050822914
-0.00091093241
-0.00038888831
0.0004932275
0.00055944752
-0.00076370202
-0.00039180915
0.00017056075
-0.00025735364
8.9713726e-05
-0.00044649061
4.4528867e-05
-1.6293404e-05
2.6446001e-05
-0.00011234816
0.00025772379
-0.0010118678
0.00042000151
-0.00012186835
0.00037887534
-0.00085888971
0.00048953456
-0.00013752054
0.00042199079
-0.00091492281
0.00050858421
-0.00044819371
0.00049122103
-0.00075099505
0.00057044719
-0.00048094418
0.00014957635
-0.00019143947
7.4613589e-05
-0.00073234085
1.8743877e-05
0.00022112435
1.1528438e-05
-0.00051765579
1.7740668e-06
-0.00020439215
-1.2066979e-05
-0.00073924795
-2.1338357e-05
0.00025613534
-1.3204821e-05
-0.00048494759
-3.5522633e-05
-0.00018463654
-3.4141184e-05
-0.00043969866
-0.00016158126
0.00021066679
-9.4334462e-05
-0.00044914455
0.00073574403
-0.00017123719
-0.00055506095
-0.00050115483
1.7952212e-05
-2.773938e-05
6.1797447e-05
-0.00056309942
-1.6520373e-06
2.4851228e-05
3.8745396e-05
-0.00061915353
3.6325978e-05
1.7196647e-05
2.5314912e-06
-0.00049788902
-0.00012025216
-3.0116731e-05
2.9104377e-05
-0.00021179362
0.00020513552
-0.00027607947
-0.00021515146
-0.00034297168
-1.8571731e-05
5.3347096e-05
9.6402696e-05
-0.00039941777
-2.2755349e-05
2.1688141e-05
5.75133e-05
-0.00044473141
-2.0623985e-05
2.4553141e-05
4.1384484e-05
-0.00047471334
-1.9696512e-05
2.0369929e-05
2.9308516e-05
-0.00049756768
-1.9061267e-05
1.8792509e-05
2.3123096e-05
-0.0005172191
-1.8815277e-05
1.8453321e-05
2.0013375e-05
-0.00053660316
-1.9122293e-05
1.882594e-05
1.9680418e-05
-0.00055747509
-1.9400251e-05
1.9269507e-05
2.1002674e-05
-0.00057998286
-1.9764395e-05
1.9473675e-05
2.2798491e-05
-0.00060292648
-1.9643228e-05
1.8510029e-05
2.4076813e-05
-0.00062510085
-1.3982276e-05
1.3630358e-05
2.2526293e-05
-0.00060403687
6.9226512e-06
-1.2368402e-05
-1.5618232e-05
-0.00019583411
2.8669979e-05
-0.00024369681
-0.00019317593
-0.000374004
-1.6474861e-05
6.6947005e-05
0.00012769774
-2.2584454e-05
2.8826458e-05
8.5121187e-05
0.0005564463
-2.0346934e-05
5.2644317e-05
0.0004965838
-1.7325134e-05
5.6538381e-05
0.00041264982
-1.2190852e-05
7.3540381e-05
0.00030747882
1.8207493e-06
8.6875388e-05
0.00060601197
2.9865201e-05
-0.00029972837
0.00063106919
-2.5048208e-05
6.9136417e-06
0.0006144071
-2.5613094e-05
2.8292909e-05
0.00059134015
-2.0755559e-05
2.4179272e-05
0.00056845762
-2.0235331e-05
2.3353472e-05
0.00054751137
-1.9748196e-05
2.1294193e-05
0.00052798941
-1.9536489e-05
1.9936159e-05
0.00050954216
-1.8981535e-05
1.8613501e-05
0.00049005591
-1.8885105e-05
1.9310097e-05
0.00046864459
-1.9350237e-05
2.1065037e-05
0.00043833426
-1.918831e-05
2.887466e-05
0.00039497855
-1.8987293e-05
3.9587648e-05
0.00034110587
-2.0362274e-05
5.5663226e-05
9.3435105e-05
0.00021017568
-1.4616584e-05
5.2111667e-05
0.00021742785
-3.9109379e-05
0.00049386965
0.0002102119
-0.00027647802
0.00061396832
-0.00010710168
2.3328985e-05
0.0005594311
4.8367988e-05
4.5171959e-06
0.00056645107
-3.895091e-05
4.9883152e-05
0.00042630524
-5.0051025e-05
2.8615606e-05
0.00042231452
-3.8197077e-05
6.6651631e-06
0.00041845238
-2.044034e-05
2.9641193e-06
0.00042073093
-3.4371342e-07
-1.6076841e-07
0.0004219849
2.3297124e-05
-5.8072192e-06
0.0005717314
2.7058753e-05
-2.7228897e-05
4.8220151e-05
-1.510253e-05
0.00058425168
-4.5637905e-05
6.3560031e-05
0.00054981533
-7.3934188e-05
4.4470946e-05
0.00051064542
-6.9565542e-05
1.5297326e-05
0.0004663554
-5.8306444e-05
0.00034603715
-2.8487164e-05
0.00054420062
1.8371951e-05
-4.5974676e-05
1.9952415e-05
-4.2645182e-06
0.00058378583
-5.5273109e-05
3.9926985e-05
0.0005531395
-7.9886573e-05
2.4452041e-05
0.00051530416
-7.2834303e-05
1.0979318e-06
0.00047034394
-6.1495958e-05
0.00034731105
-3.0670651e-05
0.0005482779
3.2063617e-05
-4.9696353e-05
1.5907021e-05
3.8175382e-06
0.00058697667
-5.8423325e-05
3.6130048e-05
0.00056750729
-8.2700338e-05
2.5562023e-05
0.00053870147
-7.9750617e-05
1.7611839e-05
0.00052324473
-7.8063959e-05
9.8504585e-06
0.00050822311
-7.4165584e-05
-7.5583865e-06
0.00047158434
-6.2956927e-05
0.00034855254
-3.176851e-05
0.0005515434
4.1942405e-05
-5.1771623e-05
4.306839e-06
2.5508568e-05
0.00058994386
-6.8215864e-05
3.8211151e-05
0.00056234598
-8.8027221e-05
3.0864993e-05
0.00053756051
-7.8797711e-05
1.8753646e-05
0.00053498372
-7.6363223e-05
9.2348286e-06
0.00053778797
-7.8230836e-05
7.5640335e-06
0.00053354519
-8.1287733e-05
8.4166078e-06
0.00052923645
-8.1567374e-05
7.5344626e-06
0.00052341681
-7.9559604e-05
2.7259424e-06
0.00050931727
-7.5232408e-05
-1.2611635e-05
0.00047089116
-6.3883457e-05
0.00034602306
-3.2483546e-05
0.00054914882
4.8349315e-05
-5.3590779e-05
-3.3563318e-06
3.3090039e-05
0.00058939431
-6.9979196e-05
3.0955261e-05
0.00056270042
-8.987037e-05
2.3028203e-05
0.0005383141
-8.2006836e-05
1.7353385e-05
0.00052964135
-8.0562409e-05
0.00052812109
-7.9104004e-05
-1.3899567e-05
-0.00055499426
0.00027109834
0.00026822206
-1.3350658e-05
-0.00056735306
0.00029091924
0.00027588491
-1.3933165e-05
-0.00057730816
0.00029779549
0.00028009518
-1.4866501e-05
-0.00058585451
0.0003020654
0.00028472245
-3.154176e-05
-0.00058412555
0.00030870681
0.000292094
-0.00017771063
-0.0005321261
0.00034701042
0.00033128455
-0.00018153959
-0.00017145726
0.0001185631
5.672312e-05
-2.6635125e-05
0.00018257107
-0.00057015937
0.00023268384
-1.0911497e-05
0.00027662788
-0.0005743828
0.00028203129
-1.2541355e-05
0.00029588548
-0.00058456979
0.00029031417
-3.2858049e-05
0.00030466992
-0.0005791313
0.00029477807
-0.00017841028
0.00034125227
-0.00052461643
0.00032891639
-0.00018553553
0.00011327971
-0.00015527092
4.9116457e-05
-3.676247e-05
-0.00055284114
0.00017895796
0.00022511013
-2.0642619e-05
-0.00056079676
0.00027255345
0.00027212346
-1.9246931e-05
-0.00057787375
0.00029387523
0.00028260283
-3.5470439e-05
-0.00058051747
0.00030484049
0.00029190049
-0.00018049012
-0.00053043272
0.00034407917
0.00033137323
-0.0001855054
-0.00016453918
0.00011557587
5.3978587e-05
-3.2958343e-05
0.0001816932
-0.00056846953
0.00023422928
-2.0242687e-05
0.00027607546
-0.0005726213
0.00028383018
-3.9305042e-05
0.00029948938
-0.00057469961
0.00029427258
-0.00018411286
0.00033947929
-0.00052561278
0.0003309413
-0.00019300126
0.000111056
-0.00015028458
4.8116972e-05
-4.1738988e-05
-0.00056699783
0.00018126019
0.00023447537
-4.2687581e-05
-0.00056565503
0.00027882023
0.00028778339
-0.0001861292
0.00033392759
0.00033145789
-0.00052194387
-0.00019558431
0.00010791189
-0.00014716727
4.8710486e-05
-6.2090569e-05
0.00018286568
-0.00055560643
0.000239247
-0.00018676792
0.00030963907
-0.00050652241
0.00032156069
-0.0001986087
0.0001027245
4.4025149e-05
-0.00013490887
-6.5403393e-05
-0.0005526149
0.00018085911
0.00023855048
-0.00018885195
0.00030697824
0.00032086505
-0.00050439474
-0.00020274322
9.9565651e-05
-0.00012716008
4.14857e-05
-7.6452558e-05
0.00018009376
-0.00054509926
0.00023871484
-0.0002042772
0.00030665758
-0.00050266037
0.00032382743
-0.00022619135
9.358331e-05
-0.00010452603
3.2856871e-05
-0.0002171598
-0.00049007078
0.00020609278
0.00027494646
-0.00024062407
-8.3873894e-05
8.0744249e-05
2.6593913e-05
-0.00025270714
0.00021178908
-0.00048606864
0.00028636263
-0.0003561111
9.3496766e-05
-3.2261441e-05
4.2168634e-05
-0.00034374959
1.8002393e-05
-3.0933063e-05
5.6916266e-07
-0.00026847675
4.1048943e-06
-6.3806623e-05
-1.5571117e-05
-0.00026850951
0.00018795512
0.00028072916
-0.00046865152
-0.00035186226
5.3856249e-05
7.4574798e-06
2.203902e-05
-0.0002586007
-7.5423467e-05
2.2248913e-05
-4.0087e-05
-0.00019687419
0.00047828505
-0.0002839223
-0.00025608927
-0.00025008127
9.2604533e-06
2.4676118e-05
1.9270507e-05
-0.00034819714
-2.5876606e-05
9.2675456e-05
3.1317025e-05
-0.00036819396
-2.0157973e-05
3.4795164e-06
3.6675276e-05
-0.00040987196
-2.108525e-05
3.5243026e-05
2.7520229e-05
-0.00043785802
-2.1469401e-05
2.447166e-05
2.4983798e-05
-0.00045811399
-1.9157492e-05
1.8335819e-05
2.1077639e-05
-0.0004755843
-1.7816217e-05
1.7735172e-05
1.7551355e-05
-0.00049093179
-1.7710544e-05
1.7978242e-05
1.5079791e-05
-0.0005061585
-1.7836e-05
1.8082766e-05
1.4979946e-05
-0.00052248311
-1.8081018e-05
1.8348455e-05
1.6057179e-05
-0.00053999205
-1.8738302e-05
1.8784624e-05
1.746261e-05
-0.00055875789
-1.9630987e-05
1.9281701e-05
1.9115129e-05
-0.00057968774
-2.0120417e-05
1.9832016e-05
2.1218246e-05
-0.00060140181
-2.1224083e-05
2.0723058e-05
2.2215094e-05
-0.00062439484
-1.9139892e-05
2.1100795e-05
2.1032134e-05
-0.00065679441
1.1252824e-05
2.2967583e-05
-1.82084e-06
-0.00055308797
-0.00017783259
1.2545924e-05
6.1580223e-05
-0.00035295885
0.00019148659
-4.9402003e-05
-0.0003422137
-0.00043229269
-2.7686132e-05
1.2994722e-05
9.4025249e-05
-0.00051215601
-2.0373197e-05
2.3177013e-05
7.7059504e-05
-0.0005672385
-2.0037676e-05
1.8661525e-05
5.6458647e-05
-0.00060476882
-2.4159737e-05
1.1630766e-05
5.0059288e-05
-0.0006065834
-2.2485058e-05
-7.5719064e-06
3.1871549e-05
-0.00031155025
3.3137711e-05
-0.00029776931
-3.0401558e-05
-0.00041874236
5.3767852e-06
8.8944135e-05
1.2871191e-05
-0.00051887998
-3.4608379e-06
1.2661665e-05
9.0936794e-05
-0.00055018748
8.820171e-06
-2.2122255e-05
4.460959e-05
-0.00019614663
6.671675e-05
-0.00022554064
-0.00019521696
6.6591824e-06
6.6034944e-05
0.0001105286
0.00057842089
1.0980511e-05
2.7117316e-05
0.0005222192
-1.0774546e-05
4.9651103e-05
0.0004528047
-1.3466897e-05
7.0690538e-05
0.00037717783
-2.7047131e-05
0.00010449475
0.00056670902
-0.0003515797
0.00019191371
0.00066175242
-0.00018621661
6.6125004e-05
0.00062595452
8.176932e-06
2.0078712e-06
0.00060234539
-1.9650486e-05
2.2504058e-05
0.00057940488
-2.1101303e-05
2.3806485e-05
0.00055871787
-2.0324258e-05
2.1263072e-05
0.00053826366
-1.9693484e-05
2.0611203e-05
0.00051981623
-1.9028526e-05
1.8494424e-05
0.00050226939
-1.8785041e-05
1.7446776e-05
0.00048409284
-1.8827876e-05
1.7654188e-05
0.00046260371
-1.8452151e-05
2.0752968e-05
0.00043483422
-1.8122106e-05
2.6904309e-05
0.00039425781
-1.7679905e-05
3.7894036e-05
0.00034479754
-1.8805986e-05
5.3649668e-05
9.0232251e-05
0.00021764952
-1.2320148e-05
4.9235924e-05
0.00022977363
-3.643116e-05
0.00049303759
-0.0002856351
0.00024002065
0.00059442155
-6.7188913e-05
1.4172949e-05
0.00062579648
-0.00011176167
4.1435824e-05
0.00055048996
4.5193516e-05
-1.9938023e-05
0.00054499422
-3.7628852e-05
4.9275209e-06
0.00054007283
-1.787988e-05
2.3609241e-06
0.00054619432
-6.914804e-06
4.4960574e-07
0.00055292014
2.2465296e-05
-5.8939883e-06
0.00057643151
1.5280978e-05
-1.1733599e-05
0.00062755371
1.3940102e-05
-8.0164829e-05
7.1544511e-05
-1.793548e-05
4.3798366e-05
0.00061843124
-6.4334116e-06
4.8225468e-05
0.00058623785
-4.0849616e-05
2.6690924e-05
0.00057488708
-4.2707119e-05
0.00055339646
-4.1978186e-05
0.00059695582
-3.0411275e-05
-1.74126e-05
5.0775614e-05
2.0909381e-05
-2.7344074e-05
2.1135938e-05
0.00062354698
-1.012147e-05
2.6002218e-05
0.00059379705
-4.5523821e-05
8.1968014e-06
0.00058018864
-4.7079064e-05
0.00055689827
-4.6293915e-05
0.00059630268
7.8738139e-07
-3.6374249e-05
3.3521501e-05
-3.5206179e-06
6.4676808e-07
4.7304135e-05
6.1962081e-06
1.8638914e-05
0.00062445407
-2.828156e-05
2.3445502e-05
0.00059005348
-5.6158604e-05
2.0469707e-05
0.00057776963
-5.1549109e-05
1.2550566e-06
-4.7151418e-05
0.00057458917
0.00056053265
-4.5750843e-05
0.00062346607
-1.3385279e-05
-2.4039572e-05
-1.1536811e-05
-5.9969027e-05
2.1911376e-05
-2.40218e-05
3.7765306e-05
-3.1381698e-05
4.4158887e-05
-2.962983e-05
3.9664023e-05
-1.3362559e-05
7.907392e-07
0.00061137245
-3.4711194e-05
6.5498414e-06
0.00058619203
-5.8405941e-05
1.0401641e-05
0.00058112045
-5.5735795e-05
9.4328395e-06
0.00057669283
-5.2307218e-05
-7.2836616e-06
0.0005744301
-4.8396332e-05
0.00055927554
-4.731873e-05
0.00062216133
-1.540453e-05
-1.4391218e-05
-1.9033731e-05
-6.2388301e-05
1.3379228e-05
-2.7144208e-05
2.5956248e-05
-3.5731112e-05
2.550944e-05
-3.8547247e-05
2.4847186e-05
-3.7049453e-05
-3.1844824e-05
-0.00041442599
-8.7859661e-06
1.735915e-05
-4.0395876e-06
-0.00041852296
-8.3191215e-06
1.6739099e-05
-4.3230012e-06
-0.00042127339
-7.6853355e-06
1.4971886e-05
-4.5361209e-06
-0.0004233385
-7.2565749e-06
1.3928693e-05
-4.6070101e-06
-0.00042503156
-6.8812794e-06
1.317789e-05
-4.6035506e-06
-0.00042647837
-6.4188002e-06
1.2189709e-05
-4.3240984e-06
-0.0004276669
-6.1119364e-06
1.1602362e-05
-4.3019007e-06
-0.00042882025
-5.780703e-06
1.1004466e-05
-4.070407e-06
-0.00042970148
-5.5096958e-06
1.0426861e-05
-4.0359378e-06
-0.00043054597
-5.2477992e-06
9.9369561e-06
-3.8446655e-06
-0.00043116099
-5.0459524e-06
9.5066455e-06
-3.8456756e-06
-0.00043176305
-4.8132699e-06
9.050764e-06
-3.6354336e-06
-0.00043215701
-4.6511256e-06
8.6867859e-06
-3.6417032e-06
-0.00043255007
-4.4600032e-06
8.3252188e-06
-3.4721561e-06
-0.00043274851
-4.3371337e-06
8.0446661e-06
-3.5090871e-06
-0.00043298454
-4.1851867e-06
7.7630412e-06
-3.3418281e-06
-0.00043305343
-4.0987523e-06
7.5594995e-06
-3.3918545e-06
-0.00043315445
-3.974555e-06
7.3329655e-06
-3.2573906e-06
-0.00043309039
-3.912376e-06
7.1707562e-06
-3.3224428e-06
-0.00043308032
-3.8120424e-06
6.9914515e-06
-3.1894758e-06
-0.00043291724
-3.7698825e-06
6.869437e-06
-3.2626365e-06
-0.00043279523
-3.6874107e-06
6.7237722e-06
-3.1583722e-06
-0.0004325189
-3.6622309e-06
6.633347e-06
-3.247442e-06
-0.00043230676
-3.5968195e-06
6.5239116e-06
-3.139232e-06
-0.00043194533
-3.5889671e-06
6.4638139e-06
-3.2362794e-06
-0.00043163371
-3.538529e-06
6.3806654e-06
-3.1537608e-06
-0.00043116971
-3.5429112e-06
6.3437037e-06
-3.2647838e-06
-0.00043077596
-3.5032765e-06
6.2857202e-06
-3.1761948e-06
-0.00043023041
-3.5187586e-06
6.2689178e-06
-3.295709e-06
-0.00042974168
-3.4879971e-06
6.2304524e-06
-3.2311851e-06
-0.00042909339
-3.5141162e-06
6.2313902e-06
-3.3655655e-06
-0.00042852176
-3.4916595e-06
6.2121432e-06
-3.2921169e-06
-0.00042778662
-3.5290678e-06
6.2306244e-06
-3.4366967e-06
-0.00042711318
-3.516049e-06
6.229234e-06
-3.3866258e-06
-0.00042626447
-3.5659011e-06
6.2672236e-06
-3.5500326e-06
-0.00042549658
-3.5611068e-06
6.2836824e-06
-3.4904669e-06
-0.00042454394
-3.6226006e-06
6.3390554e-06
-3.6690939e-06
-0.000423658
-3.628012e-06
6.3713968e-06
-3.6293195e-06
-0.0004225707
-3.7028724e-06
6.4465633e-06
-3.8309968e-06
-0.00042156717
-3.7157776e-06
6.4951997e-06
-3.7829539e-06
-0.00042034977
-3.8033018e-06
6.5892999e-06
-4.0033976e-06
-0.00041920381
-3.8227059e-06
6.6546974e-06
-3.9779483e-06
-0.00041782427
-3.9268163e-06
6.7726093e-06
-4.2253312e-06
-0.00041652723
-3.9539971e-06
6.8571495e-06
-4.200191e-06
-0.0004149748
-4.0765893e-06
6.9999175e-06
-4.4757585e-06
-0.00041348616
-4.118355e-06
7.1075634e-06
-4.4778515e-06
-0.0004117094
-4.2653223e-06
7.2811316e-06
-4.792573e-06
-0.00040998798
-4.3246935e-06
7.4143851e-06
-4.8111112e-06
-0.00040793217
-4.4993425e-06
7.619167e-06
-5.1756302e-06
-0.00040591627
-4.5666839e-06
7.7748853e-06
-5.2241041e-06
-0.00040351875
-4.7684763e-06
8.0124824e-06
-5.6415288e-06
-0.00040115213
-4.8518644e-06
8.1939626e-06
-5.7087149e-06
-0.00039834589
-5.0791312e-06
8.4601395e-06
-6.1872421e-06
-0.0003955636
-5.1755211e-06
8.6622279e-06
-6.2690028e-06
-0.00039231455
-5.4376278e-06
8.9573267e-06
-6.7687427e-06
-0.00038905259
-5.5499072e-06
9.1795171e-06
-6.8915709e-06
-0.00038527006
-5.8515183e-06
9.5002152e-06
-7.4312355e-06
-0.00038146051
-5.9928316e-06
9.7306437e-06
-7.5473548e-06
-0.00037713685
-6.3582268e-06
1.0086777e-05
-8.0522126e-06
-0.00037263046
-6.6252455e-06
1.0378692e-05
-8.2598391e-06
-0.00036762026
-7.1950254e-06
1.0874087e-05
-8.6892605e-06
-0.0003621823
-7.7789576e-06
1.1445176e-05
-9.1041733e-06
-0.00035638052
-8.7452856e-06
1.2342702e-05
-9.3992e-06
-0.00034985428
-1.0108222e-05
1.3614561e-05
-1.0032582e-05
-0.00034284399
-1.2271589e-05
1.5429512e-05
-1.0168214e-05
-0.00033532836
-1.5405005e-05
1.7729119e-05
-9.8397455e-06
-0.00033085958
-1.9218062e-05
2.1497159e-05
-6.7478756e-06
-0.00033345713
-2.2386644e-05
2.7887574e-05
-2.9033814e-06
-0.00030006671
1.0045689e-05
4.2168223e-06
-4.7652925e-05
-8.9666113e-05
3.2727321e-05
-8.3003501e-05
-0.00016012442
-0.00021793937
0.0002160439
2.8521891e-05
-0.00011629253
-0.00011074811
0.00038019264
-0.00033941989
-0.000147964
-0.00023052024
0.00037290255
-0.00024995519
-3.1752374e-06
-0.0002320173
0.00020590962
-0.00018306767
-2.134488e-05
0.00027847449
-0.00019064795
-0.00062036585
0.000300522
0.00021587243
0.00026502459
-0.00051534992
0.00031292738
0.00048257528
0.00019822775
-0.00079826463
0.00033333403
-6.5529698e-05
0.00038301905
0.00029098457
-0.00012589865
-0.00015990802
0.00029942839
-6.8223122e-06
0.00033531286
-2.428667e-05
0.00049386449
0.00021522633
-8.7540828e-07
-0.00012272939
0.0004155408
0.00019482986
6.223229e-06
0.00027671248
0.00019679467
0.0003079131
1.5732797e-05
-3.6887734e-05
0.00029538239
-7.8202656e-06
-2.0356627e-06
0.00029184534
-1.2016511e-05
-3.6645071e-06
0.00029247846
-1.1178194e-05
-4.8599318e-06
0.00029456196
-9.3894185e-06
-4.9656683e-06
0.00029745655
-7.8783399e-06
-5.1244715e-06
0.00030086659
-7.0950265e-06
-5.0603002e-06
0.00030427538
-6.3064529e-06
-4.8812932e-06
0.00030780727
-5.8735016e-06
-4.853414e-06
0.00031102996
-5.3586598e-06
-4.4892737e-06
0.00031434327
-5.2150565e-06
-4.4564751e-06
0.00031728479
-4.8368264e-06
-4.0975255e-06
0.00032031992
-4.7820083e-06
-4.1046487e-06
0.00032291865
-4.4124478e-06
-3.7361856e-06
0.00032557663
-4.3759426e-06
-3.7196689e-06
0.00032782658
-4.0479183e-06
-3.3775507e-06
0.00033013509
-4.0227156e-06
-3.3649239e-06
0.00033206225
-3.7270098e-06
-3.0520146e-06
0.00033404158
-3.7115884e-06
-3.0362208e-06
0.00033568363
-3.4436593e-06
-2.7650699e-06
0.00033738758
-3.4404658e-06
-2.7628297e-06
0.00033879784
-3.2060697e-06
-2.5288858e-06
0.00034026827
-3.2021559e-06
-2.5335922e-06
0.00034148977
-3.0033005e-06
-2.3365536e-06
0.00034277915
-3.0117935e-06
-2.3541795e-06
0.00034384738
-2.8400542e-06
-2.182169e-06
0.0003449957
-2.8618353e-06
-2.2133036e-06
0.00034594128
-2.7091417e-06
-2.05914e-06
0.00034695498
-2.7299863e-06
-2.0870195e-06
0.00034778574
-2.5961704e-06
-1.9503654e-06
0.00034868909
-2.6211831e-06
-1.9850419e-06
0.00034942264
-2.5007226e-06
-1.8608388e-06
0.00035021503
-2.5237e-06
-1.8912886e-06
0.00035085269
-2.4193374e-06
-1.7794272e-06
0.00035155707
-2.4519317e-06
-1.8183532e-06
0.00035211353
-2.3581433e-06
-1.7143623e-06
0.00035272291
-2.390698e-06
-1.7477575e-06
0.0003531952
-2.3097419e-06
-1.6542072e-06
0.00035372997
-2.3507465e-06
-1.6981308e-06
0.00035413135
-2.2779805e-06
-1.6114032e-06
0.00035458071
-2.3179391e-06
-1.6501804e-06
0.0003549051
-2.2553753e-06
-1.5722887e-06
0.0003552875
-2.3033445e-06
-1.6219657e-06
0.00035554503
-2.2474757e-06
-1.5485845e-06
0.00035585098
-2.2964841e-06
-1.5984358e-06
0.0003560384
-2.2515617e-06
-1.5326778e-06
0.00035628197
-2.3125476e-06
-1.5932514e-06
0.00035640305
-2.2766918e-06
-1.5318018e-06
0.00035656314
-2.3403696e-06
-1.5895955e-06
0.0003566037
-2.3159563e-06
-1.5366497e-06
0.00035668873
-2.3918995e-06
-1.6055035e-06
0.00035664824
-2.3759538e-06
-1.5581178e-06
0.00035663697
-2.4596327e-06
-1.6278428e-06
0.00035649817
-2.4570145e-06
-1.5893763e-06
0.00035638781
-2.5555579e-06
-1.6712125e-06
0.00035613041
-2.5642754e-06
-1.6383311e-06
0.00035587627
-2.6746042e-06
-1.7223816e-06
0.00035546591
-2.7000271e-06
-1.7028825e-06
0.00035505492
-2.8308233e-06
-1.804139e-06
0.00035446803
-2.8695919e-06
-1.7913116e-06
0.00035385572
-3.0058553e-06
-1.8915362e-06
0.00035305341
-3.080608e-06
-1.8977819e-06
0.00035220833
-3.2483261e-06
-2.0185348e-06
0.00035114522
-3.3317337e-06
-2.0239578e-06
0.00034995342
-3.5365341e-06
-2.152941e-06
0.0003485358
-3.6581313e-06
-2.1808199e-06
0.00034703194
-3.8717403e-06
-2.3097386e-06
0.00034518248
-4.0937042e-06
-2.3759597e-06
0.00034311326
-4.2856358e-06
-2.431112e-06
-4.440966e-06
-2.3331173e-06
-0.00031656376
-5.8172652e-06
2.6080798e-06
-0.00031760638
-5.6863042e-06
2.443293e-06
-0.00031866241
-5.3640629e-06
2.3263828e-06
-0.00031948327
-5.2246591e-06
2.1737839e-06
-0.00032029759
-4.9101082e-06
2.066293e-06
-0.00032096104
-4.8323746e-06
1.9592904e-06
-0.00032158352
-4.5588328e-06
1.849579e-06
-0.00032205566
-4.5387731e-06
1.7625936e-06
-0.00032253847
-4.2784788e-06
1.6806739e-06
-0.00032288068
-4.26536e-06
1.6017157e-06
-0.00032323323
-4.0510861e-06
1.5340462e-06
-0.00032344934
-4.0895205e-06
1.4748033e-06
-0.00032369583
-3.8690806e-06
1.4155449e-06
-0.00032382037
-3.9171168e-06
1.3670564e-06
-0.00032397224
-3.7275796e-06
1.3151689e-06
-0.00032400153
-3.8024548e-06
1.2761886e-06
-0.00032407543
-3.6186553e-06
1.2355407e-06
-0.00032403974
-3.7006786e-06
1.2053593e-06
-0.00032404275
-3.5429112e-06
1.1699705e-06
-0.00032393268
-3.6457815e-06
1.1438092e-06
-0.00032387768
-3.4900072e-06
1.1190513e-06
-0.00032371382
-3.6002931e-06
1.0960662e-06
-0.00032359746
-3.4680166e-06
1.0749563e-06
-0.00032336603
-3.5991411e-06
1.0551636e-06
-0.00032319569
-3.4631814e-06
1.0412891e-06
-0.00032291471
-3.6030521e-06
1.0255784e-06
-0.00032268623
-3.4895323e-06
1.0135775e-06
-0.0003223392
-3.6513356e-06
1.0009627e-06
-0.00032205288
-3.5332022e-06
9.9150593e-07
-0.00032164704
-3.7053339e-06
9.8156066e-07
-0.0003212942
-3.6042083e-06
9.7338186e-07
-0.00032081374
-3.7977902e-06
9.6658475e-07
-0.0003203992
-3.6867397e-06
9.6246028e-07
-0.00031985341
-3.8939054e-06
9.5742076e-07
-0.0003193662
-3.7994539e-06
9.5410082e-07
-0.00031873776
-4.0326173e-06
9.5224462e-07
-0.0003181811
-3.9288499e-06
9.5284694e-07
-0.00031747707
-4.180234e-06
9.5250698e-07
-0.00031684045
-4.0924786e-06
9.5513733e-07
-0.00031604288
-4.3762736e-06
9.5751451e-07
-0.00031532354
-4.2791156e-06
9.6361098e-07
-0.00031443285
-4.5877032e-06
9.6702604e-07
-0.00031361674
-4.4966041e-06
9.7134823e-07
-0.00031260982
-4.8458044e-06
9.7705322e-07
-0.00031169132
-4.7411924e-06
9.8264104e-07
-0.00031056879
-5.1243669e-06
9.9004459e-07
-0.0003095235
-5.0443501e-06
9.9575305e-07
-0.00030825042
-5.4809922e-06
1.0057602e-06
-0.00030705018
-5.4198234e-06
1.013511e-06
-0.00030558273
-5.933721e-06
1.025801e-06
-0.00030419676
-5.8568213e-06
1.0271971e-06
-0.00030250812
-6.4397745e-06
1.0395429e-06
-0.00030089455
-6.3836819e-06
1.0431023e-06
-0.0002989438
-7.023417e-06
1.0499574e-06
-0.00029707212
-6.9794081e-06
1.0598068e-06
-0.0002948574
-7.6597599e-06
1.0690996e-06
-0.00029273802
-7.6149183e-06
1.0830829e-06
-0.00029027192
-8.3393204e-06
1.0912148e-06
-0.00028794841
-8.2666644e-06
1.1063295e-06
-0.00028537444
-8.8997525e-06
1.1107276e-06
-0.0002830309
-8.8285261e-06
1.126324e-06
-0.00028065342
-9.3908306e-06
1.1398541e-06
-0.00027873937
-9.4384339e-06
1.2179314e-06
-0.00027751471
-9.7451088e-06
1.4254224e-06
-0.00027753797
-9.4124828e-06
1.5573937e-06
-0.00028089586
-8.0833161e-06
2.0517919e-06
-0.00028973772
-5.1503498e-06
2.8140173e-06
-0.00031135325
4.0742868e-06
5.5247353e-06
-0.00035331346
2.2706492e-05
1.143345e-05
6.6013119e-05
1.1947012e-05
-0.00041171339
7.4002724e-05
0.00038533233
1.8391456e-05
-0.00038125408
0.00014018251
2.4188042e-05
0.00011590025
1.7500387e-05
0.0006265921
-2.7265227e-05
-0.00010040757
0.00049876695
0.00045325502
-0.00018524736
0.00069427082
-8.080396e-05
-4.069718e-05
-4.7540219e-05
0.00034509864
0.00048382216
-8.7109767e-05
0.00034730204
1.3196561e-05
0.00032427067
2.0686549e-05
6.4191112e-06
0.0003037222
1.2795417e-05
2.6026963e-06
0.00029549293
-7.4646384e-07
8.9242489e-07
0.00028573417
-4.4250015e-08
3.9052677e-07
0.00028485362
-8.9175064e-06
5.294206e-08
0.00027962645
-4.4163259e-06
2.0506827e-07
0.00028207022
-1.1899016e-05
6.4414474e-08
0.00027875711
-5.7928463e-06
2.7742217e-07
0.00028239027
-1.2775668e-05
2.4276153e-07
0.00027982243
-6.0902983e-06
3.9146777e-07
0.00028392539
-1.274128e-05
2.990083e-07
0.00028161112
-5.7575139e-06
4.5686219e-07
0.0002858294
-1.2232367e-05
3.5432591e-07
0.00028354084
-5.2199759e-06
5.2913003e-07
0.00028774236
-1.1666352e-05
4.4141627e-07
0.00028540736
-4.6434204e-06
5.9473246e-07
0.00028954301
-1.1088145e-05
5.1272372e-07
0.00028715148
-4.1078908e-06
6.4260106e-07
0.0002912239
-1.0577398e-05
5.7125454e-07
0.00028878876
-3.6614483e-06
6.7676847e-07
0.00029277079
-1.0068658e-05
6.0563299e-07
0.00029027551
-3.2468392e-06
6.9776418e-07
0.00029419214
-9.6780836e-06
6.3709542e-07
0.00029163972
-2.9048868e-06
7.1611313e-07
0.00029551395
-9.3824962e-06
6.6246324e-07
0.00029290996
-2.6228308e-06
7.3021506e-07
0.0002967117
-9.0728711e-06
6.8342161e-07
0.00029405213
-2.3641985e-06
7.446615e-07
0.00029780481
-8.827491e-06
6.9853552e-07
0.000295092
-2.1338631e-06
7.5419521e-07
0.0002987777
-8.5831932e-06
7.1725981e-07
0.00029601036
-1.9291683e-06
7.676499e-07
0.00029965827
-8.4157708e-06
7.3525089e-07
0.00029684175
-1.7640413e-06
7.8110092e-07
0.00030042363
-8.2333886e-06
7.5760615e-07
0.00029755331
-1.6172961e-06
8.0087351e-07
0.00030110113
-8.1247796e-06
7.7917068e-07
0.00029818484
-1.5078576e-06
8.1994113e-07
0.00030167008
-7.9975995e-06
8.0702608e-07
0.00029870435
-1.4133467e-06
8.4587824e-07
0.00030215959
-7.9418429e-06
8.3526178e-07
0.00029915264
-1.354326e-06
8.7174315e-07
0.00030254836
-7.8676384e-06
8.6887092e-07
0.00029949507
-1.3143227e-06
9.044267e-07
0.00030286175
-7.8678731e-06
9.0205067e-07
0.00029976612
-1.3115059e-06
9.3912326e-07
0.00030307396
-7.8520518e-06
9.4391304e-07
0.00029993334
-1.3309449e-06
9.8155957e-07
0.00030321077
-7.910191e-06
9.8698503e-07
0.00030002633
-1.3856996e-06
1.0272217e-06
0.00030324172
-7.9568341e-06
1.0407659e-06
0.00030001452
-1.4745085e-06
1.0830581e-06
0.00030318967
-8.0757062e-06
1.0980984e-06
0.00029990945
-1.5944602e-06
1.147098e-06
0.00030300901
-8.1875172e-06
1.17084e-06
0.0002996752
-1.7568762e-06
1.2216089e-06
0.00030272253
-8.3853493e-06
1.2484997e-06
0.00029932395
-1.9593634e-06
1.3068592e-06
0.00030227618
-8.5635148e-06
1.3459222e-06
0.00029880215
-2.2115184e-06
1.4070711e-06
0.00030168223
-8.8683981e-06
1.4495424e-06
0.00029813196
-2.5251359e-06
1.5165776e-06
0.00030088387
-9.1595586e-06
1.5752712e-06
0.00029723154
-2.9091263e-06
1.6513449e-06
0.00029990206
-9.5962427e-06
1.7010704e-06
0.00029613675
-3.3912643e-06
1.7925103e-06
0.0002986725
-1.0065154e-05
1.8430968e-06
-3.9285061e-06
1.9340801e-06
-0.0004337534
2.4861825e-05
-5.0853288e-06
-0.00043512879
2.350871e-05
-5.3942193e-06
-0.0004393279
2.2730295e-05
-3.5592996e-06
-0.00044354913
2.1788907e-05
-3.6389876e-06
-0.00044725545
2.0956209e-05
-4.0719988e-06
-0.00044977398
1.8921856e-05
-4.2136187e-06
-0.00045156719
1.7890905e-05
-4.495329e-06
-0.00045323895
1.7015989e-05
-4.3397625e-06
-0.00045453829
1.5986459e-05
-4.2602648e-06
-0.00045577274
1.5279804e-05
-4.1083986e-06
-0.00045677285
1.4596321e-05
-4.0895571e-06
-0.00045767867
1.384092e-05
-3.8843454e-06
-0.00045834291
1.3208038e-05
-3.8570099e-06
-0.00045894635
1.2632522e-05
-3.7038597e-06
-0.00045933983
1.2139356e-05
-3.7012075e-06
-0.00045973648
1.1697906e-05
-3.5382178e-06
-0.00045996392
1.134234e-05
-3.5553958e-06
-0.00046019266
1.0994413e-05
-3.4327159e-06
-0.00046024537
1.0693086e-05
-3.4696198e-06
-0.00046032622
1.0410484e-05
-3.3381747e-06
-0.00046024706
1.0177249e-05
-3.3869756e-06