/*--------------------------------*- C++ -*----------------------------------*\
| =========                 |                                                 |
| \\      /  F ield         | OpenFOAM: The Open Source CFD Toolbox           |
|  \\    /   O peration     | Version:  v2012                                 |
|   \\  /    A nd           | Website:  www.openfoam.com                      |
|    \\/     M anipulation  |                                                 |
\*---------------------------------------------------------------------------*/
FoamFile
{
    version     2.0;
    format      ascii;
    class       volVectorField;
    location    "184";
    object      U;
}
// * * * * * * * * * * * * * * * * * * * * * * * * * * * * * * * * * * * * * //

dimensions      [0 1 -1 0 0 0 0];


internalField   nonuniform List<vector> 
24441
(
(5.1299956 -0.00086263052 0.017442021)
(5.1433351 -0.00074291504 0.016558177)
(5.1560176 -0.00058531779 0.015290108)
(5.1677984 -0.00039192406 0.013646587)
(5.1784331 -0.00016411935 0.01163067)
(5.187672 9.7445946e-05 0.0092393445)
(5.1952619 0.00039206122 0.0064658756)
(5.2009504 0.00071847963 0.0033113598)
(5.2044403 0.0010756121 -0.00019649221)
(5.205381 0.0014517214 -0.0039664116)
(5.2036877 0.0018393567 -0.0080794757)
(5.1989083 0.0022626205 -0.012613445)
(5.6186771 -0.28607353 0.044179395)
(5.6204839 -0.28294681 0.048213282)
(5.6227467 -0.27919961 0.050298784)
(5.623253 -0.27844444 0.05300312)
(5.633227 -0.27570302 0.057125632)
(5.6440451 -0.2608848 0.057051451)
(5.648248 -0.25104024 0.059753615)
(5.6490066 -0.2498137 0.062495804)
(5.6540583 -0.24691104 0.065876961)
(5.6591932 -0.24226989 0.070283847)
(5.6634286 -0.2372058 0.073420724)
(5.6676998 -0.23347841 0.076321207)
(5.6711477 -0.23096937 0.078768142)
(5.6752227 -0.22789429 0.082153458)
(5.679065 -0.22369089 0.084626836)
(5.6817409 -0.22209193 0.087474908)
(5.6912685 -0.21731411 0.091748593)
(5.7020323 -0.20147105 0.091769533)
(5.7072809 -0.19034348 0.093561208)
(5.7090992 -0.1878668 0.095478581)
(5.7145329 -0.18333889 0.09844428)
(5.7170776 -0.17999732 0.10170679)
(5.7190706 -0.17593539 0.10460084)
(5.7210545 -0.17217806 0.10753812)
(5.7309629 -0.163107 0.11135116)
(5.7416878 -0.14591705 0.11048042)
(5.7468091 -0.13233737 0.11253796)
(5.745961 -0.12947549 0.11458678)
(5.7479415 -0.12351959 0.11810632)
(5.74934 -0.11733195 0.11994148)
(5.7591538 -0.11026182 0.12357558)
(5.7718511 -0.090361361 0.12453004)
(5.77719 -0.075017315 0.12585604)
(5.7762711 -0.07171771 0.12709771)
(5.7806828 -0.06509914 0.12942551)
(5.7831369 -0.056483913 0.13189163)
(5.7923562 -0.042091133 0.13631546)
(5.8018525 -0.0198819 0.13747093)
(5.8112208 0.0016471982 0.13863818)
(5.8190894 0.024709009 0.13898313)
(5.8276455 0.046959899 0.13965027)
(5.8343485 0.06743782 0.14208806)
(5.8407012 0.078753721 0.14275011)
(5.8405781 0.096739469 0.14140314)
(5.8487016 0.12833075 0.14317956)
(5.8547691 0.16342282 0.14368728)
(5.8587901 0.1931827 0.14319959)
(5.8646339 0.22052145 0.14511606)
(5.8652356 0.24215816 0.14340912)
(5.868142 0.2805478 0.14389283)
(5.8692315 0.32413181 0.14708924)
(5.8727774 0.35998575 0.14532531)
(5.8752291 0.41469527 0.14594663)
(5.8717359 0.4616517 0.143818)
(5.8701587 0.51157608 0.14328477)
(5.8667847 0.56905763 0.14078928)
(5.8600864 0.62877282 0.13884987)
(5.8530569 0.68989595 0.1356576)
(5.8403379 0.76059221 0.13286724)
(5.8201048 0.8314866 0.12255613)
(5.8052756 0.89116272 0.11427804)
(5.7703921 0.95467708 0.10202205)
(5.7462861 1.033364 0.094618242)
(5.6552297 1.270544 0.06862012)
(5.701506 1.1694558 0.084157522)
(5.7397562 1.0686175 0.095902637)
(5.7660238 0.97316796 0.10378483)
(5.7984372 0.9080967 0.11413439)
(5.8120352 0.84753087 0.12172909)
(5.8346873 0.78366861 0.13218557)
(5.851002 0.71042485 0.13567038)
(5.8579241 0.64814195 0.13874809)
(5.8640402 0.58439208 0.14018303)
(5.8679496 0.52993861 0.14531292)
(5.8710621 0.47536866 0.14496413)
(5.8738111 0.42837677 0.14528854)
(5.8718074 0.37257338 0.14815264)
(5.8689768 0.33767461 0.14672344)
(5.8695105 0.29314909 0.14535626)
(5.8629633 0.24822827 0.1447118)
(5.8598285 0.21812872 0.145645)
(5.8618769 0.20352318 0.1458741)
(5.8616271 0.1936648 0.14656953)
(5.8535651 0.16847759 0.14180644)
(5.8487113 0.13732476 0.14472767)
(5.8424981 0.10418084 0.14256112)
(5.8339702 0.071909736 0.14058218)
(5.826956 0.045759885 0.13802465)
(5.8178461 0.017481322 0.13803737)
(5.8101498 -0.0042266059 0.13715516)
(5.8003207 -0.030715674 0.13649078)
(5.7904709 -0.051600346 0.13535647)
(5.7771748 -0.079418444 0.13282786)
(5.7748499 -0.084643898 0.13041843)
(5.7699098 -0.092625817 0.12727287)
(5.7667186 -0.095530369 0.12664566)
(5.7699282 -0.10074698 0.12549141)
(5.7557492 -0.12130256 0.12513862)
(5.7459486 -0.1374061 0.12035379)
(5.7450838 -0.13659671 0.11976539)
(5.7400296 -0.14599208 0.11843428)
(5.7369203 -0.15324633 0.11534522)
(5.7392795 -0.15797771 0.11174198)
(5.7267996 -0.17485907 0.11133574)
(5.7127791 -0.19450475 0.109679)
(5.7097735 -0.19807319 0.10728668)
(5.7054716 -0.20244984 0.10431885)
(5.7026084 -0.2099899 0.10137492)
(5.7004141 -0.21598241 0.095873092)
(5.6992883 -0.21281768 0.092290265)
(5.701714 -0.21112619 0.091352514)
(5.6890848 -0.23044697 0.092250968)
(5.6725053 -0.24862374 0.093653527)
(5.6713938 -0.24867405 0.088691473)
(5.6679995 -0.25072234 0.083557015)
(5.6638507 -0.25356908 0.08034837)
(5.6593086 -0.25716072 0.07770336)
(5.6546621 -0.26130581 0.074673976)
(5.64988 -0.26539267 0.070886589)
(5.6446766 -0.26879518 0.067087512)
(5.6413459 -0.27077235 0.063854378)
(5.6401624 -0.27085721 0.061843946)
(5.6430149 -0.27157925 0.058293883)
(5.6282657 -0.28934585 0.058757332)
(5.6151768 -0.299364 0.058294515)
(5.6152446 -0.29856584 0.055756963)
(5.6121263 -0.30328909 0.050629255)
(5.6093994 -0.30534922 0.046395124)
(5.6079322 -0.30794449 0.043005172)
(5.58644 -0.33191761 0.040885729)
(5.5883574 -0.32884089 0.044016961)
(5.5909213 -0.32706437 0.047205867)
(5.5949326 -0.32572473 0.050614493)
(5.5997739 -0.32439464 0.054336739)
(5.6031258 -0.31938934 0.057113491)
(5.6089414 -0.31373808 0.058462662)
(5.6127736 -0.3099686 0.059963115)
(5.6182755 -0.30455215 0.064000575)
(5.6227699 -0.29917563 0.066907507)
(5.6256182 -0.29599458 0.069436578)
(5.6291228 -0.29341991 0.071786558)
(5.6366378 -0.28955125 0.074825518)
(5.6416705 -0.27981888 0.077823387)
(5.6454206 -0.27715555 0.080581978)
(5.6508423 -0.2743935 0.084494363)
(5.656552 -0.27073715 0.087007943)
(5.660462 -0.26634126 0.087331611)
(5.6705059 -0.25923219 0.089825992)
(5.6752727 -0.24432282 0.093311723)
(5.6768356 -0.24522172 0.090546057)
(5.678836 -0.24668008 0.094307398)
(5.6820576 -0.24128929 0.097796652)
(5.6898669 -0.2337292 0.10002751)
(5.6947209 -0.22222642 0.1036733)
(5.6982914 -0.2165849 0.10486648)
(5.7004853 -0.2123716 0.10460541)
(5.7091934 -0.20701608 0.10523005)
(5.7158234 -0.19481214 0.11191422)
(5.7195025 -0.18973692 0.11340765)
(5.7254708 -0.17806351 0.11671399)
(5.7279651 -0.16561354 0.11715942)
(5.7297019 -0.1618925 0.11701279)
(5.7394393 -0.15409327 0.12051798)
(5.7466968 -0.13951054 0.12211893)
(5.7480737 -0.1343322 0.12224448)
(5.7583405 -0.12478278 0.12531492)
(5.7643492 -0.10386322 0.12802339)
(5.7672813 -0.092986279 0.12815652)
(5.7730614 -0.081587253 0.130296)
(5.7822794 -0.066850631 0.13385218)
(5.7954636 -0.0414027 0.13550049)
(5.8020539 -0.01557661 0.13653504)
(5.8057488 -0.00051751507 0.13750027)
(5.8137661 0.017157296 0.14064006)
(5.8205344 0.041379595 0.13995841)
(5.824287 0.054877172 0.14432481)
(5.8306124 0.06941889 0.14363027)
(5.8364841 0.10320788 0.14218876)
(5.8423537 0.13099032 0.14627563)
(5.8501446 0.16823988 0.14513049)
(5.8546399 0.20607051 0.14798569)
(5.8607609 0.2398978 0.14889677)
(5.8642716 0.2856732 0.14837046)
(5.8661097 0.32398645 0.1501599)
(5.8700079 0.37041874 0.14892759)
(5.8694388 0.42039575 0.14787409)
(5.8677528 0.46880339 0.14876319)
(5.8664031 0.52238062 0.14737526)
(5.8604045 0.58259937 0.14195475)
(5.8540039 0.64028978 0.14326443)
(5.846793 0.70702413 0.13896324)
(5.8296035 0.77901356 0.13021829)
(5.805813 0.84077069 0.12156158)
(5.7994529 0.89582688 0.11843174)
(5.7642653 0.96865591 0.10266079)
(5.7331473 1.0580094 0.098217903)
(5.7010063 1.1543609 0.083189416)
(5.6496625 1.2716789 0.064928746)
(5.5806749 1.3838972 0.040448368)
(5.528988 1.4839111 0.014145106)
(5.4215535 1.628325 -0.018050159)
(5.3098135 1.805544 -0.056527172)
(5.1403883 1.9995022 -0.12486511)
(4.9860231 2.1558751 -0.2115592)
(4.6063622 2.4639366 -0.34121119)
(5.6327037 1.3150765 0.054068906)
(5.6878594 1.2026261 0.072784674)
(5.7284175 1.0958395 0.088559923)
(5.7576772 0.99385813 0.10051664)
(5.7937466 0.92784774 0.11007071)
(5.8027478 0.86628661 0.11489202)
(5.8260547 0.80948286 0.12587827)
(5.8470739 0.73177212 0.13491891)
(5.8550732 0.66891401 0.13767096)
(5.8601074 0.59763432 0.14034695)
(5.8638446 0.55002595 0.14485481)
(5.8709295 0.49233894 0.14481211)
(5.8712655 0.43910637 0.14525288)
(5.870031 0.39095162 0.14892829)
(5.8706697 0.34919789 0.14608365)
(5.8687596 0.30075328 0.14609437)
(5.8629126 0.26066031 0.14786791)
(5.8596267 0.22409004 0.14401605)
(5.8557491 0.1841801 0.14477837)
(5.855136 0.17402918 0.14597163)
(5.8514502 0.16632316 0.14641786)
(5.8480927 0.14393063 0.14369609)
(5.8422332 0.11045278 0.14032871)
(5.8350501 0.083198008 0.14371184)
(5.827462 0.053151176 0.14087185)
(5.8182625 0.025912802 0.1415579)
(5.8100611 0.00026565107 0.13890875)
(5.8001214 -0.025243975 0.13864776)
(5.7921587 -0.047055592 0.13602204)
(5.7794419 -0.075538388 0.13200058)
(5.7689013 -0.092709588 0.1292852)
(5.7665625 -0.097784873 0.12953361)
(5.7640798 -0.10381735 0.12736309)
(5.7609377 -0.10739369 0.12530806)
(5.7584691 -0.11241227 0.12647237)
(5.750735 -0.13550301 0.12189152)
(5.7368128 -0.15568547 0.11871089)
(5.7355065 -0.15808105 0.11707066)
(5.7365988 -0.15981563 0.11647094)
(5.7312813 -0.16503008 0.11514657)
(5.7270421 -0.17151429 0.1140664)
(5.7148912 -0.19161037 0.11001122)
(5.705682 -0.20356038 0.10696938)
(5.7022532 -0.20899694 0.10574951)
(5.6974368 -0.2119107 0.10368373)
(5.6933517 -0.21550708 0.10226405)
(5.6872524 -0.22406251 0.099408487)
(5.6840403 -0.22889332 0.09597488)
(5.6858284 -0.23058147 0.094461068)
(5.6749866 -0.24375264 0.094828532)
(5.6695319 -0.25536995 0.089727365)
(5.6652801 -0.2570895 0.089579062)
(5.6608334 -0.25959336 0.087661672)
(5.6555642 -0.26381746 0.083205532)
(5.6494238 -0.26886566 0.078986571)
(5.645135 -0.27161092 0.075591786)
(5.6414635 -0.27349434 0.072430633)
(5.6376035 -0.27577121 0.068613409)
(5.6342383 -0.27769728 0.065921285)
(5.6317106 -0.28070134 0.064728158)
(5.6285781 -0.28649244 0.063521434)
(5.617328 -0.30008558 0.059119154)
(5.6125842 -0.3086461 0.057179424)
(5.6108738 -0.30984672 0.056367457)
(5.6067461 -0.31165899 0.053875129)
(5.6016407 -0.314453 0.049472267)
(5.5983099 -0.31760389 0.045680745)
(5.5965832 -0.32075736 0.042228822)
(4.6063015 0.10885783 0.016038504)
(4.6058381 0.10546954 0.016739816)
(4.6081732 0.094609912 0.016879705)
(4.6095545 0.089990428 0.016943926)
(4.6124267 0.087670517 0.016794935)
(4.6138528 0.0840898 0.015470189)
(4.6145959 0.08214435 0.015313773)
(4.6158913 0.079358087 0.014337794)
(4.6170006 0.076749196 0.014179159)
(4.6176285 0.074503726 0.013415669)
(4.6181809 0.072737823 0.013460486)
(4.6183802 0.070664781 0.012689933)
(4.6185884 0.069188083 0.012799297)
(4.6183747 0.067392767 0.012183248)
(4.6180077 0.066145318 0.012385111)
(4.6171705 0.06460153 0.011770158)
(4.6164714 0.063622218 0.012027795)
(4.6150536 0.062240855 0.011508272)
(4.6136279 0.061408392 0.011826772)
(4.6115131 0.060298096 0.011299892)
(4.6096345 0.059660181 0.01167354)
(4.6068498 0.05871982 0.011233)
(4.6041025 0.058237917 0.011667837)
(4.6005727 0.057523131 0.011200237)
(4.5972633 0.057224692 0.011679232)
(4.592953 0.056664984 0.011290362)
(4.5886833 0.056509443 0.011826391)
(4.5835579 0.056129814 0.011410541)
(4.5786303 0.056113202 0.011995263)
(4.5726456 0.055842724 0.011654901)
(4.5666837 0.055956851 0.012299008)
(4.5597899 0.055833556 0.011916)
(4.5530636 0.05609565 0.012619015)
(4.5451851 0.05609589 0.01230993)
(4.5372846 0.056521191 0.013092601)
(4.5283351 0.05668372 0.012738342)
(4.5194885 0.057261307 0.01359766)
(4.509362 0.057562616 0.013301179)
(4.4991291 0.058311001 0.014251497)
(4.4876874 0.05877432 0.013913821)
(4.476214 0.059683271 0.01493903)
(4.4633311 0.060269364 0.014668793)
(4.4502005 0.061391867 0.015810765)
(4.4356677 0.062153418 0.015524915)
(4.4209048 0.063515835 0.016805761)
(4.4044273 0.064496798 0.016607027)
(4.3874487 0.066167256 0.018068073)
(4.3685836 0.067417674 0.017917135)
(4.3489154 0.0693958 0.019620128)
(4.3270205 0.070816295 0.019561721)
(4.3040117 0.073131183 0.021507597)
(4.2785056 0.074839326 0.021490704)
(4.2515867 0.077473158 0.023735696)
(4.2217053 0.079487439 0.023726064)
(4.1905935 0.082652538 0.02620596)
(4.156078 0.085164898 0.026288879)
(4.1201659 0.089169647 0.029093775)
(4.0803808 0.092656916 0.029163645)
(4.0402652 0.098315863 0.032159778)
(3.9954266 0.10415838 0.032628265)
(3.9503012 0.11332693 0.036008434)
(3.8991213 0.12324742 0.03836294)
(3.8489263 0.13707593 0.042844728)
(3.7890698 0.1534104 0.048575623)
(3.7340397 0.17238537 0.057639386)
(3.6709421 0.19035436 0.055462456)
(3.5906487 0.20940045 0.036570454)
(3.5978664 0.20029479 -0.070702383)
(4.6565815 -0.038194909 -1.3893093)
(4.2217089 0.50009584 -5.1778777)
(3.1818487 0.11718716 -4.8664416)
(2.7472363 0.37042633 -4.5020745)
(2.8504289 0.021644427 -3.7621653)
(3.2937465 0.081679638 -2.8509465)
(3.489001 0.092727438 -2.2030136)
(4.1229154 0.078375576 -2.0886249)
(4.5686813 0.045202432 -1.8592695)
(4.6483944 0.051768696 -1.9516749)
(4.6368224 0.052585394 -2.2784018)
(4.257201 0.070010226 -2.6798696)
(4.2501256 0.035627819 -3.5457784)
(5.4039336 0.20078246 -3.7734668)
(4.7369916 0.17517171 -4.476963)
(5.1808197 0.49413368 -0.64271779)
(3.8774981 0.29280158 -0.00039384735)
(3.8120906 0.21058612 0.041869368)
(3.8097468 0.13723953 0.047264854)
(3.814826 0.095241744 0.03876786)
(3.8376793 0.070214939 0.032279071)
(3.8753866 0.056416711 0.029605955)
(3.9119262 0.047917804 0.026521186)
(3.9534738 0.04251662 0.025541541)
(3.9925685 0.038312776 0.022752488)
(4.0330211 0.035888003 0.022654018)
(4.0709284 0.033536621 0.020312053)
(4.1090987 0.032352303 0.020516331)
(4.1442655 0.030697258 0.018226513)
(4.1781542 0.029965903 0.018362704)
(4.2090682 0.028657515 0.01628473)
(4.2386588 0.02811524 0.016431562)
(4.2654761 0.027061638 0.014547936)
(4.2908563 0.026660243 0.014689819)
(4.3138018 0.025722044 0.013038377)
(4.3355586 0.025412377 0.013233877)
(4.3553209 0.024591051 0.011795617)
(4.3740789 0.024284574 0.01199461)
(4.3910963 0.023596608 0.010774373)
(4.4075368 0.023384776 0.011023592)
(4.4223834 0.022821339 0.0099566231)
(4.4369192 0.022678992 0.010267759)
(4.450163 0.022201805 0.0093051782)
(4.4630213 0.02209808 0.0095828703)
(4.4746414 0.021703695 0.0087334947)
(4.4860333 0.021616644 0.0090296727)
(4.496408 0.021267071 0.0082738499)
(4.5064346 0.021227028 0.0085272394)
(4.515456 0.020954503 0.0078591201)
(4.5242977 0.020976497 0.0081516156)
(4.5323103 0.020763742 0.0075273685)
(4.540033 0.020838689 0.0077844754)
(4.5468453 0.020700945 0.0072225759)
(4.553566 0.020825546 0.0075256915)
(4.5595447 0.02074114 0.0069979318)
(4.5653008 0.020916525 0.0072696984)
(4.5702102 0.020890836 0.0067917579)
(4.575093 0.02110209 0.0071083321)
(4.5793028 0.021123015 0.0066545916)
(4.5833217 0.021361032 0.0069823321)
(4.5866958 0.021421228 0.0065916573)
(4.5899821 0.021736036 0.0069512001)
(4.592807 0.021891002 0.0065778192)
(4.5953344 0.022283833 0.0069177359)
(4.5973231 0.02252084 0.0065691304)
(4.5991868 0.022979327 0.0069384363)
(4.6006309 0.023277604 0.006628288)
(4.6018412 0.023816108 0.0070015252)
(4.6025607 0.024214501 0.0067310358)
(4.6032184 0.024830764 0.0071344338)
(4.6035014 0.025316361 0.0068808041)
(4.6035193 0.026060885 0.0072660417)
(4.6031853 0.026608839 0.007071772)
(4.6027668 0.027414654 0.0075583152)
(4.6020927 0.028086555 0.007396431)
(4.6011869 0.028952003 0.0078988234)
(4.5999755 0.029814764 0.0078654381)
(4.5986409 0.030825141 0.0084602651)
(4.5973321 0.031748911 0.0083989408)
(4.5957027 0.033278607 0.0091669527)
(4.5935072 0.034344278 0.0092634122)
(4.5921557 0.035450358 0.0098943754)
(4.5900333 0.037185598 0.010288089)
(4.5874888 0.038372995 0.010474386)
(4.5864102 0.042694118 0.010244958)
(4.5892184 0.012631756 0.037399106)
(4.5906501 0.011762978 0.036716323)
(4.5931169 0.011324213 0.034289893)
(4.5952538 0.010723352 0.033047354)
(4.5967696 0.010312196 0.030802051)
(4.5989707 0.010062177 0.030310153)
(4.6006022 0.009536567 0.028423706)
(4.6019907 0.0093345996 0.028350281)
(4.6033063 0.0089567801 0.026601474)
(4.6045995 0.0087329246 0.02660041)
(4.6055319 0.0083972085 0.025160587)
(4.6062067 0.0082784775 0.02552201)
(4.6066501 0.0079501894 0.024042703)
(4.6070406 0.0078545869 0.024486852)
(4.6070236 0.0075467543 0.023208737)
(4.6068639 0.0074762038 0.02381019)
(4.6061447 0.0072056405 0.022573571)
(4.605617 0.007156286 0.023227672)
(4.6043633 0.0068977432 0.022154041)
(4.6030436 0.0068686036 0.022927732)
(4.6011535 0.0066488965 0.021875324)
(4.599334 0.0066323354 0.022724427)
(4.5968182 0.0064255035 0.021808149)
(4.5941833 0.0064314038 0.022791087)
(4.5909166 0.0062486593 0.021840083)
(4.587728 0.0062813182 0.02291329)
(4.5837844 0.0061159344 0.022103118)
(4.5797362 0.0061703874 0.023326731)
(4.5749713 0.0059956045 0.022512246)
(4.570182 0.0060717803 0.023826721)
(4.564565 0.0059031644 0.023068385)
(4.5587341 0.0060124613 0.024505358)
(4.5521843 0.0058531281 0.023690947)
(4.5455363 0.0059770928 0.025254121)
(4.5380044 0.0058257409 0.024513634)
(4.5302104 0.0059861728 0.026241639)
(4.5216069 0.0058400372 0.025460853)
(4.5128691 0.0060186736 0.027358089)
(4.5031189 0.0058867768 0.026659812)
(4.4931747 0.006099433 0.028786723)
(4.4821157 0.0059679006 0.028011567)
(4.4710205 0.0061992757 0.030357111)
(4.4586016 0.0060486773 0.029614644)
(4.4459677 0.0063162676 0.03225385)
(4.4319573 0.0061546321 0.031439973)
(4.4178845 0.0064489482 0.034377439)
(4.4021489 0.0062800529 0.033723506)
(4.3860689 0.0066138211 0.037090402)
(4.3682516 0.0064366441 0.036554613)
(4.3496276 0.0068354076 0.04050813)
(4.3291125 0.0065976798 0.039905591)
(4.3077008 0.0070370824 0.044430586)
(4.2839501 0.0068110374 0.043935735)
(4.259164 0.0072655467 0.048917981)
(4.2316716 0.0071085856 0.048462507)
(4.2032817 0.0076480174 0.053900688)
(4.1723642 0.0075256848 0.053461492)
(4.1406964 0.0081437618 0.059532071)
(4.1067592 0.0081516562 0.059284776)
(4.0737205 0.0087524151 0.065387774)
(4.0393124 0.0091616053 0.066240241)
(4.0088114 0.010061321 0.074058967)
(3.978217 0.011914771 0.07811472)
(3.9607499 0.014709978 0.087865072)
(3.949936 0.019391422 0.091693924)
(3.9744758 0.027861827 0.09459998)
(4.0640384 0.046726255 0.074369476)
(4.2288562 0.089716236 -0.040430714)
(4.6496075 0.1918152 -0.40653364)
(5.728935 0.42952271 -1.4963523)
(6.1341188 0.18209588 -1.5773016)
(5.7010216 0.12944739 -2.7885833)
(4.9115494 0.079091668 -2.6527292)
(5.0050968 0.090061871 -2.0487422)
(5.5531615 0.11573447 -2.2295139)
(6.1078469 0.10360255 -1.5183486)
(5.9957498 0.07287185 -1.0124582)
(5.6557422 0.095812915 -0.79708908)
(5.16964 0.043174492 -0.32295646)
(4.8393895 0.020586109 -0.067705159)
(4.6238002 0.010050422 0.044722504)
(4.4640538 0.0093354862 0.096589683)
(4.397149 0.0066066125 0.12194571)
(4.3318535 0.0089905179 0.12352421)
(4.3239415 0.0082267876 0.13309987)
(4.3063746 0.010066281 0.12436529)
(4.3160901 0.010131059 0.13095674)
(4.3177728 0.010372165 0.12002558)
(4.3344691 0.010094896 0.12438089)
(4.3435413 0.010212352 0.1119246)
(4.3623803 0.0098807038 0.11481167)
(4.3730972 0.010134824 0.10312472)
(4.3914981 0.0098355069 0.10552001)
(4.4023964 0.0099592405 0.094531703)
(4.4193351 0.0097772219 0.096711704)
(4.4297553 0.0097757915 0.08685253)
(4.4454226 0.0096340583 0.089144353)
(4.4553883 0.0095995717 0.080411173)
(4.4698582 0.0093629713 0.08247144)
(4.478673 0.0093596357 0.074933802)
(4.4921463 0.0091735939 0.077148072)
(4.5000883 0.0091732679 0.070505029)
(4.5126735 0.0090408024 0.072949526)
(4.5201591 0.0090298688 0.066877322)
(4.5315977 0.0088914634 0.069028095)
(4.5381364 0.0088935515 0.06365533)
(4.5486902 0.0087529656 0.065874095)
(4.5546529 0.0087595798 0.06088229)
(4.5641321 0.008647815 0.062884236)
(4.5691767 0.0086677104 0.0584406)
(4.5778902 0.0085975632 0.060639184)
(4.5824717 0.0086223958 0.056463837)
(4.590184 0.0085731566 0.058452491)
(4.5938051 0.0086190849 0.054734596)
(4.6008201 0.0086019477 0.056956001)
(4.6040258 0.0086549756 0.05343431)
(4.6101058 0.008661454 0.055458237)
(4.6124132 0.008732269 0.052323902)
(4.617884 0.0087717404 0.054615191)
(4.6198489 0.0088459397 0.051619069)
(4.6244786 0.0089007756 0.053784053)
(4.6255858 0.0089903619 0.051153579)
(4.6297133 0.0090804479 0.0536325)
(4.6304633 0.0091894797 0.051101579)
(4.6337927 0.0092992051 0.053520148)
(4.6337895 0.0094253417 0.051326478)
(4.6366091 0.0095675525 0.054094228)
(4.6363851 0.009712809 0.051965964)
(4.6383443 0.0098861339 0.054729632)
(4.6375496 0.01005311 0.05295468)
(4.6390555 0.010254863 0.056087447)
(4.6380448 0.010453423 0.054378415)
(4.6387197 0.010681877 0.057555254)
(4.6371802 0.010893266 0.056277241)
(4.6375474 0.011159656 0.0599047)
(4.6358356 0.011405372 0.058707829)
(4.6355901 0.011697848 0.062187592)
(4.6331485 0.011998558 0.061798231)
(4.6326396 0.012338608 0.065959749)
(4.6301688 0.012641952 0.065649615)
(4.6291825 0.013061609 0.069844029)
(4.625844 0.013431877 0.070497929)
(4.6248104 0.013830184 0.07550302)
(4.6216221 0.014348768 0.076896431)
(4.6196055 0.01479706 0.082366287)
(4.6161496 0.015396705 0.084587306)
(4.6331425 0.16724178 0.053879294)
(4.6394257 0.16380224 0.046025419)
(4.6423402 0.15351966 0.021020064)
(4.6360567 0.14694141 0.016871917)
(4.6369231 0.14235552 0.017759511)
(4.6387185 0.12950197 0.016675978)
(4.639534 0.12517503 0.017313858)
(4.6415495 0.12182215 0.016198246)
(4.6425391 0.11768056 0.015572518)
(4.6426877 0.11455234 0.014725704)
(4.6431949 0.1114874 0.014559585)
(4.6433511 0.10803949 0.013671739)
(4.6434528 0.10538799 0.013607595)
(4.6431651 0.10278645 0.012964782)
(4.6426095 0.10056009 0.013023241)
(4.6416698 0.098282586 0.012359709)
(4.6407734 0.096486931 0.012510407)
(4.6393057 0.094486882 0.01199345)
(4.6376632 0.092908466 0.012213496)
(4.6354908 0.091295616 0.011674283)
(4.6334659 0.090069771 0.011962721)
(4.6306361 0.088684104 0.011530818)
(4.627775 0.087688501 0.011870652)
(4.6242355 0.086634623 0.011408277)
(4.6208879 0.085906149 0.011804766)
(4.6166137 0.085077371 0.011439642)
(4.6123548 0.084579678 0.011888041)
(4.6073346 0.084023497 0.011482072)
(4.6025049 0.083740979 0.01198727)
(4.5966862 0.083387766 0.011671792)
(4.5908916 0.083315238 0.012235312)
(4.5842569 0.083184284 0.011872902)
(4.5777963 0.083316793 0.012500655)
(4.5702525 0.083398722 0.012229697)
(4.5627049 0.083773931 0.012924885)
(4.5542323 0.084097937 0.012599834)
(4.5458693 0.084673964 0.013378315)
(4.5363265 0.08520491 0.013128755)
(4.5267126 0.086024468 0.01399711)
(4.5160021 0.086784612 0.013695626)
(4.5053468 0.087845961 0.014668772)
(4.4933295 0.088851298 0.014454397)
(4.4812044 0.090208424 0.015538757)
(4.467757 0.091489683 0.015312183)
(4.45423 0.093130058 0.016540699)
(4.4390736 0.094724968 0.016427919)
(4.4236028 0.096733087 0.01783)
(4.4063992 0.098683177 0.01777179)
(4.3886747 0.10108652 0.019422375)
(4.3688567 0.10343064 0.019507568)
(4.3482206 0.10629505 0.021391521)
(4.3254931 0.10904121 0.021481603)
(4.3017037 0.11235466 0.023706292)
(4.2753867 0.11554397 0.023856897)
(4.24831 0.11945095 0.026322464)
(4.2182381 0.12333538 0.026660415)
(4.1874348 0.12807576 0.029342352)
(4.1534293 0.13279084 0.029685484)
(4.1199218 0.13885815 0.032432093)
(4.0826902 0.14517245 0.03330026)
(4.0465259 0.15350441 0.036397967)
(4.0063425 0.16344325 0.039045242)
(3.9699746 0.17663124 0.043879389)
(3.9329494 0.19347166 0.050524313)
(3.9120143 0.21542805 0.055898872)
(3.9051352 0.23978822 0.051971223)
(3.916945 0.29003418 0.015651186)
(4.3340534 0.32075667 -0.25242368)
(5.1097678 0.12970855 -2.4293229)
(3.7706222 1.1556076 -5.1470951)
(2.5150829 1.1588232 -3.8420284)
(2.2445012 1.254751 -3.2809041)
(1.9993503 0.92714878 -3.5236909)
(1.7389381 0.32986854 -3.6571874)
(2.0851941 0.084391188 -3.2776115)
(2.6138617 0.10659135 -2.6982587)
(2.9463917 0.14948698 -2.1851461)
(3.5392393 0.13752652 -1.6398924)
(3.9343087 0.11853798 -1.1361615)
(4.1632323 0.11244199 -0.83737814)
(4.3459182 0.09940239 -0.65104378)
(4.5047508 0.07503356 -0.64567063)
(4.6699386 0.0571657 -0.62970153)
(4.7885736 0.040522928 -0.57957998)
(4.8058933 0.032780417 -0.6305756)
(4.7525248 0.040926072 -0.69859445)
(4.6358102 0.048508916 -0.77688192)
(4.4174909 0.071592705 -0.82386322)
(4.3296532 0.078147924 -1.0900992)
(4.3497782 0.07579209 -1.5096762)
(4.7197222 0.041949959 -1.2378682)
(4.6376669 0.045136686 -0.95444846)
(4.7855458 0.047696957 -0.8083669)
(4.8944662 0.056539658 -0.95128502)
(5.0966829 0.058434341 -1.0685075)
(4.9921087 0.03986011 -1.4411526)
(5.6280444 -0.0085000235 -1.3936574)
(5.9434111 -0.023992871 -0.93310753)
(5.7773357 0.027332058 -0.64091353)
(5.4751005 0.0093740735 -0.32892897)
(5.3066329 0.003305002 -0.18747583)
(5.0452134 0.00092164884 -0.030030326)
(4.979909 0.0048083558 0.014439307)
(4.8069351 0.0044098602 0.086270157)
(4.8018963 0.0087099686 0.098143979)
(4.692088 0.0077689751 0.12608365)
(4.703142 0.012368866 0.12861017)
(4.631999 0.010726967 0.13866818)
(4.6509351 0.013949793 0.13667822)
(4.6038938 0.012188451 0.13721158)
(4.6240748 0.014809436 0.13356667)
(4.5911546 0.012797167 0.13070582)
(4.6109148 0.015044089 0.12830226)
(4.5874128 0.013096302 0.12310964)
(4.6058306 0.01510886 0.121859)
(4.588778 0.013231564 0.11585849)
(4.6071869 0.014975769 0.11586477)
(4.5945033 0.013225161 0.11000121)
(4.6127441 0.014705508 0.10861849)
(4.6019892 0.013125859 0.10387049)
(4.6199834 0.014446425 0.10332429)
(4.610866 0.013000912 0.098797286)
(4.6286266 0.014182819 0.099521464)
(4.6208261 0.012919741 0.094647278)
(4.6372193 0.01401024 0.0949199)
(4.6302106 0.012857417 0.090744495)
(4.6460537 0.013841402 0.091305648)
(4.6397617 0.012827928 0.087170547)
(4.6541645 0.013772825 0.087530995)
(4.6482084 0.012804097 0.084015145)
(4.6620878 0.013698405 0.085196334)
(4.656589 0.012833433 0.081488781)
(4.6690089 0.013734314 0.082306728)
(4.6635733 0.012902936 0.07923479)
(4.6755346 0.013765674 0.080856106)
(4.6703786 0.013023525 0.077580953)
(4.6809418 0.01390941 0.078815677)
(4.6757026 0.013191554 0.076160065)
(4.6858763 0.014057683 0.078202157)
(4.6808339 0.013413758 0.0752982)
(4.6896804 0.014300983 0.076989443)
(4.6844204 0.013678158 0.074727726)
(4.6929236 0.014560298 0.077252758)
(4.6877214 0.014008631 0.074766184)
(4.6950535 0.014855544 0.076937942)
(4.6895237 0.014433026 0.075144347)
(4.6965949 0.015250189 0.078099882)
(4.6909851 0.014867789 0.076070906)
(4.697069 0.01574748 0.078819897)
(4.6909238 0.01539587 0.077576418)
(4.6969185 0.016243597 0.080931168)
(4.6905747 0.015978536 0.079536545)
(4.6956593 0.016838618 0.082709735)
(4.6887678 0.016609161 0.082187924)
(4.6938973 0.017445231 0.086100443)
(4.6867659 0.017299865 0.085471349)
(4.6909215 0.018130483 0.089101649)
(4.6832442 0.018076488 0.089517043)
(4.6875392 0.018893232 0.094215837)
(4.6796822 0.018864758 0.094599678)
(4.6830558 0.019659768 0.099094541)
(4.6746724 0.019775575 0.10058755)
(4.6779225 0.020470341 0.10655313)
(4.669632 0.020707457 0.10846105)
(4.6715671 0.021309683 0.11464164)
(4.6629051 0.02168151 0.11765154)
(4.7498587 0.018674829 0.14696352)
(4.7577678 0.018505713 0.13944698)
(4.7640838 0.018248907 0.1301623)
(4.7704412 0.017833014 0.12570734)
(4.7748513 0.017355216 0.11878049)
(4.7798177 0.016810342 0.11596768)
(4.7830276 0.01634071 0.11128946)
(4.786304 0.015694444 0.10949281)
(4.7884656 0.015268794 0.10639844)
(4.7904048 0.014633027 0.10582246)
(4.7914946 0.014241376 0.10389579)
(4.7925457 0.013642559 0.10443617)
(4.7928525 0.01330252 0.10358738)
(4.7933943 0.012713248 0.1052267)
(4.7933882 0.012427252 0.10535138)
(4.7940118 0.011857086 0.10791753)
(4.7944052 0.011624695 0.10894686)
(4.7958353 0.010991379 0.11235471)
(4.7975294 0.010755686 0.11423107)
(4.8011412 0.010111753 0.11830696)
(4.8058236 0.010057511 0.12074496)
(4.8135049 0.0094454765 0.12530393)
(4.8239789 0.0092449166 0.12828689)
(4.8402594 0.0085213508 0.1320634)
(4.8617883 0.0076618726 0.13532099)
(4.895034 0.006153947 0.13656921)
(4.9406826 0.0043024794 0.13558729)
(5.0059518 0.0013819975 0.12759156)
(5.0953473 -0.0034554282 0.10657909)
(5.219915 -0.010064119 0.055397202)
(5.3853613 -0.017386788 -0.037126494)
(5.5944302 -0.023324311 -0.21549899)
(5.8291378 -0.02703816 -0.5170211)
(5.756314 -0.041589471 -0.52713573)
(5.7056335 -0.035899048 -0.78531337)
(5.4217771 0.010344527 -1.0284135)
(5.3098849 0.054933558 -0.79628408)
(5.5048465 0.025816011 -0.60481362)
(5.5901156 0.017949802 -0.46022255)
(5.6019726 -0.0052163168 -0.33052996)
(5.710228 -0.036387241 -0.34556137)
(5.6249055 -0.031575611 -0.18779837)
(5.5384058 -0.026140105 -0.093134516)
(5.4394131 -0.020509117 -0.012841555)
(5.3628054 -0.01650322 0.031711892)
(5.2863919 -0.011823015 0.068065315)
(5.2339515 -0.0099202538 0.088060292)
(5.1803049 -0.0064477184 0.10417265)
(5.1458519 -0.0057060474 0.11349491)
(5.1087867 -0.002686375 0.1192298)
(5.0863836 -0.0025928578 0.12437719)
(5.059497 0.00021058137 0.12509156)
(5.0447801 0.00024652731 0.12786041)
(5.0246848 0.0027290572 0.12689447)
(5.0146163 0.0026902779 0.12910343)
(4.9989637 0.0048045113 0.12771699)
(4.9915389 0.0046907002 0.13003935)
(4.9787375 0.0064900571 0.12875468)
(4.9729468 0.0063327758 0.13149109)
(4.9620048 0.0079668221 0.13056541)
(4.956882 0.0077013604 0.13387258)
(4.9470247 0.0091758659 0.13368205)
(4.9416641 0.0088635869 0.13771514)
(4.9321251 0.010231399 0.13858009)
(4.9262862 0.0098562083 0.14338532)
(4.9165568 0.011059726 0.1454775)
(4.9098927 0.010688061 0.15128292)
(4.8995865 0.011672368 0.15456003)
(4.8918241 0.01116392 0.16163336)
(4.8804767 0.011908038 0.16623897)
(4.871179 0.011180786 0.1747064)
(4.8582608 0.011522913 0.18059341)