/*--------------------------------*- C++ -*----------------------------------*\
| =========                 |                                                 |
| \\      /  F ield         | OpenFOAM: The Open Source CFD Toolbox           |
|  \\    /   O peration     | Version:  v2012                                 |
|   \\  /    A nd           | Website:  www.openfoam.com                      |
|    \\/     M anipulation  |                                                 |
\*---------------------------------------------------------------------------*/
FoamFile
{
    version     2.0;
    format      ascii;
    class       volScalarField;
    location    "100";
    object      nut;
}
// * * * * * * * * * * * * * * * * * * * * * * * * * * * * * * * * * * * * * //

dimensions      [0 2 -1 0 0 0 0];


internalField   nonuniform List<scalar> 
49477
(
0.00033669091
0.0003201951
0.00030462101
0.00028997339
0.00027624756
0.00026343186
0.0002515086
0.00024045428
0.00023024054
0.00022083473
0.00021220082
0.00020430044
0.0001970931
0.00019053731
0.00018459094
0.00017921214
0.00017435933
0.00016999209
0.00016607076
0.00016255764
0.00015941702
0.00015661496
0.00015411945
0.00015190104
0.0001499326
0.00014818916
0.00014664774
0.00014528729
0.00014408854
0.00014303395
0.00014210745
0.00014129446
0.00014058158
0.0001399565
0.00013940754
0.0001389239
0.00013849558
0.00013811743
0.00013778112
0.0001374979
0.00013725587
0.00013707335
0.00013699244
0.00013687882
0.00013674576
0.00016241666
0.00017974481
0.00018264591
0.00018580286
0.00018373708
0.00018543322
0.00018355054
0.00018578329
0.00018329916
0.00018525927
0.00018319889
0.00018527198
0.00018308133
0.00018498947
0.00018279638
0.0001847186
0.00018257579
0.00018473508
0.00018244071
0.00018452963
0.00018209809
0.00018422728
0.00018189694
0.00018405708
0.00018194577
0.00018416038
0.00018158664
0.00018368752
0.00018164799
0.0001841551
0.00018316848
0.00018538259
0.00019747345
0.00024581189
0.00027638058
0.00027637571
0.00025809853
0.00020886634
0.00024110684
0.00020165977
0.00026163906
0.00020306834
0.00026784262
0.00020604395
0.00027223048
0.00020559182
0.00019407471
0.00017363988
0.00016416418
0.00030159484
0.00016834361
0.0001531776
0.00015203073
0.00015174536
0.00015149883
0.00015178645
0.00015207685
0.00015173018
0.00015117133
0.00015109457
0.00015156483
0.00015145605
0.00015206267
0.00015183755
0.00015199871
0.00015124445
0.00015222033
0.00015349372
0.00017373582
0.00034567698
0.00016678406
0.00015413828
0.00015676384
0.00015652887
0.00015728724
0.00015503797
0.00015695511
0.00015966803
0.00015952991
0.00015462526
0.00015684181
0.00015586506
0.00015653058
0.00015362455
0.00015682575
0.00015697102
0.00015798199
0.00015622689
0.00015717161
0.00015525888
0.00015611439
0.00015472152
0.00015700088
0.00015604455
0.00015875695
0.00015463043
0.00015633935
0.00015616431
0.00015675987
0.0001540123
0.00015619448
0.00015758027
0.00015800235
0.00015303404
0.00015675441
0.00015362016
0.00015844053
0.00015382784
0.00015713004
0.00015954125
0.00015783159
0.00015591593
0.00015911915
0.00015848294
0.00016003518
0.00016133792
0.00016842809
0.00018054269
0.00035724686
0.00019357669
0.00033849085
0.00018447603
0.00032694158
0.00017596448
0.00032043711
0.00017247877
0.0003115993
0.000170954
0.00030023534
0.0001700404
0.00029207547
0.00016825055
0.00028351925
0.00016549951
0.00024721265
0.00015613294
0.00017192437
0.00014972879
0.00014623372
0.00016321668
0.0001684873
0.00017126299
0.00017411313
0.00019451151
0.00018756779
0.00019388462
0.00018765096
0.00019872981
0.00021678667
0.00020020703
0.00020531859
0.0002057959
0.00020768714
0.00019546267
0.00021288997
0.00021617029
0.00025629182
0.00032610601
0.00034128446
0.0002942505
0.00024222949
0.00023205366
0.00020837203
0.00021356442
0.00020657978
0.00020285394
0.0002031312
0.00020277455
0.00019287664
0.00021955102
0.00021753172
0.0001874999
0.00019671502
0.00018654166
0.00019595638
0.00017913308
0.0001725386
0.00017206018
0.00017036595
0.00017336179
0.00017366958
0.00017729182
0.00018395723
0.0002033673
0.00020055379
0.00018953871
0.00018647347
0.00019635412
0.00021183828
0.0002026158
0.00020159145
0.00022560944
0.00022076759
0.00019115315
0.00019200535
0.00020391779
0.00020166153
0.00021039448
0.00024317548
0.00023506086
0.00020456359
0.00019748515
0.00020989602
0.00019966995
0.00019750867
0.00021293891
0.00020410991
0.00020233213
0.00019210737
0.00021755184
0.00020691769
0.00018581777
0.00019476291
0.00019178279
0.00020009981
0.00018820023
0.0001758531
0.00017324615
0.00017364587
0.00017398057
0.00017376327
0.00018036699
0.00018543365
0.00018481656
0.0001987061
0.0001897791
0.00018958398
0.00019839233
0.00021039335
0.00019306889
0.00020098109
0.00020334124
0.00021234131
0.00020044132
0.00019687114
0.00021797479
0.00020034017
0.00019403095
0.000215397
0.00022961934
0.00021697746
0.00020810035
0.00023270925
0.00018828282
0.00019094705
0.00020835311
0.00021513703
0.00021126868
0.0001951203
0.00021440523
0.00020181579
0.00019069537
0.0001879096
0.00019832083
0.00019966733
0.0001829073
0.00017589427
0.00017328793
0.00017338265
0.00017323692
0.00017238461
0.00017781376
0.00019000584
0.0001980912
0.00020133508
0.00019547885
0.00019890477
0.00020144306
0.00020883457
0.00018790887
0.00019798444
0.00020245006
0.00021107774
0.00019615198
0.00019847169
0.00022238885
0.00021089941
0.00019331449
0.00020126794
0.0002189717
0.00021937442
0.00021837577
0.00023132795
0.00019161459
0.00019182445
0.00020743398
0.00020762953
0.00019969027
0.00019757856
0.00021265829
0.00020572187
0.00018574052
0.00019695732
0.00019796025
0.00019363912
0.00018690931
0.0001814301
0.00017285984
0.00017386995
0.00017403066
0.00017369072
0.00017567659
0.00018515688
0.00018938232
0.00020132235
0.00019683766
0.0001876578
0.00020331402
0.0002107607
0.00019198938
0.00019788642
0.00020089426
0.00022418101
0.00020338372
0.00020985805
0.00021400903
0.00019844245
0.00019646518
0.00023874442
0.00021430243
0.00020206996
0.00018093958
0.00020518467
0.00020421977
0.00020747349
0.00022697098
0.00023451512
0.00019578783
0.00019157396
0.00020252478
0.00019765618
0.00019292516
0.00018888086
0.00020617303
0.00020139766
0.00018892296
0.00017459151
0.00017388157
0.00017372765
0.00017354761
0.00017306913
0.00018105578
0.00019757095
0.00019670255
0.00020551175
0.00020322029
0.00020374734
0.00021713361
0.00021980535
0.00019277289
0.00020637028
0.00020091795
0.00021521407
0.00019902822
0.00019772417
0.00022056621
0.00019924516
0.00018521133
0.00018355212
0.00022423029
0.00021243277
0.00019822195
0.00020522054
0.00019357012
0.00019699862
0.00020390435
0.00019951942
0.00019970917
0.0002068576
0.00019206153
0.00019700895
0.00019389243
0.00019567083
0.00019326846
0.00019093932
0.00018297522
0.00017315266
0.00017231661
0.00017316843
0.0001729109
0.00017143034
0.00017513046
0.00018726775
0.00019412104
0.00019573338
0.00018768462
0.00020213621
0.00021765497
0.000233425
0.00020182679
0.00019427211
0.00018870132
0.00021401014
0.00019686369
0.00021551998
0.00024550817
0.00024447733
0.00019064767
0.0001837604
0.00021713446
0.0002189195
0.00022788219
0.00021389274
0.00020911546
0.00020258005
0.00022726118
0.00022921296
0.00020188644
0.00019294451
0.00019676231
0.00020007396
0.00019529622
0.00019518598
0.00018815668
0.00019193781
0.00018596109
0.00017523568
0.000171481
0.00017283886
0.0001723322
0.00017128073
0.00017403783
0.00018243553
0.00019079827
0.00020576289
0.00019033448
0.00018804219
0.00020169926
0.00021241864
0.00019415904
0.0002190393
0.00022647376
0.00023803173
0.00021165074
0.00021027607
0.00024537136
0.00023695797
0.00018823656
0.00017749873
0.00022579045
0.00022579615
0.00021589525
0.00020183782
0.00018949172
0.0001934695
0.00020478838
0.00020369748
0.00020843299
0.00019397303
0.00020748725
0.00021050002
0.00018662717
0.00019699344
0.00020114193
0.00019700948
0.00018451226
0.00017985508
0.00017187885
0.00017279279
0.00017279047
0.00017177587
0.0001746418
0.00019103975
0.00019076369
0.00021485078
0.00020097859
0.00021560632
0.00021035885
0.00021908147
0.00018988077
0.000204176
0.00019652293
0.00020069525
0.00019735499
0.00018506036
0.00020083735
0.00020182782
0.0001969585
0.00021580613
0.0002083112
0.00019035719
0.00019349613
0.00022611736
0.00019067063
0.00019836875
0.00019176334
0.0002007394
0.00019365783
0.00019707494
0.00020885685
0.00020216101
0.00020113441
0.00019032378
0.00019929269
0.00020468398
0.00019171843
0.00017432875
0.00017175211
0.00017309679
0.0001726411
0.00017157818
0.00017665418
0.00018735264
0.00020534115
0.00020857088
0.00019286337
0.00019031602
0.00019966892
0.00020847677
0.00018960491
0.00019873435
0.00020238016
0.00021308985
0.00019973632
0.00019154454
0.00021711893
0.00020563542
0.00018756442
0.00019066669
0.00021297095
0.00019811673
0.00020522711
0.00021676702
0.00019655288
0.0002020366
0.00020347078
0.00020642966
0.00019368184
0.00019657518
0.00020592552
0.00019520266
0.00019227861
0.00019733782
0.00019155762
0.00019177306
0.00018621793
0.00017732941
0.00017262584
0.00017278199
0.00017275129
0.00017261053
0.0001803877
0.00018501856
0.00019391927
0.00020748351
0.00021138783
0.00019744093
0.00020789442
0.00022792875
0.00019244425
0.00020157666
0.00019450227
0.00021230013
0.00019924193
0.00021614643
0.00023710056
0.00022758699
0.0002000224
0.0002033533
0.00021158792
0.0002061591
0.00020643834
0.00021997961
0.00020856244
0.00020245958
0.00021292989
0.00020766891
0.0001949179
0.00018940343
0.00021492389
0.0002039785
0.00018377096
0.00018497966
0.00020333401
0.00019427987
0.00018036523
0.00017659174
0.00017309452
0.00017235457
0.00017303173
0.00017473668
0.00018090193
0.00019219326
0.00019940789
0.00020732134
0.00019687741
0.00020494809
0.00020104978
0.00021270294
0.00019233632
0.00019330099
0.00019632767
0.00021274292
0.00020659316
0.00020997622
0.00022122642
0.00022421766
0.00018679843
0.00019041814
0.00023287582
0.00021368586
0.0002126596
0.00021406581
0.00019913928
0.00021143412
0.00021243542
0.0002116516
0.00019298328
0.00019540936
0.00020589585
0.00020436868
0.00019257041
0.00018596808
0.00020137215
0.00019345457
0.00019435991
0.00018323193
0.00017424941
0.00017265918
0.00017350932
0.00017363116
0.00018010214
0.00018657296
0.00019424716
0.00019379064
0.0001961956
0.00019162482
0.00019044749
0.00020471713
0.00019577277
0.00021706171
0.00020107479
0.0001942889
0.00019295562
0.00020704137
0.00020254915
0.00020533456
0.00019012851
0.00020591238
0.00021852222
0.00018876627
0.00020668316
0.00021472757
0.00020371846
0.00020049628
0.0001940522
0.00019477453
0.00021044782
0.00019850496
0.00021923541
0.00022907396
0.0001976996
0.00018788809
0.00018905764
0.00019576943
0.0001915505
0.00018283794
0.0001756047
0.00017285568
0.00017267574
0.00017338071
0.00017762104
0.00018830103
0.00019650767
0.00019097241
0.00019230437
0.00019643887
0.00019685829
0.00020702826
0.00019484213
0.00019795303
0.00019819418
0.00020562958
0.00020381664
0.00020434238
0.00020616984
0.00020501625
0.000183585
0.00019669289
0.00021149324
0.00019255871
0.00020395301
0.00020886842
0.00020625021
0.00019900152
0.00020630232
0.00020332002
0.00020158813
0.00019527809
0.00020212852
0.00020614766
0.000192864
0.0002078358
0.00018823222
0.0001883902
0.00019122875
0.00018094246
0.00017505222
0.00017319062
0.00017370678
0.00017652274
0.0001805438
0.00019330693
0.00019369304
0.00019400724
0.00019258703
0.00019544708
0.00019765378
0.00020204764
0.00019389381
0.0002023163
0.00020810011
0.00020682963
0.00020496892
0.00024091847
0.00024128627
0.0002079407
0.00019481237
0.00019961952
0.00021362135
0.00020534073
0.00019517611
0.00019997494
0.0002195359
0.00019354428
0.00019469719
0.00019757666
0.0002036635
0.00019420973
0.00021581685
0.00020587221
0.00018893991
0.00019616027
0.00019030557
0.00019963264
0.00019483399
0.00018585494
0.00018018894
0.00017448009
0.00017557344
0.00017797065
0.00018174164
0.00018462636
0.00018816758
0.00019001074
0.00018610086
0.00018923977
0.00019877042
0.00019200736
0.00019318393
0.00020093494
0.00020182497
0.00020225924
0.00018799151
0.00020208859
0.00023390157
0.00021680359
0.00019678516
0.00020469799
0.00022783793
0.00021085744
0.00021255762
0.00021990482
0.00019733731
0.00018909457
0.0002025028
0.00019942376
0.00019091215
0.00019194652
0.00020097963
0.00019713035
0.00019577663
0.00020255569
0.00018669037
0.00018909897
0.0001922265
0.00018389142
0.0001818781
0.00017945925
0.00019248158
0.0001928966
0.00020520168
0.00021248976
0.00019631405
0.00018632458
0.00019216498
0.00020064347
0.00020840535
0.00021134929
0.00019168753
0.00019334726
0.00019084547
0.00019130759
0.00019358525
0.00020207538
0.0002116782
0.0002037402
0.000193958
0.00021160209
0.00021095352
0.00019277727
0.0002000708
0.00021698457
0.00020414207
0.00021351941
0.00020059519
0.00020248439
0.00019272955
0.00018873339
0.00021130716
0.00020298858
0.00019190061
0.00018822601
0.00018608498
0.00020273398
0.00021902746
0.00024905272
0.00023380723
0.00022724248
0.00026094817
0.00026404256
0.00023431624
0.00021500831
0.00019944363
0.00018744881
0.00019312365
0.00019124584
0.00020300171
0.00020239389
0.00018460057
0.00019815562
0.00020328166
0.00021429263
0.00019044974
0.00019777148
0.00022047501
0.00019795278
0.0001870688
0.00018931853
0.00020667767
0.00019485898
0.00019237965
0.0002159095
0.00019652727
0.00020263782
0.00020230992
0.00020200048
0.00019684063
0.00018982487
0.00020464401
0.00020209634
0.00019271411
0.00019356278
0.00018223367
0.00018607216
0.0001921741
0.00020331902
0.00023372568
0.00026501811
0.00022733609
0.00020134075
0.00019646515
0.00019388884
0.00019502958
0.00019591666
0.00019360455
0.0002013626
0.00020470201
0.00022557186
0.00019320349
0.00019594629
0.00019641096
0.0002042305
0.00019200274
0.00019315473
0.00024226064
0.00021631416
0.00019643155
0.0002080844
0.00021708236
0.00021012178
0.00020661517
0.00023198561
0.00020653139
0.00019993247
0.00020619566
0.00021416281
0.00019442165
0.00019029758
0.00021775495
0.00020356801
0.00019180904
0.00020050001
0.00020106261
0.00020674778
0.00019583624
0.00020304097
0.00020494783
0.00019361854
0.00019903269
0.00020191865
0.00020071863
0.0002050695
0.00021328469
0.00020685301
0.00019577776
0.00019372693
0.00019918646
0.00021080854
0.00019998224
0.00021181745
0.00021575086
0.00021624518
0.0001961553
0.00020695099
0.00024050907
0.00022225147
0.00019091007
0.00019444708
0.00023957168
0.0002222319
0.00021023079
0.00022574288
0.00020615112
0.00020229601
0.00021860896
0.0002220076
0.00020499906
0.0001960954
0.0002154486
0.00020643359
0.00019291176
0.00021184445
0.00020793342
0.00021115832
0.00020665486
0.00020311337
0.00020006761
0.00019098822
0.0002047584
0.00021527921
0.00020626706
0.00021275654
0.00020714079
0.00022831121
0.00021100742
0.00019891735
0.00019521533
0.00021430164
0.00020237555
0.00022013535
0.00021734191
0.00022628622
0.00019686478
0.00020135574
0.00022561686
0.00020654681
0.00019952633
0.0002337581
0.00021229121
0.00020285914
0.00020468632
0.00022233039
0.00019863288
0.00019688724
0.00021269288
0.00020852233
0.00020954271
0.00019426109
0.00022518144
0.00021869675
0.00018927151
0.00020665565
0.00022235732
0.00022474454
0.00020696343
0.00020363928
0.00019812546
0.00019322292
0.00021152224
0.00021000537
0.00019628715
0.00019057337
0.00020519076
0.00022008475
0.0002068955
0.00020049533
0.00020250353
0.00021058931
0.00019309824
0.00020328128
0.00021206399
0.00020640139
0.00020201867
0.00021622993
0.00023885787
0.00021490292
0.00018920101
0.00019084052
0.00021570055
0.00021364008
0.00021822968
0.00022186182
0.00021611339
0.00020561166
0.00020436543
0.00019900193
0.00019324391
0.0001957631
0.00021759747
0.00021641594
0.00020592206
0.00022001902
0.00022372061
0.00021872001
0.0001973696
0.00020176517
0.00019681354
0.0001954548
0.00021015082
0.00022048608
0.00021072595
0.00022479132
0.00021155077
0.00021192892
0.00020677565
0.00021817305
0.00021343918
0.00020848512
0.0001882594
0.0002053589
0.00021263244
0.00021336078
0.00020116771
0.00022086673
0.00022221652
0.00023035676
0.00020164082
0.00019996452
0.00021247997
0.00021870623
0.00022703425
0.00020972749
0.00021817717
0.00020467151
0.00021370589
0.00020669083
0.00020591792
0.00019603525
0.00020599988
0.00021587143
0.00022158552
0.00021462985
0.00020306555
0.00021343265
0.00022190005
0.00021689753
0.0002134708
0.00020333995
0.00021770435
0.00021955981
0.00020822674
0.00021828698
0.00021903081
0.00020674606
0.00020656695
0.00020741273
0.00021234441
0.00020601473
0.00020062777
0.00021304801
0.00021908395
0.00024854159
0.000201557
0.00022251116
0.00022942102
0.00025013659
0.00019152863
0.00018555568
0.00021829832
0.00023157585
0.00021484956
0.000187651
0.00021826818
0.00020218499
0.00020715681
0.00020048067
0.00020277403
0.00019421143
0.00019874126
0.00021714253
0.00021176626
0.00021166434
0.00019888694
0.0002056064
0.00020400057
0.00019675543
0.00021882605
0.0002027722
0.0002133499
0.0001779638
0.00018296039
0.00018937882
0.00019755167
0.00020772752
0.00022024718
0.0002355814
0.00025418794
0.00027658134
0.00030335841
0.00033517774
0.00037272216
0.00041674108
0.00046803718
0.00052731859
0.00059551414
0.00067336145
0.00076173507
0.00086150849
0.00097334041
0.0010979629
0.0012360575
0.0013882785
0.0015552404
0.0017374377
0.0019354145
0.0021497497
0.0023804966
0.0026282646
0.0028939484
0.0031761693
0.003476777
0.003796872
0.0041356068
0.0044931157
0.0048700509
0.0052655771
0.0056799267
0.0061155381
0.0065671064
0.0070371169
0.0075298918
0.0093101761
0.0087937433
0.0082961767
0.0078174742
0.007357644
0.0069165746
0.0064941697
0.006090252
0.0057046418
0.0053370972
0.0049873674
0.0046551475
0.0043401157
0.0040419056
0.0037601288
0.0034943552
0.0032441272
0.0030089527
0.0027883143
0.0025816632
0.0023884277
0.0022080145
0.0020398164
0.0018832162
0.0017375928
0.0016023275
0.0014768103
0.001360447
0.0012526637
0.0011529106
0.0010606675
0.00097544633
0.00089679197
0.00082428548
0.00075751484
0.0006960852
0.00063951597
0.00058761191
0.00053980394
0.00049620882
0.00045597957
0.00041867961
0.0003858528
0.00020268305
0.00021457012
0.00022865902
0.00024601396
0.00026705725
0.00029209117
0.0003216854
0.00035644097
0.00039699249
0.00044393063
0.00049795059
0.00055974387
0.00063001225
0.00070944803
0.00079871923
0.000898463
0.0010092793
0.0011317274
0.001266324
0.0014135413
0.0015738114
0.001747525
0.0019350445
0.0021366993
0.0023528034
0.0025836475
0.0028295233
0.0030906996
0.0033674583
0.0036600747
0.0039688243
0.0042939826
0.0046358224
0.0049946142
0.0053706199
0.005764086
0.0061752607
0.0066043655
0.0070515409
0.0075171489
0.0080014263
0.008503897
0.0090276458
0.0095748251
0.0098018067
0.0092683675
0.0087539903
0.008258695
0.0077823949
0.0073249924
0.006886358
0.0064663269
0.0060646985
0.0056812358
0.0053156743
0.0049677178
0.0046370414
0.0043232953
0.0040261024
0.0037450585
0.0034797338
0.0032296733
0.0029943985
0.0027734139
0.0025661898
0.0023721868
0.0021908422
0.0020215884
0.0018638458
0.001717036
0.001580577
0.0014539023
0.0013364552
0.0012276957
0.0011271047
0.0010341849
0.00094846281
0.00086949217
0.00079685467
0.00073011777
0.00066899249
0.00061305523
0.00056188264
0.00051516008
0.00047247971
0.00043327568
0.00039731755
0.00036595901
0.00019034388
0.00020083001
0.00021310884
0.00022817468
0.0002465821
0.00026872414
0.00029503597
0.00032609744
0.00036251374
0.00040498575
0.00045426204
0.00051111434
0.000576293
0.00065056325
0.00073471857
0.00082939493
0.00093534248
0.0010533797
0.0011837353
0.001327247
0.001484454
0.0016558351
0.0018418245
0.0020428064
0.002259131
0.0024911064
0.0027390244
0.0030031388
0.0032837008
0.003580947
0.0038950951
0.0042263604
0.0045749768
0.0049411337
0.0053250715
0.0057269355
0.0061469476
0.0065853066
0.0070420829
0.0075174841
0.0080119635
0.0085247948
0.009056936
0.009613794
0.0098412907
0.0092926637
0.008763721
0.008256577
0.0077692121
0.0073006047
0.0068514101
0.00642167
0.0060111668
0.0056197798
0.0052472118
0.0048932405
0.0045575119
0.0042396844
0.0039393491
0.0036560997
0.0033894574
0.0031389136
0.0029039136
0.0026838984
0.0024782628
0.0022863903
0.0021076439
0.0019413799
0.0017869447
0.0016436888
0.0015109689
0.0013882505
0.0012748134
0.0011701009
0.0010734885
0.00098449129
0.00090256181
0.00082724663
0.00075808303
0.00069466853
0.00063665017
0.00058367985
0.00053543646
0.00049161246
0.00045175329
0.000415457
0.00038266326
0.00035370358
0.00018173071
0.00019094334
0.0002023157
0.00021604245
0.00023262972
0.0002524109
0.00027589595
0.00030367361
0.00033638498
0.00037472322
0.00041933417
0.00047099017
0.00053045196
0.00059849917
0.00067591843
0.00076349642
0.0008620566
0.00097236987
0.0010950973
0.0012309363
0.0013804978
0.001544388
0.0017232509
0.0019173363
0.0021272229
0.0023537419
0.0025962293
0.0028557529
0.0031326981
0.0034278408
0.0037418312
0.0040736753
0.0044238793
0.0047936167
0.0051803576
0.0055861315
0.0060110926
0.0064566367
0.0069243375
0.0074093037
0.0079146803
0.0084426491
0.0089884904
0.0095585523
0.0098173802
0.0092593073
0.0087218865
0.0082073661
0.0077136684
0.007239733
0.0067861766
0.006352967
0.0059398405
0.0055466299
0.0051730082
0.0048186437
0.0044831843
0.0041661874
0.0038671831
0.0035857074
0.0033212035
0.0030731014
0.0028407906
0.002623635
0.0024209835
0.0022321664
0.0020565017
0.0018934826
0.0017422239
0.0016021097
0.0014723572
0.0013523069
0.0012414079
0.001139066
0.001044726
0.00095786852
0.000877991
0.0008046128
0.00073729577
0.00067562997
0.00061923532
0.00056776539
0.00052091531
0.00047842617
0.00044006365
0.00040544031
0.00037426398
0.00034603811
0.00017951122
0.0001884633
0.00019953322
0.00021296664
0.00022910551
0.00024836157
0.00027127208
0.00029841576
0.00033041106
0.00036792537
0.00041162062
0.00046219875
0.00052043318
0.00058696482
0.0006626277
0.00074816847
0.00084434906
0.00095203895
0.0010717381
0.0012042341
0.0013501952
0.0015102528
0.0016850224
0.0018750732
0.0020809577
0.0023033607
0.0025428338
0.0027996268
0.003073714
0.0033655866
0.003676351
0.0040044017
0.0043511583
0.0047180806
0.0051048679
0.0055111497
0.0059386284
0.0063834957
0.0068485372
0.0073342849
0.0078411284
0.0083703678
0.0089230216
0.0094994847
0.0097618307
0.0092050063
0.0086688524
0.0081526877
0.0076573761
0.007182983
0.0067293583
0.0062978631
0.0058867526
0.0054964036
0.0051253903
0.0047730894
0.0044396049
0.0041252259
0.0038286566
0.0035490555
0.0032862268
0.0030400413
0.0028094336
0.0025935642
0.0023920152
0.0022041338
0.0020292513
0.0018667362
0.0017159314
0.0015761874
0.0014468696
0.0013273581
0.0012170525
0.0011154321
0.0010218782
0.00093588607
0.00085692323
0.00078452934
0.00071822988
0.00065760238
0.00060226751
0.0005518624
0.00050605918
0.0004645613
0.00042708497
0.00039333432
0.00036299526
0.0003357966
0.00017820899
0.00018707734
0.00019787044
0.00021095547
0.00022672002
0.00024560575
0.00026811834
0.00029479664
0.00032624166
0.0003631087
0.00040600933
0.00045568306
0.00051284968
0.00057825441
0.00065272246
0.00073692631
0.00083163167
0.00093765476
0.0010557866
0.0011865071
0.0013305037
0.0014886088
0.0016608808
0.0018481231
0.0020509005
0.0022701726
0.0025057161
0.0027580963
0.0030278323
0.0033161113
0.0036221525
0.0039465724
0.0042899031
0.0046537458
0.0050365956
0.0054392553
0.0058632197
0.006308978
0.0067757136
0.0072626385
0.0077703062
0.0082993813
0.0088467581
0.0094194362
0.0096399297
0.0090857624
0.0085520665
0.0080389145
0.007546505
0.0070749512
0.006624239
0.0061956988
0.0057876011
0.0053989992
0.0050300449
0.0046804021
0.004349646
0.0040373582
0.0037437379
0.003467849
0.0032087918
0.0029655297
0.0027378245
0.0025250405
0.0023265182
0.0021416392
0.0019697436
0.0018103418
0.0016625801
0.0015258645
0.0013994375
0.0012826578
0.0011749869
0.0010758968
0.0009847829
0.00090114571
0.00082445914
0.00075423626
0.00069005213
0.00063148694
0.00057814784
0.00052966743
0.00048570265
0.00044593687
0.00041007659
0.00037784179
0.00034895778
0.00032316274
0.00017706015
0.0001856858
0.00019621648
0.00020897547
0.00022436426
0.00024282544
0.00026485151
0.00029097836
0.00032180233
0.00035796497
0.00040008439
0.00044889107
0.00050511303
0.00056947166
0.00064274592
0.00072561427
0.00081885385
0.00092331783
0.0010394098
0.0011680115
0.0013097907
0.0014653778
0.0016353754
0.0018203487
0.002020838
0.0022373753
0.00247047
0.0027206098
0.0029885081
0.0032747171
0.0035793483
0.003902069
0.0042434476
0.0046048236
0.0049836563
0.0053819751
0.0058002547
0.0062388964
0.0066982055
0.0071782454
0.0076806723
0.0082057408
0.0087514465
0.0093205652
0.0094562308
0.0089124314
0.0083885509
0.0078849415
0.0074017858
0.0069391908
0.0064969973
0.0060751153
0.0056732699
0.0052912043
0.0049285953
0.0045859608
0.0042619633
0.0039565021
0.0036684266
0.0033977168
0.0031436144
0.0029054248
0.0026824018
0.0024735923
0.0022787112
0.00209713
0.0019282048
0.0017713397
0.0016259051
0.0014912766
0.0013668422
0.0012520002
0.0011461682
0.0010487839
0.00095930868
0.00087723076
0.00080206603
0.0007333376
0.00067059971
0.00061343754
0.0005614577
0.00051428726
0.00047157575
0.00043300234
0.00039826427
0.00036708403
0.00033918601
0.00031427054
0.00017474485
0.00018279703
0.0001926885
0.00020470612
0.00021923133
0.00023669065
0.00025754905
0.00028231406
0.00031153883
0.00034582062
0.00038579747
0.00043214219
0.00048555733
0.00054676516
0.00061650014
0.0006955018
0.00078450881
0.00088424417
0.00099541613
0.0011187207
0.0012547845
0.0014042307
0.0015677277
0.0017456048
0.0019384447
0.0021471087
0.002371159
0.0026115009
0.002868665
0.0031437928
0.003436222
0.0037465927
0.004075991
0.0044249321
0.0047929173
0.0051801757
0.0055869752
0.0060133291
0.0064594862
0.0069253296
0.0074111026
0.0079166202
0.0084416162
0.0089885313
0.0089020201
0.0083994535
0.0079144444
0.0074472566
0.0069981029
0.006567149
0.0061544359
0.0057612217
0.005386096
0.0050294161
0.0046900637
0.004367529
0.0040619564
0.0037729983
0.0035002527
0.0032433255
0.0030017566
0.0027750476
0.0025626653
0.0023640538
0.0021786445
0.0020058521
0.0018450807
0.0016958777
0.0015574863
0.001429363
0.0013108333
0.0012013177
0.0011003252
0.0010073286
0.00092183149
0.00084336606
0.00077148567
0.00070577502
0.00064578749
0.00059112747
0.00054143395
0.00049634857
0.00045552736
0.0004186534
0.00038543441
0.00035562169
0.00032898641
0.00030509792
0.00017117402
0.00017839282
0.00018723191
0.00019795525
0.00021095804
0.00022664273
0.00024542599
0.00026774576
0.00029409921
0.00032504229
0.0003611164
0.00040295977
0.00045121408
0.00050654564
0.00056963734
0.00064114817
0.00072179296
0.00081232789
0.00091318127
0.0010250706
0.0011486754
0.0012845828
0.0014332314
0.0015950406
0.0017704526
0.0019599535
0.0021635703
0.0023817461
0.0026152623
0.0028630425
0.0031261745
0.003404943
0.0036995675
0.0040107254
0.0043386716
0.0046828464
0.0050432241
0.0054197996
0.0058125965
0.0062212851
0.0066459282
0.0070862348
0.0075418674
0.0080144735
0.0071872633
0.0068008726
0.0064260534
0.0060631818
0.0057126073
0.0053746221
0.0050494262
0.0047380654
0.0044397488
0.004154852
0.0038827057
0.0036230477
0.0033760485
0.0031415486
0.0029193493
0.0027096204
0.0025117034
0.0023254399
0.0021502465
0.0019856953
0.0018315411
0.0016873969
0.0015528668
0.0014275624
0.0013110763
0.0012029987
0.0011029197
0.0010104839
0.00092525608
0.0008468257
0.0007747953
0.00070876286
0.00064840498
0.00059337609
0.00054332216
0.00049791771
0.00045682989
0.00041974623
0.00038634937
0.00035633971
0.00032942828
0.0003053844
0.00028406103
0.000265282
0.00015930359
0.00016326879
0.00016774423
0.00017325629
0.00018009813
0.00018847298
0.0001985972
0.00021073489
0.0002251857
0.00024230208
0.00026247158
0.00028609346
0.00031362085
0.0003455485
0.00038233241
0.00042451881
0.00047264289
0.00052725981
0.00058891232
0.0006581017
0.00073532034
0.00082105122
0.00091577373
0.0010198079
0.0011335597
0.0012574958
0.0013915257
0.0015361066
0.0016915671
0.0018580823
0.0020356294
0.0022239543
0.0024231479
0.0026335551
0.0028540258
0.0030850873
0.0033270635
0.0035798202
0.0038426084
0.0041150103
0.0043967566
0.0046874108
0.0049865845
0.0052946185
0.0036068834
0.0034092625
0.0032163646
0.0030286198
0.0028464496
0.0026702088
0.0025002125
0.0023370244
0.0021805646
0.0020308497
0.0018881039
0.0017523888
0.0016237382
0.0015021558
0.0013875968
0.0012800861
0.0011793969
0.0010853266
0.00099773802
0.00091642246
0.00084115186
0.0007716853
0.00070776257
0.0006491133
0.00059545922
0.00054653415
0.00050204221
0.00046169408
0.00042520497
0.0003922907
0.00036269385
0.00033615967
0.00031243502
0.00029128468
0.00027247892
0.00025580185
0.00024105119
0.00022803644
0.0002165814
0.00020652266
0.00019770049
0.00018996649
0.00018321505
0.00017742368
0.00015060585
0.00015148781
0.00015238557
0.00015350555
0.00015489474
0.00015655981
0.00015853459
0.000160876
0.00016365568
0.00016694759
0.00017083615
0.00017541865
0.00018080977
0.00018713122
0.00019452818
0.00020315977
0.00021319913
0.0002248395
0.00023829061
0.00025375697
0.00027147462
0.00029170072
0.00031465282
0.0003406134
0.00036984573
0.00040261238
0.00043917236
0.00047977305
0.00052464825
0.00057402227
0.00062807661
0.00068697697
0.0007509364
0.00081993926
0.00089407
0.00097347442
0.0010579698
0.0011475317
0.0012421545
0.0013417032
0.0014458091
0.0015542555
0.0016669039
0.0017830618
0.008085812
0.0076089772
0.0071520635
0.0067151602
0.0062979715
0.0059004751
0.0055222623
0.00516313
0.0048226077
0.004500306
0.0041957602
0.0039085169
0.0036380105
0.0033837174
0.0031450078
0.0029212805
0.0027118807
0.0025161386
0.0023333647
0.0021628852
0.0020040052
0.0018560504
0.0017183492
0.0015902561
0.001471144
0.0013604188
0.0012575163
0.0011619102
0.0010731101
0.00099066687
0.0009141702
0.00084324705
0.00077755196
0.00071676548
0.00066059204
0.00060860977
0.00056072051
0.00051642751
0.00047588074
0.00043830229
0.00040329337
0.00037248599
0.00016961
0.00015692811
0.00015971636
0.00015948728
0.00016005124
0.00015776159
0.00015965925
0.00016250234
0.00016229961
0.00015725128
0.00015948634
0.00015850568
0.00015935093
0.00015609774
0.00015960187
0.0001597847
0.00016068903
0.0001590683
0.0001600129
0.00015796294
0.00015871344
0.00015730871
0.00015962389
0.00015873187
0.00016151612
0.00015736733
0.00015901307
0.00015900493
0.00015949836
0.0001565678
0.00015887358