/*--------------------------------*- C++ -*----------------------------------*\
| =========                 |                                                 |
| \\      /  F ield         | OpenFOAM: The Open Source CFD Toolbox           |
|  \\    /   O peration     | Version:  v2012                                 |
|   \\  /    A nd           | Website:  www.openfoam.com                      |
|    \\/     M anipulation  |                                                 |
\*---------------------------------------------------------------------------*/
FoamFile
{
    version     2.0;
    format      ascii;
    class       volScalarField;
    location    "200";
    object      k;
}
// * * * * * * * * * * * * * * * * * * * * * * * * * * * * * * * * * * * * * //

dimensions      [0 2 -2 0 0 0 0];


internalField   nonuniform List<scalar> 
231880
(
0.015769137
0.01519145
0.014629148
0.014082286
0.013550915
0.013035082
0.012534824
0.012050179
0.011581123
0.011127618
0.010689598
0.010266966
0.0098595897
0.0094673179
0.0090899664
0.0087273336
0.0083791697
0.0080452192
0.0077251904
0.0074187778
0.0071256473
0.0068454669
0.006577882
0.0063225231
0.006079147
0.0058475152
0.0056273458
0.0054183359
0.0052201545
0.0050324466
0.0048548463
0.0046869854
0.0045284846
0.0043789594
0.0042380281
0.0041053145
0.0039804412
0.0038630347
0.0037527309
0.0036491738
0.0035520123
0.0034609048
0.0033755209
0.0032955409
0.0032206536
0.003150559
0.0030849686
0.0030236053
0.0029662039
0.0029125095
0.0028622796
0.0028152824
0.002771297
0.0027301147
0.0026915362
0.0026553707
0.0026214358
0.0025895525
0.0025595575
0.002531299
0.0025047694
0.0024797946
0.0024565973
0.0024353842
0.0024164545
0.0024019527
0.0023878605
0.0023704033
0.002302209
0.0028047455
0.0031652599
0.0034084867
0.0035276734
0.003576534
0.0035878251
0.0036096544
0.0036245198
0.0036204162
0.0036165404
0.0036235066
0.0036580417
0.0036477871
0.0036293654
0.0036306363
0.0036378006
0.00368409
0.0036602357
0.0036207289
0.0036194641
0.0036061374
0.003573587
0.0035438555
0.0035267616
0.0035164187
0.0035049484
0.0034851304
0.0034762027
0.0034734495
0.0034681745
0.0034724295
0.0034939306
0.003630843
0.0038413587
0.003517624
0.0033540199
0.0033071446
0.0033036157
0.0033041747
0.0033064035
0.0033055967
0.0033073647
0.0033500896
0.0033153902
0.0033537651
0.0033205265
0.0033638505
0.0033223569
0.0033670163
0.0033192983
0.0033695358
0.0033239264
0.0033952532
0.0033603937
0.0034635873
0.0034656458
0.0035886426
0.0036519835
0.0038775764
0.0045301895
0.0058250524
0.0073981321
0.0087975098
0.0090743343
0.0082941463
0.0059680163
0.0049261061
0.0036109187
0.004099463
0.0032404813
0.0040558374
0.0031960823
0.0041080235
0.0031823251
0.0041532885
0.0031829553
0.0041792691
0.0031816211
0.0041933647
0.0032128714
0.0042285776
0.0032411951
0.0042884744
0.0031549365
0.0030613226
0.002894738
0.0026682799
0.0028029755
0.0041616435
0.0028018745
0.0024681808
0.0024181473
0.0024179974
0.0024147796
0.0024507803
0.002454249
0.0024416927
0.0024240889
0.0024198248
0.0024463347
0.0024341097
0.0024484072
0.0024216491
0.0024319183
0.0024628999
0.0024663944
0.0024840357
0.0024743491
0.0024417158
0.0024315365
0.0024294307
0.00243258
0.0024260105
0.0024429749
0.0024296319
0.0024582472
0.002420745
0.0024411344
0.0024402356
0.0024549206
0.0024534248
0.002477726
0.0024973486
0.0029481984
0.0046712094
0.0028987777
0.0025080161
0.0025348153
0.002483046
0.0025620709
0.0024618134
0.002508527
0.0024611492
0.0025067302
0.002452435
0.0024905772
0.0025043681
0.0025419021
0.0025234832
0.0026100505
0.0025448771
0.0025745171
0.0025012392
0.0025249062
0.0024888533
0.0025262216
0.0024561312
0.0025175369
0.0024606864
0.0024789109
0.0024331999
0.0025039728
0.0025243591
0.0025488519
0.0025094404
0.0025552226
0.0025076038
0.0025279503
0.0024860232
0.0025416115
0.0025190237
0.0025461992
0.0025058718
0.0025405667
0.0025153079
0.0025127402
0.0024774259
0.0025321957
0.0025503376
0.0025602682
0.0025553919
0.0025605321
0.0025731317
0.0025566643
0.0025965879
0.0026661434
0.0027167279
0.0026836467
0.0026458247
0.002681125
0.0026647232
0.0026555041
0.0026270547
0.0026785799
0.0026741779
0.002685454
0.0026396812
0.0026882804
0.0026902713
0.0027018059
0.0026433926
0.0027022532
0.0027036312
0.0026837845
0.0026716256
0.0026762534
0.0026676011
0.0026490346
0.0026486112
0.0026765948
0.0027154991
0.0026528298
0.0026203484
0.0026623983
0.0026349009
0.0026768884
0.002644394
0.0027370141
0.0027471336
0.002689001
0.0028809612
0.0030035566
0.0034701164
0.0052501368
0.0038437486
0.0052419663
0.0035618996
0.0050043055
0.003272002
0.0048359783
0.0031773517
0.0046795432
0.0030993449
0.0046194199
0.0031553637
0.0046270346
0.0030656976
0.0044751106
0.0030260551
0.0044364675
0.0030168778
0.0043830229
0.003049948
0.0044175974
0.003016241
0.0043609002
0.0029986399
0.0043432782
0.0029927211
0.0042736873
0.0029629755
0.0042308589
0.002941425
0.0040818072
0.002849701
0.003703191
0.0027232592
0.0030657687
0.0027454574
0.0032150597
0.0035551758
0.0028801047
0.0027351304
0.0027490736
0.0029048622
0.0028285046
0.0029415128
0.0030994481
0.0031460266
0.0031730813
0.0030944678
0.0030962546
0.0031722028
0.0030365778
0.003155021
0.0031518054
0.0032442636
0.0033476298
0.0031711922
0.0032239181
0.0032867816
0.0031065365
0.0031857754
0.0031373074
0.0034588117
0.0036956424
0.0032117668
0.0030130965
0.0032077239
0.0033685842
0.003498703
0.0034874431
0.003810501
0.0043826701
0.0048308762
0.0049841785
0.0043280478
0.0040738739
0.0042426224
0.0039550707
0.0033248041
0.0034303696
0.0034407169
0.0035436045
0.0030749578
0.0029554902
0.0034656966
0.0033936872
0.0030990912
0.0030390945
0.0031062035
0.00321073
0.0032385432
0.0029677139
0.0034181087
0.0033015255
0.0030671358
0.0030923183
0.0030976587
0.0032028289
0.0030459047
0.0029094578
0.0032454456
0.003132465
0.0030704494
0.0031819468
0.0029351405
0.0030190382
0.0028278941
0.0027858458
0.0030372107
0.0039883731
0.0043355582
0.0031580617
0.0029234075
0.002980791
0.0032561806
0.0032137456
0.0029594576
0.0029765725
0.0031481628
0.0032636389
0.003101432
0.0032307603
0.003338843
0.0032803238
0.0030816254
0.0030297944
0.0031827505
0.0034497017
0.0032979572
0.0034128998
0.0033704005
0.0033124672
0.0030867951
0.0029820421
0.0032396693
0.0035105558
0.0032271687
0.0033123558
0.0034408255
0.0035974533
0.0031778838
0.0032565713
0.0036315369
0.0038646666
0.0037981219
0.0041117489
0.0037494527
0.0033589159
0.0035028566
0.0035934156
0.0032898414
0.0034846644
0.0035320623
0.0034815464
0.0032394647
0.0032151356
0.0034069427
0.0032985179
0.0030359953
0.0030482215
0.0031266803
0.0033202468
0.0034623498
0.0031722874
0.003288942
0.0031813401
0.0030673161
0.0031753646
0.0031006803
0.0031311767
0.0030929681
0.0030119336
0.0031782214
0.0032365354
0.0031094434
0.0032103079
0.0031108093
0.0031989509
0.003060619
0.0029149761
0.0032205564
0.0044616074
0.0045547302
0.0032911158
0.0029452639
0.0030225083
0.0030673882
0.003031683
0.0030547093
0.0031878455
0.0031284351
0.0031288925
0.0030192307
0.0031224733
0.0032376842
0.0032205732
0.0030842789
0.0029921408
0.0031240376
0.0033563676
0.0031695685
0.0034078468
0.0033353345
0.0032241385
0.0030431093
0.0031891369
0.0032615056
0.0033838355
0.0030970979
0.0033133019
0.0032316843
0.0033647013
0.0032976094
0.0032987974
0.0034613404
0.0037127187
0.0033954222
0.0038118059
0.0039631205
0.0034292005
0.003606492
0.0035268312
0.003231317
0.0032180939
0.0032212219
0.0032748352
0.0031641413
0.0030303172
0.0033657244
0.0032742271
0.0031361774
0.0031266023
0.0032606136
0.0031618261
0.0033487534
0.0031331223
0.0032685755
0.0030895772
0.0029085487
0.0030291414
0.003119315
0.0031397186
0.0030985217
0.0029054234
0.003125092
0.0031204801
0.003217185
0.0031450359
0.002985005
0.0031028722
0.0029569122
0.0029546743
0.0032529011
0.0045074692
0.004521637
0.0032812356
0.0029576144
0.0029281885
0.0031513634
0.0031531495
0.0030089126
0.0031189739
0.0031235106
0.0031306296
0.0030148205
0.0031209336
0.0032250736
0.0032115237
0.0030043688
0.002851786
0.0029263291
0.0031212853
0.0030830218
0.0031204107
0.0032247443
0.0033105746
0.003128861
0.0031363686
0.0032063739
0.0032643735
0.0030472424
0.0032817688
0.0033103916
0.0033913553
0.0032730503
0.0033036288
0.0035108574
0.0036485707
0.0032977136
0.0035290289
0.0037613345
0.0033839341
0.003632493
0.0036000858
0.0032745543
0.0032699142
0.0032795618
0.0033315331
0.0032015857
0.0030727904
0.0031560406
0.0032021265
0.0031010956
0.0031651161
0.003275164
0.0032507669
0.003230653
0.0030814018
0.0031497887
0.0031489332
0.0029445458
0.0030299169
0.0030609472
0.0030964235
0.0031195058
0.003000885
0.0030488441
0.0031048992
0.0030985897
0.0031544879
0.0031398117
0.0031405348
0.0029565427
0.0030249434
0.0033047381
0.0045522472
0.0046034212
0.0033300581
0.0029504802
0.0029086017
0.002996409
0.0030126991
0.0031499356
0.0031254815
0.0031560833
0.0033261699
0.0029523612
0.0029666077
0.0029998181
0.0030066758
0.0029813161
0.0029786324
0.0031175491
0.0033294807
0.0031530156
0.0032870243
0.003183528
0.0032326697
0.0030659007
0.003064293
0.0032503162
0.0033090744
0.0031509169
0.0033626686
0.0034622494
0.0034795851
0.0033755666
0.0034228819
0.0038418096
0.004052277
0.0033188811
0.0034698315
0.0037178518
0.0034431338
0.0038833121
0.0037464794
0.0033368041
0.0032195518
0.0032937228
0.003255615
0.0032317289
0.0030788041
0.003382113
0.0031892642
0.0030974247
0.0031521447
0.0031346459
0.0032669347
0.0032275735
0.0032420749
0.0032371039
0.0030847843
0.0030606494
0.0030722062
0.0030230791
0.0031468109
0.0029412929
0.0029569541
0.0031910983
0.0030685748
0.0029833175
0.0029814813
0.0031066653
0.0030786945
0.0029863599
0.0029434397
0.0032995292
0.0045604434
0.004550622
0.0033105745
0.0029578181
0.0030016399
0.0030642632
0.0032244539
0.0030620053
0.0031213171
0.0030857699
0.0032213247
0.0029592804
0.0029456617
0.003135588
0.0030765537
0.0029759574
0.0029993654
0.0030580067
0.0030617456
0.003147993
0.0031608625
0.0033543906
0.0032029947
0.003047252
0.0030901242
0.0031609671
0.0032165288
0.003143223
0.0032569595
0.0032543056
0.0034945868
0.0033296601
0.0034694255
0.0036610773
0.0037417138
0.003312297
0.0034180423
0.00364256
0.0033791767
0.0037732555
0.0037113543
0.0034003037
0.0033791761
0.0033913471
0.003376552
0.0031400386
0.0030506963
0.003193924
0.0032464906
0.0031466987
0.0032333642
0.0032692655
0.003247331
0.003182212
0.0031399463
0.0031660264
0.0031210585
0.0030308738
0.0032482229
0.0031500582
0.0032340373
0.002953836
0.0030031987
0.0031341053
0.0031419068
0.0031297032
0.0030648717
0.003211131
0.0031157773
0.0029492625
0.0029481901
0.0032925935
0.004514814
0.0045233753
0.0033340988
0.0029263422
0.0029815458
0.0031375662
0.003291865
0.0030678447
0.0031382728
0.0031105461
0.0031502837
0.0030533608
0.0030559762
0.003060482
0.0030259915
0.0030308847
0.0029824537
0.0029893413
0.0033366311
0.003147243
0.0031749573
0.0031377787
0.0033821056
0.0030872473
0.0030706224
0.0032789057
0.0032482193
0.0030823186
0.0031743537
0.0033419989
0.0035078847
0.0032759432
0.0033699652
0.0035330551
0.0037427642
0.0032986654
0.0038398283
0.0038182556
0.0032525525
0.003420101
0.0034611836
0.0034354143
0.0034416245
0.0035347994
0.0034825909
0.003145214
0.0030314068
0.0031867151
0.0031829421
0.0030714838
0.0030517118
0.0033618063
0.0033540246
0.0031442077
0.0032597613
0.0033574883
0.0031179528
0.0029168307
0.0029335321
0.0030125953
0.0031152178
0.002952442
0.00291135
0.0030125728
0.0030179996
0.0031153675
0.0030097086
0.00326006
0.0032224364
0.0030228527
0.002915578
0.0033206561
0.0045562436
0.0045423915
0.003307281
0.0029578281
0.0029743761
0.0030223206
0.0031982438
0.0030706816
0.0030374044
0.0031001501
0.0030581935
0.0029822519
0.0029174711
0.0031833291
0.0031585807
0.0030240041
0.0030338117
0.0030530293
0.0031561791
0.0031450157
0.0031775498
0.0032412292
0.0032676831
0.0030877101
0.0031011856
0.0032630941
0.0033119176
0.0030724083
0.0032243322
0.0032981744
0.0034400614
0.0032874078
0.0032150514
0.0033715527
0.0035040639
0.003321503
0.0036217455
0.0037234565
0.0033015712
0.0033417541
0.0034696258
0.0034356243
0.003405752
0.0034207795
0.003457749
0.003162416
0.0031206518
0.0033324641
0.0034485671
0.003132699
0.0031519314
0.0033265458
0.0033459443
0.003112408
0.003147858
0.0032619189
0.0031531081
0.0031367289
0.0030678959
0.0031473352
0.0031999001
0.0029865427
0.0029292176
0.0029914564
0.0030112878
0.0030651073
0.0030654999
0.0031767664
0.0030754377
0.0029756497
0.0029763923
0.0033257026
0.004517063
0.0044495059
0.0033135433
0.0030382564
0.0031100102
0.003041189
0.0030960053
0.0030248869
0.0032492612
0.0032214329
0.0032688893
0.00297089
0.003026705
0.0030864064
0.0032339386
0.0031212346
0.0030950643
0.0030944577
0.0032095332
0.003136389
0.003168689
0.0031552378
0.0032047769
0.003161837
0.0033166581
0.0034477016
0.0033384571
0.0031103798
0.0031557897
0.0031540057
0.0031514496
0.003271099
0.0032652587
0.0033403265
0.0033734696
0.0033391112
0.0036190315
0.0037670093
0.0033174105
0.0034252914
0.003407742
0.0032447465
0.0033449002
0.0033031512
0.0033222145
0.0031159194
0.0030624432
0.0032770238
0.0032421049
0.0032109847
0.0031512646
0.0030830051
0.0032461433
0.0030771244
0.0030948574
0.0032041206
0.0031885514
0.003089608
0.0030239359
0.0031172747
0.0030951125
0.0030048151
0.0029853984
0.0030877633
0.0030925612
0.0031097453
0.0030012511
0.0031228755
0.0030813288
0.0031236449
0.0030968129
0.0033460795
0.0044603837
0.0045017412
0.0033682155
0.0030587468
0.0030819834
0.0031033647
0.0030823506
0.0029825866
0.003131798
0.0032026187
0.0031855256
0.0030195844
0.0031467081
0.0031019837
0.0031369285
0.0031313672
0.0032969444
0.0032671549
0.0032347336
0.0031513535
0.003145693
0.0030613533
0.003090676
0.003090663
0.0031544581
0.0033326252
0.0033787512
0.0032447696
0.0032437614
0.0032800418
0.003322677
0.0032509355
0.0031546273
0.0033534413
0.0036419714
0.0033697933
0.0036332994
0.0038368588
0.0033849592
0.0035210341
0.0034661926
0.0032396479
0.0034050073
0.0033740979
0.0033154441
0.003284907
0.0033293541
0.0033485194
0.003217936
0.0031133336
0.0031454486
0.0031647495
0.0032944556
0.0031827486
0.003322735
0.0030964311
0.0030509852
0.0031710121
0.0030698079
0.0030461424
0.0031466955
0.0031287064
0.0029719836
0.003028552
0.0030411708
0.0029973336
0.0030190012
0.0030441747
0.0030807711
0.0030035918
0.0030515823
0.0033872348
0.0044873182
0.0044508504
0.0033654194
0.0030189799
0.0030086605
0.0030413299
0.0030289992
0.0030984232
0.0029683157
0.0029463659
0.0031182723
0.0029715477
0.0031856818
0.0030488341
0.0032484961
0.0031409332
0.0032478208
0.0032233688
0.003378576
0.0031584757
0.0032367599
0.003114962
0.003130699
0.0029743631
0.0032488811
0.0031877909
0.0033461559
0.0034392087
0.0034564219
0.0034529771
0.0034232405
0.0034066147
0.00349695
0.0036957506
0.0037549646
0.0035417266
0.0037702934
0.0038138898
0.0034491211
0.0036942877
0.0036095425
0.0034532916
0.0034300245
0.0034319613
0.0033656145
0.0034400835
0.0031424341
0.0031749766
0.0031743414
0.0032623742
0.0031115328
0.0031167746
0.003345254
0.0033243511
0.0032245428
0.0032054271
0.0030344351
0.0030739054
0.0030131992
0.0030967386
0.0030267038
0.003105751
0.0029674733
0.0032107759
0.0031921381
0.0029559931
0.0030383527
0.0030600792
0.0031745383
0.0030453132
0.0030891383
0.0033133562
0.0043387525
0.0042603467
0.0032801028
0.0030122359
0.003012416
0.0030707294
0.0030232236
0.0030119618
0.003022684
0.003066683
0.003131064
0.0029809123
0.0030895989
0.0031876465
0.0031830958
0.0031211405
0.0030176539
0.0031582487
0.0033311337
0.00314114
0.0032931307
0.0031954046
0.0030810852
0.0031345554
0.00308043
0.0031166544
0.0032558258
0.0032125175
0.0034967212
0.0035784474
0.0036158023
0.003362229
0.0034252161
0.0037867319
0.0040342851
0.0034428338
0.003509405
0.003829118
0.0035836317
0.003958487
0.0037351396
0.0033981137
0.0033125703
0.0034726965
0.0034752632
0.0033511261
0.0032225012
0.0033395588
0.0032965389
0.0031230148
0.0030731628
0.0030516501
0.0030288466
0.0032352967
0.0031374239
0.0032614406
0.0031586986
0.003004375
0.0030471231
0.0030012131
0.0029625026
0.0030369496
0.00303636
0.0031665155
0.0031449505
0.0030542524
0.0031699075
0.0030925471
0.0031533915
0.0029991747
0.0030137555
0.0032202487
0.004174615
0.0041080712
0.003196985
0.0029950653
0.0030298342
0.003161588
0.0031577085
0.0030298352
0.0030619532
0.0031526693
0.0031979911
0.00303419
0.0030501725
0.0030968933
0.0029588365
0.0030089489
0.003083237
0.0030764674
0.0032722682
0.0030421323
0.0031484296
0.0032328679
0.0033512274
0.0031508283
0.0031908335
0.003446077
0.0033777608
0.0032817195
0.0033866471
0.0033223577
0.0034955202
0.0033036688
0.0035339633
0.0040324283
0.0041268852
0.003666204
0.0037000073
0.0037324793
0.0035818769
0.00397255
0.0037859663
0.0033790198
0.0032671146
0.0034159127
0.0033867053
0.0033387336
0.0032497082
0.0033566231
0.0032877845
0.0030925975
0.0030645507
0.0032591526
0.0031372133
0.003090719
0.003036747
0.0031839402
0.0030836187
0.0030044431
0.0031021645
0.0030334227
0.0030186276
0.0029862142
0.00305511
0.003136278
0.0031714828
0.0031312297
0.0031001979
0.0032390132
0.0032322893
0.0030353961
0.0029924336
0.0031837146
0.0040479098
0.0040025513
0.003198143
0.0030053988
0.0031046314
0.0031967867
0.0032222009
0.0030165835
0.0030077653
0.003041207
0.003140103
0.0030335725
0.0029822529
0.0030634719
0.0030612732
0.0029968577
0.0030213473
0.0031199714
0.0031571773
0.0029734617
0.0030103699
0.0031915113
0.0034695515
0.0031529006
0.003246391
0.0032620052
0.0034458422
0.0031771987
0.0033579947
0.0033642316
0.0034643361
0.0033200173
0.0034982402
0.0039772213
0.0041277047
0.0034149777
0.0035205312
0.0037667436
0.0035183588
0.0038692323
0.0036393334
0.003321358
0.003248715
0.003264552
0.003234418
0.0031881645
0.0031277542
0.0034608804
0.0033934238
0.0030717812
0.0030803261
0.0033466875
0.0031767593
0.0031311547
0.0029182516
0.0030783575
0.0030651523
0.0029675303
0.0031047417
0.0030453921
0.0030615687
0.0030655024
0.0031121329
0.0031946784
0.0031297556
0.0030682208
0.0031035873
0.0032132989
0.0031768049
0.003101518
0.003024022
0.0031538174
0.003943235
0.0039315328
0.0031850489
0.0030009162
0.0031601432
0.0031371896
0.0030806913
0.0030278791
0.0031341129
0.0031343243
0.003169114
0.0032068979
0.0030247001
0.0030692568
0.003102415
0.0030879218
0.0029689371
0.0031458163
0.0033108928
0.0029125478
0.0031380052
0.0030865284
0.0031959475
0.003056981
0.003275387
0.0032025545
0.0031482668
0.0030738225
0.0031464294
0.0033013681
0.0032125998
0.0032088494
0.0031371392
0.0033752998
0.0037260581
0.0031878419
0.0037212763
0.0037451252
0.0031813783
0.0036027507
0.0035353739
0.0031797015
0.003156589
0.003227076
0.0031887383
0.0030402372
0.0030193411
0.0032595171
0.0033123491
0.0032270422
0.0031150888
0.0032788172
0.0031256062
0.0030638918
0.002909596
0.0031815981
0.0030967365
0.00297534
0.0030266671
0.003107218
0.0031005618
0.0029693172
0.0029658967
0.0030419793
0.0031346905
0.003091653
0.0031026808
0.0030939238
0.0031390615
0.0031211928
0.0030645138
0.0031926981
0.0039100432
0.0038787783
0.00313541
0.0030006483
0.0030450486
0.0031627082
0.0031730001
0.0030932888
0.0029795713
0.0030628268
0.0033045549
0.003055627
0.0030965085
0.0031685934
0.003265887
0.0031106931
0.0030944234
0.0031904734
0.0032695166
0.0030923529
0.0030742802
0.0031041752
0.0031765491
0.003111898
0.0032205256
0.003227895
0.003243182
0.0030769693
0.0031360724
0.0032750556
0.0033550621
0.0031964445
0.0032185953
0.0034675752
0.0035697205
0.0032986301
0.0035355214
0.0036350246
0.003198521
0.003484392
0.0034146306
0.0031814287
0.0032357496
0.0031567568
0.0031969604
0.0030596425
0.0031953136
0.0032757722
0.003243521
0.0031286767
0.0030177035
0.003295604
0.0031413723
0.0029110498
0.0029451969
0.0030692251
0.0030521225
0.003002923
0.0030751199
0.0030793779
0.0029454715
0.0030103572
0.0029707131
0.0031772317
0.0031430354
0.0030199874
0.0031575608
0.0030917278
0.0030968469
0.0031063256
0.0030876758
0.0031201807
0.0038613349
0.0038859552
0.0031682301
0.0030636196
0.0030975891
0.0031312141
0.0032259604
0.0031418942
0.0031181811
0.0031160944
0.0032308041
0.0030724814
0.0029542297
0.0030192357
0.0030938738
0.0029839073
0.0028740783
0.0030842793
0.0030919757
0.0030334121
0.0029564992
0.0029975311
0.0032028032
0.0030728338
0.0031512784
0.003377421
0.0034331678
0.0030969265
0.0032010657
0.0034255161
0.003420166
0.0032213971
0.0034733605
0.0035449314
0.0036026353
0.0034627587
0.0037285268
0.0037017598
0.0034200078
0.0036158264
0.003324242
0.0034157848
0.0033203548
0.0034429419
0.0032968493
0.0031693915
0.003083724
0.0033536706
0.0034077036
0.0031513087
0.0030537751
0.0032551456
0.0031482873
0.0029363438
0.0029818662
0.0030918625
0.003135221
0.0028904741
0.0029869642
0.003001689
0.0029991254
0.0029473219
0.0030651345
0.0031600935
0.0030823039
0.0030252477
0.0030387913
0.0032037876
0.0032571026
0.003076767
0.0030912748
0.0031619001
0.0038629183
0.0035794339
0.0031047028
0.0030225211
0.0030018931
0.0031576084
0.0032598951
0.0030283982
0.002977879
0.003076522
0.0031903064
0.0029350323
0.0029250329
0.0030903458
0.0030648336
0.0028759607
0.0028840001
0.0030750679
0.0029944204
0.0028911003
0.0030210402
0.0031731684
0.0031495359
0.0031804328
0.0033061768
0.0034571686
0.0034807511
0.0030736699
0.002980707
0.0033369724
0.0034058389
0.0030858552
0.0032332012
0.0035145386
0.0036645008
0.0033571064
0.0035575264
0.0038286837
0.0035034855
0.003489767
0.0033663519
0.0032732042
0.0032868295
0.0033849017
0.0033357796
0.0030565462
0.0030954386
0.0032790201
0.0031277949
0.0031163909
0.0030922112
0.0031818072
0.0031416084
0.0029466463
0.0030016775
0.002982051
0.0030766879
0.0029459866
0.0031028035
0.0030943311
0.0031630993
0.0030478247
0.0030110141
0.0031013547
0.0031136838
0.0030079722
0.0030966129
0.003178004
0.0032022633
0.0030438278
0.0029978312
0.0030541709
0.0032741787
0.0031778454
0.003038072
0.0029856743
0.0030455226
0.003063527
0.0030643064
0.0030422501
0.0029337306
0.0029808365
0.0030742538
0.0029464174
0.002959073
0.0030931924
0.0031100191
0.0030468557
0.003039778
0.0030828506
0.0032130505
0.0029864049
0.0029331379
0.0030290292
0.0031634221
0.0031592972
0.0031591826
0.0031797994
0.0034021212
0.003242624
0.0032694498
0.0033813644
0.0035032048
0.0032814813
0.0032499078
0.0035703998
0.0036691733
0.0038149549
0.0040523463
0.0037815809
0.003503923
0.003640981
0.0034574372
0.0031578654
0.003099625
0.0034057425
0.003313466
0.0032366181
0.0030061758
0.0034395664
0.0032246553
0.003096413
0.0030680897
0.0031438595
0.0032253071
0.0029375907
0.0028970433
0.0030863682
0.0030784027
0.0029805286
0.002888487
0.0031306017
0.0030472103
0.0030080545
0.0029189194
0.0030561365
0.0030674571
0.0029426068
0.0030019078
0.0032054161
0.0032423113
0.0031145924
0.0030236603
0.0030428809
0.0031430902
0.0031433322
0.0030929448
0.0030575393
0.0032157552
0.0031579662
0.0031799049
0.0031196598
0.003018003
0.0030444935
0.0030387538
0.0029579965
0.0030948257
0.0030642273
0.0032479222
0.0030416476
0.0030402245
0.0031169562
0.0031924484
0.0029977406
0.0030283234
0.003336204
0.0031918887
0.0031312333
0.0031519855
0.0033122381
0.003525509
0.0031570256
0.0030741894
0.0033131308
0.0034593155
0.0033555785
0.0033594435
0.003524269
0.0036183442
0.0032170802
0.0034751503
0.0033471387
0.0032275705
0.0034752158
0.0034615003
0.003361227
0.0033251687
0.0032901222
0.0031133059
0.0030206248
0.0030160797
0.0032720339
0.003269096
0.003158581
0.0032010375
0.0031650887
0.0032415395
0.0029698656
0.0029300786
0.003128862
0.0031476759
0.0029726156
0.0029556934
0.0030924739
0.0030021246
0.0030158966
0.0030597318
0.0030932034
0.0029995371
0.0030411286
0.0030810661
0.0031582264
0.0031825372
0.0031791865
0.0030680662
0.0030977452
0.0031517655
0.0031660369
0.0031301066
0.0030573402
0.0031535295
0.0031774249
0.0031421619
0.0030725417
0.0030072083
0.0030499934
0.0031526489
0.0029204622
0.0029290029
0.0028826147
0.0030307912
0.0029871763
0.0029385777
0.0031176684
0.0033316836
0.0029212944
0.0029742119
0.0031663238
0.0032278768
0.0032286175
0.0034372902
0.0034566277
0.0034288427
0.003096345
0.0031280502
0.0030584964
0.0034383038
0.0034481114
0.0034563218
0.0035804393
0.0036833889
0.0031597948
0.0034029091
0.0034231802
0.0033351279
0.0036389524
0.0033542034
0.0032366847
0.00314942
0.0034593599
0.0033301882
0.0030672683
0.0030102721
0.003125549
0.0031700344
0.0032519026
0.0031104445
0.0032304709
0.0033090771
0.0030073345
0.0029653312
0.00315213
0.003100017
0.0029659519
0.0029857112
0.0031013842
0.0029948424
0.0029224708
0.0030002357
0.0031858638
0.0031302036
0.0030502465
0.0030506948
0.0031064553
0.0031231179
0.0031533708
0.0031689456
0.0031419901
0.0031532749
0.0031777614
0.003158945
0.0031224324
0.0031114253
0.003221151
0.0031404256
0.0030326131
0.0029674352
0.0029508951
0.0031379877
0.0029535592
0.0028792031
0.0028793072
0.003003746
0.0028722905
0.0028551987
0.0029393337
0.0030993025
0.0029874198
0.0031793341
0.0032573356
0.0034243272
0.0032265838
0.003301598
0.0033822954
0.0034110967
0.0030989662
0.0031268485
0.0032819469
0.0035035769
0.0032380809
0.0032932975
0.0035815007
0.0037078832
0.0032367163
0.003321551
0.0033856793
0.0032447413
0.0036760433
0.003436196
0.0032242522
0.0031557223
0.0032521664
0.0030909602
0.0030341768
0.0030653932
0.0031337485
0.0030993652
0.0032451421
0.003198221
0.0033132771
0.0031204468
0.0031261323
0.0030158814
0.0031744444
0.0030901612
0.0028702696
0.0029718
0.0031163915
0.0030579355
0.0029648554
0.0030238154
0.0032426136
0.0030500018
0.002991581
0.0030207478
0.0031154514
0.0032282508
0.0031589843
0.0031603751
0.0031260635
0.0031541836
0.0031520509
0.0031301653
0.0030635966
0.0032390374
0.0031909852
0.0031736398
0.0030309665
0.0028938679
0.0029427846
0.0030997191
0.002988762
0.0029653122
0.0030600078
0.0031563156
0.0030090256
0.0030549751
0.0030080205
0.0032184109
0.0029043759
0.0030226943
0.003088617
0.0031352737
0.0031279006
0.0031633852
0.0030798722
0.0032687813
0.003064115
0.0030630336
0.0031096374
0.0032499709
0.0031376039
0.0033416478
0.003293271
0.0034671332
0.0030430058
0.003407613
0.0032555517
0.0030452487
0.0032449042
0.0032793906
0.0032767676
0.0031299064
0.0033365519
0.0031334332
0.0030140145
0.002930241
0.0032924154
0.0031606266
0.0031088752
0.002999777
0.0032079387
0.0032041339
0.0030744187
0.0029548776
0.0032662393
0.0031235732
0.0031050804
0.00302124
0.0031264682
0.0031411405
0.0030131358
0.0028579695
0.0030892503
0.0030486455
0.0029199775
0.0030242817
0.0032255476
0.0031765429
0.0032536429
0.0031126085
0.0031316765
0.0031506426
0.0031549517
0.0031028537
0.0031418133
0.0033862319
0.0033694999
0.0033148586
0.0030840452
0.0030693628
0.0030413555
0.0031740625
0.0030220579
0.0031622172
0.0032362909
0.0031065342
0.00301547
0.003025444
0.0031029021
0.0031845734
0.0030530189
0.0031124634
0.0032287261
0.0032574532
0.0031056141
0.0031482736
0.0032031786
0.0033747021
0.0030057689
0.0029874774
0.0032173414
0.0034413388
0.0031596659
0.0032267767
0.0033144022
0.0031769332
0.0030113664
0.0030720222
0.0031266237
0.0030670633
0.0032320071
0.0033363959
0.0032354242
0.003158134
0.0034536429
0.0033217818
0.0029884363
0.0029768695
0.0032653957
0.0031622657
0.0030507023
0.0030737582
0.0030930912
0.0031874532
0.003075811
0.0029777372
0.0031450635
0.0030230966
0.0030735853
0.003108848
0.0030366158
0.0031161848
0.0031466638
0.0030089637
0.0030724509
0.0031084838
0.0031615637
0.0031974733
0.0032700782
0.0032304519
0.0032572296
0.0031516378
0.0031467403
0.0031540788
0.0031715018
0.0031726057
0.0031827086
0.0032996083
0.0032834475
0.0033876828
0.0030801003
0.0031824987
0.003072193
0.0031886862
0.0031317042
0.0030250824
0.0029821389
0.0030733238
0.0030477354
0.0030240321
0.0031135175
0.0031352823
0.0030661926
0.0030399312
0.0030483743
0.0032296503
0.0030951036
0.0031556182
0.0032407813
0.0033045722
0.0029774116
0.0031491849
0.0032285459
0.0034037269
0.0031761046
0.0032245949
0.003291191
0.0032812164
0.0029963019
0.0031661155
0.0033059742
0.0031531759
0.0031803675
0.0032203296
0.0031493708
0.003130559
0.0032467626
0.0031849095
0.0031647408
0.0031074306
0.0032404808
0.0031719178
0.0031391198
0.0030540168
0.0032207507
0.0030401387
0.0029661258
0.0029566999
0.0030686309
0.002987437
0.0029834485
0.0029946727
0.0031132176
0.0031962699
0.0030628379
0.003098796
0.0031850822
0.0030235736
0.0031995574
0.0030926458
0.0032867036
0.0033819181
0.0032873559
0.0031929255
0.0031704926
0.003165918
0.0031860648
0.0031828022
0.003211837
0.0033225291
0.0033475347
0.003326948
0.0030861762
0.003065592
0.0031407227
0.0031845486
0.0030407701
0.0030299204
0.0029894327
0.003058744
0.0030517024
0.0030366983
0.0029845549
0.0031002885
0.003070432
0.0030932623
0.0031140802
0.0033091985
0.003128988
0.003086445
0.0031701772
0.0033256275
0.0031107657
0.003122036
0.0032152203
0.0033350448
0.0032025128
0.0032311925
0.0033826121
0.0032573314
0.0029579923
0.0031249339
0.0033549571
0.0031232761
0.0031142862
0.003178494
0.0032829562
0.0032505338
0.0033309216
0.0031928973
0.0032146206
0.0031804994
0.0031886368
0.003129718
0.0030096038
0.0030198258
0.0033190401
0.0032649081
0.0030025846
0.003049067
0.0030703351
0.0030155023
0.0030051681
0.0029735088
0.003082873
0.0030857447
0.0030660724
0.0030321669
0.0031560878
0.0031257806
0.0030441058
0.0030914062
0.0032988771
0.00341361
0.0034135746
0.0032927673
0.0031924953
0.0031718732
0.0032024423
0.0032415047
0.0032833281
0.0033439562
0.0032786619
0.0033093293
0.00321434
0.0031126561
0.0031326905
0.003160029
0.0029881548
0.003137013
0.0030729178
0.0030331254
0.0030421556
0.0029694344
0.0030364128
0.0032968932
0.0030291671
0.0030009983
0.0030743214
0.003195707
0.0031180415
0.0031458712
0.0030976029
0.0031246003
0.0030399474
0.0032118582
0.0031155353
0.0033031486
0.0031441741
0.0032103289
0.0033762023
0.0034528487
0.0030692884
0.0032035623
0.0033689772
0.0032864431
0.0034805788
0.0033512527
0.0033010614
0.0031014547
0.0032639938
0.00330106
0.0030522873
0.0028646399
0.0031043872
0.003218966
0.0031513501
0.003050972
0.0030650322
0.0031957083
0.0030880432
0.0030018087
0.00332317
0.0031790614
0.002958729
0.0028864173
0.0030109286
0.0029970976
0.0030922411
0.0029882733
0.0031499631
0.0031604725
0.0030771586
0.0030724063
0.003270404
0.0034036248
0.0034022957
0.0033879136
0.0033218836
0.0032379436
0.0032612894