/*--------------------------------*- C++ -*----------------------------------*\
| =========                 |                                                 |
| \\      /  F ield         | OpenFOAM: The Open Source CFD Toolbox           |
|  \\    /   O peration     | Version:  v2012                                 |
|   \\  /    A nd           | Website:  www.openfoam.com                      |
|    \\/     M anipulation  |                                                 |
\*---------------------------------------------------------------------------*/
FoamFile
{
    version     2.0;
    format      ascii;
    class       volScalarField;
    location    "200";
    object      p;
}
// * * * * * * * * * * * * * * * * * * * * * * * * * * * * * * * * * * * * * //

dimensions      [0 2 -2 0 0 0 0];


internalField   nonuniform List<scalar> 
231880
(
0.067910972
0.064794179
0.061847822
0.059058257
0.05642286
0.053930019
0.051563139
0.049315587
0.047180888
0.045154292
0.043229524
0.041400674
0.039658962
0.037995335
0.036408295
0.034893097
0.033444449
0.032058705
0.03073811
0.029473543
0.028258592
0.027094558
0.02597603
0.024902424
0.023873284
0.022886157
0.021943163
0.02104052
0.020168611
0.019324679
0.018505378
0.017712149
0.016947111
0.016209325
0.015496986
0.014807964
0.014140404
0.013494042
0.012868031
0.012262224
0.01167455
0.011105459
0.010553796
0.01001356
0.00948532
0.0089742105
0.0084800656
0.0080006473
0.0075263375
0.0070608257
0.0066053948
0.006157621
0.0057178091
0.0052862813
0.0048594239
0.0044363547
0.0040171719
0.0036025763
0.0031906542
0.0027879475
0.0023885434
0.0020440653
0.0016710622
0.0013715837
0.00099214139
0.0010576334
0.0014008876
0.00017703073
0.0015654416
0.0019941575
0.0020388073
0.0018274254
0.0017919055
0.0017450028
0.0017504522
0.0016871802
0.0016808743
0.0017037947
0.0016735434
0.0016527719
0.0016491263
0.0016217952
0.001635665
0.0016151174
0.0015602796
0.0015149496
0.0015818545
0.0014726778
0.0015928765
0.0015177144
0.0015698433
0.001587147
0.0015899322
0.0015743152
0.0015471149
0.0015399511
0.0014955597
0.0014698894
0.0014146393
0.0014280419
0.0013551475
0.001183876
0.00083658767
0.00065614722
0.00055731782
0.00046002319
0.00039858309
0.00041613713
0.00041601041
0.00042823357
0.00048732848
0.00048034092
0.00049800944
0.00053727232
0.00058536679
0.00061370554
0.00063849263
0.0006302391
0.00065422234
0.00067543999
0.00070857152
0.00072506578
0.00075588747
0.00076701326
0.0006266444
0.00051249499
0.00035746081
0.00018306087
-0.00025531267
-0.00071041458
-0.00063416529
-0.00031381712
0.00027804506
0.00071288361
0.00045271666
0.00012887365
-2.852405e-05
-6.0264881e-05
-9.7137782e-05
-9.8891713e-05
-9.9158432e-05
-0.00010066051
-0.000104762
-0.00010721138
-0.00010836856
-0.00010955113
-0.00011416441
-0.00011450431
-0.0001192432
-0.00012082841
-0.00012706115
-0.00013329111
-0.00013906955
-0.00014733838
-0.00015266416
-0.00015147392
-0.00015280682
-0.00014639044
-0.00014679505
-0.00014474163
-0.00014355817
-0.0001393179
-0.00014110455
-0.00013959091
-0.00014118376
-0.00014112952
-0.00014305511
-0.00014317035
-0.00014480857
-0.00014509982
-0.00014607709
-0.00014670465
-0.00014703232
-0.00014796178
-0.00014948861
-0.00014790445
-0.00015081465
-0.00014900095
-0.00015162661
-0.00015154232
-0.00015283248
-0.00015231689
-0.00015278568
-0.0001528298
-0.0001527045
-0.0001533437
-0.00015363114
-0.00015511072
-0.00015729088
-0.00016011743
-0.00016429977
-0.00016655747
-0.00016615562
-0.00016917486
-0.00016468414
-0.00016111186
-0.00015864945
-0.000152353
-0.00014847587
-0.00014321264
-0.00013867548
-0.00013751684
-0.0001359905
-0.00013421398
-0.00013341336
-0.00012976804
-0.00013157757
-0.00012741978
-0.00012678789
-0.00012191949
-0.00012019182
-0.00011371291
-0.00011361934
-0.00010697388
-0.0001057786
-0.00010075326
-9.7246428e-05
-9.3830304e-05
-8.8786967e-05
-8.5571292e-05
-7.9755387e-05
-7.6583496e-05
-7.0295955e-05
-6.7694855e-05
-6.1771478e-05
-5.8089011e-05
-5.1916362e-05
-4.7393543e-05
-4.1344708e-05
-3.6684209e-05
-3.0425303e-05
-2.5584102e-05
-1.856027e-05
-1.4120036e-05
-6.5105141e-06
-1.373394e-06
5.8206349e-06
1.0465068e-05
1.642733e-05
2.1423635e-05
2.7756747e-05
3.2812299e-05
4.0203739e-05
4.4957316e-05
5.2321147e-05
5.631164e-05
6.4193516e-05
6.7946366e-05
7.4987853e-05
7.8384393e-05
8.46278e-05
8.9892273e-05
9.4593641e-05
0.00010065084
0.00010149064
0.00010726963
0.00011104218
0.00011614594
0.00011915021
0.00012499485
0.00012763824
0.00013244504
0.00013625684
0.00013916204
0.0001438682
0.00014556171
0.00014992046
0.00015147012
0.00015570749
0.00015706061
0.00016099262
0.0001623711
0.00016483336
0.00016670264
0.00016933697
0.00017178205
0.00017418376
0.00017353314
0.00017465885
0.000167724
0.00016831565
0.00016697442
0.00015187259
0.00016486743
0.0001574987
0.00015793855
0.00015320708
0.00015667157
0.00016096441
0.00016623891
0.00016638498
0.00016886024
0.0001652615
0.00016737189
0.00016216517
0.00016522253
0.0001589824
0.00016460307
0.00015738198
0.00016457316
0.00015543903
0.00016672307
0.00015313159
0.00016557568
0.00014902431
0.00016207695
0.00014103796
0.00015343477
0.00012644485
0.0001402342
0.00011395807
0.00014175288
0.00013591078
0.00017871701
0.0002339336
0.0001514671
-8.1776609e-05
-0.00014069942
-0.00037379841
0.00095597495
0.00034141255
0.00016237943
0.00016690483
0.00022408574
0.00015942268
0.00012967744
0.00013068432
0.00011047194
0.00013006772
0.00012214958
0.00014643015
0.00013818224
0.00015663895
0.00014615684
0.00015913285
0.00014834539
0.00016489997
0.00015381627
0.00016108129
0.00015517323
0.00016142998
0.00015536538
0.00016275045
0.00015992711
0.00016250036
0.00015992129
0.00016195349
0.00015912309
0.00015786633
0.00014990926
0.00015004129
0.00015079201
0.00016535359
0.00016385358
0.00016859631
0.00016821183
0.00016260258
0.00016158865
0.00014506083
0.00014537019
0.00014266466
0.00015153898
0.0001526438
0.00015825469
0.00015946498
0.00016032236
0.00015814864
0.00015999582
0.00015369057
0.00015878393
0.00015549953
0.00016243812
0.00015574605
0.00016619347
0.00015024677
0.00016604129
0.00014854292
0.00015818381
0.00014026221
0.0001495624
0.00012800143
0.00013956181
0.00011017113
0.00013767079
0.00013393869
0.00016966333
0.00024631601
0.00016517697
0.00024581342
0.00067464896
0.0015322312
0.0016460752
0.00075658636
0.00026378191
0.00015803605
0.00023305868
0.00016275117
0.00012583096
0.00013016874
0.00011482542
0.00013864396
0.00013317913
0.00016022459
0.00015154352
0.00017437013
0.0001625281
0.00017446298
0.00016085009
0.00017321208
0.00016371065
0.00017075947
0.00016331674
0.00016686563
0.00016275067
0.00016746841
0.00016354474
0.00016706333
0.00016336472
0.00016326381
0.00015988078
0.0001606031
0.0001499415
0.00014480904
0.00014631807
0.00016028624
0.00016282722
0.00016937404
0.00017062643
0.00016330985
0.00016426398
0.00014377332
0.0001453106
0.00014737526
0.00015933596
0.00015922546
0.00016552704
0.00016654696
0.0001684692
0.00016586207
0.00016706442
0.00016568054
0.0001695256
0.00016748581
0.00017216993
0.00016668517
0.00017812944
0.00016388886
0.0001765516
0.00016252267
0.00017570501
0.00015658999
0.0001667663
0.00014208468
0.00015283693
0.000123629
0.00014383182
0.00013754662
0.00015911776
0.0002050078
0.00014454015
0.00017455415
0.00067106093
0.0015017239
0.0014335162
0.00063083742
0.00012377879
6.8996512e-05
0.00021633211
0.00016311697
0.00014074168
0.00013308177
0.00013160121
0.00015398581
0.00014399945
0.00017010765
0.00015944413
0.00017840906
0.00016518872
0.0001781145
0.00016684432
0.00017818004
0.0001656989
0.00017351682
0.00016883833
0.00017334393
0.00017303891
0.00017111917
0.00017027448
0.00017254253
0.00016871054
0.00016880681
0.00016455054
0.00016177791
0.00015373434
0.00014934674
0.00015196524
0.00016286135
0.00016903055
0.0001742871
0.00017316685
0.00016735593
0.00016776773
0.00014984052
0.00014904993
0.00014895268
0.00015766134
0.00016002206
0.00016512565
0.00016544094
0.00016590071
0.00016433372
0.00016435978
0.00016343407
0.00016720548
0.00016357534
0.00016861259
0.00015934343
0.00017028104
0.00015931712
0.00016985788
0.00015557036
0.00016652023
0.00014788806
0.00015911954
0.0001317877
0.00014158497
0.00011634138
0.00013475949
0.00013434428
0.0001471333
0.00019450902
0.00010207978
0.00011176151
0.00059810727
0.001377959
0.0013618264
0.00059510218
9.9296315e-05
9.4900389e-05
0.00014740938
0.00016282678
0.00012899227
0.00013182324
0.00011725139
0.00014020075
0.00013034839
0.00015578712
0.00014344982
0.00016474232
0.00015197006
0.00016683518
0.00015495388
0.00016421992
0.0001536757
0.00016326368
0.0001568341
0.00016286395
0.00015789853
0.00016196312
0.00016120867
0.00016010624
0.00016021792
0.00016111858
0.00015906832
0.00015528498
0.00014927526
0.00014697513
0.00014938549
0.00016408614
0.00016574855
0.00017120159
0.00016827899
0.00016243538
0.00016263213
0.000144344
0.00014410794
0.00014440197
0.0001522069
0.00015322226
0.00015746298
0.00015738504
0.00015874807
0.00015705176
0.00015646294
0.00015384236
0.00015979599
0.00015264869
0.00016096182
0.00014795065
0.00015787029
0.00014668162
0.00015890785
0.00014139054
0.00015341928
0.00013480822
0.00014584887
0.00011664659
0.00012600797
0.00010171579
0.00011766718
0.00011186677
0.00015243003
0.00014383698
9.4600673e-05
8.3287614e-05
0.000569691
0.0013143805
0.0013091594
0.00055390249
7.6707246e-05
9.6590226e-05
0.00013400878
0.00015331047
0.00012293429
0.00012722233
0.00011020206
0.00013443905
0.00012379263
0.00015055575
0.00013523313
0.00015687446
0.0001431114
0.00015866247
0.00014548264
0.00015639307
0.00014541691
0.00015551424
0.00014815094
0.00015476612
0.00015054192
0.00015414501
0.00015255312
0.00015517289
0.00015478609
0.00015384393
0.00015068909
0.00015119256
0.00014373436
0.00014063263
0.00014265832
0.00015522675
0.00015969927
0.00016502223
0.00016302876
0.00015676869
0.00015705784
0.00013997043
0.00013999278
0.00014223291
0.0001484246
0.00015068347
0.00015272972
0.00015258509
0.00015297358
0.00014919588
0.00015067451
0.00014866507
0.00015256363
0.00014522581
0.00015166031
0.00014141145
0.0001519251
0.0001394397
0.00015326003
0.00013546788
0.00015132085
0.00012664174
0.00014077601
0.00011011501
0.00012226838
9.5235892e-05
0.00011572842
0.00010229805
0.000146115
0.00012619067
9.1423283e-05
7.5136169e-05
0.00054404034
0.0012965591
0.0012978475
0.00055305239
7.5016536e-05
8.312011e-05
0.00012068375
0.00015547859
0.00011373157
0.00012307169
0.00010465141
0.00013260266
0.00011903236
0.00014853915
0.00013321439
0.00015446744
0.00013879664
0.0001552057
0.0001395125
0.00015231103
0.00013996594
0.00015076418
0.00014331941
0.00015131609
0.00014672097
0.00015091489
0.00014778595
0.00015135018
0.00015003998
0.00015008414
0.0001468592
0.00015320074
0.00013716659
0.00013757599
0.00013844687
0.00015286527
0.00015431542
0.00016067892
0.00015892165
0.00015245087
0.00015430703
0.00013719301
0.00013625792
0.00013795741
0.00014511181
0.00014701888
0.00014815514
0.00014830141
0.00015028153
0.00014634976
0.0001485442
0.00014430638
0.00014909098
0.00014037225
0.00014730603
0.0001362255
0.00014841317
0.00013447332
0.00014970163
0.00013197021
0.00014911003
0.00012394605
0.00013960046
0.00010521789
0.00012158322
8.9830738e-05
0.00011198163
0.00010364376
0.00013965223
0.0001011901
7.508162e-05
7.9938622e-05
0.00054873184
0.0012781649
0.0012850503
0.00056036085
8.1521225e-05
3.6743506e-05
0.0001027709
0.00013022024
0.00010872563
0.00011880414
0.00010131901
0.00012968291
0.00011434005
0.00014834127
0.00012870507
0.00015421211
0.00013350277
0.00015211869
0.00013541857
0.00014880898
0.00013511511
0.00014740492
0.00013833019
0.00014958507
0.00014273567
0.00015048019
0.00014753816
0.00014892271
0.00014582703
0.00014665593
0.00014265435
0.00014158176
0.00013519954
0.00013205415
0.00013318799
0.00014316463
0.00014920619
0.0001536021
0.00015219473
0.00014726253
0.0001396217
0.00013046266
0.00013064763
0.00013322558
0.00013925521
0.00014065938
0.0001452882
0.00014441846
0.00014569254
0.00014308199
0.00014622302
0.00013814744
0.00014701026
0.00013587596
0.00014408049
0.00013121657
0.00014483039
0.00012956535
0.00014627941
0.0001262774
0.00014826719
0.00012179918
0.0001386607
0.00010452377
0.00012291017
9.1055482e-05
0.00011551645
9.3409475e-05
0.00011721645
8.9427031e-05
1.7165807e-05
5.488804e-05
0.0005337929
0.00125841
0.0012700858
0.00054698055
5.49068e-05
5.91502e-05
8.7568643e-05
0.00012176104
9.901431e-05
0.0001189946
9.717753e-05
0.00012919067
0.00011116547
0.00014743556
0.00012409764
0.0001508101
0.0001266558
0.000147017
0.00012875757
0.00014395787
0.00013004132
0.00014282352
0.00013311265
0.00014458694
0.00013632779
0.00014312817
0.00013964053
0.00014339439
0.00014113098
0.00014293571
0.00013868379
0.00013357106
0.0001289781
0.00012687711
0.00012850164
0.00013551422
0.00014366612
0.00014906631
0.00014675433
0.00014188505
0.00013308604
0.00012545484
0.00012601958
0.00012634401
0.00013251926
0.00013548781
0.00014058245
0.00013955581
0.00014067763
0.00013639846
0.00013906987
0.00013202879
0.00014159183
0.00013007127
0.00013936927
0.00012550657
0.00014030628
0.00012276305
0.00014165721
0.00011936453
0.00014506963
0.00011704851
0.00013699316
0.00010516353
0.00012410541
8.7754579e-05
0.0001088351
8.77905e-05
0.00011432636
6.9163958e-05
5.4217495e-05
5.5964692e-05
0.00053942224
0.0012617318
0.0012394507
0.00055377484
6.7239924e-05
6.4746795e-05
7.171391e-05
0.00011731545
9.4188901e-05
0.00011410544
9.2082734e-05
0.00013293746
0.00010626846
0.00014266769
0.00011615279
0.00014413095
0.000118529
0.00014160262
0.00012108169
0.0001386759
0.00012319042
0.00013712116
0.0001266241
0.00013713403
0.00012970863
0.00013706784
0.00013364618
0.00013814335
0.00013514444
0.00013631484
0.00013139576
0.00012749551
0.00012282593
0.00012195364
0.00011863629
0.00012685493
0.00013762007
0.00014331467
0.00014102469
0.00013655609
0.00012964028
0.00011949528
0.00012167116
0.00012162804
0.00012801191
0.00012962755
0.00013444435
0.00013386163
0.00013462224
0.00013002333
0.00013399034
0.00012675373
0.00013425359
0.00012237968
0.00013329368
0.00011855496
0.0001345205
0.0001146226
0.00013685021
0.00011161896
0.00014092286
0.0001087234
0.00013548206
9.9806976e-05
0.00012547941
8.645225e-05
0.00011192152
8.7565877e-05
0.0001138316
6.2887273e-05
4.9638508e-05
5.4243708e-05
0.00055109961
0.0012055506
0.0011969534
0.00056219339
4.1168592e-05
3.7124183e-05
5.6134484e-05
0.0001157917
8.8189383e-05
0.00011489858
8.7127084e-05
0.00013185059
0.00010011656
0.00013870432
0.00010743958
0.00013846059
0.00010881345
0.00013548882
0.00011196329
0.00013273592
0.0001151576
0.00013115763
0.00011873962
0.00013113013
0.00012366252
0.00013083466
0.00012598
0.00013118753
0.00012860021
0.00013009809
0.00012483985
0.00012326969
0.00011864766
0.00011718154
0.00011682018
0.00012499044
0.00013238949
0.00013747864
0.00013365177
0.00012963494
0.00012240628
0.00011356775
0.00011591797
0.00011616614
0.00012136085
0.00012284244
0.00012868975
0.00012666551
0.00012813167
0.00012277164
0.00012766945
0.00011873653
0.00012797653
0.00011519511
0.00012768831
0.00011029117
0.00012854531
0.00010592533
0.00013275651
0.00010398304
0.00013651687
0.00010149312
0.00013318915
9.4223778e-05
0.00012698817
8.4715601e-05
0.0001147239
8.4571799e-05
0.00011110969
5.1335382e-05
2.984765e-05
3.5771068e-05
0.00056611288
0.0011775789
0.0012012547
0.00057133549
4.6037097e-05
3.7769689e-05
5.3085423e-05
0.00010693436
7.9105266e-05
0.00011489728
8.2556774e-05
0.00013048555
9.3195748e-05
0.00013526597
9.9659684e-05
0.00013360806
0.00010012814
0.00012904325
0.00010199372
0.00012659169
0.00010647372
0.00012547896
0.00011211358
0.00012537013
0.00011507082
0.0001250926
0.00012042792
0.00012532384
0.00012140781
0.00012383717
0.00011847219
0.00011776411
0.00011205217
0.00011208115
0.00011428575
0.00012110779
0.00012657254
0.00013382874
0.00012663457
0.00011863808
0.00011305832
0.00010946044
0.00011096658
0.00010958408
0.00011598445
0.00011379926
0.00011927891
0.000118644
0.00012221933
0.00011538849
0.00012126243
0.00011117871
0.00012142224
0.0001075096
0.00012234481
0.00010153761
0.00012370625
9.7745905e-05
0.0001262292
9.4163352e-05
0.00013154885
9.3344071e-05
0.00013145459
8.726871e-05
0.0001245397
8.1845284e-05
0.00011939965
7.5004536e-05
0.00010789442
5.6947156e-05
3.976642e-05
5.4434288e-05
0.00055223352
0.0011922854
0.0012028581
0.00054676916
5.7061832e-05
5.0193515e-05
4.782381e-05
0.00010913669
7.2319402e-05
0.0001134877
7.6868276e-05
0.00012608136
8.5492055e-05
0.00013163028
9.1356486e-05
0.0001284067
8.9770197e-05
0.00012415411
9.2926201e-05
0.00012049923
9.7452604e-05
0.00011859723
0.00010235637
0.00011808465
0.0001064057
0.0001174924
0.00011069826
0.00011872082
0.0001139714
0.00011453407
0.00010902772
0.00011012075
0.00010437439
0.00010407008
0.00010395111
0.00010683608
0.00011641836
0.0001233819
0.00011877624
0.00011227396
0.00010362204
0.00010083907
0.00010048925
0.00010040448
0.00010746675
0.00010839296
0.00011270147
0.00011003844
0.0001150442
0.00010612963
0.00011421562
0.00010340129
0.0001148317
9.7809997e-05
0.000115572
9.2029134e-05
0.00011711871
8.7567481e-05
0.00012127673
8.4609008e-05
0.00012512443
8.3413362e-05
0.00012950019
8.0115658e-05
0.00012499996
7.635965e-05
0.00011707351
7.3115345e-05
0.00010787563
4.7203462e-05
4.6263332e-05
5.9868486e-05
0.00053411857
0.0012000905
0.0011890369
0.00052499208
5.8905631e-05
4.6324796e-05
4.091181e-05
0.0001066538
6.6420943e-05
0.00011491354
7.0203201e-05
0.00012581416
7.6066972e-05
0.00012888458
7.8739494e-05
0.00012342951
7.9656285e-05
0.00011826143
8.2162799e-05
0.00011440246
8.7322497e-05
0.0001119113
9.2677086e-05
0.00011139938
9.8207015e-05
0.00011052385
0.00010090823
0.00011099937
0.00010472956
0.00010934496
0.00010331805
0.00010322935
9.7453283e-05
9.6174085e-05
9.5494593e-05
9.8839541e-05
0.00010801576
0.00011439064
0.00011135795
0.00010710919
9.6619347e-05
9.3111478e-05
9.4183754e-05
9.4077724e-05
0.00010073264
9.9485955e-05
0.00010516271
0.00010066631
0.00010758807
9.7609741e-05
0.00010730838
9.3474667e-05
0.00010784443
8.817907e-05
0.00010915842
8.1782421e-05
0.00011163899
7.7239199e-05
0.00011499882
7.3656253e-05
0.00012010048
7.0959258e-05
0.00012513323
7.0808114e-05
0.00012423306
6.7970581e-05
0.00011427966
6.5614631e-05
0.00010464906
3.7039052e-05
3.9319412e-05
5.8102934e-05
0.0005153434
0.0011742735
0.0011580891
0.00050050221
5.1028249e-05
3.1914443e-05
2.5200933e-05
0.00010252134
6.3669034e-05
0.00011567113
6.0823953e-05
0.00012023206
6.1225393e-05
0.0001209038
6.5604752e-05
0.00011900748
6.7976032e-05
0.00011174859
7.1143039e-05
0.00010817093
7.6686405e-05
0.00010545944
8.286889e-05
0.00010322746
8.8449889e-05
0.00010347533
9.3539061e-05
0.00010406439
9.6139492e-05
0.0001008108
9.5337198e-05
9.7396556e-05
8.9558802e-05
8.9087479e-05
8.8997562e-05
9.3695845e-05
0.00010192594
0.00010690673
0.00010137869
9.4337084e-05
8.9488117e-05
8.5721619e-05
8.6853829e-05
8.4587495e-05
9.2462394e-05
9.1116147e-05
9.7774414e-05
9.1650574e-05
9.8482706e-05
8.6482051e-05
9.8398332e-05
8.3420431e-05
0.00010042035
7.7957437e-05
0.00010189618
7.0878659e-05
0.00010561108
6.5374438e-05
0.00010900932
6.147153e-05
0.00011556613
5.8587863e-05
0.00011884425
5.2647287e-05
0.00012020859
5.6945102e-05
0.00011456125
5.9899833e-05
0.00010076872
2.2666592e-05
2.8222274e-05
5.1228013e-05
0.00049166059
0.0011467086
0.0011239937
0.00047177872
4.0706119e-05
1.9285879e-05
9.5253491e-06
9.650178e-05
4.9512364e-05
0.00011560261
4.6904218e-05
0.00011817804
5.0920469e-05
0.00011765565
5.3816814e-05
0.00011337934
5.6391131e-05
0.0001060852
6.0915556e-05
0.00010201665
6.5650805e-05
9.8816128e-05
7.2607987e-05
9.7738633e-05
7.8169611e-05
9.4174165e-05
8.4280713e-05
9.6407559e-05
8.7175245e-05
9.4685964e-05
8.778937e-05
8.6257887e-05
7.9424662e-05
8.3061818e-05
8.5537361e-05
9.3314209e-05
9.8996028e-05
0.00010362827
9.7681837e-05
9.098906e-05
9.1464954e-05
7.6274068e-05
7.9622773e-05
7.6899207e-05
8.36709e-05
8.1869944e-05
8.9837835e-05
8.2974632e-05
9.1651487e-05
7.8421778e-05
9.0749783e-05
7.2453837e-05
9.3311006e-05
6.6657478e-05
9.5183105e-05
5.9889066e-05
9.8172731e-05
5.3781821e-05
0.00010433981
5.0008136e-05
0.00011044289
4.8505593e-05
0.00011541732
4.6144185e-05
0.00011320036
4.2621003e-05
0.00011086328
4.660179e-05
8.9837794e-05
5.6989829e-07
1.2618793e-05
3.5008177e-05
0.00046560139
0.0010896962
0.0010570516
0.00045778043
2.4552667e-05
2.5339529e-06
1.0449533e-06
8.4469946e-05
4.0096074e-05
0.00010628155
3.7858404e-05
0.00011072929
3.6912454e-05
0.00011339035
4.0492811e-05
0.0001080692
4.3964892e-05
0.00010030166
4.838474e-05
9.5643499e-05
5.3936258e-05
9.2061178e-05
6.1080366e-05
8.8867669e-05
6.6182936e-05
8.7223857e-05
7.3057424e-05
8.50199e-05
7.5349659e-05
8.4457866e-05
7.604593e-05
7.8874101e-05
7.2244376e-05
7.4287617e-05
7.3899549e-05
8.7957332e-05
8.6135482e-05
9.1239078e-05
8.7035946e-05
8.1520554e-05
8.3683551e-05
6.7251024e-05
7.113357e-05
6.930666e-05
7.6624321e-05
7.2185169e-05
8.1142456e-05
7.1928021e-05
8.2899617e-05
6.8283366e-05
8.3146162e-05
6.2001693e-05
8.5529194e-05
5.4851319e-05
8.7737274e-05
4.7951714e-05
9.1761373e-05
4.1861522e-05
9.7058325e-05
3.7100139e-05
0.00010389635
3.1353049e-05
0.0001098357
2.9778918e-05
0.00010767331
2.6346986e-05
9.8592285e-05
4.1022285e-05
8.0549935e-05
-1.2424286e-05
-7.8318711e-06
1.7216993e-05
0.00044252856
0.0010211121
0.00097922265
0.00044920561
1.7495775e-05
-1.0409263e-05
-2.3706554e-05
7.5037965e-05
3.4746561e-05
9.8823749e-05
2.9104682e-05
0.0001074026
2.3465841e-05
0.00010801999
2.5327048e-05
0.0001014189
2.958426e-05
9.3463051e-05
3.4711844e-05
8.8274103e-05
4.1617518e-05
8.391827e-05
4.930773e-05
8.2205057e-05
5.6862389e-05
7.9203946e-05
6.2807446e-05
7.8169829e-05
6.6875962e-05
7.5114405e-05
6.6316572e-05
7.0631587e-05
6.2994953e-05
6.3302563e-05
6.3621539e-05
7.7971493e-05
7.240415e-05
8.0267342e-05
7.6669347e-05
7.1844387e-05
7.6030725e-05
6.0773382e-05
5.9570086e-05
5.9178419e-05
6.6296124e-05
6.1667759e-05
7.1562844e-05
6.1921297e-05
7.44287e-05
5.7813452e-05
7.5480662e-05
5.1077e-05
7.8364295e-05
4.3642748e-05
8.0768617e-05
3.5864337e-05
8.4731679e-05
2.7488233e-05
9.0448497e-05
2.0346619e-05
9.7519567e-05
1.9019404e-05
0.00010465576
1.4687034e-05
0.0001039608
1.9124146e-05
9.0671534e-05
3.1257112e-05
6.8812545e-05
-2.2221112e-05
-1.3285982e-05
1.05636e-05
0.00041590018
0.00090653674
0.00069835461
0.00032081845
-1.0716263e-05
-1.3320174e-05
-2.309791e-05
5.4809314e-05
2.4900427e-05
8.7570331e-05
1.6777134e-05
0.00010106463
1.0454922e-05
0.00010177686
1.1445406e-05
9.4861956e-05
1.3297611e-05
8.7063236e-05
2.1232667e-05
8.1730314e-05
2.9507096e-05
7.7260585e-05
3.7947033e-05
7.3184097e-05
4.5004301e-05
7.1159397e-05
5.183679e-05
6.9468345e-05
5.6562742e-05
6.5548883e-05
5.6747134e-05
6.0729743e-05
5.3273538e-05
5.3774564e-05
5.3932736e-05
7.0386637e-05
6.5018066e-05
6.9678522e-05
6.5668649e-05
6.2132233e-05
6.7233509e-05
5.3173395e-05
5.0767478e-05
4.8139878e-05
5.6627408e-05
5.0945219e-05
6.2367484e-05
5.1228219e-05
6.555815e-05
4.719705e-05
6.6469969e-05
4.0554092e-05
6.9728997e-05
3.1910213e-05
7.3852116e-05
2.3674954e-05
7.7178485e-05
1.4249767e-05
8.323681e-05
5.7412972e-06
9.075193e-05
4.7249663e-06
9.7581057e-05
2.2874569e-06
9.6474434e-05
7.5194994e-06
7.9673206e-05
2.199671e-05
4.6241619e-05
-3.145012e-05
-2.5857268e-05
-1.6261138e-05
0.00022829817
0.00050577278
0.00045422898
0.00016606705
-4.9128852e-05
-1.6253045e-05
-3.8955856e-05
3.9683018e-05
1.3571712e-05
7.7655911e-05
3.1671375e-06
9.3442578e-05
-3.7001603e-06
9.4591313e-05
-5.0800153e-06
8.6325797e-05
-1.3890534e-06
7.9867752e-05
8.341025e-06
7.4304533e-05
1.7656344e-05
6.8823892e-05
2.624053e-05
6.6783399e-05
3.370528e-05
6.2591689e-05
4.1086793e-05
6.0144239e-05
4.5241856e-05
5.7471863e-05
4.6029734e-05
5.2407495e-05
4.37132e-05
4.7744623e-05
4.662452e-05
6.1396192e-05
5.6265271e-05
5.9920996e-05
5.4125391e-05
5.1225194e-05
5.6299822e-05
4.0653043e-05
4.3306308e-05
3.9875982e-05
4.8111231e-05
4.2137348e-05
5.2228224e-05
4.0282175e-05
5.5018608e-05
3.5620784e-05
5.9394771e-05
2.8068793e-05
6.0098281e-05
2.0380696e-05
6.5554487e-05
1.1488677e-05
6.9816918e-05
1.8424198e-06
7.6014315e-05
-7.1544097e-06
8.2654457e-05
-1.2054979e-05
8.8363713e-05
-1.3496573e-05
8.6336364e-05
-6.4578742e-06
6.6244493e-05
9.1371057e-06
2.4874741e-05
-5.4504453e-05
-1.9493486e-05
-8.193737e-05
0.00011688575
0.0004716866
0.00046081276
0.00010013542
-9.4890115e-05
-2.2653082e-05
-6.441459e-05
2.0340094e-05
4.2039003e-06
6.0401836e-05
-7.7531038e-06
8.2464854e-05
-1.8303472e-05
8.5783676e-05
-1.8363142e-05
7.831763e-05
-1.2616996e-05
7.326176e-05
-3.4528731e-06
6.691873e-05
5.7140123e-06
6.0110324e-05
1.4001342e-05
5.5842627e-05
2.2744426e-05
5.4944038e-05
2.935701e-05
5.0227335e-05
3.4164215e-05
4.7523396e-05
3.5750648e-05
4.2370982e-05
3.3268063e-05
3.5923482e-05
3.3162268e-05
4.9195839e-05
4.4669077e-05
4.8118812e-05
4.1746589e-05
3.9481971e-05
4.3944573e-05
3.1095764e-05
3.1115862e-05
2.6114498e-05
3.6743403e-05
3.1342265e-05
4.29437e-05
2.9620725e-05
4.651083e-05
2.4429196e-05
5.1322455e-05
1.7266745e-05
5.2421477e-05
8.769954e-06
5.5331949e-05
-1.046373e-06
6.201267e-05
-9.8636474e-06
6.7555226e-05
-1.9750423e-05
7.5768035e-05
-2.2163618e-05
7.9410418e-05
-2.5977035e-05
7.7608324e-05
-1.6086726e-05
5.4339627e-05
-1.8626082e-06
9.4371758e-06
-7.2728536e-05
-2.2910728e-05
-0.00010665067
9.4875632e-05
0.00042159109
0.00041030765
0.00010241289
-0.00010961166
-2.670934e-05
-8.502059e-05
8.8890553e-06
8.1365613e-08
5.067275e-05
-1.7354982e-05
7.4537381e-05
-2.960225e-05
7.8678455e-05
-2.7735715e-05
7.1886008e-05
-2.2653348e-05
6.4035997e-05
-1.5942738e-05
5.5682664e-05
-6.9229044e-06
5.0235864e-05
2.6397443e-06
4.4710185e-05
1.0965535e-05
4.349587e-05
1.9084633e-05
4.0752991e-05
2.3747121e-05
3.6612563e-05
2.3535498e-05
3.0373578e-05
2.2037445e-05
2.3031909e-05
2.385617e-05
3.3732983e-05
3.3060101e-05
3.6134927e-05
2.9625437e-05
2.6995506e-05
2.7901341e-05
1.689308e-05
2.0938778e-05
1.6996412e-05
2.6481653e-05
1.963166e-05
3.1281345e-05
1.9329119e-05
3.5730793e-05
1.2832291e-05
3.8268533e-05
5.5725853e-06
4.210147e-05
-3.0507255e-06
4.6876653e-05
-1.1905006e-05
5.1522843e-05
-2.176479e-05
5.8922667e-05
-2.8880052e-05
6.6297202e-05
-3.2792765e-05
7.2934092e-05
-3.5120036e-05
7.0611291e-05
-2.5832498e-05
4.6549383e-05
-6.8869181e-06
5.5227262e-06
-9.1257842e-05
-2.3851325e-05
-0.0001102323
0.0001093776
0.00039281524
0.00040643007
0.00011799948
-9.9181954e-05
-2.4236241e-05
-9.6157994e-05
8.2443439e-06
-1.081578e-05
4.2669102e-05
-2.6021077e-05
6.5213452e-05
-3.8055975e-05
7.055706e-05
-3.8524766e-05
6.4223138e-05
-3.3591555e-05
5.4166752e-05
-2.7073516e-05
4.5672569e-05
-1.7283864e-05
3.9989324e-05
-8.3683953e-06
3.3555218e-05
4.061963e-07
3.1644983e-05
6.4095416e-06
2.9289686e-05
1.2863128e-05
2.5499629e-05
1.4251037e-05
1.8176453e-05
1.142006e-05
1.5039612e-05
1.3017066e-05
2.2174987e-05
2.2439959e-05
2.4886613e-05
1.7772749e-05
1.5846682e-05
1.8131823e-05
9.5026927e-06
1.1800559e-05
4.7220552e-06
1.702794e-05
1.0734388e-05
2.3334978e-05
8.0825179e-06
2.5270082e-05
2.8177382e-06
2.6362959e-05
-5.1204791e-06
3.1545061e-05
-1.352399e-05
3.6307002e-05
-2.2106926e-05
4.3647657e-05
-3.146913e-05
4.8878204e-05
-3.9033189e-05
5.4722058e-05
-4.4019088e-05
6.5202587e-05
-4.3902934e-05
5.9186231e-05
-3.2961785e-05
4.119357e-05
-1.5600779e-05
5.9248097e-06
-0.00010000302
-2.6871008e-05
-9.4756907e-05
0.00012052996
0.00039907668
0.00039456845
0.00011556954
-8.5896784e-05
-2.6133281e-05
-9.6810656e-05
1.2597486e-05
-2.4578302e-05
3.8069404e-05
-3.2838859e-05
5.5070992e-05
-4.7154759e-05
6.1334928e-05
-4.816162e-05
5.2020462e-05
-4.4408737e-05
4.0942538e-05
-3.6931849e-05
3.5739057e-05
-2.809619e-05
2.7168096e-05
-1.8090856e-05
2.5154405e-05
-1.0984943e-05
2.208178e-05
-4.1855861e-06
1.8639333e-05
1.7573535e-06
1.5764859e-05
1.1348899e-06
8.9857625e-06
1.3448201e-07
1.0211469e-05
3.1906706e-06
1.099444e-05
1.0524112e-05
1.3466891e-05
8.1163471e-06
8.2484237e-06
6.4949384e-06
2.7814905e-07
5.8921969e-06
-1.0703146e-06
7.3935449e-06
-1.1592141e-06
1.119064e-05
-1.2921545e-06
1.344615e-05
-9.5294763e-06
1.5476911e-05
-1.4781539e-05
2.0169335e-05
-2.2362685e-05
2.6283011e-05
-3.23392e-05
2.8952777e-05
-4.2195907e-05
3.7940794e-05
-4.8018233e-05
4.5048514e-05
-5.3064767e-05
4.8302876e-05
-5.0250764e-05
5.459663e-05
-4.3613514e-05
3.520815e-05
-2.7966596e-05
3.4331498e-06
-9.7083091e-05
-2.9241621e-05
-8.3278306e-05
0.00011566492
0.00038765315
0.00038720208
0.00013018267
-9.4708146e-05
-3.1437644e-05
-9.3452022e-05
1.1867736e-05
-2.7138811e-05
3.2084385e-05
-4.593913e-05
4.3717578e-05
-5.272882e-05
4.6260321e-05
-5.4539337e-05
3.7606579e-05
-5.3034485e-05
2.7826285e-05
-4.6147282e-05
2.5340609e-05
-3.7008467e-05
1.7168391e-05
-2.9150979e-05
1.2981081e-05
-2.1554188e-05
1.0426417e-05
-1.5362251e-05
7.7599761e-06
-9.3272743e-06
5.3082658e-06
-9.7467885e-06
-8.4001538e-07
-9.7528257e-06
-4.5010655e-06
-6.1140056e-06
2.0928534e-07
3.9967823e-06
3.0733388e-06
-2.2821315e-06
-2.3660621e-06
-5.1820825e-06
-9.6780427e-06
-7.8432894e-06
-1.300612e-05
-5.0232247e-06
-1.4343755e-05
-2.4119786e-06
-1.3047972e-05
1.6446041e-06
-1.9832015e-05
2.7422344e-06
-2.6544027e-05
7.0949128e-06
-3.2689705e-05
1.2412351e-05
-4.1511189e-05
1.7544187e-05
-4.9779137e-05
2.4223343e-05
-5.6469749e-05
3.2623961e-05
-5.6713359e-05
3.463726e-05
-5.7081186e-05
4.4699132e-05
-4.8696497e-05
2.8994028e-05
-2.9984398e-05
3.9925092e-07
-9.7442428e-05
-3.3636144e-05
-0.00010259196
0.00012731038
0.00038977464
0.000405253
0.00014608291
-9.4240538e-05
-3.4374983e-05
-9.0448241e-05
6.7706212e-06
-2.5334957e-05
2.6682533e-05
-5.2636696e-05
3.3439839e-05
-5.9023755e-05
3.2890357e-05
-5.9626385e-05
2.2144532e-05
-5.999506e-05
1.4053318e-05
-5.6657607e-05
1.011093e-05
-4.8381797e-05
4.5322577e-06
-4.1238172e-05
-2.1932902e-06
-3.2527877e-05
-4.0852513e-06
-2.5847629e-05
-3.6635346e-06
-2.1326262e-05
-7.806156e-06
-1.9023497e-05
-1.2568887e-05
-2.0347915e-05
-1.3966401e-05
-1.8420839e-05
-1.3792322e-05
-1.148375e-05
-1.0134909e-05
-1.3800476e-05
-1.5388228e-05
-1.6060436e-05
-2.3400044e-05
-1.9588881e-05
-2.3764052e-05
-1.3754901e-05