/*--------------------------------*- C++ -*----------------------------------*\
| =========                 |                                                 |
| \\      /  F ield         | OpenFOAM: The Open Source CFD Toolbox           |
|  \\    /   O peration     | Version:  v2012                                 |
|   \\  /    A nd           | Website:  www.openfoam.com                      |
|    \\/     M anipulation  |                                                 |
\*---------------------------------------------------------------------------*/
FoamFile
{
    version     2.0;
    format      ascii;
    class       volScalarField;
    location    "100";
    object      k;
}
// * * * * * * * * * * * * * * * * * * * * * * * * * * * * * * * * * * * * * //

dimensions      [0 2 -2 0 0 0 0];


internalField   nonuniform List<scalar> 
33368
(
0.37080785
0.37079713
0.37309565
0.37307156
0.37310065
0.37307586
0.37313026
0.37310635
0.37313606
0.37312397
0.37312858
0.37312478
0.37312478
0.37312858
0.37312396
0.37313605
0.37310635
0.37313026
0.37307587
0.37310066
0.37307157
0.37309564
0.37306768
0.37311627
0.37309195
0.37312007
0.37310947
0.37311432
0.37311042
0.37310976
0.37310906
0.37310917
0.37310931
0.37310945
0.37310956
0.37310962
0.37310967
0.3731097
0.37310972
0.37310975
0.37310977
0.37310978
0.37310979
0.3731098
0.37310981
0.37310981
0.3731098
0.3731098
0.37310978
0.37310974
0.37310966
0.37310953
0.37310942
0.37310933
0.37311005
0.37311073
0.37311464
0.3731098
0.37312041
0.3730923
0.37311662
0.37306804
0.37309599
0.37307193
0.37310125
0.37307704
0.37313224
0.37310955
0.37314056
0.37313
0.37313605
0.37313355
0.3731345
0.37313871
0.37313392
0.37314506
0.37311398
0.37313596
0.37307995
0.37310329
0.37307345
0.37309765
0.37306996
0.37311875
0.37309482
0.37312326
0.37311302
0.37311815
0.37311447
0.37311394
0.3731133
0.37311347
0.37311398
0.37311536
0.3731179
0.37312137
0.37312513
0.37312839
0.37312907
0.37312894
0.37312875
0.37312856
0.37312838
0.3731282
0.37312802
0.37312779
0.37312675
0.37312315
0.37311904
0.37311526
0.37311244
0.3731108
0.3731101
0.37310979
0.37311037
0.37311093
0.37311472
0.37310977
0.37312028
0.37309209
0.37311635
0.37306772
0.37077545
0.37081755
0.37080189
0.37083088
0.37082521
0.37083021
0.37082668
0.37082536
0.37082433
0.37082445
0.37082527
0.37082717
0.37083031
0.37083438
0.37083866
0.37084218
0.37084355
0.37084409
0.37084452
0.37084497
0.37084541
0.37084586
0.37084636
0.37084674
0.37084627
0.37084364
0.37084025
0.37083703
0.37083471
0.37083358
0.37083345
0.37083393
0.37083544
0.3708371
0.37084084
0.37083593
0.37084156
0.37081253
0.37082808
0.37078598
0.3708075
0.370782
0.36841531
0.36588897
0.36335468
0.36084776
0.35852996
0.35654795
0.35515327
0.35470621
0.35537634
0.35719714
0.36091509
0.36563466
0.37227968
0.38412163
0.40657905
0.44697012
0.52140554
0.66391758
0.7966058
0.77801864
0.75532486
0.70922626
0.69536268
0.68335615
0.64605687
0.62955694
0.61755778
0.60596714
0.58663126
0.5736082
0.56383991
0.55530167
0.54808977
0.53812558
0.52939292
0.52359342
0.51849695
0.51285863
0.50685828
0.5013392
0.49467589
0.48646223
0.47954819
0.47538436
0.47108296
0.46502896
0.45764207
0.45246263
0.44700258
0.44136109
0.4353782
0.4292963
0.42288479
0.41632956
0.409562
0.40263683
0.39559012
0.38837194
0.38109028
0.37363069
0.36613567
0.35843486
0.35035847
0.34192211
0.33255119
0.32676916
0.32096687
0.31540417
0.30937384
0.30321093
0.2958995
0.28869722
0.28203719
0.27544035
0.2679355
0.26238434
0.25824183
0.25360002
0.2474777
0.23955895
0.23071497
0.22604988
0.22132545
0.21637914
0.21100035
0.20548108
0.19996163
0.19431579
0.18867725
0.18316041
0.17760137
0.17211869
0.16678386
0.16145339
0.15619136
0.15109408
0.14599772
0.14092911
0.13592419
0.13093811
0.12599767
0.12118779
0.11706275
0.1130497
0.11427857
0.13256019
0.13302481
0.31847447
0.32036907
0.32231789
0.32432702
0.32639776
0.3285283
0.3307153
0.33295493
0.33524351
0.33757789
0.33995559
0.3423748
0.34483443
0.34733415
0.34987449
0.35245677
0.35508186
0.3577475
0.36044171
0.36314127
0.3657974
0.36836723
0.36834354
0.3683686
0.3683625
0.36838533
0.36838476
0.36838828
0.3683854
0.36838345
0.36838209
0.36838198
0.36838287
0.36838507
0.36838866
0.36839323
0.3683979
0.36840165
0.36840344
0.36840435
0.36840512
0.3684059
0.36840675
0.36840766
0.36840859
0.3684094
0.36840934
0.36840733
0.36840442
0.36840168
0.36839991
0.36839954
0.36840045
0.36840234
0.36840542
0.36840904
0.36841352
0.36841155
0.36841362
0.36839225
0.36839973
0.36837585
0.36840016
0.365881
0.36332778
0.36082578
0.35849638
0.35649409
0.35506332
0.35458448
0.35530223
0.35755138
0.36268214
0.3679469
0.36705105
0.3656565
0.36415998
0.36726958
0.36973468
0.37347621
0.37613856
0.37770211
0.37963599
0.38554273
0.40939951
0.45823198
0.54732551
0.71208705
0.76427384
0.83722197
0.78923778
0.79963779
0.72970624
0.70505438
0.69455023
0.65566686
0.63863593
0.6254541
0.61531339
0.59384613
0.58005975
0.56933624
0.55946722
0.55078116
0.54436932
0.53855415
0.53280903
0.53290578
0.54736803
0.55499435
0.56582163
0.57775973
0.58986594
0.59983709
0.6232414
0.63413621
0.64721068
0.65473958
0.69570028
0.70099049
0.69689706
0.75883546
0.70543314
0.74253307
0.82237054
0.69249016
0.62769901
0.54143684
0.46824163
0.45536977
0.48396571
0.51768254
0.59977547
0.68584041
0.8718408
0.74379611
0.88954642
0.80197241
0.79843042
0.80130388
0.72796505
0.73546416
0.72122436
0.71405413
0.66199114
0.66661329
0.65134711
0.63854122
0.62946743
0.6007932
0.60205714
0.58786525
0.57587989
0.56467386
0.55474119
0.54114828
0.53287797
0.5234828
0.51573194
0.51238055
0.50709562
0.50330078
0.500158
0.50618669
0.51499329
0.52367469
0.51502354
0.505308
0.49789089
0.49164168
0.48614078
0.49042745
0.49601736
0.5025194
0.51374363
0.52141838
0.53047564
0.54114528
0.5573798
0.5652028
0.57622007
0.58872644
0.60294939
0.61559711
0.64311165
0.656384
0.67216774
0.6833453
0.73445266
0.74819001
0.74392292
0.83096936
0.79141581
0.77985741
0.78809692
0.69445614
0.59905209
0.64837145
0.56172948
0.48575086
0.42293123
0.39211847
0.39830609
0.43707403
0.42990628
0.45824144
0.4804858
0.48899867
0.48826831
0.50071265
0.44755552
0.43457667
0.40162158
0.38047415
0.3721523
0.36848102
0.36569167
0.36130876
0.35715394
0.35508801
0.35445019
0.35499875
0.35646569
0.35848795
0.36082783
0.36333517
0.36589115
0.36841037
0.37081676
0.37080424
0.3708589
0.37084854
0.37088209
0.37087614
0.37088067
0.37087618
0.37087396
0.37087436
0.37086664
0.37087067
0.37083658
0.37084747
0.37079389
0.37080762
0.37077376
0.36838875
0.36581975
0.36319683
0.36051268
0.35785847
0.35524628
0.35269819
0.35021784
0.3478074
0.3454678
0.34319965
0.34100217
0.33887239
0.33680462
0.33479046
0.33281915
0.33087871
0.32895653
0.32704112
0.32512338
0.32319683
0.32125812
0.31930647
0.31734305
0.31537003
0.31338981
0.31140391
0.30941228
0.30741207
0.30539775
0.30336101
0.30128972
0.29916857
0.29697644
0.2971212
0.29933954
0.30147941
0.3035636
0.30560809
0.30762524
0.30962456
0.31161228
0.31359152
0.31556265
0.31752478
0.3194758
0.3214138
0.32333782
0.32524901
0.32715112
0.32905094
0.33095778
0.33288352
0.33484117
0.33684309
0.33890035
0.34102154
0.3432123
0.34547549
0.34781169
0.35022008
0.35269911
0.35524601
0.35785456
0.36050908
0.36318235
0.36582275
0.36838293
0.36837104
0.36581202
0.36316856
0.36049809
0.35784662
0.3552425
0.35270007
0.35022595
0.3478236
0.34549546
0.34324311
0.34106656
0.33896338
0.33692809
0.33495188
0.33302312
0.33112889
0.32925541
0.32738999
0.32552277
0.32364648
0.32175692
0.3198526
0.31793418
0.31600337
0.31406198
0.31211054
0.31014847
0.30817238
0.30617622
0.30415027
0.3020821
0.29995587
0.2977505
0.29879407
0.30098885
0.3030978
0.30514467
0.307143
0.30910622
0.31104446
0.31296432
0.31486946
0.31676059
0.31863783
0.32050011
0.32234636
0.32417661
0.32599297
0.32780031
0.32960674
0.33142326
0.33326387
0.3351436
0.33707658
0.33907525
0.34114869
0.34330214
0.34553732
0.34785322
0.35024718
0.35271577
0.35525496
0.35785808
0.36051126
0.3631868
0.36583932
0.36841041
0.36841236
0.36584792
0.3631989
0.36052579
0.35787527
0.35527591
0.3527424
0.35028239
0.34790133
0.34560433
0.34339589
0.34127871
0.33925228
0.33731185
0.33544785
0.33364637
0.33189116
0.33016503
0.32845184
0.32673873
0.32501619
0.32327824
0.32152189
0.31974635
0.31795182
0.31613852
0.31430584
0.31245365
0.31057797
0.30867187
0.30672474
0.30472302
0.3026531
0.30049047
0.30283935
0.30498667
0.30702896
0.30898821
0.3108799
0.31271933
0.31451799
0.31628387
0.31802194
0.3197306
0.32141109
0.32306424
0.32469105
0.32629377
0.32787692
0.32944836
0.33101986
0.33260733
0.33423053
0.33591042
0.33766692
0.33951652
0.34146989
0.34353118
0.34569883
0.34796739
0.3503295
0.35277743
0.35530365
0.3578991
0.36054827
0.36322215
0.36587374
0.36844204
0.36844522
0.36588098
0.36323237
0.36056189
0.35791764
0.35532979
0.35281547
0.35038614
0.34805265
0.34582691
0.34372107
0.34174525
0.33990453
0.33819583
0.33660644
0.33511473
0.33369386
0.33231597
0.33095529
0.32959102
0.32820789
0.32679519
0.32534615
0.3238569
0.32232546
0.32075075
0.31913302
0.31747312
0.31576606
0.31400387
0.31217427
0.31026313
0.30825654
0.30612935
0.31040976
0.312562
0.31457181
0.31646431
0.31825267
0.31994915
0.32156714
0.32311631
0.32460204
0.32602213
0.32737418
0.328659
0.32987901
0.33103921
0.33214876
0.3332218
0.33427867
0.33534701
0.3364622
0.33766451
0.33899404
0.34048312
0.34214928
0.34399411
0.34600645
0.34816818
0.35045943
0.35286172
0.35535915
0.35793671
0.36057494
0.36324225
0.36588951
0.36845325
0.36845561
0.36589444
0.36325049
0.36058846
0.35795913
0.35539647
0.35292358
0.35056098
0.34833247
0.34626723
0.34439841
0.34275819
0.34136781
0.3402259
0.33930195
0.33853963
0.33787303
0.33724112
0.33659663
0.33590634
0.3351464
0.33430064
0.33335724
0.33230904
0.3311539
0.32989386
0.32853732
0.32708507
0.32553248
0.32387181
0.32209343
0.32018432
0.31813354
0.31591674
0.32237484
0.32477253
0.32697875
0.32901157
0.33088002
0.3325957
0.33416282
0.33558607
0.33686658
0.33800504
0.33898161
0.33978667
0.34041906
0.34088826
0.34121297
0.34141989
0.34154044
0.34160898
0.34167681
0.3418233
0.34214669
0.34274815
0.34369697
0.34501088
0.34665536
0.34857295
0.35070716
0.35301107
0.3554482
0.35798955
0.36060641
0.3632612
0.36590092
0.36845952
0.3684646
0.36590869
0.36327448
0.3606297
0.35803057
0.35552004
0.35313532
0.35091894
0.34892802
0.34723975
0.34595253
0.34515609
0.34487007
0.34501757
0.34547748
0.34609919
0.34675167
0.34735551
0.34788216
0.34829886
0.3485377
0.34851627
0.34820034
0.34758638
0.34669457
0.3455589
0.34421876
0.34267383
0.34093281
0.33899826
0.3368735
0.33455223
0.33203476
0.32931226
0.33511207
0.33842546
0.34154071
0.34445046
0.34714569
0.34961328
0.35184718
0.35383438
0.35554878
0.3569489
0.35801564
0.35864801
0.35876374
0.35831562
0.35733638
0.35604455
0.35462497
0.35316023
0.35165061
0.3501329
0.34882869
0.34787927
0.34733589
0.34738977
0.34812323
0.34945102
0.35122316
0.3533091
0.3556168
0.35808265
0.36065618
0.36328631
0.36591198
0.36846289
0.36846447
0.36591537
0.36329821
0.36068632
0.35814735
0.35574406
0.35354703
0.35165381
0.35021562
0.3494297
0.34947463
0.35022979
0.35164735
0.35375322
0.35648447
0.35964537
0.36236991
0.36500826
0.36748088
0.36958655
0.37102121
0.37146226
0.37095776
0.36969333
0.36786914
0.36559008
0.36290889
0.35990103
0.35661583
0.35308065
0.34932373
0.34540982
0.33921601
0.34463148
0.35091504
0.35675323
0.36231513
0.36758272
0.37252012
0.37702893
0.38096257
0.38415402
0.38636705
0.38724689
0.38648352
0.38415865
0.38078588
0.37661443
0.37238066
0.36579199
0.36059148
0.35664471
0.35392097
0.35208551
0.35125062
0.35129696
0.35224622
0.35385993
0.35590296
0.35822078
0.36071228
0.36329737
0.36589872
0.36843781
0.36843756
0.36589817
0.36330748
0.36074888
0.3583109
0.35609597
0.35424908
0.35300614
0.35269498
0.35341542
0.35540581
0.35883804
0.36428427
0.37151612
0.38059024
0.39034083
0.39458039
0.39499781
0.39361703
0.39627384
0.39628574
0.39859994
0.39823093
0.3995316
0.39829991
0.39839254
0.39622223
0.39511482
0.39205819
0.39010113
0.38676068
0.38430466
0.38099734
0.37811219
0.37487688
0.37153848
0.36836178
0.36461678
0.36151849
0.35741645
0.35440192
0.3499643
0.3469538
0.34213443
0.33917606
0.33416525
0.32916733
0.31664458
0.29197102
0.18214365
0.1813322
0.14365872
0.13695944
0.13953041
0.14400854
0.14892563
0.15387607
0.15870121
0.16344949
0.16804358
0.17267259
0.17725237
0.18201827
0.18677514
0.19171434
0.19671131
0.2019136
0.20711015
0.21253786
0.21792165
0.22338324
0.22861795
0.2336568
0.23780612
0.24087868
0.23687513
0.24595831
0.26810175
0.27725968
0.28794003
0.28340342
0.28555005
0.28438744
0.29273852
0.30000363
0.30684825
0.31433934
0.32296209
0.33352995
0.34204493
0.34260177
0.34713484
0.34558731
0.35737783
0.36823009
0.37696758
0.38480865
0.3919597
0.39884783
0.40538776
0.41180264
0.41802072
0.42408558
0.43002197
0.43571544
0.44131656
0.44658208
0.45186363
0.45676996
0.46205361
0.46621063
0.46868041
0.47357433
0.47484105
0.469789
0.45536306
0.43921152
0.42434044
0.40659714
0.39220186
0.37985425
0.37040598
0.36513296
0.35916809
0.35570834
0.35415757
0.35383093
0.35466478
0.35629642
0.35840231
0.36078274
0.36330843
0.3658769
0.36839871
0.36840984
0.36844348
0.36846482
0.36848571
0.36848895
0.36848703
0.36848174
0.36847797
0.36847607
0.36847188
0.36846404
0.36844024
0.36841726
0.36838291
0.36837161
0.36837341
0.36834958
0.36837435
0.36836785
0.36839022
0.36838909
0.36839201
0.36838848
0.36838586
0.36838376
0.36838275
0.36838223
0.36838196
0.36838178
0.36838163
0.36838145
0.36838128
0.36838112
0.36838096
0.36838079
0.36838061
0.36838046
0.36838029
0.36838012
0.36837996
0.36837979
0.36837961
0.36837943
0.36837925
0.36837908
0.36837899
0.36837916
0.36837983
0.36838159
0.36838389
0.36838711
0.3683839
0.36838477
0.36836217
0.36836847
0.36834356
0.36836734
0.36838271
0.37077183
0.37079713
0.3707754
0.3708174
0.37080161
0.37083045
0.37082458
0.37082938
0.37082562
0.37082407
0.37082279
0.37082253
0.37082255
0.37082268
0.37082283
0.37082294
0.37082306
0.37082313
0.3708232
0.37082327
0.37082334
0.3708234
0.37082345
0.37082351
0.37082356
0.3708236
0.37082363
0.37082366
0.37082368
0.37082367
0.37082364
0.37082362
0.37082372
0.37082408
0.37082547
0.37082712
0.37083097
0.37082626
0.3708322
0.37080343
0.37081928
0.37077732
0.37079906
0.37081029
0.37309986
0.37310299
0.37312441
0.37313206
0.37314626
0.3731472
0.37314759
0.37314493
0.37314305
0.37314179
0.37314126
0.37314106
0.37314101
0.37314102
0.37314102
0.37314101
0.37314102
0.37314104
0.37314102
0.373141
0.37314097
0.37314097
0.37314096
0.37314091
0.37314089
0.37314087
0.37314082
0.37314076
0.37314073
0.37314069
0.3731407
0.37314086
0.37314136
0.37314259
0.37314444
0.37314708
0.37314666
0.3731457
0.37313148
0.37312381
0.37310238
0.37309925
0.37310786
0.37313156
0.37315556
0.37317635
0.37319
0.37319445
0.3731934
0.37319046
0.37318785
0.37318618
0.37318534
0.37318499
0.37318489
0.3731849
0.37318492
0.37318497
0.37318503
0.37318506
0.37318509
0.37318516
0.37318517
0.37318519
0.37318524
0.37318527
0.3731853
0.37318531
0.37318532
0.37318536
0.37318539
0.37318546
0.37318562
0.37318604
0.37318694
0.37318867
0.37319135
0.37319434
0.37319544
0.37319104
0.37317743
0.37315669
0.37313271
0.37310902
0.37313827
0.37316341
0.37319489
0.37322153
0.37323701
0.37324145
0.37323953
0.37323579
0.3732326
0.37323056
0.37322947
0.37322894
0.3732287
0.37322858
0.3732285
0.37322843
0.37322838
0.37322833
0.37322829
0.37322823
0.37322817
0.37322812
0.37322808
0.37322802
0.37322796
0.37322791
0.37322785
0.3732278
0.37322777
0.37322777
0.3732279
0.37322831
0.37322929
0.37323122
0.3732343
0.37323795
0.37323979
0.37323526
0.37321969
0.37319296
0.37316142
0.37313626
0.3731452
0.3731846
0.37322212
0.37325156
0.37326727
0.37327081
0.3732679
0.37326354
0.3732601
0.37325803
0.37325701
0.37325659
0.37325647
0.37325647
0.37325653
0.37325659
0.37325665
0.37325673
0.3732568
0.37325687
0.37325695
0.37325703
0.37325711
0.37325719
0.37325728
0.37325737
0.37325746
0.37325756
0.37325768
0.37325785
0.37325815
0.37325874
0.37325994
0.37326218
0.37326578
0.3732703
0.37327334
0.37326994
0.37325438
0.37322509
0.37318768
0.37314836
0.37316467
0.3732024
0.37324133
0.37327053
0.37328482
0.37328668
0.37328242
0.37327718
0.37327321
0.37327082
0.37326955
0.3732689
0.37326856
0.37326834
0.37326817
0.37326802
0.37326787
0.37326774
0.37326762
0.3732675
0.37326739
0.37326728
0.37326718
0.37326709
0.37326699
0.3732669
0.37326681
0.37326673
0.37326666
0.37326664
0.37326673
0.37326713
0.37326815
0.3732703
0.37327404
0.37327907
0.37328313
0.37328107
0.37326657
0.37323716
0.37319804
0.37316019
0.37315973
0.37320126
0.37324023
0.37326843
0.37328135
0.37328199
0.37327695
0.37327138
0.37326742
0.37326522
0.37326422
0.37326386
0.37326379
0.37326384
0.37326392
0.37326402
0.37326413
0.37326424
0.37326436
0.37326448
0.3732646
0.37326474
0.37326489
0.37326505
0.37326521
0.37326539
0.37326558
0.37326579
0.37326601
0.37326628
0.37326668
0.37326737
0.3732687
0.37327122
0.37327548
0.37328134
0.37328664
0.37328626
0.37327362
0.37324571
0.373207
0.37316565
0.37316711
0.37320676
0.3732445
0.37327114
0.37328247
0.37328177
0.37327574
0.37326946
0.373265
0.37326239
0.373261
0.37326027
0.37325982
0.37325949
0.37325922
0.37325896
0.37325872
0.3732585
0.3732583
0.3732581
0.37325792
0.37325775
0.3732576
0.37325745
0.37325731
0.37325718
0.37325706
0.37325694
0.37325683
0.37325676
0.37325681
0.37325714
0.37325811
0.37326032
0.3732644
0.37327032
0.37327604
0.37327641
0.37326474
0.37323774
0.37319968
0.37315978
0.37315768
0.37319764
0.37323515
0.37326149
0.37327253
0.37327165
0.37326561
0.37325953
0.3732554
0.3732532
0.37325225
0.37325194
0.37325192
0.373252
0.37325212
0.37325226
0.37325239
0.37325255
0.37325271
0.37325288
0.37325306
0.37325325
0.37325346
0.37325369
0.37325393
0.37325419
0.37325447
0.37325478
0.3732551
0.37325548
0.37325597
0.37325675
0.37325818
0.37326085
0.37326543
0.37327193
0.37327836
0.37327961
0.37326897
0.37324305
0.37320592
0.37316626
0.37316716
0.37320679
0.37324389
0.37326977
0.37328038
0.3732791
0.37327264
0.3732661
0.37326148
0.37325877
0.3732573
0.37325648
0.37325595
0.37325553
0.37325517
0.37325483
0.37325452
0.37325423
0.37325396
0.37325371
0.37325347
0.37325326
0.37325307
0.37325288
0.37325271
0.37325254
0.37325239
0.37325225
0.37325211
0.37325202
0.37325202
0.37325232
0.37325326
0.37325545
0.37325957
0.37326564
0.37327168
0.37327255
0.37326151
0.37323517
0.37319764
0.37315768
0.37315979
0.3731997
0.37323777
0.37326478
0.37327647
0.37327611
0.37327042
0.37326453
0.37326048
0.3732583
0.37325736
0.37325706
0.37325705
0.37325715
0.37325729
0.37325745
0.3732576
0.37325778
0.37325796
0.37325816
0.37325837
0.37325859
0.37325884
0.37325911
0.37325939
0.3732597
0.37326003
0.37326039
0.37326077
0.37326121
0.37326177
0.37326261
0.37326411
0.37326683
0.37327139
0.37327777
0.37328389
0.37328466
0.37327341
0.37324688
0.37320923
0.37316967
0.37316943
0.37321064
0.37324922
0.373277
0.37328954
0.37328983
0.37328442
0.37327844
0.37327403
0.37327136
0.37326991
0.37326912
0.37326858
0.37326814
0.37326776
0.37326741
0.37326707
0.37326676
0.37326647
0.3732662
0.37326595
0.37326572
0.37326551
0.37326531
0.37326512
0.37326494
0.37326478
0.37326462
0.37326448
0.37326438
0.37326437
0.37326462
0.37326553
0.37326767
0.37327158
0.37327711
0.37328211
0.37328144
0.37326849
0.37324027
0.37320128
0.37315974
0.37316021
0.37319807
0.37323721
0.37326665
0.37328119
0.37328329
0.37327929
0.37327431
0.37327064
0.37326856
0.37326767
0.37326768
0.37326799
0.37326815
0.37326831
0.37326846
0.37326863
0.3732688
0.37326899
0.37326918
0.37326939
0.37326962
0.37326986
0.37327013
0.37327041
0.37327071
0.37327103
0.37327136
0.37327171
0.37327206
0.37327227
0.37327276
0.37327414
0.3732767
0.37328081
0.37328618
0.37329052
0.37328873
0.37327452
0.37324543
0.37320663
0.37316904
0.37315268
0.37319187
0.37322918
0.37325844
0.373274
0.3732774
0.37327433
0.37326975
0.37326604
0.37326367
0.37326238
0.37326201
0.37326263
0.37326314
0.37326295
0.37326266
0.37326238
0.3732621
0.37326183
0.37326158
0.37326135
0.37326114
0.37326094
0.37326074
0.37326056
0.3732604
0.37326023
0.37326006
0.37325978
0.37325881
0.37325773
0.37325765
0.37325853
0.37326051
0.37326388
0.37326817
0.37327101
0.37326742
0.37325166
0.37322218
0.37318463
0.37314521
0.37313627
0.37316145
0.37319303
0.3732198
0.37323543
0.37324003
0.37323827
0.3732347
0.37323171
0.37322987
0.37322906
0.37322917
0.37323039
0.37323266
0.37323425
0.3732346
0.37323478
0.37323495
0.37323512
0.37323531
0.3732355
0.3732357
0.37323592
0.37323615
0.37323639
0.37323664
0.37323687
0.37323695
0.37323577
0.37323391
0.37323308
0.37323334
0.37323448
0.37323659
0.37323981
0.37324353
0.37324539
0.37324084
0.37322526
0.37319856
0.37316708
0.37314199
0.37311193
0.37313565
0.37315974
0.37318066
0.37319449
0.3731991
0.37319818
0.3731953
0.37319267
0.37319092
0.37319002
0.37318993
0.3731909
0.37319307
0.37319591
0.37319734
0.37319735
0.37319713
0.37319691
0.3731967
0.3731965
0.3731963
0.37319612
0.37319594
0.37319575
0.37319559
0.37319522
0.37319338
0.37319018
0.37318765
0.37318636
0.37318617
0.37318683
0.37318839
0.37319091
0.37319376
0.37319472
0.37319019
0.37317647
0.37315564
0.37313159
0.37310787
0.37309926
0.37310242
0.37312389
0.37313161
0.3731459
0.37314695
0.37314746
0.37314492
0.37314318
0.37314206
0.37314175
0.37314214
0.37314358
0.37314625
0.37314983
0.37315352
0.37315516
0.37315545
0.37315565
0.37315583
0.37315601
0.37315619
0.37315638
0.37315658
0.37315678
0.37315683
0.37315554
0.37315223
0.37314897
0.37314661
0.37314545
0.37314529
0.37314577
0.37314698
0.37314875
0.37315123
0.37315059
0.37314935
0.37313486
0.37312692
0.3731053
0.37310201
0.37081948
0.37083749
0.37087556
0.37089587
0.37091806
0.37092192
0.3709219
0.37091833
0.3709162
0.37091582
0.37091275
0.37090702
0.37088427
0.37086439
0.37082731
0.37085698
0.37081622
0.36836888
0.36578096
0.36578826
0.36579927
0.36579657
0.36581304
0.36581335
0.36581415
0.36581007
0.36580634
0.36580336
0.36580153
0.36580037
0.36579959
0.36579898
0.36579844
0.36579793
0.36579745
0.36579698
0.36579653
0.3657961
0.36579568
0.3657953
0.36579492
0.36579456
0.36579421
0.36579388
0.36579355
0.36579323
0.36579294
0.3657927
0.36579263
0.36579293
0.36579392
0.36579607
0.365799
0.36580231
0.3658008
0.36579982
0.36578279
0.36578501
0.36577367
0.36579776
0.36580497
0.3631663
0.36045611
0.35776259
0.35509416
0.35246926
0.34988756
0.34734746
0.34484667
0.3423839
0.3399583
0.33756934
0.33521654
0.33289938
0.33061725
0.32836933
0.32615457
0.32397155
0.32181843
0.31969281
0.31759164
0.29679931
0.29671865
0.29669373
0.29668343
0.29663557
0.29657025
0.29647023
0.29635141
0.29623064
0.29610471
0.29598168
0.2958547
0.29573403
0.29561606
0.29548826
0.29535247
0.29520116
0.29752014
0.29766112
0.29779049
0.29791208
0.29802672
0.29814582
0.29826423
0.29837796
0.29849723
0.29860705
0.29871817
0.29881041
0.29887234
0.29892044
0.29893796
0.29896189
0.29902953
0.3011791
0.30112548
0.30110163
0.30107802
0.30103226
0.30097194
0.30088648
0.3007841
0.30068279
0.30057087
0.30046384
0.30035108
0.30023615
0.30012535
0.30000879
0.29988638
0.2997559
0.30192533
0.30204966
0.30216465
0.30227637
0.30238377
0.30249371
0.30260286
0.30270543
0.30280991
0.30290477
0.30299836
0.30307694
0.303136
0.30318006
0.30320744
0.30323169
0.30327531
0.30533042
0.3052945
0.30526979
0.30524138
0.30519902
0.30514139
0.3050684
0.3049823
0.30489265
0.30479451
0.3046958
0.3045906
0.30448512
0.30437928
0.30427055
0.30415982
0.30404243
0.30392193
0.30599913
0.30611429
0.30622777
0.30633668
0.30644363
0.30654945
0.30665212
0.30675356
0.30684929
0.30694267
0.30702834
0.30710878
0.307177
0.30723362
0.30727426
0.30730343
0.30732826
0.30735979
0.30937081
0.30934319
0.3093188
0.30928879
0.30924793
0.30919312
0.30912772
0.30905136
0.30896804
0.30887794
0.30878366
0.30868449
0.3085826
0.30847726
0.30837035
0.30826159
0.30814968
0.30803628
0.31003842
0.31015299
0.31026556
0.31037573
0.3104844
0.31059017
0.31069295
0.31079165
0.31088599
0.31097461
0.31105698
0.31113114
0.31119539
0.31124873
0.31129012
0.31132116
0.31134572
0.31137095
0.3133626
0.31333896
0.31331348
0.31328116
0.31323898
0.31318553
0.31312145
0.31304739
0.31296467
0.31287549
0.31277994
0.31267981
0.31257503
0.31246704
0.31235585
0.31224286
0.3121276
0.31201078
0.31395683
0.31407707
0.3141959
0.31431271
0.31442741
0.3145389
0.31464682
0.31474993
0.314848
0.31493944
0.31502384
0.31509943
0.31516461
0.31521937
0.31526285
0.3152969
0.31532361
0.31534688
0.31732232
0.31729897
0.3172707
0.31723466
0.31718901
0.31713201
0.31706436
0.31698607
0.31689875
0.31680378
0.31670223
0.31659511
0.31648339
0.31636777
0.31624911
0.31612818
0.3160056
0.3158819
0.31678813
0.31691381
0.31703839
0.31716307
0.31728774
0.31741262
0.31753804
0.31766452
0.31779154
0.31791804
0.31804379
0.3181683
0.31829072
0.31841037
0.31852611
0.31863754
0.31874317
0.31884234
0.31893348
0.31901531
0.31908636
0.31914632
0.31919477
0.31923313
0.31926319
0.3192872
0.32123955
0.32121471
0.32118264
0.32114169
0.32109008
0.32102668
0.32095179
0.32086601
0.32077076
0.32066751
0.32055781
0.3204426
0.32032328
0.3202005
0.32007533
0.31994859
0.3198211
0.31969353
0.31956634
0.31944019
0.31931564
0.31919248
0.31907056
0.31894977
0.31883023
0.31871126
0.31859293
0.31847591
0.31836087
0.3182494
0.31814342
0.31804528
0.31795673
0.3178791
0.31781234
0.3177558
0.31770835
0.31766895
0.31763735
0.31761402
0.317599
0.31759195
0.31969326
0.31969857
0.31971037
0.31972945
0.31975566
0.31978834
0.31982749
0.31987408
0.31992927
0.31999389
0.3200683
0.3201517
0.32024291
0.32034021
0.32044212
0.32054745
0.32065532
0.32076542
0.3208775
0.3209919
0.32110851
0.32122739
0.32134853
0.32147193
0.32159713
0.32172347
0.32185051
0.32197743
0.32210355
0.32222784
0.32234934
0.32246719
0.32258002
0.32268666
0.32278557
0.32287505
0.32295365
0.32302046
0.3230752
0.32311879
0.32315293
0.32317866
0.32510553
0.32507911
0.32504309
0.32499714
0.32493978
0.32487011
0.32478855
0.32469629
0.32459493
0.32448631
0.32437202
0.32425345
0.32413188
0.32400833
0.32388372
0.32375905
0.32363506
0.32351253
0.323392
0.32327403
0.32315897
0.32304698
0.32293808
0.32283229
0.32272969
0.32263012
0.32253382
0.3224411
0.32235269
0.32226948
0.32219256
0.32212308
0.32206183
0.32200915
0.3219645
0.32192691
0.32189519
0.32186844
0.32184688
0.32183144
0.32182239
0.32181871
0.32397146
0.32397367
0.32398039
0.32399279
0.32401043
0.32403208
0.32405736
0.32408706
0.32412239
0.32416447
0.32421391
0.32427067
0.3243343
0.32440407
0.32447921
0.32455907
0.32464315
0.32473114
0.32482289
0.32491844
0.32501771
0.32512067
0.32522727
0.32533732
0.32545055
0.32556653
0.32568467
0.32580429
0.32592465
0.32604486
0.32616397
0.32628089
0.32639439
0.32650296
0.32660494
0.32669838
0.32678151
0.32685288
0.32691194
0.32695963
0.32699703
0.32702382
0.32894006
0.32891331
0.3288753
0.32882689
0.3287674
0.32869591
0.32861308
0.32852048
0.32842009
0.32831397
0.32820391
0.32809137
0.32797754
0.32786348
0.32775011
0.32763821
0.32752845
0.32742143
0.32731762
0.32721742
0.32712107
0.32702871
0.32694039
0.32685614
0.32677601
0.32669998
0.32662817
0.32656078
0.32649816
0.32644076
0.32638908
0.32634355
0.32630442
0.32627152
0.32624416
0.32622118
0.32620134
0.32618394
0.32616952
0.32615959
0.32615483
0.32615398
0.3283682
0.32836781
0.3283709
0.32837884
0.32839069
0.32840465
0.32842
0.32843738
0.32845807
0.32848324
0.32851362
0.32854949
0.32859074
0.32863713
0.32868833
0.32874408
0.32880416
0.32886844
0.32893686
0.32900943
0.32908615
0.32916702
0.32925197
0.32934093
0.32943371
0.32953001
0.32962943
0.3297315
0.32983559
0.32994101
0.33004695
0.33015247
0.33025643
0.33035745
0.33045372
0.33054311
0.33062346
0.33069311
0.33075138
0.33079926
0.33083699
0.33086327
0.33280473
0.33277934
0.33274291
0.33269707
0.33264182
0.33257604
0.33250034
0.33241649
0.33232671
0.33223314
0.33213753
0.33204121
0.33194519
0.3318503
0.33175723
0.33166657
0.33157881
0.33149434
0.33141348
0.33133641
0.33126329
0.33119416
0.33112904
0.33106792
0.33101075
0.33095753
0.33090826
0.33086299
0.33082186
0.330785
0.33075262
0.33072486
0.33070173
0.33068292
0.33066769
0.33065485
0.33064313
0.3306319
0.33062203
0.33061566
0.33061398
0.33061553
0.33289702
0.33289437
0.33289485
0.33290002
0.33290842
0.33291753
0.33292639
0.33293559
0.33294645
0.33296014
0.33297739
0.33299851
0.33302352
0.33305232
0.33308482
0.33312091
0.33316056
0.33320376
0.33325054
0.33330092
0.33335497
0.33341272
0.33347418
0.33353935
0.33360813
0.33368038
0.33375588
0.33383433
0.33391536
0.33399848
0.33408314
0.33416866
0.33425416
0.33433845
0.33441986
0.33449629
0.33456549
0.33462565
0.33467626
0.33471867
0.33475282
0.33477701
0.33679211
0.33676932
0.33673814
0.33670029
0.33665563
0.33660249
0.33654122
0.33647359
0.33640185
0.33632804
0.33625369
0.33617983
0.3361072
0.33603632
0.33596762
0.33590146
0.33583813
0.33577784
0.33572074
0.33566692
0.33561642
0.33556924
0.33552534
0.33548467
0.33544716
0.33541277
0.33538144
0.33535314
0.33532789
0.33530571
0.3352867
0.33527092
0.33525835
0.33524871
0.33524131
0.33523496
0.33522833
0.33522081
0.33521347
0.33520921
0.33520977
0.33521353
0.33756564
0.33756076
0.33755927
0.33756286
0.33756948
0.33757583
0.33758074
0.33758486
0.33758958
0.33759606
0.33760497
0.33761654
0.33763077
0.33764757
0.3376669
0.33768872
0.33771305
0.33773993
0.33776942
0.33780159
0.3378365
0.33787421
0.33791478
0.33795822
0.33800451
0.33805362
0.33810544
0.33815982
0.33821656
0.3382754
0.33833604
0.33839809
0.33846099
0.33852386
0.33858533
0.33864345
0.338696
0.33874128
0.33877916
0.33881172
0.3388395
0.33886076
0.3409913
0.34097153
0.34094729
0.34092034
0.3408896
0.34085244
0.34080878
0.34076024
0.34070898
0.34065685
0.34060506
0.34055433
0.34050504
0.34045748
0.34041182
0.34036824
0.34032689
0.34028785
0.34025119
0.34021692
0.34018505
0.34015555
0.34012836
0.34010342
0.34008067
0.34006004
0.34004148
0.34002492
0.34001036
0.3399978
0.33998733
0.33997902
0.33997294
0.33996889
0.33996625
0.33996385
0.33996025
0.33995475
0.33994856
0.33994546
0.33994782
0.33995387
0.34237873
0.3423714
0.34236821
0.34237094
0.34237691
0.3423818
0.34238439
0.34238545
0.34238649
0.3423887
0.34239264
0.34239845
0.34240603
0.34241526
0.34242607
0.34243843