/*--------------------------------*- C++ -*----------------------------------*\
| =========                 |                                                 |
| \\      /  F ield         | OpenFOAM: The Open Source CFD Toolbox           |
|  \\    /   O peration     | Version:  v2012                                 |
|   \\  /    A nd           | Website:  www.openfoam.com                      |
|    \\/     M anipulation  |                                                 |
\*---------------------------------------------------------------------------*/
FoamFile
{
    version     2.0;
    format      ascii;
    class       volScalarField;
    location    "100";
    object      omega;
}
// * * * * * * * * * * * * * * * * * * * * * * * * * * * * * * * * * * * * * //

dimensions      [0 0 -1 0 0 0 0];


internalField   nonuniform List<scalar> 
33368
(
11.073551
11.073279
11.130477
11.12983
11.130596
11.129916
11.131355
11.130692
11.131472
11.131144
11.131273
11.131175
11.131175
11.131273
11.131144
11.131472
11.130692
11.131355
11.129916
11.130596
11.12983
11.130477
11.129726
11.131026
11.130359
11.131098
11.130807
11.130942
11.130842
11.13083
11.130813
11.130817
11.13082
11.130824
11.130826
11.130827
11.130828
11.130829
11.130829
11.13083
11.13083
11.13083
11.13083
11.130831
11.130831
11.130831
11.13083
11.13083
11.13083
11.130829
11.130827
11.130824
11.130821
11.130817
11.130834
11.130846
11.130946
11.130812
11.131102
11.130363
11.131031
11.129731
11.130482
11.129835
11.130605
11.129935
11.131388
11.130746
11.131549
11.131248
11.131403
11.131328
11.131344
11.131449
11.131316
11.131627
11.130822
11.131452
11.129983
11.130637
11.129856
11.130506
11.12976
11.131065
11.130403
11.131148
11.130865
11.131004
11.130909
11.130899
11.130884
11.130885
11.13087
11.130811
11.130686
11.130499
11.130282
11.130084
11.130033
11.130026
11.130022
11.13002
11.130017
11.130014
11.130012
11.130013
11.130058
11.130251
11.130462
11.130643
11.130763
11.130816
11.130828
11.130825
11.13084
11.130851
11.130949
11.130813
11.131101
11.130361
11.131028
11.129726
11.072616
11.073861
11.073325
11.074132
11.073925
11.074073
11.073974
11.073947
11.073921
11.073909
11.073839
11.073607
11.073129
11.072434
11.071645
11.070949
11.070777
11.070767
11.070771
11.070778
11.070784
11.070791
11.0708
11.070824
11.07101
11.071722
11.072526
11.073236
11.073727
11.073972
11.074052
11.074072
11.074105
11.074136
11.074236
11.074088
11.074294
11.073484
11.074019
11.072772
11.073432
11.072623
11.013482
10.949856
10.885637
10.821081
10.759794
10.704247
10.658887
10.630947
10.632885
10.691571
10.891094
11.287156
12.084663
13.92108
18.832313
33.034435
74.471578
244.18796
386.51788
336.13119
304.11314
248.54478
238.81549
229.76824
189.77438
181.52035
175.15459
168.47431
148.3994
142.21926
137.45566
133.13492
129.08997
118.21405
110.75168
108.89854
106.88775
104.62247
102.15912
100.29456
96.720595
87.272629
85.097612
84.620693
84.231399
83.444785
81.137206
78.383804
76.857422
75.493582
74.198428
72.968958
71.788599
70.668155
69.603248
68.593852
67.644554
66.746584
65.915194
65.134953
64.434504
63.797577
63.246684
62.820005
61.640913
59.796615
59.38177
58.903973
58.449006
58.11819
57.625454
57.119452
56.644588
56.25731
55.946866
55.022874
54.281485
53.80719
53.655739
53.675347
53.634209
52.876053
52.254822
51.795418
51.385816
51.017545
50.676976
50.332684
49.994368
49.665085
49.321085
48.977078
48.638958
48.284281
47.92815
47.582937
47.225456
46.870533
46.533021
46.193951
45.849364
45.497061
45.061467
44.556684
43.371676
41.054862
40.268773
9.7422596
9.7924775
9.8439059
9.8966147
9.950604
10.005829
10.062225
10.11972
10.17825
10.23776
10.298209
10.359569
10.421823
10.484975
10.549041
10.61406
10.680054
10.746969
10.814505
10.882091
10.948506
11.012689
11.011944
11.012803
11.012474
11.013146
11.013049
11.01316
11.013074
11.013031
11.012994
11.012961
11.012825
11.012404
11.011558
11.010339
11.008972
11.007804
11.007498
11.007471
11.007477
11.007488
11.0075
11.007513
11.007531
11.007584
11.007918
11.009116
11.010513
11.011761
11.012636
11.013084
11.013246
11.013304
11.013366
11.013433
11.013542
11.013453
11.013572
11.01292
11.013272
11.012434
11.013187
10.949799
10.88503
10.820656
10.759114
10.703158
10.657
10.628204
10.63162
10.713088
11.00921
11.507369
11.38855
11.259427
11.108024
11.328787
11.641338
12.129273
12.456121
12.727455
13.056236
14.081192
19.385483
35.657365
86.165532
267.54708
347.53923
438.46369
349.11802
345.39863
266.68762
248.19749
239.91159
197.90588
185.53305
177.80257
172.21086
150.40473
142.31771
137.05938
132.32765
128.5261
123.15815
117.89037
114.46248
109.95569
120.47893
123.51413
126.4732
129.75753
133.64026
135.81835
156.74112
161.04621
165.67982
166.22627
202.88834
206.79174
202.08021
267.11295
234.64595
266.34521
355.33091
222.27868
156.16719
88.592678
43.766986
36.078452
47.848973
73.717314
132.21348
237.06305
384.03758
271.35549
405.92238
309.17711
300.68633
297.16034
228.65127
229.89821
221.8552
216.43374
176.36696
174.67324
169.10126
164.38216
160.31791
139.42823
137.66171
133.0686
129.14789
125.42482
121.78659
110.19612
108.30567
106.68548
105.23937
104.22823
102.10174
101.16905
99.919591
100.71453
103.6631
105.51134
102.62492
92.672563
91.075057
89.161632
88.358829
89.867395
91.897364
93.466997
103.04066
105.72354
108.60093
112.05757
125.31241
128.4745
132.5268
137.03295
142.03085
145.84028
169.18354
174.96076
181.03586
184.05388
226.08839
234.14336
233.13114
311.60155
297.60816
281.64183
319.33164
261.32313
139.44237
191.77308
105.15305
46.502117
22.467175
15.023237
16.692454
27.568904
24.748842
35.491444
45.300182
50.309322
55.621651
67.480737
32.068481
26.494148
17.459482
13.149414
12.017102
11.570165
11.253271
10.899788
10.695699
10.626087
10.625814
10.655999
10.702781
10.759078
10.820798
10.885256
10.950065
11.013435
11.073651
11.073178
11.074708
11.074265
11.075175
11.074949
11.075091
11.074978
11.074941
11.074984
11.07479
11.074985
11.07407
11.074524
11.073017
11.073513
11.072506
11.013093
10.948813
10.883201
10.815783
10.748983
10.682991
10.618369
10.555168
10.493417
10.433118
10.374277
10.316879
10.260876
10.206172
10.152628
10.100061
10.048268
9.9970336
9.9461626
9.895501
9.8449438
9.7944465
9.7440176
9.6937135
9.6436244
9.5938682
9.5445729
9.4958761
9.4478997
9.400768
9.3545985
9.3095015
9.2655863
9.2229738
9.2285369
9.2708286
9.3144631
9.3593033
9.4052302
9.4521276
9.4998757
9.5483514
9.59742
9.6469427
9.6967921
9.7468491
9.7970217
9.8472534
9.8975394
9.9479292
9.9985316
10.049502
10.101044
10.153379
10.206717
10.261245
10.317108
10.374401
10.433169
10.493427
10.555164
10.618365
10.682987
10.748903
10.815747
10.882874
10.949015
11.01302
11.012532
10.94855
10.882333
10.815287
10.748523
10.682718
10.618196
10.555095
10.493468
10.43335
10.374764
10.317709
10.262145
10.207981
10.155068
10.103211
10.052189
10.001768
9.9517305
9.9019127
9.8521981
9.80253
9.7529084
9.7033858
9.6540525
9.6050246
9.5564248
9.5083895
9.4610539
9.4145483
9.3689886
9.3244888
9.2811656
9.2391487
9.2571777
9.2986858
9.3414731
9.3853987
9.4303482
9.4762032
9.522848
9.5701519
9.6179764
9.6661797
9.7146453
9.7632656
9.8119578
9.8606783
9.909435
9.958294
10.007385
10.056891
10.107051
10.158121
10.21034
10.26392
10.319013
10.375707
10.43403
10.493968
10.555479
10.618517
10.683017
10.748852
10.815709
10.882929
10.949409
11.013712
11.013529
10.949383
10.882997
10.815849
10.749064
10.683313
10.618923
10.556035
10.494736
10.435102
10.377206
10.321091
10.266748
10.214099
10.162983
10.113163
10.064365
10.016295
9.968682
9.9213103
9.8740291
9.8267556
9.7794698
9.7322047
9.6850297
9.6380394
9.5913439
9.5450956
9.4994286
9.4544694
9.4103296
9.3671263
9.3249733
9.284013
9.3234057
9.3634949
9.4046947
9.4468602
9.4898628
9.5335788
9.5778923
9.6226769
9.6678032
9.7130984
9.7584507
9.8037763
9.8490217
9.8941733
9.9392704
9.9844211
10.029809
10.075695
10.12241
10.170306
10.21972
10.270931
10.32412
10.379359
10.436622
10.495822
10.556841
10.619559
10.683859
10.749578
10.816381
10.883591
10.950074
11.014337
11.014288
10.950108
10.883682
10.816532
10.749812
10.684215
10.620101
10.557671
10.497096
10.438562
10.382265
10.328368
10.276952
10.227961
10.18118
10.136249
10.092719
10.050134
10.008073
9.9662071
9.9243049
9.8822201
9.8398823
9.7972804
9.7544529
9.7114776
9.6684886
9.6256807
9.5831867
9.5411366
9.4996513
9.4588529
9.418869
9.3798588
9.4641603
9.5014722
9.5395848
9.5783243
9.6175568
9.6571567
9.6969929
9.7369324
9.77684
9.8164739
9.8556413
9.8942698
9.9323427
9.9699041
10.007066
10.044025
10.08108
10.118653
10.157295
10.197642
10.240331
10.285879
10.334567
10.386422
10.441267
10.498813
10.558743
10.620766
10.684632
10.750083
10.816728
10.88385
10.95028
11.014474
11.014479
10.950325
10.883943
10.816898
10.750384
10.685156
10.621663
10.560247
10.501283
10.445229
10.39261
10.34394
10.299574
10.259535
10.223408
10.190369
10.159425
10.12965
10.100336
10.071006
10.041316
10.011017
9.9798901
9.9477697
9.9145869
9.8803896
9.8455357
9.8103282
9.7748848
9.7393142
9.7037236
9.6682232
9.6329436
9.5980685
9.8310808
9.8625869
9.8936022
9.923864
9.9532033
9.9815783
10.008985
10.03542
10.060837
10.084971
10.106854
10.126445
10.144077
10.160366
10.176024
10.191694
10.207858
10.224913
10.243526
10.264859
10.29034
10.3213
10.35854
10.402078
10.451212
10.504979
10.562485
10.622995
10.68594
10.750845
10.817171
10.884109
10.950428
11.014543
11.01466
10.950584
10.88435
10.817564
10.751509
10.687079
10.624947
10.565797
10.510518
10.460319
10.416832
10.381794
10.35629
10.340235
10.332605
10.331668
10.334962
10.34143
10.351447
10.365209
10.3814
10.396916
10.40894
10.415454
10.41577
10.410703
10.403338
10.393182
10.380187
10.364039
10.344317
10.320878
10.294156
10.26483
11.097761
11.134403
11.164337
11.185054
11.194363
11.193056
11.183935
11.168048
11.145119
11.114483
11.074921
11.01745
10.940821
10.850052
10.755792
10.671003
10.60064
10.543543
10.494359
10.451492
10.423964
10.413143
10.41884
10.439964
10.474261
10.518736
10.57059
10.627694
10.688611
10.752331
10.817975
10.884516
10.950597
11.014575
11.014698
10.950727
10.884766
10.818502
10.753397
10.690664
10.631497
10.57743
10.530892
10.495419
10.476115
10.479582
10.511648
10.57783
10.686325
10.850312
11.003728
11.189227
11.416649
11.681739
11.962883
12.219333
12.421685
12.561626
12.661851
12.743813
12.805913
12.852292
12.886648
12.907875
12.902786
12.860558
16.407816
16.6393
16.616659
16.571829
16.540994
16.506323
16.446628
16.342774
16.152797
15.83003
15.34535
14.719877
14.036853
13.365083
12.750933
12.188474
11.780864
11.198353
10.878825
10.692278
10.588432
10.534166
10.527211
10.548491
10.586886
10.636439
10.693109
10.754431
10.81873
10.884516
10.950171
11.013931
11.014138
10.950323
10.884802
10.819418
10.755976
10.696329
10.642866
10.599502
10.572935
10.575024
10.638434
10.790092
11.10613
11.607213
12.476166
13.862098
14.595449
14.829126
14.756524
15.339776
15.505466
16.183163
16.433811
17.169624
17.431376
18.201338
18.412601
19.128224
19.041641
19.552305
19.157161
19.52327
19.026143
19.385611
18.925573
19.277147
18.854599
19.186233
18.788041
19.09762
18.721662
19.01361
18.679801
18.97905
18.678316
18.955446
19.090792
21.44542
25.512606
36.082535
36.817321
40.227239
41.689002
42.254222
42.57607
42.868938
43.167713
43.486198
43.819179
44.175959
44.541126
44.912046
45.278942
45.648157
46.002768
46.352726
46.68882
47.017795
47.329948
47.644229
47.95024
48.28174
48.645556
49.10621
49.706685
51.206603
50.765858
47.635394
47.690961
47.017022
48.584223
48.946418
50.935896
51.009142
51.059858
51.190088
51.453819
51.813495
51.052776
50.643077
52.600035
53.124951
56.181559
55.347588
54.062899
53.474957
53.154322
53.148538
53.165801
53.37963
53.504857
53.778453
53.915631
54.194511
54.330038
54.647941
54.853222
55.426193
55.73627
56.437278
55.42176
54.873204
52.64105
47.650639
40.563246
31.35244
24.972006
21.015822
16.896716
14.492599
12.748031
11.667044
11.186421
10.795363
10.642651
10.602012
10.613907
10.649875
10.69962
10.757368
10.819769
10.88451
10.949549
11.012957
11.013391
11.014263
11.014743
11.015256
11.015311
11.015273
11.01516
11.015099
11.015095
11.015036
11.01491
11.014357
11.013857
11.01298
11.012705
11.012787
11.012041
11.012894
11.012559
11.013224
11.013118
11.01322
11.013124
11.01307
11.013025
11.013007
11.012998
11.012995
11.012993
11.012991
11.012988
11.012985
11.012983
11.01298
11.012978
11.012975
11.012972
11.01297
11.012967
11.012964
11.012962
11.012958
11.012955
11.012952
11.012949
11.012947
11.01295
11.012962
11.013002
11.013051
11.013143
11.013037
11.013138
11.012469
11.012802
11.011946
11.012692
11.012998
11.072477
11.073279
11.072615
11.073859
11.073321
11.074125
11.073914
11.074059
11.073957
11.073926
11.073897
11.073894
11.073895
11.073898
11.073901
11.073903
11.073905
11.073906
11.073907
11.073909
11.07391
11.073911
11.073911
11.073912
11.073913
11.073914
11.073914
11.073914
11.073914
11.073914
11.073913
11.073911
11.073912
11.073917
11.073947
11.073979
11.074083
11.073939
11.074152
11.073347
11.073887
11.072643
11.073308
11.073588
11.130592
11.130715
11.131265
11.131458
11.131808
11.13183
11.131841
11.131777
11.131733
11.131703
11.131691
11.131686
11.131685
11.131686
11.131686
11.131686
11.131686
11.131686
11.131686
11.131686
11.131685
11.131685
11.131685
11.131684
11.131684
11.131684
11.131683
11.131682
11.131681
11.13168
11.131681
11.131685
11.131697
11.131726
11.13177
11.131833
11.131822
11.131799
11.131449
11.131256
11.130706
11.130583
11.130836
11.13149
11.132102
11.132618
11.132949
11.133058
11.133033
11.132963
11.1329
11.13286
11.13284
11.132832
11.132829
11.132829
11.132829
11.13283
11.132831
11.132832
11.132832
11.132834
11.132834
11.132834
11.132835
11.132835
11.132836
11.132836
11.132836
11.132837
11.132837
11.132839
11.132842
11.132852
11.132873
11.132914
11.132977
11.133048
11.133074
11.132966
11.132636
11.132121
11.131508
11.130855
11.131589
11.132275
11.133075
11.133729
11.134104
11.134211
11.134165
11.134076
11.134001
11.133953
11.133928
11.133916
11.133911
11.133908
11.133907
11.133906
11.133905
11.133904
11.133903
11.133903
11.133902
11.133901
11.1339
11.133899
11.133898
11.133897
11.133896
11.133895
11.133895
11.133895
11.133898
11.133908
11.133932
11.133977
11.134051
11.134138
11.134183
11.134074
11.133698
11.133042
11.132242
11.131556
11.131776
11.132814
11.133754
11.134472
11.134849
11.134932
11.134861
11.134756
11.134674
11.134625
11.1346
11.13459
11.134587
11.134587
11.134588
11.134589
11.13459
11.134591
11.134592
11.134594
11.134595
11.134596
11.134598
11.134599
11.134601
11.134602
11.134604
11.134605
11.134608
11.134611
11.134617
11.13463
11.134657
11.134709
11.134794
11.134902
11.134975
11.134895
11.13452
11.133805
11.132867
11.13183
11.132222
11.133213
11.134188
11.134898
11.13524
11.135282
11.135179
11.135054
11.134961
11.134905
11.134877
11.134863
11.134856
11.134852
11.134849
11.134846
11.134844
11.134842
11.134839
11.134837
11.134836
11.134834
11.134832
11.13483
11.134829
11.134827
11.134826
11.134824
11.134823
11.134823
11.134825
11.134835
11.134859
11.13491
11.135
11.135121
11.135221
11.135175
11.13483
11.134116
11.133138
11.132145
11.132132
11.133217
11.134189
11.134871
11.135177
11.135186
11.135062
11.134927
11.134833
11.13478
11.134756
11.134748
11.134746
11.134746
11.134748
11.134749
11.134751
11.134753
11.134755
11.134757
11.134759
11.134762
11.134764
11.134767
11.13477
11.134773
11.134776
11.13478
11.134784
11.134789
11.134796
11.134811
11.134841
11.134899
11.134999
11.135138
11.135267
11.135262
11.134961
11.134283
11.133316
11.132234
11.132262
11.133301
11.134245
11.134891
11.13516
11.135139
11.134992
11.134842
11.134738
11.134678
11.134648
11.134633
11.134624
11.134618
11.134613
11.134609
11.134605
11.134601
11.134597
11.134594
11.134591
11.134588
11.134585
11.134583
11.13458
11.134578
11.134576
11.134574
11.134572
11.134571
11.134572
11.134581
11.134604
11.134657
11.134754
11.134898
11.135039
11.135055
11.13478
11.134128
11.133179
11.132135
11.132084
11.13313
11.134065
11.134701
11.13496
11.134932
11.134783
11.134635
11.134536
11.134483
11.134461
11.134453
11.134452
11.134453
11.134455
11.134457
11.13446
11.134463
11.134465
11.134468
11.134471
11.134475
11.134479
11.134483
11.134487
11.134491
11.134496
11.134501
11.134507
11.134514
11.134523
11.134539
11.13457
11.134631
11.134738
11.134893
11.135049
11.135083
11.134831
11.134202
11.133273
11.132233
11.132249
11.133288
11.134217
11.134845
11.135096
11.135061
11.134905
11.134749
11.134642
11.13458
11.134548
11.134532
11.134522
11.134514
11.134508
11.134502
11.134497
11.134492
11.134487
11.134483
11.134478
11.134475
11.134472
11.134468
11.134465
11.134462
11.13446
11.134457
11.134455
11.134453
11.134454
11.134462
11.134484
11.134537
11.134636
11.134783
11.134932
11.13496
11.134702
11.134065
11.13313
11.132084
11.132135
11.133179
11.134128
11.134781
11.135056
11.135041
11.1349
11.134757
11.134659
11.134607
11.134584
11.134577
11.134575
11.134577
11.134579
11.134582
11.134585
11.134588
11.134591
11.134595
11.134598
11.134602
11.134606
11.134611
11.134616
11.134621
11.134627
11.134633
11.13464
11.134648
11.134658
11.134676
11.134708
11.13477
11.134876
11.135027
11.135176
11.135198
11.134931
11.134286
11.133344
11.132307
11.1323
11.133379
11.134344
11.135019
11.135318
11.135322
11.135192
11.13505
11.134947
11.134887
11.134853
11.134834
11.134823
11.134815
11.134808
11.134802
11.134796
11.134791
11.134786
11.134781
11.134777
11.134773
11.134769
11.134766
11.134763
11.13476
11.134757
11.134754
11.134752
11.13475
11.134752
11.134761
11.134785
11.134837
11.134931
11.135065
11.135189
11.135178
11.134872
11.134189
11.133218
11.132132
11.132145
11.133139
11.134117
11.134831
11.135178
11.135224
11.135125
11.135005
11.134916
11.134866
11.134841
11.134822
11.134815
11.134815
11.134817
11.13482
11.134822
11.134825
11.134829
11.134832
11.134836
11.134839
11.134844
11.134848
11.134853
11.134858
11.134864
11.13487
11.134876
11.134885
11.134901
11.134929
11.134963
11.135021
11.135117
11.135244
11.135349
11.135307
11.134967
11.134258
11.133286
11.132297
11.131904
11.132938
11.133874
11.134589
11.134964
11.135045
11.134971
11.134862
11.134776
11.134721
11.134689
11.134658
11.134607
11.134584
11.134575
11.134569
11.134565
11.13456
11.134555
11.134551
11.134547
11.134543
11.13454
11.134537
11.134534
11.134531
11.134528
11.134526
11.134527
11.134541
11.134585
11.134608
11.134633
11.134681
11.134762
11.134865
11.134935
11.134851
11.134473
11.133755
11.132814
11.131776
11.131556
11.132242
11.133043
11.1337
11.134077
11.134187
11.134144
11.134058
11.133986
11.133941
11.133917
11.133893
11.133839
11.133744
11.133711
11.133707
11.133709
11.133711
11.133714
11.133718
11.133721
11.133724
11.133728
11.133731
11.133735
11.13374
11.133745
11.133756
11.133796
11.133899
11.13396
11.13399
11.13402
11.134069
11.134145
11.134233
11.134278
11.134168
11.133791
11.133136
11.132336
11.131652
11.130903
11.131556
11.13217
11.132689
11.133023
11.133136
11.133113
11.133044
11.132981
11.13294
11.132915
11.132887
11.132823
11.132701
11.13254
11.132476
11.132464
11.132459
11.132455
11.132451
11.132448
11.132445
11.132442
11.132439
11.132436
11.132436
11.132442
11.132498
11.132653
11.132769
11.132827
11.13285
11.132871
11.132909
11.13297
11.133039
11.133063
11.132953
11.13262
11.132104
11.13149
11.130836
11.130583
11.130706
11.131257
11.131451
11.131803
11.131827
11.13184
11.131778
11.131736
11.131709
11.131696
11.131676
11.131618
11.131497
11.131318
11.131127
11.131059
11.131052
11.131054
11.131057
11.13106
11.131062
11.131065
11.131069
11.131073
11.131086
11.131159
11.131357
11.131542
11.131669
11.131732
11.131755
11.13177
11.131799
11.131841
11.131902
11.131886
11.131858
11.131503
11.131305
11.130751
11.130626
11.073728
11.074196
11.075154
11.075615
11.076146
11.076218
11.076219
11.076138
11.076103
11.076117
11.076065
11.075964
11.075427
11.074977
11.074038
11.074873
11.073783
11.012656
10.947864
10.947996
10.948495
10.948263
10.948784
10.948719
10.948767
10.94866
10.948581
10.948518
10.948484
10.948465
10.948452
10.948443
10.948434
10.948426
10.948418
10.94841
10.948403
10.948396
10.948389
10.948382
10.948376
10.94837
10.948364
10.948359
10.948353
10.948348
10.948342
10.948338
10.948337
10.948343
10.948363
10.948412
10.948478
10.948573
10.948513
10.948568
10.948038
10.948262
10.947758
10.948515
10.948572
10.882693
10.814827
10.747347
10.680377
10.614415
10.549443
10.485423
10.422297
10.360035
10.298618
10.238033
10.178272
10.119327
10.061186
10.003838
9.9472677
9.8914586
9.8363888
9.7820346
9.7283704
9.2234113
9.2231494
9.2223791
9.2212939
9.2201218
9.2187573
9.2172872
9.2156703
9.2138486
9.2119034
9.2098079
9.2076464
9.2053854
9.2030493
9.2007157
9.1983859
9.1961177
9.239514
9.2417303
9.243982
9.2462328
9.2484707
9.2506342
9.2527257
9.2547515
9.2566291
9.2583989
9.2599666
9.2613865
9.2626747
9.2637714
9.2647531
9.2654847
9.2658062
9.3095729
9.3092056
9.3085163
9.3076238
9.3065936
9.305384
9.3040201
9.3025008
9.3007942
9.2989803
9.297032
9.2950176
9.2929357
9.2907852
9.2886137
9.2864305
9.2842639
9.330164
9.3322813
9.3344089
9.3365141
9.338589
9.340602
9.3425435
9.3444174
9.3461721
9.347815
9.3492865
9.3505966
9.3517346
9.3526995
9.353519
9.3541676
9.3545596
9.4006536
9.4002485
9.3996355
9.3988739
9.3979674
9.3968908
9.3956312
9.3942045
9.3926179
9.3909147
9.3891024
9.3872174
9.3852595
9.3832451
9.3811917
9.3791088
9.3770223
9.3749347
9.4225758
9.4246587
9.4267305
9.4287872
9.4308096
9.4327847
9.4347044
9.4365513
9.4383197
9.439983
9.441527
9.4429164
9.4441349
9.445162
9.4460196
9.4467338
9.4473185
9.4477295
9.4956654
9.4952476
9.4946826
9.4940043
9.4931863
9.4921925
9.4910037
9.4896386
9.4881205
9.4864792
9.4847349
9.4829065
9.4810043
9.4790414
9.477027
9.4749725
9.4728923
9.4707946
9.5194267
9.5215571
9.5236657
9.5257428
9.5277752
9.529753
9.5316645
9.5334993
9.5352444
9.5368846
9.5383965
9.5397535
9.5409282
9.5419039
9.5426968
9.5433512
9.5439036
9.5443295
9.5935977
9.5931596
9.5926095
9.5919638
9.5911777
9.5902015
9.5890197
9.5876497
9.586121
9.5844606
9.5826917
9.5808291
9.5788858
9.5768721
9.5748001
9.5726805
9.5705255
9.5683456
9.6174605
9.6196967
9.621908
9.6240837
9.6262111
9.6282782
9.6302729
9.6321839
9.633998
9.6356998
9.6372662
9.6386687
9.6398766
9.6408709
9.6416665
9.6423175
9.6428755
9.6433294
9.6933956
9.692921
9.6923452
9.6916755
9.6908549
9.6898255
9.6885739
9.6871212
9.6854999
9.6837406
9.6818665
9.6798945
9.6778378
9.6757089
9.6735207
9.6712865
9.6690194
9.6667309
9.6977789
9.7000651
9.7023459
9.7046272
9.7069147
9.7092131
9.7115238
9.7138444
9.7161702
9.7184931
9.7208021
9.7230848
9.7253272
9.7275149
9.729634
9.7316709
9.7336111
9.7354368
9.7371232
9.7386378
9.7399453
9.7410222
9.7418796
9.7425787
9.7431796
9.7436776
9.7940874
9.7935653
9.792933
9.7921974
9.7912958
9.7901647
9.7887957
9.7872156
9.7854631
9.7835731
9.7815721
9.7794792
9.7773104
9.7750802
9.7728036
9.7704961
9.7681723
9.7658453
9.7635266
9.7612253
9.7589471
9.7566954
9.7544707
9.7522717
9.7500951
9.7479393
9.7458055
9.7437012
9.741643
9.7396577
9.7377812
9.7360524
9.7345057
9.7331614
9.7320196
9.7310577
9.7302397
9.7295395
9.7289676
9.728576
9.7283909
9.7283599
9.7820008
9.7819927
9.7821274
9.7824537
9.782939
9.7835237
9.7841954
9.7849806
9.7859171
9.7870309
9.7883275
9.7897946
9.7914077
9.7931379
9.7949578
9.7968458
9.7987875
9.8007753
9.8028063
9.80488
9.8069973
9.809158
9.8113601
9.8135992
9.8158689
9.8181594
9.8204595
9.8227561
9.8250341
9.8272775
9.8294707
9.8315978
9.8336421
9.8355826
9.837391
9.8390295
9.8404561
9.8416399
9.8425858
9.84336
9.8440262
9.8445706
9.89512
9.8945574
9.89386
9.893051
9.8920684
9.8908426
9.8893726
9.8876934
9.8858511
9.8838864
9.8818292
9.8797016
9.8775213
9.8753045
9.8730667
9.8708243
9.8685921
9.8663832
9.8642091
9.8620787
9.8599982
9.8579725
9.8560039
9.8540933
9.8522412
9.8504488
9.8487198
9.8470612
9.8454845
9.8440062
9.8426463
9.8414255
9.8403605
9.8394574
9.8387068
9.8380805
9.8375395
9.8370571
9.8366474
9.8363781
9.8362886
9.8363333
9.8913828
9.8913043
9.8913541
9.8915747
9.8919201
9.8923146
9.8927423
9.89323
9.8938174
9.8945338
9.8953915
9.8963883
9.8975134
9.8987524
9.9000912
9.9015182
9.9030246
9.9046049
9.9062561
9.9079763
9.9097646
9.9116196
9.9135386
9.9155178
9.9175513
9.9196319
9.9217485
9.9238888
9.9260391
9.9281843
9.9303084
9.9323948
9.9344261
9.9363791
9.9382227
9.9399139
9.9414029
9.9426504
9.9436539
9.9444873
9.9452071
9.9457824
9.996662
9.9960807
9.9953517
9.9945108
9.9935085
9.9922665
9.9907903
9.9891226
9.9873163
9.9854169
9.983457
9.9814586
9.9794387
9.9774129
9.9753968
9.9734037
9.9714455
9.9695333
9.9676759
9.9658804
9.9641518
9.9624932
9.9609069
9.9593939
9.9579552
9.9565921
9.955307
9.9541039
9.9529885
9.951969
9.9510547
9.9502555
9.9495781
9.9490223
9.9485744
9.9482045
9.9478725
9.9475516
9.9472586
9.9470781
9.9470623
9.9471726
10.003725
10.003585
10.003571
10.003719
10.00397
10.004231
10.004484
10.004756
10.005087
10.005508
10.006033
10.006663
10.007393
10.008217
10.00913
10.010125
10.011199
10.01235
10.013576
10.014877
10.016252
10.017701
10.019221
10.02081
10.022465
10.02418
10.025947
10.027758
10.029602
10.031466
10.033338
10.035204
10.037047
10.038848
10.040573
10.042177
10.043603
10.044806
10.045779
10.046606
10.047329
10.047909
10.099715
10.099142
10.098444
10.097656
10.096743
10.095613
10.094274
10.092774
10.09117
10.089507
10.087818
10.086122
10.084431
10.082759
10.081116
10.079513
10.077957
10.076458
10.075019
10.073645
10.07234
10.071104
10.069939
10.068845
10.067821
10.066869
10.065988
10.06518
10.064446
10.063791
10.063217
10.062729
10.062331
10.062021
10.061785
10.061593
10.061403
10.06119
10.06097
10.060848
10.060887
10.061056
10.119179
10.118983
10.118924
10.119025
10.119222
10.119398
10.119537
10.119665
10.119825
10.120046
10.120342
10.120713
10.121157
10.121671
10.122251
10.122896
10.123605
10.124378
10.125215
10.126116
10.127082
10.128113
10.129208
10.130367
10.131588
10.132868
10.134203
10.135587
10.137013
10.138473
10.139958
10.141459
10.142965
10.144459
10.145911
10.147277
10.148497
10.149526
10.150352
10.151076
10.151732
10.152294
10.20585
10.205303
10.204701
10.204058
10.203341
10.202437
10.201359
10.20015
10.198871
10.197565
10.196259
10.194966
10.193695
10.192454
10.191248
10.190084
10.188967
10.187901
10.186889
10.185933
10.185034
10.184192
10.183409
10.182681
10.18201
10.181395
10.180834
10.180328
10.179876
10.17948
10.179142
10.178864
10.178651
10.1785
10.1784
10.178322
10.178222
10.178074
10.177893
10.177807
10.177884
10.178108
10.237853
10.2376
10.237509
10.237582
10.237754
10.23788
10.23795
10.237989
10.238042
10.238138
10.238287
10.238491
10.238745
10.239046
10.239392
10.239783
10.240219
10.2407
10.241228
10.241803
10.242426
10.243098
10.243819
10.24459
10.24541
10.246276
10.247189
10.248144
10.249137
10.250165
10.251223
10.252307
10.25341
10.254521
10.255618
10.256659
10.257583
10.258349
10.258943
10.259494
10.260035
10.260565
10.316579
10.316064
10.315588
10.315134
10.314668
10.314043
10.313274
10.312402
10.311485
10.310562
10.309655
10.308772
10.307914
10.307085
10.306287
10.305523
10.304797
10.304108
10.30346
10.302853
10.302286
10.301761
10.301276
10.30083
10.300423
10.300053
10.29972
10.299423
10.299162
10.298936
10.298749
10.298603
10.298502
10.298449
10.298431
10.298423
10.298376
10.298267
10.298098
10.298036
10.298139
10.298422
10.359827
10.359511
10.359399
10.359451
10.35962
10.359716
10.359745
10.35973
10.359719
10.359741
10.359803
10.359906
10.360042
10.360208
10.360403
10.360625
10.360875
10.361153
10.361461
10.3618
10.36217
10.362572
10.363007
10.363475
10.363975
10.364509
10.365073
10.365669
10.366293
10.366944
10.367621
10.368322
10.369049
10.369796
10.370545
10.371259
10.371879
10.37237
10.37271
10.373071
10.373484
10.373987
10.432839
10.432341
10.431989
10.431708
10.431486
10.431116
10.43063
10.430057
10.429458
10.428867
10.428299
10.427756
10.427237
10.42674
10.426265
10.425813
10.425385
10.424983
10.424605
10.424254
10.423927
10.423627
10.423351
10.423099
10.42287
10.422664
10.42248
10.422317
10.422175
10.422054
10.421957
10.421888
10.421853
10.421856
10.421888
10.421922
10.421906
10.421822
10.421649
10.421608
10.421727
10.422079
10.485202
10.484808
10.484685
10.48471
10.48489
10.484963
10.484967
10.484917
10.484869
10.484848
10.484862
10.484906
10.484973
10.48506
10.485162
10.48528
10.485413
10.485562
10.485728
10.485911
10.486112
10.486331
10.48657
10.486827
10.487104
10.4874
10.487714
10.488048
10.488399
10.488768
10.489155
10.489564
10.489997
10.490455
10.490926
10.491379
10.49175
10.492018
10.492135
10.49235
10.492648
10.493151
10.55492
10.554397
10.554147
10.553977
10.553952
10.553764
10.553487
10.553133
10.552766
10.552416
10.552093
10.551794
10.551514
10.55125
10.550998
10.55076
10.550536
10.550325
10.550128
10.549945
10.549776
10.54962
10.549478
10.549348
10.549231
10.549125
10.549031
10.548948
10.548876
10.548815
10.54877
10.548744
10.548745
10.54878
10.548842
10.548906
10.548911
10.548852
10.548663
10.548658
10.548783
10.549228
10.614203
10.61369
10.613568
10.613547
10.613749
10.613792
10.613778
10.6137
10.613627
10.613582
10.613569
10.613582
10.613611
10.613652
10.613702
10.61376
10.613825
10.613897
10.613978
10.614067
10.614164
10.614271
10.614387
10.614513
10.614648
10.614793
10.614947
10.615111
10.615284
10.615468
10.615663
10.615875
10.61611
10.616375
10.616659
10.616939
10.617142
10.617271
10.617218
10.617361
10.617569
10.618135
10.682757
10.682123
10.681962
10.681826
10.681952
10.68186
10.681714
10.681489
10.681266
10.681067
10.680899
10.680753
10.680622
10.680501
10.680387
10.68028
10.680178
10.680083
10.679994
10.679912
10.679835
10.679765
10.6797
10.679641
10.679588
10.67954
10.679497
10.679458
10.679424
10.679397
10.679379
10.679376
10.679396
10.67945
10.679532
10.679623
10.679643
10.679621
10.679397
10.679451
10.679556
10.680156
10.747036
10.746331
10.746274
10.746184
10.746443
10.746444
10.746423
10.746322
10.746234
10.746176
10.74615
10.746147
10.746157
10.746175
10.746196
10.746222
10.74625
10.74628
10.746314
10.746351
10.746392
10.746436
10.746483
10.746535
10.74659
10.746649
10.746712
10.746778
10.746849
10.746924
10.747008
10.747104
10.747223
10.747372