/*--------------------------------*- C++ -*----------------------------------*\
| =========                 |                                                 |
| \\      /  F ield         | OpenFOAM: The Open Source CFD Toolbox           |
|  \\    /   O peration     | Version:  v2012                                 |
|   \\  /    A nd           | Website:  www.openfoam.com                      |
|    \\/     M anipulation  |                                                 |
\*---------------------------------------------------------------------------*/
FoamFile
{
    version     2.0;
    format      ascii;
    class       surfaceScalarField;
    location    "100";
    object      phi;
}
// * * * * * * * * * * * * * * * * * * * * * * * * * * * * * * * * * * * * * //

dimensions      [0 3 -1 0 0 0 0];
oriented        oriented;


internalField   nonuniform List<scalar> 
96731
(
1.4701845e-05
-0.0062487673
-9.9975217e-06
-4.9195346e-05
-3.6048345e-06
0.0062968632
-0.0059770034
2.3193802e-05
0.0059720705
-3.5590816e-06
7.2020913e-05
1.0918874e-05
-1.7409638e-05
-7.771376e-05
0.0057031144
4.7875044e-06
1.4035692e-05
0.0059530926
-0.00018453575
1.7442294e-05
0.0062016323
-3.3182344e-05
3.1917079e-06
0.0065531081
-0.00012326289
-6.4496059e-06
0.0066741432
-1.3579198e-05
-1.0775928e-05
0.0067701564
-2.1336775e-05
-1.2894488e-05
0.0067152395
4.4769558e-06
-1.5211856e-05
0.0066659099
3.3612399e-07
-1.6850916e-05
0.0066217667
-3.8542424e-06
-1.6847782e-05
0.0066217848
2.1916802e-05
-1.5200733e-05
0.0066659174
1.411005e-05
-1.2872851e-05
0.0067152546
0.00012372899
-1.0744191e-05
0.0067701885
3.3566803e-05
-6.406601e-06
0.0066741924
0.00018483197
3.2466991e-06
0.0065531672
-4.5841506e-06
1.7504507e-05
0.0062016965
7.781898e-05
1.4094209e-05
0.0059531582
-7.197733e-05
0.0057031871
1.0993914e-05
0.0059770863
-1.7524886e-05
-0.00017159968
0.006271796
-3.2695976e-05
-2.7783097e-05
0.0066702654
-6.2166922e-05
-0.00011763033
0.0068442052
-7.8656925e-05
-1.3737723e-05
0.0069787159
-8.408954e-05
-1.8937972e-05
0.0069513271
-8.4066081e-05
1.0823025e-05
0.0069096463
-8.4843944e-05
1.0048e-05
0.006849588
-8.5988407e-05
8.6539165e-06
0.0068070081
-8.7069589e-05
4.1710016e-06
0.0067800136
-8.7755609e-05
1.6208666e-06
0.00676641
-8.8152233e-05
1.0686891e-07
0.0067601534
-8.8343636e-05
-5.6654431e-07
0.0067576462
-8.8430749e-05
-8.0960888e-07
0.0067567442
-8.8467231e-05
-8.9515295e-07
0.0067564568
-8.8485001e-05
-9.0761997e-07
0.0067563813
-8.8498316e-05
-9.2264221e-07
0.0067564063
-8.8507865e-05
-9.6366103e-07
0.0067564324
-8.8513974e-05
-9.7178952e-07
0.0067564265
-8.8523084e-05
-9.6926406e-07
0.0067564408
-8.8535606e-05
-9.7050442e-07
0.0067564458
-8.854762e-05
-9.8920952e-07
0.0067564492
-8.8559227e-05
-9.809188e-07
0.006756466
-8.8572447e-05
-9.4800437e-07
0.0067564713
-8.8586911e-05
-9.4138529e-07
0.0067565026
-8.8601846e-05
-9.4955018e-07
0.0067565115
-8.8616141e-05
-9.3862461e-07
0.0067565208
-8.8631356e-05
-9.7711021e-07
0.0067566003
-8.8645304e-05
-1.1587541e-06
0.0067569094
-8.8652378e-05
-1.767526e-06
0.0067578333
-8.8639534e-05
-3.2090708e-06
0.0067603589
-8.8576737e-05
-5.6760891e-06
0.0067666319
-8.8409605e-05
-1.0064879e-05
0.0067802519
-8.8037048e-05
-1.1353329e-05
0.0068072625
-8.7374777e-05
-1.2009883e-05
0.0068498571
-8.6317198e-05
1.7881705e-05
0.0069099295
-8.5195517e-05
1.2821961e-05
0.0069516245
-8.4439249e-05
0.00011685794
0.0069790306
-8.4480021e-05
2.7161101e-05
0.0068445239
-7.9059154e-05
0.00017112994
0.0066705854
-6.2569796e-05
-1.1308703e-05
0.0062720994
-3.3089734e-05
7.1815904e-05
0.0059773796
-1.7906274e-05
-7.8186213e-05
0.0057034442
3.8659042e-06
0.0059533641
1.4258864e-05
-0.00018591865
0.0062019092
1.7679585e-05
-3.504063e-05
0.0065533777
3.4389078e-06
-0.00012559101
0.0066743857
-6.1995513e-06
-1.6330126e-05
0.0067703302
-1.0524076e-05
-2.4450945e-05
0.006715326
-1.2637885e-05
1.0731945e-06
0.0066658912
-1.4951625e-05
-3.2779751e-06
0.0066216377
-1.6580508e-05
-7.4722222e-06
0.00662148
-1.656552e-05
1.8391767e-05
0.0066654759
-1.4906633e-05
1.0791625e-05
0.0067146518
-1.2570178e-05
0.00012072857
0.0067694202
-1.0433779e-05
3.1016743e-05
0.0066732609
-6.103564e-06
0.00018280492
0.0065521301
3.5392509e-06
-5.9875473e-06
0.0062005408
1.7799216e-05
7.7083893e-05
0.0059519235
1.442271e-05
-7.1594248e-05
0.0057018414
1.1704573e-05
0.0059758772
-1.6816582e-05
-0.00017055142
0.0062705958
-3.2000856e-05
-2.6420069e-05
0.0066690694
-6.1462007e-05
-0.00011593963
0.0068429787
-7.7935908e-05
-1.173857e-05
0.0069775073
-8.3364641e-05
-1.6650898e-05
0.0069501664
-8.3350292e-05
1.3354441e-05
0.0069085645
-8.4145325e-05
1.2778852e-05
0.0068485915
-8.531279e-05
1.1538976e-05
0.0068060916
-8.6419161e-05
7.1682767e-06
0.0067791685
-8.7130972e-05
4.6940598e-06
0.0067656288
-8.7552236e-05
3.227497e-06
0.0067594288
-8.7766888e-05
2.5786246e-06
0.0067569707
-8.7876328e-05
2.3405606e-06
0.0067561142
-8.7935381e-05
2.2733647e-06
0.0067558524
-8.7971771e-05
2.2113365e-06
0.0067558387
-8.7996544e-05
2.159335e-06
0.0067558741
-8.8019931e-05
2.0992859e-06
0.0067559069
-8.8042581e-05
2.0344068e-06
0.0067559338
-8.8062492e-05
1.9725012e-06
0.0067559562
-8.8081696e-05
1.9243608e-06
0.00675597
-8.8101667e-05
1.8824549e-06
0.0067559897
-8.8119381e-05
1.8292805e-06
0.0067560165
-8.8134138e-05
1.7648459e-06
0.0067560345
-8.8148609e-05
1.7009722e-06
0.0067560476
-8.8163516e-05
1.6420023e-06
0.006756065
-8.8178369e-05
1.5777887e-06
0.0067560872
-8.8191093e-05
1.468762e-06
0.0067561662
-8.8201274e-05
1.1965793e-06
0.0067564644
-8.8204677e-05
4.9693333e-07
0.0067573861
-8.818699e-05
-1.0467236e-06
0.006759918
-8.8117689e-05
-3.6271223e-06
0.0067661961
-8.7942783e-05
-8.140121e-06
0.0067798221
-8.7560597e-05
-9.5675636e-06
0.00680684
-8.6886587e-05
-1.0385847e-05
0.0068494434
-8.5815357e-05
1.9318941e-05
0.0069095238
-8.468023e-05
1.4050999e-05
0.0069512242
-8.3911769e-05
0.00011786968
0.0069786306
-8.3945066e-05
2.7950128e-05
0.0068441353
-7.8520965e-05
0.00017171097
0.0066701971
-6.2039712e-05
0.0062717194
-3.2575227e-05
-2.5236848e-05
0.0063613202
-4.1170154e-05
-1.6054273e-05
0.0067314544
-7.0439915e-05
-5.0392228e-05
0.0069656423
-8.7169101e-05
-3.0533133e-05
0.0070512028
-9.2431247e-05
-2.5910219e-05
0.0070394891
-9.2887891e-05
-1.2152115e-05
0.0069880168
-9.2251077e-05
-6.2656718e-06
0.0069357491
-9.2192148e-05
-3.5398619e-06
0.0068962994
-9.2185212e-05
-3.4258639e-06
0.0068720567
-9.2348677e-05
-3.8617215e-06
0.0068591228
-9.249086e-05
-4.3744904e-06
0.006853018
-9.2587255e-05
-4.7616534e-06
0.0068503976
-9.2624365e-05
-5.0329831e-06
0.0068493611
-9.2625347e-05
-5.2394908e-06
0.0068489762
-9.2603475e-05
-5.4205568e-06
0.0068488349
-9.2566586e-05
-5.6019527e-06
0.0068487707
-9.2524308e-05
-5.7965282e-06
0.006848723
-9.2480878e-05
-5.9954803e-06
0.0068486668
-9.2433353e-05
-6.1824856e-06
0.0068485864
-9.2382885e-05
-6.2502465e-06
0.0068483874
-9.2330005e-05
-6.4271352e-06
0.0068484188
-9.2271891e-05
-6.7224057e-06
0.0068484609
-9.2209401e-05
-6.9125939e-06
0.0068482679
-9.2143917e-05
-7.0903137e-06
0.0068481578
-9.2073234e-05
-7.2527595e-06
0.0068480344
-9.1997828e-05
-7.3974436e-06
0.0068479018
-9.1918448e-05
-7.4358039e-06
0.00684772
-9.1829212e-05
-7.5834334e-06
0.0068479849
-9.1723056e-05
-7.794483e-06
0.0068487732
-9.1591444e-05
-8.0600538e-06
0.0068511148
-9.1420493e-05
-8.1577277e-06
0.0068569151
-9.1188617e-05
-7.594253e-06
0.0068695153
-9.0910219e-05
-4.2850261e-06
0.0068933926
-9.0610155e-05
2.3419434e-06
0.0069324464
-9.0481819e-05
1.7015036e-05
0.0069842997
-9.0408302e-05
2.2727148e-05
0.0070353743
-9.0919995e-05
4.3824762e-05
0.0070467701
-9.0360459e-05
1.0810605e-05
0.0069610329
-8.5040057e-05
2.1338558e-05
0.0067268635
-6.8322047e-05
-2.5803783e-05
0.0063568467
-3.9108643e-05
-4.9023073e-06
0.0059676708
-1.2695044e-05
0.005698592
-1.6528967e-06
0.0056782464
1.2230385e-05
8.115208e-06
0.0056742272
2.3768282e-06
1.642448e-06
0.0056692828
1.0539725e-06
3.8903431e-06
0.0056606702
1.6601388e-06
6.9525322e-06
0.0056542216
-7.8461907e-07
7.2331993e-06
0.0056484162
-2.1258781e-06
7.9312869e-06
0.0056409875
-1.7160801e-06
9.1447369e-06
0.0056064262
1.3308262e-05
2.1253043e-05
0.005455206
7.6199059e-05
7.5021124e-05
0.0048630988
0.00030313947
0.00028896778
0.0028224543
0.0010406513
0.00099999315
0.0011969982
0.00051987325
0.0011055829
0.00066200225
0.00040204462
0.00013295134
0.00068928652
2.9210471e-05
-5.6494745e-05
0.00066208459
-8.1123968e-06
3.5314324e-05
0.00030696631
0.00019880573
0.00015631255
0.00010075799
0.00010185162
0.0001043567
6.7541123e-05
5.7283925e-05
-2.4067059e-05
6.2775449e-05
9.7538694e-06
-4.9881955e-06
0.0001229673
-1.1644361e-05
-4.854749e-05
0.00013751627
2.0610149e-06
-1.6609991e-05
0.00019853624
-2.4805082e-06
-5.8539458e-05
0.00017356213
-4.4705017e-06
2.9444611e-05
0.00016673748
4.5679038e-06
2.2567522e-06
0.00024741152
-1.2393856e-06
-7.9434658e-05
0.00023539487
-1.7030328e-07
1.2186957e-05
0.00020223604
-8.8424371e-06
4.200126e-05
0.00018777184
5.1348081e-06
9.3293958e-06
0.00026817364
-2.4446532e-06
-7.7957146e-05
0.00024466738
-9.5194254e-07
2.4458198e-05
0.00020999853
2.7071614e-07
3.4398137e-05
0.00016540208
8.2638291e-06
3.6332621e-05
0.00013139946
2.8833378e-05
5.1692434e-06
0.00019264444
4.605407e-06
-6.5850388e-05
0.00032179281
-8.5045903e-05
-4.4102473e-05
0.00034063463
-7.8872939e-05
6.0031128e-05
0.0001547088
0.0001311272
5.4798622e-05
0.00012580858
1.8432083e-05
1.0468141e-05
0.00010473869
4.0847428e-06
1.6985142e-05
9.2347109e-05
-4.9731528e-06
1.7364735e-05
0.00018951647
-6.7442863e-05
-2.9726501e-05
0.00053726191
-6.6399768e-05
-0.00028134567
0.0004503721
-1.811467e-05
0.00010500448
0.00019449057
3.7833188e-05
0.00021804834
9.6870126e-05
5.7436769e-05
4.0183675e-05
0.00010291481
6.3543919e-06
-1.2399072e-05
0.00019071618
-1.3160305e-05
-7.4641073e-05
0.00024552087
-3.8213971e-05
-1.6590712e-05
0.00027259509
-2.5319595e-05
-1.7546266e-06
0.00028441587
-1.2022518e-05
2.0173349e-07
0.00028760834
-6.2884023e-06
3.0959376e-06
0.0002872889
-3.6527688e-06
3.9722079e-06
0.00028482322
-2.2014221e-06
4.6671035e-06
0.00028157813
-1.4385937e-06
4.6836854e-06
0.00027811002
-1.1984794e-06
4.6665835e-06
0.00027423396
-8.9139391e-07
4.7674523e-06
0.00027027032
-8.4095357e-07
4.8045947e-06
0.00026531207
-6.2046673e-07
5.5787216e-06
0.0002589964
-4.3998242e-07
6.7556499e-06
0.00024948002
1.3391195e-07
9.3824643e-06
0.00023365196
1.7602613e-06
1.4067802e-05
0.00020656802
5.5246731e-06
2.155927e-05
0.00016976236
1.0430188e-05
2.6375466e-05
0.00013793013
3.012252e-05
1.7097103e-06
0.00020587091
5.2696314e-06
-7.3210404e-05
0.00035776144
-7.4172111e-05
-7.7718425e-05
0.00042757441
-9.2771193e-06
-6.0535844e-05
0.00043455137
1.2852911e-05
-1.9829874e-05
0.00038995736
5.5357466e-05
-1.0763461e-05
0.00018431758
4.9536767e-05
0.00015610302
0.00017115041
-1.9770958e-06
1.5144257e-05
0.00018345926
-2.3179828e-07
-1.2077045e-05
0.00018292838
6.7344556e-07
-1.425689e-07
0.00016850826
1.6658899e-06
1.2754229e-05
0.00018641204
-1.7252711e-06
-1.6178508e-05
0.00038829402
-4.7655103e-05
-0.00015422687
0.0003943674
-2.8010275e-05
2.1936892e-05
0.00034436244
-4.9372285e-06
5.4942191e-05
0.0001994848
6.9395318e-05
7.5482317e-05
0.0001343574
7.1000591e-05
-5.8731914e-06
0.00016655663
-1.7982125e-06
-3.0401016e-05
0.00020343203
-2.545461e-05
-1.1420793e-05
0.0002303438
-2.0439184e-05
-6.4725819e-06
0.00024594495
-1.2796197e-05
-2.8049502e-06
0.00025479968
-7.7797839e-06
-1.0749538e-06
0.0002602659
-4.8679309e-06
-5.9828525e-07
0.00026438801
-3.6622246e-06
-4.5988351e-07
0.00026752735
-2.7424877e-06
-3.9685684e-07
0.00027020416
-2.2706938e-06
-4.0611251e-07
0.00027308913
-2.4340996e-06
-4.5086744e-07
0.00027582454
-2.3522787e-06
-3.8313048e-07
0.00027846321
-2.2481659e-06
-3.905077e-07
0.00028148528
-2.5919122e-06
-4.3016296e-07
0.00028441501
-2.5822137e-06
-3.4750984e-07
0.00028710249
-2.3932141e-06
-2.9427156e-07
0.00028994057
-2.4906562e-06
-3.4741583e-07
0.00029222888
-2.2503798e-06
-3.7939998e-08
0.00029324241
-1.4942709e-06
4.8074473e-07
0.00029266033
-5.8843371e-07
1.1705192e-06
0.00028893123
8.1973545e-07
2.9093571e-06
0.00027956115
2.7103927e-06
6.6596878e-06
0.00026297224
2.9918121e-06
1.3597098e-05
0.00025262587
-8.8230869e-06
1.9169463e-05
0.00029375771
-1.6637278e-05
-2.4494566e-05
0.00066702833
-0.00012362127
-0.00024964934
0.0012207976
-0.00028956665
-0.00026420266
-0.0001058986
-5.9132324e-05
-0.0061797345
2.3603095e-05
-4.9400098e-05
9.3260062e-06
-0.0061644782
2.2272582e-05
-4.6505401e-05
8.9765256e-06
-0.0061506281
2.061617e-05
-4.2961494e-05
8.4952753e-06
-0.0061382588
1.8793705e-05
-3.9093183e-05
7.9301852e-06
-0.0061273469
1.6922759e-05
-3.5148706e-05
7.3140713e-06
-0.006117803
1.5087334e-05
-3.1302696e-05
6.671466e-06
-0.006109511
1.3350383e-05
-2.7672955e-05
6.0305402e-06
-0.0061023443
1.1749985e-05
-2.4329155e-05
5.412438e-06
-0.0060961615
1.0297916e-05
-2.1302576e-05
4.8218534e-06
-0.0060908141
8.9951572e-06
-1.8600773e-05
4.258271e-06
-0.0060861529
7.845767e-06
-1.6223583e-05
3.716548e-06
-0.0060820089
6.8572315e-06
-1.4175317e-05
3.1740813e-06
-0.0060781661
6.0435199e-06
-1.2479615e-05
2.5933168e-06
-0.0060743602
5.4556755e-06
-1.1182186e-05
1.9205974e-06
-0.006070327
5.0874899e-06
-1.0323807e-05
1.203175e-06
-0.0060660088
4.9579636e-06
-9.8818458e-06
6.0570372e-07
-0.0060616536
4.3983903e-06
-9.7942652e-06
1.0405888e-06
-0.0060580773
4.6018914e-06
-1.0011053e-05
1.8328576e-06
-0.0060532466
3.0302349e-06
-9.5874079e-06
1.7265292e-06
-0.006037407
3.2962791e-06
-8.8338118e-06
-1.0302096e-05
-0.0060065361
1.1433413e-06
-2.3837207e-06
-2.9630485e-05
1.163083e-05
-9.8940722e-06
-3.6202366e-05
2.3344183e-06
0.0064411209
-7.0504218e-05
-1.1888337e-05
0.0068417028
-9.6025601e-05
-2.3913064e-05
0.0070860721
-0.00010840505
-2.7996326e-05
0.0071668945
-0.00011160846
-2.4633482e-05
0.0071475146
-0.00011138833
-1.8976613e-05
0.0070929242
-0.00011056428
-1.3593646e-05
0.0070403293
-0.00010996319
-1.0341177e-05
0.0070026048
-0.0001095578
-8.9015553e-06
0.0069799592
-0.00010934205
-8.5701888e-06
0.0069680281
-0.00010923665
-8.737815e-06
0.0069623627
-0.0001091771
-9.0851643e-06
0.0069598697
-0.0001091247
-9.4675193e-06
0.0069588106
-0.00010906714
-9.7261958e-06
0.0069582361
-0.0001090012
-1.0079771e-05
0.0069581148
-0.00010892637
-1.0429188e-05
0.0069579651
-0.00010884497
-1.0783184e-05
0.0069578354
-0.00010875835
-1.1140928e-05
0.0069576903
-0.00010866579
-1.1497557e-05
0.0069575094
-0.0001085664
-1.1956664e-05
0.0069573072
-0.00010846069
-1.2305726e-05
0.0069571176
-0.00010834974
-1.2548453e-05
0.0069569338
-0.00010823022
-1.2897926e-05
0.0069567169
-0.00010809949
-1.3236835e-05
0.0069564562
-0.00010795943
-1.3552384e-05
0.0069561601
-0.00010781015
-1.3837174e-05
0.0069558361
-0.00010764944
-1.4182587e-05
0.006955542
-0.00010747653
-1.4345234e-05
0.0069554387
-0.00010729113
-1.4362624e-05
0.006955882
-0.0001070914
-1.4065217e-05
0.0069576974
-0.00010688002
-1.3095223e-05
0.0069626171
-0.00010667199
-1.0800918e-05
0.0069737287
-0.00010650775
-6.431227e-06
0.0069954761
-0.00010645324
3.7797063e-07
0.0070322264
-0.00010658925
7.805633e-06
0.0070837964
-0.00010692433
1.3284998e-05
0.0071373885
-0.00010749356
1.1605511e-05
0.0071559513
-0.0001075017
2.1450615e-06
0.0070746816
-0.00010418824
-9.5038012e-06
0.0068303759
-9.186353e-05
-1.6342864e-05
0.0064302166
-6.6530772e-05
0.0059960014
-3.2443054e-05
0.0060175117
4.6592804e-06
-2.379273e-05
0.0060205979
2.4612706e-07
-2.2783646e-06
0.0060101005
3.6586573e-07
1.179161e-05
0.0059968088
-1.0592089e-06
1.3566289e-05
0.0059836604
-3.4165926e-06
1.4439179e-05
0.0059674803
-3.3150721e-06
1.7779024e-05
0.0059349144
1.3442178e-05
3.2432019e-05
0.0058443474
8.2029053e-05
8.4737012e-05
0.0055845684
0.00026972593
0.00029319252
0.0022848817
0.0024427896
0.00046964234
0.0014279061
0.00014372504
0.0013129067
0.0013481231
0.00018055377
0.0010584274
0.0013475334
0.00022647481
0.0009889355
-0.0023296971
0.0012948406
0.0011391097
0.00067991843
-0.0027076427
0.0011150894
0.00014048659
-0.00010922987
0.0009702491
0.00013760387
1.7614084e-05
0.00085862887
-5.5837927e-05
-3.8895611e-06
0.0011237314
-0.00011329229
2.5636989e-05
0.00115364
-0.00012473908
0.00025988112
0.0011196686
-4.1005972e-05
0.00063431709
2.7608657e-05
0.00069695266
-3.3425098e-05
0.00080221062
-0.00014657469
3.3204325e-05
0.00024784276
9.6516824e-05
0.00034579471
0.00031086206
0.00017478661
0.0001043415
7.0566264e-05
6.2274517e-06
0.00012463319
5.9139917e-05
-1.5213947e-05
5.6500693e-05
7.0106831e-06
6.2368544e-05
3.8860187e-06
0.00014339324
-3.0912216e-05
-6.1756838e-05
0.00014527985
2.5122706e-06
-2.3378722e-06
0.00022045764
2.6393022e-06
-8.0297601e-05
0.00020050842
-1.2918648e-05
2.8397373e-05
0.00017586242
3.6847225e-06
2.5529177e-05
0.00026697488
6.8580519e-06
-9.9209899e-05
0.00027461876
-2.895516e-05
2.1140981e-05
0.00022441743
1.9262835e-06
3.9432609e-05
0.00019047255
8.4663844e-06
3.0613299e-05
0.00028435823
5.8745145e-06
-0.00010220484
0.00029183439
-3.2546452e-05
2.4118348e-05
0.00025682929
-4.0380913e-06
3.9313906e-05
0.0001984577
3.3846871e-05
3.2788554e-05
0.00015399453
4.600892e-05
2.7287621e-05
0.00019384296
-3.5243016e-05
0.00015592161
-4.7124557e-05
0.00015240006
-6.3499116e-05
-1.1852273e-05
-0.00014177176
5.2084746e-05
0.00041871959
-0.00017663252
-0.00027093437
1.3433671e-05
5.2229827e-05
-0.00030455611
1.7572422e-05
6.2058237e-05
-0.00032974722
1.3590787e-05
4.5447188e-05
-0.00037716535
1.2643287e-05
3.0736758e-05
-0.00035306614
-0.00012324525
6.6599586e-05
-0.000264797
0.00013232709
-0.00021472171
-0.00031510695
-1.9016038e-05
7.779237e-05
-0.0003609671
-1.3712878e-07
4.7923564e-05
-0.00034250474
-0.0001194947
7.2077185e-05
-0.0002516019
0.00012936365
-0.00021340843
-0.0002990571
-7.0592679e-06
5.8199188e-05
-0.00028796789
-0.00011028643
8.6278577e-05
-0.00020862918
0.00010532768
-0.00018202709
-0.00021891363
-1.2198812e-05
2.4995539e-05
5.7451052e-05
-0.00018264371
-8.8527551e-05
9.564631e-05
0.00024190366
-0.00019157137
-3.7741288e-05
3.5419401e-05
-5.2841697e-05
-3.3363967e-05
9.4256362e-06
-4.9195529e-05
2.0286046e-06
-0.00010039078
1.7806803e-05
7.1595306e-05
2.0414305e-05
-0.00010673068
2.238399e-05
-2.6228054e-05
1.0183967e-05
5.2198684e-05
-0.00030026222
-2.7499358e-05
0.00016883221
0.00019497938
8.24635e-05
-0.00039802695
0.00017278276
-1.160162e-05
8.5286055e-05
1.536988e-06
0.00011975795
8.2767253e-05
1.0478617e-05
4.0069742e-05
2.1722188e-05
3.8782125e-05
2.034155e-05
1.5941501e-05
3.7866911e-06
-5.0542546e-05
3.57934e-05
3.5861697e-05
-7.7100122e-07
0.00012403733
-6.7565167e-05
4.4438783e-05
8.7314958e-05
2.8076987e-05
8.6706846e-05
7.8404535e-05
-2.5026287e-05
0.00024607511
7.0336589e-05
8.2262997e-05
0.00012342787
5.1463762e-06
3.5237866e-05
0.00010374428
-2.6440036e-05
0.00032999099
3.7369336e-05
-0.00014018819
0.00027764334
-1.1998573e-05
5.7286956e-05
8.7241865e-05
0.00014476372
-9.7223139e-06
5.5360074e-05
0.00012633914
-2.9228325e-05
0.00039470965
3.9416083e-05
-0.00016302288
0.00036324829
-1.0744914e-05
4.2069152e-05
0.00028345247
-2.0601508e-05
8.1381288e-05
9.12897e-05
0.00014927963
-9.7732176e-06
5.2656355e-05
0.0001345287
-3.4157166e-05
0.00040976536
4.1283537e-05
-0.00016724056
0.00040350689
-1.79417e-06
2.0695931e-05
0.00036713618
-6.7926744e-07
5.0640759e-05
0.00031842269
5.7203212e-06
6.0565594e-05
0.00025880481
-1.6123077e-06
7.4663855e-05
0.00040051851
-0.00025177168
0.00016214273
-7.1677141e-06
0.00045311719
7.1910047e-05
-0.00011734101
2.8725084e-05
0.00035073192
3.2094871e-05
0.00015261897
7.2333171e-06
0.00016982307
1.2279836e-06
0.00013788592
1.2853062e-05
2.3168833e-05
0.00012247319
1.0439573e-05
5.9790199e-05
-4.7598718e-06
-0.00029403826
3.071222e-05
0.00029360784
2.9508401e-05
1.664109e-05
5.2905633e-05
0.00039384367
4.0577716e-05
3.5336897e-05
0.00033431462
2.8032047e-05
6.2209225e-05
-5.9773572e-05
0.00048635973
0.00030901494
-0.00040128648
0.00050330846
-0.00033587396
0.0004404113
0.00039958251
7.0379393e-05
-0.00015626033
0.00021744065
-7.1122426e-05
0.00024721135
0.00030215557
-0.00027137836
0.00025884787
0.00034099057
-0.00031055913
6.0859319e-05
4.8700847e-05
-0.0001041076
-5.3696919e-05
-0.00043917179
-1.9254458e-05
0.00030705822
4.7260428e-05
-0.00046679796
-3.8320618e-06
5.9490271e-05
-0.00045901869
1.2940481e-05
1.9857974e-05
-0.00015964765
5.2786281e-05
-0.00019027276
-0.00016188457
-0.00030265534
-5.2773751e-07
5.3825507e-05
8.9709925e-05
-0.00037331459
-5.5443766e-06
7.4591318e-05
-0.00042168616
-2.4926893e-06
5.6584583e-05
-0.00046946888
1.5236685e-05
3.1866765e-05
-0.00041281756
-0.00013281
7.4364508e-05
-0.00027286553
0.00015141576
-0.00025008425
-0.00034013764
-2.1223993e-05
7.8722886e-05
-0.00042163925
1.9603761e-06
5.8939724e-05
-0.00039517764
-0.0001300444
9.2837876e-05
-0.00026368496
0.00015016922
-0.00024224582
-0.00034727645
1.5448656e-06
7.2324318e-05
-0.00034040703
-0.00012050308
0.00010163509
-0.00021889132
0.00013635165
-0.00022049803
-0.00025627488
2.9319234e-06
3.9598008e-05
5.1003923e-05
-0.00014155931
-0.00014433798
9.8511716e-05
0.00026296892
-0.00016613873
-3.2039775e-05
-4.3154353e-05
-3.3282156e-05
-1.7359119e-05
1.260845e-06
9.0963525e-05
-0.00011581711
7.494463e-06
5.3339572e-05
-5.5303992e-06
-0.0002431155
9.0529103e-05
0.00015498815
5.0937823e-05
-0.00095230465
0.0001079888
0.00031787073
0.00039063961
-2.2023933e-05
-0.0011506345
-4.4951664e-05
1.3105265e-05
0.00023017625
4.7881873e-05
-3.2388252e-05
-1.2488164e-05
0.0010041342
1.6841605e-05
0.00035741016
0.00039625762
0.00016513404
-2.2661137e-05
-6.7971274e-05
-0.0012726422
0.00042752261
0.00039733147
0.00033443898
-1.9160077e-05
0.00015592714
0.00033888001
6.972233e-06
-8.6361677e-05
-1.4029052e-05
0.00015968656
0.00031880005
-9.0652089e-05
-0.00039296555
-1.2326291e-05
0.00015434751
-0.00010249718
0.00031244416
-0.00036599725
1.8073905e-06
-0.00015001976
3.8310385e-05
0.00016676698
-6.919129e-05
-7.7915005e-05
0.00011324894
1.0915118e-05
-4.4441659e-05
-0.00037834551
0.00019521709
-4.4806336e-05
-0.00081347179
0.0001134993
0.00026553486
0.00021240468
-0.00074138266
-4.2096574e-05
5.3217619e-06
-0.0006397722
-0.00011166053
-4.644467e-05
-0.00067378267
0.00016696181
9.9504156e-05
0.00033229606
-0.0021343829
0.00090410199
0.00022025877
0.0011095263
-0.005548862
0.00038700819
0.002543234
0.0014842301
-0.0057741816
0.00023651692
0.0002777705
-0.0058689581
9.9306486e-05
7.0491129e-05
-0.0059040328
3.9916217e-05
1.6411508e-05
-0.0059212065
2.3294531e-05
3.0238949e-06
-0.0059345171
1.8939928e-05
2.3020046e-06
-0.0059475305
1.5847404e-05
4.3991388e-06
-0.0059581957
1.1821953e-05
5.795825e-06
-0.0059566429
6.0672191e-06
-3.7296929e-06
-0.0059407016
3.6601936e-06
-1.7959025e-05
-0.0059238613
8.2528321e-06
-1.6977885e-05
1.5080801e-05
1.1328421e-05
-3.7111906e-05
0.0062496747
3.0588105e-06
-2.3185491e-05
0.0065510842
-1.2880436e-05
-5.2911173e-05
0.0067260714
-2.3084832e-05
-2.6239671e-05
0.0067699165
-2.7167856e-05
-1.7353964e-05
0.0067345031
-2.8736991e-05
-4.6726162e-08
0.0066775829
-2.9414243e-05
1.0601504e-05
0.0066408625
-3.0030695e-05
2.0834822e-05
0.00664149
-3.008558e-05
3.7169455e-05
0.006679137
-2.9580353e-05
4.4459209e-05
0.0067370506
-2.9014333e-05
6.8929339e-05
0.0067734247
-2.7564625e-05
3.6471775e-05
0.0067304163
-2.3573054e-05
4.7286736e-05
0.0065559948
-1.343202e-05
-8.1943736e-06
0.0062549285
2.4618068e-06
5.1627765e-06
0.0059293361
1.067085e-05
0.0057043977
4.2093266e-06
0.0056915331
1.7796868e-06
1.1084929e-05
0.0056990375
-8.2115427e-06
7.0714878e-07
0.0057093331
-9.5681667e-06
-7.2743414e-07
0.0057190438
-1.0022129e-05
3.1137992e-07
0.0057317179
-1.2172895e-05
-5.0119201e-07
0.0057441918
-1.2947525e-05
4.7364681e-07
0.0057578447
-1.4333927e-05
6.8103261e-07
0.0057719692
-1.5460855e-05
1.3363387e-06
0.0057870458
-1.685656e-05
1.7800036e-06
0.0058034445
-1.8445465e-05
2.0466981e-06
0.0058214288
-2.0118621e-05
2.1343787e-06
0.0058410413
-2.1716329e-05
2.1038136e-06
0.005862174
-2.3111175e-05
1.9784537e-06
0.0058845906
-2.420227e-05
1.7856387e-06
0.0059079588
-2.4901108e-05
1.5329133e-06
0.00593188
-2.5134672e-05
1.2135492e-06
0.0059559026
-2.4870883e-05
8.4824623e-07
0.0059795363
-2.408829e-05
4.5457268e-07
0.0060022933
-2.2784235e-05
2.7195337e-08
0.0060237099
-2.098166e-05
-4.3491432e-07
0.0060433658
-1.874935e-05
-9.0654109e-07
0.006060904
-1.617379e-05
-1.3643497e-06
0.0060760329
-1.332566e-05
-1.8032818e-06
0.0060885343
-1.0277342e-05
-2.2240586e-06
0.0060982466
-7.1074558e-06
-2.6048439e-06
0.0061050874
-3.9045664e-06
-2.9362039e-06
0.0061089822
-6.6669222e-07
-3.228148e-06
0.0061100007
2.4677373e-06
-3.4862457e-06
0.0061084086
5.240177e-06
-3.6480355e-06
0.0061042277
7.9751005e-06
-3.7942648e-06
0.0060975779
1.0550559e-05
-3.9006938e-06
0.0060886379
1.2920658e-05
-3.9807306e-06
0.0060776213
1.5046576e-05
-4.0299308e-06
1.6913954e-05
-4.048597e-06
-0.0063823883
3.4999519e-05
-4.3386928e-06
-0.0063941813
3.1164088e-05
-4.3244838e-06
-0.0064037747
2.6797535e-05
-4.2834872e-06
-0.0064109485
2.1932331e-05
-4.2079796e-06
-0.006415493
1.6620078e-05
-4.1004952e-06
-0.0064172362
1.0932041e-05
-3.9487053e-06
-0.0064160699
5.0417632e-06
-3.7402424e-06
-0.0064119697
-1.2819463e-06
-3.4850061e-06
-0.0064047852
-7.8976326e-06
-3.1914546e-06
-0.0063945051
-1.4539333e-05
-2.8482104e-06
-0.0063812329
-2.1108442e-05
-2.441048e-06
-0.0063651348
-2.7437516e-05
-1.9863012e-06
-0.0063464191
-3.337517e-05
-1.5142876e-06
-0.0063253985
-3.8745734e-05
-1.0241841e-06
-0.0063024833
-4.3386946e-05
-5.0992929e-07
-0.0062781317
-4.7135146e-05
-7.3672178e-10
-0.0062528272
-4.9869744e-05
4.7694532e-07
-0.0062271015
-5.1519726e-05
9.2319566e-07
-0.0062015086
-5.2058932e-05
1.3313142e-06
-0.0061765533
-5.1541488e-05
1.6851446e-06
-0.0061526583
-5.0057751e-05
1.9604167e-06
-0.0061301709
-4.775657e-05
2.1579974e-06
-0.0061093473
-4.4818262e-05
2.2783277e-06
-0.0060902915
-4.1461486e-05
2.2871457e-06
-0.0060729627
-3.7938399e-05
2.1640472e-06
-0.0060571835
-3.4523157e-05
1.887405e-06
-0.0060427129
-3.1465017e-05
1.5336459e-06
-0.0060294492
-2.8917454e-05
1.3198097e-06
-0.0060176565
-2.6881812e-05
2.1415795e-06
-0.0060079585
-2.5226657e-05
3.3556938e-06
-0.0059988617
-2.3119514e-05
4.0006678e-06
-0.0059812808
-2.1454561e-05
-5.6945422e-06
-0.0059537346
-1.6094445e-05
-1.966325e-05
-4.4386382e-06
-1.8180179e-05
0.0063099747
-1.947058e-05
-4.0014204e-05
0.0063560094
-2.6725329e-05
-3.5403856e-05
0.006375557
-3.2512592e-05
-8.4895419e-06
0.0063824492
-3.6288696e-05
6.277025e-06
0.006389806
-3.9156149e-05
6.5726425e-06
0.0064008428
-4.1588579e-05
3.6700279e-06
0.0064142716
-4.4554103e-05
2.2077567e-06
0.0064293435
-4.8560991e-05
2.0241259e-06
0.0064460352
-5.3499686e-05
2.2848592e-06
0.0064645443
-5.9012821e-05
2.5652379e-06
0.0064850428
-6.4685766e-05
2.7258466e-06
0.0065075729
-7.0094224e-05
2.745875e-06
0.0065320237
-7.484072e-05
2.6333262e-06
0.0065581242
-7.8571164e-05
2.412872e-06
0.006585478
-8.0985936e-05
2.0907234e-06
0.0066135908
-8.1845635e-05
1.6738957e-06
0.0066418834
-8.0998296e-05
1.1858876e-06
0.006669723
-7.8361048e-05
6.5174527e-07
0.0066964837
-7.399236e-05
9.6503012e-08
0.0067216144
-6.8032529e-05
-4.8510467e-07
0.0067446054
-6.0676183e-05
-1.0605702e-06
0.0067650005
-5.2159458e-05
-1.6107458e-06
0.0067824704
-4.2754901e-05
-2.1525983e-06
0.0067967982
-3.2760744e-05
-2.6754156e-06
0.0068078349
-2.242718e-05
-3.1488827e-06
0.0068154996
-1.2013042e-05
-3.5493493e-06
0.0068198353
-1.7280833e-06
-3.889496e-06
0.0068209226
8.1376071e-06
-4.1831371e-06
0.0068188349
1.7438642e-05
-4.4189177e-06
0.0068137125
2.6333757e-05
-4.5912706e-06
0.0068057433
3.461792e-05
-4.7163992e-06
0.0067951558
4.2190261e-05
-4.805255e-06
0.0067821905
4.8982841e-05
-4.8534019e-06
5.4943933e-05
-4.8706608e-06
-0.0071260186
7.682913e-05
-5.2731444e-06
-0.0071403551
6.8594853e-05
-5.2755624e-06
-0.0071521307
5.9209183e-05
-5.2433172e-06
-0.0071610846
4.8742005e-05
-5.1701779e-06
-0.0071669799
3.7283606e-05
-5.0545179e-06
-0.0071696087
2.4955596e-05
-4.8882116e-06
-0.0071687942
1.1983252e-05
-4.6601004e-06
-0.0071644144
-1.7376402e-06
-4.370246e-06
-0.0071563952
-1.6010601e-05
-4.0216753e-06
-0.007144679
-3.0538247e-05
-3.605147e-06
-0.0071292996
-4.5021111e-05
-3.1189565e-06
-0.0071103751
-5.9099015e-05
-2.5803897e-06
-0.0070881406
-7.2390909e-05
-2.0030506e-06
-0.0070629562
-8.4479518e-05
-1.3811215e-06
-0.007035308
-9.4964445e-05
-7.1628341e-07
-0.0070057578
-0.00010348027
-6.2303411e-08
-0.0069749701
-0.00010973435
5.8559378e-07
-0.0069436712
-0.00011350289
1.2057089e-06
-0.0069126149
-0.00011469741
1.7954703e-06
-0.0068824895
-0.00011341165
2.3003035e-06
-0.0068538961
-0.00010986213
2.697599e-06
-0.0068273025
-0.00010440479
2.9705267e-06
-0.0068030021
-9.7497221e-05
3.102598e-06
-0.0067811136
-8.9660204e-05
3.0859147e-06
-0.0067615798
-8.1459022e-05
2.9124185e-06
-0.0067442134
-7.3483107e-05
2.616953e-06
-0.0067288538
-6.6302335e-05
2.3818085e-06
-0.0067157634
-6.0366166e-05
2.7215879e-06
-0.0067062675
-5.5709661e-05
4.6251919e-06
-0.0067022308
-5.1566528e-05
8.3736893e-06
-0.0066999729
-4.6751819e-05
8.2052771e-06
-0.0066818427
-4.1157859e-05
-9.4849757e-06
-0.0066280759
-3.6366957e-05
-4.412521e-05
-3.5558215e-05
-5.599344e-05
0.0068047407
-4.631343e-05
-6.3569176e-05
0.0068587077
-4.3022176e-05
-4.7311734e-05
0.0068740037
-4.6852998e-05
-9.6009011e-06
0.0068723726
-5.4029562e-05
8.9088263e-06
0.0068732297
-6.1283248e-05
8.8596598e-06
0.006880667
-6.800673e-05
4.8597146e-06
0.0068926422
-7.5227314e-05
2.8860068e-06
0.0069075417
-8.378246e-05
2.5805713e-06
0.006924937
-9.3744726e-05
2.8663755e-06
0.0069449394
-0.00010465661
3.1951655e-06
0.006967753
-0.00011584929
3.3754872e-06
0.0069934637
-0.00012658105
3.3730745e-06
0.0070219585
-0.00013609551
3.1959161e-06
0.0070529131
-0.00014366623
2.8494861e-06
0.0070857694
-0.00014862547
2.3575261e-06
0.007119789
-0.00015045943
1.742418e-06
0.0071541316
-0.00014887894
1.0334502e-06
0.0071878936
-0.00014379728
3.0096895e-07
0.0072202175
-0.00013535716
-4.4702753e-07
0.0072503395
-0.00012388959
-1.1968486e-06
0.0072776211
-0.00010983258
-1.9285451e-06
0.0073015386
-9.3710291e-05
-2.5981018e-06
0.0073217158
-7.6076166e-05
-3.2000269e-06
0.0073379239