/*--------------------------------*- C++ -*----------------------------------*\
| =========                 |                                                 |
| \\      /  F ield         | OpenFOAM: The Open Source CFD Toolbox           |
|  \\    /   O peration     | Version:  v2012                                 |
|   \\  /    A nd           | Website:  www.openfoam.com                      |
|    \\/     M anipulation  |                                                 |
\*---------------------------------------------------------------------------*/
FoamFile
{
    version     2.0;
    format      ascii;
    class       volScalarField;
    location    "433";
    object      k;
}
// * * * * * * * * * * * * * * * * * * * * * * * * * * * * * * * * * * * * * //

dimensions      [0 2 -2 0 0 0 0];


internalField   nonuniform List<scalar> 
231880
(
0.15236283
0.15140861
0.1504693
0.14954398
0.14863183
0.14773217
0.14684434
0.14596807
0.14510254
0.14424724
0.1434016
0.14256509
0.14173721
0.14091748
0.14010546
0.13930102
0.1385034
0.1377125
0.13692753
0.1361484
0.1353743
0.13460478
0.1338394
0.13307817
0.13232047
0.13156637
0.13081523
0.13006713
0.12932182
0.12857896
0.12783786
0.12709826
0.1263598
0.12562211
0.12488489
0.1241479
0.12341089
0.12267376
0.12193633
0.12119897
0.12046114
0.11972275
0.11898363
0.11824408
0.11750361
0.11676262
0.11602051
0.11527714
0.1145323
0.11378585
0.1130377
0.11228781
0.1115361
0.1107825
0.11002696
0.10927003
0.10851173
0.10775195
0.1069899
0.10622612
0.10545996
0.10469482
0.10392949
0.10318098
0.10243946
0.10173465
0.10103983
0.10041855
0.10047269
0.10137541
0.10267284
0.10429726
0.10602118
0.1079006
0.10975217
0.11158952
0.11331137
0.11495687
0.11647412
0.11794224
0.11924638
0.12047279
0.12167272
0.12268591
0.12340852
0.12409013
0.12463576
0.12494039
0.12517987
0.1252641
0.12534156
0.12531026
0.1253182
0.12541876
0.12540441
0.12524837
0.12520324
0.12522344
0.12517124
0.12512253
0.12513032
0.1253329
0.12545302
0.12563225
0.12570566
0.12595301
0.12636258
0.12675218
0.12715194
0.12761311
0.12810302
0.12866385
0.12917958
0.12966965
0.13012975
0.13066257
0.13116499
0.1316847
0.13201602
0.13246866
0.13262893
0.13287115
0.13270695
0.13263771
0.13213166
0.13171562
0.13082177
0.1300332
0.12945861
0.12901311
0.12915368
0.13016015
0.13170791
0.13431844
0.13700031
0.13979468
0.14172698
0.14303587
0.14323812
0.14290823
0.14168401
0.1403045
0.13853751
0.13696011
0.13530346
0.13394168
0.13258662
0.13160747
0.13064596
0.1299971
0.1293051
0.12884352
0.12829939
0.12786452
0.12763472
0.12751111
0.12772377
0.12765284
0.12777264
0.12805361
0.12843428
0.12877574
0.12907865
0.12931719
0.12947521
0.12958115
0.12965711
0.12972697
0.129746
0.12976486
0.12976369
0.12974211
0.12971838
0.12967985
0.1296268
0.12955717
0.1294689
0.12939602
0.12933652
0.12928405
0.12918363
0.12905027
0.12889008
0.12871468
0.12855251
0.12836095
0.12811958
0.12780557
0.12744029
0.1270366
0.12658962
0.12624539
0.12612159
0.1262616
0.12593264
0.12582898
0.12585703
0.12594515
0.12599828
0.12603646
0.12605453
0.12606116
0.12605613
0.12606189
0.12608079
0.12612501
0.12613345
0.12615983
0.12617732
0.12620431
0.12621327
0.12623024
0.12622095
0.12624108
0.12623815
0.12624389
0.12627034
0.12630737
0.12635726
0.12641786
0.12649943
0.12658126
0.12666449
0.12674471
0.12679653
0.1268499
0.12689323
0.12694149
0.12699168
0.12706225
0.1270821
0.1271299
0.12717137
0.12722799
0.12728499
0.12737537
0.12748321
0.12761508
0.12769136
0.12777493
0.12788327
0.12797908
0.12808905
0.12818539
0.12829469
0.12838429
0.12842852
0.12847082
0.12853462
0.12860394
0.12866887
0.12875283
0.12884627
0.12895726
0.12901787
0.12908903
0.12913825
0.12920479
0.12923932
0.12928522
0.12933075
0.1293804
0.1294187
0.12943983
0.12948991
0.12952394
0.12958811
0.12963747
0.12971561
0.12976658
0.12982623
0.12987216
0.12993611
0.12998677
0.13005774
0.13011167
0.13018165
0.13022131
0.13023731
0.13023335
0.13031868
0.13051427
0.13086566
0.13071537
0.13093685
0.13124886
0.13177909
0.13218842
0.13269852
0.13303894
0.133495
0.13382343
0.13433325
0.13477
0.13533076
0.13579322
0.13642401
0.13700121
0.13775506
0.13842676
0.13928939
0.1400616
0.14099167
0.14177865
0.14266954
0.14332777
0.14398737
0.14425706
0.14438305
0.1438896
0.14295021
0.1410409
0.13838087
0.13439671
0.12933956
0.12299838
0.11588783
0.1088924
0.10340644
0.1035374
0.10906178
0.11588725
0.12288691
0.12911832
0.13415885
0.13805016
0.14077396
0.14261883
0.14364324
0.14403926
0.14399403
0.14366444
0.14311068
0.14238253
0.14156984
0.14070955
0.13986823
0.13901181
0.1382396
0.13749952
0.13681555
0.13615578
0.13560625
0.13506824
0.13457053
0.1340216
0.13356819
0.13319096
0.1328281
0.13243024
0.131999
0.13152479
0.13108343
0.13069015
0.13048959
0.13030464
0.1305589
0.1310066
0.13139112
0.13185067
0.13230701
0.13274876
0.13311876
0.13348618
0.13388567
0.13440667
0.13492226
0.13548315
0.13600352
0.13667847
0.1373828
0.13813954
0.13887443
0.13977725
0.14054188
0.14139445
0.14225651
0.1430454
0.14362143
0.14394611
0.14394074
0.14360507
0.14256404
0.14067896
0.1380107
0.13415843
0.12923903
0.12305804
0.11616491
0.10956816
0.10428985
0.10543266
0.11037341
0.11674169
0.12345093
0.12947481
0.13427669
0.13798858
0.14066484
0.14249779
0.14354651
0.14394383
0.14400794
0.14362439
0.14302112
0.14217229
0.1413118
0.14052304
0.13975281
0.13889934
0.13810358
0.13733974
0.13663711
0.13599587
0.13540084
0.13483876
0.13433299
0.13384868
0.13349492
0.13308622
0.13270623
0.13222255
0.13178581
0.13138072
0.13097339
0.13048076
0.13022052
0.13021826
0.13049388
0.13095846
0.13132767
0.13176082
0.13219413
0.13262758
0.13298238
0.13340116
0.13378654
0.13428021
0.13481217
0.13536096
0.13593652
0.13660894
0.13735642
0.13808818
0.13884763
0.13971317
0.14047253
0.14128397
0.1421512
0.14295639
0.14354477
0.1439376
0.14391663
0.14358986
0.14258592
0.14074429
0.13813013
0.13441627
0.12971436
0.12394141
0.11747266
0.11144134
0.10683844
0.10836008
0.11266821
0.1183669
0.12447322
0.12999336
0.13464263
0.13828025
0.14092554
0.14266042
0.14356294
0.14392363
0.143908
0.14359799
0.1429122
0.1421345
0.14135445
0.14050607
0.13970229
0.13881489
0.13807953
0.13734131
0.13662188
0.13596344
0.13537814
0.13479452
0.13430298
0.13379949
0.13332957
0.13293384
0.13252525
0.13213355
0.13178621
0.13134576
0.13094339
0.13048745
0.13023221
0.13016555
0.13043849
0.13090741
0.13128263
0.13174813
0.132143
0.13252539
0.13295978
0.1333213
0.13374476
0.1342794
0.13471381
0.13527475
0.13588595
0.13657282
0.13725391
0.13799922
0.13879479
0.13961093
0.14039482
0.14130271
0.14213202
0.14292477
0.14356005
0.1439352
0.14395549
0.14361137
0.14271935
0.14105396
0.1384802
0.13492718
0.13036865
0.1251015
0.11929592
0.11394993
0.10996543
0.11158327
0.11526639
0.12023377
0.12571064
0.13086279
0.13525838
0.13868235
0.14112641
0.14276541
0.14364777
0.14397389
0.14389643
0.14358327
0.14288017
0.142031
0.14118864
0.14032432
0.13951573
0.13872174
0.13789429
0.13713782
0.13647713
0.13577153
0.13520252
0.1347227
0.13426385
0.13375302
0.13333171
0.13293422
0.13250674
0.13207648
0.13167535
0.13126933
0.13085936
0.13035671
0.13009189
0.13004801
0.13033886
0.13082839
0.13121181
0.13167894
0.13208037
0.13247203
0.13292324
0.13330562
0.13367049
0.13417149
0.13466832
0.13514748
0.13574816
0.13642485
0.13711522
0.13787834
0.13866704
0.13949736
0.14030899
0.14114888
0.14203712
0.14282093
0.14349927
0.14388119
0.1439843
0.14364445
0.14276439
0.14131763
0.13894361
0.13567202
0.13143431
0.12642915
0.12125165
0.11662278
0.11324503
0.11483054
0.117949
0.12226935
0.12721712
0.13196249
0.13595428
0.13911028
0.14141513
0.1428811
0.14370367
0.14388349
0.14376413
0.1433964
0.14280039
0.14200839
0.14117497
0.14029249
0.13945174
0.13854585
0.13773503
0.13700613
0.13628992
0.13564459
0.13506438
0.1346074
0.13408951
0.13359958
0.13325796
0.13289063
0.13249274
0.13207677
0.13168568
0.13121636
0.13078515
0.13026044
0.12997789
0.12993308
0.13023302
0.13072918
0.13111192
0.13155411
0.13198278
0.13242524
0.13280914
0.13315423
0.13351913
0.13402455
0.13454475
0.13502694
0.13559748
0.13620467
0.13693982
0.13763971
0.13845463
0.13927865
0.14015451
0.14102047
0.14189066
0.14266863
0.14333864
0.14375714
0.14387648
0.14373214
0.14290553
0.14154373
0.13931728
0.13630542
0.13249613
0.12802126
0.12335497
0.11925776
0.11631988
0.11782966
0.12052126
0.12432231
0.12876724
0.13295912
0.13658716
0.13943114
0.14157903
0.1429442
0.1437082
0.14384661
0.14369634
0.14324568
0.14257421
0.1418276
0.1409193
0.14008573
0.13918196
0.13835565
0.13755968
0.13684713
0.13612452
0.13550501
0.13494848
0.13444823
0.13394365
0.13346425
0.1331175
0.13278674
0.13238699
0.13189911
0.13146254
0.13106753
0.13065461
0.13014183
0.12986285
0.12981708
0.13010667
0.13058208
0.13096535
0.13139382
0.13185266
0.13229533
0.13269553
0.13307694
0.13340953
0.13389242
0.13442404
0.1349089
0.13546786
0.13607047
0.13679415
0.13749617
0.13829161
0.1390836
0.13997467
0.14084744
0.14174621
0.14251511
0.14320776
0.14363136
0.14378343
0.14362203
0.14297006
0.1416541
0.13965305
0.13685822
0.13334126
0.12940506
0.12531636
0.12171607
0.11919966
0.12044592
0.1227941
0.12613576
0.13003574
0.13377216
0.13714051
0.13978115
0.1417486
0.14294607
0.14359305
0.14375843
0.14358488
0.14308964
0.14241249
0.141599
0.14077232
0.13989622
0.13904062
0.13820041
0.13747451
0.13672067
0.13607496
0.13541321
0.13492773
0.13440508
0.13388483
0.13336946
0.13296509
0.13258021
0.1321587
0.13174948
0.13132124
0.13092388
0.13048503
0.13000531
0.12975922
0.12972013
0.12992997
0.1303977
0.13086073
0.13128131
0.13172628
0.13212189
0.13257275
0.13296782
0.13335137
0.1337878
0.1343123
0.13486105
0.13539185
0.13602175
0.13665259
0.13735534
0.13809677
0.13889861
0.13978147
0.14064936
0.14141989
0.14218649
0.14289034
0.14333048
0.14355233
0.14335395
0.14278632
0.14162697
0.13979003
0.13719424
0.13405571
0.1304923
0.12676763
0.12374678
0.12155917
0.12256727
0.12455207
0.12740587
0.13080157
0.13419951
0.13724358
0.13976598
0.14148103
0.14261729
0.14317592
0.14338517
0.14312653
0.14273289
0.14202791
0.14131444
0.14049487
0.13961903
0.13873891
0.13792189
0.13716826
0.13651462
0.13591415
0.13526454
0.13472399
0.13421613
0.13371799
0.13330234
0.13291795
0.13253365
0.13207136
0.13166198
0.13118475
0.13075124
0.13030972
0.1298454
0.12962732
0.12959292
0.12980219
0.13027328
0.1307476
0.13114045
0.13163284
0.13206446
0.1324929
0.13281336
0.1331917
0.1336632
0.13418731
0.13466232
0.13522469
0.13581628
0.13642115
0.13704748
0.13781704
0.13862501
0.13953236
0.14036695
0.14115334
0.14187794
0.14256474
0.14295837
0.14314881
0.14302672
0.14252144
0.14138878
0.1397206
0.13728091
0.13437706
0.13112607
0.12793841
0.12531997
0.12348191
0.12416101
0.12589617
0.12844094
0.13136311
0.1343655
0.13719461
0.13956715
0.1412501
0.14237757
0.14288656
0.14298578
0.14280657
0.14236827
0.14171921
0.14102499
0.14019184
0.1393649
0.13848079
0.13768034
0.13694252
0.13628639
0.13566551
0.13510894
0.1345805
0.13411061
0.13360684
0.1331337
0.13273297
0.13236772
0.13198602
0.13159374
0.13114667
0.13073488
0.13022896
0.12974149
0.12951611
0.12949502
0.12970457
0.1301789
0.13067045
0.1310662
0.13155195
0.13197872
0.13236575
0.13269481
0.13308863
0.13355979
0.13407111
0.13449744
0.13503733
0.13556861
0.13624483
0.1368689
0.13760224
0.1383565
0.13925092
0.1400417
0.14082224
0.14154877
0.14221918
0.14259353
0.14271677
0.14258554
0.14205762
0.14096887
0.13928223
0.13704654
0.13438476
0.13147367
0.12869901
0.12627669
0.12469277
0.12524243
0.12672995
0.12889089
0.13145903
0.13419281
0.13674638
0.13891354
0.1406128
0.14176588
0.14226316
0.14243488
0.14230223
0.14194521
0.14134189
0.14068965
0.13987855
0.13907335
0.13821725
0.13747052
0.13677928
0.13613851
0.13547721
0.13491957
0.13438429
0.13398743
0.13348822
0.13304774
0.13266844
0.13229208
0.13190189
0.13146412
0.13101309
0.13065912
0.13014423
0.1296581
0.12943304
0.12943471
0.12965487
0.13014205
0.1306399
0.13101795
0.13148296
0.13192432
0.13231718
0.13261323
0.13297414
0.13341398
0.13388963
0.1343115
0.13487804
0.13543085
0.1360948
0.13671231
0.13742151
0.13808591
0.13891347
0.13970075
0.14048576
0.14114003
0.14171944
0.14199289
0.14207743
0.14188386
0.14134042
0.14023745
0.13862015
0.13647073
0.13403248
0.1313813
0.12890441
0.12695977
0.12555571
0.12574142
0.1271091
0.12901183
0.13141573
0.13380936
0.13623157
0.1381982
0.13984084
0.14093049
0.14154258
0.14170556
0.14164122
0.14134204
0.14087495
0.14019188
0.13950828
0.13869377
0.13794879
0.13730184
0.13667029
0.13599592
0.13536791
0.13475945
0.13428416
0.13382527
0.13338569
0.13294238
0.13260328
0.13232009
0.13189172
0.13148546
0.13107819
0.13064843
0.13018504
0.12968308
0.12941052
0.12933592
0.12961168
0.13010593
0.13058762
0.1310548
0.13146586
0.13183172
0.13226634
0.13259587
0.1328704
0.13326368
0.13372253
0.13418914
0.13467834
0.13520282
0.13581503
0.13647957
0.13709831
0.13782749
0.13855387
0.13927969
0.13997138
0.14058819
0.1410479
0.14124033
0.14126294
0.14102395
0.14042922
0.13937895
0.13783732
0.13594781
0.13366747
0.13131377
0.12896087
0.12716926
0.12582299
0.1258937
0.12717481
0.1289043
0.13102617
0.13334231
0.13557251
0.1373617
0.13885799
0.13990874
0.14052316
0.14080059
0.14083331
0.14067979
0.14026346
0.13968454
0.1389835
0.13833479
0.13761393
0.13694755
0.1363806
0.13572016
0.13505988
0.13450773
0.13401419
0.13359007
0.13317062
0.13280302
0.13255446
0.13220569
0.1317648
0.131358
0.13094656
0.13051277
0.13005994
0.12960984
0.12930035
0.12924509
0.12953578
0.13001464
0.13048042
0.13088162
0.13131191
0.13167993
0.13209526
0.13244039
0.13273933
0.13311396
0.13355595
0.13392386
0.13443889
0.13491958
0.13552755
0.13617313
0.136782
0.13745317
0.13811335
0.1388052
0.13938731
0.13988131
0.14022806
0.14040144
0.14033752
0.14003491
0.1394398
0.13840123
0.13701055
0.13526817
0.13314452
0.1308148
0.12871393
0.1271213
0.12591115
0.12586777
0.12703813
0.12856888
0.13059797
0.13281174
0.13484366
0.13654817
0.13792824
0.13893488
0.1395677
0.13989724
0.14001978
0.1399638
0.13957046
0.13907925
0.13854194
0.13793537
0.13731909
0.13666413
0.13608461
0.1354434
0.13487073
0.13436424
0.13386236
0.13350215
0.13305253
0.13267264
0.13236159
0.13200183
0.131648
0.13124996
0.13079437
0.13040454
0.1299771
0.12954444
0.12922988
0.12915168
0.12945681
0.129926
0.13036628
0.13072207
0.13111667
0.13154998
0.13191399
0.13224558
0.13256805
0.13296408
0.1334033
0.13379867
0.13428385
0.13476566
0.13529579
0.13596248
0.13653369
0.13719158
0.13781737
0.13835434
0.1389267
0.139376
0.13964939
0.13970225
0.13952506
0.13920005
0.13856065
0.13752449
0.13622521
0.13455298
0.13263581
0.13041123
0.12841549
0.12695155
0.12586312
0.12582021
0.12687262
0.12830308
0.13021795
0.13232283
0.13421904
0.13581079
0.13711755
0.13818683
0.13888894
0.13928217
0.13948179
0.13947186
0.13916525
0.13867678
0.13814366
0.13758632
0.13699615
0.13636087
0.13581782
0.13523026
0.13473966
0.13419912
0.13369452
0.1332768
0.13286868
0.13246763
0.13218961
0.13183429
0.13147718
0.13109359
0.13066501
0.13028718
0.12987127
0.12944119
0.12911517
0.12903286
0.12933748
0.12979702
0.13022082
0.13055953
0.13095606
0.13136014
0.13169321
0.13203911
0.13236835
0.13281663
0.13325376
0.13362177
0.13405286
0.13464462
0.13515358
0.13572799
0.13622895
0.13685683
0.13746941
0.13801584
0.13856267
0.13895264
0.13918272
0.13921937
0.13909825
0.1386324
0.13785693
0.13683057
0.13554319
0.13392248
0.13210311
0.13006173
0.12819486
0.12679336
0.12574088
0.12565235
0.12669862
0.12808842
0.12991053
0.13190535
0.13373396
0.13533392
0.13667972
0.13768407
0.1384616
0.13890627
0.1390382
0.13900293
0.1387902
0.13840643
0.13793989
0.13736577
0.13677223
0.13613546
0.13559202
0.13503092
0.13453247
0.13402178
0.1336216
0.13321717
0.13275796
0.13229105
0.13195764
0.13166387
0.13133045
0.13092643
0.13049194
0.1301617
0.12977333
0.12930957
0.12900588
0.12885767
0.12917316
0.12966003
0.13005587
0.13038651
0.13082465
0.13124126
0.13158029
0.13189102
0.13222002
0.13264503
0.13310221
0.13347317
0.13386384
0.13434056
0.134828
0.13537446
0.13591204
0.1365304
0.13715889
0.13771144
0.13820644
0.13852145
0.13875891
0.13879722
0.13862554
0.1381209
0.1374177
0.13641651
0.13512436
0.13350519
0.1317643
0.12982395
0.12801353
0.12660638
0.12557387
0.12544271
0.12649605
0.12791878
0.12970609
0.13163576
0.13335798
0.13495305
0.13618905
0.13717951
0.13792061
0.13838692
0.13859618
0.13855966
0.1383373
0.13805686
0.13753901
0.13702583
0.13636877
0.13579859
0.13524775
0.13476486
0.13424973
0.13382488
0.13338007
0.13296992
0.13258143
0.13217483
0.13183215
0.13149439
0.13116633
0.13072469
0.13032518
0.12998501
0.12956578
0.12905066
0.1287566
0.12866877
0.12897849
0.12948148
0.12992493
0.13025897
0.13066922
0.13106428
0.13144372
0.13175276
0.13211148
0.13251275
0.13290364
0.13326779
0.13366184
0.13412789
0.13460834
0.13510269
0.13562309
0.13621761
0.13686507
0.13742734
0.13793315
0.13821902
0.13840453
0.13843902
0.13821018
0.13781877
0.13713612
0.13611473
0.134872
0.13324985
0.13150043
0.12969027
0.12797957
0.12647257
0.12540429
0.12542131
0.12649453
0.12804681
0.12980257
0.13156767
0.13331545
0.13486836
0.13612214
0.13707285
0.13772808
0.13810049
0.1383453
0.13836956
0.13814462
0.13777899
0.13727413
0.13671075
0.13609833
0.13556661
0.13499006
0.13452688
0.13400314
0.13358528
0.13318115
0.13281475
0.13244117
0.13204244
0.1317044
0.1313915
0.13097123
0.13056593
0.13021229
0.12986983
0.12941155
0.12889108
0.12860568
0.1285353
0.12883799
0.12931719
0.12975273
0.13016237
0.13054117
0.1309271
0.13133983
0.13162311
0.13195399
0.13235765
0.13275204
0.13308835
0.1334551
0.1338869
0.13439994
0.13489348
0.13546146
0.1359782
0.13660036
0.13713423
0.13766356
0.13802216
0.13823134
0.13823148
0.13799137
0.13757586
0.13690522
0.13597063
0.13473349
0.13319966
0.1315171
0.12977325
0.12802081
0.12651832
0.12560475
0.12575863
0.12669593
0.12803288
0.12969651
0.13150024
0.13317758
0.13463321
0.13588417
0.13688725
0.13750794
0.13795779
0.13818725
0.13822256
0.13796395
0.13754265
0.13701296
0.13645819
0.135842
0.1353009
0.13476485
0.13427554
0.13380021
0.13342717
0.13303023
0.13265519
0.13227054
0.13186557
0.13154124
0.13125852
0.13084569
0.13042329
0.13004472
0.12965942
0.12923179
0.12873893
0.12846322
0.12842794
0.12872257
0.12917628
0.12960934
0.13003486
0.1304206
0.13078501
0.13119152
0.13144488
0.13175884
0.13216903
0.13257816
0.1329499
0.1333112
0.133729
0.13422068
0.1346873
0.13525268
0.13575992
0.13637689
0.13691896
0.13748397
0.1378708
0.13810404
0.13810657
0.13790064
0.13747356
0.13685169
0.13590926
0.13469613
0.13320625
0.131464
0.12974763
0.1281027
0.12684886
0.12595305
0.12611578
0.12701813
0.12826418
0.1299484
0.13162759
0.13334875
0.13472594
0.13599487
0.13690498
0.13754787
0.13787536
0.13804154
0.13807967
0.13787714
0.13746162
0.13690958
0.13629943
0.1357176
0.13520639
0.13467314
0.13419006
0.13373631
0.133256
0.13290724
0.13249944
0.13213392
0.13169539
0.13136627
0.13107117
0.13073699
0.13036342
0.12998329
0.12955963
0.12912035
0.12867729
0.1284113
0.12829984
0.12859118
0.12903745
0.12942045
0.12982351
0.13022473
0.13065783
0.1309485
0.13129288
0.13163757
0.13208702
0.13240307
0.13283573
0.13321657
0.13365633
0.13412086
0.13456789
0.13513545
0.13568334
0.13627167
0.13680223
0.13738317
0.13780185
0.1379917
0.13803898
0.1378756
0.13752022
0.13690351
0.13602669
0.1348371
0.13347275
0.13174881
0.13010681
0.12844232
0.12722978
0.12633693
0.12663146
0.12752367
0.12878203
0.13031212
0.13197164
0.13359664
0.13487408
0.13602507
0.13692839
0.13756097
0.13792735
0.13808223
0.13800505
0.13782545
0.13738465
0.13678327
0.13626015
0.13565842
0.13505657
0.13451638
0.134077
0.13358735
0.13315011
0.13280738
0.13238477
0.13205247
0.1315935
0.13120276
0.13089343
0.13054346
0.13020217
0.12976537
0.12937519
0.12896009
0.12846332
0.12818172
0.12809395
0.12840412
0.12887678
0.12926122
0.12967382
0.13009387
0.1304653
0.13077405
0.13111981
0.13149014
0.13196674
0.1323553
0.13277155
0.13314994
0.1335689
0.13407055
0.13452624
0.13506596
0.1356978
0.13626175
0.1368174
0.13733725
0.13780721
0.13805804
0.13812417
0.13797665
0.13763157
0.13704655
0.13614719
0.13506562
0.13375109
0.13211882
0.13051803
0.12901142
0.12782404
0.12696098
0.12729123
0.12817953
0.12938155
0.13080644
0.13238915
0.13385129
0.13519088
0.13628959
0.13715047
0.13771013
0.13799627
0.13816368
0.13806624
0.13773647
0.13726937
0.13672636
0.1361846
0.1356589
0.13500508
0.13445577
0.13399947
0.13360396
0.1331358
0.13269217
0.13226864
0.13185466
0.13142201
0.13105547
0.13072891
0.1304417
0.13005409
0.12961747
0.12922246
0.12880158
0.12828004
0.12798151
0.12789375
0.12821676
0.12870766
0.12909181
0.12949651
0.12992212
0.13037249
0.13070748
0.13100432
0.13136167
0.13178305
0.13221749
0.13260798
0.13302851
0.13355454
0.13401094
0.13446229
0.13506676
0.13567771
0.13622201
0.13673551
0.1373332
0.13776772
0.1380759
0.13818977
0.1380795
0.13784652
0.1373553
0.13650754
0.13546657
0.13408746
0.13260729
0.13109968
0.12970742
0.12859412
0.12774418
0.12824857
0.12906767
0.13018705
0.13151316
0.13301631
0.13441364
0.13568036
0.13670689
0.13749503
0.1380351
0.13826039
0.13837399
0.13821545
0.1378479
0.13733537
0.13677083
0.13620677
0.135626
0.13505145
0.13453652
0.13399936
0.13354624
0.13302495
0.13254129
0.13216335
0.13172911
0.1313148
0.1309443
0.13059458
0.13025178
0.1298613
0.12942717
0.12902903
0.12860886
0.12808403
0.12778105
0.12771197
0.12803065
0.12850825
0.12889545
0.12931975
0.12975062
0.13016435
0.13051237
0.130834
0.13119336
0.13163066
0.13204821
0.13248588
0.13294179
0.13351851
0.13400762
0.13455694
0.13507436
0.13567674
0.1363145
0.13689168
0.13751333
0.13799101
0.13833382
0.13854393
0.13854556
0.13828007
0.13777577
0.13700617
0.13605964
0.13480442
0.13336844
0.13192526
0.13057626
0.12951993
0.12875948
0.12929313
0.13002651
0.13112457
0.13251755
0.13390776
0.13530945
0.13640258
0.13737408
0.13808757
0.13859585
0.13880337
0.13884502
0.13860418
0.13825117
0.13770584
0.13710442
0.13641661
0.13577852
0.13514185
0.13456877
0.13398743
0.13344391
0.13294152
0.13250171
0.13204747
0.13163125
0.13113376
0.13075713
0.13040376
0.13005921
0.12972094
0.12930942
0.12884812
0.12841862
0.12795453
0.12767303
0.12750781
0.1278164
0.12826509
0.12875638
0.12922376
0.12961241
0.1300039
0.13036547
0.13068612
0.13105919
0.13153359
0.13198962
0.13240173
0.13287059
0.1333538
0.13395545
0.13459679
0.13521006
0.1358394
0.1364897
0.13721776
0.13789444
0.13840059
0.13882518
0.13907205
0.1389885
0.13881033
0.13840257
0.13773063
0.13682886
0.13574388
0.13427798
0.1328748
0.1315643
0.13050574
0.12979039
0.13025079
0.13096581
0.13198984
0.1333378
0.13481396
0.1362024
0.13719891
0.13806262
0.13873749
0.13914186
0.13933323
0.13926791
0.13901501
0.1385636
0.13808395
0.13737355
0.13668178
0.13595371
0.1353041
0.13460719
0.13396264
0.13334935
0.13283647
0.13234779
0.13195534
0.13146847
0.13100622
0.13062992
0.13027369
0.12992446
0.1295039
0.12913879
0.12868679
0.12815794
0.12772263
0.12739787
0.1272919
0.12759277
0.12805974
0.128589
0.12906889
0.12943221
0.12988028
0.13026955
0.13059904
0.13096855
0.13144534
0.1319313
0.13235539
0.13288656
0.13339305
0.13404258
0.13466184
0.13535427
0.13605102
0.13678928
0.13753445
0.13826117
0.13880128
0.13931799
0.13956374
0.13965321
0.13954233
0.13921449
0.13854031
0.13772863
0.1366808
0.13525383
0.13383207
0.13253608
0.13146867
0.13072288
0.13126294
0.13197023
0.1330034
0.13435907
0.1358263
0.13709583
0.13816252
0.13899282
0.13961803
0.13995679
0.14009058
0.1399041
0.13964541
0.13908594
0.13846839
0.13772894
0.13701907
0.13621435
0.13552349
0.13477106
0.13408406
0.13346727
0.13292617
0.13237566
0.13188797
0.13141626
0.13095742
0.13063494
0.13024612
0.12984066
0.12937398
0.12899736
0.12852896
0.12800823
0.12756928
0.1272463
0.12717683
0.12747425
0.12793011
0.12841731
0.12891706
0.12932165
0.12974523
0.13015266
0.13061603
0.13096294
0.13142198
0.13190826
0.13237333
0.13289676
0.13351951
0.13419946
0.13487869
0.13561954
0.13639997
0.13723167
0.13798792
0.138797
0.13944663
0.14004023
0.14031249
0.14047548
0.14040576
0.14009375
0.13943383
0.13864298
0.13753512
0.13627481
0.13487254
0.13356978
0.13248747
0.13174855
0.13222265
0.13293614
0.13399506
0.13535701
0.13680151
0.13800726
0.13908946
0.13990006
0.14057739
0.14088676
0.14094421
0.14075543
0.14038422
0.1397959
0.13913179
0.13829907
0.13745809
0.13662071
0.13584185
0.13501437
0.13426997
0.13357535
0.13295125
0.1323462
0.13185278
0.13138391
0.13093853
0.13055581
0.13013371
0.12971191
0.12927086
0.12882867
0.12837289
0.12789155
0.12746713
0.12714774
0.12709238
0.1273859
0.12784858
0.12835178
0.12879098
0.12920724
0.12970651
0.13012663
0.13052958
0.13093339
0.13138469
0.13189271
0.13237253
0.13295244
0.13365426
0.13441169
0.13516102
0.13601152
0.13688868
0.13779814
0.13862512
0.13943133
0.14018677
0.14084723
0.1412073
0.14136196
0.14135127
0.14107786
0.14044981
0.13965311
0.13851917
0.1372751
0.13583656
0.1344639
0.13332232
0.13257026
0.13286514
0.13358549
0.13470859
0.13621262
0.13766789
0.13901603
0.14011152
0.14096355
0.1415375
0.1418354
0.14180705
0.14169709
0.14124443
0.1405938
0.13983047
0.13897938
0.13808346
0.13718158
0.13626916
0.13540924
0.13455581
0.13379647
0.13306399
0.13248709
0.13191217
0.13138891
0.13089204
0.13053468
0.13011653
0.12969857
0.12918592
0.12881645
0.12835616
0.12788809
0.12740425
0.1271144
0.12700569
0.12732328
0.12783596
0.12828704
0.12876762
0.12912695
0.12958001
0.13002595
0.13045129
0.13082469
0.13132274
0.13190306
0.13250629
0.13306463
0.13382829
0.13466322
0.13555182
0.1364015
0.13736038
0.13833465
0.13926211
0.14009038
0.14084711
0.14152946
0.14200284
0.14215302
0.14216596
0.14190097
0.14131093
0.14037977
0.13925137
0.13789653
0.13642565
0.13496945
0.13380937
0.13303578
0.13293532
0.13382002
0.13495633
0.13643365
0.13800719
0.13946784
0.14070269
0.14158118
0.14217107
0.14246779
0.14248025
0.14225094
0.14179596
0.14114888
0.14043152
0.13950995
0.13852679
0.1375328
0.13658501
0.13561626
0.1347223
0.13388635
0.13313531
0.13246661
0.13186324
0.13128869
0.1308084
0.13039817
0.12998469
0.12955738
0.12916789
0.12872192
0.12830691
0.12780682
0.12724786
0.12694805
0.12689995
0.12722428
0.12776205
0.12825402
0.1286886
0.12913008
0.12952448
0.12998388
0.13037544
0.13078832
0.13128402
0.13188236
0.13246699
0.1331407
0.13393166
0.13481132
0.13568047
0.1366753
0.13771961
0.13879358
0.13975819
0.14066037
0.14142277
0.14207789
0.14248669
0.14273172
0.14275485
0.14248198
0.14180851
0.14083592
0.13961235
0.13813779
0.1364302
0.13494097
0.13369722
0.132821
0.13240475
0.13339229
0.13465716
0.13627851
0.1380337
0.13961468
0.14097758
0.14193447
0.14263025
0.14296062
0.14297383
0.14273851
0.14229455
0.1416736
0.14092327
0.13992548
0.13892645
0.13785121
0.13685246
0.13577629
0.13482769
0.133935
0.13319537
0.13247001
0.13188792
0.13129376
0.13079265
0.13036387
0.12992816
0.12945401
0.1290323
0.12860653
0.12817209
0.12770765
0.12715855
0.12685885
0.12680433
0.12712434
0.12764365
0.12811281
0.12853022
0.12898556
0.12937945
0.12986882
0.13029216
0.13073864
0.13126119
0.13185487
0.13247136
0.13319024
0.13395557
0.13488884
0.13581969
0.1369043
0.13795537
0.1390777
0.14005619
0.141024
0.14185343
0.14254447
0.14292811
0.14310387
0.14312206
0.14281906
0.1420527
0.14099011
0.13957565
0.13796569
0.1360648
0.13438505
0.13296659
0.13196032
0.13122058
0.1323896
0.13386023
0.13570782
0.13768218
0.1394455
0.14100254
0.14211463
0.1428409
0.14319017
0.14321012
0.14304947
0.14263697
0.14195976
0.1411756
0.14017572
0.13916741
0.13802388
0.13690132
0.13582656
0.13487543
0.13393744
0.13312584
0.13241912
0.13177419
0.13120091
0.1306834
0.13021863
0.12977439
0.12929067
0.12887799
0.12842323
0.12799758
0.12756032
0.12704299
0.12675292
0.12666952
0.12698589
0.12748592
0.12795444
0.12835374
0.12882301
0.12922468
0.12971804
0.1301383
0.13058742
0.13112659
0.13173596
0.13237781
0.13311819
0.13390359
0.13485155
0.13580873
0.13691786
0.13800271
0.13912464
0.14019557
0.14120917
0.1420299
0.14272532
0.14306581
0.14322034
0.14322948
0.14291746
0.14213471
0.14090165
0.13929103
0.1374921
0.13535249
0.13344304
0.13178634
0.13054221
0.12999083
0.13127303
0.13292022
0.13500572
0.13722381
0.13917609
0.14080517
0.14214552
0.14290415
0.14326573
0.1432053
0.14304549
0.14257643
0.14197231
0.141133
0.14017852
0.1390848
0.13796219
0.13679664
0.13576396
0.13475303
0.13389166
0.13308648
0.13236393
0.1316773
0.13108233
0.13053146
0.1301365
0.12964514
0.12916428
0.12873103
0.12828568
0.12786568
0.12734607
0.1268568
0.12659176
0.12652112
0.12677751
0.12732117
0.12778273
0.12823194
0.12868486
0.12907583
0.12957458
0.13003514
0.13046472
0.13096583
0.13155388
0.13220756
0.13295346
0.13375434
0.13463084
0.13561524
0.13667941
0.13777919
0.13891037
0.14000258
0.14095585
0.1417824
0.1424986
0.14288373
0.14311303
0.14316541
0.14284351
0.14204994
0.1407632
0.13904327
0.13703949
0.13477594
0.132635
0.13092714
0.12965685
0.12972914
0.13100109
0.13273499
0.13495482
0.13709801
0.13905084
0.14080222
0.14203796
0.14276391
0.14308486
0.14302911
0.14275498
0.14228252
0.14156426
0.14067413
0.13971548
0.13865149
0.13750977
0.13639803
0.13534129
0.13440955
0.13354059
0.13280541
0.1320537
0.13149026
0.13087189
0.13033552
0.1299423
0.12945671
0.12900072
0.12860936
0.12810012
0.1276493
0.12718397
0.12667459
0.1264275
0.12637678
0.12661699
0.12713121
0.12759946
0.1280172
0.12853314
0.12897992
0.12942248
0.12982243
0.13022457
0.13075078
0.13133107
0.13190673
0.1326171
0.13331943
0.13420818
0.1350911
0.13616586
0.13723565
0.13832378
0.13944987
0.14041411
0.14127774
0.14208515
0.14255336
0.1428756
0.14305594
0.14285869
0.14217493
0.14108199
0.13937543
0.1374842
0.13549583
0.13336852
0.13161919
0.13045069
0.13205557
0.13320821
0.13471572
0.13657518
0.13838803
0.14004639
0.14147585
0.14236587
0.14291873
0.14304093
0.14277036
0.14244293
0.14183843
0.14098923
0.140053
0.13912255
0.13804095
0.13688232
0.13579952
0.13479525
0.13395988
0.13307996
0.13239557
0.13170497
0.13113535
0.1306229
0.13014961
0.12972481
0.12935016
0.1288845
0.12842557
0.12795053
0.12751424
0.12705685
0.12656241
0.12631885
0.12629201
0.12653746
0.12705638
0.12751732
0.12791529
0.12840531
0.12882338
0.12923539
0.12965191
0.13004983
0.13050439
0.1310179
0.13152513
0.1321333
0.13281594
0.13365731
0.13449972
0.13547032