/*--------------------------------*- C++ -*----------------------------------*\
| =========                 |                                                 |
| \\      /  F ield         | OpenFOAM: The Open Source CFD Toolbox           |
|  \\    /   O peration     | Version:  v2012                                 |
|   \\  /    A nd           | Website:  www.openfoam.com                      |
|    \\/     M anipulation  |                                                 |
\*---------------------------------------------------------------------------*/
FoamFile
{
    version     2.0;
    format      ascii;
    class       volScalarField;
    location    "433";
    object      nut;
}
// * * * * * * * * * * * * * * * * * * * * * * * * * * * * * * * * * * * * * //

dimensions      [0 2 -1 0 0 0 0];


internalField   nonuniform List<scalar> 
231880
(
0.0047443145
0.0047836424
0.0048223132
0.0048603247
0.0048976775
0.0049343736
0.0049704166
0.0050058213
0.0050405829
0.0050747052
0.0051081893
0.0051410369
0.0051732485
0.0052048255
0.0052357678
0.0052660881
0.0052957734
0.0053248346
0.0053532559
0.0053810465
0.0054081877
0.0054346727
0.005460495
0.0054856652
0.0055101677
0.005534015
0.0055571892
0.0055797027
0.0056015527
0.0056227324
0.005643218
0.0056630055
0.005682084
0.0057004417
0.0057180706
0.0057349631
0.0057511126
0.0057665163
0.005781171
0.0057950966
0.0058082711
0.0058206926
0.0058323545
0.0058432752
0.0058534321
0.0058628474
0.0058714925
0.0058793623
0.0058864462
0.0058927384
0.0058982343
0.0059029324
0.005906829
0.005909921
0.0059122069
0.0059137192
0.0059144672
0.0059144566
0.0059136707
0.0059121488
0.0059098791
0.0059067196
0.0059026233
0.0058972178
0.0058905288
0.0058829879
0.0058736882
0.0058643927
0.0059109221
0.0060437132
0.0062245627
0.0064450492
0.0066763663
0.0069263916
0.0071784707
0.0074377148
0.0076994035
0.0079682353
0.0082414119
0.0085212494
0.008797539
0.0090716372
0.0093424565
0.0095961897
0.0098231512
0.010037945
0.010232931
0.010399325
0.010549404
0.010676086
0.010791647
0.010887862
0.010978065
0.011068045
0.011139477
0.011189912
0.011243965
0.011298191
0.011339665
0.01137632
0.01141387
0.011467107
0.011507545
0.011549944
0.011577305
0.011619035
0.011673925
0.011722397
0.011767123
0.011812738
0.0118544
0.011895146
0.011920487
0.011930124
0.011920647
0.011899386
0.011852024
0.011779767
0.011658892
0.011515354
0.011307981
0.011068096
0.010753973
0.010409224
0.0099989616
0.0095738524
0.0091098699
0.0086691384
0.0082837772
0.0079736513
0.0077913153
0.0077709644
0.0079008932
0.0082211795
0.0086718856
0.0092564509
0.0099137324
0.010662953
0.011494792
0.012464532
0.013497848
0.014519828
0.015420189
0.016201465
0.016819734
0.017313989
0.017663339
0.017936753
0.018106958
0.018240961
0.018299821
0.018346669
0.018336499
0.018319053
0.018313792
0.01831283
0.018357359
0.018347563
0.018367439
0.018417442
0.01848522
0.018548175
0.018605214
0.018652231
0.018686292
0.018711857
0.018732885
0.01875322
0.018764615
0.018776229
0.018784436
0.018788861
0.01879264
0.018793473
0.018791584
0.01878638
0.018777882
0.018771825
0.01876798
0.018765106
0.018753344
0.018735469
0.01871271
0.018687181
0.018664072
0.018635388
0.018597748
0.018546747
0.018487155
0.018419821
0.018345069
0.018286784
0.018267695
0.018292898
0.018235268
0.018215926
0.018220753
0.018234196
0.018242703
0.018247062
0.018247793
0.018246275
0.018242338
0.018240186
0.018240261
0.018244555
0.018242198
0.018242377
0.018240749
0.018240552
0.018236752
0.018234022
0.018226138
0.018223035
0.018215893
0.018209835
0.018207565
0.018206936
0.018208721
0.018212409
0.01822028
0.018228098
0.018236324
0.018243723
0.018245821
0.018248498
0.018249465
0.01825148
0.018253818
0.018259743
0.01825717
0.018259586
0.018260953
0.018265002
0.0182693
0.018279874
0.018293797
0.018312423
0.018321444
0.018331636
0.018346407
0.018358662
0.01837369
0.018386229
0.018401411
0.018412684
0.018415827
0.018418228
0.018424558
0.018432029
0.018438427
0.018448511
0.018460258
0.01847516
0.018481292
0.018489244
0.018493359
0.018500964
0.018502873
0.01850669
0.018510795
0.018515264
0.018518371
0.018517975
0.018523134
0.018525076
0.018532965
0.018538004
0.01854876
0.01855433
0.018561781
0.01856645
0.018575039
0.018581313
0.018591964
0.018599625
0.018610669
0.018616525
0.018618691
0.01861823
0.018632827
0.018667507
0.018727448
0.01869904
0.018729872
0.01877145
0.01884617
0.018894818
0.018956406
0.018982468
0.019023576
0.019034421
0.019069375
0.019080814
0.019102457
0.01909191
0.019092911
0.019063004
0.019037189
0.018966701
0.018890743
0.018758221
0.01860174
0.01837105
0.018097269
0.017732116
0.01730526
0.01677163
0.016164505
0.015441765
0.014632015
0.013700495
0.012680552
0.011552957
0.010352668
0.0091364399
0.0079522483
0.0069537181
0.0062346882
0.0062822926
0.0069927979
0.0079823405
0.0091406599
0.01034731
0.011531067
0.012649194
0.013671467
0.014597532
0.015414387
0.016126071
0.01674028
0.017265523
0.017703805
0.018058747
0.018342075
0.01856135
0.018729968
0.018848681
0.018938226
0.018997004
0.019034041
0.019049362
0.019062093
0.019059141
0.01904853
0.019016734
0.018991673
0.018971857
0.018947144
0.018910667
0.018862864
0.018802331
0.018742797
0.018687139
0.018660571
0.018627689
0.018663999
0.018729525
0.01877947
0.018837587
0.018890394
0.018934674
0.018960828
0.01897884
0.018994509
0.019021491
0.019035232
0.019042268
0.019024972
0.019012536
0.018979097
0.018923172
0.018827978
0.018716855
0.01853739
0.018317473
0.018041129
0.017694062
0.017258397
0.016732458
0.016112745
0.015406839
0.014587907
0.013659337
0.012644058
0.01153341
0.01036868
0.0091776297
0.0080395309
0.007080537
0.0063986033
0.0065606613
0.0072048252
0.0081325249
0.0092402034
0.010404909
0.011550921
0.012644804
0.013656965
0.014578975
0.01539778
0.016109874
0.016736415
0.017256488
0.017689482
0.018029234
0.018306011
0.018535195
0.018714152
0.018833229
0.01891913
0.018973623
0.019007413
0.019025396
0.019029983
0.019022648
0.019010677
0.01899004
0.01898227
0.018956738
0.01892912
0.018877104
0.018827689
0.018778864
0.018724362
0.018650205
0.01861267
0.018612878
0.01865355
0.018722775
0.018770759
0.018824966
0.01887396
0.018917135
0.01894056
0.018967974
0.018981224
0.019003521
0.019020109
0.01902531
0.01901752
0.019004786
0.018978409
0.018918709
0.018827025
0.018709444
0.018528741
0.018302384
0.01802602
0.017680194
0.017245104
0.01672596
0.016103953
0.015398847
0.014585175
0.013665333
0.012663
0.01157728
0.010450564
0.0093197816
0.0082498938
0.0073606718
0.0067548154
0.0069658723
0.0075385242
0.0083878926
0.0094128202
0.010508389
0.011617106
0.01268719
0.013685319
0.014592402
0.015394803
0.016102363
0.016720645
0.017249672
0.017673748
0.018023738
0.018312622
0.018534574
0.018709469
0.01882385
0.018919421
0.018978159
0.019008858
0.019023972
0.019030238
0.019019165
0.019009317
0.018984995
0.018956984
0.01893358
0.018900747
0.018864515
0.018830829
0.018775368
0.018721454
0.018653153
0.018615783
0.018605549
0.018646197
0.018716562
0.018765723
0.018825565
0.018867902
0.018902474
0.018940212
0.018957334
0.018977554
0.019007668
0.019007871
0.019015486
0.019013793
0.019003393
0.01896659
0.018909219
0.018823089
0.018697791
0.018520082
0.018306493
0.018023904
0.017675338
0.017244891
0.016723006
0.016105443
0.015400417
0.014601511
0.013704933
0.012720031
0.011667741
0.01058086
0.0095212016
0.0085369736
0.0077293063
0.0071906806
0.0074225508
0.0079295949
0.0086949405
0.0096374147
0.010669591
0.011728789
0.012760051
0.013726162
0.014614258
0.015408738
0.016110226
0.016720666
0.017249096
0.017671394
0.018012533
0.018292987
0.018512464
0.018686472
0.01881479
0.018895294
0.018950717
0.018990567
0.01899738
0.019005953
0.019011824
0.019007341
0.018981432
0.018961417
0.018937388
0.018901148
0.018857889
0.018814072
0.018765132
0.018709613
0.018632913
0.018593653
0.018588009
0.018631884
0.018706034
0.018756782
0.018816743
0.018860334
0.018896773
0.018937473
0.01895899
0.018969439
0.018993855
0.019005265
0.018999608
0.018996824
0.018985312
0.018950554
0.018896256
0.01880965
0.018687063
0.018513785
0.018291123
0.018017053
0.017668072
0.01724365
0.016723993
0.016118053
0.015418467
0.014629013
0.013763027
0.012811144
0.011803876
0.010771746
0.00976883
0.0088657797
0.0081403295
0.0076646737
0.007912004
0.0083590848
0.0090466482
0.0099138427
0.010880742
0.011879213
0.012864067
0.013800079
0.014660377
0.015439082
0.016119426
0.016720525
0.017239223
0.017671822
0.018018837
0.018299648
0.018515892
0.01868458
0.01879531
0.018877948
0.01893705
0.018967009
0.018982953
0.018988664
0.018998031
0.01898276
0.018960035
0.018953313
0.018934273
0.018902499
0.018861981
0.01882031
0.018759886
0.018700694
0.018619818
0.018577311
0.018572301
0.018617905
0.018693446
0.018744269
0.018800015
0.018848189
0.018893163
0.018922532
0.018938114
0.018949269
0.018974921
0.018990924
0.018986181
0.018979074
0.018957161
0.01893074
0.018867623
0.018786442
0.018664177
0.018501908
0.018284928
0.018010879
0.017664241
0.017242822
0.016732678
0.016135206
0.015463414
0.014690758
0.013847832
0.012929125
0.011968092
0.010999497
0.010069651
0.0092408137
0.0085872762
0.0081649642
0.0084297669
0.0088235341
0.0094392577
0.010232002
0.011123375
0.012061562
0.012995471
0.013895428
0.014728692
0.015488196
0.016153351
0.016742823
0.017245438
0.017663526
0.018011735
0.018278854
0.018498957
0.018656145
0.018777049
0.018860359
0.018920725
0.01894863
0.018967817
0.018976784
0.018978005
0.01896441
0.018943177
0.018935248
0.018922275
0.018890222
0.018837015
0.018787236
0.018739742
0.018683241
0.018604354
0.018562408
0.018557962
0.018601735
0.018673653
0.018724775
0.018778706
0.018832502
0.018877658
0.01891008
0.018932072
0.018937642
0.018959486
0.018978025
0.018974295
0.018966104
0.018944318
0.018917171
0.01885582
0.018773425
0.01864836
0.018490883
0.018278161
0.01801199
0.017669316
0.017257113
0.016755999
0.016172612
0.015512546
0.01477141
0.013952962
0.013076882
0.012162523
0.011250808
0.010397356
0.0096484568
0.0090656901
0.0086966229
0.0089630899
0.0093085926
0.0098560971
0.010570483
0.011389063
0.012271276
0.01315848
0.014017627
0.014814772
0.015545939
0.016198864
0.016773582
0.017261754
0.017671514
0.018005048
0.018278032
0.018488212
0.018649365
0.018765885
0.018858334
0.018910791
0.018950132
0.018961567
0.018982003
0.018979069
0.0189622
0.018934376
0.018916174
0.018893349
0.018857427
0.018817797
0.018768855
0.018720312
0.018659584
0.018586615
0.018550515
0.018547437
0.018576753
0.018647345
0.018712852
0.018765533
0.018817485
0.018854792
0.018896092
0.0189205
0.018935525
0.018949898
0.018967697
0.01897545
0.018963398
0.018946765
0.018905675
0.018845545
0.018756686
0.018635962
0.018480918
0.01827201
0.017994807
0.0176597
0.017258557
0.01677109
0.016209386
0.015563208
0.014850441
0.014069365
0.013235536
0.012370133
0.011523902
0.010739624
0.010058909
0.0095494871
0.0092251407
0.0094800737
0.0097827764
0.010265438
0.010904129
0.011654745
0.012472356
0.013313244
0.014121891
0.014886888
0.015586915
0.016224752
0.016774562
0.017260789
0.017656479
0.017994373
0.018261766
0.018466636
0.018619893
0.01873668
0.018822536
0.018889439
0.018934694
0.018947083
0.01895725
0.018956159
0.018942691
0.018931407
0.018915973
0.018892659
0.018849339
0.01880973
0.018751625
0.018696544
0.01863511
0.01856498
0.018533677
0.018531679
0.018560957
0.018632253
0.018699758
0.018747378
0.018808173
0.018852383
0.018890232
0.018902277
0.018916945
0.018938172
0.018956714
0.018952412
0.018946469
0.018924452
0.018880445
0.01881
0.018727665
0.018610777
0.018463408
0.018255036
0.017986408
0.0176541
0.017261484
0.016781858
0.016233215
0.015613874
0.014930663
0.014179641
0.013391643
0.012576405
0.011790776
0.011072037
0.010465199
0.010010828
0.0097243491
0.0099462375
0.010221227
0.010660736
0.011234416
0.011916047
0.012673668
0.013462932
0.014233689
0.01496938
0.015640587
0.016247978
0.016789805
0.017257783
0.017649669
0.01798197
0.018241198
0.018448324
0.018597181
0.018713772
0.018800159
0.0188645
0.018905422
0.018932549
0.018944195
0.018948897
0.018933507
0.018911727
0.018892891
0.018872357
0.018842322
0.018805119
0.018752007
0.018701025
0.018628122
0.01855381
0.018521165
0.018521927
0.018551264
0.018622984
0.018693539
0.018741738
0.018801945
0.018845533
0.018876825
0.01889107
0.018908885
0.018930491
0.018947403
0.018935575
0.018926379
0.018895221
0.018864313
0.018795105
0.018708909
0.018586456
0.018440713
0.018230304
0.0179666
0.017642371
0.017258195
0.016789348
0.016249926
0.015650375
0.014990904
0.01427527
0.013524049
0.012767198
0.01204292
0.011385599
0.01083438
0.010410431
0.010149119
0.010343316
0.010595718
0.010995912
0.011522628
0.012152276
0.012848954
0.01357846
0.014309827
0.015013426
0.015655365
0.016247544
0.016776997
0.017241125
0.017628612
0.017959293
0.018216439
0.018422903
0.018573037
0.0186954
0.018787546
0.018853298
0.018886314
0.018912208
0.018921587
0.018938237
0.018923205
0.018907005
0.018891298
0.018868448
0.018836064
0.018790361
0.018736605
0.018695491
0.018620775
0.018546856
0.018514266
0.018519089
0.018550422
0.018624711
0.018696606
0.018741855
0.018798204
0.018844902
0.018877554
0.018886466
0.018899271
0.0189158
0.018927027
0.018914939
0.018911575
0.01888518
0.018852834
0.018783439
0.018695034
0.018560158
0.018406542
0.01819893
0.017940368
0.017612977
0.017227019
0.016759433
0.016234055
0.015652461
0.015022432
0.014342506
0.013638654
0.012930811
0.012259733
0.01164809
0.011135134
0.010754735
0.010509733
0.010655292
0.010897081
0.011271905
0.011774289
0.012356393
0.01301239
0.01368651
0.014372988
0.015031942
0.015651666
0.016216074
0.016733441
0.017190599
0.017586141
0.01790654
0.01817776
0.018380618
0.018546169
0.01868306
0.018783811
0.018843015
0.018880942
0.018897485
0.018916347
0.018921468
0.018916285
0.018899118
0.018889626
0.018882621
0.018843738
0.018803104
0.01875698
0.01870231
0.018636571
0.018559246
0.018518191
0.0185094
0.018550769
0.018626697
0.018695832
0.01875754
0.018804618
0.018837995
0.018878405
0.018894016
0.018892084
0.018901081
0.018910293
0.018906776
0.018891018
0.018860373
0.018820513
0.018760228
0.018658093
0.018534468
0.018366465
0.018150466
0.017881027
0.017553483
0.017161469
0.016698586
0.01618784
0.015630553
0.015031067
0.014395554
0.013736765
0.013084979
0.012452088
0.011880458
0.011385767
0.011021679
0.010781695
0.010896711
0.011131389
0.011488988
0.011961365
0.012524107
0.013143155
0.013772067
0.014409462
0.015026456
0.015609793
0.016155354
0.016660165
0.017119581
0.017513125
0.017844739
0.018112722
0.018339821
0.018508301
0.018641443
0.018751441
0.018812111
0.018843244
0.018868676
0.018883491
0.01889374
0.018891207
0.018886095
0.018892245
0.018872977
0.01883141
0.018790193
0.018743345
0.018687251
0.018623065
0.018554865
0.018507086
0.018501629
0.018545974
0.018619502
0.018686285
0.018736667
0.018787161
0.018821467
0.018858953
0.018877692
0.018880827
0.018887288
0.018894394
0.018874615
0.018864246
0.01882711
0.01878773
0.018725206
0.018622856
0.018491088
0.018313579
0.018093047
0.017807775
0.017464293
0.017064394
0.016616068
0.016120779
0.015588552
0.015024743
0.014425707
0.01381319
0.013200154
0.012598507
0.012039044
0.011570727
0.011226001
0.010997259
0.011083035
0.011308379
0.011646654
0.012106622
0.012651726
0.013237785
0.013836848
0.014435067
0.015015276
0.015566655
0.016086006
0.016576319
0.017034867
0.017427395
0.017770456
0.018061737
0.018294318
0.018478387
0.01861231
0.018718923
0.018781886
0.018826788
0.018858688
0.018871213
0.018891892
0.018882944
0.018875239
0.018869584
0.018847715
0.018820993
0.018781117
0.018726032
0.018677671
0.018617571
0.018552323
0.01850343
0.018493543
0.01854098
0.018613274
0.018675889
0.018718215
0.018762495
0.018809001
0.018837809
0.018854955
0.018862893
0.01887406
0.018881671
0.018867532
0.01885281
0.018817225
0.018765577
0.018707652
0.018599949
0.018467297
0.018285754
0.018043113
0.017758021
0.017409795
0.017002228
0.016546036
0.016056712
0.015551904
0.015015022
0.014445277
0.013866888
0.013279834
0.012710729
0.012167843
0.011712611
0.011381358
0.011163422
0.011232096
0.011446619
0.011773771
0.012219657
0.012747905
0.013309251
0.01387987
0.014448259
0.015008772
0.015539662
0.016043873
0.016532087
0.016991264
0.01739223
0.017732797
0.018022235
0.018260355
0.018446567
0.018581902
0.018693283
0.018763808
0.018821508
0.018846002
0.018856806
0.018866147
0.018863952
0.018851345
0.018851012
0.018829358
0.018801555
0.018764096
0.018713483
0.018666647
0.018608358
0.018543042
0.018491862
0.018481821
0.018529198
0.018599707
0.018659238
0.018699177
0.01874464
0.018786518
0.018810259
0.018830138
0.018839809
0.018861184
0.018869245
0.018851685
0.018828699
0.018813872
0.018760028
0.018688339
0.018571087
0.018435703
0.018254366
0.01801561
0.017729814
0.017376587
0.016967398
0.016514882
0.016040693
0.015532573
0.015001585
0.01445692
0.013900525
0.013334382
0.012785938
0.012266897
0.011827388
0.011504044
0.011289698
0.011339365
0.011552836
0.011873925
0.012307197
0.012818593
0.013363022
0.013919884
0.014474188
0.015009546
0.015536285
0.016037927
0.016510276
0.016960506
0.017369495
0.017721589
0.01801813
0.018251063
0.01843422
0.018567105
0.018676264
0.018749251
0.018803661
0.018831722
0.018859154
0.018869441
0.018856636
0.018831878
0.01882162
0.018810632
0.018786576
0.018744675
0.018691861
0.018653407
0.018599934
0.018528633
0.018481677
0.01845995
0.018508983
0.018584208
0.018639371
0.018678255
0.018731411
0.018775832
0.018801388
0.018816014
0.018825876
0.018843922
0.018856897
0.018841188
0.018813035
0.018780014
0.018724871
0.018650934
0.018542305
0.018408274
0.018232641
0.017998445
0.017708899
0.017348886
0.016946187
0.016499292
0.016024961
0.015519511
0.015005773
0.014475144
0.013932628
0.013380168
0.012849954
0.012347237
0.01191703
0.011595333
0.011383554
0.011416681
0.011630098
0.011952084
0.012377856
0.012876164
0.013399824
0.013945352
0.014478069
0.015004254
0.015519775
0.016017747
0.016494432
0.016939024
0.017341637
0.01770415
0.017988247
0.018226612
0.018395772
0.018535896
0.018640968
0.018724251
0.018773841
0.018815101
0.018833274
0.018840933
0.018840058
0.018824896
0.018811668
0.018792031
0.01876848
0.018719391
0.018672974
0.018632148
0.018572325
0.018492046
0.018446955
0.018436148
0.01848409
0.018562121
0.018626237
0.018666358
0.018714974
0.018755908
0.018788987
0.018803609
0.018820119
0.018834716
0.018836795
0.018821544
0.018795199
0.018762551
0.01870788
0.018627702
0.018518997
0.01838487
0.018216208
0.017987895
0.017704045
0.017344004
0.01693784
0.016495164
0.016017743
0.015531206
0.0150246
0.014496701
0.013965461
0.01341941
0.012896028
0.012413367
0.011997689
0.011668289
0.011453918
0.011491971
0.011706235
0.012038949
0.012457401
0.01293331
0.013454861
0.013991777
0.014522835
0.015041168
0.01554329
0.016026253
0.016504483
0.016954117
0.017353148
0.017699056
0.017981113
0.018207138
0.018379421
0.018522067
0.018619783
0.018704185
0.018750319
0.018790588
0.018814446
0.018828787
0.018829177
0.018814398
0.018801472
0.018786116
0.018745107
0.01870206
0.018663468
0.018621671
0.018554976
0.01847368
0.018430239
0.018422548
0.01846939
0.018542983
0.018605717
0.018659921
0.018703406
0.018743091
0.018782731
0.018793226
0.01880504
0.018821053
0.018824982
0.01880585
0.018776483
0.018739632
0.018692748
0.018614699
0.018517095
0.018373235
0.018204716
0.017976008
0.017699837
0.01735456
0.01695516
0.016510473
0.016033961
0.015546434
0.015043696
0.014528724
0.014001083
0.013467777
0.012954802
0.01248255
0.012065896
0.011739636
0.011542696
0.011586246
0.011785009
0.012092973
0.012499297
0.012977015
0.013488448
0.014011882
0.01454032
0.015062976
0.015559135
0.016050835
0.016525368
0.016974739
0.017365723
0.017699432
0.017973663
0.018196947
0.018364558
0.01850241
0.018604126
0.018681453
0.018733671
0.018780086
0.018803484
0.018815002
0.018812463
0.018795814
0.01878455
0.018774176
0.018734507
0.018687718
0.018643855
0.018594436
0.01853291
0.0184566
0.018414641
0.018413667
0.018459136
0.018528134
0.018590412
0.018647472
0.01869276
0.018729384
0.018768191
0.018773444
0.018783035
0.018800692
0.018807907
0.018796369
0.018767387
0.018729422
0.018681113
0.018601112
0.018505948
0.018363812
0.018197958
0.017974381
0.017707726
0.017370304
0.016977237
0.0165341
0.01606308
0.01557455
0.015078365
0.014562985
0.01403908
0.013512101
0.012994006
0.012526406
0.012122669
0.011824001
0.011629953
0.011666577
0.011861054
0.01215854
0.012566353
0.01302985
0.01354562
0.014059886
0.014590654
0.015102788
0.015602105
0.016077755
0.016543287
0.016991833
0.017388598
0.017720203
0.017987396
0.018198569
0.018368693
0.018508415
0.018607944
0.018683986
0.018737992
0.018764334
0.018794879
0.01880006
0.018800342
0.018777548
0.01876542
0.018752399
0.018725997
0.018687462
0.018643188
0.018586587
0.018523139
0.018455714
0.018415454
0.018400404
0.018445543
0.018513384
0.018566625
0.018619518
0.018667855
0.018717035
0.018735702
0.018758121
0.018773007
0.018798394
0.01878954
0.01878844
0.018764025
0.018731166
0.018680043
0.018598675
0.018506129
0.018373405
0.018205701
0.017983186
0.017722106
0.017392617
0.01699499
0.016559193
0.016093805
0.01561416
0.015117901
0.014609246
0.014087298
0.013574108
0.01305786
0.012598414
0.012192717
0.011898901
0.011705484
0.011748135
0.011941598
0.012240527
0.012631907
0.01309351
0.013599132
0.014102755
0.014620672
0.01513315
0.015632004
0.01611382
0.016578423
0.017009795
0.017408955
0.017734172
0.017990902
0.018213564
0.018377936
0.018500483
0.018596833
0.018679252
0.018725388
0.018758248
0.018789386
0.018791989
0.01879777
0.018770638
0.018747008
0.018730898
0.018701735
0.018669168
0.018614384
0.01856373
0.018504389
0.018426831
0.018383451
0.018372631
0.018421319
0.01849428
0.018547967
0.018602789
0.018654546
0.018692713
0.018714583
0.018737113
0.018756788
0.018787066
0.018791416
0.0187879
0.018763075
0.018727191
0.018683187
0.018603856
0.018507484
0.01839027
0.018220593
0.018003733
0.01773498
0.01741489
0.017026745
0.016593376
0.016129072
0.015649301
0.015155672
0.014642728
0.014132239
0.013623631
0.013116666
0.012661197
0.012272102
0.011980664
0.011790193
0.011827474
0.012020785
0.012313941
0.012694493
0.01314845
0.013636771
0.014148727
0.014661924
0.015170898
0.015662011
0.016134565
0.016602308
0.017031424
0.017407747
0.017728199
0.017992578
0.018210933
0.018386907
0.018500433
0.01859478
0.018673822
0.01873652
0.018764355
0.018778336
0.018780234
0.018771709
0.018749298
0.018730534
0.018711039
0.01869325
0.01865239
0.018597844
0.018546259
0.01848574
0.018403404
0.018356926
0.018346322
0.018397379
0.018473907
0.0185276
0.018580741
0.018633209
0.018685403
0.018711805
0.018725579
0.018742613
0.018762541
0.018774247
0.018766198
0.018747615
0.018729049
0.01867641
0.018595576
0.018510047
0.018388901
0.018215526
0.017991758
0.017735346
0.017409008
0.01702899
0.01660146
0.016140988
0.015674489
0.015191185
0.014683018
0.014175943
0.013658834
0.013168132
0.012722226
0.012345143
0.012061455
0.011872182
0.011915552
0.012101406
0.012385658
0.01275555
0.013200985
0.013682442
0.014186676
0.014692345
0.015193416
0.01568355
0.016150002
0.016612547
0.017035146
0.017408086
0.017723638
0.017987052
0.018204061
0.018373436
0.018502275
0.018604428
0.018672064
0.018726906
0.018747568
0.018756018
0.018767209
0.018756228
0.018738003
0.018718753
0.018695967
0.018668492
0.018627427
0.018573377
0.018521245
0.018460893
0.018377843
0.018330547
0.018323175
0.018373418
0.018447704
0.018501959
0.01855848
0.018612042
0.018657395
0.018685328
0.018702505
0.018719185
0.018740442
0.018747816
0.018746049
0.018731301
0.018718382
0.018667419
0.0185995
0.018494808
0.01836754
0.018204392
0.01798579
0.017728059
0.017403941
0.017024869
0.016607576
0.016159281
0.015686192
0.015200006
0.014701178
0.014204951
0.013702392
0.013217268
0.012779031
0.012407278
0.012130245
0.011950908
0.011978051
0.012153898
0.01243442
0.012809811
0.013240972
0.01372086
0.014203778
0.014702047
0.015193461
0.015680217
0.016146793
0.016602902
0.017019087
0.017400719
0.017719307
0.017985948
0.018192306
0.018360638
0.018487001
0.018586992
0.018653581
0.018698116
0.018726905
0.018746545
0.018747156
0.018741732
0.01871079
0.018692114
0.018669875
0.018642514
0.018611155
0.01856125
0.018498122
0.018436308
0.018364063
0.018320947
0.018296018
0.018344272
0.018413447
0.018486492
0.018550588
0.018595869
0.018636818
0.018666644
0.018682388
0.018699348
0.018724898
0.018735823
0.018725063
0.018707608
0.018671975
0.018632804
0.018571065
0.018471528
0.018336875
0.018162718
0.017955256
0.017692819
0.017361093
0.016984502
0.016565354
0.016101876
0.015639065
0.015165891
0.014681248
0.01419314
0.013713645
0.013229681
0.012799936
0.012435672
0.01216101
0.01198814
0.011978227
0.012149399
0.012417859
0.01278258
0.013215916
0.013686979
0.014152554
0.014632633
0.015114396
0.015585458
0.016050079
0.016495826
0.01691857
0.017298737
0.017643834
0.017912079
0.018136249
0.018308526
0.018449458
0.018544033
0.018612639
0.01865614
0.018691536
0.018709406
0.018726326
0.018712512
0.018691111
0.018674507
0.018653247
0.018626703
0.018581436
0.018540583
0.018479422
0.018399751
0.018332787
0.018281639
0.018268184
0.01831496
0.018387531
0.018467115
0.018533146
0.018573027
0.018622864
0.01865583
0.018670661
0.018684289
0.018706521
0.018717212
0.018701385
0.018685471
0.018642484
0.018597139
0.018514721
0.018408221
0.018261882
0.018077398
0.017847155
0.01756697
0.017217866
0.016836603
0.016406777
0.015961713
0.015507562
0.015048133
0.014570672
0.014101448
0.013636052
0.013167193
0.012745524
0.012391195
0.012121985
0.011950042
0.011905536
0.012070395
0.012331045
0.012684738
0.013103119
0.013547251
0.014006715
0.014470961
0.01493692
0.015393937
0.015849969
0.016285795
0.016721463
0.017109929
0.017464393
0.01776141
0.018016056
0.018208376
0.018372374
0.018483852
0.018567052
0.01862877
0.01867388
0.018693014
0.018702331
0.018697997
0.01868159
0.018678274
0.018654139
0.018619513
0.018567054
0.018525185
0.018461804
0.018384247
0.018316791
0.018265983
0.018259543
0.018305619
0.018375988
0.018447494
0.018516183
0.018562483
0.018606309
0.01864022
0.018676171
0.018681427
0.018694568
0.01869714
0.018677685
0.018645843
0.018604821
0.018541319
0.018441258
0.018309973
0.018139844
0.017928902
0.017657113
0.017346359
0.016975539
0.01657561
0.016132292
0.015690006
0.015242746
0.01479319
0.014330659
0.013879242
0.01342551
0.012992795
0.012591034
0.012251242
0.011992289
0.011828501
0.011719438
0.011875621
0.012124141
0.012458979
0.012852601
0.01326755
0.013706898
0.014150354
0.014606651
0.015051218
0.015496207
0.015939666
0.016381249
0.016800825
0.01719499
0.017531337
0.017819576
0.0180574
0.018252822
0.018392118
0.018499679
0.018575788
0.018628603
0.018655319
0.018676455
0.018682239
0.018675555
0.018666264
0.018639596
0.018604513
0.018558321
0.018505767
0.018445377
0.018375145
0.018310498
0.018260424
0.018256547
0.018301825
0.018373089
0.01844716
0.018504502
0.018551768
0.018607336
0.018640525
0.018661762
0.01867219
0.018675647
0.018671156
0.018639601
0.018598288
0.018545178
0.018462179
0.018333733
0.018172806
0.017963058
0.017703234
0.017378388
0.017004668
0.016593419
0.016161156
0.015705632
0.015253305
0.014813701
0.014377294
0.013934128
0.013502541
0.013071054
0.012666386
0.012287433
0.011964106
0.011717524
0.011563852
0.011365801
0.011509695
0.011743764
0.012064921
0.012430106
0.012829446
0.01324402
0.013670482
0.014101099
0.014536848
0.014973639
0.015437142
0.015896042
0.01635335
0.016796567
0.017202325
0.017556788
0.017855008
0.018093249
0.018281726
0.018417629
0.018519935
0.018583666
0.018636913
0.018660576
0.018668532
0.018661457
0.018662762
0.018641188
0.018609674
0.018552466
0.018514063
0.018453463
0.018386184
0.018311302
0.01826683
0.018253818
0.018303316
0.018383133
0.018447349
0.018511195
0.018547133
0.018592712
0.01862804
0.018648637
0.018647035
0.018649894
0.018645509
0.018617254
0.01854843
0.018473767
0.018363086
0.018206461
0.017985056
0.017717272
0.017388555
0.016995262
0.016545353
0.016067022
0.015588983
0.015117419
0.014650409
0.014208821
0.013777518
0.013350797
0.012926425
0.012521563
0.012136635
0.011785855
0.011483649
0.011258018
0.011116963
0.010805205
0.0109479
0.011160063
0.011449404
0.011793603
0.012173875
0.012577419
0.012990433
0.013415023
0.013851558
0.014302075
0.014771627
0.015261844
0.015769257
0.016287849
0.016769581
0.017200959
0.017570316
0.017878548
0.018115385
0.018298398
0.018430853
0.01852471
0.018587925
0.0186252
0.01863754
0.0186429
0.018641277
0.018624593
0.018594067
0.018560313
0.018509397
0.018457633
0.01838469
0.018296244
0.018250227
0.01824826
0.018298903
0.018383185
0.018454784
0.018509949
0.018559555
0.018593167
0.018628547
0.018639272
0.018638269
0.018630982
0.018616005
0.018566465
0.018491507
0.01838713
0.018239548
0.018024862
0.017758062
0.017423799
0.017020378
0.016539754
0.016011901
0.015463476
0.01493119
0.014417586
0.013935503
0.013477911
0.013036941
0.012602769
0.012184342
0.011789049
0.011418562
0.011076764
0.010799287
0.010589076
0.010454199
0.010048123
0.010184955
0.010387896
0.010665332
0.011001006
0.011372843
0.011776558
0.012195691
0.012638811
0.013096101
0.013571656
0.014072324
0.014602942
0.015164426
0.015748078
0.016307173
0.016829164
0.017276341
0.01765598
0.017944537
0.018173911
0.018340644
0.018469486
0.018548236
0.018606883
0.018628557
0.018639058
0.018640399
0.01862324
0.018586357
0.018548431
0.018502275
0.018447238
0.01838071
0.018293874
0.018247821
0.018244963
0.018295064
0.018376242
0.018443842
0.018495642
0.018547283
0.01857911
0.01861802
0.018631532
0.018631462
0.018621255
0.018594411
0.018533933
0.018443444
0.018303835
0.018123885
0.017867178
0.017549173
0.01714008
0.016657411
0.01609004
0.015488413
0.014881946
0.014302245
0.013743843
0.013217064
0.012725512
0.012254591
0.011793354
0.011358514
0.010948598
0.01057642
0.010234891
0.0099598988
0.0097522878
0.0096190674
0.009164504
0.0093059276
0.0095134961
0.009797422
0.010143561
0.010530759
0.010959528
0.011410037
0.011884481
0.012379166
0.012895996
0.013446793
0.014025349
0.014630608
0.015270448
0.015903637
0.016505775
0.017022682
0.017454403
0.017800504
0.018075342
0.018271006
0.018415144
0.018516595
0.018578173
0.018612625
0.018626047
0.018624444
0.018608172
0.018570868
0.018535624