/*--------------------------------*- C++ -*----------------------------------*\
| =========                 |                                                 |
| \\      /  F ield         | OpenFOAM: The Open Source CFD Toolbox           |
|  \\    /   O peration     | Version:  v2012                                 |
|   \\  /    A nd           | Website:  www.openfoam.com                      |
|    \\/     M anipulation  |                                                 |
\*---------------------------------------------------------------------------*/
FoamFile
{
    version     2.0;
    format      ascii;
    class       volScalarField;
    location    "433";
    object      omega;
}
// * * * * * * * * * * * * * * * * * * * * * * * * * * * * * * * * * * * * * //

dimensions      [0 0 -1 0 0 0 0];


internalField   nonuniform List<scalar> 
231880
(
32.114826
31.651323
31.202723
30.768309
30.347412
29.939397
29.543668
29.159664
28.786857
28.424752
28.072882
27.730805
27.398105
27.074392
26.759295
26.452466
26.153573
25.862305
25.578365
25.301472
25.03136
24.76778
24.510489
24.259259
24.013873
23.774126
23.539819
23.310764
23.086781
22.867701
22.653361
22.443605
22.238284
22.037258
21.84039
21.647549
21.458612
21.27346
21.091978
20.914055
20.739586
20.568472
20.400617
20.235925
20.07431
19.915685
19.759969
19.607083
19.456952
19.309504
19.164668
19.022378
18.882568
18.745175
18.610134
18.477379
18.346831
18.218402
18.091961
17.96743
17.84469
17.724698
17.607339
17.496552
17.390538
17.293023
17.20211
17.123436
16.997804
16.773696
16.494788
16.182539
15.880072
15.578184
15.289074
15.003199
14.716902
14.426892
14.132788
13.840956
13.554516
13.28016
13.023632
12.784857
12.563027
12.362105
12.179869
12.014279
11.866061
11.733148
11.614683
11.50917
11.415327
11.331609
11.257657
11.192972
11.13515
11.083494
11.038355
10.998506
10.963005
10.929775
10.901806
10.877304
10.857939
10.840231
10.824344
10.812821
10.805695
10.803009
10.806369
10.8165
10.83677
10.869095
10.916333
10.980615
11.066885
11.178889
11.323205
11.503655
11.72879
12.004879
12.340272
12.742325
13.214538
13.75785
14.360443
14.999553
15.627969
16.179928
16.576621
16.74955
16.670003
16.338098
15.798214
15.102406
14.296027
13.414283
12.461132
11.465191
10.496785
9.6629589
8.9841643
8.4535635
8.0443281
7.736038
7.5063166
7.3373073
7.2152348
7.1266585
7.0659215
7.0227202
6.9969406
6.9798651
6.9693225
6.9629387
6.9576329
6.9574819
6.9564755
6.9528444
6.9479441
6.9427716
6.9377674
6.9330683
6.9288872
6.9250822
6.9213637
6.9175834
6.9143972
6.9111251
6.9080427
6.9052675
6.9026162
6.9002602
6.8981304
6.8963352
6.8947553
6.8930972
6.8913392
6.8895987
6.888565
6.8880193
6.8878365
6.8878598
6.8876987
6.888021
6.8889836
6.8909967
6.8934506
6.8967333
6.9004714
6.903641
6.904078
6.9022195
6.9059932
6.9076354
6.9073453
6.9070855
6.9067769
6.9072195
6.9079332
6.9088708
6.9100863
6.9112173
6.912225
6.913022
6.9143778
6.915756
6.917332
6.9188865
6.9208197
6.9227862
6.9252715
6.9275553
6.9301106
6.9327312
6.9350483
6.9373212
6.9393811
6.9413037
6.9427819
6.9442936
6.9457251
6.9473051
6.9493461
6.9512517
6.9532576
6.9551338
6.9569929
6.9586002
6.9606681
6.9623648
6.9641144
6.9656703
6.9671517
6.9680659
6.9686582
6.968771
6.9695029
6.9701871
6.9704802
6.971046
6.9713297
6.9718151
6.9720029
6.9726003
6.9738125
6.9752001
6.976266
6.9771995
6.9782996
6.9790363
6.979657
6.9800352
6.9809986
6.9818444
6.9829524
6.9836789
6.9848245
6.985864
6.9867744
6.9877697
6.9886658
6.9899561
6.9907126
6.9918172
6.992303
6.9930649
6.9932227
6.9938704
6.9942764
6.9949916
6.9952
6.9955643
6.9953741
6.9953923
6.9950013
6.9949311
6.9949768
6.9949369
6.9940373
6.9915211
6.9879066
6.9904855
6.9908034
6.9919404
6.9923539
6.9960147
7.000194
7.0085166
7.0173451
7.0306015
7.0444493
7.063116
7.084469
7.1126056
7.1452702
7.1867585
7.2361028
7.2984102
7.3734206
7.466678
7.5794884
7.7175039
7.8834845
8.082948
8.3204395
8.6012547
8.9321045
9.3182092
9.769687
10.294584
10.912843
11.6331
12.493356
13.462396
14.572964
15.659593
16.585663
16.480831
15.596301
14.517954
13.443987
12.478443
11.634556
10.913751
10.296917
9.7700644
9.3187776
8.9320741
8.6016499
8.3208851
8.0836115
7.8844077
7.7183108
7.5807824
7.467617
7.3751481
7.299501
7.2379583
7.1879406
7.1475246
7.1139221
7.0867958
7.0646151
7.0475611
7.0329871
7.0204493
7.0104548
7.0029386
6.9978239
6.9951323
6.9938029
6.9935879
6.9927975
6.9952124
6.9952265
6.9946568
6.9965297
6.9993398
7.0039307
7.0108816
7.0207254
7.0334211
7.0486514
7.0660426
7.088028
7.1148644
7.1486844
7.1888605
7.2386373
7.3000202
7.3759612
7.4679882
7.5815355
7.7191029
7.8851224
8.0843732
8.3218289
8.6028074
8.9333467
9.3208653
9.7727544
10.299106
10.915064
11.632157
12.464367
13.408477
14.449215
15.474555
16.298846
16.070431
15.319374
14.354913
13.360196
12.443628
11.624761
10.912671
10.299862
9.7741976
9.3225456
8.935131
8.6044676
8.3229211
8.0850937
7.8856536
7.7194209
7.5814169
7.4677607
7.3752271
7.299679
7.2384567
7.1886221
7.148123
7.1151317
7.0883273
7.0661869
7.0483624
7.0326111
7.0205235
7.0106919
7.0043874
6.9995747
6.9962019
6.9948119
6.9962103
6.9963372
6.9961377
6.9956591
6.9946073
6.9963966
6.9992593
7.0040484
7.0109759
7.0210376
7.0329685
7.0483623
7.0660701
7.0878759
7.1147834
7.1479623
7.1881338
7.2375096
7.2990274
7.3749107
7.4675212
7.5813315
7.7194296
7.8858892
8.0856798
8.3237984
8.6056406
8.9367266
9.3247147
9.7760855
10.299368
10.908168
11.610349
12.412188
13.298746
14.239294
15.140104
15.816633
15.555852
14.945659
14.111638
13.223796
12.370437
11.590031
10.899202
10.297571
9.77635
9.3254158
8.9380441
8.6066057
8.3246795
8.0861286
7.8859611
7.7189628
7.5807557
7.4669297
7.3744154
7.2982957
7.2368088
7.1872746
7.1469536
7.1138437
7.0872996
7.0651136
7.0476443
7.0332687
7.0210621
7.0116405
7.0043437
6.9984281
6.9956423
6.9942959
6.9954636
6.9957954
6.996061
6.9954473
6.9942016
6.9958735
6.9983624
7.0035874
7.0110079
7.0199729
7.0327029
7.0475238
7.0644858
7.0872645
7.1139256
7.146704
7.1867598
7.2366148
7.2979864
7.3736458
7.4667074
7.58068
7.718721
7.8857508
8.0861123
8.3247877
8.607017
8.9383134
9.3251608
9.7742861
10.292203
10.886781
11.564122
12.321177
13.139256
13.974029
14.742582
15.292771
15.033009
14.536227
13.828016
13.044021
12.265024
11.532169
10.86848
10.281564
9.7689128
9.3224877
8.9368014
8.6059033
8.3241043
8.085393
7.8851208
7.718184
7.5799913
7.4661355
7.3730157
7.2978111
7.2365502
7.186575
7.1468556
7.1136931
7.0862589
7.0637889
7.0465185
7.0317378
7.0196706
7.0105128
7.0037789
6.9987693
6.9953858
6.9942313
6.9960455
6.996575
6.996339
6.9954739
6.9939139
6.995433
6.9979667
7.0030773
7.010299
7.019059
7.0312617
7.0466232
7.0639419
7.0858429
7.113172
7.1458346
7.18581
7.2354203
7.2965958
7.3721222
7.4649164
7.5786225
7.7167969
7.8834822
8.0835604
8.3218614
8.6032799
8.9331073
9.3163898
9.75899
10.267918
10.845528
11.493853
12.201765
12.942097
13.676367
14.326543
14.774932
14.513458
14.110276
13.515431
12.832271
12.128078
11.444721
10.813864
10.247415
9.7460731
9.3077859
8.9260931
8.5980631
8.3180314
8.0806826
7.8811074
7.7146275
7.5768694
7.4634667
7.3712989
7.2960807
7.2348192
7.185631
7.1455999
7.112895
7.0853344
7.0637517
7.0463783
7.0308532
7.0185232
7.009271
7.0022749
6.9969988
6.994518
6.9935987
6.9957956
6.9965932
6.996068
6.995042
6.9933163
6.9947734
6.9975533
7.0024117
7.0091619
7.0185712
7.0310182
7.0461364
7.0632467
7.0846866
7.1118535
7.144578
7.1848666
7.2337276
7.2950212
7.3699232
7.4623515
7.5751382
7.7123885
7.8780532
8.076692
8.3129451
8.5914005
8.9169289
9.2949811
9.7275807
10.221364
10.775461
11.389068
12.045654
12.713575
13.34893
13.887728
14.24622
13.977808
13.659069
13.170771
12.584756
11.953128
11.324168
10.72921
10.188893
9.7051526
9.2785627
8.9050627
8.5825634
8.3062941
8.0716733
7.8741775
7.7094163
7.5726285
7.4603813
7.3683386
7.293588
7.2326582
7.1838715
7.1439434
7.1112406
7.0844236
7.0628955
7.045505
7.0301429
7.0174828
7.0082286
7.0021239
6.9974388
6.9940944
6.9931448
6.9952352
6.996013
6.995223
6.99433
6.9928514
6.9942282
6.9969579
7.0013354
7.0080373
7.0171854
7.0291801
7.0446751
7.0620283
7.0831416
7.1100878
7.14263
7.1826536
7.2312161
7.2919752
7.3663495
7.4582217
7.5699289
7.7057774
7.8695474
8.0656835
8.2984771
8.571937
8.890551
9.2584434
9.6788365
10.15226
10.679384
11.252453
11.851706
12.445958
12.988228
13.426012
13.706431
13.43799
13.191479
12.797739
12.301779
11.745668
11.175734
10.622895
10.112169
9.6488872
9.2366916
8.8745994
8.5601803
8.2894034
8.058873
7.8644057
7.7017221
7.5667791
7.455515
7.3644492
7.2898549
7.2297698
7.1806867
7.141457
7.1081927
7.0817531
7.060617
7.043774
7.0291748
7.0172951
7.0083105
7.0013233
6.9967636
6.9936806
6.9929227
6.9945661
6.9949121
6.9939654
6.9942237
6.9928294
6.9930937
6.9958741
7.0002066
7.0073372
7.0158818
7.0277118
7.042391
7.0600803
7.0811074
7.1071329
7.1396408
7.1791542
7.2281255
7.2884782
7.3625355
7.4532566
7.5635571
7.6975311
7.8589277
8.0514669
8.2793908
8.5462828
8.8561234
9.2110801
9.6149548
10.066337
10.561721
11.090766
11.63284
12.150546
12.602522
12.958474
13.176944
12.928937
12.731771
12.411148
11.9956
11.514582
11.003821
10.498266
10.018561
9.580061
9.1856483
8.8374336
8.5323556
8.2691981
8.0439544
7.8532574
7.693389
7.5606098
7.4511121
7.3610632
7.2874485
7.227034
7.1780483
7.1390695
7.1067263
7.0803439
7.0590812
7.0413331
7.0267572
7.0150874
7.0066837
6.9996744
6.9959135
6.9933376
6.9926992
6.9941042
6.9941503
6.9930479
6.9932915
6.9918158
6.9919409
6.9951353
6.9987044
7.0051864
7.0138313
7.0263157
7.0408676
7.0578721
7.0786165
7.1052864
7.1371975
7.1767615
7.2255258
7.2858841
7.359008
7.448642
7.5572375
7.6892181
7.8477783
8.036543
8.2591241
8.5186258
8.8182662
9.1602325
9.5455528
9.9712525
10.433418
10.915751
11.396795
11.842995
12.225129
12.518442
12.698219
12.483214
12.317129
12.048037
11.692918
11.276013
10.82517
10.366772
9.9236467
9.5112533
9.1356262
8.8002195
8.5055522
8.2495109
8.0295678
7.8425775
7.6854514
7.5543395
7.4463323
7.3571665
7.2841154
7.2244902
7.1760107
7.1363309
7.1040494
7.0774892
7.0566349
7.0397428
7.0255511
7.0138418
7.0047641
6.9977615
6.9937403
6.9907869
6.9909872
6.992714
6.9928708
6.9914442
6.9916838
6.9902279
6.9901395
6.993279
6.9967202
7.0031829
7.0120767
7.0242081
7.0384179
7.0552733
7.0759621
7.1028971
7.1348744
7.1747566
7.2223582
7.2821567
7.3549048
7.4439417
7.5512764
7.6818086
7.8380018
8.0232281
8.2406751
8.4930952
8.7826102
9.1106787
9.4762538
9.8750408
10.298856
10.734269
11.158818
11.547366
11.87876
12.129823
12.286069
12.108537
11.960487
11.721709
11.408771
11.042607
10.642608
10.230434
9.8263105
9.442607
9.0871827
8.7665483
8.4819844
8.2329435
8.0177551
7.8338077
7.6786988
7.5489378
7.4418229
7.3531736
7.2803164
7.2209389
7.1733011
7.1339936
7.102168
7.0749684
7.0542077
7.0369549
7.0227274
7.0112857
7.0026252
6.9963597
6.99236
6.9888037
6.989195
6.99084
6.9909894
6.9892589
6.9893219
6.9876009
6.9873588
6.9906609
6.9944428
7.000531
7.0092335
7.0216007
7.03594
7.0530444
7.0739915
7.1008159
7.1320362
7.1712763
7.218798
7.2783428
7.3506958
7.4399101
7.5469617
7.676317
7.8307068
8.0134111
8.2265792
8.4724158
8.7518138
9.0646358
9.4086244
9.7777509
10.163771
10.553918
10.93274
11.279214
11.576368
11.805011
11.946613
11.800842
11.664509
11.445433
11.161245
10.82916
10.469374
10.097403
9.7294204
9.3754014
9.0432917
8.7385857
8.4645606
8.2220541
8.0105666
7.8290881
7.6746683
7.5456532
7.438129
7.3490016
7.2759619
7.2173122
7.1695525
7.1310788
7.0988424
7.0726683
7.051368
7.0343163
7.0198997
7.0075063
6.9992335
6.9927529
6.9882353
6.985684
6.9854609
6.987519
6.988292
6.9875801
6.9868629
6.9849167
6.984852
6.9867794
6.9911477
6.9981825
7.0062242
7.0178766
7.0331257
7.0505851
7.0714151
7.0974102
7.129226
7.1686184
7.2163299
7.274942
7.347927
7.4362795
7.5438506
7.6736149
7.8279275
8.0091334
8.2188707
8.4582212
8.7264847
9.0223267
9.3425983
9.6820828
10.03419
10.389609
10.734543
11.052922
11.326498
11.538103
11.670057
11.553367
11.424883
11.219813
10.954115
10.646852
10.315066
9.9739343
9.636584
9.3108273
9.0022439
8.7154135
8.453296
8.2174784
8.009048
7.8277717
7.6732531
7.5428646
7.4352544
7.3464028
7.2730731
7.21451
7.1675493
7.1286256
7.0968971
7.0705997
7.049344
7.0317882
7.0163422
7.0050256
6.9970755
6.9907745
6.9862964
6.9840541
6.9838095
6.9852213
6.9865318
6.9856058
6.9845766
6.9827134
6.9826839
6.9853205
6.9894494
6.9962629
7.0043792
7.0157087
7.030377
7.047807
7.0685489
7.0954483
7.1266504
7.1662394
7.21362
7.2721836
7.3448454
7.433482
7.5415815
7.6717427
7.8273287
8.0095602
8.2175821
8.4497392
8.7053808
8.9831888
9.2806774
9.5940687
9.9188203
10.247469
10.568278
10.86588
11.1241
11.323827
11.449321
11.356796
11.233982
11.039126
10.787317
10.49752
10.186271
9.8684447
9.5550807
9.2529023
8.9658121
8.6968288
8.446977
8.2163133
8.0086818
7.8264309
7.6704662
7.5397931
7.4313357
7.3426742
7.2698954
7.2113842
7.163767
7.1247924
7.0934687
7.0666375
7.0461754
7.0289251
7.0145472
7.0035986
6.9947425
6.9884
6.984628
6.9818415
6.9814208
6.9826535
6.9841039
6.9836097
6.9821987
6.9802872
6.9804588
6.9836822
6.9882321
6.9939908
7.0026182
7.0138368
7.0279809
7.0448053
7.0652275
7.0914771
7.1227498
7.1618245
7.209786
7.2677469
7.3405407
7.4288935
7.5368711
7.667986
7.8233212
8.0056081
8.2135934
8.4432459
8.6895165
8.9506754
9.228135
9.520377
9.8237761
10.132128
10.434948
10.717695
10.963865
11.154341
11.2746
11.201846
11.083851
10.897365
10.656432
10.379967
10.084642
9.7847305
9.490247
9.2070707
8.9377066
8.6813308
8.437035
8.2084453
8.0015758
7.8203559
7.6651796
7.5347015
7.4266476
7.3383698
7.2655947
7.2069732
7.1588129
7.1208271
7.0899878
7.0643358
7.0435234
7.0269593
7.012335
7.0015287
6.9928887
6.9864059
6.9823996
6.9796778
6.9791903
6.98058
6.9822697
6.9816098
6.9801984
6.9784441
6.9788928
6.9821004
6.9863203
6.9922558
7.0011372
7.0121157
7.0259922
7.0417972
7.0619549
7.0880543
7.1196029
7.1566674
7.2043378
7.2627102
7.3355398
7.4234671
7.5307687
7.6609029
7.8152356
7.9965437
8.2029504
8.4299345
8.6715859
8.9252693
9.1894908
9.4647114
9.7509399
10.043396
10.331906
10.602659
10.838814
11.021634
11.137666
11.081074
10.966885
10.787369
10.555655
10.290158
10.007764
9.7223459
9.4429973
9.1731006
8.9121434
8.6611111
8.4213132
8.1956833
7.9904571
7.8100463
7.6556159
7.5264528
7.4194748
7.3320778
7.2601254
7.2019365
7.1545893
7.1168095
7.0852382
7.0599422
7.0403842
7.0248463
7.0109607
6.9994391
6.9906539
6.9847268
6.9812172
6.9779046
6.9770858
6.9789048
6.9802044
6.9803913
6.9789442
6.9768928
6.9774815
6.9806581
6.9842392
6.9899039
6.9984347
7.0095091
7.0233131
7.0391412
7.0585425
7.0841161
7.1154838
7.153379
7.2004766
7.258321
7.3298352
7.4167953
7.5227112
7.6512969
7.8043494
7.9844578
8.1882084
8.4123138
8.6506008
8.8998233
9.1576555
9.4241899
9.6984118
9.9778414
10.254068
10.514414
10.742067
10.918736
11.031166
10.987669
10.876611
10.702634
10.478881
10.223212
9.9522183
9.677278
9.4065753
9.1427081
8.8867659
8.6395991
8.4026042
8.179908
7.9771765
7.7979941
7.6460485
7.5178992
7.4130498
7.3262489
7.255404
7.1973432
7.1508932
7.1126314
7.0821499
7.0575022
7.0372092
7.0212782
7.0079991
6.9973483
6.9886497
6.9833836
6.9793477
6.9763837
6.9762823
6.9787119
6.9798294
6.979157
6.9778113
6.9755758
6.9753716
6.9782744
6.982068
6.9878932
6.9957857
7.0067802
7.0196941
7.0355583
7.0555336
7.0805983
7.1114883
7.1487022
7.1952747
7.2527837
7.3234576
7.4092233
7.5133678
7.63999
7.7910526
7.9692679
8.1713207
8.3927032
8.6285676
8.8736681
9.127439
9.3893593
9.6575404
9.9296353
10.196972
10.44763
10.667018
10.838999
10.948592
10.913821
10.80574
10.636045
10.419715
10.172776
9.9083487
9.639116
9.3729731
9.1131785
8.8609348
8.6171415
8.382286
8.1614135
7.9607817
7.7845391
7.6343514
7.5086347
7.4049304
7.3191943
7.2498191
7.192341
7.1467122
7.1091594
7.0786646
7.0538133
7.033827
7.0181588
7.0050045
6.9940744
6.9869554
6.981366
6.9768539
6.9741237
6.9744928
6.9770118
6.9779715
6.9770639
6.9757576
6.9739153
6.9738098
6.9755049
6.97954
6.9853529
6.9925841
7.0037528
7.0169481
7.0324254
7.0519078
7.0769654
7.1075662
7.1445854
7.189951
7.2466109
7.3154812
7.4008849
7.5035704
7.6287366
7.777674
7.953077
8.1527595
8.3723511
8.6061938
8.8493511
9.1005044
9.3587454
9.6230761
9.8902483
10.151996
10.396374
10.610137
10.777023
10.881751
10.854131
10.7506
10.587378
10.376304
10.13332
9.8734551
9.6085025
9.3453352
9.0876631
8.8377627
8.5950539
8.3621282
8.1428384
7.9446132
7.7710202
7.6229849
7.4989608
7.3969653
7.3126097
7.2438149
7.1876392
7.1422313
7.1047159
7.0747646
7.0505012
7.0310061
7.0156882
7.0026292
6.9914397
6.9842074
6.9790912
6.9752057
6.9730225
6.9730977
6.9752247
6.9761458
6.9745989
6.9733799
6.9718989
6.971838
6.973324
6.9770648
6.9828782
6.9900995
7.0016393
7.0147789
7.0300088
7.0490649
7.0731695
7.1033436
7.1400493
7.1848333
7.2408198
7.3086057
7.3927963
7.4940766
7.6174509
7.7640671
7.9371553
8.1346593
8.3528331
8.5849434
8.8268081
9.0760295
9.3325134
9.5943702
9.8582931
10.11728
10.35793
10.567203
10.728082
10.830056
10.810007
10.70884
10.549307
10.34098
10.102003
9.8444179
9.5822924
9.3206841
9.064881
8.8159815
8.5755358
8.344263
8.1262372
7.9291693
7.7573392
7.6114174
7.4895682
7.3885278
7.3051306
7.2374002
7.1820897
7.137174
7.1015576
7.0714599
7.0478202
7.028272
7.0134498
7.0004438
6.9895678
6.9815768
6.9759831
6.97216
6.9705982
6.9707595
6.9722198
6.9730183
6.9726639
6.971396
6.9699547
6.9705962
6.9724419
6.9758806
6.9806907
6.9892499
6.9992556
7.0120659
7.0265058
7.0466371
7.0700774
7.0995733
7.135505
7.1799009
7.2353485
7.3021996
7.3847684
7.4851095
7.6072297
7.7520791
7.9230083
8.1195517
8.3360933
8.566998
8.8074041
9.0557218
9.3110001
9.5715373
9.8328931
10.089617
10.327238
10.534348
10.692565
10.792969
10.778857
10.678945
10.520954
10.316108
10.079164
9.823909
9.5636693
9.3036127
9.0482411
8.7999573
8.5595689
8.3290331
8.1132694
7.9169281
7.7468884
7.6029131
7.4812459
7.3815921
7.3001646
7.2332953
7.177857
7.1340234
7.0982164
7.068213
7.0447447
7.024901
7.0106036
6.9985974
6.988102
6.9802858
6.9741815
6.9712416
6.9692453
6.9691626
6.9715364
6.9726691
6.9719985
6.9704085
6.9684673
6.9690235
6.9706654
6.973843
6.9794738
6.9878151
6.9978665
7.0102695
7.0243398
7.0433916
7.0668647
7.0963814
7.1323509
7.176
7.2310947
7.2979105
7.3787824
7.4784476
7.5993907
7.7438625
7.9131826
8.108305
8.3240548
8.5545308
8.7947421
9.0425913
9.2979386
9.5572699
9.81758
10.072592
10.308506
10.512577
10.669195
10.768355
10.762335
10.663158
10.506916
10.304188
10.068803
9.8154682
9.5549858
9.2954776
9.0403657
8.7926212
8.552835
8.321956
8.1065592
7.9123661
7.7429956
7.5990423
7.4781781
7.3780163
7.2974009
7.2308343
7.1757927
7.130671
7.0951441
7.0662369
7.0429706
7.0241161
7.0094366
6.9968894
6.9867267
6.978011
6.9725163
6.9694892
6.9675752
6.9676183
6.9704516
6.9718377
6.9710838
6.9692953
6.9669972
6.9675406
6.9693945
6.9726113
6.9772369
6.9852954
6.9960089
7.0087171
7.0237316
7.042492
7.0663209
7.0957566
7.1308767
7.1754119
7.2308755
7.2969433
7.3782392
7.4783461
7.5998971
7.7434743
7.9135879
8.1082848
8.3239531
8.5545877
8.7943232
9.0417768
9.2969675
9.5560888
9.8169037
10.070319
10.304775
10.506757
10.661576
10.759957
10.763125
10.66551
10.511113
10.31027
10.076241
9.8238053
9.5639288
9.3046336
9.0496456
8.801266
8.5610134
8.3294869
8.1135468
7.9186132
7.7487121
7.6038493
7.4822187
7.3816352
7.2991807
7.2314246
7.1764619
7.1312494
7.0955842
7.0666006
7.0422483
7.0232195
7.00794
6.9953539
6.985174
6.9770917
6.9715107
6.9684241
6.9665419
6.9665571
6.9694813
6.9709349
6.9699697
6.9682546
6.966084
6.9665839
6.9682297
6.9713265
6.9765554
6.9847516
6.9955338
7.0084971
7.0238823
7.0433914
7.0674028
7.0973072
7.1330159
7.1786904
7.2344382
7.3033665
7.386767
7.4880006
7.611102
7.7568183
7.9287222
8.1253966
8.3422127
8.5737451
8.8154013
9.0641915
9.3194007
9.578325
9.8380214
10.09047
10.323572
10.524167
10.677438
10.774033
10.79417
10.698338
10.54529
10.345004
10.113137
9.8615863
9.6032601
9.3438742
9.088618
8.8388987
8.5963425
8.362696
8.1440431
7.9451411
7.7715139
7.622863
7.4985882
7.3950872
7.3101013
7.2399437
7.1829338
7.136757
7.0989582
7.0680604
7.0436002
7.0234304
7.0084569
6.99531
6.9847155
6.9764844
6.9700641
6.966633
6.9654701
6.9655282
6.9676588
6.9686915
6.9691565
6.9676464
6.9658382
6.9648897
6.9660195
6.969957
6.9756489
6.9838728
6.9951506
7.0087576
7.0245289
7.0447726
7.0708297
7.1024897
7.1419227
7.1892267
7.2476615
7.3199177
7.4079908
7.5148281
7.6422058
7.7938082
7.9718825
8.1736386
8.3953562
8.6318202
8.8758709
9.1259109
9.3813983
9.640493
9.8984538
10.149752
10.380895
10.579588
10.731489
10.826566
10.873962
10.779612
10.629034
10.431211
10.200879
9.9512391
9.6942866
9.4352547
9.1791623
8.9276721
8.6811549
8.4426152
8.2167116
8.0100413
7.8261875
7.6693247
7.536386
7.4257048
7.3337713
7.258787
7.1974016
7.1477461
7.1067713
7.0738639
7.0465148
7.0256984
7.0090119
6.9950937
6.9839686
6.975172
6.9695312
6.9651959
6.9637885
6.9652
6.9668967
6.9686239
6.9679556
6.9665871
6.9644877
6.963134
6.9642191
6.9688272
6.9742375
6.9827796
6.9948802
7.0095546
7.0267124
7.0486622
7.0773043
7.1117587
7.1553259
7.2076991
7.273231
7.3529249
7.4500001
7.5668675
7.7062391
7.8705189
8.0614682
8.2747085
8.506469
8.7492622
8.9983409
9.2512799
9.5081619
9.7669848
10.023488
10.272032
10.500319
10.695988
10.845474
10.939115
11.02537
10.933381
10.786061
10.592183
10.365952
10.119826
9.8640201
9.604947
9.3471766
9.0916822
8.8385395
8.59056
8.3512677
8.1289607
7.928612
7.7543922
7.6053864
7.480862
7.376482
7.2912863
7.2216125
7.1645779
7.1182944
7.0815581
7.0519536
7.0283606
7.0099719
6.9939512
6.9821569
6.9733649
6.9679322
6.9633507
6.9618849
6.9629304
6.9646085
6.9662992
6.9649514
6.963668
6.9618083
6.9612335
6.9623993
6.9668294
6.9731847
6.9823561
6.9937265
7.0103288
7.0299554
7.0549966
7.087245
7.1274202
7.1766082
7.2378598
7.3139639
7.4068672
7.5193574
7.6542149
7.8148629
8.0015066
8.2145624
8.4485718
8.6976165
8.9531819
9.2113163
9.4701511
9.7297575
9.9892329
10.244313
10.48849
10.711792
10.902551
11.047722
11.138229
11.282338
11.194037
11.051921
10.864213
10.643878
10.401865
10.147406
9.8866832
9.6242039
9.3604891
9.0954004
8.8305126
8.5698118
8.3207759
8.0914142
7.8886778
7.7138815
7.5659123
7.4422385
7.3408822
7.2579621
7.1908307
7.1369411
7.0942876
7.0598398
7.0325569
7.0112259
6.9942123
6.9815739
6.9720671
6.9656548
6.9615417
6.9596242
6.9600297
6.9614236
6.9630223
6.9614686
6.9602844
6.9584696
6.9578068
6.9599809
6.9646863
6.9707192
6.9808458
6.9944938
7.012214
7.0350811
7.0639821
7.1016826
7.1486385
7.2069546
7.2803804
7.3722585
7.4843432
7.6205666
7.7837836
7.9768686
8.1995914
8.4483354
8.7151703
8.99087
9.2676281
9.5419282
9.8125458
10.079555
10.342729
10.597399
10.837748
11.054918
11.238942
11.378028
11.464196
11.689905
11.606345
11.470649
11.289971
11.07536
10.8357
10.579229
10.311527
10.037338
9.7569576
9.4704471
9.1789715
8.8855096
8.5972476
8.324943
8.0791042
7.8649614
7.6830871
7.5314923
7.4068086
7.3058163
7.2244566
7.1602658
7.1088539
7.0690298
7.0379886
7.0140312
6.9943926
6.9800556
6.9694162
6.9632749
6.9577624
6.9556679
6.9556622
6.9576837
6.958755
6.9577603
6.9562956
6.9539809
6.9542263
6.9562026
6.9620979
6.9693981
6.9801197
6.9952187
7.015844
7.0414741
7.0742539
7.1173919
7.1739026
7.2442338
7.3333655
7.4452591
7.5841577
7.7529076
7.9554998
8.1941725
8.4670534
8.7662237
9.0788129
9.3933256
9.7030067
10.005472
10.299458
10.584456
10.859906
11.120925
11.362007
11.575372
11.753185
11.885695
11.966917
12.302897
12.22335
12.092794
11.916223
11.701869
11.456323
11.186928
10.89888
10.5979
10.285326
9.9622085
9.6300112
9.2908801
8.9508902
8.6218582
8.3192272
8.053434
7.8275657
7.6396028
7.4862476
7.3625188
7.2642515
7.1869039
7.1264875
7.0798293
7.0443145
7.0165267
6.9951303
6.9791962
6.9676731
6.9593595
6.9544093
6.9514286
6.9518074
6.9548624
6.9559708
6.954085
6.9525632
6.949941
6.9496357
6.9524017
6.9576064
6.9662408
6.9776712
6.994664
7.0171924
7.0465432
7.0843535
7.1347447
7.2001001
7.2839895
7.3911548
7.5274072
7.696521
7.9041092
8.1545536
8.4498352
8.7847389
9.1456001
9.51551
9.8828391
10.242308
10.591764
10.929096
11.252171
11.558763
11.842546
12.097652
12.316792
12.495359
12.625958
12.705039
13.177064
13.096994
12.96289
12.777709
12.547371
12.276146
11.971034
11.638084
11.2851
10.916274
10.534737
10.143208
9.7442387
9.3424965
8.9486014
8.580609
8.2551011
7.9791903
7.7510543
7.5664414
7.4187492
7.3026331
7.2116446
7.1419199
7.0881256
7.0479835
7.0171276
6.9936204
6.976668
6.9650019
6.9565074
6.9508497
6.9480368
6.947917
6.9508816
6.9519999
6.9501011
6.9485595
6.9461236
6.946102
6.9492164
6.9544181
6.9637053
6.9754364
6.9931
7.0170899
7.0489978
7.0911023
7.1475042
7.2215491
7.318443
7.4426005
7.6016308
7.8011827
8.0487005
8.349299
8.7045274
9.105129
9.5319142
9.9665798
10.399428
10.827206
11.24686
11.654331
12.045148
12.412724
12.748267
13.044649
13.294211
13.492612
13.6344
13.718619
14.318351
14.226373
14.070561
13.851381
13.573357
13.241733
12.865749
12.45523
12.019111
11.567029
11.105006
10.638184
10.169941
9.70293
9.2450197
8.8140664
8.4314374
8.1082336
7.8433687
7.6304891
7.461847
7.3306002
7.2291503
7.1513754
7.0929573
7.0490281
7.016164
6.991813
6.9740535
6.9620154
6.9529889
6.9477813
6.9448924
6.944395
6.9468999
6.9479767
6.9464588
6.9448297
6.9425568
6.9425571
6.9457328
6.9506207
6.9597325
6.971681
6.9899863
7.0147727
7.0479426
7.0924715
7.1525901
7.2324959
7.3379608
7.4745447
7.6508186
7.8741544
8.1534899
8.4956237
8.9015435
9.358748
9.8444938
10.341772
10.844152
11.350627
11.857164
12.357467
12.843358
13.304625
13.730012
14.105673
14.421374
14.669815
14.846762
14.951708
15.572305
15.450223
15.246362
14.961138
14.601066
14.175156
13.696294
13.18021
12.64286
12.095177
11.545906
11.002633
10.468836
9.9458417
9.437404
8.9599073
8.5364783
8.1806464
7.8914059
7.660708
7.4797619
7.3393396
7.2319231
7.1506118
7.0901153
7.0450171
7.0118521
6.9862423
6.9689987
6.957055
6.9485813
6.9436834
6.9410095
6.9418104
6.9440723
6.94499
6.9432197
6.9424056
6.9390965
6.9390224
6.9412225
6.9458133
6.9546003
6.9660154
6.9831422
7.0077794
7.0411376
7.0858231
7.1464472
7.2274334
7.3351064
7.4762179
7.658971
7.892519
8.1866302
8.549731
8.9833912
9.4740241
9.9984406
10.541554
11.099586
11.673466
12.259186
12.849791
13.435675
14.002468
14.533233
15.009211
15.415362
15.739726
15.973613
16.114533
16.503558
16.345109
16.083682
15.723437
15.278246
14.760165
14.186993
13.580382
12.957349
12.332896
11.719498
11.124493
10.550047
9.9953077
9.4627781
8.9675481
8.5321719
8.1692749
7.8764934
7.6447324
7.4637583
7.3244953
7.2181439
7.1388707
7.0787408
7.0354848
7.0036203
6.979353
6.9631528
6.9516682
6.9432121
6.9396974
6.9377088
6.9381613
6.9410566
6.9419492
6.9397546
6.9389421
6.9357383
6.935053
6.9372613
6.9403899
6.9475963
6.9584185
6.9749914
6.9981019
7.0285901
7.0703237
7.1278709
7.2045395
7.3073698
7.4418831
7.6175363
7.8426828
8.127963
8.4827114
8.9106401
9.4008544
9.9320632
10.489643
11.070049
11.676688
12.306572
12.949386
13.59302
14.222524
14.821625
15.367409
15.838864
16.222768
16.504212
16.674232
16.590851
16.415544
16.128211
15.736895
15.256396
14.703087
14.098805
13.465458
12.819763
12.175875
11.544653
10.937264
10.358813
9.8083989
9.2882803
8.8134751
8.4027768
8.0640628
7.7925272
7.5784494
7.4116353
7.2842263
7.186863
7.1144331
7.0603089
7.0202793
6.9909841
6.9697476
6.9539427
6.9441422
6.9378329
6.934576
6.9330335
6.9337754
6.9367797
6.93782
6.9353063
6.9342035
6.9305457
6.9295298
6.9314098
6.9339114
6.9401986
6.9498049
6.9636743
6.9835151
7.0107132
7.047521
7.0982579
7.1659545
7.2560657
7.3743437
7.5291092
7.727937
7.9802873
8.2955133
8.6796823
9.1283185
9.6258585
10.160568
10.728475
11.325114
11.943
12.572356
13.202642
13.821395
14.411902
14.953519
15.424401
15.807409
16.089311
16.260491
15.723525
15.562105
15.295789
14.933171
14.486196
13.97113
13.409518
12.81979
12.217526
11.614979
11.021691
10.447617
9.9021254
9.3925211
8.9273332
8.5160199
8.1669047
7.8811918
7.6524327
7.4720747
7.3317085
7.224086
7.1417089
7.0803705
7.0345307
7.0007414
6.9754139
6.9569593
6.943896
6.935814
6.9309945
6.9285033
6.9274765
6.9286567
6.9319371
6.9331772
6.9302288
6.9290885
6.9252461
6.9236669
6.9248574
6.9267195
6.9316172
6.9395412
6.9509966
6.966843
6.9897468
7.0195358
7.061076
7.1159236
7.1895899
7.285254
7.410061
7.5698849
7.7721334
8.024271
8.3320248
8.6977231
9.1185327
9.5888413
10.099378
10.639739
11.199934
11.768503
12.334492
12.886775
13.410486
13.889303
14.303941
14.638581
14.884302
15.032259
14.233122
14.099578
13.877764
13.573573
13.195038
12.755859
12.272151
11.761041
11.234936
10.707504
10.190015
9.696726
9.2374918
8.8218121
8.4554909
8.140523
7.8761473
7.6590779
7.4844191
7.345635
7.2377605
7.1542805
7.0897781
7.0411225
7.0045248
6.9776962
6.9582084
6.9437896
6.933749
6.9268172
6.9232766
6.9214136
6.9205295
6.9220162
6.9257502
6.927446
6.9256462
6.9238688
6.9203274
6.9181444
6.9189379
6.9205709
6.9232162
6.9285263
6.9374561
6.9505237
6.9672043
6.9906203
7.0225627
7.0640363
7.1192344
7.1903184
7.282501
7.4004002
7.5479088
7.7306397
7.9524542
8.2164105
8.5243268
8.8766418
9.2701778
9.6994188
10.157505
10.632394
11.110355
11.576278
12.01767
12.417906
12.761281
13.035526
13.234849
13.356025
12.409539
12.302889
12.125066
11.880719
11.573317
11.215894
10.824256
10.413994
10.000733
9.5968534
9.2128673
8.8572441
8.5336771
8.2448201
7.9925858
7.7760555
7.593717
7.4429012
7.3209434
7.2230493
7.1458598
7.0860389
7.039877
7.0045257
6.9778188
6.9580225
6.9434574
6.9318337
6.9239805
6.9192119
6.9163528
6.9155015
6.9151928
6.9178837
6.9206573
6.9228349
6.9210509
6.918934
6.9156629
6.9131981
6.9130944
6.914117
6.9161577
6.9196029
6.9262869
6.9360524
6.9480304
6.9646874
6.987195
7.0161494
7.05465
7.1038787
7.1675842
7.2476755
7.3467759
7.4690574
7.6163825
7.7906708
7.9932528
8.2247429
8.4834193
8.7683995
9.0767041
9.402929
9.7385279
10.075338
10.401404
10.702519
10.963169
11.172907
11.326412
11.419598
10.460891
10.387446
10.266278
10.101342
9.8954847
9.6583073
9.403271
9.1402569
8.8784154
8.6238871
8.3826358
8.1595573
7.9561471
7.7739615
7.6140163
7.4760861
7.3592837
7.2616687
7.1823556
7.1182128
7.0669338
7.0263417
6.9952543
6.97151
6.9531215
6.938903
6.9294117
6.921362
6.9160402
6.9131438
6.9108955
6.9105558
6.9111146
6.9131741
6.9161906
6.91885
6.9174553
6.9148514
6.9111179