/*--------------------------------*- C++ -*----------------------------------*\
| =========                 |                                                 |
| \\      /  F ield         | OpenFOAM: The Open Source CFD Toolbox           |
|  \\    /   O peration     | Version:  v2012                                 |
|   \\  /    A nd           | Website:  www.openfoam.com                      |
|    \\/     M anipulation  |                                                 |
\*---------------------------------------------------------------------------*/
FoamFile
{
    version     2.0;
    format      ascii;
    class       volScalarField;
    location    "100";
    object      nut;
}
// * * * * * * * * * * * * * * * * * * * * * * * * * * * * * * * * * * * * * //

dimensions      [0 2 -1 0 0 0 0];


internalField   nonuniform List<scalar> 
14958
(
0.033468295
0.033468021
0.033512196
0.033511524
0.033512002
0.033511826
0.033512535
0.033512337
0.03351277
0.033512728
0.033512728
0.03351277
0.033512337
0.033512535
0.033511826
0.033512002
0.033511524
0.033512195
0.033512161
0.033513081
0.033512918
0.033513385
0.033513269
0.033513324
0.033513263
0.033513241
0.033513228
0.033513229
0.033513232
0.033513236
0.033513238
0.03351324
0.033513241
0.033513242
0.033513242
0.033513241
0.03351324
0.033513241
0.033513257
0.033513281
0.033513344
0.033513292
0.033513409
0.033512945
0.033513108
0.03351219
0.033512225
0.033511555
0.033512052
0.033511921
0.033512695
0.033512591
0.033513124
0.033513187
0.033513266
0.033513339
0.03351289
0.03351301
0.033512218
0.033512304
0.033511782
0.033512451
0.033512424
0.033513339
0.033513183
0.033513648
0.033513531
0.033513579
0.033513536
0.033513783
0.033514733
0.033516414
0.033518234
0.033518853
0.03351887
0.033518855
0.03351884
0.033518824
0.033518777
0.033518129
0.033516284
0.03351458
0.033513607
0.033513337
0.033513361
0.033513297
0.033513405
0.033512932
0.033513089
0.033512165
0.033468634
0.033469329
0.033469725
0.033470126
0.03347025
0.033470294
0.033470365
0.03347111
0.033473697
0.033478147
0.033482871
0.033484551
0.0334847
0.033484746
0.033484788
0.033484826
0.033484759
0.033483157
0.033478508
0.033474136
0.033471633
0.033470977
0.033470995
0.03347104
0.033471001
0.03347069
0.033470374
0.033469766
0.033469211
0.033468772
0.03342471
0.033380502
0.033341761
0.033318319
0.033329934
0.033401859
0.023008652
0.032350618
0.032387395
0.032425074
0.032463461
0.032501932
0.032539631
0.032575471
0.032608443
0.032638173
0.03266606
0.032694788
0.032726541
0.032762361
0.0328023
0.032845867
0.032892399
0.032941266
0.03299196
0.033044101
0.033097418
0.033151686
0.033206646
0.033261868
0.033316678
0.033369962
0.033420735
0.033421602
0.033421914
0.033422752
0.033422991
0.033423312
0.033423338
0.033423534
0.033424832
0.033429143
0.033436465
0.033444075
0.033446845
0.033447159
0.033447258
0.033447347
0.033447428
0.033447291
0.033444688
0.033437249
0.033430124
0.033426038
0.033424994
0.033425077
0.033425357
0.033425367
0.033425492
0.033425028
0.033425075
0.033424485
0.03337982
0.03334025
0.033315779
0.033327051
0.033403349
0.020553161
0.015490611
0.015450119
0.01552165
0.015491095
0.015669967
0.015467252
0.01546601
0.015463235
0.015432288
0.015404414
0.015295518
0.015280774
0.015236336
0.015169145
0.01508009
0.014974676
0.014853767
0.014715885
0.014552231
0.014349125
0.014171093
0.013727559
0.013372997
0.012854014
0.0081649963
0.0049775145
0.0032140314
0.0022221841
0.0021845439
0.0026739581
0.0021705524
0.0019566584
0.0026608463
0.0031410009
0.0023994389
0.0024761712
0.0026165945
0.0031936636
0.0046302324
0.0077913409
0.011775966
0.018528518
0.028669621
0.033137972
0.033081179
0.03307626
0.033098037
0.033132564
0.033173448
0.033217655
0.033263607
0.033310272
0.03335668
0.033401692
0.033405617
0.033406171
0.033406364
0.033406543
0.033406708
0.03340651
0.033402928
0.033392808
0.03338296
0.033377355
0.033376051
0.033376436
0.033377238
0.03337778
0.033378716
0.033378831
0.033379881
0.033338802
0.033311108
0.033315516
0.033381514
0.023761286
0.024352549
0.03338761
0.033320889
0.033313717
0.033339528
0.033379471
0.033424238
0.03346899
0.033469353
0.033469757
0.033470052
0.033470362
0.033470376
0.033470173
0.033469794
0.033469213
0.033468764
0.033468293
0.033467925
0.03346771
0.033421334
0.033371514
0.033319976
0.033267758
0.033216625
0.033167653
0.033121694
0.033079252
0.033040452
0.033004982
0.032972018
0.032940352
0.032908564
0.032875364
0.032883859
0.032915401
0.032945603
0.032975818
0.033007525
0.033041984
0.033080027
0.033121942
0.033167549
0.033216295
0.033267301
0.033319418
0.033371093
0.033421014
0.033421542
0.03337167
0.033319899
0.033267803
0.033216919
0.0331685
0.033123506
0.033082606
0.033046103
0.033013784
0.032984806
0.032957804
0.032931161
0.032903384
0.032939902
0.032960595
0.032980511
0.03300141
0.033025191
0.033053424
0.033086968
0.03312588
0.033169628
0.033217321
0.033267827
0.033319783
0.033371596
0.03342165
0.033422555
0.033372771
0.033321164
0.033269489
0.033219525
0.033172903
0.033131115
0.0330955
0.033067065
0.033046066
0.033031577
0.033021564
0.033013494
0.033005054
0.033116666
0.033105556
0.033093769
0.033084727
0.033082458
0.033090269
0.033109446
0.033139143
0.03317741
0.033222053
0.033270959
0.033322091
0.033373437
0.033423123
0.033423822
0.033374469
0.033323621
0.033273396
0.033226229
0.033184891
0.033152675
0.033133481
0.033131136
0.033147279
0.033178436
0.033217684
0.033257845
0.033293574
0.033503752
0.033462022
0.033400993
0.033329864
0.033259775
0.033203624
0.03317534
0.033175215
0.033196624
0.033232217
0.033276423
0.033325156
0.033375255
0.033424227
0.033424308
0.033375817
0.033326867
0.033280576
0.033241376
0.033215874
0.033214313
0.033249018
0.033324085
0.033423407
0.030982695
0.030710685
0.031682676
0.033479217
0.029140398
0.02644499
0.023820098
0.024306363
0.024409246
0.028734743
0.033365327
0.033280517
0.033248048
0.033256073
0.033287133
0.033329613
0.033376783
0.033424431
0.033424117
0.033377283
0.033332414
0.033295312
0.033276524
0.033295255
0.033372705
0.0275174
0.019504364
0.028480236
0.033348996
0.033301456
0.033305813
0.033336732
0.033378894
0.033424463
0.033424406
0.033424565
0.033424751
0.033424919
0.03342482
0.033424439
0.033423808
0.033422988
0.033422245
0.033421637
0.033421359
0.033421258
0.033422096
0.033422365
0.033423152
0.033423331
0.033423586
0.033423526
0.033423471
0.033423369
0.033423295
0.033423241
0.033423205
0.033423178
0.033423156
0.033423136
0.033423119
0.033423102
0.033423087
0.033423076
0.033423074
0.033423089
0.033423123
0.033423183
0.033423198
0.033423217
0.033422924
0.033422708
0.03342189
0.033421592
0.033420735
0.033420804
0.033467541
0.033468019
0.033468626
0.033469312
0.033469696
0.033470082
0.033470189
0.03347021
0.033470169
0.033470123
0.033470097
0.033470088
0.03347009
0.033470096
0.033470102
0.033470108
0.033470114
0.03347012
0.033470125
0.033470132
0.033470142
0.033470163
0.033470202
0.033470261
0.033470314
0.033470306
0.03347021
0.033469836
0.03346946
0.033468785
0.033468184
0.033468496
0.033512337
0.033512621
0.033513282
0.033513521
0.033513856
0.03351387
0.033513874
0.033513817
0.033513778
0.033513752
0.033513741
0.033513736
0.033513734
0.033513733
0.033513731
0.03351373
0.033513727
0.033513725
0.033513724
0.033513725
0.033513732
0.033513754
0.03351379
0.033513843
0.033513835
0.033513818
0.03351348
0.033513239
0.033512574
0.033512288
0.033512371
0.03351299
0.033513669
0.033514181
0.033514503
0.033514594
0.033514575
0.033514516
0.033514466
0.033514436
0.033514422
0.033514417
0.033514418
0.03351442
0.033514423
0.033514425
0.033514429
0.033514433
0.033514439
0.03351445
0.03351447
0.033514507
0.033514564
0.033514629
0.033514654
0.03351457
0.033514254
0.033513748
0.033513075
0.033512462
0.033512959
0.033513607
0.033514392
0.033515026
0.033515374
0.033515464
0.033515419
0.033515336
0.033515265
0.033515219
0.033515191
0.033515175
0.033515165
0.033515159
0.033515153
0.033515148
0.033515143
0.03351514
0.033515139
0.033515145
0.033515161
0.033515197
0.033515256
0.033515327
0.033515362
0.033515261
0.033514902
0.033514257
0.033513461
0.033512803
0.033512991
0.033513902
0.033514828
0.033515542
0.033515915
0.033516005
0.033515952
0.033515868
0.033515803
0.033515765
0.033515748
0.033515744
0.033515746
0.033515751
0.033515757
0.033515765
0.033515774
0.033515784
0.033515797
0.033515818
0.033515851
0.033515906
0.03351599
0.033516091
0.03351616
0.033516088
0.033515732
0.033515037
0.033514129
0.033513234
0.033513664
0.03351457
0.033515523
0.033516233
0.033516576
0.033516626
0.033516535
0.033516417
0.033516323
0.033516261
0.033516222
0.033516197
0.033516179
0.033516165
0.033516154
0.033516143
0.033516135
0.033516127
0.033516123
0.033516126
0.033516142
0.033516181
0.03351625
0.033516344
0.033516411
0.033516337
0.033515969
0.033515232
0.033514252
0.033513324
0.033513411
0.033514417
0.033515423
0.033516163
0.033516524
0.033516589
0.033516514
0.033516416
0.033516345
0.033516306
0.033516291
0.03351629
0.033516296
0.033516305
0.033516316
0.033516329
0.033516343
0.03351636
0.033516382
0.033516411
0.033516455
0.033516524
0.033516626
0.033516755
0.033516861
0.033516827
0.033516498
0.033515793
0.033514822
0.033513847
0.033513921
0.033514889
0.033515853
0.033516553
0.033516878
0.033516907
0.033516798
0.033516665
0.033516558
0.033516486
0.033516438
0.033516406
0.033516381
0.033516362
0.033516345
0.03351633
0.033516317
0.033516307
0.0335163
0.0335163
0.033516314
0.033516351
0.033516421
0.033516518
0.033516592
0.033516527
0.033516165
0.033515424
0.033514418
0.033513411
0.033513325
0.033514254
0.033515235
0.033515973
0.033516344
0.03351642
0.033516356
0.033516272
0.033516211
0.033516177
0.033516164
0.033516165
0.033516172
0.033516184
0.033516197
0.033516213
0.033516231
0.033516252
0.033516278
0.033516312
0.03351636
0.033516432
0.033516532
0.033516654
0.033516755
0.033516716
0.033516384
0.033515688
0.033514752
0.033513866
0.033513514
0.033514384
0.033515269
0.033515946
0.033516287
0.033516347
0.033516265
0.03351617
0.033516197
0.033516156
0.033516113
0.03351608
0.033516055
0.033516034
0.033516015
0.033516
0.033515986
0.033515974
0.033515966
0.033515965
0.033515972
0.033515976
0.033515914
0.033515972
0.033516019
0.033515926
0.033515549
0.033514833
0.033513904
0.033512992
0.033512804
0.033513464
0.033514263
0.033514911
0.033515275
0.033515382
0.033515354
0.033515315
0.0335155
0.033516008
0.033516071
0.033516082
0.033516091
0.033516103
0.033516116
0.033516132
0.03351615
0.03351617
0.033516193
0.033516215
0.033516186
0.033515708
0.033515555
0.033515625
0.033515682
0.033515602
0.033515266
0.033514648
0.033513884
0.03351326
0.033512745
0.033513341
0.033514
0.033514497
0.033514807
0.033514885
0.033514851
0.033514802
0.033514998
0.033515835
0.0335168
0.03351689
0.033516881
0.033516863
0.033516846
0.033516831
0.033516817
0.033516804
0.033516782
0.033516661
0.033515669
0.033514806
0.033514583
0.033514606
0.033514617
0.03351452
0.033514193
0.033513676
0.033512994
0.033512373
0.033512289
0.033512578
0.033513246
0.033513493
0.033513837
0.033513861
0.033513878
0.033513862
0.03351411
0.033515051
0.033516652
0.033517714
0.033517828
0.033517849
0.033517863
0.033517878
0.033517894
0.033517904
0.033517819
0.033516784
0.033515208
0.033514291
0.033514066
0.033514104
0.033514106
0.033514095
0.033513763
0.033513524
0.033512868
0.033512587
0.033469526
0.033469826
0.033470405
0.03347082
0.03347125
0.033471327
0.033471138
0.033470718
0.033470034
0.033469467
0.033468818
0.033469739
0.033469099
0.033421937
0.033371435
0.033372099
0.033372051
0.033372969
0.033372984
0.033373257
0.033373113
0.033373005
0.033372838
0.033372703
0.033372592
0.033372508
0.03337244
0.033372382
0.033372331
0.033372286
0.033372247
0.033372213
0.033372189
0.033372177
0.03337219
0.033372225
0.033372289
0.033372294
0.033372336
0.033371967
0.033371859
0.033370864
0.033370846
0.033369967
0.033370196
0.033317176
0.033262392
0.033207186
0.033152146
0.033097671
0.03304393
0.032990984
0.032938865
0.03288759
0.032837159
0.032787549
0.032738711
0.032690564
0.032642996
0.032595873
0.03254906
0.032502448
0.032455969
0.032409609
0.032363405
0.032317428
0.032271756
0.032226399
0.03218131
0.032265656
0.032273595
0.032309447
0.03230211
0.03229418
0.0322852
0.03227464
0.03226233
0.032248575
0.032234354
0.032220698
0.032208569
0.032198631
0.032191035
0.032185711
0.032182511
0.032227636
0.032230643
0.032235577
0.032242664
0.032252015
0.032263486
0.032276455
0.032289978
0.032303002
0.032314575
0.03232441
0.03233275
0.032340096
0.032346932
0.032386293
0.032379826
0.032372872
0.032364945
0.032355557
0.032344444
0.032331919
0.032318935
0.032306554
0.032295687
0.032286902
0.032280314
0.032275768
0.032272968
0.032318578
0.032321157
0.032325317
0.032331407
0.032339626
0.03234991
0.032361753
0.032374303
0.032386509
0.032397393
0.032406588
0.032414337
0.032421101
0.032427356
0.032475575
0.03246958
0.032463366
0.032456596
0.032448821
0.032439631
0.032428836
0.03241687
0.032404739
0.032393447
0.032383769
0.032376142
0.032370562
0.032366803
0.032364467
0.032410566
0.032412643
0.032415982
0.032421019
0.032427997
0.032436987
0.032447626
0.032459244
0.032470911
0.032481638
0.032490921
0.032498866
0.032505814
0.032512166
0.032518247
0.032524269
0.032572993
0.032566745
0.032560505
0.03255416
0.032547513
0.032540279
0.032532121
0.032522789
0.032512269
0.032501105
0.032490208
0.032480397
0.032472222
0.032465969
0.032461514
0.032458614
0.032456807
0.032503156
0.032504689
0.03250714
0.032510983
0.032516437
0.03252367
0.032532457
0.032542373
0.03255275
0.032562809
0.032572017
0.032580299
0.032587809
0.032594798
0.032601502
0.032608083
0.03261464
0.032654653
0.032647716
0.032640759
0.032633711
0.032626449
0.032618801
0.032610606
0.0326018
0.032592519
0.03258322
0.032574518
0.03256692
0.032560728
0.032556118
0.032552896
0.032550893
0.032549633
0.03259631
0.032597313
0.032598886
0.032601506
0.03260527
0.032610387
0.03261671
0.032624048
0.03263205
0.032640279
0.032648375
0.032656185
0.032663712
0.032671035
0.032678263
0.032685479
0.032692724
0.032729102
0.032721757
0.032714524
0.032707387
0.032700303
0.032693219
0.032686101
0.03267898
0.032671992
0.032665387
0.032659444
0.032654379
0.032650293
0.032647321
0.03264525
0.032644072
0.032643303
0.032690748
0.032691317
0.032692153
0.032693756
0.032696029
0.032699193
0.032703106
0.03270774
0.032712977
0.032718667
0.032724655
0.032730842
0.03273719
0.032743708
0.032750416
0.032757333
0.032764465
0.032874446
0.032872691
0.032869672
0.032865851
0.032861052
0.032855613
0.032849464
0.032842779
0.032835705
0.032828418
0.032821076
0.032813808
0.03280671
0.032799847
0.032793265
0.03278698
0.032780991
0.032775288
0.032769863
0.032764723
0.032759899
0.032755451
0.032751454
0.03274797
0.032745047
0.032742659
0.03274097
0.032739742
0.03273919
0.032738783
0.032787518
0.0327878
0.032788124
0.032789072
0.0327903
0.032792071
0.03279419
0.032796724
0.032799665
0.032803011
0.032806739
0.032810823
0.032815246
0.032820001
0.032825092
0.032830526
0.032836301
0.032842405
0.032848807
0.032855455
0.032862274
0.032869146
0.032875918
0.032882415
0.032888483
0.032893912
0.032898761
0.032902618
0.032905737
0.032907563
0.032939304
0.032937505
0.032934433
0.032930756
0.032926117
0.032921005
0.032915343
0.032909369
0.03290323
0.032897091
0.032891082
0.032885301
0.032879811
0.032874647
0.032869828
0.032865358
0.032861233
0.032857447
0.032853997
0.032850883
0.032848112
0.032845686
0.032843597
0.03284181
0.032840315
0.03283901
0.03283813
0.032837373
0.032837225
0.032837031
0.032887373
0.032887512
0.032887523
0.032888168
0.032888792
0.032889762
0.032890793
0.032892016
0.03289345
0.032895147
0.03289713
0.032899413
0.032901997
0.032904883
0.032908078
0.032911589
0.032915423
0.032919581
0.032924056
0.032928828
0.032933854
0.032939058
0.032944332
0.032949526
0.03295451
0.032959022
0.032963191
0.032966455
0.032969314
0.032970968
0.03300397
0.03300256
0.033000043
0.032997367
0.03299385
0.032990125
0.032985991
0.032981729
0.032977441
0.032973257
0.032969262
0.032965513
0.032962036
0.032958841
0.032955928
0.032953289
0.032950916
0.032948802
0.032946941
0.032945328
0.032943959
0.032942816
0.032941867
0.032941053
0.03294036
0.032939621
0.032939179
0.032938585
0.032938678
0.032938564
0.032990607
0.032990723
0.032990547
0.032991138
0.032991451
0.032992039
0.032992492
0.032993017
0.032993617
0.032994357
0.032995266
0.032996364
0.032997657
0.032999146
0.033000838
0.03300274
0.03300486
0.033007207
0.033009786
0.033012594
0.033015618
0.033018818
0.033022128
0.033025436
0.03302867
0.033031533
0.033034316
0.033036302
0.033038406
0.033039506
0.033078383
0.033077617
0.033075927
0.033074637
0.033072568
0.033070533
0.033068138
0.033065707
0.033063275
0.033060943
0.033058759
0.03305675
0.033054922
0.033053273
0.033051794
0.033050479
0.033049319
0.033048309
0.033047445
0.033046725
0.033046146
0.033045691
0.033045334
0.033045008
0.033044724
0.033044232
0.033044013
0.033043388
0.033043632
0.033043488
0.033097182
0.033097375
0.033097075
0.033097761
0.033097909
0.033098347
0.033098509
0.033098701
0.033098892
0.033099152
0.033099501
0.033099953
0.033100509
0.033101168
0.033101931
0.033102803
0.033103789
0.033104898
0.033106135
0.033107506
0.033109013
0.033110636
0.033112341
0.033114036
0.03311572
0.033117035
0.033118484
0.033119138
0.033120459
0.033120905
0.033166934
0.033166777
0.033165758
0.033165644
0.033164686
0.033163948
0.033162819
0.033161698
0.033160554
0.033159476
0.033158484
0.033157591
0.033156794
0.033156085
0.033155457
0.033154905
0.033154425
0.033154014
0.033153672
0.033153402
0.033153207
0.033153076
0.033152997
0.033152893
0.033152819
0.03315241
0.033152316
0.033151548
0.033151889
0.033151622
0.033206647
0.033207015
0.033206665
0.033207527
0.033207583
0.03320798
0.033207992
0.033208039
0.033208047
0.033208096
0.033208192
0.033208342
0.033208542
0.033208785
0.033209072
0.033209403
0.033209781
0.03321021
0.033210696
0.033211246
0.033211869
0.033212553
0.03321329
0.033213991
0.033214716
0.033215022
0.033215617
0.033215298
0.033216073
0.033215969
0.033267184
0.033267543
0.033266988
0.033267632
0.033267296
0.03326729
0.033266841
0.033266431
0.033265974
0.033265558
0.033265188
0.033264869
0.033264591
0.033264349
0.033264137
0.033263951
0.03326379
0.033263654
0.033263545
0.033263469
0.033263433
0.033263433
0.033263469
0.033263453
0.033263482
0.033263087
0.033263049
0.033262094
0.0332624
0.033261885
0.03331669
0.033317367
0.033317177
0.033318193
0.033318245
0.033318636
0.03331859
0.03331859
0.033318533
0.033318508
0.03331851
0.033318543
0.033318597
0.033318668
0.033318751
0.033318848
0.033318957
0.033319083
0.033319228
0.0333194
0.033319609
0.03331985
0.033320127
0.033320348
0.033320614
0.033320431
0.033320576
0.033319724
0.033320049
0.033319459
0.033371266
0.033371127
0.033319173
0.033267011
0.033216036
0.03316731
0.033121663
0.03307965
0.033041476
0.033006881
0.032975063
0.032944781
0.032914563
0.032883046
0.012097738
0.012269914
0.012433915
0.012590518
0.012742809
0.012889935
0.013034443
0.01317565
0.013316262
0.013455031
0.013592857
0.013728989
0.013865892
0.014000979
0.014134884
0.014264145
0.014388493
0.014500681
0.014597923
0.014664746
0.014695579
0.014669965
0.014610178
0.014462696
0.014337433
0.008496571
0.010531175
0.0055522847
0.0053256441
0.0056742851
0.0028334262
0.0025660965
0.003358847
0.0039651652
0.0041855964
0.0046305851
0.0086637129
0.010981867
0.0088800417
0.014811122
0.015029704
0.015016245
0.014929889
0.01482044
0.014698399
0.014576603
0.01444974
0.014322959
0.014193669
0.014065554
0.013935783
0.013805722
0.013674023
0.013542853
0.013410792
0.013278096
0.013142679
0.013005583
0.012864366
0.012719319
0.012568418
0.012412243
0.012248338
0.012075774
0.01214848
0.01231449
0.012472616
0.012622231
0.012767318
0.01290567
0.01304046
0.013170733
0.013299035
0.013424459
0.013548626
0.013672147
0.013795223
0.013916622
0.014036473
0.014154038
0.014272324
0.014385845
0.014498161
0.014599878
0.01469874
0.014769037
0.014796106
0.014755274
0.01447188
0.011696623
0.012956112
0.0065074638
0.0048728784
0.008482069
0.013077976
0.013302124
0.01361128
0.013856438
0.014025977
0.014134889
0.014170546
0.014175524
0.014145906
0.0141003
0.014039116
0.01396804
0.013890376
0.013803455
0.01371425
0.013620816
0.013526087
0.013428705
0.013325724
0.013223555
0.013111964
0.01300355
0.012881816
0.012763638
0.012628455
0.012497345
0.032314477
0.032352846
0.032392433
0.032432991
0.03247398
0.032514571
0.032553639
0.032590239
0.032623961
0.03265583
0.032687975
0.032722314
0.0327599
0.032800976
0.032845251
0.032892219
0.032941359
0.032992229
0.033044486
0.033097875
0.033152189
0.033207171
0.033262365
0.033317156
0.033370185
0.0334208
0.03346754
0.033467715
0.033420418
0.033369684
0.033316486
0.033261755
0.033206601
0.033151684
0.033097433
0.033044099
0.032991885
0.032941035
0.032891869
0.032844805
0.032800332
0.032758921
0.032720838
0.032685852
0.032652979
0.032620435
0.032586215
0.032549293
0.032510021
0.032469298
0.032428201
0.032387523
0.032347793
0.032309242
0.032298625
0.03228256
0.032262879
0.032242823
0.032225197
0.032211117
0.032200595
0.032193083
0.032187835
0.032184232
0.032182064
0.032227177
0.032229135
0.032232303
0.032236978
0.032243786
0.032253497
0.032266683
0.032283411
0.03230266
0.032321754
0.03233744
0.03237739
0.032362032
0.03234343
0.03232486
0.032308898
0.032296481
0.032287468
0.032281263
0.032277086
0.032274287
0.03227252
0.032318158
0.032319753
0.032322231
0.032325978
0.032331652
0.032340048
0.03235178
0.032367052
0.032385018
0.032403187
0.032418264
0.032459548
0.032444748
0.03242703
0.032409689
0.032395114
0.032384051
0.03237624
0.032371056
0.0323677
0.032365513
0.032364085
0.032410235
0.032411503
0.032413412
0.032416392
0.032421083
0.032428277
0.032438596
0.03245235
0.032468914
0.032486041
0.032500493
0.032540129
0.032526274
0.032510077
0.032494618
0.032481941
0.032472528
0.032466038
0.032461877
0.032459279
0.032457644
0.032456533
0.032502943
0.032503895
0.032505255
0.032507457
0.032511038
0.032516709
0.032525003
0.032536262
0.032550145
0.032564877
0.03257768
0.032612946
0.03260181
0.032589169
0.032577353
0.032567841
0.03256086
0.032556106
0.032553147
0.032551352
0.03255027
0.032549479
0.032596212
0.032596845
0.032597653
0.032599048
0.032601374
0.03260517
0.032610744
0.032618335
0.032627795
0.032637929
0.032646923
0.032681344
0.03267458
0.032666985
0.032659856
0.032654142
0.032649925
0.03264704
0.032645311
0.032644285
0.032643737
0.032643253
0.03269074
0.032691091
0.032691407
0.032692118
0.032693327
0.032695415
0.03269844
0.032702502
0.032707578
0.03271293
0.032717719
0.032756889
0.032753646
0.032750077
0.032746638
0.032743911
0.032741854
0.032740411
0.032739626
0.032739165
0.032739046
0.032738809
0.03278757
0.032787714
0.032787668
0.03278795
0.032788415
0.032789375
0.032790703
0.032792429
0.032794661
0.032796925
0.032799071
0.03284405
0.032842619
0.032841258
0.032839859
0.032838841
0.032838028
0.032837403
0.032837165
0.032836995
0.032837175
0.032837103
0.032887457
0.032887476
0.032887187
0.032887304
0.032887393
0.032887803
0.032888273
0.032888813
0.032889667
0.032890427
0.032891425
0.032940773
0.032940012
0.032939648
0.032939135
0.032938907
0.032938653
0.032938365
0.032938367
0.032938257
0.032938636
0.032938654
0.032990694
0.032990657
0.032990197
0.032990338
0.032990285
0.032990514
0.03299064
0.032990668
0.032990977
0.032991076
0.032991729
0.033044004
0.03304338
0.03304347
0.033043276
0.033043377
0.033043322
0.033043108
0.033043186
0.033042986
0.033043522
0.033043565
0.033097236
0.0330972
0.033096593
0.033096874
0.033096785
0.033097011
0.033097029
0.033096843
0.033096975
0.033096737
0.03309738
0.033151665
0.033150986
0.033151353
0.033151254
0.0331515
0.033151498
0.033151245
0.033151334
0.033150956
0.033151623
0.03315164
0.033206613
0.033206635
0.033205931
0.033206419
0.033206339
0.033206624
0.03320662
0.03320633
0.033206408
0.033205919
0.033206625
0.033261861
0.033261172
0.03326177
0.033261717
0.033262038
0.033262042
0.033261727
0.033261786
0.033261191
0.033261882
0.033261779
0.033316504
0.033316701
0.033316093
0.033316767
0.03331675
0.033317083
0.03331708
0.033316743
0.033316755
0.033316079
0.033316685
0.033370054
0.033369635
0.033370319
0.033370379
0.033370708
0.033370709
0.033370382
0.033370325
0.033369641
0.033370062
0.033369694
0.033420422
0.033420801
0.033420668
0.033421236
0.03342141
0.033421686
0.033421686
0.033421409
0.033421234
0.033420666
0.033420798
0.033467989
0.03346831
0.033468551
0.033468897
0.033469035
0.033469035
0.033468897
0.033468551
0.03346831
0.033467989
0.033467715
0.033468293
0.033468907
0.03346978
0.033470306
0.033470779
0.03347091
0.033470928
0.033470865
0.033470803
0.033470762
0.033470745
0.033470741
0.033470744
0.03347075
0.033470757
0.033470764
0.033470771
0.033470779
0.033470791
0.033470809
0.033470842
0.033470897
0.033470975
0.033471053
0.03347105
0.033470932
0.033470473
0.033469961
0.033422712
0.033371918
0.033319258
0.033319145
0.033266778
0.033215685
0.033166854
0.033121043
0.033078792
0.033040326
0.03300543
0.032973357
0.032942916
0.032912656
0.032881197
0.013371767
0.013437714
0.013489107
0.013526975
0.013553704
0.013570576
0.013582447
0.013598995
0.013648326
0.013744418
0.013956085
0.014389783
0.0068831861
0.0039817991
0.0048011081
0.0061208258
0.0085197233
0.013437491
0.015832052
0.025940407
0.032994066
0.032937649
0.032936144
0.032963473
0.033004217
0.033051535
0.033102393
0.033155361
0.033209646
0.0332646
0.03331939
0.033372837
0.033374769
0.033380911
0.033391207
0.033343364
0.033294221
0.033244915
0.033196356
0.033149433
0.033105462
0.033066969
0.033039348
0.033034779
0.033077264
0.030455447
0.019844745
0.012330267
0.008477171
0.0051964054
0.003445273
0.002336572
0.00259334
0.0026144179
0.0023110742
0.0028386489
0.0021471285
0.0025325111
0.0024438502
0.002444455
0.0025272277
0.0018777329
0.0027173709
0.0018262034
0.00206231
0.0036104512
0.0055785962
0.0129046
0.013391297
0.013703709
0.013915974
0.01421375
0.014301586
0.014482419
0.014627192
0.014751767
0.014858361
0.014952109
0.015028647
0.01508431
0.015119434
0.015131279
0.015114063
0.015277451
0.015196498
0.015207014
0.015210082
0.015203565
0.015162178
0.015121013
0.015084642
0.015127819
0.013601058
0.013569671
0.013507598
0.01363655
0.013772254
0.013908466
0.014111321
0.014111639
0.014219722
0.014298375
0.014358056
0.014398095
0.014421513
0.014426016
0.014411077
0.014375718
0.014316289
0.014223863
0.014113463
0.013960407
0.013689331
0.013358306
0.013021754
0.012314637
0.0092083054
0.0055369349
0.0025156214
0.0024273602
0.0035512841
0.0028498668
0.0027443277
0.0024089604
0.0019518645
0.0019667775
0.0014804916
0.0016976719
0.0023630296
0.0021401955
0.0012931864
0.001001131
0.0022198797
0.0020303679
0.002857625
0.0022076952
0.0035102837
0.0037945467
0.0062387197
0.012124705
0.012926662
0.013350761
0.013621343
0.014040413
0.014235742
0.014396603
0.01453078
0.014643126
0.014736852
0.014810266
0.014861165
0.014888419
0.014896071
0.014879914
0.014835674
0.015021536
0.014896541
0.014886735
0.014879676
0.014836306
0.014790339
0.014733667
0.014680796
0.015169882
0.015193356
0.015294958
0.015385762
0.015568726
0.015772825
0.016076404
0.016465066
0.016964748
0.017634723
0.01419095
0.0094356646
0.0071931576
0.0067554738
0.0069114208
0.0093631455
0.015379339
0.023326587
0.033009782
0.032930252
0.032906622
0.032921526
0.032955865
0.03299976
0.033048654
0.033100404
0.033153938
0.033208619
0.033263865
0.033318879
0.0333725
0.033372469
0.033318812
0.033263723
0.033208348
0.033153463
0.033099592
0.03304724
0.032997179
0.032950844
0.032911064
0.032883508
0.032879318
0.032916051
0.032999399
0.025388407
0.019690144
0.014745119
0.011401338
0.01016851
0.010630101
0.012512053
0.015862771
0.020414354
0.024281015
0.023128784
0.022837113
0.021929454
0.021814863
0.021085428
0.021084825
0.020477147
0.020558579
0.024978688
0.025961965
0.027152695
0.028538509
0.030075885
0.023244292
0.018641177
0.031536346
0.032059952
0.032950988
0.032881197
0.032845558
0.032845075
0.032867635
0.032903542
0.032947097
0.032995167
0.033046044
0.033098786
0.033152847
0.033207824
0.033263244
0.033318363
0.033372059
0.033371916
0.033318264
0.03326314
0.033207673
0.033152602
0.033098374
0.033045322
0.032993846
0.032944571
0.032898546
0.032857519
0.032824361
0.032803558
0.032801316
0.032822725
0.032863228
0.032903829
0.032923348
0.032980336
0.032778447
0.032479213
0.032130351
0.031765757
0.031380693
0.030988095
0.030600014
0.032395824
0.032518239
0.032628246
0.032723448
0.032804179
0.032868823
0.032910955
0.032744325
0.032754201
0.032754135
0.032748959
0.03274823
0.032758459
0.032780512
0.032812263
0.03285117
0.032895128
0.03294261
0.032992577
0.033044354
0.033097506
0.03315173
0.033206744
0.033262137
0.033317211
0.033370893
0.033370854
0.033317371
0.033262405
0.033207041
0.033151993
0.033097678
0.033044368
0.032992314
0.032941846
0.032893442
0.03284778
0.032805767
0.032768493
0.032737018
0.03271187
0.032692109
0.032674653
0.032655101
0.032631022
0.03260266
0.03272491
0.032697835
0.032664891
0.032627444
0.032585827
0.032540144
0.032432978
0.032468094
0.032502994
0.032537565
0.032571125
0.032563297
0.032685467
0.032766717
0.031860819
0.026146384
0.019571036
0.015482271
0.013703311
0.013554354
0.013382475
0.013323146
0.013473551
0.013628319
0.013786087
0.013948788
0.014115511
0.014287325
0.01446371
0.014646705
0.014833123
0.015024294
0.015219389
0.015424611
0.015651337
0.0159171
0.014942162
0.012373933
0.0082788821
0.008731793
0.0062993916
0.0072452587
0.0082754004
0.0053561407
0.008341934
0.0075264596
0.0068618211
0.0072459732
0.0040989929
0.003357007
0.0030396537
0.0047910763
0.007780738
0.012081338
0.020685263
0.033063435
0.032976446
0.032957722
0.032977249
0.033014213
0.033059361
0.033108754
0.03316059
0.033213919
0.033268019
0.03332203
0.033330068
0.033277978
0.033225808
0.033174439
0.033124668
0.03307761
0.033035415
0.033002766
0.032990585
0.03302205
0.031477541
0.01881919
0.010964549
0.0126491
0.0083373544
0.0053318746
0.0037374683
0.0035001464
0.0061881473
0.0067206497
0.0036729141
0.0029750738
0.0028847242
0.0030491665
0.0029424682
0.0035361814
0.003998205
0.0033860168
0.0028149317
0.0031924832
0.0061725333
0.0080362136
0.0080873759