/*--------------------------------*- C++ -*----------------------------------*\
| =========                 |                                                 |
| \\      /  F ield         | OpenFOAM: The Open Source CFD Toolbox           |
|  \\    /   O peration     | Version:  v2012                                 |
|   \\  /    A nd           | Website:  www.openfoam.com                      |
|    \\/     M anipulation  |                                                 |
\*---------------------------------------------------------------------------*/
FoamFile
{
    version     2.0;
    format      ascii;
    class       volScalarField;
    location    "100";
    object      p;
}
// * * * * * * * * * * * * * * * * * * * * * * * * * * * * * * * * * * * * * //

dimensions      [0 2 -2 0 0 0 0];


internalField   nonuniform List<scalar> 
14958
(
-0.16754989
-0.16658937
-0.16599278
-0.16862579
-0.16960982
-0.17166244
-0.17493361
-0.17943485
-0.18492406
-0.1910883
-0.19739374
-0.20344223
-0.20874228
-0.21302016
-0.21610979
-0.21803761
-0.21901886
-0.21743546
-0.21428979
-0.20920184
-0.20202571
-0.19285045
-0.18183937
-0.16940257
-0.15575743
-0.14115221
-0.12573418
-0.10964405
-0.093008252
-0.075949254
-0.058580395
-0.041007217
-0.023328927
-0.0056420301
0.011953286
0.029349103
0.046428924
0.063065966
0.0791286
0.094466767
0.10892231
0.12221578
0.13411678
0.14412155
0.15204452
0.15766375
0.16118762
0.16290831
0.17108162
0.1875345
0.21437674
0.2527534
0.30232565
0.36202003
0.42836826
0.49777345
0.56401579
0.62190893
0.66637844
0.69522776
0.70963037
0.70216983
0.68773152
0.66505783
0.63469466
0.59817513
0.55725165
0.51422156
0.47024393
0.42632508
0.38294986
0.34047851
0.2991512
0.25913674
0.22053672
0.183399
0.14773053
0.11351386
0.080724958
0.049349865
0.019398016
-0.0090859021
-0.036024279
-0.061281592
-0.084687684
-0.10588143
-0.12456255
-0.14007619
-0.1521731
-0.1607134
-0.16121461
-0.15252621
-0.14032584
-0.12468497
-0.10591433
-0.084544185
-0.060983155
-0.035537247
-0.0084120214
0.020256727
0.050385289
0.081933703
0.11489937
0.14930495
0.18518346
0.22256161
0.26144209
0.30178723
0.34350571
0.38643999
0.43034872
0.47487155
0.51946649
0.56323861
0.60486209
0.64240357
0.67375187
0.69741464
0.71254712
0.71998553
0.75170439
0.80972961
0.90296269
1.0446276
1.2514687
1.5540967
2.0254031
-1.1569964
-1.2000392
-1.2268073
-1.2327588
-1.2165466
-1.1769696
-1.111781
-1.0209392
-0.91024961
-0.7934206
-0.68276304
-0.58477621
-0.50157509
-0.43280723
-0.37682893
-0.33159328
-0.29509895
-0.26561183
-0.24172619
-0.2223577
-0.20670148
-0.1941826
-0.18440142
-0.17706786
-0.17187837
-0.16848039
-0.16292504
-0.15393861
-0.1413094
-0.12520094
-0.1059993
-0.084110225
-0.060017939
-0.034027354
-0.0063591325
0.022839526
0.053483393
0.085543468
0.11903605
0.15400761
0.19051691
0.22861704
0.26833737
0.3096667
0.3525409
0.39683011
0.44231739
0.48866714
0.53535346
0.58152955
0.62584348
0.66632405
0.70064039
0.72686527
0.74392517
0.8010262
0.89260395
1.0327566
1.2392716
1.5552698
2.0893216
-5.4650038
-5.5513652
-5.6415642
-5.8228156
-5.7855703
-5.9838432
-6.1149842
-6.2053827
-6.2397406
-6.4538584
-6.5471572
-6.6283529
-6.754546
-6.7956785
-6.853264
-6.7854982
-6.7843849
-6.7031838
-6.4292141
-5.8900032
-6.0127703
-5.5640371
-5.1877061
-4.2728022
-3.259956
1.4870441
6.6560383
10.237378
12.482706
10.082139
8.4414454
7.1006233
5.8630766
6.083386
7.7235414
9.0557933
7.9610349
5.6613846
4.1682552
3.1220312
2.2996557
1.6638511
1.1286975
0.78720403
0.56562173
0.41201126
0.30376891
0.22663186
0.17126277
0.13137502
0.1027198
0.082401868
0.068402398
0.059185489
0.092165501
0.12660639
0.16259867
0.20024855
0.23965682
0.28090032
0.32401546
0.36898682
0.41573792
0.46410895
0.51382876
0.5644355
0.61511203
0.66448512
0.71035515
0.74998333
0.78079855
0.8674071
0.99961871
1.1939278
1.4839021
1.9458628
1.9126734
1.4789132
1.1998491
1.0080102
0.87639641
0.78937568
0.73489637
0.70503103
0.67455951
0.6279004
0.56788435
0.499571
0.42895256
0.36148601
0.3011673
0.25080661
0.21193599
0.18462268
0.16792484
0.15982734
0.15021217
0.13274985
0.10561525
0.06671885
0.013885824
-0.053982266
-0.13809296
-0.2389521
-0.35640768
-0.48914801
-0.63426518
-0.7874992
-0.94225355
-1.0915795
-1.1020057
-0.94889943
-0.79002116
-0.63281806
-0.48426767
-0.34896085
-0.22989074
-0.12828609
-0.044148522
0.023384605
0.075625334
0.11413309
0.14090174
0.1582323
0.17544641
0.1589173
0.13321217
0.095897571
0.044823584
-0.021968872
-0.1062614
-0.20943145
-0.33195324
-0.47280868
-0.62890274
-0.79494662
-0.96300382
-1.1245041
-1.1636791
-0.98766897
-0.80346067
-0.62173452
-0.45233964
-0.3019087
-0.17367712
-0.06810678
0.016063804
0.081199812
0.12995713
0.16490125
0.18861314
0.20368323
0.24405131
0.2313779
0.2110129
0.18017674
0.13566334
0.073896929
-0.0091936558
-0.11749821
-0.25397859
-0.41921823
-0.60983601
-0.81680091
-1.0265759
-1.2249465
-1.3148184
-1.084865
-0.83698631
-0.59133966
-0.36843419
-0.18170439
-0.034536629
0.075903206
0.15545702
0.21082357
0.24813064
0.27235399
0.28748105
0.29650224
0.3596773
0.35588776
0.34845921
0.33429755
0.30855254
0.26454542
0.19324825
0.083480413
-0.076032031
-0.29265264
-0.56367289
-0.867035
-1.1689694
-1.4401092
-1.6163952
-1.2938465
-0.91579217
-0.52539745
-0.18216704
0.07676322
0.24824509
0.35053699
0.4054541
0.43033974
0.43830805
0.43772787
0.4343859
0.43099865
0.50656466
0.51924311
0.53691783
0.55758373
0.57584668
0.58199923
0.5578854
0.47602067
0.29927614
-0.011086185
-0.45760967
-0.97630126
-1.459787
-1.8456046
-2.1951903
-1.7331029
-1.09369
-0.38961994
0.24850846
0.64289159
0.80100777
0.82425356
0.79447815
0.74160376
0.68686497
0.64004174
0.60473685
0.58095776
0.64747816
0.68315994
0.73800813
0.81538853
0.91631416
1.0343068
1.1597238
1.254793
1.8951743
1.5555395
1.280627
1.0792135
0.92807446
0.81997726
0.74659517
0.70002454
0.69106599
0.63875034
0.57293404
0.49997552
0.42628258
0.35673153
0.2947655
0.2427769
0.20245789
0.17413409
0.15683785
0.14842081
0.14513106
0.13973228
0.13211994
0.12243473
0.11102345
0.098205519
0.084266745
0.069422889
0.053851322
0.037701812
0.021107702
0.0041899716
-0.01294157
-0.030186569
-0.047451495
-0.06464556
-0.081675074
-0.0984394
-0.11482774
-0.13071765
-0.14597454
-0.16044982
-0.17397163
-0.18633245
-0.19726665
-0.20647895
-0.21371326
-0.2188895
-0.22210912
-0.22358642
-0.22013099
-0.21858601
-0.21540844
-0.21027129
-0.20307999
-0.19388406
-0.18292839
-0.17052053
-0.15692294
-0.14235021
-0.12696928
-0.11092453
-0.094347222
-0.077359436
-0.06007353
-0.042593223
-0.025016145
-0.0074374878
0.01004453
0.027324396
0.044287591
0.060809219
0.076754101
0.091970088
0.10627877
0.11944137
0.13117215
0.14110465
0.14894082
0.15454399
0.15804335
0.16624453
0.1693588
0.16563877
0.15977105
0.1515756
0.14124369
0.12904939
0.11539994
0.10059066
0.084868987
0.068421889
0.05140798
0.033967212
0.016228038
-0.0016923234
-0.019686799
-0.037655212
-0.055500662
-0.073125885
-0.090427896
-0.10729461
-0.12360452
-0.13922654
-0.15401561
-0.16780325
-0.18037226
-0.19145813
-0.2007512
-0.20801594
-0.21319479
-0.21641464
-0.2144294
-0.21114642
-0.20585026
-0.19840232
-0.18886746
-0.17750584
-0.16462617
-0.15050195
-0.13534515
-0.11932399
-0.10258551
-0.085261819
-0.067473811
-0.049331639
-0.030936641
-0.012385387
0.0062270653
0.024801757
0.043230291
0.061392442
0.079154429
0.096367887
0.11286345
0.12844455
0.14285668
0.15576873
0.16677009
0.17552805
0.18185749
0.18588136
0.21266167
0.20822684
0.20121852
0.19157433
0.1794985
0.16539684
0.14972557
0.13285778
0.11507586
0.096595198
0.077600474
0.058252307
0.03869262
0.019046142
-0.00057730898
-0.020079408
-0.039367764
-0.058349679
-0.076926946
-0.094991881
-0.11242499
-0.12909442
-0.14485194
-0.15953074
-0.17291153
-0.18471109
-0.19463173
-0.20237648
-0.20786492
-0.21126267
-0.20689731
-0.20331992
-0.1975467
-0.18937341
-0.17892964
-0.16650689
-0.15243113
-0.13698678
-0.12038434
-0.10280197
-0.08439111
-0.065282469
-0.045592525
-0.025424417
-0.0048708246
0.01598107
0.037043001
0.058218454
0.079396731
0.10044783
0.12121742
0.14153101
0.16118209
0.17992478
0.19743714
0.21328025
0.22691416
0.23783975
0.24577738
0.25075348
0.29996756
0.29425539
0.28508815
0.27245221
0.25673173
0.23855603
0.21858737
0.19737246
0.17526406
0.15254689
0.12945652
0.10619095
0.082915455
0.059766089
0.036853989
0.014271717
-0.0078991747
-0.029579558
-0.050684624
-0.071117687
-0.090765848
-0.10949895
-0.12716533
-0.14359224
-0.15855604
-0.17175791
-0.18285384
-0.19153879
-0.19768384
-0.2014862
-0.19535754
-0.19130114
-0.18474171
-0.17547319
-0.16363182
-0.14953891
-0.13355803
-0.11600234
-0.097098882
-0.07703188
-0.055953822
-0.033990282
-0.01124751
0.012188836
0.036244915
0.060852445
0.085939267
0.11141913
0.13718312
0.16309181
0.18897019
0.21460615
0.23973799
0.26403181
0.28703865
0.308117
0.32645378
0.3412385
0.35199157
0.35874479
0.42422856
0.41619739
0.40345084
0.38605198
0.36463013
0.34018999
0.31370504
0.28593101
0.25738998
0.22846326
0.19944991
0.17058576
0.14205516
0.1139979
0.086517296
0.059690939
0.033577834
0.0082318064
-0.01628703
-0.039902894
-0.062517062
-0.084005142
-0.10422464
-0.12299784
-0.14006288
-0.15510368
-0.16773673
-0.17762306
-0.18461411
-0.18893988
-0.18269004
-0.17809929
-0.17067775
-0.16018043
-0.14676239
-0.13077963
-0.11263603
-0.092658665
-0.07111963
-0.048202126
-0.024055581
0.001205831
0.027501639
0.054769087
0.082961901
0.11204239
0.14196701
0.1726729
0.2040694
0.23601692
0.2683254
0.3007434
0.33294413
0.36449669
0.39478483
0.42293123
0.44777566
0.46806556
0.4829569
0.49234835
0.55782584
0.54709291
0.53008221
0.50686186
0.47856428
0.44667661
0.41257096
0.37727112
0.34147458
0.30565306
0.27015513
0.23524199
0.20110285
0.16786852
0.13562172
0.10440988
0.07425893
0.045188067
0.017222438
-0.0095890261
-0.035168229
-0.059400966
-0.08215797
-0.10323515
-0.12236721
-0.1392145
-0.1533519
-0.16440864
-0.17223505
-0.17707912
-0.17247776
-0.16742358
-0.15925591
-0.14773483
-0.13299282
-0.11542441
-0.095463351
-0.073477579
-0.049712396
-0.024360766
0.0024155611
0.0305158
0.059876987
0.090466583
0.1222737
0.15529592
0.18952396
0.22492556
0.26143097
0.29891965
0.33720845
0.37603584
0.41504277
0.45372276
0.49130041
0.52659659
0.55805356
0.58389413
0.60292432
0.6149691
0.65906754
0.64582624
0.62497791
0.59691306
0.5629222
0.5249418
0.48467004
0.4433748
0.40188656
0.36074482
0.32031724
0.28086405
0.24256237
0.20552275
0.16980344
0.13542348
0.10237808
0.07065612
0.040255667
0.011197405
-0.01646502
-0.042636157
-0.067144528
-0.089821062
-0.11038507
-0.12847273
-0.14364093
-0.15549183
-0.1638997
-0.16911206
-0.16698515
-0.16167994
-0.15314789
-0.14112245
-0.12571304
-0.10729144
-0.086338719
-0.063211546
-0.038210253
-0.011518608
0.016703275
0.046366365
0.077423825
0.10986299
0.14369458
0.17893865
0.21560892
0.25369536
0.29314759
0.33386141
0.37566699
0.41831254
0.46142624
0.50445384
0.54650907
0.58627194
0.6219208
0.65147884
0.67363224
0.68780068
0.69721328
0.66690739
0.6205096
0.56102384
0.49373334
0.4245482
0.35834755
0.29902887
0.24910633
0.21029839
0.18296943
0.17895726
0.1625742
0.15347796
0.13668251
0.12794105
0.12289094
0.11567609
0.10645849
0.095580221
0.083362063
0.070068633
0.055900584
0.041019684
0.025564721
0.0096598616
-0.0065827917
-0.023062215
-0.039686792
-0.056371295
-0.073032407
-0.089583361
-0.10592854
-0.12196013
-0.137556
-0.15257966
-0.1668792
-0.18028018
-0.19256885
-0.20347559
-0.21268784
-0.21994145
-0.22513884
-0.22837955
-0.22980109
-0.23926588
-0.25245729
-0.26978771
-0.29128054
-0.31706509
-0.3472027
-0.38179622
-0.42090168
-0.46447537
-0.51231605
-0.564012
-0.61887806
-0.67594286
-0.73378321
-0.79051048
-0.84424955
-0.89314653
-0.93507724
-0.96823282
-0.9911468
-1.0028286
-1.0025838
-0.99280334
-0.97073036
-1.1762847
-1.1883826
-1.2684146
-1.2528609
-1.2339207
-1.2114644
-1.1857905
-1.1572189
-1.1269496
-1.0961705
-1.0663829
-1.038909
-1.0152071
-0.99633585
-0.9828315
-0.97456906
-0.99717466
-1.0063727
-1.0213425
-1.0422913
-1.0686872
-1.0994221
-1.1329241
-1.1677675
-1.2022535
-1.23505
-1.2648148
-1.2911555
-1.3137959
-1.3328417
-1.3779507
-1.3552974
-1.3290486
-1.2991445
-1.2658346
-1.2296056
-1.191872
-1.1540202
-1.1178556
-1.0848375
-1.0565699
-1.0341516
-1.0180404
-1.007845
-1.0072286
-1.0173606
-1.0338324
-1.0568434
-1.0859128
-1.1199478
-1.1573701
-1.196753
-1.2363167
-1.2748124
-1.3108603
-1.343807
-1.3734289
-1.3997186
-1.4233675
-1.3970705
-1.3679008
-1.3356762
-1.3005347
-1.2627563
-1.223095
-1.1828853
-1.1433012
-1.105994
-1.0722815
-1.0436317
-1.0210804
-1.0050883
-0.99540419
-0.9723046
-0.98131592
-0.99619387
-1.0172879
-1.0442338
-1.0761229
-1.1116827
-1.149792
-1.1890661
-1.2285625
-1.2671017
-1.303814
-1.3383566
-1.3704679
-1.4002066
-1.4276517
-1.4122862
-1.3834233
-1.3527223
-1.3201771
-1.2858442
-1.2498356
-1.2125511
-1.1744446
-1.1364397
-1.0995025
-1.0643103
-1.0318886
-1.0030881
-0.97890592
-0.96006123
-0.94679966
-0.93873826
-0.89625095
-0.90308611
-0.91430197
-0.93027672
-0.95088064
-0.97561352
-1.003794
-1.0348809
-1.0682462
-1.1034991
-1.1399085
-1.1765793
-1.212957
-1.2485308
-1.2830178
-1.3162199
-1.347999
-1.2628484
-1.2291652
-1.1945766
-1.1593431
-1.1238033
-1.0883882
-1.0536525
-1.0201881
-0.98877737
-0.95991012
-0.93371738
-0.91045354
-0.89035468
-0.87379182
-0.86104613
-0.85213678
-0.84670225
-0.79228641
-0.79626702
-0.80279213
-0.81217102
-0.82446429
-0.83963293
-0.85760767
-0.87845939
-0.90225654
-0.92908311
-0.95866621
-0.99037984
-1.0236097
-1.057693
-1.0921665
-1.1266374
-1.1607878
-1.0471413
-1.0139127
-0.98087049
-0.94843189
-0.91703926
-0.88721729
-0.859599
-0.83471452
-0.81299461
-0.79451915
-0.77903434
-0.76624127
-0.75585058
-0.74768774
-0.74159296
-0.73742106
-0.73488311
-0.67643466
-0.67766772
-0.67972226
-0.68288117
-0.68736898
-0.69346654
-0.7015191
-0.71196337
-0.72523491
-0.74168759
-0.76138114
-0.78405546
-0.80929935
-0.83665559
-0.86561381
-0.89571674
-0.92653878
-1.0885825
-1.0823147
-1.0720988
-1.0578932
-1.0399488
-1.0189614
-0.9955837
-0.97042211
-0.94396658
-0.91657878
-0.88858289
-0.86033395
-0.83219489
-0.8045033
-0.77761857
-0.75185159
-0.72755392
-0.70512286
-0.68498034
-0.66752387
-0.65305136
-0.64168614
-0.63327091
-0.62739651
-0.62355494
-0.62121818
-0.6199234
-0.61927655
-0.61900024
-0.61886212
-0.56357548
-0.56280582
-0.56160363
-0.56017378
-0.55881761
-0.55799775
-0.55824268
-0.56012108
-0.56416348
-0.57079789
-0.58024217
-0.59247741
-0.60731346
-0.62445309
-0.64355515
-0.6642804
-0.6863079
-0.70934016
-0.73308946
-0.75727016
-0.7816245
-0.80584104
-0.82956329
-0.85240496
-0.87388265
-0.89338386
-0.91020432
-0.92361809
-0.93336446
-0.93935577
-0.78489624
-0.77955958
-0.77088875
-0.75900025
-0.74434831
-0.72759628
-0.70937368
-0.69024334
-0.67060923
-0.65080078
-0.63110879
-0.61179977
-0.5931195
-0.57531213
-0.55862096
-0.54329445
-0.52959632
-0.51779764
-0.50815843
-0.50088698
-0.49608459
-0.49369664
-0.49347356
-0.49499387
-0.49773585
-0.50112805
-0.50461314
-0.50769513
-0.5100648
-0.51155079
-0.46346181
-0.46143014
-0.45816991
-0.45381716
-0.44867474
-0.44324432
-0.43808347
-0.43374264
-0.43071443
-0.42939808
-0.43005398
-0.43278532
-0.43756051
-0.44424939
-0.45266572
-0.46260296
-0.47385299
-0.48621544
-0.49949696
-0.51350383
-0.52803952
-0.54289066
-0.55781861
-0.57254786
-0.58672869
-0.59989338
-0.61149531
-0.6209164
-0.62789141
-0.63217005
-0.48764078
-0.48458327
-0.47956049
-0.47287662
-0.46469467
-0.45551218
-0.44575054
-0.43576468
-0.42582108
-0.41612859
-0.40686606
-0.39819425
-0.39026313
-0.38321918
-0.37720914
-0.37238477
-0.36890037
-0.36690306
-0.3665149
-0.36780287
-0.37074714
-0.37521519
-0.38094974
-0.38758212
-0.39466009
-0.40166675
-0.40806373
-0.41336251
-0.41727662
-0.41970859
-0.38048102
-0.37776614
-0.37338903
-0.36740763
-0.36008611
-0.35188764
-0.34332043
-0.33486126
-0.32691863
-0.31982716
-0.31383251
-0.30908276
-0.30563425
-0.30346937
-0.30251974
-0.30269018
-0.30387502
-0.30596779
-0.30886581
-0.31246799
-0.31667164
-0.32136758
-0.3264343
-0.33172978
-0.33707229
-0.34222271
-0.3469013
-0.3507733
-0.3537481
-0.35552986
-0.23869124
-0.23810889
-0.23708431
-0.23586449
-0.23448488
-0.23311426
-0.23189729
-0.23096033
-0.2304003
-0.23029401
-0.23070849
-0.23170438
-0.23334001
-0.23567469
-0.23877062
-0.24269293
-0.24750426
-0.25325538
-0.259971
-0.2676312
-0.27615459
-0.28538682
-0.29509812
-0.30498837
-0.31469113
-0.32377169
-0.33175695
-0.33821564
-0.34290817
-0.34581527
-0.31565105
-0.31261805
-0.30771854
-0.3009366
-0.29248693
-0.28276685
-0.27221333
-0.26122096
-0.25011728
-0.23917046
-0.22859302
-0.21853963
-0.20910829
-0.20034703
-0.19226602
-0.18485176
-0.17807891
-0.17191931
-0.16634753
-0.16134232
-0.15688595
-0.15296218
-0.14955423
-0.1466445
-0.14421362
-0.14224
-0.14070904
-0.1395945
-0.13889351
-0.13843185
-0.054884504
-0.056202415
-0.058315146
-0.061371964
-0.065343636
-0.07012951
-0.07563478
-0.081789841
-0.088546578
-0.095870254
-0.10373309
-0.11211169
-0.12098736
-0.1303473
-0.14018414
-0.15049375
-0.16126948
-0.17249418
-0.18413012
-0.19610842
-0.20832059
-0.2206147
-0.23279527
-0.24462204
-0.25580179
-0.26597598
-0.27474218
-0.28173628
-0.28676875
-0.28988265
-0.26840109
-0.2652301
-0.26011255
-0.25298467
-0.2440098
-0.23352097
-0.22188954
-0.20944339
-0.19644714
-0.18311738
-0.16963448
-0.15614611
-0.14276715
-0.12958174
-0.11664895
-0.10401086
-0.091700747
-0.079750475
-0.068195802
-0.057079283
-0.046451218
-0.036369298
-0.026899513
-0.018121111
-0.01013842
-0.0030955733
0.0028214727
0.0074177263
0.01062709
0.012583357
0.065053704
0.062637897
0.058620622
0.052858466
0.045459053
0.036688554
0.026801415
0.015998234
0.0044274216
-0.00779584
-0.02057426
-0.033821757
-0.047461643
-0.061426562
-0.075657027
-0.090098449
-0.10469591
-0.1193877
-0.13409846
-0.14873313
-0.16317305
-0.17727519
-0.1908717
-0.20376506
-0.21571317
-0.22641278
-0.23551801
-0.24272387
-0.24789476
-0.25110533
-0.23787013
-0.23463172
-0.22943453
-0.22219034
-0.2130108
-0.20217754
-0.19001797
-0.17681597
-0.16279691
-0.14814403
-0.13301541
-0.11755021
-0.1018692
-0.086075132
-0.070255307
-0.054486247
-0.03883945
-0.023387296
-0.0082079771
0.0066116179
0.020974147
0.034771414
0.047882052
0.060163808
0.071436931
0.081462779
0.089940087
0.096553419
0.10115736
0.1038886
0.1309514
0.13970203
0.11293691
0.074366123
0.022196934
-0.045059915
-0.12871542
-0.22969157
-0.34809166
-0.48267174
-0.63053419
-0.7871507
-0.94568913
-1.0986845
-1.9187292
-1.9725783
-2.0140191
-2.0761688
-2.1254767
-2.1976762
-2.2583169
-2.3433988
-2.4186131
-2.5230366
-2.6205828
-2.7532925
-2.8840124
-3.0579809
-3.2437816
-3.4781068
-3.7461845
-4.0742567
-4.4825297
-4.987696
-5.6638708
-6.6211446
-7.9708305
-9.3433364
-13.229267
-27.027789
-15.943849
-1.9162608
-0.53986368
0.30579797
2.8217615
0.28795954
-2.080611
-1.626657
-3.2469464
-5.6534414
-12.127136
-19.05649
-25.290599
-13.010338
-9.3128728
-7.7266973
-6.3257455
-5.4089159
-4.768862
-4.2772885
-3.8974751
-3.5832345
-3.3366319
-3.1107804
-2.942508
-2.7741199
-2.6536256
-2.5233423
-2.4348794
-2.3312053
-2.2644056
-2.1796768
-2.1274647
-2.0561526
-2.0139625
-1.952193
-1.9169938
-1.8630862
-1.9310042
-1.9896046
-2.0263278
-2.0932606
-2.1377743
-2.2152036
-2.2702254
-2.3616097
-2.4320375
-2.5431885
-2.6364929
-2.7752964
-2.9033575
-3.0828789
-3.2626716
-3.502299
-3.7673464
-4.0989189
-4.5108955
-5.0332179
-5.7105281
-6.6170556
-7.9110829
-9.2356592
-12.080748
-16.931405
-10.097358
-6.2874984
-3.9279135
-6.0474618
-6.3076971
-8.904214
-7.428702
-6.6697484
-5.8455461
-5.1759073
-4.6495108
-4.2026453
-3.8846853
-3.5611257
-3.3637949
-3.1069769
-2.9834673
-2.7745629
-2.7012516
-2.5272509
-2.483548
-2.3378602
-2.313705
-2.1878778
-2.1758844
-2.0658461
-2.060638
-1.9620833
-1.961748
-1.8727021
-1.1437281
-1.184553
-1.2085926
-1.2121753
-1.1950084
-1.1553803
-1.0915551
-1.005542
-0.90277731
-0.79386055
-0.68900817
-0.59450545
-0.51273707
-0.44399666
-0.38723049
-0.34083406
-0.30308949
-0.27242015
-0.24749209
-0.22724069
-0.21085511
-0.19777206
-0.18755527
-0.1799513
-0.17458216
-0.17110426
-0.1692159
-0.17021932
-0.17213515
-0.17566657
-0.18112155
-0.18886573
-0.19922164
-0.21249012
-0.22908044
-0.2495715
-0.27476006
-0.30568779
-0.34365424
-0.39018777
-0.44694027
-0.51543289
-0.59662642
-0.69016322
-0.7936571
-0.90098669
-1.0024003
-1.0877012
-1.1512233
-1.1908619
-1.2081666
-1.2047326
-1.1810759
-1.1406733
-1.1335856
-1.1220294
-1.105728
-1.0857058
-1.0638293
-1.0417543
-1.0212463
-1.003509
-0.98953796
-0.97959993
-0.97359221
-0.99600222
-1.002639
-1.0135384
-1.0288625
-1.0483404
-1.0709332
-1.0953306
-1.1195942
-1.1418941
-1.1600828
-1.1731017
-1.1959567
-1.181621
-1.1618619
-1.1378334
-1.1118932
-1.0859734
-1.0620716
-1.0415239
-1.0253328
-1.0137119
-1.0063873
-1.005885
-1.0128184
-1.0243463
-1.0405906
-1.0612857
-1.0854632
-1.1118118
-1.1383771
-1.1632029
-1.1838255
-1.1989606
-1.1814135
-1.165958
-1.1452501
-1.1207188
-1.094799
-1.0693657
-1.0462069
-1.0265277
-1.0111936
-1.0004344
-0.99402347
-0.97084917
-0.97653353
-0.98602177
-0.99959203
-1.0170907
-1.0378162
-1.0607535
-1.0844114
-1.1071639
-1.126818
-1.141862
-1.0792532
-1.066036
-1.0492053
-1.0301346
-1.0105818
-0.99179643
-0.97489467
-0.96065734
-0.9496174
-0.94188584
-0.93722444
-0.89469904
-0.89808023
-0.90364415
-0.91154339
-0.92166544
-0.93361422
-0.94683812
-0.96060918
-0.9741121
-0.98618315
-0.99593103
-0.89767729
-0.89283275
-0.8870127
-0.88043193
-0.87356397
-0.86671009
-0.86030502
-0.85472659
-0.85027768
-0.84709788
-0.84513611
-0.79072975
-0.7912698
-0.79205946
-0.79301212
-0.79395318
-0.79470261
-0.79508105
-0.79498903
-0.79457046
-0.7940127
-0.79375383
-0.69309739
-0.69761389
-0.70351913
-0.70987895
-0.71597739
-0.72130911
-0.72561437
-0.72887145
-0.7311292
-0.73256968
-0.7333688
-0.67499551
-0.67306954
-0.66976719
-0.66490649
-0.65831977
-0.65005894
-0.6403415
-0.62966342
-0.61887264
-0.6090831
-0.60154023
-0.52149408
-0.53083204
-0.54300351
-0.55663255
-0.5703718
-0.58314926
-0.59425873
-0.60330389
-0.61010679
-0.61477413
-0.61753512
-0.56239303
-0.55905342
-0.5534528
-0.54536556
-0.53474736
-0.52188884
-0.50732893
-0.49191779
-0.47685596
-0.46358356
-0.45347089
-0.396703
-0.40684354
-0.42025019
-0.43564593
-0.45160474
-0.46688396
-0.48055138
-0.49196603
-0.50074429
-0.50686719
-0.51053836
-0.4626366
-0.45883998
-0.45253612
-0.44355385
-0.43196961
-0.41823287
-0.40304463
-0.38736359
-0.37240857
-0.35952249
-0.34984333
-0.31137733
-0.32031475
-0.33228842
-0.3463145
-0.36117162
-0.37570958
-0.38898607
-0.40027749
-0.40909561
-0.41531694
-0.41907874
-0.38004559
-0.37643142
-0.37047737
-0.36207637
-0.35138632
-0.33891054
-0.3253653
-0.31164695
-0.29881113
-0.28794238
-0.27987471
-0.25410181
-0.26127515
-0.27098589
-0.28253628
-0.29497815
-0.30736104
-0.31885223
-0.32876397
-0.33659692
-0.34217008
-0.34556576
-0.31557291
-0.31243006
-0.30729069
-0.300093
-0.29103143
-0.28058748
-0.26940739
-0.25825241
-0.24796815
-0.23937666
-0.2330571
-0.2159664
-0.22151079
-0.22907946
-0.23819185
-0.24813661
-0.25816524
-0.26758833
-0.27580732
-0.28236728
-0.28706939
-0.28995586
-0.2686032
-0.26594826
-0.26165054
-0.25568379
-0.24824285
-0.23975168
-0.23076051
-0.2218919
-0.21380928
-0.20713151
-0.20226061
-0.19154395
-0.19585767
-0.20179906
-0.20902443
-0.21698856
-0.22509856
-0.23279028
-0.2395574
-0.24500732
-0.24895616
-0.25141321
-0.23826555
-0.23596406
-0.2323011
-0.22727177
-0.22104849
-0.2139964
-0.20658624
-0.19933417
-0.19277715
-0.18740473
-0.18351916
-0.17788086
-0.18147216
-0.18643983
-0.19251286
-0.19924251
-0.20613617
-0.21271299
-0.21852938
-0.22323987
-0.22667702
-0.22884591
-0.22263761
-0.22058215
-0.21731568
-0.21283439
-0.20730018
-0.20104856
-0.19450343
-0.18812694
-0.18237811
-0.1776755
-0.17425827
-0.17230417
-0.17562761
-0.18017768
-0.1857376
-0.19192843
-0.19828473
-0.20436077
-0.20972656
-0.21405679
-0.21720485
-0.21916838
-0.21752033
-0.21423423
-0.20894999
-0.20160397
-0.19229043
-0.18125479
-0.16875369
-0.1550356
-0.14030328
-0.12473236
-0.10847499
-0.091668003
-0.074435222
-0.056889081
-0.039132069
-0.021260414
-0.0033694493
0.014442252
0.03206888
0.049393642
0.066286958
0.082604142
0.098180501
0.11282212
0.12629643
0.13832381
0.14856799
0.15672599
0.14785173
0.13140816
0.10529589
0.11015044
0.071798659
0.019996581
-0.046643678
-0.12940963
-0.22927432
-0.3463338
-0.47946971
-0.6259358
-0.78134072
-0.93911773
-1.0918011
-1.9312124
-2.0168053
-2.115433
-2.2294054
-2.36764
-2.5236657
-2.7224109
-2.9437259
-3.2167241
-3.4979409
-3.8867533
-4.249796
-3.698575
-1.2646834
0.25170152
0.90971296
1.1306875
0.83394387
0.96466938
0.64661532
0.4227807
0.27395824
0.16919879
0.09585627
0.044861546
0.0095069133
-0.014879677
-0.031584457
-0.042891536
-0.050395248
-0.055224545
-0.058221268
-0.03120887
-0.0025440124
0.02761367
0.035378277
0.047276906
0.064736985
0.089668218
0.12483876
0.1743505
0.24440295
0.34428156
0.48899349
0.70081981
1.0334541
1.5621726
2.2718803
3.0427693
4.0157032
5.283751
7.4437133
7.0855479
7.1172793
7.4464508
7.6144652
8.4624757
8.2657933
8.4359835
8.6612961
9.7660875
8.2325946
9.79071
12.023327
9.5810454
4.2997517
-2.3466942
-3.6560316
-5.0005018
-5.8904633
-6.2363645
-5.8168303
-6.5911205
-6.6176067
-6.9737409
-7.0788314
-7.0738902
-7.042589
-7.036921
-6.9629078
-6.8094998
-6.7392623
-6.5993358
-6.5842454
-6.4096828
-6.229609
-6.2255959
-6.0778097
-5.9294479
-5.7731334
-5.6574683
-5.4930388
-5.5998346
-5.5384326
-5.752868
-5.9308028
-6.0832711
-6.2468241
-6.205588
-6.4862065
-6.6814827
-6.8782414
-7.0340023
-7.2708059
-7.4185043
-7.6277527
-7.8426518
-8.0593866
-8.1724257
-8.4846585
-8.6911055
-8.125121
-8.2585973
-9.1122806
-7.4922419
-5.0642819
-3.5392882
2.1473566
6.5009462
11.546232
9.6086367
9.6145568
9.7363038
10.584695
13.0708
10.960175
9.9892498
8.8784559
9.7229937
11.005094
9.7841708
9.1298492
7.3072466
9.0171406
8.4881725
11.203952
4.5960063
2.7574516
-1.4079841
-2.8835372
-4.8169891
-6.1599715
-6.673333
-6.834326
-6.9301795
-7.3698928
-7.4485468
-7.3948784
-7.3328509
-7.2764228
-7.1883277
-7.0412788
-6.8640238
-6.7793291
-6.6049999
-6.5779779
-6.3523933
-6.2747716
-6.1750314
-5.99413
-5.8385307
-5.692904
-5.5537992
-1.8636435
-1.9439751
-2.0358687
-2.1275915
-2.2458352
-2.3592178
-2.5138829
-2.6547298
-2.8054514
-2.8771524
-2.9610691
-2.9897728
-2.4535107
-1.1440852
-0.15735108
0.30836487
0.32664349
0.33043494
0.24902682
0.16983817
0.10210449
0.046893584
0.00551917
-0.024420394
-0.045459086
-0.059884993
-0.069526896
-0.075782715
-0.079687139
-0.082007229
-0.083334387
-0.10620863
-0.106499
-0.10660228
-0.10616728
-0.1047588
-0.10184227
-0.096770147
-0.08886047
-0.077565805
-0.062919066
-0.046426889
-0.033349118
-0.035190749
-0.077647634
-0.19280233
-0.51909995
-0.24133517
-0.52736067
-1.0598651
-1.7986735
-2.1585405
-2.3916533
-2.348477
-2.4080313
-2.2775533
-2.2588636
-2.1300439
-2.0891719
-1.9836513
-1.9326721
-1.8479028
-1.7922598
-1.690372
-1.7891223
-1.8821853
-1.9563363
-1.9736536
-1.767272
-1.1416022
-1.067578
-0.70160617
-0.45482237
-0.30708665
-0.22556545
-0.18459885
-0.16430194
-0.15430657
-0.14889438
-0.14528676
-0.14220733
-0.13918645
-0.1361421
-0.13318134
-0.13046303
-0.12814305
-0.12635049
-0.14329309
-0.14635734
-0.15055548
-0.15593503
-0.16253442
-0.17045561
-0.17994585
-0.19150919
-0.20608499
-0.22535112
-0.25216552
-0.29127449
-0.3499882
-0.43910215
-0.57220922
-0.76068091
-0.99963561
-1.2365253
-1.4469976
-1.6206994
-1.6581303
-1.6485495
-1.6101477
-1.5503568
-1.4761627
-1.3932958
-1.3001976
-1.3677237
-1.4221225
-1.4580841
-1.4692111
-1.4476269
-1.3822818
-1.241999
-1.1197614
-0.95258003
-0.78143473
-0.63393043
-0.51711707
-0.42857982
-0.36275478
-0.31380179
-0.27698968
-0.2487771
-0.2266938
-0.20906737
-0.19479959
-0.18318406
-0.17377852
-0.16631851
-0.16064104
-0.15658237
-0.16604562
-0.17080616
-0.17751074
-0.18641356
-0.1977601
-0.21190412
-0.22938107
-0.25097363
-0.27779325
-0.31137425
-0.35375751
-0.40753541
-0.47572975
-0.5613916
-0.66653766
-0.79014437
-0.92556238
-1.0553213
-1.1575152
-1.2254378
-1.3124017
-1.3461256
-1.3503798
-1.3300094
-1.2893455
-1.2335376
-1.1854243
-1.2330461
-1.2650594
-1.2764465
-1.2638877
-1.2610823
-1.3451151
-1.4713236
-1.656352
-1.9048309
-2.0929489
-2.2664617
-2.3917473
-2.4126076
-2.4789496
-2.4878199
-2.5916103
-2.7017139
-2.8350637
-2.9835818
-3.1596548
-3.3664093
-3.6060816
-3.9068416
-4.2652015
-4.7391524
-5.3405179
-6.1727651
-7.1678417
-9.1746442
-14.764216
-18.593328
-6.4636285
-6.3765014
-4.6164766
-6.4954711
-4.6432212
-0.79700266
3.3256848
3.18632
4.9452546
4.9825219
6.3770998
4.7124354
4.0641113
3.19284
2.266969
1.782361
1.1183544
0.69773278
0.44991489
0.2926894
0.18673014
0.11499519
0.065688314
0.031630441
0.008049537
-0.0082009074
-0.019246905
-0.026556147
0.0037039194
0.013380696
0.027765236
0.048591042
0.078386351
0.12092504
0.18199119
0.27039
0.40080432
0.59533811
0.90795372
1.4339083
2.3288745
2.1887816
3.0304284
3.9716966
5.3809051
5.5522758
3.9225763
3.4802735
5.1208768
6.9065928
7.4694321
8.9445616
9.9442934
9.5962043
10.278958
11.771562
11.691614
3.0478025
2.1423589
-2.1296923
-2.1733472
-6.0644091
-10.897402
-8.7788486
-10.224451
-9.107902
-8.8984089
-7.8387429
-8.3712223
-9.1285349
-8.7030272
-8.6711189
-9.1097805
-8.8438469
-8.1888324
-8.0707652
-8.3839272
-8.2469858
-8.010717
-7.7660469
-7.5457932
-7.3882441
-7.1219276
-6.9515786
-6.7559835
-6.4957794
-6.3418552
-6.1363573
-5.9450237
-5.7135208
-5.5691585
-5.477789
-5.3573999
-1.1975535
-1.2188122
-1.3068018
-1.3782847
-1.3466332
-1.2800315
-1.2646238
-1.1855994
-1.2072272
-1.2558071
-1.31052
-1.516836
-1.4337252
-1.3535323
-1.4230908
-1.5189243
1.282517
0.99235619
0.80117221
0.66319681
0.562351
0.48798028
0.43364351
0.39506008
0.44571404
0.49867052
0.5537653
0.61063742
0.66852916
0.72606043
0.78072407
0.82905376
0.94874931
1.1229121
1.3732686
1.7519801
1.5578709
1.2515168
1.0387078
0.88637357
0.8179988
0.94916718
1.1314023
1.3846288
1.7619785
-1.1210716
-0.95952065
-0.95206431
-1.1133736
-1.4292252
-1.3935972
-1.4169196
-1.4554547
-1.4537686
-1.4803519
-1.4828382
-1.4443582
-1.4408803
-1.4167499
-1.4548415
-1.4242773
-1.3867703
-1.4143922
-1.3849539
-1.3906653
-1.3710466
-1.327717
-1.3597226
-1.2917725
-1.2727378
-1.2456459
-1.3049946
-1.3368562
-1.3803219