/*--------------------------------*- C++ -*----------------------------------*\
| =========                 |                                                 |
| \\      /  F ield         | OpenFOAM: The Open Source CFD Toolbox           |
|  \\    /   O peration     | Version:  v2012                                 |
|   \\  /    A nd           | Website:  www.openfoam.com                      |
|    \\/     M anipulation  |                                                 |
\*---------------------------------------------------------------------------*/
FoamFile
{
    version     2.0;
    format      ascii;
    class       volVectorField;
    location    "100";
    object      U;
}
// * * * * * * * * * * * * * * * * * * * * * * * * * * * * * * * * * * * * * //

dimensions      [0 1 -1 0 0 0 0];


internalField   nonuniform List<vector> 
14958
(
(5.0001962 0.00039048463 -0.0009441869)
(5.0002024 0.00013633669 -0.00097042309)
(5.0000278 4.4431301e-05 -0.00031762708)
(5.0000402 4.4540637e-05 -0.00011084117)
(5.0000392 0.00012839963 -0.00010645873)
(5.0000384 0.00021215428 -0.00010760186)
(5.0000387 0.00028803045 -0.00010104041)
(5.0000404 0.00035570083 -9.8772638e-05)
(5.0000422 0.00040048005 -9.1750955e-05)
(5.0000463 0.00042374687 -8.4942319e-05)
(5.0000494 0.00041981402 -7.8800329e-05)
(5.0000531 0.00039009055 -7.1397054e-05)
(5.000056 0.00034091098 -6.8010991e-05)
(5.0000563 0.0002731167 -6.3571097e-05)
(5.0000588 0.00020028735 -6.4038741e-05)
(5.0000574 0.00012291417 -6.4259344e-05)
(5.0000639 4.2756369e-05 -6.620944e-05)
(5.0000555 4.1611398e-05 -0.00019026181)
(5.0000589 3.9900629e-05 -0.00031430468)
(5.000057 4.0412761e-05 -0.00043754931)
(5.0000587 4.4382831e-05 -0.00056515654)
(5.0000575 4.9034133e-05 -0.00068140866)
(5.0000562 5.7873202e-05 -0.00079070834)
(5.0000563 6.4923286e-05 -0.00088448216)
(5.0000571 7.3076116e-05 -0.00096583261)
(5.0000593 8.048096e-05 -0.0010336783)
(5.0000623 8.8342498e-05 -0.0010895733)
(5.0000658 9.6741393e-05 -0.0011344263)
(5.0000697 0.00010589193 -0.0011694864)
(5.0000742 0.0001157484 -0.0011958095)
(5.0000791 0.00012630731 -0.0012143105)
(5.0000844 0.00013759928 -0.0012256336)
(5.0000902 0.00014961944 -0.0012299369)
(5.0000964 0.00016229145 -0.0012270562)
(5.0001029 0.00017562421 -0.0012168163)
(5.0001097 0.0001895831 -0.0011984847)
(5.0001168 0.0002040704 -0.0011710596)
(5.0001241 0.00021893482 -0.0011333751)
(5.0001312 0.00023410622 -0.0010839319)
(5.0001381 0.00024966674 -0.001021551)
(5.0001434 0.00026587122 -0.00094390964)
(5.000149 0.0002832944 -0.000852335)
(5.0001516 0.00029866059 -0.00074127242)
(5.0001584 0.00031902112 -0.00062140129)
(5.0001619 0.00032438216 -0.00048326935)
(5.0001702 0.00034632498 -0.00034851007)
(5.0001761 0.00034613563 -0.00021047944)
(5.000176 0.00036135391 -7.469846e-05)
(5.0001312 0.0010408284 -7.7812513e-05)
(5.0001399 0.0017253617 -0.00010246553)
(5.0001229 0.0024148004 -0.0001111506)
(5.000109 0.0031250018 -0.00012770342)
(5.0000737 0.0037507866 -0.0001376201)
(5.0000063 0.0042738576 -0.00013862645)
(4.9999474 0.004598419 -0.00015411797)
(4.9998476 0.0046446927 -0.0001546609)
(4.9997519 0.0044071513 -0.00018154582)
(4.9996636 0.0037764951 -0.00020053613)
(4.9995701 0.002906346 -0.00023686736)
(4.9995366 0.0018159449 -0.00028167366)
(4.9994931 0.00063154153 -0.00030480354)
(4.9995542 0.00059756273 -0.00087410478)
(4.9995603 0.00056824797 -0.0014072122)
(4.999609 0.00051923136 -0.0018822099)
(4.9996411 0.00049774354 -0.0023060409)
(4.9996914 0.0004562343 -0.0026072049)
(4.9997385 0.00043544209 -0.0028278343)
(4.9997773 0.00040081426 -0.0029487532)
(4.9998107 0.00036999247 -0.0030040657)
(4.9998363 0.00033610404 -0.003004385)
(4.9998577 0.00030421533 -0.0029666213)
(4.9998757 0.00027478027 -0.0029018103)
(4.9998913 0.00024838942 -0.0028191081)
(4.9999048 0.0002246634 -0.0027253067)
(4.9999164 0.0002032894 -0.0026256096)
(4.9999264 0.00018397348 -0.0025237734)
(4.9999351 0.00016646911 -0.0024221961)
(4.999943 0.00015054735 -0.0023219633)
(4.9999502 0.00013597767 -0.0022228498)
(4.9999571 0.00012251462 -0.0021233896)
(4.9999639 0.00010992803 -0.002020989)
(4.9999707 9.8000507e-05 -0.0019123114)
(4.999978 8.6843194e-05 -0.0017931871)
(4.9999864 7.6305279e-05 -0.0016603302)
(4.9999985 6.8237437e-05 -0.0015091558)
(5.0000076 6.1833337e-05 -0.0013416241)
(5.0000196 5.9711848e-05 -0.0011515188)
(5.0000254 5.7469724e-05 -0.00095174409)
(5.0000274 5.313359e-05 -0.00073387341)
(5.0000314 5.221546e-05 -0.000525732)
(5.0001894 0.00015206611 -0.0016111937)
(5.0001598 0.00016623548 -0.0022714357)
(5.0001292 0.00018382783 -0.002930999)
(5.0000871 0.00019414347 -0.0035629435)
(5.0000335 0.0002031389 -0.0041438209)
(4.9999695 0.0002210674 -0.0046628693)
(4.9999058 0.00024264914 -0.0051239293)
(4.9998442 0.00027029238 -0.005532121)
(4.999786 0.00030176178 -0.0058970003)
(4.9997304 0.00033639144 -0.0062306333)
(4.9996766 0.00037377101 -0.0065449658)
(4.9996231 0.00041422843 -0.0068505104)
(4.9995678 0.00045827973 -0.0071553043)
(4.9995084 0.00050652641 -0.0074639339)
(4.9994421 0.00055959666 -0.0077771002)
(4.9993663 0.00061809534 -0.0080915002)
(4.9992783 0.0006826427 -0.0083996987)
(4.9991752 0.00075390763 -0.0086901328)
(4.9990542 0.00083247422 -0.0089468479)
(4.998912 0.00091867409 -0.0091487858)
(4.9987449 0.0010112169 -0.009268695)
(4.9985486 0.0011079906 -0.0092720453)
(4.9983188 0.0012018839 -0.0091135895)
(4.9980544 0.0012981264 -0.0087413468)
(4.9977618 0.0013813873 -0.008092686)
(4.9974441 0.0014897068 -0.0071320814)
(4.9971576 0.0015882054 -0.0058567735)
(4.996871 0.0017157137 -0.0043314314)
(4.996684 0.0018310947 -0.0026744897)
(4.9964834 0.0019100097 -0.00092252216)
(4.9893244 0.0034824268 -0.001685506)
(4.9766646 0.0053659289 -0.0025368648)
(4.9565777 0.0081210047 -0.0037515456)
(4.9262581 0.011880736 -0.0052804227)
(4.8814414 0.018027978 -0.007926504)
(4.8163832 0.027058161 -0.012157918)
(4.725746 0.044406513 -0.019769069)
(5.1959445 8.0570372e-05 0.010646628)
(5.2039133 0.00051379612 0.0057503694)
(5.2087942 0.00099435244 0.0001650731)
(5.2099635 0.0015109651 -0.0059851138)
(5.2071187 0.0020692483 -0.012921559)
(5.1995483 0.0026738455 -0.020464461)
(5.1871034 0.0032667374 -0.027789157)
(5.169588 0.0038179158 -0.034200872)
(5.1482565 0.004235782 -0.038253944)
(5.1257753 0.0044090876 -0.039162459)
(5.1042255 0.0043435741 -0.037504144)
(5.0849011 0.004097706 -0.034230921)
(5.0683467 0.0037395141 -0.030175623)
(5.0545625 0.0033273338 -0.025966871)
(5.0432785 0.0029037856 -0.02198258)
(5.0341185 0.0024959619 -0.018409525)
(5.0267021 0.0021190665 -0.015308016)
(5.0206919 0.0017797842 -0.012664669)
(5.0158103 0.0014794307 -0.010429996)
(5.0118409 0.0012164366 -0.0085418167)
(5.0086218 0.00098814054 -0.006938979)
(5.0060369 0.00079193897 -0.0055684407)
(5.0040045 0.00062344374 -0.0043850145)
(5.0024654 0.00047867562 -0.0033592455)
(5.0013618 0.00035061733 -0.0024607341)
(5.0006284 0.00023717779 -0.0016744368)
(5.0005727 0.00026213027 -0.0028004994)
(5.0004844 0.00029216407 -0.0039597518)
(5.0003717 0.00032353749 -0.005110016)
(5.0002314 0.00034577973 -0.006210416)
(5.0000708 0.00036532765 -0.00722326)
(4.9998865 0.00039502105 -0.0081286575)
(4.9996977 0.00043247801 -0.0089263659)
(4.9995098 0.00047971896 -0.0096309079)
(4.9993281 0.00053401466 -0.010259777)
(4.9991535 0.00059414296 -0.010834424)
(4.9989847 0.00065960415 -0.011376445)
(4.9988171 0.00073081492 -0.011905037)
(4.9986445 0.00080860099 -0.012434743)
(4.9984589 0.00089395368 -0.012973848)
(4.9982519 0.00098796807 -0.013523734)
(4.998015 0.0010916883 -0.014078678)
(4.9977394 0.0012061926 -0.014625903)
(4.9974165 0.0013325658 -0.01514542)
(4.9970371 0.0014716038 -0.015609752)
(4.9965909 0.0016234186 -0.015982386)
(4.9960671 0.0017862525 -0.016215917)
(4.9954543 0.0019561706 -0.016249727)
(4.9947434 0.0021259625 -0.01600558)
(4.9939297 0.0022950741 -0.015388632)
(4.9930283 0.0024598306 -0.014291811)
(4.9920659 0.0026452052 -0.012630959)
(4.9911395 0.0028412377 -0.010400866)
(4.9902981 0.0030576179 -0.0076888952)
(4.9896881 0.0032842101 -0.0047107663)
(4.9773497 0.005169079 -0.0072158594)
(4.9576871 0.0078260006 -0.01056214)
(4.927949 0.011706452 -0.015209125)
(4.8831003 0.017798612 -0.022166212)
(4.816184 0.027337462 -0.032544391)
(4.710867 0.048589288 -0.05195285)
(5.8352407 -0.054959923 -0.030330797)
(5.858327 -0.024045804 -0.023099441)
(5.8776846 0.0042556152 -0.013382006)
(5.8975714 0.030683133 -0.0048829882)
(5.9129763 0.053515035 0.020234354)
(5.9179961 0.08446914 0.013986138)
(5.9416598 0.12854792 0.030647109)
(5.9594132 0.17849189 0.049236287)
(5.9701066 0.21960956 0.058565503)
(5.9905149 0.26735054 0.085920116)
(5.9931054 0.31071733 0.080562769)
(5.9972328 0.37318357 0.10248496)
(6.0038645 0.44096222 0.12889573)
(6.0053017 0.52566867 0.15855292)
(5.9988312 0.61445701 0.188458)
(5.9806457 0.71652025 0.21436356)
(5.9553522 0.82008143 0.2438483)
(5.9195186 0.9450422 0.27416771)
(5.8563692 1.0844174 0.30182821)
(5.7639975 1.2169605 0.31853223)
(5.7100914 1.3201011 0.31293498)
(5.5503269 1.5171703 0.29661757)
(5.3916975 1.7553213 0.27025992)
(5.1649767 2.0826757 0.19155219)
(4.9187184 2.3182004 0.094634865)
(4.0185431 2.6077374 -0.064324463)
(3.2217571 2.0063523 -0.52016735)
(2.0846725 0.91714822 -1.2490642)
(1.6445542 0.70899929 -1.1199454)
(2.1809062 0.22524983 -0.83721328)
(3.0028993 0.31025077 -0.60216377)
(3.475229 0.20262367 -0.47293634)
(3.7927601 0.1415675 -0.33345259)
(3.6722284 0.18170345 -0.31543152)
(3.270216 0.2689662 -0.44662457)
(2.6298358 0.38468537 -0.72351895)
(2.7818691 0.47943665 -0.50080817)
(3.6378992 0.28042031 -0.30291631)
(4.1473637 0.14508695 -0.20137389)
(4.367208 0.087664637 -0.19383662)
(4.5314392 0.057661787 -0.17050049)
(4.6633069 0.04695446 -0.16104641)
(4.7738724 0.038933275 -0.13860374)
(4.8439941 0.024761334 -0.11944749)
(4.8916465 0.017029116 -0.10267787)
(4.9240754 0.01194916 -0.087986217)
(4.9467685 0.0085965515 -0.075114086)
(4.9628497 0.0063063805 -0.063815148)
(4.9743611 0.0046903047 -0.05380577)
(4.9826436 0.0035163076 -0.044858614)
(4.9886 0.0026391922 -0.036785212)
(4.9928404 0.001965346 -0.029453454)
(4.9957869 0.0014337934 -0.022790363)
(4.9977517 0.0010063766 -0.016770383)
(4.997386 0.0011157695 -0.01754377)
(4.9970092 0.0012354644 -0.018325537)
(4.9966037 0.0013670758 -0.019128746)
(4.996151 0.001512375 -0.019955769)
(4.995632 0.0016731601 -0.020798369)
(4.9950277 0.0018512426 -0.021637879)
(4.9943191 0.0020484193 -0.022445279)
(4.9934859 0.0022659773 -0.023180714)
(4.9925056 0.0025042609 -0.023791114)
(4.9913544 0.002761301 -0.02420688)
(4.9900076 0.0030318001 -0.024337686)
(4.9884442 0.0033073789 -0.02406536)
(4.9866549 0.00358338 -0.023244284)
(4.9846619 0.0038628695 -0.021704104)
(4.9825414 0.0041656763 -0.019297324)
(4.9804751 0.0044938631 -0.015979503)
(4.9786547 0.0048341057 -0.011851453)
(4.9600853 0.007338095 -0.017326256)
(4.9320301 0.01102596 -0.024937949)
(4.8902398 0.016714077 -0.036025908)
(4.8285921 0.025597336 -0.052803239)
(4.7361406 0.044314891 -0.081866158)
(4.7465045 0.12410046 -0.019168037)
(4.8301033 0.078204543 -0.011937517)
(4.8899858 0.051797502 -0.0077126462)
(4.9312534 0.034610518 -0.0051638108)
(4.9593974 0.023384896 -0.0035540409)
(4.9781409 0.015627491 -0.0023934382)
(4.9899948 0.010011862 -0.0015484395)
(4.9967347 0.0056013518 -0.00086927996)
(4.9971776 0.0089674695 -0.00075888383)
(4.9978195 0.011740862 -0.00065345494)
(4.9984871 0.01360337 -0.00057133797)
(4.9991402 0.014391262 -0.0004984355)
(4.9996994 0.014198113 -0.00046838652)
(5.0001377 0.013181611 -0.00043179054)
(5.0004649 0.011578439 -0.00041010261)
(5.0006968 0.009604992 -0.00037349706)
(5.0008378 0.0074514674 -0.0003236353)
(5.0009509 0.0052739973 -0.00028046137)
(5.0010025 0.003169148 -0.00023243715)
(5.0011406 0.0010720556 -0.00021523354)
(5.0033693 0.0018551476 -0.00034297643)
(5.0071993 0.0026830509 -0.00047221028)
(5.0130062 0.0036641248 -0.00060791268)
(5.0211878 0.0047139416 -0.00073452473)
(5.0321186 0.0058752199 -0.00086355988)
(5.0459946 0.0070923091 -0.00096179906)
(5.0630164 0.0083342715 -0.0010224665)
(5.0832306 0.0095310233 -0.0010242012)
(5.1065485 0.010591277 -0.00095913565)
(5.1326355 0.011405421 -0.00082463473)
(5.1608956 0.011862421 -0.00062487417)
(5.190367 0.01187963 -0.00036753768)
(5.2200816 0.0114084 -7.0232948e-05)
(5.2486687 0.010458047 0.00024472225)
(5.2519571 0.032252737 0.00025058779)
(5.2225133 0.035177856 -9.0900974e-05)
(5.1919165 0.036611122 -0.00041385399)
(5.1615984 0.036520728 -0.00069298411)
(5.1326285 0.035055134 -0.00090768262)
(5.1060206 0.032479832 -0.0010492447)
(5.0823893 0.029143983 -0.0011154373)
(5.0620505 0.025387433 -0.0011139056)
(5.0450588 0.021501296 -0.0010543029)
(5.0312979 0.017706705 -0.00095630121)
(5.0205431 0.014142917 -0.00083417133)
(5.0125146 0.010907509 -0.00069939124)
(5.0068536 0.0080083684 -0.00054930839)
(5.003144 0.0054578481 -0.00039013661)
(5.002951 0.0091549327 -0.00046634258)
(5.006457 0.013540377 -0.0006614201)
(5.0118666 0.018533813 -0.00084374468)
(5.0196157 0.024154621 -0.0010002888)
(5.030101 0.030353338 -0.0011360542)
(5.0436809 0.03699713 -0.0012474996)
(5.0606711 0.043844067 -0.0013163808)
(5.0812923 0.050516294 -0.0013199151)
(5.1055751 0.056497138 -0.0012460269)
(5.1332469 0.061161273 -0.0010810556)
(5.1636565 0.063851357 -0.00082382082)
(5.1956691 0.064061227 -0.00048628242)
(5.2279976 0.061532291 -9.8141943e-05)
(5.2590687 0.056342247 0.00030861773)
(5.2712808 0.083616154 0.00047622646)
(5.2374552 0.091612798 -4.62624e-05)
(5.2021221 0.095514132 -0.00055507966)
(5.167148 0.095152124 -0.0010015565)
(5.1342164 0.090889207 -0.00133964)
(5.1047033 0.083572825 -0.0015486912)
(5.0793229 0.074301006 -0.0016377343)
(5.0582523 0.06409244 -0.0016315822)
(5.0413003 0.053754678 -0.0015384058)
(5.0280663 0.043844361 -0.0013928155)
(5.0180649 0.034701903 -0.001220323)
(5.0108109 0.026496578 -0.001022039)
(5.0058261 0.019277656 -0.00079409596)
(5.0026361 0.012984878 -0.00055190628)
(5.0021772 0.016773025 -0.00063891852)
(5.0048528 0.024991681 -0.00092392073)
(5.0091275 0.034517109 -0.0012002182)
(5.0155278 0.045487781 -0.0014521751)
(5.0246569 0.057905507 -0.0016813825)
(5.0372021 0.071603505 -0.0018831569)
(5.0539126 0.086169148 -0.0020184574)
(5.0755021 0.10084066 -0.0020462118)
(5.1024684 0.11442176 -0.001947003)
(5.1348254 0.12531255 -0.0016795963)
(5.1717662 0.13172077 -0.0012223616)
(5.2114696 0.13229605 -0.00060997064)
(5.2515564 0.1265434 8.0828825e-05)
(5.2896123 0.11491121 0.00077727843)
(5.3147878 0.1509091 0.00123589)
(5.2707776 0.1674086 0.00032487211)
(5.2236455 0.17583777 -0.00063417296)
(5.1768047 0.17505908 -0.0014934413)
(5.1338219 0.16561736 -0.0021220905)
(5.0973675 0.14969416 -0.0024607238)
(5.0683691 0.13025838 -0.0025525391)
(5.0464097 0.10980993 -0.002468292)
(5.0304378 0.090060742 -0.0022478137)
(5.0192127 0.071979032 -0.0019650394)
(5.0115713 0.055978149 -0.0016617908)
(5.0065478 0.042136006 -0.00134699)
(5.0033791 0.030325262 -0.0010224931)
(5.0014826 0.020270107 -0.00070295161)
(5.0005013 0.023139201 -0.00075393245)
(5.001273 0.034798428 -0.0011084487)
(5.0028066 0.04872565 -0.0014837476)
(5.0057206 0.065422021 -0.0018709995)
(5.0109507 0.08524531 -0.0022650018)
(5.0198111 0.10835585 -0.0026558885)
(5.0340588 0.13446641 -0.0030071902)
(5.055794 0.16252162 -0.0032186916)
(5.0870948 0.19016374 -0.0031758508)
(5.1292369 0.21336991 -0.0027442679)
(5.1811306 0.22714281 -0.0018486581)
(5.2384132 0.2278789 -0.00061026032)
(5.295482 0.21521739 0.00074932148)
(5.3473077 0.19184511 0.0019336625)
(5.3881595 0.23962534 0.0033658032)
(5.3263978 0.27267118 0.0017883655)
(5.2556336 0.29201229 -0.0002811924)
(5.1833044 0.2918281 -0.0022440301)
(5.118277 0.27154067 -0.0036788649)
(5.0682946 0.2369174 -0.0042741952)
(5.0347299 0.19736259 -0.0041716841)
(5.0146311 0.15917929 -0.0037435037)
(5.0038528 0.12525118 -0.0032178882)
(4.9989702 0.096500526 -0.0026692424)
(4.9974633 0.072803635 -0.0021472598)
(4.9976305 0.053509976 -0.0016586492)
(4.9983986 0.037844529 -0.0012157223)
(4.9991696 0.025005684 -0.00081771619)
(4.9974756 0.02545955 -0.00089289368)
(4.994704 0.038826942 -0.0013544229)
(4.9908908 0.055550829 -0.0018940412)
(4.9864634 0.076831977 -0.0025182526)
(4.9824526 0.1040831 -0.0032212385)
(4.980889 0.13877446 -0.0040214664)
(4.9852366 0.1820275 -0.0048379649)
(5.000692 0.23439503 -0.0056010344)
(5.0356609 0.29207684 -0.0060586549)
(5.0960988 0.34271033 -0.0052571969)
(5.1801644 0.37064955 -0.0025759915)
(5.2747498 0.36804055 0.00093602788)
(5.3654849 0.33723519 0.0047911106)
(5.4396291 0.29011805 0.0076768589)
(5.5095965 0.3564672 0.018070568)
(5.421548 0.42583796 0.013429624)
(5.3037621 0.47374508 0.0067840697)
(5.1723691 0.48194647 -0.0014238702)
(5.055612 0.43518656 -0.0093852785)
(4.9792852 0.35770029 -0.0099448653)
(4.946665 0.27001902 -0.0078231375)
(4.9419856 0.199867 -0.0065164975)
(4.9497193 0.14571222 -0.0052252522)
(4.9610831 0.10571249 -0.0040526125)
(4.9727439 0.075983361 -0.003053473)
(4.9827233 0.053879092 -0.0022294935)
(4.990307 0.037157685 -0.0015596754)
(4.9954717 0.024161923 -0.0010181289)
(4.9933659 0.020950858 -0.0011767822)
(4.9856208 0.032490813 -0.0018264713)
(4.9738389 0.047774183 -0.0026691802)
(4.9573111 0.068808557 -0.0037701446)
(4.9359868 0.09862515 -0.0052206869)
(4.9101317 0.14166581 -0.0070542219)
(4.8835752 0.20495267 -0.0093754152)
(4.8607953 0.30102201 -0.010763488)
(4.7407567 0.30454918 -0.024345352)
(4.8115437 0.18359476 -0.014134178)
(4.8663942 0.12002622 -0.0096107383)
(4.9102588 0.080573234 -0.0065847721)
(4.9424174 0.054644359 -0.0045515709)
(4.9655235 0.03723522 -0.0031409444)
(4.9813029 0.025030902 -0.0021186871)
(4.9914168 0.016039255 -0.0013595262)
(4.9920574 0.015457899 -0.0042783725)
(4.9939222 0.020194497 -0.0038960301)
(4.9959061 0.023280457 -0.003441568)
(4.9977574 0.024519212 -0.002950764)
(4.9993119 0.024091587 -0.0024815428)
(5.000535 0.022340403 -0.0020763197)
(5.0014527 0.019627396 -0.0017415402)
(5.0021094 0.016280261 -0.0014891863)
(5.0025498 0.012606733 -0.0013012008)
(5.0028509 0.0088875545 -0.0011783107)
(5.0030801 0.0053203284 -0.0011119849)
(5.0033922 0.0017933081 -0.0011017536)
(5.0033228 0.0017365687 -0.0018190927)
(5.0032435 0.0016823634 -0.0025452349)
(5.0031571 0.0016249073 -0.0032497496)
(5.0030588 0.0015503168 -0.0038977916)
(5.0029487 0.0014686694 -0.0044686525)
(5.00283 0.0013840928 -0.0049556256)
(5.0027053 0.0012997352 -0.0053610576)
(5.0025762 0.0012169972 -0.0056908125)
(5.0024444 0.00113616 -0.0059521808)
(5.0023117 0.0010576256 -0.0061526084)
(5.0021799 0.00098183291 -0.006299258)
(5.0020507 0.00090924387 -0.0063985038)
(5.0019258 0.0008401707 -0.0064556346)
(5.0018071 0.00077473679 -0.0064744961)
(5.001696 0.00071292809 -0.006457056)
(5.0015939 0.00065470446 -0.0064035519)
(5.0015019 0.00059987312 -0.006312225)
(5.0014211 0.00054820892 -0.0061794708)
(5.0013521 0.00049950635 -0.0060002141)
(5.0012951 0.00045351194 -0.0057684515)
(5.0012497 0.00040967379 -0.0054779077)
(5.0012155 0.00036730708 -0.0051225662)
(5.0011912 0.00032534157 -0.0046975398)
(5.001176 0.0002853124 -0.0041990925)
(5.0011673 0.00024844971 -0.0036294328)
(5.0011662 0.00022208307 -0.0029978357)
(5.0011672 0.00020783594 -0.0023293719)
(5.0011777 0.00020582084 -0.0016504594)
(5.0011891 0.0002143323 -0.00098724266)
(5.0012138 0.00022498873 -0.00034193759)
(5.0004127 0.00012754292 -0.00019685458)
(5.0003914 0.00012479392 -0.00057794262)
(5.0003898 0.00012006327 -0.00095878487)
(5.0003836 0.00012100532 -0.0013493009)
(5.0003855 0.0001297736 -0.0017355861)
(5.0003846 0.0001445036 -0.0021009741)
(5.0003872 0.00016727278 -0.0024315385)
(5.0003919 0.0001899842 -0.002721028)
(5.0004001 0.00021436845 -0.0029685818)
(5.0004121 0.00023826845 -0.0031761662)
(5.0004279 0.00026313607 -0.0033466228)
(5.0004476 0.00028935701 -0.0034832694)
(5.0004711 0.00031735501 -0.0035896216)
(5.0004985 0.00034720391 -0.0036690294)
(5.0005295 0.00037898273 -0.0037243304)
(5.0005639 0.000412817 -0.0037575392)
(5.0006011 0.00044878451 -0.0037695217)
(5.0006409 0.00048682988 -0.0037600544)
(5.0006828 0.00052695015 -0.003728089)
(5.0007262 0.00056906749 -0.0036713858)
(5.0007706 0.00061297381 -0.003586884)
(5.0008154 0.00065836655 -0.0034709187)
(5.0008598 0.00070504353 -0.0033193112)
(5.0009033 0.00075295599 -0.003127859)
(5.0009447 0.00080228249 -0.0028919365)
(5.0009846 0.0008527781 -0.0026089145)
(5.0010215 0.00090061982 -0.0022756637)
(5.0010566 0.00094876684 -0.0018990222)
(5.0010876 0.00097854056 -0.0014872562)
(5.0011176 0.0010187991 -0.0010652934)
(5.001147 0.0010447337 -0.0006471746)
(5.0009728 0.0030675279 -0.00064673832)
(5.0001262 0.0010096485 -0.00020994863)
(5.0001167 0.00097187 -0.00034704384)
(5.0001085 0.00092978438 -0.00048351891)
(5.000103 0.00089461024 -0.00061592822)
(5.000099 0.00084954702 -0.00073396777)
(5.0000976 0.00080865385 -0.00084012732)
(5.000096 0.00076381801 -0.00093013141)
(5.0000938 0.00071896191 -0.0010051474)
(5.0000904 0.00067335226 -0.0010655246)
(5.0000863 0.00062833176 -0.0011127944)
(5.0000817 0.00058444136 -0.0011483879)
(5.0000772 0.00054220206 -0.0011738071)
(5.0000726 0.00050186604 -0.0011903327)
(5.0000683 0.00046358192 -0.0011990325)
(5.0000641 0.00042737574 -0.0012006722)
(5.0000603 0.00039327648 -0.001195896)
(5.0000568 0.00036117035 -0.0011845852)
(5.0000536 0.00033091473 -0.0011662562)
(5.0000508 0.00030242267 -0.0011403989)
(5.0000485 0.00027555886 -0.0011060792)
(5.0000466 0.00025021385 -0.0010621942)
(5.0000454 0.00022638994 -0.0010075283)
(5.000045 0.00020419107 -0.00094102111)
(5.0000456 0.00018405611 -0.00086168546)
(5.0000471 0.00016591817 -0.00076952113)
(5.0000488 0.00015104589 -0.00066416844)
(5.0000496 0.00013895444 -0.00055044101)
(5.0000482 0.00013021029 -0.00042866857)
(5.0000476 0.00012523853 -0.00030764812)
(5.0000475 0.00012310029 -0.0001889629)
(5.0000463 0.00019753136 -0.0001899631)
(5.0000464 0.00019844388 -0.00030579997)
(5.0000489 0.00020612645 -0.00042690149)
(5.0000509 0.00022045352 -0.00054651627)
(5.0000503 0.00024044872 -0.00065940163)
(5.0000477 0.00026496796 -0.00076263399)
(5.0000452 0.00029421344 -0.00085435964)
(5.0000438 0.00032685209 -0.00093330717)
(5.0000437 0.00036222042 -0.00099954568)
(5.0000446 0.00040021559 -0.0010542517)
(5.0000463 0.0004407045 -0.0010984695)
(5.0000485 0.00048372371 -0.0011334161)
(5.0000512 0.00052941226 -0.0011602315)
(5.0000543 0.00057796832 -0.0011798625)
(5.0000578 0.0006296465 -0.0011930818)
(5.0000616 0.00068462263 -0.0012001525)
(5.0000657 0.00074300873 -0.0012008629)
(5.00007 0.00080487746 -0.0011947244)
(5.0000745 0.00087013204 -0.0011808677)
(5.000079 0.00093850826 -0.0011581237)
(5.0000833 0.0010095294 -0.0011250811)
(5.000087 0.0010824633 -0.001080117)
(5.0000897 0.001156261 -0.0010216257)
(5.0000909 0.0012290571 -0.0009476793)
(5.000091 0.0013016695 -0.00085858034)
(5.0000915 0.0013726409 -0.00075342317)
(5.0000943 0.0014437024 -0.00063380199)
(5.0001006 0.0015129519 -0.00050150981)
(5.0001094 0.0015811481 -0.00036095739)
(5.0001211 0.0016578204 -0.00021768934)
(5.0001158 0.0023248988 -0.00023565638)
(5.0001086 0.0022175794 -0.00039342353)
(5.0001004 0.0021146109 -0.0005428724)
(5.0000946 0.0020118397 -0.00068224859)
(5.0000924 0.0019105904 -0.00080783695)
(5.0000927 0.0018095587 -0.00091689409)
(5.0000931 0.0017072994 -0.0010081134)
(5.0000921 0.0016044905 -0.0010822722)
(5.0000894 0.0015008428 -0.0011398224)
(5.0000855 0.0013982702 -0.0011825736)
(5.0000809 0.0012985738 -0.0012126331)
(5.0000761 0.0012027206 -0.0012319023)
(5.0000714 0.0011114358 -0.0012420386)
(5.0000668 0.0010250695 -0.001244408)
(5.0000625 0.00094372068 -0.0012400252)
(5.0000584 0.00086728585 -0.0012294944)
(5.0000547 0.0007955371 -0.0012130078)
(5.0000514 0.00072816478 -0.0011903143)
(5.0000486 0.00066485731 -0.001160763)
(5.0000462 0.00060534447 -0.0011233736)
(5.0000446 0.00054943548 -0.0010769382)
(5.0000437 0.00049707503 -0.0010201241)
(5.0000441 0.00044848492 -0.00095180611)
(5.0000461 0.00040385396 -0.00087021051)
(5.0000498 0.00036413201 -0.00077608365)
(5.0000539 0.00033005991 -0.00067100629)
(5.0000541 0.00030244185 -0.00055660337)
(5.0000505 0.00028228029 -0.00043540159)
(5.0000468 0.00027114583 -0.00031164223)
(5.0000454 0.00026987491 -0.00019407902)
(5.0000447 0.0003341632 -0.00020262253)
(5.0000469 0.00033590989 -0.00032510054)
(5.0000521 0.00035051186 -0.00045470114)
(5.0000582 0.00037478884 -0.0005799235)
(5.0000579 0.00040886225 -0.00069796865)
(5.0000528 0.00045196937 -0.00080713897)
(5.0000471 0.00050202053 -0.00090517716)
(5.0000431 0.00055816514 -0.00099131901)
(5.000042 0.00061900417 -0.0010639312)
(5.0000425 0.0006846884 -0.0011246)
(5.0000441 0.00075505441 -0.0011748529)
(5.0000463 0.00083016189 -0.0012162615)
(5.0000491 0.00091025394 -0.0012501587)
(5.0000524 0.00099571205 -0.0012776016)
(5.0000561 0.001086982 -0.001299256)
(5.0000601 0.001184502 -0.0013153233)
(5.0000645 0.0012886208 -0.0013255142)
(5.0000691 0.0013995186 -0.0013290511)
(5.0000739 0.0015171324 -0.0013246896)
(5.0000788 0.0016410546 -0.0013106914)
(5.0000833 0.0017704468 -0.0012850698)
(5.0000872 0.001903946 -0.0012455119)
(5.0000897 0.0020387799 -0.0011890498)
(5.0000901 0.002172345 -0.0011134288)
(5.000089 0.002305754 -0.0010177182)
(5.0000876 0.0024377381 -0.00090065815)
(5.0000891 0.0025702114 -0.00076371555)
(5.0000945 0.0027057443 -0.00061021458)
(5.0001019 0.0028439978 -0.00044493167)
(5.0001068 0.0029867597 -0.00027249643)
(5.0000783 0.0035848855 -0.00031550952)
(5.0000745 0.0034111269 -0.00051441669)
(5.0000669 0.003237139 -0.0007028432)
(5.0000608 0.0030667656 -0.00087575192)
(5.0000616 0.0029018133 -0.0010278775)
(5.0000651 0.0027384935 -0.0011551925)
(5.0000685 0.0025739082 -0.0012557837)
(5.0000712 0.0024089984 -0.001332408)
(5.000071 0.0022435398 -0.0013872855)
(5.0000687 0.0020810098 -0.001422884)
(5.0000652 0.0019244385 -0.0014427226)
(5.0000612 0.0017753183 -0.0014497894)
(5.0000572 0.0016344349 -0.0014466822)
(5.0000533 0.001502151 -0.0014355045)
(5.0000495 0.0013784433 -0.001417818)
(5.0000461 0.0012630061 -0.001394623)
(5.000043 0.0011553401 -0.0013663348)
(5.0000402 0.0010548566 -0.0013327878)
(5.000038 0.00096095136 -0.0012932631)
(5.0000363 0.00087308289 -0.0012465553)
(5.0000354 0.00079087392 -0.001191116)
(5.0000358 0.00071414192 -0.0011252061)
(5.0000383 0.0006429322 -0.001047375)
(5.0000434 0.00057696552 -0.00095564291)
(5.0000504 0.00051818105 -0.00085137574)
(5.0000566 0.00046798824 -0.00073563817)
(5.0000575 0.00042847004 -0.00061096654)
(5.0000512 0.00040123147 -0.00047939374)
(5.0000448 0.00038497103 -0.00034331294)
(5.0000421 0.00038282148 -0.00021356404)
(5.0000383 0.00041089131 -0.00022661823)
(5.0000407 0.00041320805 -0.00036500249)
(5.0000468 0.00043052202 -0.00050970456)
(5.0000526 0.00046019843 -0.00064986698)
(5.0000507 0.00050334897 -0.00078297259)
(5.000043 0.00055816904 -0.00090683884)
(5.0000343 0.00062245156 -0.0010187956)
(5.0000278 0.00069497316 -0.0011177716)
(5.0000243 0.00077323229 -0.001202236)
(5.0000227 0.00085744935 -0.0012742728)
(5.0000222 0.00094780064 -0.001335851)
(5.0000224 0.0010445903 -0.0013890147)
(5.0000226 0.0011483365 -0.001435522)
(5.0000233 0.0012597194 -0.0014767087)
(5.0000243 0.0013795079 -0.0015133288)
(5.0000256 0.0015084694 -0.0015454973)
(5.0000269 0.0016472814 -0.001572658)
(5.0000281 0.0017963736 -0.0015935764)
(5.0000291 0.0019559331 -0.0016063723)
(5.0000297 0.0021257288 -0.001608516)
(5.0000293 0.002304953 -0.0015968949)
(5.0000283 0.0024921024 -0.0015678005)
(5.0000257 0.0026838145 -0.0015165599)
(5.0000196 0.0028757368 -0.0014385465)
(5.0000104 0.0030675851 -0.001331182)
(5.0000011 0.0032590935 -0.0011913952)
(4.9999977 0.0034540488 -0.0010201575)
(5.0000044 0.0036568342 -0.0008225106)
(5.0000161 0.0038634107 -0.00060524905)
(5.0000243 0.0040691517 -0.00037975705)
(4.9999666 0.0043689428 -0.00045185974)
(4.9999462 0.0041418625 -0.00071690588)
(4.999924 0.0039102566 -0.00097000217)
(4.9999152 0.0036813924 -0.0011936188)
(4.9999228 0.0034613663 -0.0013832678)
(4.9999405 0.0032463674 -0.0015344272)
(4.9999588 0.0030326153 -0.001647074)
(4.9999723 0.0028207284 -0.0017252037)
(4.9999811 0.002610543 -0.0017721508)
(4.9999866 0.0024066433 -0.0017937024)
(4.99999 0.0022125105 -0.0017955572)
(4.9999923 0.0020297136 -0.0017823944)
(4.999994 0.0018589863 -0.0017581103)
(4.9999953 0.0017004652 -0.0017257872)
(4.9999962 0.0015536734 -0.0016876249)
(4.9999971 0.0014179334 -0.0016451001)
(4.9999979 0.0012923889 -0.0015989501)
(4.9999989 0.0011761191 -0.0015490778)
(4.9999999 0.0010682576 -0.0014946149)
(5.0000013 0.00096806091 -0.001434043)
(5.0000039 0.00087481663 -0.0013653644)
(5.0000091 0.00078810173 -0.0012864499)
(5.0000157 0.00070751984 -0.0011951946)
(5.0000232 0.00063270745 -0.0010884255)
(5.0000337 0.00056662379 -0.00096784118)
(5.0000431 0.00051031164 -0.00083520086)
(5.0000462 0.00046597151 -0.00069290327)
(5.0000411 0.0004354199 -0.00054309617)
(5.0000359 0.00041746373 -0.00038883745)
(5.0000342 0.00041484873 -0.00024143672)
(5.0000304 0.0003935885 -0.00025581632)
(5.000032 0.00039680098 -0.0004135761)
(5.0000367 0.00041494518 -0.00057807508)
(5.0000412 0.00044457771 -0.00073772753)
(5.000037 0.00048739342 -0.00088938436)
(5.0000261 0.00054170166 -0.0010308466)
(5.0000137 0.00060543485 -0.0011599583)
(5.0000032 0.00067706355 -0.0012747112)
(4.9999947 0.00075488769 -0.0013730988)
(4.9999892 0.0008390796 -0.0014590153)
(4.9999847 0.00093009019 -0.0015349346)
(4.9999813 0.0010281957 -0.0016033717)
(4.999978 0.001133991 -0.001666484)
(4.9999745 0.0012483387 -0.0017258114)
(4.9999709 0.0013722764 -0.0017823386)
(4.9999671 0.0015068691 -0.0018361981)
(4.9999629 0.0016531231 -0.0018865977)
(4.9999582 0.0018119321 -0.0019319508)
(4.9999532 0.0019838691 -0.001969583)
(4.9999476 0.0021690806 -0.0019957688)
(4.9999405 0.0023671744 -0.0020059567)
(4.9999305 0.002576986 -0.0019945884)
(4.9999157 0.0027955323 -0.0019547244)
(4.9998941 0.0030186505 -0.0018788058)
(4.9998664 0.003246189 -0.0017623652)
(4.9998397 0.0034765861 -0.0016003571)
(4.9998287 0.003712033 -0.0013910193)
(4.9998436 0.0039548446 -0.0011372298)
(4.9998653 0.0041938035 -0.00084273697)
(4.9998803 0.0044227694 -0.00053924197)