/*--------------------------------*- C++ -*----------------------------------*\
| =========                 |                                                 |
| \\      /  F ield         | OpenFOAM: The Open Source CFD Toolbox           |
|  \\    /   O peration     | Version:  v2012                                 |
|   \\  /    A nd           | Website:  www.openfoam.com                      |
|    \\/     M anipulation  |                                                 |
\*---------------------------------------------------------------------------*/
FoamFile
{
    version     2.0;
    format      ascii;
    class       volScalarField;
    location    "200";
    object      nut;
}
// * * * * * * * * * * * * * * * * * * * * * * * * * * * * * * * * * * * * * //

dimensions      [0 2 -1 0 0 0 0];


internalField   nonuniform List<scalar> 
74500
(
0.033524466
0.033524466
0.033524467
0.033524467
0.033524467
0.033524467
0.033524467
0.033524467
0.033524466
0.033524466
0.033524466
0.033524465
0.033524465
0.033524464
0.033524463
0.033524463
0.033524462
0.033524461
0.033524461
0.033524464
0.033524475
0.033524495
0.033524526
0.033524526
0.033524558
0.033524431
0.033524509
0.03352433
0.033524369
0.033524198
0.033524267
0.033524137
0.033524182
0.033524063
0.033524175
0.033524189
0.033524234
0.033524253
0.033524274
0.0335243
0.033524328
0.033524353
0.033524373
0.033524386
0.033524389
0.033524384
0.033524367
0.033524336
0.033524279
0.033524199
0.033524109
0.033524061
0.033524118
0.033524409
0.033524455
0.03352435
0.033524416
0.033524487
0.033524554
0.033524574
0.033524582
0.033524573
0.033524571
0.033524571
0.033524575
0.03352458
0.033524584
0.033524587
0.033524594
0.033524621
0.033524703
0.033524888
0.033525208
0.03352566
0.033526208
0.033526798
0.033527368
0.033527813
0.033527854
0.033527854
0.033527849
0.033527844
0.033527839
0.033504973
0.033504986
0.033504999
0.03350501
0.033505001
0.033504853
0.033503603
0.033501945
0.033500198
0.033498565
0.03349721
0.033496245
0.033495682
0.033495429
0.033495349
0.033495334
0.033495333
0.033495334
0.033495336
0.033495341
0.03349535
0.033495366
0.03349537
0.033495353
0.033495273
0.033495174
0.033495095
0.033495207
0.033495181
0.033495135
0.033494913
0.033494579
0.033494561
0.033494695
0.033494865
0.03349499
0.033495066
0.033495099
0.033495106
0.033495091
0.033495057
0.033495007
0.033494945
0.033494878
0.033494808
0.033494735
0.033494638
0.033494541
0.033494368
0.033494427
0.033494447
0.033494997
0.033495158
0.033495581
0.033465222
0.033433256
0.033400569
0.033368136
0.033336426
0.033305721
0.033275983
0.033247173
0.033219229
0.033192141
0.033165931
0.033140644
0.033116322
0.033093002
0.033070696
0.033049392
0.03302904
0.033009558
0.032990823
0.032972681
0.032954953
0.032937443
0.03291995
0.032902278
0.032884255
0.032865739
0.03284662
0.032826833
0.032806352
0.032785193
0.032763408
0.032741087
0.032718346
0.032695321
0.032672158
0.032649007
0.032626013
0.032603306
0.032581
0.032559193
0.032537956
0.032517333
0.032497337
0.032477948
0.03245911
0.03244073
0.032422674
0.03240477
0.032386795
0.032368487
0.03234951
0.03232945
0.032240207
0.03224517
0.032250089
0.032255134
0.032260188
0.032265224
0.032270261
0.032275288
0.032280339
0.032285343
0.032290266
0.032295104
0.032299768
0.032304271
0.032308568
0.032312557
0.032316264
0.032319611
0.032322566
0.032325039
0.032326986
0.032328262
0.032328845
0.032328794
0.032328365
0.032328338
0.032348663
0.032348677
0.03234888
0.032348663
0.03234782
0.032346366
0.032344317
0.032341793
0.032338846
0.032335531
0.032331893
0.03232799
0.0323238
0.032319418
0.032314877
0.032310187
0.032305404
0.032300558
0.032295668
0.03229079
0.0322859
0.032281038
0.03227615
0.032271295
0.03226656
0.032261801
0.032282659
0.032287236
0.032291802
0.032296464
0.032301174
0.032305869
0.032310598
0.032315324
0.03232005
0.032324746
0.03232937
0.032333919
0.032338312
0.03234257
0.032346641
0.032350445
0.032353994
0.032357258
0.03236017
0.032362711
0.032364817
0.032366398
0.032367424
0.032367862
0.032367843
0.032367866
0.032386338
0.032386305
0.032386186
0.032385587
0.032384434
0.032382779
0.032380643
0.032378116
0.032375255
0.032372065
0.032368612
0.032364921
0.032360975
0.032356859
0.032352616
0.03234822
0.032343757
0.032339221
0.032334668
0.032330094
0.032325534
0.032320995
0.03231647
0.032311986
0.032307585
0.032303198
0.032323659
0.032327871
0.032332109
0.032336427
0.032340768
0.032345156
0.032349549
0.032353963
0.032358344
0.032362709
0.03236701
0.03237124
0.032375335
0.032379293
0.032383101
0.032386672
0.032390028
0.032393119
0.032395922
0.032398399
0.032400536
0.032402227
0.032403459
0.032404177
0.0324044
0.032404453
0.032422457
0.032422401
0.032422107
0.032421314
0.032420041
0.032418332
0.032416227
0.032413801
0.032411079
0.032408092
0.032404855
0.032401414
0.032397754
0.03239395
0.032390008
0.032385945
0.032381811
0.032377616
0.032373404
0.032369155
0.032364929
0.032360706
0.032356532
0.032352384
0.032348308
0.032344273
0.032365171
0.032369044
0.032372962
0.032376944
0.032380957
0.032385013
0.032389075
0.032393155
0.032397203
0.032401226
0.032405197
0.032409091
0.03241288
0.032416527
0.03242003
0.032423333
0.032426444
0.032429321
0.032431948
0.032434312
0.032436365
0.032438075
0.032439363
0.032440193
0.032440533
0.032440598
0.032459037
0.032458974
0.032458606
0.032457761
0.032456477
0.032454796
0.032452802
0.032450519
0.032447994
0.032445234
0.032442256
0.032439091
0.032435742
0.032432249
0.032428618
0.032424889
0.032421087
0.03241723
0.032413344
0.032409429
0.032405526
0.032401633
0.032397775
0.032393951
0.032390184
0.032386466
0.032408196
0.032411776
0.032415405
0.032419082
0.032422794
0.032426533
0.032430284
0.03243404
0.03243777
0.032441468
0.032445105
0.032448673
0.032452148
0.032455491
0.03245869
0.032461717
0.032464559
0.032467201
0.03246962
0.032471812
0.032473738
0.032475371
0.032476635
0.032477479
0.032477861
0.032477925
0.032497347
0.032497288
0.032496903
0.032496073
0.032494841
0.032493264
0.032491414
0.032489317
0.032487007
0.032484484
0.032481773
0.032478881
0.032475827
0.03247263
0.032469307
0.032465892
0.032462407
0.032458861
0.032455277
0.032451668
0.032448058
0.032444459
0.03244088
0.032437334
0.032433828
0.03243037
0.032452947
0.032456308
0.032459707
0.032463143
0.032466606
0.032470083
0.032473569
0.032477045
0.032480496
0.032483904
0.032487252
0.032490526
0.032493707
0.032496764
0.032499684
0.032502448
0.032505035
0.03250744
0.032509643
0.032511644
0.032513418
0.032514931
0.032516125
0.032516932
0.032517313
0.032517368
0.032538006
0.032537956
0.032537585
0.032536806
0.032535656
0.032534205
0.032532509
0.032530599
0.032528496
0.032526201
0.032523729
0.032521085
0.032518287
0.032515355
0.032512302
0.032509152
0.032505926
0.032502637
0.032499302
0.032495938
0.032492558
0.032489182
0.032485813
0.032482466
0.032479148
0.032475862
0.032499015
0.032502253
0.032505517
0.032508801
0.0325121
0.032515402
0.032518697
0.032521973
0.032525214
0.032528406
0.032531531
0.032534575
0.03253752
0.032540346
0.032543036
0.032545575
0.032547944
0.03255014
0.032552151
0.032553977
0.0325556
0.032556992
0.032558097
0.032558847
0.032559205
0.032559252
0.032581063
0.032581017
0.032580672
0.032579952
0.032578889
0.032577551
0.032575992
0.03257424
0.032572308
0.032570197
0.032567914
0.032565464
0.032562861
0.032560121
0.032557262
0.0325543
0.032551252
0.032548134
0.032544961
0.032541747
0.032538507
0.032535254
0.032531996
0.032528746
0.032525508
0.032522288
0.032545542
0.032548776
0.032552019
0.032555268
0.032558515
0.032561752
0.032564965
0.032568145
0.032571278
0.032574351
0.032577348
0.032580254
0.032583054
0.03258573
0.032588268
0.03259065
0.032592866
0.03259491
0.03259678
0.032598472
0.032599977
0.032601269
0.032602295
0.032602988
0.032603322
0.03260337
0.032626073
0.032626022
0.032625698
0.032625026
0.03262403
0.032622772
0.032621306
0.032619657
0.032617834
0.032615837
0.032613667
0.032611329
0.032608833
0.032606194
0.032603428
0.032600548
0.032597572
0.032594514
0.032591388
0.03258821
0.03258499
0.032581741
0.032578474
0.032575198
0.032571919
0.032568644
0.032591467
0.03259481
0.03259815
0.032601481
0.032604797
0.032608088
0.032611342
0.032614549
0.032617696
0.032620769
0.032623754
0.032626636
0.0326294
0.03263203
0.032634513
0.032636833
0.032638982
0.032640955
0.032642753
0.032644375
0.032645818
0.032647053
0.032648029
0.032648685
0.032649004
0.03264906
0.032672202
0.032672136
0.03267182
0.032671171
0.032670202
0.032668974
0.032667539
0.032665922
0.032664129
0.032662156
0.032660004
0.032657675
0.032655178
0.032652528
0.032649739
0.032646825
0.032643803
0.032640686
0.032637489
0.032634226
0.03263091
0.032627552
0.032624164
0.032620755
0.032617333
0.032613903
0.032635869
0.032639397
0.032642915
0.032646418
0.032649896
0.032653341
0.03265674
0.032660081
0.032663352
0.032666537
0.032669623
0.032672594
0.032675436
0.032678132
0.032680669
0.032683032
0.032685214
0.032687209
0.03268902
0.032690651
0.032692097
0.032693333
0.032694307
0.032694958
0.032695278
0.032695354
0.032718367
0.032718279
0.032717952
0.032717289
0.032716297
0.032715037
0.032713564
0.0327119
0.03271005
0.03270801
0.032705777
0.032703356
0.032700756
0.03269799
0.032695073
0.032692022
0.032688853
0.032685579
0.032682218
0.032678782
0.032675286
0.032671742
0.032668164
0.032664561
0.032660943
0.032657315
0.032678228
0.032681947
0.03268566
0.03268936
0.032693038
0.032696682
0.032700279
0.032703817
0.03270728
0.032710653
0.03271392
0.032717066
0.032720074
0.032722928
0.032725611
0.03272811
0.032730413
0.032732517
0.032734424
0.032736137
0.032737655
0.032738951
0.032739972
0.032740658
0.032740998
0.032741098
0.032763413
0.032763302
0.032762943
0.032762227
0.032761164
0.03275982
0.032758246
0.032756469
0.032754491
0.032752308
0.03274992
0.032747331
0.032744552
0.0327416
0.032738491
0.032735242
0.032731872
0.032728396
0.032724832
0.032721195
0.032717501
0.032713764
0.032709998
0.032706215
0.032702424
0.032698633
0.032718597
0.032722429
0.032726271
0.032730113
0.032733946
0.032737757
0.032741531
0.032745254
0.032748909
0.03275248
0.032755949
0.032759298
0.032762508
0.032765563
0.032768441
0.032771128
0.032773609
0.032775878
0.032777937
0.032779788
0.032781428
0.032782829
0.032783939
0.032784694
0.032785079
0.032785197
0.032806361
0.032806237
0.032805822
0.032805024
0.032803862
0.032802399
0.032800691
0.032798762
0.032796619
0.032794261
0.032791686
0.032788904
0.032785929
0.03278278
0.032779477
0.032776039
0.032772486
0.032768838
0.032765113
0.032761328
0.032757499
0.032753644
0.032749776
0.032745908
0.032742052
0.032738216
0.032757618
0.032761413
0.032765241
0.032769092
0.032772956
0.032776818
0.032780665
0.03278448
0.032788245
0.032791942
0.032795553
0.032799057
0.032802434
0.032805662
0.03280872
0.032811587
0.032814247
0.032816689
0.032818912
0.032820916
0.032822693
0.032824216
0.03282543
0.032826271
0.03282672
0.032826848
0.032846641
0.032846504
0.032846026
0.032845144
0.032843883
0.032842306
0.032840467
0.032838397
0.032836106
0.032833594
0.032830866
0.032827933
0.032824815
0.032821533
0.032818112
0.032814572
0.032810937
0.032807226
0.03280346
0.032799657
0.032795834
0.032792008
0.032788195
0.032784406
0.032780653
0.032776945
0.032796351
0.032799924
0.032803555
0.032807234
0.03281095
0.032814692
0.032818444
0.03282219
0.032825912
0.032829593
0.032833212
0.032836747
0.032840178
0.032843479
0.032846627
0.032849598
0.03285237
0.032854929
0.03285727
0.03285939
0.032861278
0.032862899
0.032864196
0.032865111
0.032865616
0.032865762
0.032884278
0.03288412
0.032883597
0.032882661
0.03288134
0.032879691
0.032877773
0.032875625
0.03287326
0.032870681
0.032867897
0.032864923
0.032861783
0.032858502
0.032855106
0.032851617
0.03284806
0.032844456
0.032840824
0.032837183
0.03283355
0.03282994
0.032826368
0.032822846
0.032819383
0.032815988
0.032835996
0.032839177
0.032842433
0.032845757
0.032849141
0.032852574
0.032856041
0.03285953
0.032863024
0.032866505
0.032869953
0.032873347
0.032876666
0.032879883
0.032882974
0.032885912
0.032888672
0.032891236
0.032893595
0.032895744
0.032897668
0.032899327
0.032900655
0.032901595
0.032902128
0.032902296
0.032919962
0.032919787
0.032919258
0.032918328
0.032917011
0.032915365
0.03291346
0.032911341
0.032909022
0.032906509
0.032903812
0.032900952
0.032897954
0.032894844
0.03289165
0.032888395
0.032885102
0.032881791
0.032878479
0.032875184
0.032871922
0.032868705
0.032865545
0.032862452
0.032859435
0.032856499
0.03285365
0.03285089
0.032872521
0.032875013
0.032877596
0.032880268
0.032883023
0.032885858
0.032888765
0.032891736
0.03289476
0.032897825
0.032900917
0.032904021
0.032907119
0.032910193
0.032913221
0.032916179
0.032919043
0.032921785
0.032924378
0.032926802
0.032929046
0.032931105
0.032932961
0.032934571
0.032935857
0.032936759
0.032937273
0.032937448
0.032954952
0.032954784
0.032954299
0.03295344
0.032952204
0.032950654
0.032948873
0.032946907
0.032944772
0.032942472
0.032940018
0.032937432
0.032934739
0.032931968
0.032929143
0.032926285
0.032923415
0.032920551
0.032917707
0.032914899
0.032912138
0.032909435
0.0329068
0.032904239
0.032901758
0.032899362
0.032897053
0.032894834
0.032915999
0.032917862
0.032919811
0.032921845
0.032923965
0.032926166
0.032928447
0.032930801
0.032933224
0.032935707
0.032938241
0.032940816
0.032943419
0.032946036
0.03294865
0.032951245
0.032953799
0.032956288
0.032958688
0.032960971
0.032963117
0.032965114
0.03296696
0.03296864
0.032970109
0.032971279
0.032972081
0.032972525
0.032972679
0.032990822
0.03299069
0.032990297
0.032989564
0.032988474
0.032987104
0.032985545
0.032983844
0.032982009
0.032980041
0.032977953
0.032975764
0.032973499
0.032971184
0.03296884
0.032966486
0.032964137
0.032961809
0.032959513
0.03295726
0.03295506
0.032952921
0.032950848
0.032948846
0.03294692
0.032945071
0.032943302
0.032941613
0.032940004
0.032964709
0.03296608
0.032967525
0.032969042
0.032970633
0.032972295
0.032974027
0.032975826
0.032977688
0.032979609
0.032981581
0.032983597
0.032985648
0.032987722
0.032989808
0.032991891
0.032993956
0.032995981
0.032997944
0.032999822
0.033001594
0.033003249
0.03300479
0.033006211
0.033007469
0.033008469
0.033009125
0.03300946
0.033009563
0.033029053
0.033028985
0.033028714
0.03302814
0.033027235
0.033026098
0.033024825
0.033023455
0.033021989
0.033020422
0.033018763
0.033017032
0.033015251
0.03301344
0.033011619
0.0330098
0.033007997
0.033006219
0.033004475
0.033002775
0.033001123
0.032999526
0.032997986
0.032996508
0.032995094
0.032993744
0.032992459
0.03299124
0.032990085
0.033016098
0.033017058
0.033018074
0.033019147
0.033020277
0.033021465
0.033022708
0.033024007
0.033025357
0.033026757
0.033028202
0.033029686
0.033031203
0.033032747
0.033034307
0.033035874
0.033037435
0.033038975
0.033040476
0.033041916
0.033043277
0.033044552
0.033045746
0.033046866
0.033047879
0.033048687
0.033049182
0.033049385
0.033049415
0.033070732
0.033070742
0.033070605
0.033070188
0.033069472
0.033068583
0.033067615
0.033066594
0.033065507
0.033064346
0.033063117
0.033061839
0.033060529
0.033059205
0.033057879
0.033056562
0.033055263
0.033053988
0.033052744
0.033051535
0.033050366
0.033049241
0.033048162
0.03304713
0.033046147
0.033045213
0.033044328
0.033043493
0.033042705
0.03306986
0.033070498
0.033071177
0.033071896
0.033072657
0.03307346
0.033074304
0.033075188
0.033076112
0.033077073
0.033078069
0.033079096
0.03308015
0.033081226
0.033082319
0.033083422
0.033084526
0.033085621
0.033086692
0.033087722
0.033088694
0.033089603
0.033090458
0.033091279
0.03309205
0.033092679
0.033093027
0.033093102
0.03309305
0.033116384
0.033116475
0.033116454
0.033116166
0.033115614
0.033114955
0.033114272
0.033113571
0.033112827
0.033112028
0.03311118
0.033110299
0.033109399
0.033108494
0.033107592
0.0331067
0.033105823
0.033104966
0.033104132
0.033103324
0.033102546
0.0331018
0.033101086
0.033100406
0.03309976
0.033099148
0.033098571
0.033098028
0.033097518
0.033125633
0.033126035
0.033126464
0.03312692
0.033127404
0.033127916
0.033128455
0.033129022
0.033129616
0.033130236
0.03313088
0.033131546
0.033132231
0.033132933
0.033133649
0.033134373
0.033135102
0.033135828
0.033136541
0.033137227
0.033137871
0.033138466
0.033139028
0.033139584
0.03314014
0.033140625
0.033140866
0.033140845
0.033140717
0.033166012
0.033166171
0.03316622
0.033166011
0.033165582
0.033165118
0.033164676
0.033164239
0.033163773
0.033163264
0.033162719
0.033162153
0.033161578
0.033161002
0.033160431
0.033159868
0.033159317
0.033158779
0.033158257
0.033157752
0.033157267
0.033156803
0.03315636
0.033155939
0.033155539
0.033155163
0.033154808
0.033154474
0.033154162
0.033183069
0.033183308
0.033183562
0.033183834
0.033184122
0.033184428
0.033184751
0.03318509
0.033185447
0.033185819
0.033186207
0.033186608
0.033187022
0.033187447
0.03318788
0.033188321
0.033188767
0.033189214
0.033189655
0.03319008
0.033190473
0.033190829
0.033191158
0.0331915
0.033191879
0.033192265
0.033192458
0.033192402
0.033192221
0.033219297
0.033219485
0.033219519
0.033219327
0.033218972
0.033218668
0.033218413
0.033218175
0.033217912
0.033217613
0.033217289
0.033216952
0.033216612
0.033216275
0.033215942
0.033215616
0.033215296
0.033214985
0.033214683
0.033214392
0.033214112
0.033213844
0.033213589
0.033213347
0.033213118
0.033212901
0.033212698
0.033212507
0.033212328
0.033241933
0.033242064
0.033242204
0.033242353
0.033242512
0.03324268
0.033242857
0.033243044
0.03324324
0.033243445
0.033243658
0.033243879
0.033244107
0.033244342
0.033244581
0.033244826
0.033245074
0.033245326
0.033245578
0.033245821
0.033246043
0.033246232
0.033246395
0.033246576
0.033246813
0.033247147
0.033247357
0.033247381
0.033247214
0.033275975
0.03327608
0.033275949
0.033275707
0.033275385
0.033275207
0.033275087
0.033274983
0.033274852
0.03327469
0.033274511
0.033274328
0.033274146
0.033273969
0.033273795
0.033273624
0.033273458
0.033273297
0.03327314
0.033272989
0.033272843
0.033272704
0.033272571
0.033272445
0.033272325
0.033272212
0.033272106
0.033272006
0.033271912
0.033302342
0.033302406
0.033302475
0.033302549
0.033302626
0.033302708
0.033302795
0.033302886
0.033302981
0.03330308
0.033303184
0.033303291
0.033303401
0.033303514
0.03330363
0.033303748
0.033303871
0.033303997
0.033304127
0.033304256
0.033304372
0.033304461
0.033304521
0.033304594
0.033304715
0.033305032
0.033305315
0.033305606
0.03330562
0.033336203
0.033336005
0.03333551
0.033335194
0.033334879
0.033334813
0.033334774
0.033334746
0.033334686
0.033334603
0.033334512
0.033334422
0.033334338
0.033334258
0.033334181
0.033334107
0.033334034
0.033333963
0.033333894
0.033333827
0.033333763
0.033333701
0.033333642
0.033333585
0.033333532
0.033333481
0.033333432
0.033333387
0.033333344
0.033365049
0.033365075
0.033365104
0.033365133
0.033365165
0.033365198
0.033365232
0.033365268
0.033365306
0.033365344
0.033365384
0.033365426
0.033365468
0.033365511
0.033365556
0.033365602
0.03336565
0.033365703
0.033365762
0.033365826
0.033365886
0.033365927
0.033365935
0.033365951
0.033365963
0.03336627
0.033366589
0.033367298
0.033367708
0.033399981
0.033399401
0.033398522
0.033398253
0.033397967
0.033398014
0.033398011
0.033398015
0.033397983
0.033397939
0.033397895
0.033397858
0.033397827
0.0333978
0.033397776
0.033397752
0.03339773
0.033397707
0.033397685
0.033397663
0.033397643
0.033397622
0.033397602
0.033397583
0.033397565
0.033397547
0.03339753
0.033397514
0.033397499
0.033430496
0.033430504
0.033430513
0.033430521
0.03343053
0.033430539
0.033430548
0.033430557
0.033430567
0.033430576
0.033430586
0.033430596
0.033430606
0.033430615
0.033430625
0.033430636
0.033430648
0.033430664
0.033430686
0.033430716
0.033430751
0.033430779
0.03343077
0.03343077
0.033430663
0.033430907
0.033431054
0.033431961
0.033432514
0.03346461
0.033464286
0.033463534
0.033463555
0.033463386
0.033463531
0.033463526
0.033463532
0.033463503
0.033463475
0.033463455
0.033463444
0.033463437
0.033463433
0.03346343
0.033463427
0.033463425
0.033463422
0.033463419
0.033463416
0.033463412
0.033463409
0.033463406
0.033463402
0.033463399
0.033463395
0.033463392
0.033463388
0.033463385
0.033494998
0.033494999
0.033495
0.033495001
0.033495002
0.033495003
0.033495004
0.033495005
0.033495005
0.033495005
0.033495006
0.033495006
0.033495006
0.033495006
0.033495005
0.033495005
0.033495005
0.033495006
0.033495011
0.033495022
0.033495043
0.033495073
0.033495082
0.033495096
0.033494984
0.033495034
0.033494921
0.033495285
0.033495255
0.033495084
0.03352423
0.033524051
0.033524052
0.033524004
0.033524094
0.033524098
0.033524099
0.033524074
0.033524054
0.033524042
0.033524038
0.033524036
0.033524037
0.033524037
0.033524038
0.033524039
0.033524039
0.03352404
0.03352404
0.03352404
0.03352404
0.033524041
0.033524041
0.033524041
0.03352404
0.03352404
0.03352404
0.03352404
0.033524039
0.033523383
0.033523383
0.033523384
0.033523384
0.033523384
0.033523385
0.033523385
0.033523385
0.033523385
0.033523385
0.033523385
0.033523385
0.033523385
0.033523384
0.033523384
0.033523384
0.033523384
0.033523384
0.033523387
0.033523393
0.033523407
0.033523427
0.033523446
0.033523442
0.033523407
0.033523349
0.033523404
0.033523596
0.033523929
0.033523784
0.033523255
0.033522927
0.033522841
0.033522888
0.033522936
0.033522943
0.033522925
0.033522904
0.033522889
0.033522881
0.033522878
0.033522876
0.033522876
0.033522876
0.033522876
0.033522876
0.033522876
0.033522875
0.033522875
0.033522874
0.033522874
0.033522874
0.033522873
0.033522873
0.033522872
0.033522871
0.033522871
0.03352287
0.033522673
0.033522674
0.033522675
0.033522676
0.033522677
0.033522678
0.033522679
0.03352268
0.033522681
0.033522682
0.033522683
0.033522684
0.033522684
0.033522685
0.033522686
0.033522687
0.033522688
0.03352269
0.033522695
0.033522704
0.03352272
0.033522742
0.033522761
0.033522753
0.0335227
0.033522652
0.033522751
0.033523116
0.033523671
0.033523751
0.033523171
0.033522798
0.033522703
0.033522755
0.033522809
0.033522817
0.033522796
0.033522772
0.033522754
0.033522744
0.033522739
0.033522736
0.033522734
0.033522732
0.033522731
0.033522729
0.033522728
0.033522726
0.033522724
0.033522723
0.033522721
0.033522719
0.033522718
0.033522716
0.033522715
0.033522713
0.033522712
0.03352271
0.03352281
0.033522812
0.033522814
0.033522816
0.033522819
0.033522821
0.033522823
0.033522825
0.033522828
0.03352283
0.033522833
0.033522835
0.033522838
0.033522841
0.033522843
0.033522846
0.033522849
0.033522853
0.033522859
0.03352287
0.033522889
0.033522915
0.033522938
0.033522932
0.033522878
0.033522822
0.033522909
0.033523262
0.033523805
0.033523863
0.033523337
0.033522995
0.033522914
0.033522969
0.033523022
0.033523026
0.033523002
0.033522975
0.033522955
0.033522943
0.033522935
0.03352293
0.033522926
0.033522922
0.033522918
0.033522915
0.033522911
0.033522907
0.033522904
0.0335229
0.033522897
0.033522894
0.033522891
0.033522888
0.033522885
0.033522882
0.033522879
0.033522877
0.033522904
0.033522907
0.03352291
0.033522914
0.033522918
0.033522921
0.033522925
0.03352293
0.033522934
0.033522938
0.033522943
0.033522948
0.033522953
0.033522958
0.033522963
0.033522968
0.033522973
0.03352298
0.033522988
0.033523001
0.033523022
0.033523051
0.033523077
0.033523074
0.033523023
0.033522968
0.033523047
0.033523382
0.033523895
0.033523922
0.033523415
0.033523084
0.033523005
0.033523059
0.033523108
0.03352311
0.033523083
0.033523053
0.033523031
0.033523016
0.033523006
0.033522999
0.033522992
0.033522986
0.033522979
0.033522973
0.033522967
0.033522961
0.033522955
0.03352295
0.033522944
0.033522939
0.033522934
0.033522929
0.033522925
0.033522921
0.033522917
0.033522913
0.033522918
0.033522922
0.033522927
0.033522932
0.033522938
0.033522943
0.033522949
0.033522955
0.033522961
0.033522968
0.033522975
0.033522982
0.033522989
0.033522997
0.033523005
0.033523012
0.03352302
0.033523029
0.03352304
0.033523056
0.033523079
0.03352311
0.033523138
0.033523138
0.033523089
0.033523037
0.033523116
0.033523445
0.03352395
0.033523978
0.033523475
0.033523146
0.033523067
0.033523118
0.033523166
0.033523165
0.033523137
0.033523105
0.03352308
0.033523064
0.033523051
0.033523041
0.033523032
0.033523023
0.033523014
0.033523005
0.033522997
0.033522989
0.033522981
0.033522973
0.033522966
0.033522959
0.033522952
0.033522946
0.03352294
0.033522934
0.033522929
0.033522923
0.033522929
0.033522935
0.033522941
0.033522947
0.033522954
0.033522961
0.033522968
0.033522976
0.033522984
0.033522993
0.033523002
0.033523011
0.03352302
0.03352303
0.03352304
0.03352305
0.03352306
0.033523072
0.033523085
0.033523103
0.033523128
0.033523161
0.03352319
0.033523191
0.033523145
0.033523093
0.033523173
0.033523501
0.033524004
0.033524024
0.033523522
0.033523194
0.033523114
0.033523165
0.033523212
0.03352321
0.03352318
0.033523147
0.033523121
0.033523103
0.033523089
0.033523077
0.033523066
0.033523055
0.033523044
0.033523034
0.033523023
0.033523013
0.033523004
0.033522995
0.033522986
0.033522977
0.033522969
0.033522962
0.033522954
0.033522948
0.033522941
0.033522935
0.033522941
0.033522948
0.033522954
0.033522962
0.033522969
0.033522977
0.033522986
0.033522995
0.033523004
0.033523014
0.033523024
0.033523034
0.033523045
0.033523056
0.033523066
0.033523077
0.033523089
0.033523101
0.033523115
0.033523134
0.03352316
0.033523193
0.033523224
0.033523225
0.033523179
0.033523128
0.033523208
0.033523536
0.033524037
0.033524041
0.03352354
0.033523212
0.033523133
0.033523184
0.033523231
0.03352323
0.0335232
0.033523167
0.033523141
0.033523123
0.033523109
0.033523097
0.033523086
0.033523076
0.033523067
0.033523056
0.033523046
0.033523035
0.033523025
0.033523015
0.033523006
0.033522997
0.033522988
0.03352298
0.033522972
0.033522964
0.033522958
0.033522951
0.033522977
0.033522984
0.033522991
0.033522999
0.033523006
0.033523015
0.033523023
0.033523033
0.033523042
0.033523052
0.033523062
0.033523071
0.03352308
0.033523085
0.033523083
0.033523089
0.033523099
0.033523111
0.033523124
0.033523142
0.033523167
0.033523199
0.033523228
0.033523228
0.033523181
0.033523129
0.033523207
0.033523535
0.033524036
0.033524019
0.033523517
0.033523189
0.03352311
0.033523163
0.033523212
0.033523213
0.033523185
0.033523155
0.033523131
0.033523115
0.033523103
0.033523092
0.033523083
0.033523079
0.033523094
0.033523132
0.033523137
0.033523132
0.033523123
0.033523114
0.033523105
0.033523096
0.033523088
0.03352308
0.033523072
0.033523065
0.033523058
0.033523051
0.033523208
0.033523215
0.033523222
0.033523229
0.033523236
0.033523244
0.033523252
0.033523261
0.033523269
0.033523275
0.033523276
0.033523254
0.033523145
0.033523073
0.033523053
0.033523055
0.033523062
0.033523071
0.033523081
0.033523096
0.033523117
0.033523146
0.033523171
0.033523168
0.033523119
0.033523066
0.033523147
0.033523479
0.033523985
0.033523922
0.033523405
0.033523065
0.03352298
0.03352303
0.03352308
0.033523084
0.033523061
0.033523035
0.033523016
0.033523004
0.033522995
0.033522989
0.033522983
0.033522983
0.033523006
0.033523089
0.033523268
0.033523478
0.033523521
0.033523525
0.03352352
0.033523513
0.033523505
0.033523498
0.03352349
0.033523484
0.033523477
0.033523471
0.033523853
0.033523859
0.033523866
0.033523872
0.033523879
0.033523886
0.033523892
0.033523896
0.033523887
0.033523823
0.033523511
0.033523189
0.03352299
0.033522902
0.033522877
0.033522875
0.033522879
0.033522883
0.03352289
0.033522899
0.033522916
0.033522939
0.03352296
0.033522955
0.033522907
0.033522861
0.033522951
0.033523298
0.033523827
0.033523729
0.033523211
0.033522883
0.033522803
0.033522849
0.033522893
0.033522897
0.033522878
0.033522857
0.033522844
0.033522837
0.033522833
0.033522831
0.033522829
0.033522833
0.03352286
0.03352295
0.033523154
0.033523503
0.033523966
0.033524348
0.033524425
0.033524438
0.033524435
0.03352443
0.033524423
0.033524417
0.033524411
0.033524405
0.03352519
0.033525196
0.033525202
0.033525208
0.033525214
0.033525216
0.033525204
0.033525127
0.033524738
0.033524184
0.033523694
0.033523343
0.033523139
0.033523049
0.033523021
0.033523016
0.033523016
0.033523016
0.033523017
0.033523022
0.033523032
0.03352305
0.033523067
0.033523064
0.033523023
0.03352297
0.033523011
0.033523264
0.033523692
0.033523791
0.033523539
0.033523429
0.033523446
0.033523511
0.033523548
0.03352355
0.033523535
0.033523522
0.033523516
0.033523514
0.033523515
0.033523516
0.033523518
0.033523524
0.033523552
0.033523641
0.033523839
0.033524181
0.033524663
0.033525238
0.033525812
0.033526137
0.033526197
0.033526203
0.033526199
0.033526193
0.033526188
0.033526182
0.033527174
0.033527179
0.033527184
0.033527189
0.033527191
0.033527168
0.033526956
0.033526425
0.033525829
0.033525268
0.033524804
0.033524476
0.033524285
0.0335242
0.033524172
0.033524166
0.033524163
0.03352416
0.033524157
0.033524155
0.033524158
0.033524165
0.033524176
0.033524172
0.033524143
0.033524072
0.033523999
0.033523965
0.033524099
0.033495112
0.033494721
0.033494236
0.033494128
0.033494237
0.033494406
0.033494539
0.033494618
0.033494654
0.033494661
0.033494645
0.03349461
0.03349456
0.033494497
0.033494428
0.033494355
0.033494275
0.033494172
0.033494043
0.033493906
0.033493901
0.033494125
0.033494623
0.033463829
0.033464072
0.033464577
0.033432548
0.033400062
0.033367803
0.033336302
0.033305722
0.033276083
0.033247334
0.033219434
0.033192378
0.033166198
0.03314094
0.033116654
0.033093377
0.033071127
0.033049892
0.033029624
0.03301024
0.032991618
0.032973602
0.032956012
0.03293865
0.032921313
0.032903801
0.032885942
0.03286759
0.032848637
0.032829015
0.032808699
0.032787706
0.032766089
0.032743938
0.03272137
0.032698518
0.032675528
0.032652549
0.032629724
0.032607185
0.032585044
0.032563398
0.032542315
0.032521838
0.032501979
0.032482717
0.032463993
0.032445715
0.032427745
0.032409912
0.032391992
0.032373713
0.032354743
0.03233466
0.032349024
0.032368663
0.032387207
0.032405083
0.032422618
0.032440081
0.032457694
0.032475618
0.032493986
0.032512888
0.03253238
0.032552484
0.032573186
0.032594447
0.032616196
0.032638343
0.03266077
0.032683345
0.032705927
0.03272837
0.032750532
0.032772278
0.032793494
0.032814089
0.032834007
0.03285323
0.032871785
0.032889743
0.032907214
0.032924349
0.032941325
0.032958346
0.032975619
0.032993346
0.03301171
0.03303087
0.033050946
0.033072023
0.033094145
0.033117321