/*--------------------------------*- C++ -*----------------------------------*\
| =========                 |                                                 |
| \\      /  F ield         | OpenFOAM: The Open Source CFD Toolbox           |
|  \\    /   O peration     | Version:  v2012                                 |
|   \\  /    A nd           | Website:  www.openfoam.com                      |
|    \\/     M anipulation  |                                                 |
\*---------------------------------------------------------------------------*/
FoamFile
{
    version     2.0;
    format      ascii;
    class       surfaceScalarField;
    location    "200";
    object      phi;
}
// * * * * * * * * * * * * * * * * * * * * * * * * * * * * * * * * * * * * * //

dimensions      [0 3 -1 0 0 0 0];
oriented        oriented;


internalField   nonuniform List<scalar> 
218985
(
-4.4420971e-07
0.0029101552
0.00011285476
-4.3259392e-07
0.0029101517
0.00011285103
-4.317455e-07
0.0029101629
0.00011284804
-4.3407829e-07
0.0029101676
0.00011284548
-4.3162408e-07
0.0029101677
0.00011284184
-4.1894336e-07
0.0029101685
0.00011283853
-4.1482175e-07
0.0029101853
0.00011283492
-4.1250894e-07
0.0029101854
0.00011283016
-4.1033852e-07
0.0029101835
0.0001128262
-4.0230277e-07
0.0029101871
0.00011282316
-3.9024857e-07
0.0029101932
0.0001128199
-3.7451123e-07
0.0029101887
0.00011281571
-3.7595884e-07
0.0029102055
0.00011281
-3.6111018e-07
0.0029101967
0.00011280452
-3.5246916e-07
0.0029102138
0.00011280168
-3.8385259e-07
0.0029102672
0.00011280247
-5.0817253e-07
0.0029104359
0.00011281245
-8.326417e-07
0.0029108913
0.0001128433
-1.401471e-06
0.0029119978
0.000112921
-2.4118507e-06
0.0029143357
0.00011307811
-2.4818926e-06
0.0029186504
0.00011336096
-1.3435253e-06
0.0029244038
0.00011368117
1.0699355e-05
0.0029286372
0.00011389911
1.025322e-05
0.0029197396
0.00011279705
5.4486145e-05
0.002890616
0.00011000115
1.8110433e-05
0.0028048241
0.00010417417
8.2514188e-05
0.0026905709
9.656944e-05
2.7999884e-06
0.0025265107
8.171693e-05
3.6713164e-05
0.0024020001
4.9875916e-05
-3.5538854e-05
0.0023300327
-4.4278965e-06
0.0024182211
2.9832687e-05
-7.9587421e-05
0.0025738925
4.7727055e-05
-2.1665857e-05
0.0027720971
5.006198e-05
-5.6593969e-05
0.0029254525
5.1232915e-05
-1.7603891e-05
0.0030422556
5.4846099e-05
-1.6416086e-05
0.0030977548
5.8645404e-05
-4.9516317e-06
0.0031249571
6.0917728e-05
-1.9584489e-06
0.0031335228
6.1778237e-05
-1.2105142e-06
0.0031352872
6.2082302e-05
-1.3235898e-06
0.0031351523
6.2162474e-05
-1.497412e-06
0.0031348295
6.217868e-05
-1.650404e-06
0.0031346197
6.2181638e-05
-1.8006472e-06
0.0031346013
6.2188927e-05
-1.9588913e-06
0.0031347888
6.2205676e-05
-2.2144739e-06
0.0031352788
6.2237049e-05
-2.301267e-06
0.0031362288
6.2308336e-05
-2.5177571e-06
0.003137515
6.2458615e-05
-1.6972236e-06
0.0031385494
6.267408e-05
-1.80305e-06
0.0031363671
6.2668101e-05
-1.4100677e-06
0.0031240769
6.2079617e-05
-4.8915135e-06
0.0030842986
6.1046977e-05
-8.5128363e-06
0.0029888317
6.0202339e-05
-4.1489305e-05
0.0027947787
5.4065275e-05
-1.0228925e-05
0.0023812078
5.7072056e-05
1.8488688e-05
0.002369516
7.3825091e-05
-5.6710402e-06
0.0027534367
8.9834427e-05
5.93163e-07
0.002909093
0.00011163935
5.9281363e-07
0.0029642671
0.00011761195
6.6436747e-06
0.0029715869
0.0001187899
5.5283912e-06
0.0029577551
0.00011769867
6.6725235e-06
0.0029417732
0.00011610425
4.4343093e-06
0.0029280795
0.00011474219
3.3944725e-06
0.0029193279
0.00011392697
2.1411051e-06
0.0029141768
0.00011348389
1.5263678e-06
0.002911628
0.00011327524
1.1991063e-06
0.0029104874
0.0001131758
1.0720604e-06
0.0029100424
0.00011312977
1.0388744e-06
0.002909892
0.00011310642
1.0493078e-06
0.0029098488
0.00011309389
1.0587222e-06
0.0029098628
0.0001130862
1.0605589e-06
0.0029098831
0.00011308001
1.0542082e-06
0.0029099016
0.00011307383
1.0352221e-06
0.0029099154
0.00011306664
1.0156403e-06
0.002909928
0.0001130582
1.0193449e-06
0.002909919
0.00011304991
1.0053462e-06
0.0029099395
0.00011304448
9.7504823e-07
0.0029099634
0.00011303992
9.5109287e-07
0.0029099607
0.00011303302
9.5536234e-07
0.0029099539
0.00011302696
9.3179964e-07
0.0029099707
0.0001130216
8.9830745e-07
0.0029099906
0.00011301709
8.742963e-07
0.0029099904
0.00011301191
0.0029099925
0.00011300794
-2.7406096e-06
0.0027869518
0.00012309871
-2.759166e-06
0.0027868963
0.00012311261
-2.8591395e-06
0.0027869633
0.00012312725
-2.9175021e-06
0.0027868874
0.00012314164
-2.9334882e-06
0.0027868127
0.00012315718
-2.9887561e-06
0.0027868408
0.00012317523
-3.0816147e-06
0.0027868625
0.00012319381
-3.1286326e-06
0.0027867753
0.0001232112
-3.1296159e-06
0.00278669
0.00012322996
-3.2014585e-06
0.0027867482
0.00012325164
-3.233841e-06
0.0027866739
0.0001232739
-3.2534118e-06
0.0027866254
0.00012329581
-3.2555317e-06
0.0027865674
0.00012331786
-3.2413649e-06
0.0027865086
0.00012334008
-3.180286e-06
0.0027864228
0.00012336494
-3.1520096e-06
0.0027864667
0.00012339696
-3.1305924e-06
0.0027865796
0.00012344132
-3.1257279e-06
0.002786972
0.00012351054
-3.1275825e-06
0.0027879978
0.000123632
-3.0880217e-06
0.0027902912
0.00012384602
-2.7675147e-06
0.0027948035
0.00012420395
-2.1135687e-06
0.0028027279
0.00012469761
-5.2088868e-07
0.002815049
0.0001251315
8.2994368e-07
0.002831563
0.00012484132
1.9337796e-06
0.0028479949
0.00012248816
-3.2779448e-07
0.0028504195
0.00011610917
-3.5817206e-06
0.0028092454
0.0001031015
-4.2478731e-06
0.0026719489
8.2153928e-05
7.8396991e-06
4.6539221e-05
0.0023108892
1.9918128e-05
2.9945722e-05
0.0023391837
1.9997435e-05
4.752336e-05
0.002747176
1.3912403e-05
5.7960578e-05
0.0029369562
8.1610067e-06
6.6474334e-05
0.0030235756
5.3900727e-06
7.2501125e-05
0.0030543468
4.659885e-06
7.6054987e-05
0.0030610423
4.9373063e-06
7.7623837e-05
0.0030606481
5.2157511e-06
7.8126306e-05
0.0030591103
5.3891549e-06
7.8226586e-05
0.0030578289
5.4048537e-06
7.8214647e-05
0.0030570484
5.3195197e-06
7.8184849e-05
0.0030566892
5.149188e-06
7.8157748e-05
0.0030566139
4.9439248e-06
7.8138171e-05
0.0030566868
4.6468929e-06
7.8123426e-05
0.0030570031
4.3206067e-06
7.8094294e-05
0.0030573843
4.2816153e-06
7.799171e-05
0.0030573345
4.6913283e-06
7.7661011e-05
0.0030554521
5.2625613e-06
7.6877617e-05
0.0030475083
2.8030261e-06
7.507203e-05
0.0030251423
-1.16482e-08
7.2330434e-05
0.0029727398
-1.4870804e-05
6.9174618e-05
0.0028711371
-2.0906378e-05
6.6108252e-05
0.0027120244
-2.9031478e-05
6.0086084e-05
0.0025219315
-1.7513235e-05
4.3254604e-05
0.0023634483
0.0022981646
1.4354885e-05
0.002261369
1.7071693e-05
1.9723963e-05
0.0022403902
9.7968556e-06
1.1181912e-05
0.0022311494
4.5191116e-06
4.7216713e-06
0.0022243047
3.5916302e-06
3.253066e-06
0.0022226166
1.4457372e-06
2.4239026e-07
0.0022218819
1.3379468e-06
-6.0322046e-07
0.0022235013
5.6967395e-07
-2.1891117e-06
0.0022258998
4.8996312e-07
-2.8884347e-06
0.0022289356
4.336021e-07
-3.4694067e-06
0.0022323631
4.6430981e-07
-3.8918488e-06
0.0022361871
4.7901385e-07
-4.3029746e-06
0.0022403971
4.8889932e-07
-4.698974e-06
0.0022450001
4.8574918e-07
-5.0887009e-06
0.0022499928
4.7112839e-07
-5.4638298e-06
0.0022553619
4.4572727e-07
-5.8148405e-06
0.0022610847
4.1193276e-07
-6.134752e-06
0.0022671295
3.6995979e-07
-6.4147143e-06
0.0022734549
3.1830079e-07
-6.6437509e-06
0.0022800107
2.5778741e-07
-6.8135219e-06
0.0022867385
1.8719558e-07
-6.9150414e-06
0.0022935724
1.1034448e-07
-6.9442718e-06
0.002300444
2.901248e-08
-6.9006003e-06
0.0023072782
-5.7099228e-08
-6.7770976e-06
0.0023139968
-1.4510472e-07
-6.5734723e-06
0.0023205262
-2.3156243e-07
-6.297867e-06
0.0023267973
-3.1495947e-07
-5.9561122e-06
0.002332743
-3.9444533e-07
-5.5512435e-06
0.0023383007
-4.6826553e-07
-5.0894241e-06
0.0023434156
-5.3693915e-07
-4.5779389e-06
0.0023480415
-6.0265969e-07
-4.0232819e-06
0.0023521373
-6.646484e-07
-3.4311878e-06
0.0023556687
-7.2325784e-07
-2.8080847e-06
0.0023586109
-7.7941584e-07
-2.1628507e-06
0.0023609493
-8.3241261e-07
-1.5059291e-06
0.0023626724
-8.8081998e-07
-8.4227386e-07
0.002363779
-9.222296e-07
-1.8436559e-07
0.0023642557
-9.5902949e-07
4.8233081e-07
0.0023641661
-9.7976757e-07
1.0693242e-06
0.0023635129
-1.0023389e-06
1.6555959e-06
0.0023623052
-1.020477e-06
2.2281253e-06
0.0023605656
-1.0345363e-06
2.7741369e-06
0.0023583226
-1.0420535e-06
3.2850635e-06
0.0023556075
-1.0445641e-06
3.7596379e-06
0.0023524547
-1.0436998e-06
4.1965664e-06
0.0023489002
-1.039522e-06
4.5940136e-06
0.0023449822
-1.0320782e-06
4.9500914e-06
0.0023407402
-1.0213866e-06
5.2633714e-06
0.0023362151
-1.0077438e-06
5.5327811e-06
0.0023314493
-9.9295146e-07
5.7587809e-06
0.0023264861
-9.7804907e-07
5.9412978e-06
0.0023213664
-9.5847998e-07
6.0781275e-06
-9.3845943e-07
6.1719231e-06
2.4268054e-05
-0.0027889759
6.3391033e-06
2.3617949e-05
-0.0027900423
6.3991258e-06
2.2959771e-05
-0.002791061
6.4576721e-06
2.2290879e-05
-0.0027920626
6.5156972e-06
2.1607994e-05
-0.0027930243
6.5739393e-06
2.0907872e-05
-0.0027939236
6.6327524e-06
2.0187278e-05
-0.0027947856
6.6923264e-06
1.9443041e-05
-0.0027956346
6.752603e-06
1.867177e-05
-0.0027964469
6.8133922e-06
1.7870137e-05
-0.0027971996
6.8747436e-06
1.7035612e-05
-0.0027979171
6.9366333e-06
1.6166077e-05
-0.0027986255
6.9986723e-06
1.5260069e-05
-0.0027993081
7.0604376e-06
1.4316667e-05
-0.0028000039
7.1216371e-06
1.3335026e-05
-0.0028008094
7.181981e-06
1.2314646e-05
-0.002801947
7.2412948e-06
1.125569e-05
-0.0028038394
7.2998349e-06
1.015983e-05
-0.0028070769
7.3578581e-06
9.0308097e-06
-0.0028119131
7.41417e-06
7.8742853e-06
-0.0028167275
7.4633992e-06
6.6950604e-06
-0.0028151735
7.4923126e-06
5.4934245e-06
-0.0027930688
7.4735256e-06
4.2733494e-06
-0.0027304021
7.3574241e-06
3.0690288e-06
-0.0026165028
7.0898952e-06
1.9463374e-06
-0.0024729385
6.6891162e-06
-0.0023556061
6.3139823e-06
-1.9834871e-06
-0.0023607985
6.2173287e-06
-3.1228773e-06
-0.0024783861
6.5869209e-06
-4.3447806e-06
-0.0026222626
6.9817054e-06
-5.5839483e-06
-0.0027364062
7.2432403e-06
-6.8048002e-06
-0.0027992021
7.3541315e-06
-8.0020994e-06
-0.0028213449
7.3687703e-06
-9.1748113e-06
-0.0028228908
7.336034e-06
-1.0317857e-05
-0.0028180528
7.2827213e-06
-1.1425555e-05
-0.0028131911
7.2218377e-06
-1.2494197e-05
-0.0028099295
7.1586723e-06
-1.3522059e-05
-0.0028080136
7.0944687e-06
-1.4508534e-05
-0.0028068519
7.0290116e-06
-1.5454355e-05
-0.0028060201
6.9620211e-06
-1.6360073e-05
-0.0028052961
6.8937246e-06
-1.7226283e-05
-0.0028045839
6.8245732e-06
-1.8054472e-05
-0.0028038437
6.7547953e-06
-1.8846659e-05
-0.002803092
6.6846118e-06
-1.9605729e-05
-0.0028023022
6.614306e-06
-2.0334873e-05
-0.0028014497
6.5442798e-06
-2.1036759e-05
-0.0028005586
6.4748718e-06
-2.1714349e-05
-0.0027996522
6.4061947e-06
-2.2370798e-05
-0.002798706
6.3381441e-06
-2.3009293e-05
-0.0027976946
6.2705243e-06
-2.3632842e-05
-0.0027966404
6.2029898e-06
-2.4244122e-05
-0.0027955659
6.1349334e-06
-0.0027944403
6.0654775e-06
2.4156936e-05
-0.0027996165
5.7303498e-06
2.3587774e-05
-0.0028008067
5.8099179e-06
2.300184e-05
-0.0028019425
5.8880366e-06
2.2396628e-05
-0.002803055
5.9655735e-06
2.1769396e-05
-0.0028041218
6.0430536e-06
2.1117141e-05
-0.0028051208
6.1208019e-06
2.0436783e-05
-0.0028060772
6.1989675e-06
1.9725531e-05
-0.0028070162
6.277767e-06
1.8981132e-05
-0.0028079149
6.3571213e-06
1.8200793e-05
-0.0028087481
6.4364189e-06
1.7381481e-05
-0.0028095395
6.5151313e-06
1.6521196e-05
-0.0028103165
6.5929535e-06
1.561857e-05
-0.0028110629
6.6694286e-06
1.4672696e-05
-0.0028118185
6.7443255e-06
1.3683218e-05
-0.0028126801
6.8176767e-06
1.2650158e-05
-0.00281387
6.8894166e-06
1.1574014e-05
-0.002815813
6.959672e-06
1.0456677e-05
-0.0028191023
7.0286015e-06
9.3018959e-06
-0.0028239929
7.0948465e-06
8.1153817e-06
-0.0028288573
7.1529673e-06
6.9027467e-06
-0.0028273225
7.1901493e-06
5.6649981e-06
-0.0028051445
7.1802243e-06
4.4087124e-06
-0.0027422255
7.0756337e-06
3.1707591e-06
-0.0026278478
6.8231886e-06
2.0173505e-06
-0.0024836718
6.4391706e-06
-0.0023658362
6.0770004e-06
-2.0463519e-06
-0.002370669
5.886226e-06
-3.2135226e-06
-0.0024887414
6.2367747e-06
-4.4646395e-06
-0.0026332059
6.6091992e-06
-5.7350381e-06
-0.0027478079
6.8527338e-06
-6.9866081e-06
-0.0028108438
6.9507983e-06
-8.2123699e-06
-0.0028330526
6.955856e-06
-9.4100714e-06
-0.002834574
6.9143636e-06
-1.0573935e-05
-0.0028296806
6.8515804e-06
-1.1698315e-05
-0.002824758
6.7799973e-06
-1.2779111e-05
-0.0028214373
6.7050844e-06
-1.3814535e-05
-0.0028194629
6.6283311e-06
-1.4803915e-05
-0.0028182405
6.5497492e-06
-1.5746975e-05
-0.0028173446
6.4691884e-06
-1.6643947e-05
-0.0028165525
6.3865769e-06
-1.7495931e-05
-0.0028157666
6.3020645e-06
-1.8304203e-05
-0.0028149473
6.2160598e-06
-1.9070564e-05
-0.0028141106
6.1289076e-06
-1.9797764e-05
-0.0028132287
6.0410329e-06
-2.0487924e-05
-0.002812279
5.9529348e-06
-2.1143658e-05
-0.0028112863
5.8648799e-06
-2.1767737e-05
-0.0028102737
5.7769639e-06
-2.2362916e-05
-0.0028092158
5.6891781e-06
-2.2931997e-05
-0.0028080873
5.601428e-06
-2.3477497e-05
-0.0028069105
5.5134898e-06
-2.4001545e-05
-0.0028057075
5.4248964e-06
-0.0028044477
5.3348685e-06
2.3771577e-05
-0.0028088772
4.8794976e-06
2.329578e-05
-0.002810212
4.9802495e-06
2.2793639e-05
-0.002811488
5.0795943e-06
2.2263568e-05
-0.0028127355
5.1782074e-06
2.1703165e-05
-0.0028139319
5.2765039e-06
2.1110036e-05
-0.0028150552
5.374605e-06
2.0481708e-05
-0.0028161305
5.4725147e-06
1.9815558e-05
-0.0028171829
5.5700436e-06
1.9108708e-05
-0.0028181889
5.6670692e-06
1.8358797e-05
-0.0028191243
5.7636079e-06
1.7564382e-05
-0.0028200124
5.8594891e-06
1.6723497e-05
-0.00282088
5.9542452e-06
1.5835008e-05
-0.0028217114
6.0474073e-06
1.4897957e-05
-0.0028225459
6.1382874e-06
1.3911909e-05
-0.0028234809
6.2264883e-06
1.2877226e-05
-0.0028247404
6.3122018e-06
1.1794816e-05
-0.0028267505
6.3956105e-06
1.0666614e-05
-0.0028301061
6.4763245e-06
9.4962136e-06
-0.002835063
6.5528099e-06
8.2901043e-06
-0.002839988
6.6201344e-06
7.0541152e-06
-0.0028384829
6.6663266e-06
5.7911949e-06
-0.0028162477
6.6668992e-06
4.5101238e-06
-0.0027531036
6.5768356e-06
3.2487566e-06
-0.0026382901
6.3454999e-06
2.0719499e-06
-0.0024935529
5.9883205e-06
-0.0023752568
5.6520311e-06
-2.0933488e-06
-0.0023795592
5.374386e-06
-3.2756196e-06
-0.0024980643
5.6936413e-06
-4.5436398e-06
-0.0026430544
6.032417e-06
-5.8323929e-06
-0.0027580635
6.2486029e-06
-7.1030886e-06
-0.0028213064
6.3293011e-06
-8.3458479e-06
-0.0028435626
6.3224793e-06
-9.556916e-06
-0.002845048
6.2710885e-06
-1.0730194e-05
-0.0028400883
6.1985644e-06
-1.1859372e-05
-0.0028350935
6.1165459e-06
-1.2940355e-05
-0.0028316994
6.0299444e-06
-1.3971011e-05
-0.0028296499
5.9401752e-06
-1.4950557e-05
-0.0028283487
5.8473701e-06
-1.587862e-05
-0.0028273693
5.7514798e-06
-1.6755472e-05
-0.0028264872
5.6526286e-06
-1.7581627e-05
-0.0028256049
5.5510506e-06
-1.8358744e-05
-0.0028246825
5.4472696e-06
-1.9088469e-05
-0.0028237368
5.3422138e-06
-1.9772027e-05
-0.0028227419
5.236511e-06
-2.0411575e-05
-0.0028216733
5.1299626e-06
-2.1010027e-05
-0.0028205545
5.0224977e-06
-2.1569634e-05
-0.0028194099
4.9143733e-06
-2.2092557e-05
-0.0028182148
4.8057925e-06
-2.2581036e-05
-0.0028169438
4.6968269e-06
-2.3037027e-05
-0.0028156194
4.5874342e-06
-2.3461799e-05
-0.0028142644
4.4772386e-06
-0.0028128486
4.3655032e-06
2.3067305e-05
-0.0028163086
3.796839e-06
2.2695478e-05
-0.0028178118
3.9191594e-06
2.2287961e-05
-0.0028192519
4.040063e-06
2.1843608e-05
-0.0028206596
4.1601489e-06
2.1360681e-05
-0.0028220116
4.2797243e-06
2.0837144e-05
-0.0028232851
4.3987403e-06
2.027109e-05
-0.0028245056
4.517102e-06
1.9660449e-05
-0.0028256975
4.6347792e-06
1.900338e-05
-0.0028268364
4.7515959e-06
1.8297815e-05
-0.0028278985
4.8672218e-06
1.754188e-05
-0.0028289079
4.9813083e-06
1.673388e-05
-0.0028298904
5.0934994e-06
1.5872204e-05
-0.0028308289
5.2033337e-06
1.4956387e-05
-0.0028317638
5.3102867e-06
1.3986782e-05
-0.002832793
5.4139125e-06
1.2963629e-05
-0.0028341407
5.5139091e-06
1.1887846e-05
-0.0028362339
5.6102259e-06
1.0761628e-05
-0.0028396701
5.7028239e-06
9.5892233e-06
-0.0028447064
5.7904864e-06
8.3769624e-06
-0.002849704
5.868274e-06
7.1312055e-06
-0.0028482418
5.9249262e-06
5.8565708e-06
-0.0028259701
5.9383896e-06
4.5644008e-06
-0.0027626394
5.8681298e-06
3.2936771e-06
-0.0026474522
5.6684478e-06
2.1095958e-06
-0.0025022302
5.35003e-06
-0.0023835328
5.0510739e-06
-2.1197706e-06
-0.0023871359
4.6833253e-06
-3.3022885e-06
-0.0025060068
4.9590879e-06
-4.5703869e-06
-0.0026514384
5.2543158e-06
-5.8615351e-06
-0.0027667849
5.4365862e-06
-7.1359545e-06
-0.0028301911
5.4954557e-06
-8.3807023e-06
-0.0028524719
5.4748842e-06
-9.5901753e-06
-0.0028539077
5.4131846e-06
-1.0757358e-05
-0.0028488699
5.3306793e-06
-1.1875997e-05
-0.002843789
5.2375661e-06
-1.2942215e-05
-0.0028403063
5.1385916e-06
-1.3953839e-05
-0.0028381644
5.0353254e-06
-1.4909551e-05
-0.0028367654
4.9281029e-06
-1.5808695e-05
-0.0028356817
4.8170644e-06
-1.6651237e-05
-0.0028346888
4.70247e-06
-1.7437636e-05
-0.0028336885
4.5845396e-06
-1.8169167e-05
-0.00283264
4.463675e-06
-1.8847702e-05
-0.0028315602
4.3403102e-06
-1.9475507e-05
-0.0028304234
4.2147805e-06
-2.0054264e-05
-0.0028292065
4.0878348e-06
-2.058518e-05
-0.0028279348
3.9601678e-06
-2.106995e-05
-0.0028266322
3.831806e-06
-2.1510501e-05
-0.0028252736
3.7025478e-06
-2.1908283e-05
-0.0028238345
3.5726409e-06
-2.2265097e-05
-0.0028223374
3.4422513e-06
-2.2582365e-05
-0.0028208055
3.3110085e-06
-0.0028192093
3.1785848e-06
2.2000541e-05
-0.0028215081
2.5162734e-06
2.1739348e-05
-0.0028232029
2.6585572e-06
2.1435134e-05
-0.0028248327
2.7995802e-06
2.1086584e-05
-0.0028264259
2.9400209e-06
2.0691114e-05
-0.002827958
3.0798765e-06
2.0247566e-05
-0.0028294072
3.2185847e-06
1.9754917e-05
-0.0028307984
3.3561577e-06
1.9211695e-05
-0.0028321562
3.4928558e-06
1.8616358e-05
-0.0028334565
3.6284757e-06
1.796726e-05
-0.0028346738
3.762622e-06
1.7262632e-05
-0.0028358303
3.8948722e-06
1.6501136e-05
-0.0028369516
4.0245511e-06
1.5681901e-05
-0.0028380203
4.1507796e-06
1.4804028e-05
-0.002839077
4.2732023e-06
1.3867143e-05
-0.0028402203
4.3917123e-06
1.2871872e-05
-0.0028416751
4.5060074e-06
1.1819765e-05
-0.0028438701
4.6159741e-06
1.0713186e-05
-0.0028474036
4.7211892e-06
9.5560283e-06
-0.0028525325
4.8197763e-06
8.3541186e-06
-0.0028576129
4.9070613e-06
7.1151164e-06
-0.0028562067
4.9737948e-06
5.8457478e-06
-0.0028339233
5.0014862e-06
4.5602209e-06
-0.0027704542
4.9548596e-06
3.2990666e-06
-0.0026549699
4.7926542e-06
2.1223538e-06
-0.0025093536
4.5235283e-06
-0.0023903301
4.2729288e-06
-2.1170098e-06
-0.00239308
3.8223144e-06
-3.2829932e-06
-0.0025122334
4.0457128e-06
-4.5317319e-06
-0.002658006
4.284854e-06
-5.8062637e-06
-0.0027736051
4.4254646e-06
-7.0656379e-06
-0.0028371229
4.4589683e-06
-8.293918e-06
-0.0028594022
4.4237847e-06
-9.4829931e-06
-0.0028607755
4.3517473e-06
-1.0625385e-05
-0.0028556497
4.2595911e-06
-1.1715016e-05
-0.00285047
4.1560694e-06
-1.2747967e-05
-0.0028468826
4.0454177e-06
-1.3721816e-05
-0.0028446304
3.9291288e-06
-1.4635196e-05
-0.0028431146
3.8076857e-06
-1.5487749e-05
-0.002841906
3.6815145e-06
-1.6280074e-05
-0.0028407792
3.5511708e-06
-1.7012999e-05
-0.0028396356
3.4169198e-06
-1.7686884e-05
-0.0028384356
3.2791735e-06
-1.8302793e-05
-0.002837197
3.1391217e-06
-1.8862146e-05
-0.0028358946
2.9974396e-06
-1.9366607e-05
-0.0028345059
2.8541768e-06
-1.9818082e-05
-0.0028330562
2.7093559e-06
-2.0217924e-05
-0.0028315707
2.5633407e-06
-2.0566201e-05
-0.0028300255
2.4158108e-06
-2.0863928e-05
-0.0028283949
2.2667083e-06
-2.1105802e-05
-0.002826708
2.1170852e-06
-2.1317839e-05
-0.0028249577
1.9668233e-06
-0.002823167
1.8152162e-06
2.053406e-05
-0.0028241569
1.0844526e-06
2.0388051e-05
-0.0028260549
1.2432466e-06
2.0192754e-05
-0.0028279135
1.4008343e-06
1.9946493e-05
-0.0028297065
1.5578385e-06
1.9645974e-05
-0.00283144
1.7149781e-06
1.9291405e-05
-0.0028330864
1.8702609e-06
1.8883212e-05
-0.0028346718
2.0237164e-06
1.8419987e-05
-0.0028362187
2.1760097e-06
1.7899982e-05
-0.0028377013
2.3267365e-06
1.7321556e-05
-0.0028390944
2.4758314e-06
1.6683233e-05
-0.0028404206
2.6233156e-06
1.5983452e-05
-0.0028417042
2.7684536e-06
1.5222166e-05
-0.0028429274
2.9094752e-06
1.4399026e-05
-0.0028441292
3.0464189e-06
1.3513345e-05
-0.002845408
3.1791319e-06
1.256562e-05
-0.0028469896
3.3069298e-06
1.155701e-05
-0.0028493031
3.4291066e-06
1.048965e-05
-0.0028529477
3.5449975e-06
9.3673919e-06
-0.0028581807
3.6533055e-06
8.1966531e-06
-0.002863355
3.7501936e-06
6.9849538e-06
-0.002862018
3.8275097e-06
5.7412944e-06
-0.0028397495
3.8703136e-06
4.4834601e-06
-0.0027761979
3.8505702e-06
3.2527143e-06
-0.0026605088
3.7335046e-06
2.1032567e-06
-0.0025146113
3.527352e-06
-0.0023953523
3.3334666e-06
-2.0798541e-06
-0.0023971146
2.8076896e-06
-3.2068141e-06
-0.002516454
2.969692e-06
-4.4132873e-06
-0.0026624432
3.1409087e-06
-5.648713e-06
-0.0027781949
3.2324833e-06
-6.8705051e-06
-0.0028417653
3.2375753e-06
-8.0596291e-06
-0.0028640155
3.1865898e-06
-9.2063313e-06
-0.002865312
3.103725e-06
-1.0302339e-05
-0.0028600871
3.0023441e-06
-1.1341815e-05
-0.0028547976
2.8894074e-06
-1.2321045e-05
-0.0028510924
2.7685555e-06
-1.3237779e-05
-0.0028487143
2.6414202e-06
-1.4090707e-05
-0.0028470637
2.5086469e-06
-1.4879694e-05
-0.0028457109
2.3706137e-06
-1.5605333e-05
-0.0028444297
2.2279756e-06
-1.6267875e-05
-0.0028431229
2.0811746e-06
-1.6866928e-05
-0.0028417511
1.9295635e-06
-1.7404482e-05
-0.0028403325
1.7756883e-06
-1.7882501e-05
-0.0028388433
1.619933e-06
-1.8302514e-05
-0.0028372612
1.462569e-06
-1.8665784e-05
-0.0028356126
1.3040724e-06
-1.8973704e-05
-0.0028339233
1.1448333e-06
-1.9234036e-05
-0.0028321642
9.8451002e-07
-1.9421644e-05
-0.0028303412
8.2235515e-07
-1.9563463e-05
-0.0028284323
6.6058505e-07
-1.965226e-05
-0.0028264644
4.982868e-07
-0.0028244581
3.3489577e-07
1.8709954e-05
-0.0028240716
-4.0688388e-07
1.8669758e-05
-0.0028261829
-2.4131818e-07
1.8570792e-05
-0.0028282554
-7.7896644e-08
1.8414569e-05
-0.0028302681
8.3086792e-08
1.8206192e-05
-0.0028321966
2.4081553e-07
1.7945581e-05
-0.0028340642
4.0152577e-07
1.7628565e-05
-0.00283586
5.6440818e-07
1.7253147e-05
-0.0028376124
7.2661178e-07
1.6818142e-05
-0.0028392959
8.8763152e-07
1.6322636e-05
-0.0028408841
1.0471215e-06
1.5765009e-05
-0.0028423984
1.2049582e-06
1.5143583e-05
-0.0028438623
1.3608782e-06
1.4458122e-05
-0.0028452562
1.5119727e-06
1.3707877e-05
-0.0028466201
1.6594602e-06
1.2892521e-05
-0.0028480506
1.8022699e-06
1.2012182e-05
-0.0028497736
1.9396464e-06
1.1067895e-05
-0.0028522192
2.0710374e-06
1.0061935e-05
-0.0028559874
2.1957333e-06
8.9978313e-06
-0.0028613351
2.3120913e-06
7.8813591e-06
-0.0028666124
2.4168302e-06
6.7204376e-06
-0.002865359
2.504397e-06
5.526947e-06
-0.002843135
2.5632089e-06
4.321498e-06
-0.0027795623
2.5727977e-06
3.1451333e-06
-0.0026637737
2.506864e-06
2.0452474e-06
-0.0025177255
2.3714188e-06
-0.0023983347
2.2448174e-06
-2.0004867e-06
-0.0023989919
1.6553925e-06
-3.0666968e-06
-0.0025184044
1.7451343e-06
-4.2061447e-06
-0.0026644769
1.8426687e-06
-5.3750987e-06
-0.0027802749
1.8815219e-06
-6.5338852e-06
-0.0028438333
1.8571061e-06
-7.6603266e-06
-0.0028660239
1.7914012e-06
-8.7415297e-06
-0.0028672314
1.7002517e-06
-9.7691382e-06
-0.0028619009
1.5934084e-06
-1.0737183e-05
-0.0028564944
1.475067e-06
-1.1641953e-05
-0.0028526624
1.3480463e-06
-1.2481676e-05
-0.0028501476
1.213758e-06
-1.3255466e-05
-0.00284835
1.0731084e-06
-1.3962992e-05
-0.0028468396
9.2701792e-07
-1.4604897e-05
-0.0028453906
7.7624801e-07
-1.5185028e-05
-0.0028439052
6.229664e-07
-1.5708078e-05
-0.0028423482
4.7287233e-07
-1.6170117e-05
-0.002840741
3.1887171e-07
-1.656878e-05
-0.0028390576
1.6042579e-07
-1.6904062e-05
-0.002837276
-1.153857e-09
-1.7176723e-05
-0.0028354223
-1.6499589e-07
-1.7387365e-05
-0.0028335229
-3.3070685e-07
-1.753609e-05
-0.0028315495
-4.9836482e-07
-1.7624491e-05
-0.0028295116
-6.6806192e-07
-1.7652771e-05
-0.0028273882
-8.3888198e-07
-1.7619662e-05
-0.0028252057
-1.0103074e-06
-0.0028229832
-1.1816588e-06
1.6385158e-05
-0.0028211859
-1.9557412e-06
1.6481571e-05
-0.0028235144
-1.7876342e-06
1.6498216e-05
-0.0028257861
-1.6188153e-06
1.6454915e-05
-0.0028280181
-1.4501877e-06
1.6371113e-05
-0.0028301839
-1.2818413e-06
1.6221499e-05
-0.0028322603
-1.1129273e-06
1.6012573e-05
-0.0028342698
-9.4356184e-07
1.5743601e-05
-0.0028362326
-7.7439964e-07
1.5413284e-05
-0.0028381215
-6.0586451e-07
1.5020097e-05
-0.0028399094
-4.3838384e-07
1.4562022e-05
-0.0028416175
-2.7267744e-07
1.4036329e-05
-0.0028432694
-1.1001854e-07
1.3441995e-05
-0.0028448442
4.7939367e-08
1.2779203e-05
-0.0028463783
2.0147464e-07
1.2047953e-05
-0.0028479687
3.5002383e-07
1.1248521e-05
-0.002849841
4.9283921e-07
1.0381727e-05
-0.0028524246
6.2895411e-07
9.4492689e-06
-0.0028563189
7.5698212e-07
8.4549079e-06
-0.0028617813
8.7482435e-07
7.4060103e-06
-0.002867162
9.7942498e-07
6.3154599e-06
-0.0028659995
1.066108e-06
5.1966472e-06
-0.0028438495
1.1349407e-06
4.0696033e-06
-0.0027803229
1.1750443e-06
2.9735566e-06
-0.002664546
1.1650782e-06
1.947579e-06
-0.0025184852
1.1066966e-06
-0.0023990777
1.0535404e-06
-1.8964758e-06
-0.00239859
4.497877e-07
-2.8834386e-06
-0.0025179637
4.6553027e-07
-3.9360122e-06
-0.0026639791
4.8575233e-07
-5.0191873e-06
-0.0027797079
4.6824669e-07
-6.0940463e-06
-0.0028431868
4.1218258e-07
-7.1338789e-06
-0.0028652909
3.3123487e-07
-8.1244586e-06
-0.0028664033
2.3190977e-07
-9.0572527e-06
-0.0028609659
1.1735122e-07
-9.9270081e-06
-0.0028554399
-9.2906294e-09
-1.0731312e-05
-0.002851475
-1.4524826e-07
-1.1468961e-05
-0.0028488149
-2.8846073e-07
-1.2139483e-05
-0.0028468608
-4.3740195e-07
-1.2742804e-05
-0.002845184
-5.9092399e-07
-1.3279247e-05
-0.0028435597
-7.4802976e-07
-1.3749532e-05
-0.0028418914
-9.0775305e-07
-1.4154698e-05
-0.0028401429
-1.0694446e-06
-1.449612e-05
-0.0028383354
-1.2326096e-06
-1.477487e-05
-0.002836446
-1.3966887e-06
-1.499221e-05
-0.0028344539
-1.5613384e-06
-1.5149143e-05
-0.0028323865
-1.7263419e-06
-1.5246381e-05
-0.0028302717
-1.8913675e-06
-1.5285262e-05
-0.002828089
-2.0559544e-06
-1.5266613e-05
-0.0028258168
-2.2199742e-06
-1.5187758e-05
-0.0028234811
-2.3837801e-06
-1.5045599e-05
-0.0028211094
-2.5472344e-06
-0.0028186812
-2.7096598e-06
1.3607247e-05
-0.0028155019
-3.4349841e-06
1.3799893e-05
-0.0028180202
-3.2817739e-06
1.3931069e-05
-0.0028204852
-3.127141e-06
1.4002744e-05
-0.0028229173
-2.9712333e-06
1.4016607e-05
-0.0028252888
-2.8141166e-06
1.3972584e-05
-0.0028275718
-2.6559443e-06
1.3869712e-05
-0.0028297867
-2.4969378e-06
1.3707155e-05
-0.0028319541
-2.3373184e-06
1.348396e-05
-0.0028340455
-2.1772903e-06
1.3198852e-05
-0.002836033
-2.017283e-06
1.2850328e-05
-0.0028379364
-1.8579179e-06
1.243699e-05
-0.0028397782
-1.6998281e-06
1.1957719e-05
-0.0028415368
-1.5436475e-06
1.1411787e-05
-0.0028432479
-1.3901616e-06
1.0798825e-05
-0.0028450076
-1.240293e-06
1.0118862e-05
-0.0028470398
-1.0951836e-06
9.3721757e-06
-0.0028497723
-9.5610391e-07
8.5597286e-06
-0.002853803
-8.2446536e-07
7.6841353e-06
-0.0028593883
-7.0199751e-07
6.7503255e-06
-0.0028648786
-5.9090391e-07
5.7677289e-06
-0.0028638154
-4.9286663e-07
4.7517387e-06
-0.0028417633
-4.0751146e-07
3.7291863e-06
-0.0027783491
-3.3631907e-07
2.7400274e-06
-0.0026627018
-2.8821654e-07
1.8121852e-06
-0.0025167708
-2.6504179e-07
-0.0023974623
-2.3777864e-07
-1.7185681e-06
-0.0023957105
-9.1400682e-07
-2.5829602e-06
-0.0025149243
-9.8213338e-07
-3.5048415e-06
-0.0026607312
-1.0486501e-06
-4.4607589e-06
-0.0027762663
-1.1268622e-06
-5.411791e-06
-0.0028395994
-1.2128303e-06
-6.3304855e-06
-0.0028615934
-1.3033182e-06
-7.1998772e-06
-0.0028626072
-1.4019478e-06
-8.0106425e-06
-0.0028570659
-1.5116089e-06
-8.7579785e-06
-0.0028514237
-1.6319492e-06
-9.4398718e-06
-0.0028473291
-1.761258e-06
-1.0055517e-05
-0.0028445264
-1.8976938e-06
-1.0604782e-05
-0.0028424186
-2.0396626e-06
-1.1087919e-05
-0.002840579
-2.1857839e-06
-1.1505523e-05
-0.0028387843
-2.3348992e-06
-1.1858422e-05
-0.0028369393
-2.4860065e-06
-1.2147728e-05
-0.0028350088
-2.638261e-06
-1.2374924e-05
-0.0028330148
-2.7909695e-06
-1.2541539e-05
-0.0028309354
-2.9435325e-06
-1.2648866e-05
-0.0028287513
-3.0954083e-06
-1.2697819e-05
-0.0028264915
-3.2462575e-06
-1.2689204e-05
-0.0028241845
-3.3958743e-06
-1.2623677e-05
-0.0028218102
-3.544135e-06
-1.2500997e-05
-0.0028193492
-3.6907239e-06
-1.2320197e-05
-0.0028168306
-3.8353675e-06
-1.2079902e-05
-0.0028142825
-3.9780052e-06
-0.002811686
-4.1187032e-06
1.0473798e-05
-0.002807275
-4.7484795e-06
1.0758348e-05
-0.0028099435
-4.6235763e-06
1.0985575e-05
-0.0028125615
-4.4962987e-06
1.1156817e-05
-0.0028151538
-4.3666137e-06
1.1272299e-05
-0.002817691
-4.2346886e-06
1.1332298e-05
-0.0028201441
-4.1003519e-06
1.1336767e-05
-0.0028225325
-3.9634758e-06
1.1284963e-05
-0.0028248752
-3.8243514e-06
1.1175805e-05
-0.0028271429
-3.6833566e-06
1.1007955e-05
-0.002829306
-3.5409101e-06
1.0779823e-05
-0.0028313832
-3.3975057e-06
1.0489872e-05
-0.0028333956
-3.2537738e-06
1.0136811e-05
-0.0028353208
-3.1103976e-06
9.7196604e-06
-0.0028371935
-2.9683067e-06
9.237753e-06
-0.0028391082
-2.8285645e-06
8.6907082e-06
-0.0028412871
-2.6923143e-06
8.0785207e-06
-0.0028441559
-2.5609939e-06
7.4017764e-06
-0.0028483106
-2.4363482e-06
6.6620355e-06
-0.002854006
-2.3202015e-06
5.8635124e-06
-0.0028595949
-2.2137907e-06
5.0158769e-06
-0.0028586296
-2.1162197e-06
4.1369963e-06
-0.0028366985
-2.0219889e-06
3.2558295e-06
-0.0027734624
-1.9227299e-06
2.4080424e-06
-0.0026580673
-1.816176e-06
1.612157e-06
-0.0025124218
-1.7066134e-06
-0.0023933342
-1.5965645e-06
-1.4951126e-06
-0.0023903457
-2.2727916e-06
-2.2154146e-06
-0.0025092766
-2.4249045e-06
-2.9820146e-06
-0.0026547239
-2.5768058e-06
-3.7826305e-06
-0.002769951
-2.7107743e-06
-4.582332e-06
-0.0028330768
-2.8220477e-06
-5.352331e-06
-0.002854941
-2.9185201e-06
-6.073599e-06
-0.0028558601
-3.0135696e-06
-6.7365348e-06
-0.0028502278
-3.115263e-06
-7.3374638e-06
-0.002844484
-3.2256555e-06
-7.8750857e-06
-0.0028402744
-3.3439162e-06
-8.3491866e-06
-0.0028373447
-3.4682336e-06
-8.7600996e-06
-0.0028351006
-3.5966801e-06
-9.1082668e-06
-0.0028331178
-3.7275809e-06
-9.3943517e-06
-0.002831175
-3.8597377e-06
-9.6196018e-06
-0.002829178
-3.9923186e-06
-9.7855705e-06