/*--------------------------------*- C++ -*----------------------------------*\
| =========                 |                                                 |
| \\      /  F ield         | OpenFOAM: The Open Source CFD Toolbox           |
|  \\    /   O peration     | Version:  v2012                                 |
|   \\  /    A nd           | Website:  www.openfoam.com                      |
|    \\/     M anipulation  |                                                 |
\*---------------------------------------------------------------------------*/
FoamFile
{
    version     2.0;
    format      ascii;
    class       volVectorField;
    location    "200";
    object      U;
}
// * * * * * * * * * * * * * * * * * * * * * * * * * * * * * * * * * * * * * //

dimensions      [0 1 -1 0 0 0 0];


internalField   nonuniform List<vector> 
74500
(
(5.0000427 4.8628869e-05 -0.00083087385)
(5.0000443 5.0857189e-05 -0.00083128274)
(5.0000459 5.3163236e-05 -0.00083028467)
(5.0000476 5.5544256e-05 -0.0008278287)
(5.0000493 5.7998021e-05 -0.00082385071)
(5.0000511 6.0520833e-05 -0.0008182675)
(5.0000529 6.311205e-05 -0.0008109812)
(5.0000547 6.5769678e-05 -0.00080187898)
(5.0000566 6.8484973e-05 -0.00079083883)
(5.0000584 7.1251944e-05 -0.00077773102)
(5.0000603 7.4064154e-05 -0.00076242262)
(5.0000621 7.6907997e-05 -0.00074477977)
(5.000064 7.977335e-05 -0.00072467456)
(5.0000658 8.2647651e-05 -0.00070198477)
(5.0000676 8.551037e-05 -0.00067660392)
(5.0000693 8.8344724e-05 -0.00064844162)
(5.000071 9.1129042e-05 -0.00061742988)
(5.0000727 9.3836777e-05 -0.00058352657)
(5.0000742 9.6441988e-05 -0.00054670915)
(5.0000757 9.8921011e-05 -0.00050699549)
(5.0000771 0.00010126005 -0.00046435972)
(5.0000782 0.00010350348 -0.00041894256)
(5.0000789 0.00010565046 -0.00037050497)
(5.0000796 0.00010794781 -0.00032035568)
(5.0000795 0.00010933725 -0.00026708513)
(5.0000807 0.0001122066 -0.00021552515)
(5.0000808 0.00011128415 -0.00016221911)
(5.0000831 0.00011527333 -0.00011401217)
(5.0000841 0.00011422437 -6.7845703e-05)
(5.0000821 0.00011711481 -2.3090529e-05)
(5.0000608 0.00034260286 -2.4271067e-05)
(5.0000632 0.00057598356 -2.8452121e-05)
(5.0000613 0.0008208008 -2.955081e-05)
(5.0000617 0.0010915441 -3.2031883e-05)
(5.0000575 0.0013597956 -3.2887684e-05)
(5.0000512 0.0016354449 -3.2561179e-05)
(5.0000442 0.001898854 -3.3391976e-05)
(5.0000361 0.0021502045 -3.4378312e-05)
(5.0000275 0.0023814641 -3.664073e-05)
(5.0000176 0.0025884862 -3.9590428e-05)
(5.0000042 0.0027662794 -4.3046165e-05)
(4.9999921 0.0029092533 -4.6854752e-05)
(4.9999786 0.003011174 -5.1109784e-05)
(4.999962 0.0030656781 -5.5605715e-05)
(4.9999434 0.0030667541 -6.0364582e-05)
(4.9999233 0.0030083058 -6.5254406e-05)
(4.9999021 0.0028853785 -7.0110233e-05)
(4.9998801 0.0026944231 -7.4379388e-05)
(4.9998583 0.0024352832 -7.7107542e-05)
(4.9998374 0.0021101984 -7.6156451e-05)
(4.999819 0.0017263008 -6.869986e-05)
(4.9998026 0.0012887082 -5.5674353e-05)
(4.999795 0.00083676963 -3.5118117e-05)
(4.9997776 0.00034347345 -6.2735853e-05)
(4.9998157 0.00013361259 -0.00015518763)
(4.9998047 0.00013594414 -0.00039512487)
(4.999813 0.00015410611 -0.00062636261)
(4.9998204 0.00016408567 -0.00084218157)
(4.9998292 0.00016739777 -0.00104096)
(4.9998377 0.0001665572 -0.0012219925)
(4.9998464 0.00016286622 -0.0013828336)
(4.999855 0.0001580834 -0.0015236507)
(4.9998635 0.00015248078 -0.0016437664)
(4.9998721 0.0001466832 -0.0017443684)
(4.9998806 0.00014074307 -0.0018263657)
(4.9998888 0.00013482307 -0.0018912119)
(4.9998968 0.00012895346 -0.0019403497)
(4.9999044 0.00012317023 -0.0019753271)
(4.9999115 0.00011748966 -0.0019976965)
(4.9999182 0.00011193872 -0.0020089902)
(4.9999244 0.00010655636 -0.0020106759)
(4.9999301 0.00010135755 -0.0020041623)
(4.9999354 9.6347152e-05 -0.001990713)
(4.9999402 9.152962e-05 -0.0019714965)
(4.9999446 8.6904444e-05 -0.0019475605)
(4.9999486 8.2483661e-05 -0.0019198418)
(4.9999524 7.8273656e-05 -0.0018891452)
(4.9999557 7.4274319e-05 -0.0018561679)
(4.9999589 7.0482604e-05 -0.0018214739)
(4.9999617 6.6859071e-05 -0.0017854608)
(4.9999643 6.3394819e-05 -0.0017487273)
(4.9999668 6.0100446e-05 -0.0017116137)
(4.999969 5.6968771e-05 -0.0016743893)
(4.9997623 0.00016884446 -0.0051294587)
(4.9997452 0.00017816982 -0.0052431788)
(4.9997268 0.00018797764 -0.0053565758)
(4.9997068 0.00019829576 -0.0054688217)
(4.999685 0.00020915491 -0.0055788819)
(4.9996613 0.00022056787 -0.0056853566)
(4.9996355 0.00023257254 -0.005786748)
(4.9996072 0.00024520522 -0.0058812269)
(4.9995764 0.00025849388 -0.0059666533)
(4.9995427 0.00027240754 -0.006040552)
(4.999506 0.00028693239 -0.0061000434)
(4.999466 0.00030207905 -0.0061419399)
(4.9994226 0.00031782175 -0.0061626641)
(4.9993756 0.00033412877 -0.0061583117)
(4.9993249 0.00035095774 -0.0061245835)
(4.9992705 0.00036821307 -0.0060569683)
(4.9992127 0.00038579362 -0.0059507344)
(4.9991516 0.0004035971 -0.005801072)
(4.9990877 0.00042146078 -0.0056032057)
(4.9990216 0.00043916802 -0.0053525753)
(4.9989543 0.00045634998 -0.0050450358)
(4.998887 0.00047259158 -0.004677168)
(4.9988208 0.00048699247 -0.0042467362)
(4.9987567 0.000498566 -0.0037533791)
(4.9986957 0.00050466099 -0.0031989918)
(4.998638 0.00050169218 -0.0025863256)
(4.9985882 0.00048397639 -0.0019222491)
(4.9985425 0.00044411008 -0.0012000189)
(4.9985461 0.00041066787 -0.00049859776)
(4.9984413 0.001065953 -0.00023208746)
(4.9985201 0.0025573621 -0.00018275468)
(4.9986008 0.0039480022 -0.00021612131)
(4.9987205 0.0052912376 -0.00023633216)
(4.9988566 0.0064699186 -0.00024393089)
(4.9990077 0.0074662325 -0.00023877661)
(4.9991656 0.0082587775 -0.00022691846)
(4.9993248 0.0088407757 -0.00021213)
(4.9994798 0.0092145341 -0.00019628463)
(4.9996266 0.0093905865 -0.0001804301)
(4.999762 0.0093845105 -0.00016513871)
(4.999884 0.0092150011 -0.00015067904)
(4.9999922 0.0089009448 -0.00013719334)
(5.0000869 0.008461617 -0.0001248727)
(5.0001679 0.0079162501 -0.00011410562)
(5.0002371 0.0072821324 -0.0001045733)
(5.0002948 0.0065744667 -9.6665248e-05)
(5.0003424 0.0058082927 -9.0682848e-05)
(5.0003809 0.0049996541 -8.5403286e-05)
(5.0004099 0.0041660802 -8.0781472e-05)
(5.0004321 0.0033306256 -7.5139952e-05)
(5.0004433 0.0025158563 -6.9420537e-05)
(5.0004537 0.0017462493 -6.656875e-05)
(5.000466 0.0010323937 -6.5097891e-05)
(5.0005189 0.00034290018 -6.66182e-05)
(5.0014706 0.00058079268 -0.00010391023)
(5.003028 0.0008154547 -0.00014405436)
(5.0052593 0.0010814699 -0.00018845679)
(5.0081911 0.0013438903 -0.00023436927)
(5.0118454 0.0016250161 -0.00028544267)
(5.0161856 0.0019102861 -0.00033008474)
(5.0212341 0.0022073017 -0.00037053239)
(5.027006 0.002512784 -0.00040291151)
(5.0335465 0.0028261634 -0.00042849475)
(5.0408982 0.003144702 -0.00044776677)
(5.0490996 0.003465651 -0.00046112015)
(5.0581776 0.0037852209 -0.00046803783)
(5.0681448 0.0040977509 -0.00046711092)
(5.0789983 0.004395449 -0.00045794301)
(5.0907189 0.0046732289 -0.00044051676)
(5.103267 0.0049250979 -0.0004142345)
(5.1165823 0.0051437692 -0.00037929762)
(5.1305834 0.0053217523 -0.00033575458)
(5.1451676 0.0054519079 -0.00028375349)
(5.1602107 0.0055284925 -0.0002237144)
(5.1755761 0.0055466194 -0.00015689988)
(5.1910985 0.0055049097 -8.2851676e-05)
(5.2066343 0.0053999259 -8.4139079e-06)
(5.2219874 0.0052345482 6.9872834e-05)
(5.2370009 0.0050139893 0.00014724923)
(5.2515061 0.0047418616 0.00022133564)
(5.2653464 0.004421289 0.00029123418)
(5.2783764 0.004056445 0.00035674826)
(5.2904654 0.0036527475 0.00041796173)
(5.301498 0.003211824 0.0004755746)
(5.3113759 0.0027357019 0.00053163155)
(5.3200103 0.0022349789 0.00058737308)
(5.3273407 0.0017173566 0.00064170574)
(5.3333123 0.0011909838 0.00069317534)
(5.337915 0.00065925085 0.00074076298)
(5.3410999 0.00012932507 0.00078385752)
(5.3429224 -0.00042363456 0.00082328854)
(5.3432592 -0.00086776437 0.00084746681)
(5.3424759 -0.0013415784 0.00087507183)
(5.3403563 -0.0018021888 0.00089687661)
(5.3370056 -0.0022407458 0.00091427627)
(5.3324902 -0.0026512856 0.00092729536)
(5.3268695 -0.0030324117 0.00093596218)
(5.3202185 -0.0033828018 0.00094069244)
(5.3126181 -0.0037010502 0.00094175806)
(5.3041522 -0.0039860698 0.0009393268)
(5.2949086 -0.0042370521 0.00093392106)
(5.2849787 -0.0044532596 0.00092607303)
(5.2744563 -0.004634175 0.0009160482)
(5.2634372 -0.0047795261 0.00090411777)
(5.2520182 -0.0048892634 0.00089071785)
(5.2402969 -0.0049636483 0.0008761498)
(5.2130603 -0.0037667019 0.046011999)
(5.215016 -0.003802481 0.044801238)
(5.2168933 -0.0038373202 0.043577973)
(5.2186959 -0.0038718096 0.042337638)
(5.220427 -0.0039064115 0.041074752)
(5.2220892 -0.003941351 0.039782928)
(5.2236849 -0.0039767472 0.038455852)
(5.2252152 -0.0040126171 0.037087002)
(5.226681 -0.0040489209 0.035670251)
(5.2280825 -0.0040855715 0.034199821)
(5.2294194 -0.0041224035 0.032670576)
(5.2306907 -0.0041591872 0.03107799)
(5.2318952 -0.0041956883 0.029418494)
(5.2330311 -0.0042316377 0.02768931)
(5.2340963 -0.0042667261 0.025888661)
(5.2350882 -0.0043005835 0.024015521)
(5.2360045 -0.0043327493 0.022069745)
(5.2368426 -0.0043626476 0.020051724)
(5.2375998 -0.0043898146 0.017962589)
(5.2382728 -0.0044145895 0.015805104)
(5.2388573 -0.0044391816 0.013586502)
(5.2393472 -0.0044676253 0.011324765)
(5.2397351 -0.0045040603 0.0090547325)
(5.2400161 -0.0045545633 0.0068307092)
(5.2401926 -0.004636088 0.0047118031)
(5.2402796 -0.0047762689 0.002736405)
(5.2519964 -0.0047048186 0.0027826731)
(5.251902 -0.0045666534 0.0047920918)
(5.2517161 -0.0044854976 0.0069470287)
(5.2514226 -0.0044344753 0.0092077688)
(5.2510195 -0.0043967488 0.011514197)
(5.2505115 -0.0043664322 0.013810237)
(5.2499059 -0.004339539 0.016060299)
(5.2492086 -0.004312116 0.018245849)
(5.2484236 -0.0042820091 0.020359306)
(5.2475542 -0.0042489048 0.022397646)
(5.2466029 -0.0042132863 0.024359484)
(5.2455722 -0.0041757343 0.026244219)
(5.2444643 -0.0041367156 0.028051767)
(5.2432817 -0.0040966181 0.029782925)
(5.2420262 -0.0040557663 0.031439285)
(5.2406998 -0.0040144275 0.033023382)
(5.2393035 -0.0039728613 0.034538561)
(5.2378382 -0.0039312859 0.035989094)
(5.2363039 -0.003889903 0.037379917)
(5.2347006 -0.003848813 0.038716508)
(5.2330271 -0.0038080682 0.040004713)
(5.231282 -0.0037676472 0.041250653)
(5.2294629 -0.0037274819 0.04246034)
(5.2275668 -0.0036873578 0.043639785)
(5.2255899 -0.0036468657 0.04479409)
(5.2235285 -0.0036054646 0.045927674)
(5.2335127 -0.0034072122 0.045721827)
(5.2356896 -0.0034545342 0.044671809)
(5.2377759 -0.0035009721 0.043592345)
(5.2397758 -0.0035470155 0.04247942)
(5.2416934 -0.0035930289 0.041328286)
(5.2435318 -0.0036392014 0.040133375)
(5.2452935 -0.0036855623 0.038889034)
(5.2469802 -0.003732119 0.037589582)
(5.248593 -0.0037788205 0.036229483)
(5.2501322 -0.0038255447 0.034803576)
(5.2515975 -0.0038720838 0.033307171)
(5.2529883 -0.0039181965 0.031736226)
(5.2543035 -0.0039636227 0.030087627)
(5.2555413 -0.0040080606 0.028359103)
(5.2566998 -0.0040511997 0.026549208)
(5.2577767 -0.0040926428 0.024657421)
(5.2587699 -0.0041319053 0.022684)
(5.2596768 -0.0041683956 0.020629786)
(5.260495 -0.0042016235 0.018496399)
(5.2612217 -0.0042318591 0.016287122)
(5.2618527 -0.0042611905 0.014009907)
(5.2623823 -0.0042934324 0.011683761)
(5.2628034 -0.0043324093 0.0093450811)
(5.2631112 -0.004383814 0.0070516167)
(5.2633082 -0.0044643217 0.004863902)
(5.2634107 -0.0045990601 0.0028242472)
(5.2744242 -0.004458915 0.0028604829)
(5.2743131 -0.0043285074 0.0049260705)
(5.2741034 -0.0042492474 0.0071423106)
(5.2737793 -0.0041976386 0.009464029)
(5.2733371 -0.0041574893 0.011830061)
(5.2727821 -0.0041232708 0.014181461)
(5.2721211 -0.0040913874 0.016480841)
(5.2713599 -0.0040581894 0.018708856)
(5.2705023 -0.0040216827 0.020857143)
(5.2695512 -0.0039816398 0.022922183)
(5.2685089 -0.0039385658 0.024902119)
(5.2673779 -0.0038930592 0.026795875)
(5.2661603 -0.0038456253 0.028603021)
(5.2648584 -0.0037966595 0.030323863)
(5.263474 -0.0037464752 0.031959633)
(5.2620089 -0.0036953952 0.033512396)
(5.2604642 -0.0036436941 0.03498497)
(5.2588407 -0.0035916326 0.036381274)
(5.2571385 -0.0035394218 0.037705604)
(5.2553574 -0.0034871916 0.038962953)
(5.2534963 -0.0034349979 0.040158365)
(5.2515535 -0.0033828591 0.041297196)
(5.2495264 -0.0033307603 0.042384547)
(5.2474118 -0.0032785514 0.043425601)
(5.2452054 -0.0032259323 0.044424608)
(5.242903 -0.0031724409 0.045385244)
(5.2515912 -0.0029021361 0.044908204)
(5.2540298 -0.0029619631 0.044042308)
(5.2563672 -0.0030209404 0.043128901)
(5.2586078 -0.0030794689 0.042164804)
(5.260756 -0.0031378204 0.041146278)
(5.262815 -0.003196083 0.040068525)
(5.2647872 -0.003254256 0.038927082)
(5.2666743 -0.0033123042 0.037716977)
(5.2684774 -0.0033701634 0.0364336)
(5.2701965 -0.0034277048 0.035072228)
(5.2718313 -0.0034847183 0.033628811)
(5.2733812 -0.0035409122 0.032099699)
(5.2748449 -0.0035960072 0.030482246)
(5.2762205 -0.0036496556 0.028774655)
(5.2775062 -0.0037015316 0.026975881)
(5.2786997 -0.0037512405 0.025085825)
(5.2797989 -0.0037982704 0.023105052)
(5.2808013 -0.0038420001 0.021034892)
(5.2817046 -0.0038819123 0.018877405)
(5.2825062 -0.0039182092 0.016636365)
(5.283202 -0.0039527461 0.014320504)
(5.2837866 -0.0039889875 0.011949494)
(5.2842529 -0.0040302587 0.0095617482)
(5.2845958 -0.0040820027 0.0072168358)
(5.2848199 -0.0041591804 0.004977107)
(5.2849405 -0.0042844878 0.0028905898)
(5.2948638 -0.0040761662 0.0029136107)
(5.2947325 -0.0039565373 0.0050154821)
(5.2944927 -0.0038823474 0.0072728865)
(5.2941282 -0.003830547 0.0096351172)
(5.2936344 -0.0037881879 0.012038221)
(5.293016 -0.0037498998 0.014422375)
(5.2922801 -0.0037126144 0.016748271)
(5.2914322 -0.0036731088 0.018995875)
(5.2904763 -0.0036296739 0.021156137)
(5.289415 -0.0035821484 0.023225051)
(5.2882508 -0.0035310645 0.02520031)
(5.2869859 -0.003477054 0.027080417)
(5.2856226 -0.0034206334 0.028864618)
(5.2841633 -0.0033622146 0.030552893)
(5.2826098 -0.0033021232 0.032146051)
(5.2809642 -0.0032407115 0.033645675)
(5.2792278 -0.003178299 0.0350542)
(5.2774015 -0.0031151974 0.036375087)
(5.2754856 -0.0030516031 0.037612111)
(5.2734803 -0.0029876653 0.038769744)
(5.2713848 -0.0029234471 0.039852132)
(5.2691976 -0.0028589854 0.040863865)
(5.2669163 -0.0027943079 0.041808726)
(5.2645378 -0.0027293803 0.042691069)
(5.262058 -0.0026639752 0.043514102)
(5.2594725 -0.0025977326 0.044280544)
(5.2664466 -0.0022612117 0.043492046)
(5.2691901 -0.0023338189 0.042829197)
(5.2718239 -0.0024056101 0.042100756)
(5.274352 -0.0024768944 0.041304633)
(5.2767786 -0.0025478665 0.040438044)
(5.2791065 -0.0026185001 0.039497167)
(5.2813378 -0.0026887268 0.03847886)
(5.2834735 -0.0027585321 0.037379056)
(5.2855145 -0.0028278501 0.03619394)
(5.2874602 -0.0028965256 0.034919393)
(5.2893098 -0.00296434 0.033551823)
(5.2910625 -0.0030309881 0.032087943)
(5.2927166 -0.0030961007 0.030525483)
(5.29427 -0.0031593222 0.028863141)
(5.2957206 -0.0032203324 0.027100267)
(5.2970661 -0.0032787027 0.025237)
(5.298304 -0.0033338948 0.023274238)
(5.2994319 -0.0033852844 0.021213663)
(5.3004475 -0.00343233 0.019057771)
(5.301348 -0.0034751107 0.016810837)
(5.3021296 -0.0035152134 0.014482184)
(5.3027864 -0.0035555908 0.012092235)
(5.3033113 -0.003598981 0.0096807324)
(5.3037001 -0.0036504022 0.0073081345)
(5.3039571 -0.0037210076 0.0050396557)
(5.3041001 -0.0038344999 0.0029283813)
(5.3125577 -0.0035601002 0.0029340027)
(5.3124023 -0.0034535607 0.0050482597)
(5.3121267 -0.0033865563 0.0073200526)
(5.311711 -0.0033361993 0.0096951348)
(5.3111509 -0.0032919098 0.012107227)
(5.3104508 -0.0032493834 0.014494788)
(5.3096179 -0.0032064158 0.016818084)
(5.3086584 -0.0031603386 0.019056354)
(5.3075758 -0.0031096566 0.021199956)
(5.3063732 -0.0030543737 0.023244399)
(5.3050529 -0.0029950573 0.025186995)
(5.3036174 -0.0029323357 0.02702592)
(5.3020694 -0.0028667597 0.028760146)
(5.3004113 -0.0027987767 0.030389421)
(5.2986455 -0.0027286881 0.031914338)
(5.2967744 -0.002656866 0.03333584)
(5.2947996 -0.0025837222 0.034656049)
(5.2927225 -0.0025095701 0.035878173)
(5.2905442 -0.0024346462 0.037005616)
(5.2882654 -0.002359111 0.038042201)
(5.285886 -0.0022830354 0.038991382)
(5.283405 -0.0022063819 0.039856765)
(5.2808209 -0.0021292704 0.040640618)
(5.2781311 -0.0020518087 0.041346452)
(5.2753318 -0.0019738343 0.041976539)
(5.2724194 -0.0018950672 0.042532417)
(5.2773046 -0.0015023547 0.041391671)
(5.2803961 -0.0015869038 0.040945441)
(5.2833719 -0.0016707081 0.040416836)
(5.286235 -0.0017540138 0.039805021)
(5.2889884 -0.0018369826 0.039108163)
(5.2916345 -0.0019193372 0.038322732)
(5.2941744 -0.0020009385 0.037447613)
(5.2966086 -0.0020819134 0.036479683)
(5.2989367 -0.0021621768 0.035415777)
(5.3011573 -0.0022415599 0.034252389)
(5.3032691 -0.0023198594 0.032986287)
(5.3052701 -0.0023967223 0.031614191)
(5.3071586 -0.0024716389 0.030134051)
(5.3089319 -0.0025442516 0.028545454)
(5.3105873 -0.0026142932 0.026847746)
(5.3121222 -0.002681288 0.025041282)
(5.3135338 -0.0027446752 0.02312718)
(5.3148193 -0.0028038126 0.021107398)
(5.3159762 -0.0028581252 0.018984786)
(5.3170015 -0.0029075635 0.016764026)
(5.3178913 -0.0029533208 0.01445481)
(5.3186395 -0.0029976746 0.012078214)
(5.3192387 -0.0030426528 0.0096747676)
(5.3196841 -0.0030922294 0.0073067346)
(5.3199804 -0.0031553848 0.0050398328)
(5.3201492 -0.0032535121 0.002929324)
(5.326791 -0.0029158975 0.0029136496)
(5.3266074 -0.0028273348 0.005012114)
(5.326288 -0.002767903 0.0072644609)
(5.3258099 -0.00271987 0.0096161376)
(5.3251681 -0.0026743553 0.012001448)
(5.3243671 -0.0026281278 0.014357114)
(5.3234145 -0.0025795833 0.016642357)
(5.3223168 -0.0025268689 0.018835987)
(5.3210779 -0.0024690151 0.020928166)
(5.3197013 -0.0024061437 0.022914099)
(5.3181896 -0.0023388354 0.024790748)
(5.3165457 -0.0022677429 0.026556069)
(5.3147728 -0.0021934454 0.028208891)
(5.3128739 -0.0021164509 0.029748754)
(5.3108517 -0.0020369792 0.031176527)
(5.3087097 -0.0019553063 0.032491756)
(5.3064497 -0.0018721382 0.033696677)
(5.3040739 -0.0017878613 0.034794803)
(5.3015844 -0.001702648 0.035789236)
(5.2989833 -0.0016166615 0.036683151)
(5.2962714 -0.0015300368 0.037479442)
(5.2934491 -0.0014424877 0.038180965)
(5.2905155 -0.0013540865 0.038787029)
(5.287469 -0.0012654387 0.039301874)
(5.2843073 -0.0011763381 0.03972665)
(5.281028 -0.0010865544 0.040061536)
(5.2835248 -0.00065223917 0.038538982)
(5.2870008 -0.00074625645 0.038315667)
(5.2903584 -0.00083971437 0.037995438)
(5.2935989 -0.00093282058 0.037578943)
(5.2967223 -0.0010260312 0.037066315)
(5.2997297 -0.0011180295 0.03645202)
(5.3026229 -0.0012090437 0.035738932)
(5.3054006 -0.0012994688 0.034924187)
(5.3080612 -0.0013891113 0.034004945)
(5.3106022 -0.0014778125 0.032978461)
(5.3130208 -0.001565463 0.031841718)
(5.315314 -0.0016516284 0.030590904)
(5.3174796 -0.0017352035 0.029223181)
(5.319514 -0.0018161885 0.027740433)
(5.3214139 -0.0018944174 0.026141273)
(5.3231756 -0.0019693297 0.024426249)
(5.3247959 -0.0020403259 0.022596569)
(5.3262715 -0.0021067569 0.020654388)
(5.3275995 -0.0021680285 0.018602849)
(5.3287762 -0.0022239627 0.016446865)
(5.3297971 -0.0022752776 0.014196323)
(5.3306558 -0.0023232878 0.01187221)
(5.3313441 -0.0023691149 0.0095156939)
(5.3318575 -0.0024152788 0.0071908021)
(5.332202 -0.0024704863 0.0049628882)
(5.3324021 -0.0025487276 0.0028855693)
(5.3369074 -0.0021533928 0.0028436421)
(5.3366899 -0.0020859275 0.0048899126)
(5.3363183 -0.0020357724 0.0070829655)
(5.3357671 -0.0019917432 0.0093699568)
(5.3350286 -0.0019459092 0.011686171)
(5.3341079 -0.0018962569 0.013967476)
(5.3330134 -0.0018420841 0.016171827)
(5.3317521 -0.0017830129 0.018279032)
(5.3303288 -0.0017185152 0.020279156)
(5.3287475 -0.0016488191 0.022167245)
(5.3270114 -0.0015744995 0.023940006)
(5.3251243 -0.0014961936 0.025595277)
(5.3230898 -0.0014145045 0.0271317)
(5.3209118 -0.0013300196 0.028548824)
(5.3185948 -0.0012429826 0.029848837)
(5.3161412 -0.0011527866 0.031028193)
(5.3135534 -0.0010613327 0.032090816)
(5.3108361 -0.00096910164 0.033040416)
(5.3079935 -0.00087603912 0.033879646)
(5.3050286 -0.00078223309 0.034610959)
(5.3019443 -0.00068787356 0.035237165)
(5.2987427 -0.00059293834 0.035760716)
(5.2954195 -0.00049635633 0.036179433)
(5.2919746 -0.0004000005 0.036499017)
(5.2884111 -0.0003034186 0.03671726)
(5.2847288 -0.00020641617 0.036832159)
(5.2846456 0.0002301705 0.035019575)
(5.2885157 0.00013209093 0.034998809)
(5.2922685 3.5548663e-05 0.034865264)
(5.2959066 -5.9171163e-05 0.034623768)
(5.2994316 -0.0001514551 0.034277429)
(5.3028408 -0.00024649054 0.033844768)
(5.3061288 -0.00034286915 0.033307116)
(5.3092929 -0.00043882063 0.032660854)
(5.3123297 -0.00053416142 0.031903537)
(5.3152352 -0.00062887508 0.031033108)
(5.3180034 -0.0007230491 0.030048206)
(5.3206268 -0.00081595618 0.028946567)
(5.3231036 -0.00090526451 0.027722938)
(5.325434 -0.00099237028 0.026379617)
(5.3276119 -0.0010765777 0.02491491)
(5.329633 -0.0011573361 0.023328816)
(5.3314932 -0.0012340755 0.021622763)
(5.3331884 -0.0013062525 0.019798943)
(5.3347148 -0.0013734021 0.017860729)
(5.336068 -0.0014353613 0.015813179)
(5.337242 -0.0014926513 0.013666534)
(5.3382289 -0.0015436759 0.011439669)
(5.3390209 -0.0015891479 0.009175985)
(5.3396124 -0.0016308018 0.0069386563)
(5.3400126 -0.0016749359 0.0047919825)
(5.340248 -0.0017310819 0.00278769)
(5.3423555 -0.0012875341 0.0027175829)
(5.3421006 -0.001243312 0.0046686457)
(5.34167 -0.0012056979 0.0067569664)
(5.3410354 -0.0011667695 0.0089323338)
(5.3401866 -0.0011220635 0.011130757)
(5.339129 -0.0010703978 0.013290587)
(5.3378692 -0.0010101324 0.015369148)
(5.336416 -0.000945545 0.017348145)
(5.3347773 -0.00087621335 0.01921628)
(5.3329585 -0.000802225 0.02096784)
(5.330964 -0.00072389786 0.02259927)
(5.3287986 -0.00064164999 0.024108344)
(5.3264666 -0.00055596817 0.025493748)
(5.3239733 -0.00046736485 0.026756215)
(5.3213235 -0.00037725583 0.027894259)
(5.3185252 -0.00029015735 0.028928678)
(5.3155875 -0.00020082871 0.029852099)
(5.3125135 -0.00010798676 0.030657401)
(5.3093051 -1.2612565e-05 0.031343702)
(5.3059642 8.4557306e-05 0.031911971)
(5.3024931 0.00018308833 0.032364013)
(5.2988937 0.00028290487 0.032700137)
(5.2951707 0.00038411694 0.032919632)
(5.2913283 0.00048586875 0.033027403)
(5.2873665 0.00058783577 0.033024664)
(5.2832865 0.0006898725 0.032910205)
(5.2805693 0.0011509514 0.03054735)
(5.2848521 0.0010511077 0.030765918)
(5.2890204 0.00095111682 0.030870294)
(5.2930722 0.00085093333 0.030863459)
(5.2970047 0.00075063135 0.030746405)
(5.3008146 0.00065007621 0.030519675)
(5.3044972 0.00054924144 0.030183111)
(5.3080475 0.00044830104 0.029735613)
(5.3114605 0.00034747846 0.0291753)
(5.3147309 0.0002471459 0.028499496)
(5.3178539 0.00014787046 0.027704687)
(5.3208241 5.0506824e-05 0.026785635)
(5.3236337 -4.4008322e-05 0.025737719)
(5.3262748 -0.00013588999 0.024562008)
(5.3287432 -0.00022463278 0.023258435)
(5.3310336 -0.00030956102 0.021827039)
(5.3331414 -0.00038975303 0.020268778)
(5.3350625 -0.00046412035 0.018585832)
(5.3367934 -0.00053139765 0.01678217)
(5.338331 -0.00059039265 0.014865557)
(5.3396702 -0.00064005556 0.012849496)
(5.3408014 -0.00068827195 0.010766816)
(5.3417103 -0.00073192629 0.0086452591)
(5.3423903 -0.00076798864 0.0065425238)
(5.3428524 -0.00079896644 0.0045224926)
(5.3431273 -0.00083102806 0.0026325283)
(5.342782 -0.00040292984 0.0025528848)
(5.3424884 -0.0003805553 0.0043813916)
(5.3419946 -0.00035399328 0.0063329478)
(5.3412678 -0.0003184487 0.0083614238)
(5.3402966 -0.00027277572 0.010403166)
(5.3390875 -0.00021776803 0.012397818)
(5.3376526 -0.00015426397 0.014306005)
(5.3360033 -8.3661819e-05 0.016107864)
(5.3341458 -7.1287689e-06 0.017793909)
(5.3320856 7.4332113e-05 0.019359272)
(5.3298276 0.00015985471 0.020801163)
(5.3273773 0.00024868975 0.022117958)
(5.3247408 0.00034017058 0.023309022)
(5.3219245 0.00043370797 0.024374664)
(5.3189354 0.00052874454 0.025315876)
(5.3157813 0.00062491328 0.026134101)
(5.3124691 0.00072197803 0.026831584)
(5.3090053 0.00081965641 0.02741108)
(5.3053962 0.00091764245 0.02787512)
(5.3016474 0.0010157148 0.028225778)
(5.2977647 0.0011137234 0.028464582)
(5.2937534 0.0012115553 0.028592543)
(5.2896189 0.0013091411 0.028609875)
(5.2853663 0.0014063891 0.028516315)
(5.2809994 0.0015032468 0.028310297)
(5.2765222 0.0015996722 0.027988947)
(5.2711854 0.0020299567 0.02524832)
(5.2758415 0.0019389917 0.025666193)
(5.2803927 0.0018472397 0.02596908)
(5.2848339 0.0017547515 0.02616011)
(5.2891599 0.0016615904 0.026241094)
(5.2933646 0.0015678116 0.02621273)
(5.2974418 0.0014734851 0.026074928)
(5.3013847 0.0013787601 0.025826601)
(5.305186 0.0012838165 0.025466106)
(5.3088386 0.0011888995 0.024991131)
(5.3123347 0.0010943354 0.024399062)
(5.3156665 0.0010005029 0.023687145)
(5.3188257 0.00090782197 0.022852852)
(5.3218044 0.00081676629 0.021894367)
(5.324595 0.00072786704 0.020810627)
(5.3271904 0.00064174645 0.019601313)
(5.3295838 0.00055906895 0.018267055)
(5.3317689 0.0004805576 0.016809522)
(5.3337402 0.00040697282 0.015231646)
(5.3354915 0.00033920752 0.013538553)
(5.337015 0.00027845494 0.011740031)
(5.3382999 0.00022620449 0.00985653)
(5.3393329 0.00018431975 0.0079261533)
(5.3401069 0.00015448897 0.0060065084)
(5.340633 0.00013731232 0.0041589774)
(5.340947 0.00012984985 0.0024260476)
(5.3377527 0.00064055272 0.0022883281)
(5.3374194 0.00063396666 0.0039175108)
(5.3368609 0.00064306946 0.0056519077)
(5.3360395 0.00066827683 0.0074525831)
(5.3349441 0.00070752172 0.0092608889)
(5.3335821 0.00075848351 0.011021131)
(5.3319669 0.00081869394 0.012696341)
(5.3301107 0.00088598923 0.014266547)
(5.3280222 0.00095885922 0.015721988)
(5.3257087 0.0010363071 0.017057729)
(5.323177 0.0011175473 0.018271061)
(5.3204344 0.0012018738 0.019360565)
(5.3174887 0.0012885925 0.020325926)
(5.3143482 0.0013770665 0.021167824)
(5.3110218 0.0014667234 0.021887701)
(5.3075185 0.0015570646 0.022487651)
(5.3038471 0.0016476719 0.022970175)
(5.3000166 0.0017381928 0.023338012)
(5.2960354 0.0018283359 0.023593748)
(5.2919121 0.0019178834 0.023739606)
(5.2876547 0.0020066502 0.023777221)
(5.2832712 0.002094522 0.023707633)
(5.2787691 0.0021814205 0.023530849)
(5.2741556 0.0022672756 0.023246102)
(5.2694374 0.0023520129 0.022851361)
(5.2646211 0.0024355758 0.022343499)
(5.2569084 0.0028105744 0.019296573)
(5.2618603 0.0027364605 0.019886128)
(5.2667223 0.0026607529 0.020365796)
(5.2714864 0.0025835227 0.0207388)
(5.2761446 0.0025048162 0.021007211)
(5.2806885 0.0024247125 0.02117193)
(5.2851094 0.0023432767 0.021233016)
(5.2893982 0.0022606151 0.021189467)
(5.2935455 0.0021768882 0.021039624)
(5.2975416 0.0020923308 0.020781176)
(5.3013767 0.0020072197 0.020411495)
(5.3050407 0.0019219134 0.019927759)
(5.3085236 0.0018368391 0.019327267)
(5.3118152 0.0017525122 0.018607677)
(5.3149059 0.0016695108 0.017767279)
(5.3177862 0.0015884655 0.016805177)
(5.3204475 0.0015100569 0.015721424)
(5.3228813 0.0014349741 0.01451721)
(5.3250801 0.001363985 0.013195017)
(5.3270357 0.0012981691 0.011759571)
(5.3287383 0.0012393606 0.010220292)
(5.330175 0.0011903157 0.0085964691)
(5.3313316 0.0011541808 0.0069237872)
(5.3321998 0.0011340017 0.0052558356)
(5.3327903 0.0011330305 0.0036482195)
(5.3331416 0.0011535799 0.0021355313)
(5.327164 0.0016621057 0.001969316)
(5.326797 0.0016280418 0.0033527383)
(5.3261749 0.0016205534 0.0048200876)
(5.3252612 0.0016350778 0.006342689)
(5.3240456 0.0016675413 0.0078672126)
(5.3225369 0.001714056 0.009342285)
(5.3207498 0.0017707984 0.010733646)
(5.3186983 0.0018343783 0.012023029)
(5.3163935 0.0019026401 0.013201479)
(5.3138444 0.0019744088 0.014264625)
(5.31106 0.0020489231 0.015210254)
(5.3080495 0.0021255083 0.016037511)
(5.3048229 0.0022034934 0.016746649)
(5.3013907 0.0022822503 0.017338857)
(5.2977639 0.0023611843 0.01781615)
(5.2939537 0.0024397965 0.018181109)
(5.2899712 0.0025176686 0.018436555)
(5.2858276 0.0025944607 0.01858542)
(5.2815339 0.0026699143 0.018630362)
(5.2771009 0.0027438126 0.018573743)
(5.2725389 0.0028160134 0.018417193)
(5.2678584 0.0028864392 0.018161742)
(5.2630692 0.0029550309 0.017807243)
(5.2581809 0.0030217291 0.017352816)
(5.2532027 0.0030864952 0.016796311)
(5.2481441 0.0031492631 0.016134626)
(5.2384408 0.0034465996 0.012889589)
(5.2435728 0.0033968649 0.013612674)
(5.2486347 0.0033447666 0.014236476)
(5.2536161 0.003290359 0.014764107)
(5.2585066 0.003233668 0.015197612)
(5.2632954 0.0031747128 0.015537916)
(5.2679717 0.00311353 0.01578518)
(5.272524 0.0030501737 0.015938459)
(5.2769406 0.002984753 0.015996039)
(5.2812097 0.0029174704 0.015955557)
(5.2853191 0.0028485735 0.015814255)
(5.2892566 0.0027783681 0.015569156)
(5.2930097 0.0027072631 0.015217223)
(5.296566 0.0026357498 0.01475567)
(5.2999135 0.002564393 0.014182204)
(5.3030406 0.0024938182 0.013495369)
(5.305936 0.0024246676 0.012694586)
(5.3085894 0.0023575979 0.011780383)
(5.3109909 0.0022933402 0.010754646)
(5.3131301 0.0022331489 0.0096213445)
(5.3149951 0.0021794666 0.0083888015)
(5.3165706 0.0021363025 0.0070740329)
(5.3178413 0.0021081951 0.0057096855)
(5.3187979 0.0021001759 0.0043444613)
(5.319451 0.0021168138 0.0030314877)
(5.319831 0.0021636016 0.0017914411)
(5.3111976 0.0026513351 0.0016049181)
(5.3108078 0.0025932973 0.0026868029)
(5.3101246 0.0025662082 0.0038316395)
(5.3091287 0.0025668093 0.0050292409)
(5.3078084 0.002589922 0.0062227575)
(5.3061729 0.0026289619 0.007366926)
(5.3042381 0.0026786237 0.0084309863)
(5.3020205 0.0027343276 0.0093994691)
(5.2995333 0.0027933669 0.010264809)
(5.296788 0.0028544331 0.011023519)
(5.2937956 0.0029168277 0.011674077)
(5.2905678 0.00297993 0.012216322)
(5.2871169 0.0030431212 0.012651167)
(5.2834558 0.0031058001 0.012980382)
(5.2795977 0.0031674388 0.013206468)
(5.2755561 0.0032275768 0.013332425)
(5.2713447 0.0032858241 0.013361433)
(5.2669767 0.0033419129 0.013296543)
(5.2624655 0.0033956162 0.013140549)
(5.2578238 0.0034467786 0.012895818)
(5.2530644 0.0034953309 0.012564064)
(5.2481999 0.0035412315 0.012146222)
(5.2432421 0.0035844896 0.011642069)
(5.2382026 0.003625125 0.011050696)
(5.233093 0.0036631322 0.010370128)
(5.2279249 0.0036984757 0.0095973949)
(5.2167328 0.0039019007 0.0062970153)