/*--------------------------------*- C++ -*----------------------------------*\
| =========                 |                                                 |
| \\      /  F ield         | OpenFOAM: The Open Source CFD Toolbox           |
|  \\    /   O peration     | Version:  v2012                                 |
|   \\  /    A nd           | Website:  www.openfoam.com                      |
|    \\/     M anipulation  |                                                 |
\*---------------------------------------------------------------------------*/
FoamFile
{
    version     2.0;
    format      ascii;
    class       volVectorField;
    location    "0";
    object      U;
}
// * * * * * * * * * * * * * * * * * * * * * * * * * * * * * * * * * * * * * //

dimensions      [0 1 -1 0 0 0 0];


internalField   nonuniform List<vector> 
14958
(
(4.9955936 -0.02237564 -0.045971923)
(4.9892175 -0.0098882311 -0.051381242)
(4.9856825 0.017935412 -0.0081772703)
(4.9780875 0.027020116 -0.0028977834)
(4.9865925 0.065559894 0.0034670414)
(4.9733805 0.10226358 0.0064394826)
(4.9919564 0.095386791 0.036558179)
(4.9828436 0.062457452 0.019296389)
(4.9943229 0.042562977 0.022632316)
(4.9931524 0.013769375 0.014214012)
(4.9932118 -0.0023914509 0.014238132)
(4.9945319 -0.031892253 0.022850437)
(4.9831326 -0.052745705 0.019284519)
(4.9922732 -0.086610095 0.036656564)
(4.9740177 -0.095893361 0.0074905154)
(4.9869934 -0.062190248 0.0041799316)
(4.9785113 -0.025916671 -0.0022278394)
(4.9861103 -0.016931071 -0.0062557591)
(4.9736702 -0.0084756586 0.014143084)
(4.9904356 -0.029636394 0.012786744)
(4.9813617 -0.012937844 -0.0036724861)
(4.9961276 -0.017391757 -0.011905252)
(4.9924906 -0.0084737303 -0.030473564)
(4.9939561 -0.010239131 -0.035609895)
(4.9908552 -0.010297414 -0.040783159)
(4.9892087 -0.012066253 -0.041434467)
(4.9879765 -0.013358776 -0.04195555)
(4.9874736 -0.014209397 -0.042786036)
(4.9872472 -0.014583562 -0.04416659)
(4.9871716 -0.014694982 -0.045746925)
(4.987157 -0.014646383 -0.047280772)
(4.9871763 -0.014501671 -0.048571364)
(4.9872236 -0.014298341 -0.049506082)
(4.9873061 -0.014006151 -0.049983624)
(4.9874187 -0.013630938 -0.049874329)
(4.9875902 -0.013106471 -0.049003773)
(4.9879135 -0.012331223 -0.047152409)
(4.9885219 -0.011097394 -0.04401974)
(4.9898882 -0.0093349502 -0.039798125)
(4.9914715 -0.0064446284 -0.033700197)
(4.993331 -0.0048333058 -0.02657557)
(4.9941004 -0.003601611 -0.019464426)
(4.9981118 -0.013279618 -0.031224108)
(4.9839869 -0.008230072 -0.034454374)
(4.9913216 -0.026648869 -0.045895497)
(4.9740742 -0.0048224265 -0.040952616)
(4.9842474 -0.014081281 -0.011385445)
(4.9768508 -0.021932615 -0.0039245647)
(4.9850098 -0.050882838 -0.0098796885)
(4.9741751 -0.074349492 -0.014029144)
(4.9887725 -0.057278838 -0.041339457)
(4.9775435 -0.021644139 -0.026527125)
(4.9896617 0.0013103325 -0.029320156)
(4.9877914 0.033082736 -0.021368971)
(4.9869757 0.049799701 -0.020859427)
(4.9865706 0.075205851 -0.029363962)
(4.9735667 0.08806492 -0.026384761)
(4.9852912 0.11306117 -0.041172877)
(4.9670758 0.11247446 -0.010090716)
(4.9821792 0.070080605 -0.0067179981)
(4.9735419 0.028310423 -0.0010977205)
(4.9808371 0.0192001 -0.0043579353)
(4.967184 0.010259159 -0.034836422)
(4.9848647 0.032802369 -0.043531219)
(4.9769681 0.014974111 -0.034588336)
(4.9897916 0.020910847 -0.034631106)
(4.9836778 0.010861766 -0.030457324)
(4.9844556 0.013746924 -0.044222959)
(4.9833387 0.015194191 -0.052678476)
(4.9823839 0.017596713 -0.058970933)
(4.9816497 0.018800043 -0.062946193)
(4.9816585 0.019464497 -0.065516648)
(4.9818742 0.019708289 -0.066587235)
(4.9821794 0.019738583 -0.066561445)
(4.9824934 0.019652272 -0.065728033)
(4.9828027 0.019505931 -0.064310153)
(4.9831324 0.019300336 -0.062440656)
(4.9834569 0.019059562 -0.06022053)
(4.9837871 0.018753344 -0.057779228)
(4.9841603 0.018318821 -0.055298342)
(4.9846726 0.017623646 -0.053022311)
(4.9854507 0.016483329 -0.051289328)
(4.9869631 0.014960761 -0.04974635)
(4.9888563 0.012834767 -0.048079292)
(4.9922158 0.012447146 -0.042051268)
(4.9910267 0.010435256 -0.036038757)
(4.9947047 0.019110132 -0.016773027)
(4.9802249 0.014521174 -0.0078833393)
(4.9894797 0.030868992 0.0092540535)
(4.9728116 0.0097522195 0.011238339)
(4.9758899 -0.025383714 -0.065021309)
(4.9999936 -0.022224665 -0.066005139)
(4.9941111 -0.02924088 -0.068186358)
(5.0176093 -0.031810197 -0.066589404)
(5.0144863 -0.034461272 -0.056681993)
(5.0157113 -0.034006912 -0.0487316)
(5.0102935 -0.032852229 -0.043455522)
(5.0061598 -0.031086333 -0.043726904)
(5.0027824 -0.030120868 -0.046815745)
(5.0006657 -0.029561905 -0.050741982)
(4.9991576 -0.029221103 -0.054474363)
(4.9979929 -0.028998919 -0.057753416)
(4.9969669 -0.028807708 -0.060540549)
(4.995992 -0.028647377 -0.062879106)
(4.9950289 -0.02850756 -0.064785213)
(4.9940821 -0.028319691 -0.066294773)
(4.9931536 -0.028155851 -0.067447245)
(4.9923183 -0.028082143 -0.068230633)
(4.9917649 -0.02818385 -0.068529273)
(4.9917675 -0.028656401 -0.06793359)
(4.9929634 -0.029459817 -0.065282333)
(4.9946675 -0.031327964 -0.058332908)
(4.9961052 -0.032721629 -0.045514443)
(4.9930736 -0.032683596 -0.02753249)
(4.9985385 -0.028696189 -0.0030739033)
(4.9764496 -0.028267785 0.020289147)
(4.9814193 -0.016719975 0.036140976)
(4.956733 -0.022472886 0.046086176)
(4.974459 -0.007963026 0.042144601)
(4.9652148 -0.0014775188 0.017736213)
(4.9943697 0.0058700252 0.018567822)
(5.0086092 0.0069057498 0.0096608518)
(5.0034951 0.0086775015 0.0016320021)
(4.9703498 0.014642904 -0.0071752907)
(4.9019114 0.025473104 -0.015350975)
(4.79438 0.035289852 -0.025569314)
(4.6889323 0.017957706 -0.025757781)
(5.2322168 -7.001028e-05 0.010227603)
(5.2389482 0.0004951431 0.0047694273)
(5.2424473 0.0010645256 -0.0011907276)
(5.2423313 0.001642285 -0.0076416889)
(5.2382241 0.0022205714 -0.014438174)
(5.229879 0.0027758944 -0.021261381)
(5.2173151 0.0032632475 -0.027584389)
(5.2009743 0.0036042762 -0.032680944)
(5.1818249 0.0037297863 -0.035828365)
(5.1613135 0.0039285626 -0.036958317)
(5.1408465 0.0039213428 -0.03619957)
(5.121517 0.0037187659 -0.033867796)
(5.1041484 0.003365341 -0.030515537)
(5.0890623 0.0029378 -0.02685965)
(5.0762563 0.0027294396 -0.023425396)
(5.0655271 0.0025071236 -0.020351734)
(5.0565571 0.0023067068 -0.017690506)
(5.0491667 0.0022056994 -0.015509942)
(5.0434734 0.0022993743 -0.013850974)
(5.0403344 0.0028146218 -0.012743584)
(5.040045 0.0044013771 -0.0099675633)
(5.0442794 0.0073393146 -0.010323405)
(5.0492521 0.0087618475 -0.0093969242)
(5.0497897 0.0046532028 -0.020261275)
(5.0421777 0.00090365362 -0.030206509)
(5.0212608 -0.0074956527 -0.047794612)
(5.0196772 -0.013290337 -0.057499752)
(5.03425 -0.013436968 -0.061164798)
(5.0417286 -0.012683208 -0.065233164)
(5.0557392 -0.014109874 -0.06469083)
(5.0584655 -0.015229775 -0.057489624)
(5.058635 -0.014950198 -0.050996594)
(5.0550688 -0.013831014 -0.047215429)
(5.0508094 -0.012780297 -0.047166905)
(5.0470485 -0.012173438 -0.049445339)
(5.0441291 -0.011803034 -0.052619164)
(5.0418239 -0.011552981 -0.055887046)
(5.0399121 -0.011365303 -0.058913862)
(5.0382051 -0.011204648 -0.061584163)
(5.0366001 -0.011060951 -0.063871891)
(5.0350385 -0.010930769 -0.06576426)
(5.0334845 -0.010813134 -0.067253797)
(5.0319764 -0.010712401 -0.068316012)
(5.0306102 -0.010635254 -0.068870385)
(5.029566 -0.010614045 -0.068716432)
(5.0290814 -0.010705194 -0.06741442)
(5.0293079 -0.011073319 -0.064054047)
(5.029922 -0.012068556 -0.056977317)
(5.0297025 -0.013414809 -0.044470686)
(5.0229559 -0.013176178 -0.026357235)
(5.0174923 -0.012626382 -0.0012792137)
(5.0032959 -0.01161364 0.021038152)
(4.9994971 -0.0097815166 0.031578186)
(4.9854642 -0.011278695 0.037559038)
(4.9950647 -0.0058522716 0.038456323)
(5.0004532 0.0038685821 0.021996354)
(4.9808707 0.015613416 0.003564039)
(4.9335986 0.01488388 -0.02684605)
(4.8517942 0.025735996 -0.050541582)
(4.7306926 0.038019985 -0.075254298)
(4.6089843 0.032435887 -0.057173726)
(6.2979094 -0.11946463 -0.072454519)
(6.1843247 -0.060280686 -0.026426848)
(6.2017432 0.052254788 0.091907467)
(6.3525649 -0.0060384507 0.16673451)
(6.5028615 -0.07406457 0.37790523)
(6.3763826 -0.012519185 0.063825189)
(6.1545385 0.087408241 -0.087049209)
(6.099155 0.258656 0.013039951)
(6.0765518 0.044554651 0.076345643)
(5.9154551 0.23895035 -0.099996002)
(6.3495035 0.30518092 -0.49792603)
(6.3085822 0.40849761 -0.39390441)
(6.192212 0.44711976 -0.096178043)
(6.1722924 0.53827287 0.055429944)
(6.1524062 0.63534381 0.21028791)
(6.133455 0.73597005 0.29604217)
(6.1058105 0.8240606 0.34497725)
(6.0746228 0.94438467 0.3547195)
(6.0850654 1.1475722 0.37811748)
(6.0239267 0.95873592 0.38301033)
(5.7218787 1.2956963 0.55031843)
(5.8099111 1.4578945 -0.21894245)
(5.556213 1.6219461 0.14831462)
(5.4121341 2.1170305 0.18175181)
(5.1471045 2.4187186 0.3847024)
(3.9410913 2.8146231 -0.42636307)
(3.1865398 2.9492125 -0.95761599)
(2.6697872 2.9412177 -1.2327722)
(1.8381515 2.3815579 -1.3257604)
(3.0319767 0.10676044 -0.92054549)
(3.3418241 0.16612325 -0.30208044)
(3.4507942 -0.018307412 -0.13324484)
(3.792209 0.082231373 -0.38942976)
(3.5585512 0.10807083 -0.36362663)
(3.4926364 0.032464225 0.030360235)
(3.4558317 0.16371707 -0.6102432)
(3.3058817 0.53191462 -0.38191298)
(3.8432675 0.16741662 -0.069724964)
(4.1138973 0.14130824 -0.11584515)
(4.3371946 0.096375156 -0.12873763)
(4.5368977 0.07382288 -0.15407828)
(4.6930885 0.031263673 -0.15829991)
(4.7943541 0.033716129 -0.17492037)
(4.8531704 0.02419979 -0.14528753)
(4.9013215 0.018749139 -0.12383925)
(4.9364895 0.012413308 -0.10809771)
(4.9597121 0.0084968024 -0.096264262)
(4.9757317 0.0063595098 -0.087105824)
(4.9883987 0.0056581107 -0.079861679)
(5.0022118 0.0071085534 -0.073564875)
(5.022428 0.010563111 -0.068068018)
(5.0448083 0.0089883287 -0.063857168)
(5.0570146 0.0027943641 -0.060580896)
(5.0569682 -0.00089717934 -0.057959884)
(5.0544733 -0.00075323017 -0.060732824)
(5.0521693 -0.00061757615 -0.063259753)
(5.0499613 -0.00048625263 -0.065474789)
(5.04779 -0.00035691849 -0.067332448)
(5.0456194 -0.00022914942 -0.068789649)
(5.0434547 -0.00010279767 -0.06977771)
(5.0413394 1.7810005e-05 -0.070163367)
(5.0393707 0.00013009991 -0.069712899)
(5.0376697 0.00021016952 -0.068041362)
(5.0362146 0.00019771336 -0.064478238)
(5.034657 9.8390502e-06 -0.057971382)
(5.0318788 -0.00037039222 -0.047280229)
(5.0230265 -0.00057433603 -0.033868267)
(5.0109416 -0.00044539026 -0.017179371)
(5.0011817 6.6312935e-05 0.001640584)
(4.9990809 0.0011670557 0.017581081)
(4.9934215 0.00066529398 0.024508642)
(4.9690236 0.012902924 -0.0047402568)
(4.9188259 0.014932849 -0.047967312)
(4.8518399 0.024327958 -0.08269449)
(4.7585411 0.03403036 -0.11049845)
(4.6400383 0.028782207 -0.091820094)
(4.6903296 0.068214907 -0.018434007)
(4.7990072 0.097045707 -0.022647377)
(4.8879711 0.070609645 -0.013933617)
(4.9482291 0.043730532 -0.00662259)
(4.9774431 0.024470149 0.0012342559)
(4.9886637 0.019040249 0.001086162)
(4.9853383 0.011141912 0.0076022256)
(4.9712007 0.0090762305 0.019651155)
(4.9509597 0.021481859 0.015340161)
(4.9712861 0.02753413 0.004339164)
(4.9555042 0.031384776 0.0056454473)
(4.9781568 0.031294336 0.0060181891)
(4.9803212 0.037767682 0.0093643198)
(4.9826587 0.044741656 0.0088980028)
(4.9851367 0.050014148 0.0069632741)
(4.970483 0.042789478 0.0071281507)
(4.9864861 0.027706639 0.0031524511)
(4.9687463 0.015911796 0.01369055)
(4.982669 0.013751335 0.017684404)
(4.9771198 0.0087623575 0.015944138)
(5.0176733 0.0039455516 0.014495891)
(5.0403453 -0.0001048174 0.0046615581)
(5.0482583 0.00069475175 0.0019156046)
(5.0473614 -0.00055433884 -0.0026765136)
(5.0455513 0.0038854967 -0.0023072939)
(5.0519842 0.0060268246 -0.002741848)
(5.0643793 0.0081685517 -0.0018941526)
(5.082133 0.0091370225 -0.0015569343)
(5.1029049 0.010207718 -0.0015260736)
(5.1262747 0.010996932 -0.0013532337)
(5.151653 0.011409452 -0.0011237285)
(5.1781425 0.011394542 -0.00085225282)
(5.2047215 0.010926689 -0.00054580724)
(5.2303169 0.010004267 -0.0002106494)
(5.2320975 0.030797255 -0.00035886175)
(5.2058259 0.033593091 -0.00064281196)
(5.1785158 0.035035089 -0.00097338586)
(5.1513181 0.035079687 -0.0012630046)
(5.125294 0.033806631 -0.0015077759)
(5.1013973 0.031374559 -0.0017103504)
(5.0804805 0.028006907 -0.0018721185)
(5.0638991 0.024198422 -0.0021666088)
(5.052582 0.018267271 -0.0026633284)
(5.0477378 0.011753303 -0.0036440256)
(5.0451066 0.0038640895 -0.0032758619)
(5.0394971 0.0056868253 -0.0012089894)
(5.0287936 0.0075228227 -0.00077900646)
(5.0082081 0.016026281 0.0053214865)
(4.9958091 0.033499208 0.0012339348)
(5.0103667 0.022686586 -0.0020106368)
(5.0217904 0.016903119 -0.0011668234)
(5.0318129 0.016413659 -0.0036996012)
(5.0382609 0.024069341 -0.0059264356)
(5.0455246 0.033143819 -0.0041746311)
(5.0581789 0.041772926 -0.0027053358)
(5.0760472 0.048914449 -0.0021783304)
(5.0979888 0.054776507 -0.0018835395)
(5.1231149 0.059020988 -0.0016303132)
(5.1505712 0.061270566 -0.0013554339)
(5.1793415 0.061217599 -0.0010507572)
(5.2082342 0.058707194 -0.00073679433)
(5.2359845 0.05381487 -0.00039296762)
(5.2426293 0.079966722 -0.00031071674)
(5.2123187 0.087425085 -0.00071764601)
(5.1806861 0.091211909 -0.0011131308)
(5.1492418 0.091223487 -0.001464403)
(5.1193898 0.087750111 -0.0017640874)
(5.0922844 0.081342406 -0.0020331463)
(5.0688046 0.072667973 -0.0023105826)
(5.0497802 0.062528094 -0.0029871296)
(5.0366973 0.051524206 -0.004738196)
(5.0297266 0.040605929 -0.0056178703)
(5.0211664 0.032100224 -0.0017874079)
(5.0076758 0.030061878 0.00092061048)
(4.9970467 0.034302425 -0.0002777758)
(4.9934801 0.043563529 -0.00094472455)
(4.9862905 0.046695272 0.00066896198)
(4.992328 0.042515694 0.00016245883)
(5.0027802 0.042126995 0.0010559535)
(5.0138727 0.047124474 -0.0019683829)
(5.019051 0.057277026 -0.0067134538)
(5.0246351 0.071595171 -0.0047038587)
(5.0381309 0.085901256 -0.0033320582)
(5.0581312 0.099953002 -0.0029965509)
(5.0835419 0.1122564 -0.0026483593)
(5.1135518 0.12137176 -0.0022580867)
(5.1470557 0.12641448 -0.0018162483)
(5.1826742 0.12645853 -0.0013167696)
(5.2185933 0.12096502 -0.0007864936)
(5.2528684 0.11021088 -0.00026901759)
(5.2677132 0.14551952 -0.00019850676)
(5.2276935 0.16077362 -0.0010637367)
(5.1855052 0.16885615 -0.0019021564)
(5.143756 0.16888701 -0.002753515)
(5.1050274 0.16202164 -0.0035825182)
(5.0708313 0.14985698 -0.0043134374)
(5.0425697 0.1326368 -0.004742578)
(5.0216732 0.1125307 -0.0049136444)
(5.0082764 0.092575235 -0.0047726268)
(5.0045575 0.074095917 -0.008060406)
(5.003704 0.059549778 -0.002905548)
(4.9974447 0.051648404 0.00082504193)
(4.991622 0.048495595 -4.075358e-05)
(4.9896782 0.048586545 0.0005178409)
(4.9878541 0.046397322 0.0011972434)
(4.9869219 0.049821518 5.5940951e-05)
(4.9884875 0.056833286 0.00051245029)
(4.9888343 0.069132123 -0.0047288032)
(4.9847146 0.089848106 -0.0083636632)
(4.9855713 0.11574757 -0.0075756669)
(4.9974372 0.14568925 -0.0087365713)
(5.0200812 0.17569113 -0.0091484547)
(5.0533049 0.19933514 -0.0083123897)
(5.0935933 0.21285415 -0.0063394058)
(5.1392408 0.22136743 -0.0045181551)
(5.1896965 0.22105694 -0.0030070651)
(5.2407213 0.20836673 -0.0015613514)
(5.2886017 0.18639013 0.00032655743)
(5.3176135 0.23307885 0.00082845734)
(5.2600948 0.26521684 -0.0021864362)
(5.1963526 0.28714966 -0.0044795855)
(5.133651 0.28597159 -0.0065201433)
(5.0766601 0.28119382 -0.011280337)
(5.0247376 0.26926325 -0.015339475)
(4.9857485 0.23382234 -0.015745089)
(4.9647326 0.18699469 -0.013984626)
(4.9580993 0.14269629 -0.011765415)
(4.9599054 0.10597002 -0.009429681)
(4.9683132 0.07706739 -0.0086598422)
(4.9753387 0.057425273 -0.00013521633)
(4.978681 0.046621327 -0.00015055872)
(4.9832343 0.040098247 0.0012563709)
(4.9767705 0.029602182 0.00014678284)
(4.9673978 0.039586332 -0.00075165509)
(4.9614398 0.056228765 -0.0011726879)
(4.9503533 0.084689464 -0.011694007)
(4.935539 0.12077337 -0.0098078719)
(4.9258249 0.16727218 -0.012905265)
(4.9218612 0.22742209 -0.01546831)
(4.9353083 0.30107262 -0.019168485)
(4.97914 0.36498872 -0.021762773)
(5.0448072 0.36767302 -0.012280005)
(5.1183253 0.36714275 -0.0086721387)
(5.2055401 0.37670187 -0.0067671326)
(5.2907711 0.32824802 -0.00043962571)
(5.3580619 0.28482645 0.0018090834)
(5.4160207 0.34070492 0.0045070203)
(5.3252594 0.39541351 0.0063447392)
(5.2379678 0.47789134 -0.011757459)
(5.1081634 0.44497527 0.046201023)
(4.988015 0.46765139 -0.019629799)
(4.9042769 0.49130373 -0.028649609)
(4.8601376 0.34872341 -0.014062686)
(4.8696145 0.24864967 -0.012285707)
(4.8916558 0.17916531 -0.013205604)
(4.9147648 0.12762312 -0.010273738)
(4.9353439 0.087550629 -0.0085740727)
(4.9490513 0.053722291 -0.0015227457)
(4.955546 0.033949238 -0.0017203466)
(4.9602595 0.022498234 -0.0012153557)
(4.9632383 0.015538396 -0.0015232535)
(4.9537578 0.032001059 -0.0020872794)
(4.9450375 0.047026529 -0.0015506935)
(4.9274848 0.081366331 -0.0057666842)
(4.898178 0.12286029 -0.011249421)
(4.8558626 0.17124765 -0.013806967)
(4.811743 0.23176262 -0.00010012829)
(4.7788104 0.32837884 0.014961761)
(4.6504396 0.27153308 0.0013281715)
(4.722757 0.15767693 -0.0017004485)
(4.8223869 0.14230222 -0.017125343)
(4.8877643 0.10446419 -0.012543987)
(4.9307706 0.066760243 -0.0060705366)
(4.9538311 0.037205603 -0.0012580542)
(4.9654668 0.027825623 -0.0013024698)
(4.9675728 0.0099315848 0.0025412129)
(4.9401562 0.002901262 -0.0008820056)
(4.9269266 0.017936457 -0.01137367)
(4.9304812 0.02741652 -0.01179577)
(4.9485679 0.032690197 -0.0076533105)
(4.9600857 0.041273011 -0.0043535404)
(4.9645543 0.047804489 -0.0047605104)
(4.9654803 0.048528627 -0.0067715202)
(4.9620145 0.042102494 -0.0074895573)
(4.9608115 0.035474461 -0.0078659638)
(4.978527 0.031510308 -0.0031729415)
(5.0025653 0.024049653 0.0091791835)
(5.0213749 0.0096944338 0.032607438)
(5.0210752 0.014826686 0.038096837)
(5.0383204 0.016103568 0.032835433)
(5.0442937 0.015900949 0.024043745)
(5.060606 0.018009256 0.01074842)
(5.0644521 0.018970727 -0.0093445664)
(5.0681806 0.019145306 -0.024912323)
(5.0641939 0.018081641 -0.036058681)
(5.0602087 0.01640357 -0.043069603)
(5.0571106 0.015585383 -0.046595574)
(5.0550716 0.01510002 -0.048418703)
(5.0537858 0.014768404 -0.049369417)
(5.0530033 0.014520371 -0.049778196)
(5.0525473 0.014321949 -0.04976138)
(5.0523225 0.014158805 -0.049341952)
(5.0522921 0.014019454 -0.048514743)
(5.0524575 0.01391322 -0.047272311)
(5.0528533 0.013839208 -0.045609691)
(5.053569 0.013814364 -0.043551129)
(5.0547645 0.013870992 -0.0412236)
(5.0566533 0.014076886 -0.038985637)
(5.0594574 0.014574029 -0.037716725)
(5.0627146 0.015542043 -0.038875499)
(5.0654209 0.016328152 -0.04370957)
(5.0644993 0.016418092 -0.051238252)
(5.0609703 0.015144664 -0.059396469)
(5.0465639 0.013569954 -0.060834899)
(5.0387618 0.014229601 -0.058145245)
(5.023854 0.013909176 -0.055423306)
(5.0249668 0.0081373501 -0.045933043)
(5.019366 -0.001761332 -0.019920729)
(4.9798792 0.0043855254 -0.019974418)
(4.9912509 0.011322151 -0.049806488)
(4.9785688 0.026893163 -0.06254052)
(5.0031961 0.023790006 -0.06246739)
(4.9974439 0.031330244 -0.062851975)
(5.0212707 0.032776574 -0.059557457)
(5.0185547 0.035483018 -0.0495508)
(5.0203142 0.035234155 -0.041590004)
(5.0154468 0.034332213 -0.035696022)
(5.0120148 0.032874393 -0.034932522)
(5.0093101 0.031922734 -0.036994142)
(5.0078961 0.031510863 -0.040036788)
(5.0071337 0.031351449 -0.042881181)
(5.0067608 0.031327018 -0.045257545)
(5.0065946 0.03137868 -0.047116719)
(5.0065601 0.031476278 -0.04849646)
(5.0066327 0.031606079 -0.049448348)
(5.0068243 0.031776061 -0.050009787)
(5.0071431 0.031990267 -0.050223101)
(5.0076679 0.032279138 -0.050138809)
(5.0085905 0.032700352 -0.04972408)
(5.0101907 0.033360249 -0.048744621)
(5.0131398 0.034472796 -0.046162006)
(5.0167763 0.03682241 -0.039735585)
(5.0207151 0.037732528 -0.029644332)
(5.020743 0.037729155 -0.016218406)
(5.0242603 0.035076934 0.0028178058)
(4.9997146 0.0348425 0.019471206)
(5.0056168 0.026851592 0.030973437)
(4.9778545 0.030513826 0.040591327)
(4.9879716 0.01518543 0.037936361)
(4.9947856 0.03930072 0.033166496)
(4.9931953 -0.028735864 -0.028802603)
(4.9926011 -0.011739366 -0.046514317)
(4.998065 -0.044535694 -0.072274331)
(5.0026638 -0.014719214 -0.088097513)
(5.0102116 -0.018506327 -0.083433353)
(5.0089562 -0.0024479531 -0.07187161)
(5.0066953 -0.004110517 -0.061734981)
(5.004987 -0.0085465911 -0.057557129)
(5.0046537 -0.015245026 -0.054242303)
(5.0032053 -0.019775037 -0.051597895)
(5.0022859 -0.022906341 -0.050686026)
(5.0017838 -0.024967582 -0.050604143)
(5.0015175 -0.026424559 -0.050631176)
(5.0013623 -0.02751485 -0.050427523)
(5.0012565 -0.028386134 -0.049884951)
(5.0012113 -0.029038284 -0.048942229)
(5.0011998 -0.029523979 -0.047558689)
(5.0012461 -0.029762797 -0.045713533)
(5.0014054 -0.029608107 -0.043288881)
(5.0017983 -0.028814059 -0.039962436)
(5.002576 -0.026912241 -0.03507378)
(5.003669 -0.023817184 -0.028051946)
(5.0048621 -0.020081407 -0.018134324)
(5.0073874 -0.018914742 -0.0038048302)
(5.0081999 -0.016065233 0.015505143)
(5.0097505 -0.03161811 0.035601219)
(5.0014506 -0.027856993 0.047904366)
(4.9973002 -0.055329256 0.039031664)
(4.9918681 -0.02168678 0.019686971)
(4.9949862 -0.03862697 0.010679409)
(4.9910473 -0.040792244 0.029408042)
(4.9884999 -0.026341743 0.057096098)
(4.9934576 -0.043098986 0.087066713)
(5.0029763 -0.029604952 0.097295881)
(5.0088622 -0.025345402 0.079427883)
(5.0089796 -0.016560824 0.049937504)
(5.0072303 -0.017991709 0.01979122)
(5.0047514 -0.02047627 -0.0029542117)
(5.003101 -0.023818723 -0.01871524)
(5.0026198 -0.026752172 -0.029790415)
(5.0017088 -0.028486424 -0.037591535)
(5.0011717 -0.029089091 -0.042520259)
(5.0009119 -0.028983446 -0.045759164)
(5.0007973 -0.028425525 -0.048012659)
(5.0007563 -0.02756108 -0.049618843)
(5.0007524 -0.026451607 -0.050703081)
(5.0008279 -0.025106614 -0.051434157)
(5.0009625 -0.023473507 -0.05202868)
(5.0012363 -0.021427563 -0.052789413)
(5.0017889 -0.018741491 -0.054446811)
(5.0027984 -0.014992908 -0.058371413)
(5.0039832 -0.0096797162 -0.065909574)
(5.0038212 -0.002630802 -0.075771921)
(5.0063487 0.0035261275 -0.089343578)
(5.009009 0.004227056 -0.1107376)
(5.0088917 -0.0038936604 -0.13198819)
(5.0037603 -0.0090444633 -0.14249273)
(4.9955284 -0.021485199 -0.12540732)
(4.9895951 -0.0075845495 -0.086798595)
(4.9900342 -0.022014083 -0.048203698)
(4.9934557 -0.014201799 -0.095716258)
(4.9798828 -0.0063801228 -0.12871252)
(4.9878571 -0.015619625 -0.16587439)
(4.9948272 -0.016187431 -0.17586065)
(4.9987574 -0.012450491 -0.15978835)
(4.9987656 -0.010155755 -0.1309061)
(4.9961093 -0.011602818 -0.10320941)
(4.9930241 -0.017654086 -0.084940434)
(4.9933809 -0.023482195 -0.072807231)
(4.9924039 -0.027962775 -0.063268911)
(4.9914744 -0.031322232 -0.057909448)
(4.9910271 -0.03395449 -0.055355029)
(4.9908819 -0.036114369 -0.054038631)
(4.9908829 -0.037938318 -0.053071243)
(4.9909441 -0.039487718 -0.052027426)
(4.9910627 -0.040849353 -0.050658555)
(4.9912173 -0.0419589 -0.048762831)
(4.9914392 -0.042791988 -0.046109233)
(4.9918042 -0.0432514 -0.04224842)
(4.9924355 -0.043164013 -0.03632081)
(4.9932683 -0.042263928 -0.027215499)
(4.9938737 -0.040599703 -0.014575228)
(4.9957588 -0.038369571 0.003477835)
(4.9985108 -0.036077689 0.03031404)
(5.0009348 -0.035196731 0.066264725)
(5.0010951 -0.038039053 0.10380992)
(4.9977672 -0.040652259 0.12892329)
(4.9906823 -0.042577332 0.12696565)
(4.9825815 -0.032777079 0.09839697)
(4.9956527 -0.043069634 0.078408701)
(4.9908073 -0.043128594 0.054662884)
(4.9765741 -0.04103757 0.09967977)
(4.991529 -0.050197818 0.14113853)
(5.0033753 -0.054495369 0.14334606)
(5.0097533 -0.056506712 0.11473272)
(5.010753 -0.056113715 0.072727886)
(5.008703 -0.055936043 0.033881751)
(5.0059887 -0.056884205 0.0054146374)
(5.0039995 -0.057790962 -0.013468632)
(5.0032569 -0.058297498 -0.026603269)
(5.0023446 -0.058319648 -0.036163337)
(5.0016221 -0.057899801 -0.0425201)
(5.0011944 -0.057156097 -0.046714292)
(5.0009313 -0.056165482 -0.049632084)
(5.0007486 -0.054971736 -0.051753697)
(5.0006195 -0.053582903 -0.053358601)
(5.0005395 -0.052035234 -0.054644586)
(5.0005396 -0.050280415 -0.055853726)
(5.0007065 -0.048297281 -0.057459738)
(5.0012077 -0.046032769 -0.060389368)
(5.0022484 -0.043382997 -0.066274283)
(5.0034418 -0.040160332 -0.076662197)
(5.0030811 -0.0360215 -0.089949452)
(5.006041 -0.032026927 -0.11003829)
(5.0082759 -0.030114764 -0.1407637)
(5.006907 -0.030454094 -0.17364478)
(5.0001913 -0.030229229 -0.19253006)
(4.9884504 -0.024229593 -0.18075313)
(4.9739949 -0.012447144 -0.13043366)
(4.9853951 -0.010140301 -0.075172882)
(4.994129 0.0020507809 -0.076357044)
(4.981769 -0.0047029586 -0.12645047)
(4.9981638 -0.014126499 -0.17846487)
(5.0105691 -0.019504139 -0.1923914)
(5.0173439 -0.020814813 -0.17495079)
(5.018566 -0.020417009 -0.14257339)
(5.0156797 -0.02214943 -0.11262174)
(5.0127692 -0.024151341 -0.093078412)
(5.0129687 -0.02690751 -0.07934377)
(5.0114371 -0.029373748 -0.06852439)
(5.0102371 -0.031641064 -0.062411401)
(5.0096375 -0.033728652 -0.059288477)
(5.0093979 -0.035648519 -0.057502996)
(5.0093395 -0.037406604 -0.056126206)
(5.0093723 -0.039004311 -0.054686015)
(5.0094594 -0.040452908 -0.052927848)
(5.0096088 -0.041752898 -0.0506422)
(5.0098483 -0.042905853 -0.04754729)
(5.0102662 -0.043900164 -0.043154814)
(5.0110046 -0.04471279 -0.036575983)
(5.0119846 -0.045323929 -0.026759057)
(5.0128509 -0.045677502 -0.013289338)
(5.0150912 -0.045893688 0.0061485095)
(5.0181512 -0.046337591 0.035479279)
(5.020327 -0.047624819 0.074372275)
(5.0190845 -0.047742717 0.11457027)
(5.0124626 -0.045627301 0.14108277)
(5.0000354 -0.042007705 0.13723678)
(4.9839513 -0.035274358 0.094386092)
(4.9991392 -0.030495855 0.055932969)
(5.0005381 -0.0080953014 0.040021846)
(4.9866767 -0.01032182 0.083459138)
(5.0036828 -0.012025832 0.13015121)
(5.0164466 -0.013196381 0.13590363)
(5.023232 -0.013976547 0.11092723)
(5.0247648 -0.013868463 0.072386734)
(5.0227897 -0.012849975 0.034894992)
(5.0197592 -0.011979965 0.0060054511)
(5.0174148 -0.011208136 -0.013554892)
(5.0164515 -0.010348271 -0.02725077)
(5.0153784 -0.0093271235 -0.03728326)
(5.0146097 -0.0081965199 -0.044045508)
(5.0141976 -0.0069064321 -0.048611489)
(5.0139836 -0.0054943172 -0.051861258)
(5.0138729 -0.0039618872 -0.054290297)
(5.0138361 -0.0022982708 -0.056191708)
(5.0138607 -0.0004870473 -0.057780733)
(5.0139801 0.0014745451 -0.059301132)
(5.0142817 0.003564923 -0.061211071)
(5.0149457 0.0057600904 -0.064435013)
(5.0162392 0.00803968 -0.07065749)
(5.0180499 0.01036422 -0.081864303)
(5.0180961 0.012807036 -0.096032473)
(5.0208178 0.014650429 -0.11447826)
(5.0243854 0.017293186 -0.14268988)
(5.0231112 0.01789846 -0.17332574)
(5.0159505 0.019595983 -0.1886303)
(5.0030468 0.022108939 -0.17252568)
(4.9860131 0.024796975 -0.1169769)
(4.9961099 0.027275077 -0.062013538)
(4.9944352 0.055086657 -0.060143002)
(4.983647 0.060515206 -0.11477104)
(5.0008826 0.065623378 -0.17210881)
(5.0135816 0.065572758 -0.18996371)
(5.0205709 0.06365826 -0.17521777)
(5.0218637 0.061482345 -0.14460063)
(5.0180681 0.057524657 -0.1168665)
(5.0158635 0.055027402 -0.098785485)
(5.0160215 0.052627604 -0.084373069)
(5.0142361 0.050380909 -0.073064019)
(5.0130556 0.048103896 -0.066823635)
(5.0125069 0.045840431 -0.063527797)
(5.0123147 0.043629212 -0.061505514)
(5.0122962 0.041512402 -0.059851002)
(5.0123661 0.039542418 -0.058112343)
(5.0124971 0.037754693 -0.056069014)
(5.0126938 0.036069706 -0.053518589)
(5.0129876 0.034478579 -0.050151109)
(5.0134822 0.032984761 -0.045440843)
(5.0143784 0.031838742 -0.038543418)
(5.015616 0.030775797 -0.028375751)
(5.0166447 0.029748932 -0.014543434)
(5.0190541 0.028841019 0.005092781)
(5.0221383 0.028125094 0.034012835)
(5.0241206 0.0273999 0.071674414)
(5.022716 0.026706907 0.11064991)
(5.0162348 0.026872759 0.13572165)
(5.0035612 0.025314537 0.12955039)
(4.9863269 0.02122501 0.082841823)
(5.0002661 0.018616375 0.039804213)
(4.999064 0.040098786 0.055325159)
(4.9837647 0.044842061 0.093401071)
(4.9998609 0.055071221 0.13604826)
(5.0122091 0.058518597 0.13968931)
(5.0187583 0.05859334 0.11274715)
(5.0200945 0.059732462 0.07254078)
(5.0180357 0.060301776 0.033821107)
(5.0150175 0.06120293 0.0042214488)
(5.0127688 0.062499151 -0.015708583)
(5.011928 0.063886194 -0.02973458)
(5.010801 0.065059731 -0.03997728)
(5.0099969 0.066232818 -0.046743409)
(5.0094593 0.067652156 -0.051321405)
(5.0090826 0.069112204 -0.054693321)
(5.0087866 0.070624408 -0.05730133)
(5.0085352 0.072131148 -0.059446081)
(5.0083808 0.073986972 -0.061301073)
(5.0083274 0.076003367 -0.063031055)
(5.0084356 0.078040263 -0.06509063)
(5.0088837 0.080047745 -0.068397466)
(5.0099395 0.081943349 -0.074637045)
(5.0115758 0.083611449 -0.086020179)
(5.0110988 0.085026881 -0.1005961)
(5.0128397 0.087032661 -0.11894877)
(5.0162193 0.091133093 -0.14732375)
(5.0146563 0.094126323 -0.17916717)
(5.0075477 0.096559166 -0.19588225)
(4.994858 0.094404993 -0.18153358)
(4.9787395 0.082474434 -0.12905673)
(4.9911071 0.07343068 -0.077512065)
(4.9824307 0.078371213 -0.075368523)
(4.9726947 0.0854728 -0.13248439)
(4.9867424 0.097329313 -0.18483764)
(4.9985959 0.10062307 -0.19771814)
(5.0056146 0.098344896 -0.17997348)
(5.0074245 0.095926585 -0.14793717)
(5.0044227 0.093267987 -0.11953791)
(5.0029899 0.093424926 -0.10130147)
(5.0037265 0.09386073 -0.086992605)
(5.0022657 0.093390492 -0.075757408)
(5.0013266 0.092261309 -0.069621915)
(5.000955 0.090773217 -0.0663759)
(5.0008954 0.089099406 -0.064348572)
(5.0009505 0.087311062 -0.062675513)
(5.0010404 0.08557361 -0.060907248)
(5.0011769 0.084301194 -0.058765911)
(5.001379 0.083005759 -0.056116443)
(5.0016553 0.081705655 -0.052761257)
(5.0020734 0.080333945 -0.048238257)
(5.0027482 0.078688894 -0.041568328)
(5.0037316 0.076754782 -0.031347913)
(5.004346 0.074412405 -0.017355788)
(5.0062984 0.0719959 0.0022530795)
(5.0090029 0.069780786 0.031469764)
(5.0109738 0.068459086 0.070655586)
(5.0097753 0.067035445 0.11219255)
(5.0032856 0.066073892 0.14097184)
(4.9915568 0.062625004 0.13975049)
(4.9770464 0.050576366 0.098937246)
(4.9914085 0.052990451 0.05443229)
(4.9946187 0.051707733 0.077907189)
(4.9822645 0.042057711 0.097362962)
(4.9905282 0.053613031 0.12485499)