/*--------------------------------*- C++ -*----------------------------------*\
| =========                 |                                                 |
| \\      /  F ield         | OpenFOAM: The Open Source CFD Toolbox           |
|  \\    /   O peration     | Version:  v2012                                 |
|   \\  /    A nd           | Website:  www.openfoam.com                      |
|    \\/     M anipulation  |                                                 |
\*---------------------------------------------------------------------------*/
FoamFile
{
    version     2.0;
    format      ascii;
    class       volScalarField;
    location    "200";
    object      nut;
}
// * * * * * * * * * * * * * * * * * * * * * * * * * * * * * * * * * * * * * //

dimensions      [0 2 -1 0 0 0 0];


internalField   nonuniform List<scalar> 
75632
(
0.032307769
0.032284381
0.03225856
0.032229756
0.032197336
0.032160685
0.032119089
0.032071897
0.032018343
0.031957779
0.031889425
0.031812686
0.031726807
0.031631295
0.031525459
0.03140895
0.03128117
0.03114195
0.030990809
0.030827777
0.030652504
0.030465222
0.030265704
0.030054367
0.029831088
0.029596452
0.029350421
0.029093714
0.028826354
0.028549162
0.0282622
0.027966354
0.027661705
0.027349192
0.027028904
0.026701804
0.026367976
0.026028373
0.025683046
0.025332908
0.02497798
0.024618846
0.02425348
0.027266091
0.027578998
0.027879526
0.028170848
0.028453203
0.028725394
0.028987016
0.029237167
0.029475895
0.029702511
0.029917163
0.030119292
0.030309165
0.030486464
0.030651589
0.030804744
0.030946099
0.031076085
0.031195021
0.031303495
0.031401954
0.031491142
0.031571605
0.03164426
0.031709895
0.031769029
0.031822465
0.031870901
0.031915019
0.031955339
0.031992495
0.032027009
0.03202628
0.031991574
0.031954146
0.031913491
0.031868981
0.031820096
0.031766202
0.031706466
0.031640229
0.031566892
0.031485737
0.031395636
0.031296171
0.031186523
0.031066553
0.03093534
0.030792906
0.030638315
0.030471755
0.030293012
0.030101548
0.029897828
0.029681727
0.029453715
0.029213706
0.028962309
0.028699556
0.02842646
0.028144206
0.027853766
0.027554217
0.027242027
0.024137569
0.024113652
0.024144021
0.024185174
0.024233651
0.024275646
0.024295969
0.024313373
0.02432467
0.024330464
0.02432587
0.024315098
0.024696058
0.024702845
0.024710219
0.024700248
0.0246924
0.024670038
0.024648744
0.024606378
0.024555387
0.024515237
0.024484661
0.024507895
0.024869483
0.024849001
0.024879898
0.024918588
0.024972017
0.025015036
0.025036343
0.02506133
0.025067597
0.025080152
0.025074283
0.025072108
0.02541965
0.025429133
0.025441964
0.025440933
0.025444107
0.025428685
0.025422679
0.025396732
0.025375844
0.025331419
0.025277787
0.025240444
0.025209227
0.025229037
0.025581847
0.025565233
0.025596933
0.025634987
0.025685876
0.025731943
0.025754879
0.025779377
0.025787762
0.02580276
0.025798796
0.025801699
0.025790487
0.025785077
0.026084628
0.026099942
0.02611422
0.026125577
0.026138094
0.026141359
0.02615226
0.026148552
0.026153611
0.026141695
0.026129491
0.026109371
0.026082337
0.026036297
0.025988704
0.025948645
0.025915801
0.025931769
0.026274025
0.026260597
0.026293916
0.026334044
0.026380973
0.026427099
0.026454792
0.026474813
0.026489555
0.026499401
0.026494278
0.026496564
0.026487965
0.026484954
0.026477179
0.026464091
0.026452313
0.026436773
0.026706376
0.026724243
0.026730928
0.026748456
0.026754241
0.026772511
0.026781034
0.026797173
0.026806879
0.026821212
0.026827567
0.026829533
0.02683519
0.026834968
0.02684223
0.026832129
0.026817501
0.026793049
0.026764659
0.026718605
0.026670712
0.026632548
0.026599437
0.026612427
0.026942289
0.026931721
0.026964944
0.027001948
0.027052312
0.027095637
0.02712612
0.027149337
0.027164147
0.027174257
0.027165715
0.027165883
0.027161004
0.027161899
0.027154547
0.027140737
0.0271316
0.027116216
0.027110759
0.027092072
0.027086974
0.027068793
0.027062069
0.027045477
0.027018673
0.027316758
0.027328665
0.027346937
0.027370268
0.027387445
0.02739571
0.027413324
0.027418647
0.027436854
0.027442605
0.027456143
0.027466504
0.027478021
0.027488782
0.027483035
0.027486596
0.027486349
0.027496042
0.027486078
0.027470697
0.027452563
0.027418178
0.027380994
0.027328963
0.027290846
0.027257116
0.02726717
0.027582544
0.027574806
0.027608962
0.027647818
0.027699395
0.027733976
0.027768544
0.027785201
0.027800043
0.027809772
0.027800937
0.027800369
0.027798737
0.02780534
0.027792325
0.027781856
0.027774049
0.027760768
0.027753925
0.027736437
0.027730643
0.02771409
0.027704046
0.027685894
0.027665822
0.027649134
0.027642216
0.027630538
0.027630375
0.027632902
0.027627769
0.027618967
0.027253279
0.027321652
0.027420971
0.027517432
0.027592381
0.027650616
0.027692861
0.027727357
0.027756617
0.027785154
0.027803074
0.027817207
0.027831284
0.02784276
0.027846862
0.027852825
0.027863598
0.027875979
0.027891799
0.027907205
0.02791234
0.027919874
0.027925367
0.027924915
0.027928623
0.027932394
0.027938121
0.027942209
0.027944293
0.02794446
0.027956286
0.027960366
0.027977001
0.027992993
0.028011334
0.028022963
0.028038312
0.028044592
0.028061307
0.028069364
0.028083734
0.028086922
0.028096573
0.02811072
0.028106147
0.028108396
0.028107783
0.028113542
0.028105886
0.02809268
0.028076008
0.028042737
0.028008314
0.027958164
0.02791879
0.027884432
0.027891747
0.028190506
0.028185272
0.028219802
0.028259888
0.028307877
0.028341713
0.028373695
0.028390628
0.028401815
0.028409551
0.028405366
0.028404682
0.028403992
0.028406558
0.028393868
0.028384714
0.028382107
0.028368244
0.028358965
0.02834333
0.02833624
0.028322388
0.028309396
0.028292561
0.028276806
0.028261053
0.028257935
0.028245472
0.028244319
0.028240567
0.028236497
0.028233355
0.028229622
0.028227351
0.028225404
0.028219272
0.028211969
0.028207454
0.028191607
0.02817423
0.02816256
0.028150431
0.028144207
0.028138525
0.02812683
0.028112808
0.028099039
0.028082117
0.028053429
0.028024567
0.027990234
0.027949803
0.027892751
0.027821429
0.027726797
0.027631199
0.027565642
0.027863917
0.027926654
0.028019876
0.028111553
0.02817997
0.028234935
0.0282745
0.028307509
0.028336527
0.028365244
0.028382114
0.028395712
0.028409217
0.028420931
0.028428363
0.028433841
0.028447975
0.028458117
0.028477219
0.028493343
0.02849725
0.028504171
0.028511866
0.028517461
0.028517058
0.028523721
0.028524071
0.028528183
0.028533055
0.028535824
0.028548127
0.02855139
0.028565386
0.028582716
0.028596922
0.028611886
0.028623388
0.02863144
0.028645899
0.028656393
0.028669284
0.028672672
0.028681799
0.02869135
0.028691784
0.028689837
0.028692756
0.028695759
0.028687083
0.028678892
0.028660503
0.028630711
0.028597305
0.02855185
0.028511408
0.02847696
0.028481929
0.028762051
0.02875884
0.028793087
0.028833945
0.028876522
0.028909743
0.028936811
0.02895527
0.028963143
0.028971033
0.02896972
0.028966203
0.028966954
0.028966937
0.02895938
0.028950249
0.028945646
0.028934009
0.028922055
0.028909068
0.028899755
0.028889112
0.028873616
0.028861032
0.028845046
0.028831609
0.028827784
0.028815934
0.028811109
0.028804542
0.028802736
0.02880224
0.028794969
0.028795227
0.028787481
0.028778431
0.028773616
0.028768798
0.028752243
0.028732445
0.028723429
0.02870786
0.028702546
0.028693974
0.028680682
0.028667276
0.028654867
0.028638239
0.02861121
0.028581435
0.028550748
0.028511214
0.02845914
0.028392016
0.028303318
0.028213774
0.028154803
0.02843468
0.028492953
0.028577066
0.028662094
0.028729666
0.028779591
0.028818583
0.028847272
0.028876954
0.028901677
0.028917339
0.028928161
0.028942687
0.02895674
0.028967047
0.028973097
0.028988868
0.028997883
0.029016812
0.02903299
0.029040245
0.029042364
0.029051929
0.029060214
0.029062049
0.029069092
0.029071313
0.029070591
0.029078179
0.029084785
0.029096032
0.029100483
0.029114377
0.029127702
0.029138466
0.029153488
0.02916432
0.029175823
0.029186573
0.029200679
0.029210228
0.029216207
0.029226344
0.029231404
0.029230524
0.029231614
0.029236447
0.02923791
0.029229316
0.029220015
0.029201685
0.029178245
0.029144488
0.02910583
0.029064267
0.029030602
0.029033752
0.029293393
0.029291644
0.029324509
0.029365316
0.029401201
0.029434336
0.029455648
0.029473613
0.029482494
0.029491231
0.029489824
0.029485625
0.029482423
0.029483275
0.029479768
0.029470496
0.029463101
0.029454482
0.029439445
0.029429909
0.029417722
0.029406871
0.029394015
0.029383209
0.029370781
0.029357949
0.029352855
0.029342436
0.029334477
0.029327283
0.029327576
0.029324345
0.029316298
0.029313807
0.029305496
0.029296943
0.029294593
0.029287117
0.02927043
0.029252321
0.029243449
0.029227319
0.029220632
0.029208671
0.029194197
0.029179405
0.029169785
0.029154392
0.02913028
0.029101838
0.02907394
0.02903679
0.028988235
0.028922661
0.028842545
0.028763348
0.02870817
0.028969879
0.029023201
0.029098173
0.029174384
0.02923484
0.029282576
0.029316696
0.029344949
0.02937134
0.029394512
0.029411476
0.029421126
0.029434948
0.029449218
0.029462497
0.029470263
0.029486504
0.029495591
0.029512492
0.02952956
0.029536941
0.029540249
0.029547488
0.029555317
0.02955788
0.029566665
0.02957109
0.029572537
0.029578587
0.029588235
0.029597383
0.029603241
0.029614526
0.029625647
0.029638834
0.029649118
0.029659199
0.029670712
0.029679814
0.029694879
0.029703351
0.029712967
0.029719893
0.029722748
0.029722142
0.029727873
0.029730075
0.029731143
0.029722718
0.029714487
0.029697413
0.029677268
0.029645576
0.029611916
0.029573149
0.029541752
0.029543624
0.029781189
0.029780451
0.029810421
0.029847078
0.029879911
0.029909538
0.029929138
0.029944648
0.029952661
0.029960445
0.029958373
0.029957305
0.029951663
0.029951566
0.029947683
0.029942089
0.029931606
0.029923627
0.029910049
0.029900624
0.029890557
0.029881056
0.029870161
0.029856961
0.029846313
0.029836677
0.029829721
0.029820768
0.029811898
0.02980618
0.029802787
0.029797293
0.029789068
0.02978633
0.029777826
0.029772014
0.029767268
0.029759646
0.029742605
0.029727414
0.02971796
0.029701716
0.029692686
0.029678331
0.029664277
0.029651386
0.029641465
0.029624209
0.029602486
0.029577718
0.029549944
0.029518096
0.029471951
0.029415557
0.029343201
0.029271967
0.029221949
0.029460933
0.02950885
0.029575975
0.029644717
0.02969746
0.02974123
0.029771592
0.029798348
0.029822982
0.029843868
0.029859197
0.02987028
0.029881656
0.029895624
0.02991108
0.029920898
0.029937071
0.029947002
0.029960363
0.029977365
0.029984967
0.029991813
0.029995731
0.030005271
0.030009264
0.030016418
0.030022019
0.030027638
0.030033262
0.030040177
0.0300491
0.030057983
0.030066004
0.030077564
0.03008872
0.030101215
0.030110744
0.030120442
0.030129083
0.030140931
0.030147292
0.030157759
0.030163611
0.030168464
0.030169705
0.030174048
0.030174048
0.030177614
0.030171834
0.030164899
0.030150216
0.030131973
0.030103387
0.030071092
0.030036009
0.030007605
0.03000851
0.030222739
0.030222784
0.030249789
0.030283027
0.030313415
0.030340538
0.030357546
0.030371188
0.030377243
0.030381965
0.030378926
0.030378819
0.030375397
0.030372469
0.030367209
0.030361349
0.030352233
0.030346238
0.030335725
0.030326158
0.030317083
0.030307697
0.030294523
0.030284106
0.030273086
0.030265816
0.030256136
0.030247022
0.030240877
0.030235402
0.030229064
0.030223368
0.030215947
0.030211438
0.030202569
0.030198684
0.030191727
0.0301832
0.030167198
0.030154758
0.030144036
0.030128043
0.030117497
0.03010092
0.030088271
0.030076307
0.030064675
0.030049888
0.030029924
0.030006255
0.02998164
0.029952883
0.02991119
0.029862035
0.029796876
0.029733806
0.029689415
0.029904562
0.029946506
0.030005078
0.030065594
0.030112133
0.030150903
0.030179126
0.030202026
0.030223786
0.030242562
0.030257496
0.030268846
0.030283688
0.030295559
0.030311903
0.030322592
0.030338274
0.030349886
0.030361975
0.030376214
0.030386702
0.030392497
0.030397339
0.030404934
0.030409567
0.030417019
0.030423201
0.030429219
0.030435028
0.0304403
0.030450121
0.030459831
0.030466527
0.030477116
0.03048726
0.030500314
0.030509628
0.030517846
0.030529831
0.030538576
0.03054508
0.030552159
0.030558231
0.030563602
0.030568839
0.030570791
0.030571725
0.030573489
0.030569168
0.030563736
0.030551121
0.030535415
0.030510021
0.030481798
0.03045111
0.030425909
0.030426088
0.030616176
0.030616748
0.030640273
0.030668427
0.030695471
0.030718701
0.030733451
0.030744615
0.030749841
0.030753328
0.030752313
0.030751229
0.030748575
0.030742992
0.030737171
0.030730676
0.030725456
0.030719982
0.030710343
0.030697663
0.030690038
0.030680678
0.030668835
0.030658437
0.030648576
0.030641593
0.030631792
0.030621784
0.030616997
0.03061118
0.030605252
0.030598981
0.030592028
0.03058681
0.030579972
0.030574853
0.030568179
0.030557581
0.030544324
0.030532598
0.030520085
0.030504871
0.03049375
0.030477737
0.030465814
0.03044994
0.03043861
0.03042332
0.030406617
0.030386084
0.030364537
0.030335799
0.030300383
0.030256047
0.030200632
0.030146614
0.03010885
0.030299583
0.030334535
0.0303845
0.030434269
0.03047735
0.030509219
0.030538338
0.030557949
0.030578009
0.0305923
0.030608089
0.030619771
0.030635258
0.030647457
0.030663031
0.0306745
0.030689188
0.030702823
0.030714285
0.030726565
0.030736899
0.030745035
0.030750631
0.030757799
0.030763149
0.030770094
0.030775371
0.030781999
0.030786779
0.030791831
0.030801162
0.03081064
0.030818884
0.030828873
0.030838815
0.030848306
0.03085851
0.030865772
0.030878008
0.03088743
0.030893352
0.030896934
0.03090403
0.030911032
0.030915346
0.030919326
0.030920795
0.030922177
0.030919064
0.030914585
0.030904339
0.030891154
0.030869318
0.030842996
0.030817204
0.030795389
0.030795031
0.030960735
0.030961719
0.030982072
0.031006158
0.031030024
0.031050086
0.031061806
0.031071009
0.031074901
0.031077482
0.031075874
0.031074183
0.031069499
0.031065586
0.031058799
0.031051806
0.031048124
0.031041728
0.031032858
0.031021462
0.031014678
0.031004256
0.030995704
0.030985775
0.030975947
0.030967247
0.030958191
0.030949532
0.030944256
0.030939628
0.030933064
0.03092782
0.030920907
0.030915258
0.030907945
0.030902083
0.030893122
0.030882628
0.030870907
0.030859922
0.03084602
0.030832123
0.030820321
0.030805188
0.030792607
0.030777298
0.030766002
0.030750265
0.030736825
0.030717601
0.03069893
0.030671622
0.030641925
0.030600966
0.030556535
0.030510827
0.030479027
0.030646093
0.030674661
0.030717069
0.030756885
0.030794515
0.030822021
0.03084751
0.030865177
0.030883471
0.030896473
0.03091179
0.030922992
0.030937972
0.030950797
0.030965511
0.030977599
0.030990539
0.031004079
0.031014903
0.031026423
0.031037125
0.031046107
0.031052187
0.031059678
0.031065596
0.03107251
0.031077892
0.031084441
0.03108924
0.03109537
0.031102979
0.031111327
0.031120118
0.031129549
0.031140248
0.031148927
0.031158616
0.031164973
0.031175551
0.031183468
0.031190254
0.031194591
0.031200898
0.031207292
0.031211025
0.031215892
0.031217825
0.031219706
0.031217636
0.031214329
0.031206095
0.031195909
0.031177684
0.031157353
0.031134712
0.031115902
0.031115146
0.031256834
0.031258023
0.031275309
0.031296114
0.031314159
0.031330073
0.031339296
0.031346364
0.031349361
0.031350648
0.031348753
0.031346314
0.031341585
0.031337413
0.031331845
0.031325792
0.031320697
0.031313473
0.031306328
0.031296693
0.031290382
0.031281355
0.031272722
0.031261995
0.031252613
0.031244139
0.031236037
0.03122894
0.031223187
0.031217945
0.031211691
0.031205873
0.031199264
0.031192823
0.031185433
0.031179048
0.031169712
0.03115878
0.031148085
0.031137078
0.031124093
0.031111577
0.03109891
0.03108487
0.031071672
0.031057296
0.031045998
0.031031331
0.031018545
0.031001356
0.030984512
0.030960975
0.030935353
0.030900929
0.030864865
0.030826098
0.030800538
0.030942037
0.030965554
0.031000551
0.031033448
0.031064761
0.031088513
0.031110187
0.031126182
0.03114232
0.031154849
0.031168899
0.03118023
0.031193972
0.031207628
0.03122078
0.031234192
0.031246787
0.031259779
0.031270518
0.031280029
0.031291088
0.031300672
0.031307926
0.03131553
0.031322123
0.031328722
0.031334631
0.03134093
0.031346003
0.031350553
0.031357435
0.031365458
0.031373883
0.031383608
0.03139334
0.031402275
0.031410371
0.031416667
0.031425603
0.031432093
0.031439608
0.031445359
0.031451603
0.031456239
0.031461271
0.03146629
0.031468875
0.031471119
0.031470276
0.031467921
0.031461481
0.031452952
0.03143925
0.031422893
0.031404023
0.031388441
0.031387524
0.031506251
0.031507446
0.031521505
0.031538452
0.031552764
0.03156471
0.031572021
0.031577686
0.031579495
0.0315798
0.031577317
0.031574527
0.03156952
0.031564521
0.031559861
0.03155388
0.031547766
0.031540543
0.031534121
0.031525698
0.031519316
0.03151163
0.031502693
0.031493337
0.031483984
0.031475509
0.03146792
0.031461646
0.031457155
0.031451986
0.031445736
0.031439643
0.03143321
0.031426402
0.031418744
0.031411032
0.031401691
0.031390971
0.031381555
0.03137084
0.031357989
0.031345461
0.031331851
0.031319224
0.031305595
0.031292589
0.031281268
0.031267821
0.031255556
0.031240442
0.031225278
0.031205398
0.031183439
0.031155094
0.031125203
0.031093905
0.031072893
0.031192094
0.03121122
0.031239142
0.031266122
0.03129169
0.03131189
0.031330092
0.031344402
0.031358567
0.031370513
0.031383411
0.031394669
0.031406876
0.031420083
0.031432435
0.031445863
0.031458277
0.031471018
0.031481799
0.031491656
0.031501671
0.031510761
0.031518653
0.031526173
0.03153317
0.031539364
0.03154565
0.031551863
0.031557246
0.031562336
0.031567817
0.03157486
0.031583224
0.031592033
0.031601237
0.031609861
0.031617449
0.031624054
0.031632057
0.031638592
0.031645264
0.031651781
0.031657243
0.031662369
0.03166677
0.031671692
0.031674648
0.031677384
0.031677576
0.031676349
0.031671527
0.031665377
0.031655073
0.031642799
0.03162795
0.031615527
0.03161461
0.031712057
0.031713133
0.031724072
0.031736994
0.03174775
0.031756372
0.031761631
0.031765425
0.031766227
0.031765399
0.031762572
0.031759294
0.031754516
0.031750056
0.031744701
0.031739498
0.031733238
0.031726846
0.031720108
0.031712537
0.031705745
0.031698258
0.03168995
0.031681085
0.031672667
0.031664569
0.03165784
0.031652744
0.031647375
0.031641843
0.031635675
0.031629426
0.031623343
0.031616348
0.031608855
0.03160102
0.031591825
0.03158222
0.031572358
0.0315616
0.031549357
0.03153696
0.031523955
0.031511698
0.031499034
0.031487287
0.031475904
0.031463698
0.031451927
0.031438828
0.031425183
0.031408731
0.031390034
0.031367241
0.031342875
0.031318332
0.031301264
0.031399866
0.031415588
0.031436893
0.031458949
0.031479053
0.031496444
0.03151113
0.031524244
0.031536216
0.031547902
0.03155932
0.031570911
0.031582505
0.031594953
0.031606907
0.03161964
0.03163171
0.031643304
0.031653788
0.031663296
0.03167298
0.031682212
0.031690046
0.031697776
0.031704342
0.031710692
0.031716472
0.031722409
0.031728053
0.031733398
0.031738534
0.031745443
0.031752897
0.03176133
0.031769433
0.031777285
0.031784636
0.031791701
0.031798707
0.031805759
0.031811992
0.031817749
0.031822706
0.031828072
0.031833199
0.031838206
0.03184159
0.031844693
0.031845918
0.031845726
0.03184268
0.031838461
0.031831136
0.031821677
0.031810401
0.031800887
0.031800063
0.031878436
0.031879348
0.031887615
0.031897338
0.031905255
0.031911303
0.031914879
0.03191687
0.031916536
0.031914894
0.031911597
0.031908098
0.031903038
0.031897709
0.031892588
0.03188752
0.031881855
0.031875762
0.031868682
0.031862035
0.031854974
0.031847788
0.031840325
0.031832657
0.031824477
0.031817373
0.031810642
0.031805487
0.031800182
0.031794628
0.031788739
0.031783064
0.031776735
0.03177032
0.031762673
0.031754793
0.031745733
0.031736181
0.031727016
0.031716685
0.031705363
0.031693522
0.031681143
0.031669463
0.031657332
0.031645986
0.031634527
0.031623654
0.031612299
0.031601162
0.031588786
0.031575512
0.031559584
0.031541732
0.031522393
0.03150354
0.03148959
0.0315702
0.031582624
0.031599779
0.031616324
0.031632175
0.031646566
0.031658689
0.031670216
0.03168072
0.031691591
0.031702079
0.031713186
0.031724249
0.031736079
0.031747419
0.031759459
0.031771116
0.031782147
0.031792616
0.031801631
0.031810763
0.031819519
0.031827272
0.031834775
0.031841117
0.031847353
0.03185302
0.031858953
0.031864436
0.031869574
0.031874635
0.031881155
0.031888005
0.031895886
0.031903242
0.031910332
0.031917354
0.031924205
0.031930597
0.031937563
0.031943595
0.031949213
0.03195482
0.031959812
0.031964799
0.031969784
0.031973321
0.031976828
0.03197882
0.031979599
0.031978836
0.031975761
0.031970819
0.031964363
0.031956221
0.031949208
0.031948524
0.032010418
0.03201113
0.032017041
0.032023777
0.032029141
0.032033057
0.032035176
0.032035202
0.032033947
0.032031646
0.032028112
0.03202439
0.032019587
0.032014726
0.032009661
0.032003956
0.031998292
0.031992314
0.031985641
0.031979335
0.031972658
0.031965935
0.031959091
0.031952025
0.03194462
0.031937935
0.031931723
0.031926644
0.031921542
0.03191608
0.031910385
0.031904681
0.031898637
0.031892283
0.031885033
0.031877358
0.031868986
0.031860063
0.031851209
0.031840866
0.03183004
0.031818675
0.031807086
0.031795939
0.0317846
0.031773771
0.031763146
0.031752936
0.031742643
0.031732632
0.031722003
0.031710834
0.031698002
0.031683914
0.031669385
0.03165421
0.03164334
0.031709177
0.03171903
0.031732095
0.0317449
0.031757571
0.031769122
0.031779323
0.031789212
0.031798663
0.031808488
0.031818327
0.031828553
0.031838985
0.031849749
0.031860761
0.031872023
0.031882856
0.031893546
0.031903418
0.031912142
0.031920995
0.031929068
0.031936595
0.031943661
0.031949911
0.031955807
0.031961481
0.031967016
0.031972261
0.03197747
0.0319825
0.031988519
0.031994916
0.032001797
0.032008508
0.032015129
0.032021581
0.032028036
0.032034385
0.032040763
0.032046655
0.032052488
0.032057934
0.03206318
0.032068005
0.032072636
0.032076564
0.032080089
0.032082641
0.032084426
0.032084782
0.032083636
0.032080695
0.032076299
0.032070759
0.032065862
0.032065338
0.032113573
0.032114098
0.032118136
0.032122597
0.032125977
0.032128059
0.032128463
0.032127656
0.032125595
0.03212282
0.032119197
0.032115174
0.032110567
0.032105783
0.032100475
0.032095127
0.032089382
0.032083577
0.032077343
0.032071085
0.032064845
0.032058586
0.032052264
0.032045864
0.032039287
0.032033107
0.032027438
0.032022324
0.032017178
0.032011973
0.032006617
0.032001083
0.031995253
0.031989083
0.031982263
0.03197501
0.031967189
0.031958595
0.03195002
0.031940442
0.03193013
0.031919689
0.031908832
0.031898101
0.031887765
0.031877674
0.031867884
0.031858371
0.031849032
0.031840066
0.031830887
0.031821519
0.03181118
0.031799948
0.031788653
0.031777273
0.031768734
0.031822239
0.031829737
0.031839713
0.0318497
0.031859552
0.031868793
0.031877407
0.031885953
0.031894458
0.03190334
0.031912536
0.031921897
0.031931679
0.031941563
0.031951974
0.031962418
0.031972449
0.031982371
0.031991684
0.032000077
0.032008288
0.032015963
0.032022803
0.03202935
0.032035403
0.032041292
0.032046551
0.03205172
0.032056911
0.032061968
0.032067233
0.032072541
0.0320785
0.032084808
0.032091
0.032097051
0.032103155
0.032109149
0.032115269
0.032121324
0.032127034
0.032132688
0.032137965
0.032143246
0.032148007
0.032152599
0.032156697
0.032160391
0.032163357
0.032165651
0.032166873
0.032167012
0.032165703
0.032163242
0.032159805
0.032156576
0.032156205
0.032193642
0.032193997
0.032196545
0.032199106
0.03220088
0.032201482
0.032200933
0.032199312
0.032196866
0.032193702
0.03219
0.032185809
0.032181276
0.032176467
0.032171304
0.03216603
0.032160455
0.032154913
0.032148982
0.03214304
0.032137259
0.032131323
0.032125495
0.03211952
0.032113521
0.032107746
0.032102543
0.032097349
0.032092354
0.032087218
0.03208226
0.032077124
0.03207137
0.032065428
0.032059181
0.032052604
0.032045252
0.032037373
0.032029206
0.032020185
0.032010757
0.032001071
0.03199104
0.031981022
0.031971559
0.031962121
0.031953148
0.031944298
0.0319359
0.03192778
0.031919853
0.031911861
0.031903619
0.031894904
0.031886074
0.031877349
0.031870992
0.031915319
0.031920721
0.031928321
0.03193613
0.031943943
0.031951357
0.031958777
0.031966165
0.031973907
0.031981869
0.031990319
0.031998955
0.032007987
0.032017098
0.032026646
0.032036219
0.032045609
0.032054511
0.032063177
0.032071073
0.032078648
0.032085583
0.032092005
0.032098025
0.032103753
0.032109246
0.032114354
0.032119171
0.032124179
0.032129141
0.03213412
0.032139251
0.032144924
0.032150695
0.032156393
0.032162052
0.032167797
0.032173411
0.032179099
0.032184905
0.032190273
0.032195744
0.032201058
0.032206074
0.032210959
0.032215457
0.032219694
0.032223401
0.032226706
0.032229286
0.032231224
0.032232132
0.03223209
0.032230848
0.032229021
0.032227064
0.032226822
0.032256198
0.032256423
0.032257904
0.032259169
0.032259834
0.032259431
0.032258191
0.03225603
0.032253317
0.032249942
0.032246218
0.032241997
0.03223754
0.032232706
0.032227753
0.032222494
0.032217164
0.032211883
0.03220628
0.032200779
0.032195322
0.032189748
0.032184252
0.03217873
0.032173188
0.032167689
0.032162629
0.032157777
0.032152956
0.032148052
0.032143358
0.032138341
0.03213305
0.032127531
0.032121784
0.032115638
0.032109007
0.032101807
0.032094234
0.03208598
0.03207749
0.032068476
0.032059349
0.03205025
0.032041496
0.032032843
0.032024543
0.032016441
0.032008835
0.032001474
0.031994534
0.031987657
0.031980929
0.031973974
0.031967092
0.031960536
0.031955891
0.03199313
0.031997218
0.032002859
0.032008934
0.032015107
0.03202128
0.032027638
0.032034216
0.032041189
0.032048503
0.032056253
0.032064273
0.03207255
0.032080988
0.032089644
0.03209842
0.032106967
0.032115063
0.03212289
0.032130123
0.032136927
0.032143296
0.032149107
0.032154614
0.03215989
0.032165006
0.03216987
0.032174479
0.032179222
0.03218389
0.032188631
0.032193613
0.032198907
0.032204227
0.032209585
0.032214976
0.032220342
0.032225693
0.032231033
0.032236414
0.032241649
0.032246858
0.032251957
0.032256846
0.032261561
0.032265991
0.032270139
0.032273892
0.03227727
0.032280111
0.032282406
0.032283952
0.032284691
0.032284561
0.032283759
0.032282689
0.032282554
0.032306394
0.032306499
0.032307229
0.032307621
0.032307357
0.032306321
0.032304538
0.032302141
0.032299219
0.032295852
0.032292103
0.032288034
0.032283657
0.032279045
0.032274264
0.032269287
0.032264224
0.032259069
0.032253872
0.032248695
0.032243501
0.032238299
0.032233068
0.032227856
0.032222747
0.032217629
0.032212784
0.032208146
0.03220363
0.032118092
0.032109792
0.032101701
0.032093753
0.032086006
0.032078576
0.032071544
0.032064918
0.032058675
0.032052766
0.032047082
0.032041575
0.032036207
0.032031347
0.032027801
0.032312923
0.032289423
0.032263456
0.032234448
0.03220178
0.032164806
0.03212284
0.032075187
0.032021123
0.031959946
0.031890936
0.031813427
0.03172675
0.031630319
0.031523558
0.031405995
0.031277177
0.031136787
0.030984523
0.030820236
0.030643785
0.03045519
0.030254462
0.03004177
0.029817257
0.029581233
0.029333959
0.029075853
0.028807264
0.02852869
0.028240533
0.027943324
0.027637503
0.027323654
0.027002241
0.026673856
0.026338952
0.025998096
0.025651713
0.025300293
0.0249443
0.02458396
0.024217767
0.024277704
0.024645098
0.025005686
0.025361778
0.025713451
0.026059638
0.026400195
0.026734596
0.027062372
0.027383023
0.027696026
0.028000855
0.02829697
0.028583834
0.028861044
0.029128154
0.029384726
0.029630356
0.029864679
0.030087393
0.030298245
0.030497066
0.030683766
0.030858311
0.031020732
0.03117115
0.031309762
0.03143684
0.031552739
0.031657896
0.031752825
0.031838085
0.031914282
0.031982066
0.03204212
0.032095145
0.032141851
0.032182949
0.032219139
0.032251094
0.032279457
0.032304833
0.032327861
0.032354796
0.032332943
0.032308803
0.032281827
0.032251427
0.032216986
0.032177851
0.032133316
0.032082693
0.032025286
0.031960404
0.031887371
0.031805539
0.031714313
0.031613129
0.031501387
0.031378655
0.031244568
0.031098852
0.030941278
0.030771691
0.030590058
0.030396395
0.03019061
0.029972891
0.029743482
0.029502689
0.029250854
0.028988392
0.02871571
0.028433274
0.028141039
0.027840059
0.027530791
0.027213718
0.026889328
0.02655813
0.026220381
0.025877168
0.025528147
0.025174485
0.024815677
0.02445046
0.024592795
0.024959342
0.025318947
0.02567295
0.02602148
0.026363343
0.026699409
0.027029401
0.027352343
0.027667866
0.02797557
0.028274916
0.028564972
0.028844865
0.029114793
0.029374236
0.029622875
0.029860234
0.030086079
0.030300078
0.030501965
0.030691318
0.03086856
0.031034017
0.031187496
0.031329211
0.031459401
0.031578327
0.031686372
0.031783865
0.031871569
0.031950191
0.032020226
0.032082337
0.032137192
0.032185466
0.032227844
0.03226497
0.032297579
0.032326341
0.032351826
0.032374603
0.032395227
0.032451587
0.032432468
0.032411272
0.032387488
0.032360586
0.03233007
0.032295169
0.032255168
0.032209526
0.032157518
0.032098557
0.032031925
0.031956977
0.031873435
0.031780089
0.031676179
0.03156169
0.031436035
0.031299133
0.031150574
0.030990183
0.030818703
0.03063458
0.030437325
0.030228154
0.030007035
0.029774349
0.029530106
0.029274884
0.029008874
0.028732687
0.028446186
0.028150357
0.02784781
0.027537646
0.027219697
0.026894349
0.026562166
0.026223415
0.025876704
0.025523138
0.025163905
0.02479889
0.02491544
0.025279507
0.025639045
0.025992706
0.026340603
0.026681514
0.027015783
0.027343155
0.027663258
0.027975057
0.028279065
0.028574899
0.028861513
0.029137335
0.02940241
0.029656621
0.029899581
0.030130569
0.030349622
0.030556513
0.030751457
0.03093349
0.031103271
0.031261681
0.031407553
0.03154147
0.031664717
0.031776741
0.03187821
0.03196934
0.032050866
0.032123772
0.032188236
0.032245012
0.032295165
0.032339028
0.032377333
0.032410663
0.032439721
0.03246521
0.032487571
0.03250738
0.03252521
0.032618137
0.032601527
0.032582868
0.032561738
0.032537575
0.032509834
0.032477837
0.032440845
0.032398356
0.032349661
0.03229416
0.032231429
0.032160674
0.032081166
0.031991927
0.031892175
0.031781999
0.031660793
0.031528234
0.03138477
0.03122967
0.031062647
0.030883316
0.030690661
0.030486641
0.030270666
0.030041795
0.029800346
0.029549054
0.029286725
0.029012287
0.028726026
0.028430861
0.028126969
0.027814416
0.027493855
0.027167866
0.026835023
0.026495123
0.026147045
0.025792067
0.025431374
0.025064367
0.025125862
0.025496585
0.025857207
0.026211593
0.026563251
0.026908329
0.027247111
0.027578449
0.027902551
0.028218647
0.028523483
0.028818139
0.029105358
0.029381494
0.029645916
0.02989879
0.030140783
0.030370631
0.030588464
0.030794266
0.030988377
0.031169682
0.031338709
0.03149555
0.031640429