/*--------------------------------*- C++ -*----------------------------------*\
| =========                 |                                                 |
| \\      /  F ield         | OpenFOAM: The Open Source CFD Toolbox           |
|  \\    /   O peration     | Version:  v2012                                 |
|   \\  /    A nd           | Website:  www.openfoam.com                      |
|    \\/     M anipulation  |                                                 |
\*---------------------------------------------------------------------------*/
FoamFile
{
    version     2.0;
    format      ascii;
    class       surfaceScalarField;
    location    "200";
    object      phi;
}
// * * * * * * * * * * * * * * * * * * * * * * * * * * * * * * * * * * * * * //

dimensions      [0 3 -1 0 0 0 0];
oriented        oriented;


internalField   nonuniform List<scalar> 
221674
(
0.0023108305
-9.1999262e-07
6.2224454e-06
0.0023055008
-8.9883695e-07
6.2284907e-06
0.0023001851
-8.7799374e-07
6.1937127e-06
0.0022949232
-8.5742415e-07
6.1193528e-06
0.0022897512
-8.3565329e-07
6.0076285e-06
0.0022847035
-8.1429178e-07
5.8620098e-06
0.0022798126
-7.9418296e-07
5.6851225e-06
0.0022751058
-7.7371977e-07
5.4804662e-06
0.0022706064
-7.5274645e-07
5.2521427e-06
0.0022663344
-7.327239e-07
5.0046926e-06
0.0022623056
-7.1386214e-07
4.7426766e-06
0.0022585306
-6.9530781e-07
4.4703257e-06
0.0022550147
-6.7662985e-07
4.1925842e-06
0.0022517599
-6.5824992e-07
3.9130277e-06
0.0022487646
-6.399048e-07
3.6351604e-06
0.0022460242
-6.2302232e-07
3.3634623e-06
0.0022435313
-6.0670258e-07
3.0995768e-06
0.0022412737
-5.888191e-07
2.8464564e-06
0.002239239
-5.7229509e-07
2.6069861e-06
0.0022374166
-5.5722709e-07
2.3795779e-06
0.0022357923
-5.4066786e-07
2.1649745e-06
0.0022343512
-5.2576371e-07
1.9669113e-06
0.0022330785
-5.1168276e-07
1.7843285e-06
0.002231959
-4.9566801e-07
1.6151951e-06
0.0022309788
-4.8013323e-07
1.4603674e-06
0.0022301255
-4.6658644e-07
1.3198978e-06
0.0022293874
-4.5448195e-07
1.1925573e-06
0.0022287521
-4.4139031e-07
1.076669e-06
0.0022282068
-4.2739622e-07
9.7267562e-07
0.0022277413
-4.1410242e-07
8.7963711e-07
0.0022273476
-4.0181927e-07
7.9555386e-07
0.0022270178
-3.9059391e-07
7.2034826e-07
0.002226744
-3.7966737e-07
6.5342734e-07
0.002226518
-3.6789255e-07
5.9393316e-07
0.0022263336
-3.5651637e-07
5.409087e-07
0.0022261865
-3.4609164e-07
4.9318573e-07
0.0022260716
-3.360092e-07
4.5094871e-07
0.0022259836
-3.2627756e-07
4.1420884e-07
0.0022259187
-3.1674932e-07
3.8166667e-07
0.0022258736
-3.0737988e-07
3.5250969e-07
0.0022258452
-2.9828192e-07
3.2670291e-07
0.0022258317
-2.8998215e-07
3.0348612e-07
-2.8265056e-07
2.8352465e-07
-0.0022064687
9.6542084e-07
-9.3556563e-08
-0.0022074038
1.0025392e-06
-6.7459823e-08
-0.0022084067
1.0419583e-06
-3.9015724e-08
-0.0022094841
1.0853378e-06
-7.9769481e-09
-0.0022106402
1.1320518e-06
2.4089447e-08
-0.0022118789
1.182339e-06
5.6350713e-08
-0.0022132038
1.2345962e-06
9.0227058e-08
-0.0022146193
1.2899808e-06
1.255249e-07
-0.0022161306
1.347829e-06
1.6354642e-07
-0.0022177384
1.402275e-06
2.0550639e-07
-0.0022194435
1.4564212e-06
2.4865945e-07
-0.0022212498
1.5139316e-06
2.9234053e-07
-0.0022231584
1.5713023e-06
3.3730048e-07
-0.0022251677
1.6264485e-06
3.8289267e-07
-0.0022272754
1.6796562e-06
4.2800589e-07
-0.002229479
1.7312133e-06
4.724358e-07
-0.0022317768
1.7835586e-06
5.1424617e-07
-0.0022341631
1.8332007e-06
5.5309543e-07
-0.0022366292
1.8762317e-06
5.8982085e-07
-0.0022391665
1.9150446e-06
6.2222828e-07
-0.0022417651
1.9493316e-06
6.4927587e-07
-0.0022444136
1.9778316e-06
6.7069007e-07
-0.0022470981
1.9989423e-06
6.8562266e-07
-0.0022498034
2.0107132e-06
6.9451622e-07
-0.0022525137
2.0145538e-06
6.9580351e-07
-0.0022552119
2.011344e-06
6.8684531e-07
-0.0022578788
1.9972684e-06
6.6965605e-07
-0.0022604938
1.9703929e-06
6.4456932e-07
-0.0022630365
1.9335323e-06
6.0916398e-07
-0.0022654881
1.8870393e-06
5.6452035e-07
-0.002267828
1.8276576e-06
5.1226583e-07
1.7551571e-06
4.4931514e-07
0.0023013628
3.4654359e-06
5.3663889e-07
0.0022989807
3.6052692e-06
6.0444065e-07
0.0022964845
3.7210387e-06
6.6226922e-07
0.0022938937
3.8130091e-06
7.1125502e-07
0.0022912304
3.8846949e-06
7.4900375e-07
0.0022885169
3.9359088e-06
7.7485108e-07
0.0022857715
3.9637911e-06
7.9300177e-07
0.0022830121
3.9714562e-06
8.0244891e-07
0.0022802594
3.9630613e-06
8.0038153e-07
0.0022775299
3.9385857e-06
7.89816e-07
0.0022748373
3.8974515e-06
7.7298464e-07
0.0022721953
3.8421421e-06
7.4925384e-07
0.0022696155
3.7750939e-06
7.1967224e-07
0.0022671104
3.6981558e-06
6.8318272e-07
0.0022646897
3.6123398e-06
6.4159212e-07
0.0022623554
3.5173507e-06
6.0046639e-07
0.0022601152
3.416374e-06
5.5505695e-07
0.0022579765
3.3134102e-06
5.0497925e-07
0.0022559395
3.2082063e-06
4.5522333e-07
0.0022540062
3.0998082e-06
4.0478103e-07
0.0022521749
2.9889178e-06
3.5630523e-07
0.0022504438
2.8782536e-06
3.0934514e-07
0.0022488159
2.7704533e-06
2.5966486e-07
0.0022472892
2.6635003e-06
2.1105469e-07
0.0022458546
2.5546907e-06
1.6989443e-07
0.0022445114
2.448369e-06
1.29427e-07
0.0022432584
2.3462757e-06
8.905364e-08
0.0022420887
2.2496176e-06
5.2156936e-08
0.0022409981
2.1586187e-06
1.725478e-08
0.0022399821
2.0732253e-06
-1.5212841e-08
0.0022390366
1.9938685e-06
-4.5845443e-08
1.9185029e-06
-7.3483712e-08
-5.6392082e-07
-0.0022587591
2.8158895e-07
-8.6524648e-07
-0.0023713635
3.0044089e-07
-1.1917406e-06
-0.0025091183
3.2402265e-07
-1.5347978e-06
-0.0026184063
3.3921866e-07
-1.8846144e-06
-0.0026785287
3.4533218e-07
-2.2358441e-06
-0.0026997113
3.4687979e-07
-2.585444e-06
-0.0027011464
3.463729e-07
-2.9314948e-06
-0.0026964411
3.4488341e-07
-3.2731585e-06
-0.0026916873
3.4327546e-07
-3.6106231e-06
-0.0026884458
3.4232842e-07
-3.9440073e-06
-0.0026864787
3.4243451e-07
-0.0026852247
3.4392246e-07
4.0627113e-06
-0.0026852517
3.6756353e-07
3.7185899e-06
-0.0026865006
3.6595187e-07
3.3704776e-06
-0.0026884634
3.6569057e-07
3.0181619e-06
-0.0026917016
3.6662554e-07
2.661306e-06
-0.0026964526
3.683745e-07
2.3011163e-06
-0.0027011563
3.7017111e-07
1.9393633e-06
-0.0026997205
3.7094227e-07
1.5790611e-06
-0.0026785377
3.6923266e-07
1.2257446e-06
-0.0026184155
3.6251574e-07
8.8942275e-07
-0.0025091283
3.463157e-07
5.7908031e-07
-0.0023713744
3.2118841e-07
-0.0022587711
3.0109808e-07
-5.9607708e-07
-0.0022587975
3.2421641e-07
-9.1554353e-07
-0.0023714001
3.4516435e-07
-1.2618876e-06
-0.0025091536
3.7171735e-07
-1.6256908e-06
-0.0026184407
3.8905813e-07
-1.9968149e-06
-0.0026785629
3.9638436e-07
-2.3695678e-06
-0.0026997462
3.984516e-07
-2.7406267e-06
-0.0027011834
3.981535e-07
-3.1082486e-06
-0.0026964818
3.9682553e-07
-3.4714817e-06
-0.0026917337
3.9526949e-07
-3.8304536e-06
-0.0026884989
3.9448597e-07
-4.185557e-06
-0.0026865403
3.9486738e-07
-0.0026852968
3.9663338e-07
5.0357234e-06
-0.0026836311
4.3797227e-07
4.675332e-06
-0.0026844415
4.3277651e-07
4.312328e-06
-0.0026853631
4.292948e-07
3.9461414e-06
-0.0026866014
4.2730837e-07
3.5760869e-06
-0.0026885557
4.2682864e-07
3.2016851e-06
-0.0026917868
4.2749504e-07
2.8229557e-06
-0.002696532
4.2893321e-07
2.4407788e-06
-0.0027012313
4.3004532e-07
2.0569319e-06
-0.0026997922
4.2988169e-07
1.6747025e-06
-0.0026786079
4.2721452e-07
1.3000476e-06
-0.0026184853
4.1923194e-07
9.4322802e-07
-0.0025091976
4.0076766e-07
6.141876e-07
-0.0023714436
3.7252505e-07
-0.002258841
3.5029675e-07
-6.3299787e-07
-0.0022589044
3.797092e-07
-9.7210242e-07
-0.0023715081
4.0363352e-07
-1.3397331e-06
-0.0025092638
4.3381941e-07
-1.7257815e-06
-0.0026185528
4.5354642e-07
-2.1192818e-06
-0.0026786765
4.6207679e-07
-2.5144782e-06
-0.0026998618
4.647606e-07
-2.9082661e-06
-0.0027013022
4.6467095e-07
-3.2986693e-06
-0.0026966048
4.6320008e-07
-3.6845729e-06
-0.0026918626
4.6173108e-07
-4.0659811e-06
-0.0026886354
4.6108531e-07
-4.4435209e-06
-0.0026866857
4.6175249e-07
-4.818171e-06
-0.0026854523
4.6384366e-07
-5.1909155e-06
-0.0026845363
4.6752397e-07
-0.0026837246
4.7309127e-07
6.8959809e-06
-0.002680639
5.5637916e-07
6.5058136e-06
-0.0026814783
5.4233231e-07
6.1195561e-06
-0.0026822937
5.303977e-07
5.7350426e-06
-0.0026830928
5.2038787e-07
5.3509257e-06
-0.0026838529
5.1242829e-07
4.9662717e-06
-0.0026846584
5.0669941e-07
4.5798519e-06
-0.0026855689
5.0297931e-07
4.1905857e-06
-0.0026867972
5.008451e-07
3.7974271e-06
-0.0026887423
5.0011628e-07
3.3996768e-06
-0.0026919655
5.0063552e-07
2.9973414e-06
-0.0026967046
5.0213589e-07
2.5913169e-06
-0.0027013998
5.0366954e-07
2.1840614e-06
-0.0026999586
5.0412499e-07
1.7787878e-06
-0.0026787727
5.0147682e-07
1.3810809e-06
-0.0026186476
4.9248648e-07
1.0020361e-06
-0.0025093561
4.7134677e-07
6.5222089e-07
-0.0023715972
4.3894577e-07
-0.0022589915
4.1295171e-07
-6.721404e-07
-0.0022591059
4.506215e-07
-1.0329997e-06
-0.0023717152
4.7886586e-07
-1.424147e-06
-0.0025094787
5.1373737e-07
-1.8343279e-06
-0.002618774
5.365406e-07
-2.252142e-06
-0.0026789014
5.4655782e-07
-2.6720136e-06
-0.0027000884
5.4966305e-07
-3.0903713e-06
-0.0027015311
5.4959178e-07
-3.5049977e-06
-0.0026968382
5.4828677e-07
-3.9149375e-06
-0.0026921025
5.4696702e-07
-4.3202242e-06
-0.0026888835
5.4650359e-07
-4.7216402e-06
-0.0026869431
5.4731515e-07
-5.1201234e-06
-0.0026857199
5.4954455e-07
-5.5165086e-06
-0.0026848152
5.5322125e-07
-5.9046456e-06
-0.0026840235
5.5875795e-07
-6.3097893e-06
-0.002683254
5.6639278e-07
-6.7098721e-06
-0.0026824695
5.7587482e-07
-7.1137998e-06
-0.002681662
5.8765847e-07
-0.0026808389
6.0182384e-07
1.0026352e-05
-0.0026760831
7.8266334e-07
9.5481454e-06
-0.0026769261
7.5744904e-07
9.0914071e-06
-0.0026777742
7.3363292e-07
8.6317745e-06
-0.0026786009
7.1136155e-07
8.1916786e-06
-0.0026794284
6.9061624e-07
7.7692556e-06
-0.0026802509
6.7175655e-07
7.3385386e-06
-0.0026810635
6.5525567e-07
6.9210076e-06
-0.0026818854
6.4090194e-07
6.5079123e-06
-0.0026826853
6.2889729e-07
6.0978302e-06
-0.0026834631
6.1915128e-07
5.6892604e-06
-0.0026842264
6.1146061e-07
5.2801861e-06
-0.0026850118
6.0572513e-07
4.8690729e-06
-0.0026859107
6.0193178e-07
4.4550091e-06
-0.0026871287
5.9962632e-07
4.0369579e-06
-0.0026890643
5.9882016e-07
3.6143944e-06
-0.0026922791
5.9919173e-07
3.1871207e-06
-0.0026970114
6.0045596e-07
2.7558995e-06
-0.0027017014
6.0153772e-07
2.3230352e-06
-0.0027002567
6.0113666e-07
1.8921083e-06
-0.0026790678
5.9734753e-07
1.4690857e-06
-0.0026189373
5.863208e-07
1.0653602e-06
-0.0025096365
5.6154511e-07
6.9264393e-07
-0.0023718665
5.2397077e-07
-0.0022592527
4.9335014e-07
-7.1405203e-07
-0.0022594369
5.4167129e-07
-1.0988705e-06
-0.0023720566
5.7498855e-07
-1.5158855e-06
-0.002509835
6.1556756e-07
-1.9523093e-06
-0.0026191432
6.423996e-07
-2.3966109e-06
-0.0026792782
6.5462691e-07
-2.8427386e-06
-0.0027004695
6.5891309e-07
-3.2870282e-06
-0.0027019164
6.5931805e-07
-3.7276098e-06
-0.0026972286
6.5772245e-07
-4.1635333e-06
-0.0026924993
6.5607102e-07
-4.5949029e-06
-0.0026892884
6.5549343e-07
-5.022254e-06
-0.0026873576
6.5625998e-07
-5.4465383e-06
-0.002686145
6.5857391e-07
-5.8691221e-06
-0.0026852519
6.6268379e-07
-6.2912899e-06
-0.0026844731
6.6886618e-07
-6.7140514e-06
-0.0026837177
6.7732373e-07
-7.1394336e-06
-0.0026829478
6.8792673e-07
-7.5696734e-06
-0.0026821556
7.0045596e-07
-8.005592e-06
-0.0026813425
7.1496284e-07
-8.4486538e-06
-0.0026805395
7.3163326e-07
-8.9019924e-06
-0.0026797256
7.5060449e-07
-9.3674053e-06
-0.0026789071
7.7157344e-07
-9.8450226e-06
-0.0026780906
7.9403102e-07
-1.0336017e-05
-0.0026772531
8.1802327e-07
-1.0835189e-05
-0.0026764273
8.4335367e-07
-0.0026756083
8.6920922e-07
1.2266503e-05
-0.0026744697
9.8431399e-07
1.1714829e-05
-0.0026752325
9.6197168e-07
1.1177613e-05
-0.0026760082
9.3708612e-07
1.0657028e-05
-0.0026768177
9.1101051e-07
1.0151722e-05
-0.0026776329
8.8513225e-07
9.6593182e-06
-0.0026784585
8.6029001e-07
9.1795182e-06
-0.0026792643
8.3699878e-07
8.7125108e-06
-0.0026800743
8.1566237e-07
8.2565756e-06
-0.00268088
7.9643061e-07
7.8082977e-06
-0.0026816738
7.7952553e-07
7.3653073e-06
-0.0026824776
7.6495184e-07
6.92651e-06
-0.0026832616
7.5254987e-07
6.4981849e-06
-0.0026840317
7.4232456e-07
6.05509e-06
-0.0026847641
7.3412435e-07
5.6191089e-06
-0.0026855438
7.2786359e-07
5.1812763e-06
-0.0026864309
7.236701e-07
4.7402344e-06
-0.0026876378
7.2123234e-07
4.2950707e-06
-0.0026895637
7.2042679e-07
3.8453481e-06
-0.0026927705
7.2095617e-07
3.3909245e-06
-0.0026974968
7.2267477e-07
2.9326927e-06
-0.0027021824
7.2421729e-07
2.4727718e-06
-0.0027007335
7.2393199e-07
2.0144158e-06
-0.0026795392
7.1939402e-07
1.5640015e-06
-0.002619399
7.0621905e-07
1.1341316e-06
-0.0025100822
6.7704034e-07
7.370986e-07
-0.0023722925
6.3284296e-07
-0.0022596638
5.9614342e-07
-7.6083802e-07
-0.0022599399
6.5725131e-07
-1.1706576e-06
-0.0023725804
6.9780637e-07
-1.6141544e-06
-0.0025103848
7.4611397e-07
-2.0787178e-06
-0.0026197124
7.7792656e-07
-2.5518665e-06
-0.0026798583
7.9225367e-07
-3.0262298e-06
-0.0027010563
7.9713612e-07
-3.4989724e-06
-0.0027025073
7.9769348e-07
-3.967762e-06
-0.0026978244
7.9632491e-07
-4.4316974e-06
-0.0026931015
7.9491936e-07
-4.8909797e-06
-0.0026898989
7.944915e-07
-5.3460292e-06
-0.0026879782
7.954157e-07
-5.7977392e-06
-0.0026867771
7.9792056e-07
-6.2469863e-06
-0.0026858966
8.0198028e-07
-6.6879646e-06
-0.002685131
8.0788567e-07
-7.1459744e-06
-0.0026843893
8.1563326e-07
-7.5992962e-06
-0.0026836337
8.2548521e-07
-8.0558348e-06
-0.0026828587
8.3759934e-07
-8.5161389e-06
-0.0026820655
8.519778e-07
-8.9840947e-06
-0.002681281
8.6903161e-07
-9.4648009e-06
-0.0026804823
8.8866454e-07
-9.9600981e-06
-0.0026796794
9.104241e-07
-1.046824e-05
-0.0026788841
9.3376842e-07
-1.0988365e-05
-0.0026780714
9.5863559e-07
-1.1523093e-05
-0.0026772677
9.8464695e-07
-1.2074476e-05
-0.0026764677
1.0108338e-06
-1.2641075e-05
-0.002675702
1.0361108e-06
-1.3219078e-05
-0.002674951
1.0593054e-06
-1.3803436e-05
-0.002674194
1.0787616e-06
-1.4389743e-05
-0.0026734587
1.0931069e-06
-1.4971171e-05
-0.0026727416
1.100262e-06
-1.5537884e-05
-0.0026720723
1.0984621e-06
-0.0026714236
1.0853046e-06
2.937467e-06
-0.0023506268
-1.0277725e-07
4.047801e-06
-0.0024872153
-1.481351e-07
5.2229032e-06
-0.0025956832
-1.7907792e-07
6.4265427e-06
-0.002655526
-1.9605403e-07
7.635925e-06
-0.0026768781
-2.0658776e-07
8.8359094e-06
-0.0026787542
-2.1087875e-07
1.0014707e-05
-0.0026746325
-2.0712143e-07
1.1162062e-05
-0.0026705464
-1.9471692e-07
1.2268403e-05
-0.002668038
-1.7296943e-07
1.3323289e-05
-0.0026668661
-1.4088344e-07
1.431447e-05
-0.0026664677
-9.7085895e-08
1.5228586e-05
-0.0026664421
-4.0305592e-08
1.6058724e-05
-0.0026665839
3.0436097e-08
1.6767787e-05
-0.0026667982
1.1503983e-07
1.7366158e-05
-0.0026670765
2.1184314e-07
1.7836091e-05
-0.0026673558
3.1878122e-07
1.8171686e-05
-0.0026676693
4.3280685e-07
1.8370922e-05
-0.0026680124
5.5000953e-07
1.8434724e-05
-0.0026684111
6.6647541e-07
1.8368999e-05
-0.0026688429
7.779038e-07
1.8184238e-05
-0.0026692844
8.7966912e-07
1.7893553e-05
-0.002669762
9.6840964e-07
1.7512767e-05
-0.0026702699
1.041984e-06
1.7058655e-05
-0.002670835
1.0996687e-06
1.6547562e-05
-0.0026714333
1.1414845e-06
1.5994754e-05
-0.0026720392
1.1684069e-06
1.5414353e-05
-0.0026726739
1.1819584e-06
1.4818825e-05
-0.0026733302
1.1841927e-06
1.4218356e-05
-0.0026740352
1.1769559e-06
1.3626842e-05
-0.0026747649
1.1624034e-06
1.3025525e-05
-0.0026754922
1.1424677e-06
1.2443343e-05
-0.0026762387
1.118912e-06
1.1877495e-05
-0.002676995
1.0932442e-06
1.1328345e-05
-0.0026777857
1.0672265e-06
1.0801191e-05
-0.0026785862
1.0418928e-06
1.0270304e-05
-0.002679371
1.0178098e-06
9.75221e-06
-0.0026801559
9.9463307e-07
9.2573944e-06
-0.0026809601
9.7263128e-07
8.7843073e-06
-0.0026817606
9.5263911e-07
8.3188959e-06
-0.0026825354
9.3534574e-07
7.8410507e-06
-0.0026833014
9.205482e-07
7.3737181e-06
-0.0026840742
9.0782861e-07
6.9092111e-06
-0.0026848221
8.9726597e-07
6.446161e-06
-0.0026855571
8.8908997e-07
5.9826114e-06
-0.002686316
8.8298989e-07
5.5165584e-06
-0.0026871899
8.7885658e-07
5.0470339e-06
-0.002688385
8.7634475e-07
4.5732096e-06
-0.0026903005
8.7541122e-07
4.0944703e-06
-0.0026934986
8.7590037e-07
3.6107138e-06
-0.0026982181
8.7753172e-07
3.1230218e-06
-0.0027028988
8.7915447e-07
2.6337812e-06
-0.0027014458
8.7872353e-07
2.14618e-06
-0.0026802441
8.7336785e-07
1.6664851e-06
-0.0026200901
8.5738491e-07
1.2078668e-06
-0.0025107487
8.2251839e-07
7.8408415e-07
-0.0023729267
7.7003062e-07
-0.002260272
7.2557469e-07
-8.0780851e-07
-0.0022606682
8.021656e-07
-1.246403e-06
-0.002373339
8.5091968e-07
-1.7211559e-06
-0.0025111821
9.081725e-07
-2.2162933e-06
-0.0026205415
9.4653388e-07
-2.7189425e-06
-0.0026807057
9.6430528e-07
-3.2235492e-06
-0.0027019113
9.7011633e-07
-3.7265405e-06
-0.0027033663
9.7044528e-07
-4.2256378e-06
-0.0026986877
9.6865893e-07
-4.7195593e-06
-0.0026939716
9.6683209e-07
-5.2084112e-06
-0.0026907778
9.6619751e-07
-5.6927992e-06
-0.0026888677
9.6708213e-07
-6.1736189e-06
-0.0026876787
9.6965642e-07
-6.6524621e-06
-0.0026868113
9.7418421e-07
-7.1303793e-06
-0.0026860601
9.8094033e-07
-7.6084244e-06
-0.0026853336
9.896444e-07
-8.0887844e-06
-0.0026845944
1.0005322e-06
-8.5725298e-06
-0.0026838312
1.013632e-06
-9.0606429e-06
-0.0026830761
1.028802e-06
-9.5570172e-06
-0.0026823106
1.0463655e-06
-1.0066498e-05
-0.0026815169
1.0663019e-06
-1.059056e-05
-0.0026807202
1.0882814e-06
-1.1127645e-05
-0.0026799455
1.1115881e-06
-1.1677214e-05
-0.0026791726
1.1359535e-06
-1.2241056e-05
-0.0026783832
1.1613089e-06
-1.2813779e-05
-0.0026776097
1.1873701e-06
-1.3418502e-05
-0.002676847
1.2129948e-06
-1.4027815e-05
-0.0026761191
1.236236e-06
-1.4643236e-05
-0.0026754051
1.2556728e-06
-1.5259735e-05
-0.0026746886
1.2699358e-06
-1.5870199e-05
-0.0026739964
1.2766745e-06
-1.6464528e-05
-0.0026733533
1.2737687e-06
-1.7023816e-05
-0.0026727392
1.2593133e-06
-1.7557668e-05
-0.0026721309
1.2314718e-06
-1.8026439e-05
-0.0026715547
1.1885322e-06
-1.8420121e-05
-0.0026710058
1.1294911e-06
-1.8722037e-05
-0.0026705144
1.0542669e-06
-1.8916172e-05
-0.0026700542
9.6389686e-07
-1.8988421e-05
-0.0026696311
8.6053571e-07
-1.8927602e-05
-0.0026692191
7.4710867e-07
-1.872097e-05
-0.0026688469
6.2783104e-07
-1.83909e-05
-0.0026685067
5.0729155e-07
-1.7915753e-05
-0.0026682204
3.8944088e-07
-1.7308464e-05
-0.0026679624
2.785645e-07
-1.6579053e-05
-0.0026677055
1.7783257e-07
-1.5739815e-05
-0.0026675125
8.938391e-08
-1.4805135e-05
-0.0026673918
1.5064584e-08
-1.3789664e-05
-0.0026674382
-4.5004105e-08
-1.2707031e-05
-0.0026678569
-9.1782842e-08
-1.156908e-05
-0.0026690495
-1.2644071e-07
-1.0386552e-05
-0.0026715785
-1.5040917e-07
-9.1698668e-06
-0.002675684
-1.6517517e-07
-7.9293907e-06
-0.0026798234
-1.7128368e-07
-6.6773339e-06
-0.0026779608
-1.6931225e-07
-5.4295723e-06
-0.0026566126
-1.6107211e-07
-4.2101916e-06
-0.0025967564
-1.4617726e-07
-3.0552988e-06
-0.002488253
-1.1721771e-07
-0.0023516146
-7.36452e-08
3.1785027e-06
-0.0023526781
-4.1780228e-08
4.380329e-06
-0.002489371
-8.3769564e-08
5.6465151e-06
-0.0025979124
-1.1023369e-07
6.9406335e-06
-0.0026577836
-1.2313317e-07
8.2372452e-06
-0.002679128
-1.294484e-07
9.519526e-06
-0.0026809764
-1.2929739e-07
1.077503e-05
-0.0026768192
-1.2031517e-07
1.1993466e-05
-0.002672695
-1.0192685e-07
1.3164385e-05
-0.0026701465
-7.3932538e-08
1.4276312e-05
-0.0026689336
-3.530003e-08
1.5317008e-05
-0.0026684942
1.5338423e-08
1.6272758e-05
-0.002668427
7.9393332e-08
1.7129054e-05
-0.0026685265
1.5772902e-07
1.7871748e-05
-0.0026686982
2.50043e-07
1.8488444e-05
-0.0026689338
3.5467832e-07
1.8969352e-05
-0.0026691706
4.6931918e-07
1.9309161e-05
-0.0026694373
5.9082965e-07
1.9506861e-05
-0.0026697595
7.1493581e-07
1.9563138e-05
-0.0026701124
8.3706521e-07
1.9483044e-05
-0.0026705038
9.5273968e-07
1.9278201e-05
-0.0026709072
1.0578781e-06
1.8964041e-05
-0.0026713502
1.1499904e-06
1.8556981e-05
-0.0026718256
1.2269257e-06
1.8073934e-05
-0.0026723591
1.2874236e-06
1.7532712e-05
-0.0026729212
1.3314514e-06
1.6950061e-05
-0.0026735168
1.3601977e-06
1.6339661e-05
-0.0026741183
1.3753563e-06
1.5712635e-05
-0.0026747481
1.3786891e-06
1.5079067e-05
-0.0026754275
1.372473e-06
1.4446875e-05
-0.0026761318
1.3588593e-06
1.3822321e-05
-0.0026768343
1.3397571e-06
1.3210753e-05
-0.0026775524
1.3169968e-06
1.2615315e-05
-0.0026783061
1.2918705e-06
1.2036194e-05
-0.0026790697
1.265624e-06
1.1471652e-05
-0.0026798474
1.2393806e-06
1.0920534e-05
-0.0026806084
1.2140322e-06
1.0382936e-05
-0.0026813728
1.19023e-06
9.8582448e-06
-0.0026821606
1.1683712e-06
9.3450158e-06
-0.002682946
1.1486918e-06
8.8408127e-06
-0.0026837034
1.1314899e-06
8.3430453e-06
-0.0026844502
1.1166821e-06
7.8493645e-06
-0.0026852046
1.1039126e-06
7.3647943e-06
-0.0026859422
1.0931156e-06
6.8642686e-06
-0.0026866441
1.084539e-06
6.370436e-06
-0.0026873954
1.0778535e-06
5.8746389e-06
-0.0026882562
1.0733073e-06
5.3750874e-06
-0.0026894389
1.0707412e-06
4.8708689e-06
-0.0026913435
1.0698677e-06
4.3613881e-06
-0.0026945327
1.0706372e-06
3.8466691e-06
-0.0026992455
1.0725279e-06
3.3280463e-06
-0.002703922
1.0743221e-06
2.8076017e-06
-0.0027024645
1.0736614e-06
2.2889178e-06
-0.0026812539
1.0668759e-06
1.7776e-06
-0.0026210772
1.0470498e-06
1.286943e-06
-0.0025116962
1.0047529e-06
8.3340693e-07
-0.0023738274
9.4193481e-07
-0.0022611369
8.8802898e-07
-8.6094753e-07
-0.0022616869
9.8355749e-07
-1.329469e-06
-0.0023744024
1.043539e-06
-1.835491e-06
-0.0025123033
1.1130594e-06
-2.36366e-06
-0.0026217088
1.1597801e-06
-2.8992372e-06
-0.0026819
1.1816506e-06
-3.4359621e-06
-0.002703117
1.1892432e-06
-3.9708973e-06
-0.0027045771
1.1901007e-06
-4.5017009e-06
-0.0026999029
1.1882339e-06
-5.027209e-06
-0.0026951934
1.1862019e-06
-5.5471805e-06
-0.0026920089
1.1853585e-06
-6.0622007e-06
-0.00269011
1.1861727e-06
-6.573178e-06
-0.0026889339
1.1886372e-06
-7.0816468e-06
-0.0026880798
1.1929198e-06
-7.5893517e-06
-0.0026873354
1.1990322e-06
-8.0970382e-06
-0.0026866416
1.2070707e-06
-8.6056839e-06
-0.0026859133
1.2173529e-06
-9.1182564e-06
-0.0026851676
1.2300461e-06
-9.6383239e-06
-0.0026844283
1.2449913e-06
-1.0167688e-05
-0.0026836789
1.2622321e-06
-1.0707432e-05
-0.0026829027
1.2818323e-06
-1.125917e-05
-0.0026821248
1.3037295e-06
-1.1824891e-05
-0.0026813704
1.3276715e-06
-1.2405e-05
-0.0026806205
1.3531647e-06
-1.3000183e-05
-0.0026798541
1.3795835e-06
-1.3619291e-05
-0.0026790929
1.4058773e-06
-1.4238874e-05
-0.0026783637
1.4308339e-06
-1.4879186e-05
-0.0026776475
1.4535542e-06
-1.5527768e-05
-0.0026769558
1.4725943e-06
-1.6178122e-05
-0.0026762633
1.4861093e-06
-1.6822258e-05
-0.0026755961
1.4921005e-06
-1.745007e-05
-0.0026749788
1.4883748e-06
-1.8049436e-05
-0.0026743903
1.472875e-06
-1.8606091e-05
-0.002673808
1.4434438e-06
-1.9103688e-05
-0.0026732597
1.3982159e-06
-1.9524739e-05
-0.0026727408
1.3362183e-06
-1.9851758e-05
-0.0026722806
1.2574283e-06
-2.0068018e-05
-0.0026718539
1.1629216e-06
-2.0157386e-05
-0.002671469
1.0545667e-06
-2.010742e-05
-0.0026710981
9.3567957e-07
-1.9912201e-05
-0.0026707651
8.1043227e-07
-1.957045e-05
-0.0026704622
6.8317751e-07
-1.9083787e-05
-0.0026702153
5.580074e-07
-1.845787e-05
-0.002669999
4.3929616e-07
-1.7701949e-05
-0.0026697844
3.3025248e-07
-1.6828151e-05
-0.0026696338
2.3345616e-07
-1.5850609e-05
-0.0026695552
1.5065842e-07
-1.4783766e-05
-0.0026696431
8.2087076e-08
-1.3641621e-05
-0.0026701027
2.7022474e-08
-1.243695e-05
-0.002671335
-1.6146143e-08
-1.118126e-05
-0.0026739021
-4.8597914e-08
-9.8850999e-06
-0.0026780445
-7.0881716e-08
-8.5589272e-06
-0.0026822194
-8.3127732e-08
-7.2157067e-06
-0.0026803851
-8.606137e-08
-5.8729992e-06
-0.002659044
-8.2376215e-08
-4.5575943e-06
-0.0025991553
-7.2467023e-08
-3.3082002e-06
-0.002490571
-4.9458778e-08
-0.0023538188
-8.8586323e-09
3.4449927e-06
-0.0023550421
2.7931663e-08
4.7432941e-06
-0.0024918584
-1.0818356e-08
6.1092238e-06
-0.0026004905
-3.0756705e-08
7.5023531e-06
-0.0026603997
-3.7360361e-08
8.8940352e-06
-0.0026817392
-3.7648456e-08
1.0266551e-05
-0.0026835607
-3.1263774e-08
1.1605708e-05
-0.0026793681
-1.5559697e-08
1.2900319e-05
-0.0026752068
1.0075608e-08
1.4139876e-05
-0.0026726209
4.6276091e-08
1.5312798e-05
-0.0026713694
9.3749479e-08
1.6406159e-05
-0.0026708901
1.5364582e-07
1.7405644e-05
-0.0026707818
2.2717253e-07
1.8296858e-05
-0.00267084
3.1500149e-07
1.9066134e-05
-0.0026709703
4.1667723e-07
1.9700998e-05
-0.0026711645
5.3067167e-07
2.0192185e-05
-0.0026713608
6.5429323e-07
2.0534377e-05
-0.0026715886
7.8415988e-07
2.0726086e-05
-0.0026718728
9.1594469e-07
2.077677e-05
-0.0026721943
1.0455155e-06
2.0670124e-05
-0.0026725308
1.1684729e-06
2.0442209e-05
-0.0026729061
1.2801197e-06
2.0101778e-05
-0.0026733175
1.3773502e-06
1.9665916e-05
-0.0026737632
1.4582644e-06
1.9152477e-05
-0.0026742683
1.5220245e-06
1.8579199e-05
-0.0026748032
1.5685524e-06
1.7962398e-05
-0.0026753726
1.5991663e-06
1.7316861e-05
-0.0026759488
1.6155375e-06
1.665546e-05
-0.0026765544
1.6197791e-06
1.5988332e-05
-0.0026772102
1.6140596e-06
1.5323434e-05
-0.0026778915
1.6005929e-06
1.4666551e-05
-0.0026785719
1.5812143e-06
1.4014847e-05
-0.0026792699
1.5578833e-06
1.3394824e-05
-0.0026800051
1.5322552e-06
1.2783223e-05
-0.0026807486
1.506111e-06
1.2186737e-05
-0.0026815045
1.4804797e-06
1.1605866e-05
-0.0026822451
1.4555606e-06
1.1039854e-05
-0.0026829905
1.4317387e-06
1.0485584e-05
-0.0026837581
1.4097031e-06
9.9405945e-06
-0.0026845235
1.3896135e-06
9.4044592e-06
-0.0026852638
1.3716386e-06
8.8765275e-06
-0.0026859957
1.3559929e-06
8.3524825e-06
-0.0026867325
1.3432628e-06
7.8213749e-06
-0.0026874436
1.3331043e-06
7.306178e-06
-0.002688145
1.3247926e-06
6.7825001e-06
-0.0026888747
1.318608e-06
6.2558856e-06
-0.0026897218
1.3144842e-06
5.7249478e-06
-0.0026908912
1.3121063e-06
5.1887355e-06
-0.0026927841
1.3114749e-06
4.6467727e-06
-0.0026959639
1.3124999e-06
4.0992489e-06
-0.0027006702
1.3147965e-06
3.5474054e-06
-0.0027053422
1.3168913e-06
2.9934604e-06
-0.0027038793
1.3162267e-06
2.4404611e-06
-0.0026826554
1.3083693e-06
1.8952871e-06
-0.0026224486
1.2849184e-06
1.3725944e-06
-0.0025130146
1.2340351e-06
8.8902776e-07
-0.0023750768
1.1579322e-06
-0.0022623303
1.0910528e-06
-9.1649285e-07
-0.0022630784
1.2101243e-06
-1.416646e-06
-0.002375861
1.2843258e-06
-1.9576057e-06
-0.002513841
1.3673075e-06
-2.5212213e-06
-0.0026233077
1.4227123e-06
-3.0913901e-06
-0.0026835338
1.4485448e-06
-3.662676e-06
-0.0027047651
1.4571183e-06
-4.2320301e-06
-0.0027062305
1.4577051e-06
-4.7967843e-06
-0.0027015607
1.4552899e-06
-5.3556574e-06
-0.0026968578
1.4526904e-06
-5.9085457e-06
-0.0026936826
1.4513883e-06
-6.4559261e-06
-0.0026917956
1.451843e-06
-6.9987397e-06
-0.002690633
1.4540901e-06
-7.5381721e-06
-0.0026897935
1.4581575e-06
-8.076335e-06
-0.0026890713
1.4644619e-06
-8.6225648e-06
-0.0026883706
1.473206e-06
-9.1546499e-06
-0.0026876846
1.484092e-06
-9.6909981e-06
-0.0026869567
1.4973723e-06
-1.0250307e-05
-0.0026862176
1.5130882e-06
-1.0809991e-05
-0.0026854948
1.5309676e-06
-1.1378714e-05
-0.0026847404
1.551009e-06
-1.1959794e-05
-0.0026839826
1.5731857e-06
-1.2556769e-05
-0.0026832453
1.597209e-06
-1.3177611e-05
-0.0026825058
1.6222034e-06
-1.3797917e-05
-0.0026817761
1.6477389e-06
-1.4441986e-05
-0.0026810349
1.673888e-06
-1.5102597e-05
-0.0026803087
1.6994403e-06
-1.5776228e-05
-0.002679621
1.7227437e-06
-1.6458243e-05
-0.0026789515
1.741958e-06
-1.7142901e-05
-0.0026782807
1.7551563e-06
-1.7822394e-05
-0.0026776354
1.7604636e-06
-1.8486255e-05
-0.0026770406
1.7556412e-06
-1.9121315e-05
-0.0026764759
1.7383467e-06
-1.9712244e-05
-0.0026759189
1.7065432e-06
-2.0242396e-05
-0.0026753966
1.6584803e-06
-2.0693883e-05
-0.0026749046
1.5929436e-06
-2.1048291e-05
-0.0026744728
1.5096934e-06
-2.128788e-05
-0.0026740761
1.4096422e-06
-2.1396477e-05
-0.0026737169
1.2946477e-06
-2.136158e-05
-0.0026733969
1.16778e-06
-2.1175245e-05
-0.0026730924
1.0332276e-06
-2.0834161e-05
-0.0026728256
8.9596495e-07
-2.0339382e-05
-0.0026726162
7.6068686e-07
-1.9696039e-05
-0.0026724396
6.3170212e-07
-1.8905986e-05
-0.0026722726
5.1220064e-07
-1.8004776e-05
-0.0026721462
4.0495771e-07
-1.6982973e-05
-0.0026721152
3.1152711e-07
-1.5862505e-05
-0.002672243
2.3234727e-07
-1.4657898e-05
-0.0026727411
1.6710741e-07
-1.3382203e-05
-0.0026740112
1.1460169e-07
-1.2047016e-05
-0.0026766159
7.3905194e-08
-1.0663226e-05
-0.002680796
4.4136829e-08
-9.2431117e-06
-0.0026850055
2.4766561e-08
-7.8009344e-06
-0.0026831965
1.5146802e-08
-6.3559502e-06
-0.0026618572
1.2526467e-08
-4.9379063e-06
-0.0026019247
1.6131257e-08
-3.5888892e-06
-0.0024932407
3.3215182e-08
-0.0023563534
6.8703617e-08
3.7411241e-06
-0.0023577609
1.1474874e-07
5.1413007e-06
-0.0024947232
8.2368287e-08
6.6127158e-06
-0.0026034628
6.6736199e-08
8.110938e-06
-0.0026634209
6.5420438e-08
9.6051881e-06
-0.0026847619
7.110034e-08
1.1074499e-05
-0.0026865594
8.4521817e-08
1.2503834e-05
-0.0026823337
1.0837658e-07
1.3880929e-05
-0.0026781364
1.4342532e-07
1.5194163e-05
-0.0026755142
1.8977331e-07
1.643154e-05
-0.0026742266
2.4810536e-07
1.7579804e-05
-0.0026737108
3.1954822e-07
1.8624711e-05
-0.0026735651
4.0497854e-07
1.9551605e-05
-0.0026735778
5.0470541e-07
2.0346641e-05
-0.0026736859
6.1832426e-07
2.0997926e-05
-0.0026738351
7.4425893e-07
2.1496085e-05
-0.0026739939
8.7949535e-07
2.1835745e-05
-0.0026741856
1.0202852e-06
2.2016071e-05
-0.0026744351
1.1624161e-06
2.2033844e-05
-0.002674716
1.3013464e-06
2.1921878e-05
-0.0026750371
1.4322224e-06
2.1669595e-05
-0.0026753747
1.55087e-06
2.1300377e-05
-0.0026757578
1.6541721e-06
2.0832465e-05
-0.0026761767
1.7399483e-06
2.0284695e-05
-0.0026766564
1.8075019e-06
1.9675302e-05
-0.0026771666
1.8571157e-06
1.9021245e-05
-0.0026777121
1.8902457e-06
1.8338343e-05
-0.0026782662
1.9084957e-06
1.7640026e-05
-0.0026788511
1.9140244e-06
1.6936968e-05
-0.0026794867
1.9090611e-06
1.6236931e-05
-0.0026801475
1.896075e-06
1.5546255e-05
-0.0026808076
1.8773552e-06
1.4869174e-05
-0.0026814863
1.8547261e-06
1.4208245e-05
-0.0026822036
1.8296109e-06
1.3563678e-05
-0.0026829348
1.8033298e-06
1.2934558e-05
-0.0026836536
1.7768844e-06
1.2321395e-05
-0.0026843833
1.7511799e-06
1.1724131e-05
-0.0026851124
1.7270938e-06
1.1148199e-05
-0.0026858698
1.7053353e-06
1.0567092e-05
-0.0026865995
1.6857944e-06
1.0008707e-05
-0.0026873277
1.6684806e-06
9.4402126e-06
-0.0026880416