/*--------------------------------*- C++ -*----------------------------------*\
| =========                 |                                                 |
| \\      /  F ield         | OpenFOAM: The Open Source CFD Toolbox           |
|  \\    /   O peration     | Version:  v2012                                 |
|   \\  /    A nd           | Website:  www.openfoam.com                      |
|    \\/     M anipulation  |                                                 |
\*---------------------------------------------------------------------------*/
FoamFile
{
    version     2.0;
    format      ascii;
    class       volVectorField;
    location    "200";
    object      U;
}
// * * * * * * * * * * * * * * * * * * * * * * * * * * * * * * * * * * * * * //

dimensions      [0 1 -1 0 0 0 0];


internalField   nonuniform List<vector> 
75632
(
(5.2283691 -0.0050030758 0.00086032741)
(5.2163352 -0.0050080971 0.00084317889)
(5.2042812 -0.0049800192 0.00082511136)
(5.1923072 -0.0049202435 0.00080650908)
(5.1804951 -0.0048305913 0.00078739374)
(5.1689273 -0.0047133435 0.00076800076)
(5.1576792 -0.004571078 0.0007484307)
(5.1468181 -0.0044067678 0.00072878618)
(5.1364027 -0.0042236569 0.0007091401)
(5.1264821 -0.0040252315 0.00068956268)
(5.1170955 -0.0038150899 0.00067010939)
(5.1082718 -0.0035968343 0.00065083276)
(5.1000299 -0.0033739736 0.00063177458)
(5.0923787 -0.0031498045 0.00061298329)
(5.0853183 -0.0029273362 0.00059449512)
(5.0788407 -0.0027092116 0.0005763496)
(5.0729309 -0.0024976728 0.00055856677)
(5.0675683 -0.002294541 0.00054117444)
(5.0627274 -0.0021012312 0.00052418886)
(5.0583796 -0.0019187548 0.00050762868)
(5.0544938 -0.0017477748 0.00049150646)
(5.0510376 -0.0015886254 0.00047583631)
(5.047978 -0.0014413801 0.0004606154)
(5.0452821 -0.0013058841 0.00044585925)
(5.0429181 -0.0011818086 0.00043156196)
(5.040855 -0.0010686913 0.0004177263)
(5.0390633 -0.00096597208 0.00040434225)
(5.0375155 -0.00087302607 0.00039141314)
(5.0361856 -0.00078919529 0.0003789278)
(5.0350497 -0.00071381402 0.00036688807)
(5.0340858 -0.00064620639 0.00035527596)
(5.0332738 -0.00058570382 0.00034408609)
(5.0325954 -0.00053166984 0.00033329795)
(5.032034 -0.00048350449 0.00032290547)
(5.0315747 -0.00044064526 0.000312892)
(5.0312041 -0.00040256579 0.00030325314)
(5.0309104 -0.00036877118 0.00029397592)
(5.0306828 -0.00033888074 0.0002850136)
(5.0305114 -0.00031218071 0.00027643946)
(5.0303893 -0.00028630024 0.00026887477)
(5.0303066 -0.00026326549 0.00026174056)
(5.0302603 -0.00024437383 0.00025429199)
(5.0302458 -0.00022995147 0.00024663527)
(4.9854722 8.830225e-05 0.00082711258)
(4.9875105 6.6869333e-05 0.00085736412)
(4.9896998 4.3903046e-05 0.00088950497)
(4.9920496 1.9996951e-05 0.00092424094)
(4.99457 -4.2578706e-06 0.00096280182)
(4.9972721 -2.869763e-05 0.0010069737)
(5.000167 -5.4356401e-05 0.0010544156)
(5.0032636 -8.1843828e-05 0.0011029313)
(5.0065693 -0.0001112894 0.0011520556)
(5.0100908 -0.00014278561 0.001200979)
(5.0138338 -0.00017619039 0.0012482575)
(5.0178022 -0.0002110132 0.0012956477)
(5.0219987 -0.00024636947 0.0013431687)
(5.0264242 -0.00028183717 0.0013904718)
(5.0310771 -0.00031696499 0.0014370165)
(5.035953 -0.00035122778 0.0014822491)
(5.0410442 -0.00038408114 0.0015255793)
(5.0463401 -0.00041494254 0.0015663875)
(5.0518263 -0.00044322286 0.0016040189)
(5.0574853 -0.00046829406 0.0016377843)
(5.0632954 -0.00048954907 0.0016669727)
(5.069232 -0.00050638156 0.0016908662)
(5.0752659 -0.00051820891 0.0017087513)
(5.0813648 -0.00052449051 0.0017199326)
(5.0874952 -0.00052479128 0.0017238311)
(5.0936156 -0.0005186818 0.001719889)
(5.0996883 -0.00050573549 0.0017074596)
(5.1056681 -0.00048563534 0.0016860618)
(5.1115101 -0.00045819267 0.0016553172)
(5.1171673 -0.00042326128 0.0016149275)
(5.1225921 -0.00038082898 0.0015646832)
(5.1277363 -0.00033097539 0.0015044656)
(5.127915 -0.0003246397 0.0046231015)
(5.1227502 -0.00037310471 0.0048080445)
(5.1173045 -0.00041417441 0.0049623959)
(5.1116265 -0.00044785599 0.0050865351)
(5.1057641 -0.00047418903 0.0051810939)
(5.0997647 -0.00049331909 0.0052470027)
(5.0936733 -0.00050545051 0.0052854811)
(5.0875354 -0.00051090637 0.0052979473)
(5.0813887 -0.00051010843 0.0052863313)
(5.0752752 -0.00050345978 0.0052524099)
(5.0692282 -0.00049142243 0.0051979512)
(5.0632802 -0.00047448616 0.0051251039)
(5.0574604 -0.00045327332 0.0050360331)
(5.0517936 -0.00042833345 0.0049329502)
(5.0463012 -0.00040030491 0.0048179855)
(5.041001 -0.00036979766 0.0046932378)
(5.0359071 -0.00033737701 0.004560761)
(5.0310301 -0.00030358857 0.0044224451)
(5.0263777 -0.00026899793 0.0042800361)
(5.0219541 -0.00023412173 0.0041352377)
(5.0177612 -0.0001993817 0.0039895358)
(5.013798 -0.00016524953 0.003843674)
(5.0100618 -0.00013212717 0.0036963621)
(5.0065476 -0.00010020302 0.0035498528)
(5.0032492 -6.9996162e-05 0.0034054346)
(5.0001599 -4.1679952e-05 0.0032637329)
(4.9972718 -1.5192371e-05 0.0031251964)
(4.9945758 1.0089908e-05 0.0029945607)
(4.9920615 3.4254996e-05 0.0028740255)
(4.9897188 5.7045603e-05 0.0027618246)
(4.9875375 7.8183074e-05 0.0026565528)
(4.9855082 9.7306101e-05 0.0025571391)
(5.0304392 -0.00022432198 0.00075850128)
(5.0305554 -0.00021855005 0.001312219)
(5.030559 -0.00021374708 0.0019079811)
(5.0304081 -0.0002102501 0.0025403758)
(5.0300788 -0.00020774895 0.0031936274)
(5.0295712 -0.00020617153 0.0038543769)
(5.0288959 -0.00020513057 0.0045129116)
(5.0280711 -0.00020434465 0.0051646538)
(5.0271121 -0.0002037344 0.0058076349)
(5.0260352 -0.00020347976 0.0064419394)
(5.0248528 -0.00020369079 0.0070685794)
(5.0235758 -0.00020461163 0.0076879893)
(5.023614 -0.00021931074 0.0079190799)
(5.0248819 -0.00021831 0.0072795894)
(5.0260564 -0.00021796889 0.006633198)
(5.027127 -0.0002181664 0.0059793583)
(5.0280806 -0.00021873188 0.0053166658)
(5.0289017 -0.00021944847 0.0046452788)
(5.0295745 -0.00022048484 0.0039669595)
(5.0300816 -0.00022206792 0.0032863588)
(5.0304118 -0.00022454685 0.0026134554)
(5.030565 -0.00022813737 0.0019622052)
(5.0305642 -0.00023299707 0.0013485771)
(5.0304511 -0.0002389938 0.00077802849)
(5.0304928 -0.00025697975 0.00080115215)
(5.0306013 -0.00024987687 0.0013881395)
(5.0305986 -0.00024456779 0.002019739)
(5.030443 -0.00024081224 0.0026900976)
(5.030112 -0.00023828361 0.0033830549)
(5.0296058 -0.00023670533 0.0040840527)
(5.0289354 -0.00023571696 0.0047829082)
(5.0281182 -0.00023506898 0.005474776)
(5.0271702 -0.00023454075 0.0061578613)
(5.0261061 -0.00023444298 0.0068320835)
(5.0249395 -0.00023485898 0.007498778)
(5.0236812 -0.00023595257 0.008159053)
(5.0210579 -0.00025984472 0.009756369)
(5.0224549 -0.00025676365 0.0090837217)
(5.0237829 -0.00025474116 0.0084075675)
(5.0250317 -0.00025350839 0.0077262076)
(5.0261904 -0.00025304422 0.0070386932)
(5.0272476 -0.00025308034 0.0063433798)
(5.0281898 -0.00025353718 0.0056391992)
(5.0290029 -0.0002541486 0.0049262134)
(5.0296706 -0.00025508026 0.0042060983)
(5.0301761 -0.00025666816 0.003484206)
(5.0305082 -0.00025936057 0.0027707044)
(5.0306663 -0.00026336863 0.0020805247)
(5.0306731 -0.00026907871 0.0014301015)
(5.0305691 -0.00027723151 0.00082676791)
(5.0306864 -0.00029993647 0.00085296798)
(5.0307859 -0.00029089599 0.0014740036)
(5.0307748 -0.00028474232 0.0021441222)
(5.0306137 -0.00028046343 0.0028550261)
(5.0302805 -0.00027760776 0.0035899602)
(5.0297758 -0.0002759575 0.0043335592)
(5.0291107 -0.00027503517 0.0050755932)
(5.0283018 -0.00027442528 0.0058103686)
(5.0273654 -0.00027404896 0.0065362747)
(5.0263153 -0.00027405375 0.0072532755)
(5.0251649 -0.00027463661 0.0079623698)
(5.0239255 -0.0002759466 0.0086652995)
(5.0226082 -0.00027804566 0.009363377)
(5.0212232 -0.00028119399 0.010058463)
(5.0154588 -0.00033059065 0.013272601)
(5.0170102 -0.00032236296 0.012536059)
(5.0185281 -0.00031543653 0.011808912)
(5.0200066 -0.0003097864 0.011088385)
(5.0214372 -0.00030533299 0.01037087)
(5.0228106 -0.00030207921 0.009653289)
(5.024117 -0.00029989622 0.008932924)
(5.025347 -0.00029853816 0.0082078218)
(5.0264887 -0.00029788656 0.0074763033)
(5.0275313 -0.00029779253 0.0067368849)
(5.0284618 -0.0002981321 0.0059885203)
(5.0292662 -0.00029867265 0.0052311759)
(5.0299288 -0.00029964111 0.0044665312)
(5.030433 -0.00030132493 0.0037002869)
(5.0307674 -0.00030438451 0.0029430832)
(5.0309315 -0.00030896958 0.0022104895)
(5.0309469 -0.0003155836 0.0015197334)
(5.0308524 -0.00032541107 0.00087956557)
(5.0310748 -0.00035417525 0.00090717518)
(5.0311644 -0.00034348324 0.0015673569)
(5.0311445 -0.00033632943 0.0022796107)
(5.0309772 -0.00033138478 0.0030346881)
(5.0306416 -0.00032820563 0.0038151086)
(5.030138 -0.00032646765 0.0046049411)
(5.0294781 -0.00032551817 0.0053931039)
(5.0286784 -0.00032495584 0.0061738825)
(5.0277539 -0.00032467446 0.0069454558)
(5.026719 -0.00032481029 0.0077080477)
(5.0255861 -0.00032551607 0.0084626757)
(5.024366 -0.00032695738 0.0092107563)
(5.0230706 -0.00032921655 0.0099539985)
(5.0217092 -0.00033254272 0.010694553)
(5.0202912 -0.00033710811 0.011435052)
(5.0188262 -0.00034283937 0.012178844)
(5.0173222 -0.00034987454 0.012929139)
(5.0157865 -0.00035817318 0.013689333)
(5.0068082 -0.00046488681 0.019217864)
(5.008369 -0.00045000539 0.018305974)
(5.0099385 -0.00043568417 0.017422262)
(5.0115101 -0.00042230834 0.016564219)
(5.0130791 -0.00041003378 0.015730169)
(5.0146382 -0.00039899012 0.01491628)
(5.0161822 -0.0003892207 0.014119594)
(5.0177026 -0.0003807821 0.013335631)
(5.0191923 -0.00037369192 0.012561726)
(5.0206437 -0.0003678418 0.011794274)
(5.0220486 -0.00036321488 0.011030131)
(5.0233978 -0.00035976158 0.010265944)
(5.0246821 -0.00035745172 0.0094990975)
(5.0258919 -0.00035594636 0.0087272343)
(5.0270157 -0.00035521355 0.0079486975)
(5.0280427 -0.00035499905 0.0071621496)
(5.028961 -0.00035526327 0.0063665872)
(5.0297562 -0.0003558259 0.0055615052)
(5.0304132 -0.00035676329 0.0047489041)
(5.0309161 -0.00035857677 0.0039346364)
(5.0312529 -0.00036194219 0.003130005)
(5.0314234 -0.00036721041 0.002351441)
(5.0314477 -0.0003749678 0.001616855)
(5.0313634 -0.00038665219 0.00093583396)
(5.0317285 -0.00042325345 0.00096561983)
(5.0318077 -0.00041045895 0.0016683012)
(5.0317787 -0.00040204271 0.0024260669)
(5.0316051 -0.00039637905 0.0032290607)
(5.0312668 -0.00039284262 0.0040588466)
(5.0307649 -0.00039092685 0.0048985028)
(5.0301108 -0.00038998811 0.0057364518)
(5.0293204 -0.0003894398 0.0065666837)
(5.0284086 -0.00038922792 0.0073871127)
(5.0273896 -0.00038949295 0.0081984361)
(5.026275 -0.00039025454 0.0090016624)
(5.0250757 -0.00039177454 0.009797981)
(5.0238029 -0.00039418467 0.010589237)
(5.0224662 -0.00039772463 0.011377804)
(5.0210746 -0.00040244068 0.012166267)
(5.0196373 -0.00040836101 0.012957996)
(5.0181621 -0.00041553936 0.013756068)
(5.0166573 -0.00042406618 0.014564246)
(5.0151293 -0.00043395436 0.015385316)
(5.0135869 -0.00044509123 0.016223844)
(5.0120349 -0.00045749177 0.017082429)
(5.0104812 -0.00047094881 0.017965215)
(5.0089302 -0.00048537743 0.018873866)
(5.0073892 -0.00050034291 0.019811183)
(5.0058616 -0.00051538294 0.020776369)
(5.0036061 -0.00058322899 0.023475529)
(5.0050678 -0.00056976866 0.022432823)
(5.006555 -0.00055508543 0.02141408)
(5.008062 -0.00053995878 0.020422469)
(5.009584 -0.0005249553 0.019459647)
(5.0111164 -0.00051046096 0.018525469)
(5.0126522 -0.00049689897 0.017617372)
(5.0141867 -0.00048440234 0.016733529)
(5.0157123 -0.00047316055 0.015869894)
(5.0172238 -0.000463178 0.015023793)
(5.0187129 -0.00045455897 0.014190723)
(5.0201732 -0.00044724813 0.013367767)
(5.0215964 -0.00044128051 0.012551236)
(5.0229742 -0.00043651396 0.0117377)
(5.0242982 -0.00043289373 0.010924074)
(5.0255592 -0.00043043421 0.010107675)
(5.0267478 -0.00042884594 0.0092860901)
(5.0278527 -0.00042804585 0.0084573735)
(5.0288636 -0.00042773729 0.0076204975)
(5.0297687 -0.00042792122 0.0067742548)
(5.030554 -0.00042843192 0.0059180082)
(5.0312051 -0.0004294354 0.0050538427)
(5.0317059 -0.00043142528 0.0041878126)
(5.0320455 -0.00043518675 0.0033319875)
(5.0322223 -0.00044126431 0.0025035981)
(5.032256 -0.00045040672 0.0017217514)
(5.0321824 -0.00046445007 0.00099657362)
(5.0327381 -0.000510755 0.0010287151)
(5.0328062 -0.00049531692 0.0017772685)
(5.0327678 -0.00048535906 0.0025841042)
(5.0325877 -0.00047883675 0.0034388064)
(5.0322469 -0.00047488224 0.0043216331)
(5.0317474 -0.00047272831 0.0052149924)
(5.0310992 -0.00047173563 0.00610635)
(5.0303193 -0.00047117197 0.0069895173)
(5.029421 -0.00047104715 0.0078624833)
(5.0284185 -0.00047135814 0.0087257024)
(5.0273235 -0.00047221603 0.0095806164)
(5.026146 -0.00047385019 0.010428292)
(5.024897 -0.00047636153 0.011270538)
(5.023586 -0.00048006056 0.012109915)
(5.0222222 -0.00048485289 0.012949124)
(5.0208135 -0.00049091683 0.013791221)
(5.0193684 -0.0004983125 0.014639663)
(5.0178953 -0.00050699685 0.015498273)
(5.0164003 -0.00051708561 0.016369968)
(5.0148918 -0.00052841024 0.017259338)
(5.0133748 -0.00054101871 0.018169021)
(5.0118572 -0.00055466356 0.019103139)
(5.0103435 -0.00056923632 0.020063452)
(5.0088407 -0.00058433113 0.021052554)
(5.0073538 -0.00059952486 0.022070595)
(5.0058876 -0.00061420508 0.02311659)
(5.0044477 -0.0006277429 0.024186732)
(5.0030392 -0.00063919595 0.025275769)
(5.0016666 -0.00064764037 0.02637471)
(5.0003342 -0.00065170578 0.027471593)
(4.9990459 -0.00065039759 0.028549527)
(4.9978055 -0.00064244254 0.029589133)
(4.9855651 0.00010774288 0.0044362266)
(4.9856502 0.00011292372 0.0064748671)
(4.9857629 0.00011540478 0.008644154)
(4.9859017 0.00011761775 0.010889986)
(4.986066 0.0001196895 0.01316226)
(4.9862553 0.00012028924 0.015424695)
(4.9864702 0.00011772316 0.017653305)
(4.9867123 0.00011074356 0.0198315)
(4.9869841 9.8348921e-05 0.021942879)
(4.9872883 7.97303e-05 0.02396928)
(4.9876276 5.4007737e-05 0.025888876)
(4.9880056 2.0481902e-05 0.027677873)
(4.988425 -2.1252827e-05 0.029308954)
(4.9888891 -7.1156399e-05 0.030755157)
(4.9894017 -0.00012835541 0.031991367)
(4.9899661 -0.00019152202 0.032996506)
(4.9905849 -0.00025882402 0.033753601)
(4.9912613 -0.00032795813 0.03425458)
(4.9919981 -0.0003963467 0.034497459)
(4.9927973 -0.00046144656 0.034490995)
(4.9936594 -0.00052087269 0.034250085)
(4.9945842 -0.00057295631 0.03379826)
(4.9955712 -0.00061633785 0.033162014)
(4.9966192 -0.00065038997 0.03237358)
(4.9977255 -0.00067519228 0.031462435)
(4.9988876 -0.00069128224 0.030460352)
(5.0001016 -0.0006995281 0.029393431)
(5.0013649 -0.00070105906 0.028287607)
(5.0026734 -0.00069707926 0.027162683)
(5.0040232 -0.00068877805 0.026035706)
(5.0054094 -0.00067734663 0.024918299)
(5.0068279 -0.00066384298 0.023820389)
(5.0082733 -0.0006490937 0.022746787)
(5.0097404 -0.00063385223 0.021701642)
(5.0112238 -0.00061869563 0.020685466)
(5.0127186 -0.00060406589 0.019698256)
(5.014218 -0.00059031466 0.018737545)
(5.0157172 -0.00057762535 0.017801372)
(5.0172086 -0.00056619935 0.016885724)
(5.0186868 -0.00055604689 0.015987778)
(5.0201437 -0.00054725852 0.015103023)
(5.0215735 -0.00053980122 0.014228546)
(5.0229673 -0.00053367367 0.013360157)
(5.0243169 -0.0005288508 0.012494607)
(5.0256145 -0.00052509873 0.011628787)
(5.0268511 -0.00052251749 0.01075998)
(5.0280173 -0.00052087282 0.0098855499)
(5.0291022 -0.00051999566 0.0090036408)
(5.0300961 -0.00051963828 0.0081131956)
(5.030987 -0.00051976668 0.0072125876)
(5.0317617 -0.00052029963 0.006301572)
(5.0324064 -0.00052132802 0.0053820557)
(5.0329049 -0.00052359692 0.0044604641)
(5.0332467 -0.00052781977 0.0035496221)
(5.0334299 -0.00053483881 0.0026676388)
(5.0334732 -0.00054570749 0.0018348879)
(5.0334108 -0.00056270658 0.0010620869)
(5.0342169 -0.0006208853 0.0010967153)
(5.0342736 -0.00060214682 0.0018946707)
(5.0342254 -0.00059026791 0.0027542841)
(5.0340389 -0.0005827124 0.0036645138)
(5.0336961 -0.00057818843 0.0046043985)
(5.033199 -0.00057578583 0.0055552262)
(5.0325577 -0.00057473218 0.0065038038)
(5.0317887 -0.00057422802 0.0074436072)
(5.0309052 -0.00057408677 0.0083726939)
(5.0299204 -0.00057441574 0.009291288)
(5.0288458 -0.00057532493 0.010200957)
(5.0276913 -0.00057701338 0.011102928)
(5.0264674 -0.00057963092 0.011998998)
(5.0251833 -0.00058338348 0.01289186)
(5.0238482 -0.00058825908 0.013784319)
(5.0224695 -0.00059444618 0.01467959)
(5.0210554 -0.00060199535 0.015580807)
(5.0196149 -0.00061082941 0.016492244)
(5.0181536 -0.00062106649 0.017416971)
(5.0166795 -0.00063255866 0.01835947)
(5.0151982 -0.00064534407 0.019322661)
(5.0137171 -0.00065917429 0.020310558)
(5.0122411 -0.00067388274 0.021325265)
(5.010777 -0.00068909254 0.022369189)
(5.0093298 -0.00070437879 0.023442411)
(5.007905 -0.00071914703 0.024544448)
(5.0065075 -0.00073267346 0.025670886)
(5.0051434 -0.00074404216 0.026817413)
(5.0038164 -0.00075228385 0.027973369)
(5.0025316 -0.00075604937 0.0291275)
(5.0012927 -0.00075426993 0.030261956)
(5.0001045 -0.00074567586 0.031357022)
(4.9989694 -0.00072908162 0.032386863)
(4.9978915 -0.00070369793 0.03332414)
(4.9968731 -0.00066887164 0.034137)
(4.9959171 -0.00062447867 0.034794955)
(4.9950246 -0.00057123901 0.035265297)
(4.9941963 -0.00051046752 0.035520953)
(4.9934323 -0.0004438107 0.035537445)
(4.9927319 -0.00037367734 0.035299608)
(4.9920931 -0.00030270271 0.034797587)
(4.9915127 -0.00023341084 0.034033395)
(4.9909874 -0.00016824103 0.033014195)
(4.9905142 -0.00010893593 0.03175724)
(4.9900895 -5.683303e-05 0.030282831)
(4.9897094 -1.2956326e-05 0.028616662)
(4.9893701 2.2560781e-05 0.026785225)
(4.9890681 5.0226752e-05 0.024816554)
(4.9888 7.0725427e-05 0.022734464)
(4.9885624 8.4834144e-05 0.020561103)
(4.9883525 9.3443979e-05 0.018315229)
(4.9881675 9.7444536e-05 0.016013381)
(4.9880053 9.816839e-05 0.01367304)
(4.9878654 9.7294251e-05 0.011318948)
(4.9877478 9.6252829e-05 0.0089888167)
(4.9876527 9.505447e-05 0.0067349351)
(4.9875827 9.0231014e-05 0.0046133228)
(4.9897528 7.0719153e-05 0.0047976624)
(4.9898082 7.5483777e-05 0.0070080292)
(4.9898855 7.5118314e-05 0.0093501331)
(4.9899818 7.4858848e-05 0.011768523)
(4.9900973 7.4373205e-05 0.01420815)
(4.9902321 7.2195855e-05 0.016629915)
(4.9903872 6.652277e-05 0.019008164)
(4.9905647 5.6103621e-05 0.021324591)
(4.9907676 4.0004142e-05 0.023562438)
(4.9909994 1.7368366e-05 0.025702059)
(4.9912637 -1.252671e-05 0.027721586)
(4.9915641 -5.0376389e-05 0.02959618)
(4.9919047 -9.6630263e-05 0.031298302)
(4.9922898 -0.00015110701 0.032801124)
(4.9927233 -0.00021278209 0.034078907)
(4.9932092 -0.00028021522 0.035111384)
(4.993751 -0.00035168767 0.035881899)
(4.9943522 -0.00042471272 0.036383544)
(4.9950162 -0.00049669357 0.03661513)
(4.9957453 -0.00056512359 0.036586758)
(4.9965399 -0.00062738209 0.036314769)
(4.9974003 -0.00068184402 0.035823955)
(4.998326 -0.00072730494 0.035142799)
(4.999315 -0.00076303456 0.034303817)
(5.0003651 -0.00078906278 0.033338986)
(5.0014735 -0.0008061595 0.032280089)
(5.0026366 -0.00081517554 0.031155676)
(5.0038511 -0.00081720185 0.029990861)
(5.0051129 -0.00081360144 0.028806792)
(5.0064175 -0.00080550692 0.027620587)
(5.0077601 -0.00079418141 0.026444221)
(5.0091367 -0.00078067504 0.025288188)
(5.0105412 -0.00076587741 0.024157014)
(5.0119687 -0.00075053368 0.023054965)
(5.0134139 -0.00073527472 0.021982839)
(5.014871 -0.0007205187 0.020939937)
(5.0163339 -0.00070659998 0.019924381)
(5.0177972 -0.00069376393 0.018933596)
(5.0192539 -0.00068218673 0.017963782)
(5.0206981 -0.00067191027 0.017011723)
(5.0221222 -0.00066300777 0.016073063)
(5.0235202 -0.00065542126 0.015144524)
(5.0248834 -0.00064918107 0.014221818)
(5.0262039 -0.00064426732 0.013301833)
(5.027474 -0.00064048746 0.012381289)
(5.0286851 -0.00063785579 0.011457261)
(5.0298274 -0.00063617782 0.010526933)
(5.0308913 -0.00063523874 0.0095886968)
(5.031867 -0.00063491409 0.0086411521)
(5.0327427 -0.0006350306 0.0076827214)
(5.0335061 -0.00063554742 0.0067132828)
(5.0341435 -0.00063665577 0.0057346297)
(5.0346393 -0.00063921694 0.0047535717)
(5.0349829 -0.00064409333 0.0037836194)
(5.0351725 -0.00065223243 0.0028441126)
(5.0352256 -0.00066522029 0.001956653)
(5.0351748 -0.00068589 0.0011326434)
(5.0363045 -0.00075836077 0.001169901)
(5.0363496 -0.00073555204 0.0020208963)
(5.0362915 -0.00072134213 0.0029372062)
(5.0360987 -0.00071256199 0.0039069947)
(5.0357543 -0.00070731415 0.0049080561)
(5.0352601 -0.00070457726 0.0059203696)
(5.0346266 -0.00070337385 0.0069300535)
(5.0338692 -0.00070287124 0.0079300944)
(5.0330015 -0.00070274023 0.0089187074)
(5.0320355 -0.00070307374 0.0098960791)
(5.0309825 -0.00070401224 0.010863643)
(5.0298525 -0.00070566908 0.011822992)
(5.0286548 -0.00070833315 0.012775723)
(5.027399 -0.00071205654 0.013724608)
(5.0260932 -0.00071701292 0.014672682)
(5.0247457 -0.00072327141 0.015623309)
(5.0233639 -0.00073091208 0.016579664)
(5.0219565 -0.00073984679 0.017546053)
(5.0205295 -0.00075016055 0.018525868)
(5.0190903 -0.00076179425 0.019523461)
(5.0176449 -0.00077467878 0.020542253)
(5.0162001 -0.00078865858 0.021585971)
(5.0147617 -0.00080345059 0.022657441)
(5.0133354 -0.00081880385 0.023758463)
(5.0119273 -0.00083418828 0.024889881)
(5.0105427 -0.00084895283 0.026050911)
(5.0091864 -0.0008624735 0.027237238)
(5.007865 -0.00087371391 0.028444438)
(5.0065821 -0.000881674 0.029661755)
(5.0053429 -0.00088511042 0.030877293)
(5.0041519 -0.00088274425 0.032073305)
(5.0030132 -0.00087333789 0.033228767)
(5.0019307 -0.00085570164 0.034318098)
(5.0009077 -0.00082887571 0.035312225)
(4.9999471 -0.00079219745 0.036178806)
(4.9990514 -0.00074562899 0.036885284)
(4.9982226 -0.00068979623 0.03739813)
(4.9974609 -0.00062580516 0.037688377)
(4.9967661 -0.00055556952 0.037730023)
(4.9961382 -0.00048148336 0.037506645)
(4.9955743 -0.00040621816 0.037006323)
(4.9950708 -0.00033231563 0.036230912)
(4.9946241 -0.00026234196 0.03518554)
(4.9942301 -0.00019799077 0.033887634)
(4.9938847 -0.00014082053 0.032356166)
(4.9935833 -9.1914025e-05 0.030617488)
(4.9933217 -5.1432716e-05 0.028698233)
(4.993095 -1.9055645e-05 0.026626468)
(4.9928994 5.987404e-06 0.024427033)
(4.9927309 2.4374159e-05 0.022122466)
(4.9925857 3.6873258e-05 0.019732387)
(4.9924605 4.443386e-05 0.017274682)
(4.9923529 4.8285887e-05 0.014767852)
(4.9922616 5.0248978e-05 0.012239009)
(4.9921863 5.1880034e-05 0.0097285468)
(4.9921272 5.3716827e-05 0.0072948854)
(4.9920857 4.9080968e-05 0.0049917425)
(4.9945915 2.5082862e-05 0.005198354)
(4.9946197 2.9388289e-05 0.0075956339)
(4.9946608 2.6403949e-05 0.010124269)
(4.9947154 2.3400604e-05 0.012730133)
(4.994783 1.9828308e-05 0.015351958)
(4.994864 1.4084926e-05 0.017947236)
(4.9949599 4.3826804e-06 0.020487749)
(4.9950735 -1.047561e-05 0.022954235)
(4.9952082 -3.1413791e-05 0.025328133)
(4.9953682 -5.9180822e-05 0.027589556)
(4.9955578 -9.4457109e-05 0.029715168)
(4.9957813 -0.00013784099 0.031679963)
(4.9960439 -0.00018973273 0.033455838)
(4.9963504 -0.0002498667 0.035015691)
(4.9967056 -0.00031718515 0.036333955)
(4.9971138 -0.00039007634 0.037391005)
(4.9975798 -0.00046667548 0.0381707)
(4.9981072 -0.00054446622 0.038667847)
(4.9987 -0.00062085568 0.038881891)
(4.9993613 -0.00069313537 0.038824996)
(5.000091 -0.00075886308 0.038514619)
(5.0008896 -0.00081622599 0.037978079)
(5.0017563 -0.00086404938 0.037244508)
(5.0026895 -0.00090180562 0.03634849)
(5.0036865 -0.00092941526 0.035323384)
(5.0047443 -0.00094768915 0.03420228)
(5.0058592 -0.00095757182 0.033014126)
(5.0070278 -0.00096022916 0.031785698)
(5.0082452 -0.00095701313 0.030537692)
(5.009507 -0.00094922681 0.029288171)
(5.0108082 -0.00093805224 0.02804945)
(5.0121447 -0.00092457614 0.026832025)
(5.0135099 -0.00090978924 0.025640514)
(5.0148991 -0.00089439472 0.024479344)
(5.0163066 -0.00087900498 0.02334883)
(5.0177267 -0.0008641422 0.022248368)
(5.0191535 -0.00085011153 0.02117616)
(5.0205809 -0.000837208 0.02012892)
(5.0220027 -0.00082552505 0.019103211)
(5.0234123 -0.00081520503 0.018095181)
(5.024803 -0.00080624091 0.017100688)
(5.0261683 -0.00079860307 0.016116029)
(5.0274998 -0.00079234138 0.015136941)
(5.0287904 -0.00078736958 0.014160184)
(5.030032 -0.00078364644 0.013182413)
(5.031216 -0.00078103332 0.012200273)
(5.0323333 -0.00077937971 0.011211215)
(5.033375 -0.00077847647 0.010213533)
(5.0343311 -0.00077814132 0.0092055605)
(5.0351907 -0.00077830119 0.0081859229)
(5.0359418 -0.00077882643 0.0071542866)
(5.036571 -0.00078012188 0.0061125723)
(5.0370637 -0.00078304368 0.0050679948)
(5.0374086 -0.00078871554 0.0040347728)
(5.0376045 -0.00079821237 0.0030336508)
(5.0376674 -0.00081376969 0.0020874453)
(5.0376283 -0.00083893567 0.001208532)
(5.0391699 -0.00092828318 0.001248552)
(5.0392032 -0.00090050636 0.0021563751)
(5.0391354 -0.00088345917 0.0031335245)
(5.0389365 -0.00087317236 0.0041670224)
(5.038591 -0.00086703141 0.0052334709)
(5.0381002 -0.00086388422 0.006311342)
(5.0374754 -0.00086249898 0.0073860518)
(5.0367308 -0.00086193577 0.0084502432)
(5.0358797 -0.0008617549 0.0095018378)
(5.0349339 -0.00086205252 0.01054121)
(5.0339039 -0.00086292518 0.011569745)
(5.0327994 -0.00086453925 0.012589198)
(5.0316294 -0.00086707611 0.013601371)
(5.0304025 -0.00087077565 0.014608676)
(5.0291273 -0.00087574146 0.015614565)
(5.0278118 -0.00088198004 0.016622547)
(5.0264632 -0.00088960448 0.017635914)
(5.0250894 -0.00089856293 0.018658883)
(5.0236971 -0.00090885982 0.019695404)
(5.0222928 -0.00092055568 0.020749547)
(5.0208831 -0.00093347996 0.021825429)
(5.0194742 -0.00094756037 0.022926567)
(5.0180722 -0.00096247404 0.024056243)
(5.016683 -0.00097785883 0.025216566)
(5.0153123 -0.00099328662 0.026408041)
(5.0139658 -0.0010080476 0.027630481)
(5.0126484 -0.0010215077 0.028879534)
(5.0113666 -0.0010325704 0.030150534)
(5.0101249 -0.001040178 0.031433001)
(5.0089283 -0.0010431473 0.032714496)
(5.007781 -0.001040141 0.03397663)
(5.0066884 -0.0010297273 0.035198596)
(5.005654 -0.0010107638 0.0363532)
(5.0046816 -0.00098224353 0.037410786)
(5.0037742 -0.00094340532 0.038337803)
(5.0029351 -0.00089419992 0.039100307)
(5.0021655 -0.00083520731 0.039662635)
(5.0014663 -0.00076749853 0.039995125)
(5.0008372 -0.00069297773 0.040068813)
(5.0002781 -0.00061404905 0.039866007)
(4.9997856 -0.00053345055 0.039373213)
(4.9993558 -0.00045381279 0.038590689)
(4.9989846 -0.00037776064 0.037522302)
(4.998667 -0.00030710528 0.036184643)
(4.9983982 -0.00024360662 0.034595856)
(4.9981732 -0.00018839413 0.032782558)
(4.9979866 -0.00014168859 0.030770956)
(4.9978327 -0.0001031971 0.028590074)
(4.9977071 -7.234062e-05 0.026264807)
(4.9976051 -4.8510178e-05 0.023819171)
(4.9975221 -3.0992328e-05 0.021273394)
(4.9974542 -1.8889434e-05 0.018646899)
(4.9973988 -1.1034675e-05 0.015959649)
(4.9973538 -5.7259047e-06 0.013241322)
(4.9973191 -1.3548701e-06 0.010536911)
(4.9972951 2.3202179e-06 0.0079098457)
(4.9972794 -1.172593e-06 0.0054190197)
(5.0001588 -2.9187522e-05 0.0056532583)
(5.0001624 -2.7036145e-05 0.0082384346)
(5.0001708 -3.1338586e-05 0.01096529)
(5.0001873 -3.7046518e-05 0.013771469)
(5.0002111 -4.4254868e-05 0.016589853)
(5.0002428 -5.4467458e-05 0.019372289)
(5.0002842 -6.9255252e-05 0.022088027)
(5.0003384 -8.9768412e-05 0.024715665)
(5.0004097 -0.00011685327 0.02723551)
(5.0005028 -0.00015114414 0.029626504)
(5.0006228 -0.00019327574 0.031864346)
(5.0007745 -0.0002437381 0.033923278)
(5.0009639 -0.00030271355 0.035774866)
(5.0011969 -0.00036990926 0.037392132)
(5.0014791 -0.00044420704 0.038749416)
(5.0018153 -0.0005238564 0.039828012)
(5.002211 -0.00060685887 0.040612422)
(5.0026705 -0.00069055771 0.041099098)
(5.003198 -0.00077230879 0.041289294)
(5.0037969 -0.00084932758 0.041196419)
(5.0044676 -0.00091912755 0.040840544)
(5.0052103 -0.00097998783 0.0402503)
(5.006024 -0.001030712 0.039457334)
(5.0069072 -0.0010707316 0.038497345)
(5.0078568 -0.0011001599 0.037405856)
(5.0088693 -0.0011199032 0.036216271)
(5.0099414 -0.0011308903 0.0349595)
(5.0110686 -0.0011343359 0.0336624)
(5.0122458 -0.0011316299 0.032346619)
(5.0134687 -0.0011242116 0.03103039)
(5.0147323 -0.0011132824 0.029726672)
(5.0160314 -0.001099907 0.0284454)
(5.0173599 -0.0010851541 0.027191712)
(5.0187128 -0.0010697631 0.025969555)
(5.0200842 -0.0010543485 0.02477918)
(5.0214686 -0.0010394196 0.023620137)
(5.0228597 -0.0010253458 0.022489822)
(5.0242517 -0.0010124197 0.021385063)
(5.0256387 -0.0010007014 0.020302237)
(5.0270137 -0.00099043963 0.019236999)
(5.0283706 -0.00098152348 0.018185325)
(5.0297024 -0.00097396429 0.01714286)
(5.0310015 -0.00096776328 0.016105596)
(5.0322612 -0.00096284024 0.015070095)
(5.0334731 -0.00095919095 0.014032673)
(5.0346288 -0.00095673488 0.012989892)
(5.0357202 -0.00095518837 0.011939434)
(5.0367382 -0.00095439872 0.010879253)
(5.0376735 -0.00095415479 0.009807644)
(5.0385157 -0.00095439879 0.0087231966)
(5.0392536 -0.00095499864 0.0076255318)
(5.0398738 -0.00095649393 0.0065168104)
(5.0403626 -0.00095987848 0.0054045657)
(5.0407085 -0.00096650839 0.0043038363)
(5.0409102 -0.00097768122 0.0032369006)
(5.0409828 -0.00099636491 0.0022277215)
(5.0409554 -0.001027021 0.0012899951)
(5.0430123 -0.0011357724 0.0013328768)
(5.043034 -0.001101944 0.0023015341)
(5.0429567 -0.0010814629 0.0033437944)
(5.0427522 -0.0010693306 0.0044452775)
(5.042406 -0.0010621809 0.0055813662)
(5.0419195 -0.0010585102 0.0067290652)
(5.0413041 -0.0010569118 0.0078728016)
(5.0405733 -0.0010562305 0.0090048906)
(5.0397402 -0.0010559367 0.01012306)
(5.0388157 -0.0010560658 0.011227726)
(5.03781 -0.0010567461 0.012320264)
(5.036732 -0.0010582128 0.013402386)
(5.0355907 -0.0010605695 0.014476298)
(5.0343941 -0.0010641186 0.015544402)
(5.0331503 -0.0010689574 0.016609967)
(5.0318675 -0.0010750804 0.017676822)
(5.0305526 -0.001082529 0.018748583)
(5.0292127 -0.0010913815 0.019829215)
(5.0278549 -0.0011016071 0.020923251)
(5.0264852 -0.0011132907 0.022034978)
(5.0251105 -0.0011261987 0.023168636)
(5.0237367 -0.0011402309 0.024328185)
(5.0223696 -0.0011551588 0.025516753)
(5.0210154 -0.0011705103 0.026737289)
(5.0196796 -0.0011858747 0.027990147)
(5.0183681 -0.0012005887 0.029275376)
(5.0170861 -0.001213858 0.03058906)
(5.0158397 -0.0012246688 0.031926067)
(5.0146342 -0.001231866 0.03327652)
(5.0134747 -0.0012341956 0.03462736)
(5.0123657 -0.0012302886 0.035960121)
(5.0113124 -0.001218714 0.037252994)
(5.0103194 -0.00119817 0.038478612)