/*--------------------------------*- C++ -*----------------------------------*\
| =========                 |                                                 |
| \\      /  F ield         | OpenFOAM: The Open Source CFD Toolbox           |
|  \\    /   O peration     | Version:  v2012                                 |
|   \\  /    A nd           | Website:  www.openfoam.com                      |
|    \\/     M anipulation  |                                                 |
\*---------------------------------------------------------------------------*/
FoamFile
{
    version     2.0;
    format      ascii;
    class       volScalarField;
    location    "100";
    object      k;
}
// * * * * * * * * * * * * * * * * * * * * * * * * * * * * * * * * * * * * * //

dimensions      [0 2 -2 0 0 0 0];


internalField   nonuniform List<scalar> 
48533
(
0.25709948
0.26198074
0.26667895
0.27117445
0.27550601
0.27964916
0.28359506
0.2873411
0.2908857
0.29420338
0.29731257
0.30023149
0.30294477
0.30546276
0.30781342
0.31000909
0.31207187
0.31402943
0.3159084
0.31773923
0.3195453
0.32134697
0.32315995
0.32499424
0.32685634
0.32875025
0.33067762
0.26912038
0.26881368
0.26790426
0.26725571
0.26499592
0.26185124
0.26054151
0.26369891
0.27081333
0.27134247
0.27125501
0.27094912
0.26971133
0.26920041
0.26800792
0.2646853
0.26257986
0.26478761
0.27111256
0.27073336
0.26682147
0.26297729
0.26044313
0.26201969
0.26792055
0.26723418
0.26241744
0.25756152
0.25318642
0.25245821
0.25749878
0.25352387
0.248929
0.24753942
0.2518725
0.25164493
0.25428403
0.25865334
0.26389939
0.26382221
0.27054803
0.27696447
0.28308607
0.28838298
0.29385944
0.30222691
0.31325476
0.32482615
0.33615859
0.34736153
0.35869027
0.37027743
0.3823975
0.39489295
0.4075754
0.42023924
0.43299433
0.44559817
0.45772123
0.46908011
0.47837882
0.48786065
0.49979111
0.51189465
0.52082089
0.53243742
0.54141509
0.55421526
0.56847889
0.58182048
0.59536858
0.61105658
0.62376543
0.63486204
0.64533854
0.66226644
0.66472164
0.65946803
0.64615492
0.64347288
0.62872244
0.60693288
0.60906794
0.58001705
0.57826168
0.54221551
0.49192972
0.43885333
0.42988606
0.42116432
0.44045708
0.45753627
0.47284478
0.52970893
0.5614565
0.58714097
0.60324499
0.59736855
0.61810678
0.62434443
0.62165064
0.63975398
0.6370455
0.65065186
0.66137901
0.66208461
0.64747368
0.63762779
0.62724576
0.61493989
0.60166147
0.58707085
0.58470354
0.57178082
0.55797967
0.5432287
0.52562197
0.50990836
0.49499213
0.48273325
0.47284401
0.46180932
0.45000316
0.43774828
0.42522354
0.41263963
0.40015991
0.38774664
0.3755228
0.36380062
0.35246607
0.34129835
0.33049038
0.31980573
0.30884237
0.29817402
0.28921033
0.28927266
0.28362935
0.27785115
0.27225192
0.26583763
0.25977003
0.25428834
0.24901577
0.24505554
0.24376859
0.24131799
0.23723528
0.244419
0.24788029
0.24427975
0.23895031
0.24835047
0.25339651
0.25721603
0.25818837
0.25272594
0.24642245
0.25364195
0.25739041
0.26039714
0.26106727
0.25499127
0.24831051
0.25509466
0.25827594
0.25954374
0.26021702
0.2611339
0.26140685
0.26106374
0.26039786
0.25350932
0.24640981
0.25204205
0.25501555
0.2571768
0.25813638
0.25896826
0.25937793
0.33057413
0.32859716
0.32663739
0.32469044
0.32275039
0.32080994
0.31885958
0.31688841
0.31488253
0.31282689
0.31070394
0.30849611
0.30618409
0.30375124
0.30117677
0.29844495
0.29553937
0.2924497
0.28916649
0.2856902
0.28201218
0.27814042
0.27407092
0.26981876
0.2653837
0.26078239
0.25599875
0.2457941
0.24568099
0.24564015
0.24560455
0.24552565
0.24530456
0.24517357
0.24500138
0.2448307
0.24462378
0.24460285
0.24450271
0.24459608
0.24450593
0.24441361
0.24421081
0.24394187
0.24358252
0.24848734
0.24850394
0.24862106
0.2487776
0.24886264
0.24920277
0.24943582
0.24962446
0.24973065
0.24984542
0.24977229
0.24986623
0.24990121
0.25008198
0.25028446
0.25042478
0.25057201
0.25076319
0.25083202
0.2508523
0.25095083
0.25104675
0.25119581
0.25121185
0.25642192
0.25632387
0.25629147
0.25612503
0.25606587
0.25591687
0.25589238
0.25583833
0.25568223
0.25550267
0.2554096
0.25516728
0.25501508
0.25496156
0.2548844
0.25493131
0.25478028
0.25469795
0.25451301
0.25430103
0.25398298
0.25391796
0.25374955
0.25365845
0.25362619
0.25357868
0.25357059
0.253588
0.25370317
0.25373163
0.25386266
0.253876
0.25399813
0.25473413
0.25960712
0.25893634
0.25881892
0.25881045
0.25869504
0.25866576
0.25858908
0.25858887
0.25858302
0.25857367
0.2586429
0.25870804
0.25888785
0.2589639
0.25926261
0.25948234
0.25964225
0.25970763
0.25986451
0.25985279
0.25991264
0.25998952
0.26010463
0.26036534
0.26045477
0.26061915
0.26076495
0.26080231
0.26085704
0.26101442
0.26108319
0.26122049
0.26128513
0.26141526
0.26620604
0.266083
0.26599978
0.26588703
0.2658011
0.26565481
0.26556818
0.26552212
0.26537875
0.26525347
0.26514573
0.26488087
0.26481633
0.26470876
0.26467001
0.26466577
0.26451051
0.26444043
0.26430926
0.26406921
0.26378851
0.2637083
0.26353945
0.26348794
0.26337098
0.26341187
0.26342283
0.26341367
0.26348116
0.26349388
0.26357355
0.263573
0.26369342
0.26431301
0.26882887
0.26828489
0.26815774
0.26817188
0.26809385
0.26809473
0.26805692
0.26805184
0.26805151
0.26802417
0.26814916
0.26820592
0.26836465
0.26845196
0.26870818
0.26894809
0.2690725
0.26915414
0.26930383
0.26932625
0.26933838
0.2694613
0.26952019
0.26976497
0.2698662
0.26997494
0.27011695
0.27019366
0.27026832
0.27041664
0.27052713
0.27061604
0.2707301
0.27504814
0.2749907
0.27483669
0.27469548
0.27465777
0.27455315
0.27439458
0.2743012
0.27420524
0.27398612
0.2739134
0.27378573
0.27380944
0.27376334
0.27362089
0.27351699
0.27338933
0.27316459
0.27293483
0.27284166
0.27269383
0.27262266
0.2725005
0.27250557
0.27249481
0.27252081
0.27250983
0.27250534
0.27258768
0.27256415
0.27269648
0.27318338
0.27733201
0.27692023
0.27678088
0.27681134
0.27674951
0.27675391
0.27677273
0.27676813
0.27677357
0.276792
0.27690677
0.27699686
0.27713098
0.27723419
0.27743639
0.27764726
0.2777743
0.27790403
0.27803474
0.27809002
0.27807085
0.278185
0.2782711
0.27846556
0.27855961
0.27864745
0.27880829
0.27892277
0.27896275
0.27908892
0.27924516
0.27933062
0.28340247
0.28330047
0.28314302
0.28303887
0.28297929
0.28287324
0.28272531
0.2826355
0.28253183
0.28236313
0.28227473
0.28216364
0.28215946
0.28210748
0.28199311
0.28183644
0.28170624
0.28151012
0.28133319
0.28121996
0.28109783
0.28098983
0.28088143
0.28084112
0.28084932
0.28082312
0.28079727
0.28080255
0.28083552
0.28079623
0.28095008
0.28129864
0.28504843
0.28476329
0.28462554
0.28465781
0.28464973
0.28463512
0.2846655
0.28471095
0.28470243
0.28476657
0.28486646
0.28499445
0.285103
0.28522989
0.2853842
0.28557914
0.28569682
0.28586468
0.285978
0.28602797
0.28605383
0.28615979
0.28625823
0.28641428
0.28651034
0.28660455
0.28673734
0.28683764
0.28691526
0.28699678
0.28715274
0.28727304
0.29091305
0.2908042
0.29066275
0.29059677
0.29048879
0.29039614
0.2902804
0.29017592
0.29008888
0.28994791
0.28982633
0.28973758
0.2896864
0.28963199
0.28951471
0.28934873
0.28924311
0.28904761
0.28891632
0.28877151
0.28867991
0.28852872
0.28844138
0.28835002
0.28835216
0.28830231
0.28828066
0.2882968
0.28826884
0.28824911
0.28836
0.2886037
0.29195947
0.29175306
0.2916684
0.29168283
0.29172017
0.29171561
0.29172882
0.29178816
0.29179965
0.29189664
0.29199028
0.29214445
0.2922389
0.29238203
0.29251281
0.29269658
0.29280542
0.29296037
0.29307917
0.29313582
0.29320211
0.29329403
0.29341358
0.2935496
0.29364316
0.29374007
0.29385306
0.29394451
0.29405833
0.29412297
0.29425132
0.29436287
0.29759904
0.29749381
0.29737749
0.29731233
0.29720376
0.29710781
0.29698906
0.29690871
0.29680021
0.29666863
0.29656657
0.29646053
0.29638386
0.29632094
0.29620441
0.29605739
0.29593912
0.29576713
0.29563352
0.29549462
0.29539541
0.29524129
0.2951406
0.29504469
0.29501721
0.29494835
0.29494654
0.29493563
0.2948936
0.29488627
0.29495254
0.29512863
0.29809963
0.29795564
0.2979089
0.29790825
0.29795338
0.29797257
0.29798053
0.29804913
0.2980886
0.29817987
0.29828888
0.29843839
0.29854528
0.29867614
0.29881699
0.29897688
0.29910388
0.2992446
0.2993605
0.29943777
0.29951499
0.29962379
0.29972893
0.29985627
0.29996203
0.3000464
0.30016111
0.30025977
0.30036339
0.30043426
0.30054936
0.30065392
0.30350913
0.30341671
0.30329567
0.3032207
0.30312187
0.30301678
0.30290769
0.30281685
0.3027122
0.30259315
0.30247616
0.30236641
0.30229686
0.30220525
0.30208259
0.30195271
0.30181709
0.30166936
0.30151589
0.30139795
0.30128103
0.30114143
0.30102218
0.30094296
0.30089179
0.30082676
0.30080691
0.30078874
0.3007477
0.3007504
0.30077165
0.3008973
0.30352119
0.30342555
0.30341437
0.30341663
0.30345336
0.3034718
0.30350121
0.30356127
0.30361734
0.30369251
0.30381064
0.30394415
0.30406328
0.30417773
0.30433027
0.3044725
0.30461
0.30473727
0.30486299
0.30496302
0.30503775
0.30514731
0.30526172
0.30537768
0.30548473
0.30558467
0.30568835
0.30579476
0.30589539
0.30597607
0.30609344
0.30618522
0.30869073
0.30859677
0.30848455
0.30839659
0.30829167
0.30818686
0.30808863
0.30797997
0.30786877
0.30775554
0.30764338
0.30753512
0.30745026
0.30734806
0.30722465
0.30709699
0.30695682
0.30682206
0.30667705
0.30656388
0.30644353
0.30631764
0.30620871
0.30613483
0.30607417
0.30602134
0.30598489
0.30596221
0.30593103
0.30592096
0.30592708
0.30600178
0.30835295
0.30829553
0.3082941
0.30831136
0.30833837
0.3083665
0.30840162
0.30845263
0.30851193
0.30858405
0.30868679
0.30880312
0.30891685
0.30902686
0.30916399
0.30929392
0.3094304
0.30955755
0.30967742
0.30978161
0.30987459
0.30998172
0.31009326
0.3102074
0.31031908
0.31043231
0.31053391
0.31063681
0.31074325
0.31083861
0.31094788
0.31104858
0.31326421
0.31316279
0.31305392
0.3129543
0.31284715
0.31274327
0.31263327
0.31251917
0.31240777
0.31229365
0.31218621
0.31207722
0.31197616
0.31187165
0.31175657
0.31163069
0.31150311
0.31137813
0.3112487
0.31114153
0.31103753
0.31093418
0.31083727
0.31076804
0.31071239
0.31066324
0.3106331
0.31060098
0.31057749
0.31055571
0.3105554
0.31059732
0.31274795
0.31271845
0.31272436
0.31274555
0.3127695
0.3128003
0.31282942
0.31287365
0.3129264
0.31298998
0.31307618
0.31316816
0.31326431
0.31336624
0.31348571
0.31360343
0.31372336
0.31384257
0.31395383
0.31405697
0.31416286
0.31427018
0.31437857
0.31449048
0.31460334
0.31471707
0.31482899
0.31493612
0.31504401
0.31514819
0.31525687
0.31536258
0.3173562
0.31724828
0.31713961
0.31703161
0.31692374
0.31681362
0.31670137
0.31659035
0.31647835
0.31636791
0.31625823
0.31615421
0.31604702
0.31594566
0.3158396
0.31572947
0.31561788
0.31550798
0.31540016
0.31530578
0.31521856
0.31513652
0.3150615
0.31500581
0.31495827
0.3149179
0.31488921
0.31486096
0.31483631
0.31481698
0.31480613
0.31482711
0.31684957
0.31683802
0.31685096
0.31687018
0.31689285
0.31691906
0.31694644
0.31698094
0.31702292
0.31707191
0.31713646
0.31720854
0.31728546
0.31737139
0.31746746
0.31756716
0.31766951
0.31777128
0.31787113
0.31796962
0.31807357
0.31817487
0.31828156
0.31838843
0.31849867
0.31860719
0.31871875
0.31882973
0.31893889
0.31904727
0.31915678
0.31926701
0.32111225
0.32100155
0.32089167
0.32078479
0.32067537
0.32056574
0.32045755
0.3203512
0.32024453
0.32014141
0.32004006
0.31994284
0.31984466
0.31975118
0.3196578
0.31956473
0.31947228
0.31938405
0.31930007
0.31922338
0.31915598
0.31909394
0.3190392
0.31899674
0.3189605
0.31893191
0.31890617
0.31888247
0.31886255
0.31884319
0.31882936
0.31883416
0.32079384
0.32079456
0.32080879
0.32082762
0.32084609
0.32086702
0.32088933
0.32091371
0.32094391
0.32097989
0.32102557
0.32107803
0.32113662
0.32120294
0.32127596
0.32135312
0.32143501
0.32151894
0.32160441
0.32169133
0.32178229
0.3218739
0.321969
0.32378121
0.32369338
0.32360868
0.32352588
0.32344679
0.32337011
0.32329592
0.32322457
0.32315771
0.32309474
0.32303874
0.32298844
0.32294472
0.32290721
0.32287738
0.32285292
0.32283244
0.3228136
0.32279549
0.32277802
0.32276011
0.32274586
0.32274152
0.32468638
0.32469329
0.32470773
0.32472473
0.32474102
0.3247565
0.32477212
0.32478877
0.32480828
0.32483251
0.32486284
0.32489883
0.32494081
0.32498792
0.32504119
0.32509827
0.32515957
0.32522414
0.3252917
0.32536236
0.32543641
0.32551321
0.32559312
0.32741624
0.32734506
0.32727669
0.32721164
0.32714967
0.32709113
0.32703576
0.32698384
0.32693568
0.32689133
0.32685226
0.32681784
0.32678864
0.32676454
0.32674525
0.32673003
0.32671709
0.32670456
0.32669131
0.32667605
0.32665982
0.32664529
0.32663689
0.328599
0.3286085
0.32862304
0.32863864
0.3286527
0.3286641
0.32867397
0.32868373
0.32869527
0.32871004
0.32872889
0.32875215
0.32878
0.32881198
0.32884841
0.32888842
0.32893188
0.32897863
0.32902867
0.32908195
0.3291383
0.3291979
0.32926045
0.33113229
0.33107832
0.33102728
0.33097921
0.3309342
0.33089207
0.33085314
0.33081721
0.33078441
0.33075485
0.33072905
0.33070687
0.33068862
0.33067413
0.33066327
0.33065491
0.33064784
0.33064025
0.3306304
0.33061748
0.33060245
0.33058788
0.33057768
0.21752956
0.22637817
0.23548208
0.24482771
0.25460043
0.26463415
0.27502712
0.28563807
0.29660214
0.3078113
0.31929581
0.33099756
0.34314169
0.35550458
0.36823219
0.38111129
0.39425751
0.4074989
0.42101728
0.43464641
0.44855348
0.4625789
0.47677228
0.4909999
0.50550337
0.51996499
0.53454868
0.54901992
0.56355397
0.57789495
0.59222782
0.60633045
0.62035162
0.63409345
0.64787629
0.6614661
0.67512447
0.6886676
0.70254903
0.71660539
0.73128781
0.74644501
0.76266159
0.77982076
0.79857844
0.81876088
0.84094618
0.86490252
0.89121182
0.91920224
0.94934959
0.98068832
1.0135789
1.0465468
1.0793642
1.1093925
1.1366217
1.155843
1.1671058
1.1656634
1.1670559
1.176011
1.2253667
1.1750667
1.1185045
1.0914033
0.97092293
0.89369348
0.77094168
0.60364716
0.55066607
0.59917218
0.67604608
0.79429453
0.87472416
0.9752703
1.1242253
1.1844844
1.2229941
1.2555782
1.2433008
1.2188607
1.1871524
1.1543589
1.1185715
1.0831233
1.0464239
1.0113299
0.97716805
0.94533891
0.91513405
0.88741787
0.86155777
0.83804927
0.81635318
0.79668818
0.77844333
0.76170163
0.74586673
0.73107778
0.71666109
0.70272577
0.68884885
0.67526099
0.66158325
0.64792979
0.63401644
0.62012036
0.60600473
0.5918222
0.5773991
0.5629671
0.54837937
0.53387701
0.51932804
0.50495639
0.49047563
0.47616043
0.46186251
0.44779146
0.43379557
0.42007062
0.40646177
0.39314489
0.37997588
0.36712822
0.35447083
0.34216659
0.33009
0.31839832
0.30695639
0.29587996
0.28505057
0.27458546
0.26436636
0.25446731
0.24478152
0.23545943
0.22642316
0.23135156
0.24044142
0.2497402
0.25951101
0.26937451
0.27963417
0.2900616
0.30093402
0.31197186
0.32345955
0.33511394
0.34723325
0.35949544
0.37219665
0.3850101
0.3982356
0.41153295
0.42521227
0.43893126
0.45300341
0.46706881
0.48144108
0.49575929
0.51034412
0.52480365
0.53957037
0.55415884
0.56890288
0.58337983
0.59792768
0.61214754
0.62635402
0.6403282
0.65437739
0.66811711
0.68190867
0.6956015
0.70963016
0.72366157
0.7381733
0.75299251
0.76889903
0.7856337
0.80388294
0.823475
0.84512231
0.86852796
0.89425872
0.92196889
0.95216864
0.98419752
1.0184633
1.0536331
1.0905537
1.1265499
1.1627973
1.1940823
1.2214751
1.2312128
1.2117112
1.1488606
1.0658573
0.94086083
1.0054808
1.0670976
1.116696
1.1496388
1.1508977
1.1402959
1.1163381
1.0880406
1.0575437
1.0263081
0.9964944
0.96680702
0.93957311
0.91311866
0.88918874
0.86645707
0.84571092
0.8261734
0.80807181
0.79105888
0.7748989
0.75958894
0.74464413
0.73007381
0.7156608
0.70156783
0.68747341
0.67346116
0.65920325
0.64509067
0.63077156
0.61660812
0.60205539
0.58772627
0.57301943
0.55869297
0.54399003
0.52986685
0.51531046
0.50133012
0.48693432
0.47325535
0.45912909
0.44583814
0.43207303
0.41923245
0.4058812
0.39354338
0.38067204
0.36889219
0.35655176
0.34536503
0.33359224
0.32299664
0.31178153
0.30176928
0.29111477
0.28164571
0.2715207
0.26265225
0.25317699
0.22291895
0.23191632
0.24114538
0.25059212
0.26042462
0.27056275
0.28105206
0.29176181
0.30280181
0.31404448
0.32565151
0.3373833
0.34943325
0.36174156
0.37448034
0.38739179
0.40059449
0.41390818
0.42746228
0.4410947
0.45496821
0.46881948
0.48284348
0.49696925
0.51130507
0.52560407
0.54001082
0.55435612
0.56876459
0.5830117
0.59726777
0.61127686
0.62522203
0.63894218
0.65266021
0.66621442
0.67986295
0.69344688
0.70737714
0.72161772
0.73660969
0.75222032
0.76899363
0.78682979
0.80633256
0.82721965
0.8500436
0.8746858
0.90160295
0.93011718
0.9604979
0.99186574
1.0244339
1.0567539
1.0882198
1.1169304
1.141865
1.1593887
1.1693392
1.1741732
1.1843304
1.2086526
1.2424974
1.1899133
1.1259313
1.1337716
1.0938999
1.0844812
1.0472364
0.95724729
0.72823662
0.65853913
0.57227805
0.45446615
0.3931194
0.36826705
0.35702401
0.34425649
0.33710098
0.3333378
0.33150624
0.3308266
0.33102762
0.33198884
0.25802154
0.2628099
0.26741264
0.27184095
0.27609371
0.28016238
0.28403545
0.2877092
0.29117923
0.29444166
0.29750043
0.30036298
0.30303315
0.30552096
0.30784415
0.31002002
0.31206973
0.31401931
0.31589549
0.31772542
0.31953245
0.32133562
0.32314987
0.32498526
0.32684834
0.32874287
0.33067073
0.33066506
0.32873609
0.32683971
0.324974
0.32313502
0.32131603
0.319507
0.31769262
0.31585434
0.31396858
0.31200803
0.30994657
0.30775753
0.30542223
0.30292055
0.30023329
0.29735189
0.29427633
0.29099477
0.2875011
0.28380619
0.27991982
0.27583724
0.27157958
0.26714559
0.26253315
0.25774493
0.25529315
0.25565096
0.2566629
0.25780397
0.25880632
0.25950518
0.260036
0.26031575
0.26039208
0.26044082
0.26053071
0.26070842
0.26091884
0.26089463
0.26073515
0.26027477
0.2595094
0.25859527
0.25791053
0.26267201
0.26331478
0.26417377
0.26488806
0.26531038
0.26547869
0.26548459
0.26526901
0.26509654
0.2650086
0.26497813
0.26488639
0.26461472
0.26413818
0.26345992
0.26250586
0.26143678
0.26047711
0.26014986
0.26479452
0.26511908
0.26601725
0.26701465
0.26791159
0.26856749
0.26898798
0.26925039
0.26936075
0.26937089
0.26947463
0.2696249
0.26984854
0.26985412
0.26969059
0.26929753
0.26866543
0.26785033
0.26726224
0.2716666
0.27223143
0.27296865
0.2735413
0.27389074
0.27404761
0.27402389
0.27381143
0.27366545
0.27355723
0.27353618
0.27342428
0.27319193
0.27280729
0.2721925
0.27136407
0.27042607
0.26958738
0.26929122
0.27358659
0.2738758
0.27465273
0.27552744
0.27628458
0.27685532
0.27719881
0.27740635
0.27750748
0.27754826
0.27766622
0.27780217
0.27799643
0.27803027
0.27790609
0.27759804
0.27709745
0.27644345
0.27592081
0.27999126
0.28045639
0.28103695
0.28147076
0.28172982
0.28182528
0.28178013
0.28159717
0.2814533
0.28134232
0.28129257
0.28119014
0.28100619
0.28068453
0.2801583
0.27949248
0.27868447
0.27797277
0.27771306
0.28162555
0.28187382
0.28253035
0.2832617
0.28383333
0.28430559
0.28461509
0.28477811
0.2848768
0.28493901
0.28503939
0.28519405
0.28536315
0.28542055
0.28536124
0.28515619
0.28478112
0.28427315
0.28388467
0.28756525
0.28790601
0.28833881
0.28865024
0.28879117
0.28881472
0.28874109
0.28858753
0.28843887
0.2883405
0.28826343
0.28816506
0.28801523
0.28772966
0.28731958
0.28681535
0.28617087
0.28557246
0.28535347
0.28886415
0.28906452
0.28960882
0.29016858
0.29061068
0.29096405
0.29122055
0.29135852
0.29145686
0.29154384
0.29164099
0.29178693
0.29192561
0.29201918
0.29202292
0.29194702
0.29169413
0.29133323
0.29104962
0.29431587
0.29455749
0.29484715
0.2950367
0.29507253
0.29503438
0.29492727
0.29478777
0.29464909
0.29455296
0.29445907
0.29436414
0.29423641
0.29401682
0.29370978
0.29332254
0.29283834
0.29236809
0.29219579
0.29532189
0.2954732
0.29587585
0.29628995
0.29662402
0.29688748
0.29707568
0.29719083
0.29728416
0.29738426
0.2974756
0.297607
0.29775388
0.29786675
0.29793321
0.29793187
0.29780208
0.29757939
0.29738926
0.30025394
0.30040478
0.3005662
0.30064207
0.3006154
0.30052373
0.3004033
0.30026015
0.30013287
0.3000386
0.29994346
0.29984867
0.2997486
0.29958849
0.2993658
0.29908017
0.29873045
0.29839418
0.29826876
0.30103175
0.30114044
0.30141646
0.30170661
0.30194661
0.30213471
0.30226433
0.30235331
0.30244285
0.30253333
0.30263086
0.30275579
0.30289277
0.30301824
0.30312884
0.30317759
0.30314899
0.30304013
0.30293305
0.3054214
0.30549751
0.30556204
0.30555845
0.30548896
0.30537056
0.30524234
0.30511008
0.30498952
0.30489098
0.30480371
0.30472736
0.30464669
0.30453799
0.30438451
0.30418954
0.30395118
0.3037255
0.30363607
0.30609018
0.30616619
0.30635047
0.30654215
0.3066981
0.30682082
0.30691455
0.3069845
0.30704909
0.3071313
0.30722566
0.30734028
0.30746535
0.30759111
0.30771291
0.30779618
0.30782287
0.30779704
0.30774835
0.30992961
0.3099539
0.30995583
0.30990829
0.30981789
0.30970006
0.30958023
0.30946301
0.30935878
0.30927196
0.30919787
0.30913859
0.30907818
0.30900219
0.30890448
0.3087785
0.30862774
0.30848353
0.30842435
0.31064829
0.31069477
0.31080538
0.31092196
0.31102146
0.31109889
0.31115885
0.31121043
0.3112633
0.31132972
0.3114077
0.31149951
0.31160735
0.31171804
0.3118261
0.3119184
0.31197633
0.31199145
0.31198945
0.31394616
0.31393787
0.31391159
0.31385032
0.31376212
0.31366436
0.31356524
0.31347077
0.31338946
0.31332173
0.31326459
0.31321957
0.31317613
0.31312843
0.31306817
0.31299079
0.31290207
0.31282051
0.31278626
0.31485231
0.31487842
0.31493687
0.31500222
0.31506198
0.31510751
0.31514489
0.31518082
0.31521824
0.3152661
0.31532347
0.31539363
0.31547432
0.31556037
0.31564684
0.31572614
0.31578549
0.31581724
0.31583236
0.31767213
0.3176543
0.31762134
0.31756759
0.31749879
0.31742458
0.31735236
0.31728531
0.31722692
0.31717887
0.3171395
0.31710858
0.31708007
0.31705051
0.31701692
0.31697326
0.31692705
0.3168847
0.31686666
0.31884339
0.31885585
0.3188851
0.31891721
0.31894785
0.31897192
0.31899496
0.31901701
0.31904194
0.31907351
0.31911263
0.31916012
0.31921403
0.31927297
0.31933448
0.31939246
0.3194391
0.31947084
0.31948918
0.32130076
0.32128329
0.32125505
0.32121547
0.32116852
0.32111944
0.32107264
0.32102993
0.32099264
0.32096181
0.32093717
0.32091737
0.32090054
0.32088358
0.32086656
0.32084596
0.32082469
0.32080566
0.32079828
0.32274163
0.32274556
0.32275686
0.32276992
0.32278294
0.32279429
0.32280642
0.3228189
0.32283413
0.32285295
0.3228765
0.32290494
0.32293796
0.32297393
0.32301201
0.32304886
0.32308158
0.32310585
0.32312207
0.3249628
0.32494845
0.32492777
0.32490155
0.32487319
0.32484447
0.3248175
0.32479296
0.32477182
0.32475432
0.32474043
0.32472915
0.32472006
0.32471176
0.3247046
0.32469718
0.32469029
0.32468483
0.32468389
0.32663213
0.32663098
0.32663224
0.32663444
0.32663769
0.32664178
0.32664718
0.32665357
0.32666166
0.32667155
0.32668413
0.32669934
0.32671695
0.32673662
0.32675755
0.32677898
0.32679963
0.32681707
0.32683012
0.32872749
0.32871568
0.32870088
0.32868474
0.32866887
0.32865402
0.32864028
0.32862805
0.32861749
0.3286088
0.32860198
0.32859648
0.32859217
0.32858887
0.328587
0.32858671
0.32858792
0.32858994
0.32859277
0.33057017
0.330566
0.33056157
0.33055785
0.33055608
0.33055641
0.33055827
0.33056103
0.33056457
0.33056901
0.33057473
0.33058174
0.33058986
0.33059904
0.33060923
0.33062075
0.33063341
0.33064618
0.33065712
0.22937936
0.23861538
0.24809745
0.25781255
0.26779804
0.27798531
0.28857091
0.29938596
0.31055417
0.32190509
0.33356754
0.34542641
0.35753763
0.36982421
0.38250047
0.3953267
0.40844475
0.42164971
0.43508556
0.44858022
0.4622958
0.47605093
0.48990786
0.50377831
0.51788278
0.53189846
0.5459979
0.56006009
0.57419152
0.58813085
0.60203115
0.61572733
0.62934917
0.64271198
0.65600299
0.66913634
0.68246876
0.69583796
0.70957434
0.72363848
0.7385787
0.75425794
0.77124121
0.78940631
0.80932184
0.83079581
0.85425373
0.87946479
0.90706431
0.93644766
0.96806781
1.0010093
1.0354786
1.0701632
1.1048705
1.1374174
1.1679403
1.1928676
1.2136223
1.2279975
1.2442299
1.2718092
1.228886
1.1648225
1.1136499
1.1364683
1.1385245
1.1421752
1.1208694
1.1155622
1.0837037
1.033208
0.96056512
0.84166463
0.67917008
0.54080259
0.60644977
0.73758236
0.80639577
0.85474766
0.90067243
0.73275517
0.58466167
0.48528254
0.40589058
0.37336778
0.37830446
0.36239472
0.34677369
0.33882053
0.33447921
0.33229261
0.33140637
0.33137923
0.33219775
0.30148216
0.31882656
0.33688086
0.35567718
0.37518754
0.39536522
0.41620244
0.43758405
0.45950812
0.48184561
0.50457607
0.52754545
0.55075733
0.57406216
0.59743003
0.62072072
0.64399361
0.66718454
0.69030389
0.71327108
0.7359534
0.75801375
0.7785773
0.79638247
0.80888235
0.81321321
0.80599829
0.78613464
0.75335078
0.71426369
0.6727817
0.6153558
0.51112022
0.43944291
0.38922932
0.36785287
0.35511133
0.34943783
0.3400036
0.33470465
0.33187339
0.33055429
0.3301667
0.33064995
0.33177644
0.33157196
0.33027696
0.32949342
0.329488
0.33026116
0.33209964
0.33551587
0.34088219
0.35126952
0.36698456
0.39162881
0.42525441
0.47091963
0.512627
0.54195651
0.55865585
0.56894177
0.57523564
0.57890977
0.58074725
0.5802262
0.57797839
0.57251873
0.56647149
0.5570478
0.54805483
0.53611603
0.52502829
0.51148368
0.49901983
0.48459115
0.47133871
0.45665982
0.44311065
0.4283666
0.41469706
0.40028781
0.38683457
0.37282076
0.3596627
0.34636021
0.33378248
0.32123884
0.30924835
0.29734674
0.29357117
0.30087127
0.3089259
0.31682856
0.32465145
0.3331581
0.34063745
0.34970896
0.35671107
0.36620048
0.37259487
0.38243346
0.38805735
0.39800723
0.40269365
0.41257696
0.41614264
0.42567021
0.42785763
0.43658984
0.43739363
0.44527091
0.44455675
0.45156142
0.44925537
0.45540307
0.45134195
0.45449186
0.44638142
0.44233479
0.42759682
0.4143244
0.39641208
0.38000312
0.36640046
0.35664776
0.34825429
0.33994067
0.3351021
0.33169872
0.32966985
0.32867526
0.32839277
0.32886711
0.32993601
0.3313857
0.33122614
0.32964779
0.32834023
0.32745376
0.32716399
0.32752481
0.32851312
0.33036622
0.33325512
0.33732141
0.34223877
0.35982635
0.37372725
0.38732022
0.39695093
0.40065418
0.4007832
0.39846147
0.39418512
0.388181
0.38058947
0.37175893
0.36188505
0.35119199
0.33992261
0.32825226
0.3163185
0.30426431
0.29673669
0.30477859
0.31254696
0.31993638
0.32694571
0.33355731
0.33957101
0.34493397
0.34958248
0.35341457
0.35624683
0.35785231
0.35794438
0.35604963
0.35212931
0.34731936
0.33387675
0.3319476
0.32982148
0.32796289
0.3266554
0.32592096
0.32564908
0.3259197
0.32671725
0.32792481
0.3294148
0.3310952
0.33099201
0.32923511
0.32761267
0.32617778
0.32500497
0.32418265
0.32377356
0.32378043
0.32407602
0.32458575
0.32515794
0.32554242
0.32556269
0.33538541
0.33643273
0.33658987
0.33575347
0.33404081
0.33156268
0.3284198
0.32472155
0.32053371
0.31585673
0.3107382
0.3052326
0.29940846
0.29327897
0.2868554
0.27730996
0.28303636
0.28849454
0.29368605
0.29854757
0.30308617
0.30727787
0.31110966
0.31459078
0.31766053
0.32027465
0.32240994
0.32402048
0.32507253
0.31760026
0.31888482
0.31976992
0.32033751
0.3207015
0.32104036
0.32150621
0.32219349
0.32315052
0.3243644
0.3257906
0.32738139
0.32909813
0.33091166
0.33084935
0.32899561
0.32721404
0.32551983
0.32393156
0.3224696
0.32115246
0.31998485
0.31894114
0.31795843
0.31693645
0.3157597
0.31433651
0.31262409
0.310618
0.31595245
0.3139235
0.31152453
0.30876762
0.30567018
0.30224665
0.29854467
0.2945429
0.29024572
0.28567651
0.28085112
0.27578324
0.27048028
0.26515188
0.27027767
0.27520108
0.27987636
0.28432828
0.28853175
0.2924772
0.2961855
0.29965874
0.3028472
0.30572965
0.30832618
0.30466993
0.30715402
0.30939201
0.31138769
0.31316009
0.31474332
0.3162016
0.31760564
0.31901911
0.32048349
0.32201979
0.32363497
0.32532726
0.32709043
0.32891679
0.33079931
0.33075805
0.328856
0.32700003
0.32519291
0.3234362
0.32172938
0.32006665
0.31843542
0.31681407
0.31516926
0.31345995
0.3116415
0.30966621
0.30750184
0.30513158
0.30254291
0.29973044
0.30198136
0.29904775
0.29585442
0.29239662
0.28872297
0.28481192
0.28066241
0.27629763
0.27175791
0.2670064
0.26203293
0.25955066
0.26449778
0.26923318
0.27377897
0.27814465
0.28228222
0.28619873
0.289943
0.29344344
0.29670343
0.29523705
0.29832447
0.30120876
0.30388457
0.30634592
0.3086188
0.31072614
0.31268931
0.31454441
0.31632493
0.31806497
0.3197939
0.32153324
0.32329755
0.32509574
0.32693201
0.32880797
0.33072324
0.33069597
0.32877288
0.32688534
0.32503247
0.32321107
0.32141546
0.31963548
0.3178564
0.31605647
0.31420911
0.31228585
0.31025828
0.30809325
0.30576755
0.30327255
0.30058135
0.29768149
0.29457657
0.29127761
0.29199049
0.28850817
0.28482728
0.28093265
0.27682057
0.27252288
0.26803204
0.26334274
0.25847126
0.2574063
0.26230846
0.26699346
0.27150438
0.27587119
0.28007698
0.28403196
0.28776876
0.28746873
0.28819542
0.28963754
0.2919921
0.29580528
0.30165186
0.31058086
0.32426016
0.34566914
0.38788531
0.434555
0.50229445
0.57759561
0.57368379
0.56507224
0.55055434
0.56409978
0.57767134
0.59099557
0.60423091
0.61721685
0.63013634
0.64280532
0.6554825
0.66801177
0.6807132
0.69347184
0.70666978
0.72028681
0.73479198
0.75010834
0.76684997
0.78489616
0.80478328
0.82623173
0.84972719
0.87508936
0.90275617
0.93228025
0.9642744
0.99779111
1.0330167
1.0685374
1.104302
1.1381415
1.1695354
1.1948839
1.2157915
1.2249045
1.2327803
1.2665923
1.2092417
1.1309447
1.0913303
1.1315304
1.1410397
1.1465824
1.1445023
1.1216703
1.1253034
1.1120053
1.0866626
1.0322891
0.98009905
0.95115457
1.0300828
1.0056742
0.93570006
0.77832644
0.61001329
0.52122233
0.42141713
0.44116355
0.38556324
0.3962675
0.36947154
0.35491681
0.34803604
0.33991276
0.33524601
0.33288454
0.33187218
0.33169256
0.3323989
0.25642479
0.25746022
0.25719937
0.25625024
0.25122545
0.25221878
0.25388889
0.26703916
0.26616027
0.26143624
0.26240742
0.26213295
0.2612066
0.26601846
0.26690004
0.26841707
0.26871338
0.22416932
0.22582519
0.23280412
0.23329547
0.23286919
0.23231835
0.23075476
0.22751478
0.22773488
0.23336136
0.23029629
0.22821399
0.22698552
0.22823509
0.23458975
0.2346992
0.23361586
0.23112115
0.23123442
0.23651252
0.23246053
0.2279741
0.22796372
0.23260057
0.22934797
0.22334531
0.22239294
0.22648567
0.22150652
0.22032129
0.22378501
0.2174794
0.21554212
0.21828136
0.21356786
0.21274768
0.2161334
0.21687944
0.22199327
0.22337385
0.22890804
0.23435651
0.23721064
0.24355936
0.25020039
0.25672603
0.26354835
0.27029005
0.27519149
0.28255394
0.2925942
0.303213
0.31370031
0.32407354
0.33467515
0.34550251
0.35672353
0.36823597
0.38014299
0.39257663
0.40516358
0.41798093
0.43101746
0.44405392
0.45699867
0.46956842
0.48132095
0.48984613
0.50026191
0.51602823
0.53303863
0.54838643
0.56234645
0.57628119
0.58943794
0.6053833
0.61886784
0.63019927
0.63980954
0.64793174
0.66157999
0.65748932
0.64473496
0.64252225
0.63240304
0.61228268
0.61228879