/*--------------------------------*- C++ -*----------------------------------*\
| =========                 |                                                 |
| \\      /  F ield         | OpenFOAM: The Open Source CFD Toolbox           |
|  \\    /   O peration     | Version:  v2012                                 |
|   \\  /    A nd           | Website:  www.openfoam.com                      |
|    \\/     M anipulation  |                                                 |
\*---------------------------------------------------------------------------*/
FoamFile
{
    version     2.0;
    format      ascii;
    class       volScalarField;
    location    "100";
    object      nut;
}
// * * * * * * * * * * * * * * * * * * * * * * * * * * * * * * * * * * * * * //

dimensions      [0 2 -1 0 0 0 0];


internalField   nonuniform List<scalar> 
48533
(
0.027883086
0.028435187
0.028947405
0.029417609
0.029852261
0.030248971
0.030608165
0.030930916
0.031218714
0.031470085
0.031689247
0.031880067
0.0320422
0.032178358
0.03229289
0.032387917
0.032466298
0.032531076
0.032584873
0.032630587
0.032670356
0.032706076
0.032739267
0.032770961
0.032801909
0.032832651
0.032863511
0.0097370703
0.0097323481
0.0097264487
0.0097048195
0.0096296829
0.0094824639
0.009412709
0.0095009834
0.0097779072
0.0098146481
0.0098377117
0.0098306381
0.0098037999
0.0097882713
0.0097634883
0.0096056668
0.0094999056
0.0095503354
0.0098044368
0.0097994923
0.0096397005
0.0094541254
0.0093237492
0.0093452468
0.009582622
0.0095603809
0.0093440047
0.0091021169
0.0088750685
0.0087828626
0.0089825592
0.0087866528
0.0085473937
0.0084264198
0.0085924701
0.0085788486
0.0086820002
0.0088297611
0.0090281052
0.0089096829
0.0091408318
0.0093568789
0.0095444495
0.0096854235
0.0098269833
0.010098121
0.010467002
0.010829853
0.01116162
0.011465473
0.011751197
0.012021159
0.012284353
0.012535262
0.012769981
0.012980043
0.013171019
0.013337146
0.013472191
0.013564449
0.013542541
0.013556045
0.013686711
0.013853997
0.013903963
0.013989716
0.01408043
0.013999865
0.014025662
0.014029473
0.014041822
0.013969754
0.013925907
0.013832842
0.013674042
0.013441011
0.013229992
0.012898016
0.011676542
0.0086968075
0.0077649074
0.0047742157
0.0036894764
0.0024962741
0.0023640159
0.0030303451
0.0025764263
0.0022274418
0.0021692019
0.002087813
0.0027521347
0.0020329007
0.0024682408
0.0035180598
0.0022089348
0.0019013083
0.0044093879
0.0033481125
0.0037794107
0.00692904
0.0052731004
0.0080521393
0.010316044
0.012508795
0.013070469
0.013337394
0.013612875
0.013773874
0.013880455
0.013932475
0.013924754
0.013972144
0.013973772
0.013998111
0.013983302
0.013935072
0.013858356
0.013746293
0.013614698
0.013601251
0.013593843
0.013513878
0.013394274
0.013245576
0.013069919
0.012872432
0.012653412
0.01241497
0.012160187
0.011897946
0.011623145
0.011334429
0.011033925
0.010718022
0.010371617
0.010010241
0.0096811397
0.0097160234
0.0095590428
0.0093844625
0.0092157934
0.0090044756
0.008808704
0.0086594899
0.0084915279
0.0083211016
0.0082558343
0.0082091091
0.0080811128
0.0084141148
0.0085718056
0.0084771848
0.0082943376
0.0087316721
0.0089797001
0.0091478001
0.0091708626
0.0089914005
0.0087675077
0.0090841835
0.0092619285
0.0093806303
0.00938419
0.0091788486
0.0089415454
0.0092289416
0.0093774823
0.0094132833
0.0094351205
0.0094540824
0.0094572057
0.0094139305
0.0093564653
0.0091260888
0.0088785902
0.0091101839
0.0092496934
0.0093294829
0.009363288
0.009372644
0.009378993
0.032857547
0.032824337
0.032790539
0.03275573
0.032719315
0.032680545
0.032638408
0.032591709
0.032538878
0.032478149
0.032407386
0.032324328
0.03222639
0.032111125
0.031975445
0.031816651
0.031631788
0.031418442
0.031174178
0.030897686
0.030586505
0.030240249
0.029857086
0.029437753
0.028981193
0.028488796
0.027957765
0.026369286
0.026363058
0.026368432
0.026377753
0.026379565
0.026356459
0.026348582
0.026334612
0.026315474
0.026295427
0.026306026
0.026306101
0.026338752
0.026337577
0.026339146
0.026323252
0.026296201
0.026254575
0.026909299
0.026896867
0.026897594
0.026904486
0.026896267
0.02693411
0.02695573
0.026969512
0.026970332
0.026975797
0.026947538
0.026946396
0.02693907
0.026954306
0.026978056
0.026986811
0.026997316
0.027015423
0.027012677
0.027001314
0.02700484
0.027008038
0.027021353
0.027010683
0.027618506
0.027616761
0.027624434
0.02760928
0.027611449
0.02760052
0.02761062
0.027615255
0.02760259
0.02758729
0.027585676
0.027556487
0.027545892
0.027549622
0.027553044
0.027575878
0.027564955
0.027567295
0.027554026
0.027535526
0.027501636
0.027511646
0.027502667
0.02750576
0.027514779
0.027523507
0.027535931
0.027548339
0.027574622
0.027585151
0.027611434
0.027615289
0.027635029
0.027752736
0.028302116
0.028196987
0.028177334
0.02817406
0.028150644
0.028139788
0.028119811
0.028109946
0.028095976
0.028079339
0.028076507
0.028070041
0.028080634
0.028073374
0.028103615
0.028123385
0.028132877
0.028128959
0.028140602
0.02812427
0.028118487
0.028118943
0.028123925
0.028154955
0.02815649
0.028169118
0.028180329
0.028173914
0.028168873
0.028180434
0.028180306
0.028190532
0.028188233
0.028194211
0.028727996
0.028722846
0.028722106
0.028715632
0.028712983
0.028703344
0.028703359
0.028707805
0.02869694
0.028690139
0.0286856
0.02865493
0.028657026
0.028651658
0.028659936
0.02867288
0.028661623
0.028663969
0.02865862
0.028636041
0.028609082
0.028614777
0.0286058
0.028613579
0.028609327
0.028629723
0.028643925
0.028652196
0.028670492
0.028678983
0.02869671
0.028699108
0.028719504
0.028814535
0.029287075
0.029205271
0.029183717
0.029183075
0.029165774
0.029159138
0.029145579
0.029135474
0.029123152
0.029105793
0.029110878
0.02910473
0.02911214
0.029108397
0.029131216
0.029153369
0.029157949
0.029158104
0.0291683
0.029158905
0.029147511
0.029155199
0.029152998
0.029179877
0.029183668
0.029188285
0.029198952
0.029199446
0.029197947
0.029207703
0.029214103
0.029217164
0.029222477
0.029673427
0.029674546
0.029662063
0.02965348
0.029659548
0.029654828
0.029641873
0.029639255
0.029635883
0.029613335
0.029613066
0.029604741
0.029620248
0.029625589
0.029616521
0.029612853
0.029607629
0.029588028
0.029569348
0.029571537
0.02956566
0.02956918
0.02956465
0.029578056
0.029588449
0.029601081
0.029607538
0.029613814
0.029631127
0.029630903
0.029653083
0.029724805
0.030122474
0.030062846
0.030039931
0.030040758
0.030026881
0.030020534
0.030015136
0.03000599
0.029995157
0.02998574
0.029989102
0.029988685
0.029992649
0.029992478
0.030006985
0.030024342
0.030029543
0.030036924
0.030044257
0.030040638
0.030026882
0.030033263
0.03003578
0.030054339
0.03005769
0.030059895
0.030072947
0.030079099
0.030074245
0.030080751
0.03009328
0.030096254
0.030478501
0.030473155
0.030460555
0.030456909
0.030458447
0.030453355
0.030442172
0.030439384
0.030434528
0.030419875
0.030416838
0.03041086
0.030420636
0.030424363
0.030419249
0.030408346
0.030402659
0.030387687
0.030376784
0.030375222
0.030372776
0.030370515
0.030368016
0.030373959
0.030386178
0.030390819
0.030395112
0.030402695
0.030412249
0.030410648
0.03043508
0.03048475
0.030808245
0.030768003
0.030746354
0.030746656
0.0307407
0.030732161
0.030728549
0.030726609
0.030714954
0.030712577
0.030713989
0.030719048
0.030719819
0.030723443
0.030731204
0.030745729
0.030749705
0.030761758
0.03076674
0.030763109
0.030756791
0.030762035
0.030766549
0.030779248
0.030783182
0.030786839
0.030795916
0.030800371
0.030801709
0.030802672
0.030814893
0.030822575
0.031126527
0.031120365
0.031110125
0.031110783
0.031105268
0.031101725
0.031094881
0.03108975
0.03108679
0.031076354
0.031068858
0.031065871
0.031068526
0.031071313
0.03106589
0.031054455
0.031051965
0.031037801
0.031033067
0.031027039
0.031028234
0.031020162
0.031020214
0.031018812
0.031029004
0.031030224
0.031034753
0.031043116
0.031044256
0.031045796
0.031063411
0.031097449
0.031353079
0.031324449
0.031310621
0.031308367
0.031308415
0.031301958
0.031296643
0.031296814
0.031288999
0.031291233
0.031292299
0.031300627
0.031300156
0.031305908
0.03131067
0.031322915
0.031325878
0.031335527
0.031341039
0.031338737
0.031338138
0.031341548
0.031348642
0.031358221
0.031362131
0.031366293
0.031372775
0.031376286
0.031382576
0.031382151
0.031390632
0.031397081
0.031632965
0.031627378
0.03162046
0.03162054
0.031614893
0.031610773
0.031603679
0.031601532
0.031595775
0.031587016
0.031582237
0.03157715
0.031576419
0.03157778
0.03157272
0.031564345
0.031560219
0.031549783
0.031544635
0.031539381
0.031538945
0.031530643
0.031528414
0.031526088
0.031531322
0.031529797
0.031536131
0.03154029
0.031539563
0.031542647
0.031553843
0.031578071
0.031772335
0.031752537
0.031744032
0.031740147
0.031741338
0.031738503
0.031733433
0.031735129
0.031731916
0.031733971
0.03173754
0.031745334
0.031747053
0.031751429
0.031757522
0.031766254
0.031771405
0.031778757
0.031783601
0.031784068
0.031784815
0.031790078
0.031795114
0.031803075
0.031808349
0.031811027
0.031817446
0.031821893
0.031826882
0.031827677
0.031834361
0.031839774
0.032016806
0.032012952
0.032005719
0.032004375
0.032000049
0.031994942
0.031989378
0.031985997
0.031981008
0.031974329
0.031968066
0.0319629
0.031963093
0.031960923
0.031955392
0.031949507
0.031943352
0.03193618
0.031928499
0.031925448
0.031922159
0.031915375
0.031910228
0.031909213
0.031910477
0.031908924
0.031912086
0.031914715
0.031913877
0.031917776
0.031922991
0.031940142
0.032082502
0.032069294
0.03206542
0.032062377
0.032062881
0.032060652
0.032059074
0.032060402
0.032060238
0.032061297
0.032066682
0.032073069
0.032077017
0.032080026
0.032087716
0.032094289
0.032100664
0.032106194
0.032111962
0.032115053
0.032115484
0.032120417
0.032126132
0.032132196
0.032137263
0.032141566
0.032146296
0.032151377
0.032155786
0.032157788
0.032164369
0.032168033
0.032295769
0.032292003
0.032286249
0.032283498
0.032278776
0.032274089
0.032270188
0.032265085
0.032259756
0.032254253
0.032249001
0.032244408
0.032242814
0.032239523
0.032234078
0.032228473
0.032221708
0.032215834
0.032208781
0.032205459
0.032200891
0.032194972
0.032190198
0.03218872
0.032187804
0.032186894
0.032187217
0.032188573
0.032188494
0.032190384
0.032193505
0.03220397
0.032306892
0.032298662
0.032296233
0.032295383
0.032295234
0.03229488
0.032294828
0.032296011
0.032297318
0.032299202
0.032303805
0.03230915
0.032313506
0.032317016
0.032323518
0.03232914
0.032335657
0.032341323
0.032346391
0.03234992
0.03235244
0.032356773
0.032361777
0.032367179
0.032372345
0.032377739
0.032381841
0.032386102
0.032390786
0.032394228
0.032399403
0.032403733
0.032493478
0.032489288
0.032484389
0.032480644
0.032476085
0.032471905
0.032467045
0.032461755
0.032456788
0.032451546
0.032447117
0.032442635
0.03243917
0.032435524
0.032430858
0.032425123
0.032419316
0.032413849
0.032407754
0.032403952
0.03240006
0.032395581
0.032391049
0.032388873
0.032387406
0.032385951
0.032386123
0.03238567
0.032385949
0.032386093
0.032388176
0.032394442
0.032468554
0.032463843
0.032462529
0.0324625
0.032462541
0.032463181
0.032463341
0.032464734
0.032466446
0.032468612
0.03247257
0.032476442
0.032480145
0.032484021
0.03248956
0.032494721
0.032500079
0.032505378
0.032509864
0.032513537
0.032517639
0.032521957
0.032526467
0.032531382
0.032536407
0.032541516
0.032546434
0.032550825
0.032555292
0.032559377
0.032564049
0.032568502
0.032630675
0.032626158
0.032621643
0.032617265
0.032612912
0.032608289
0.032603413
0.032598655
0.032593745
0.032588977
0.032584263
0.032580183
0.032575749
0.032571997
0.032567743
0.032563032
0.032558099
0.032553226
0.032548345
0.032544605
0.03254118
0.032537722
0.032534358
0.032532443
0.032530754
0.032529309
0.032528778
0.032528095
0.032527725
0.032527784
0.032528427
0.032532061
0.032586827
0.032584334
0.032584025
0.032584118
0.032584503
0.032585269
0.032586048
0.032587308
0.032588916
0.032590696
0.032593547
0.032596596
0.032599608
0.032603135
0.032607403
0.03261179
0.032616279
0.032620577
0.032624584
0.032628387
0.032632747
0.032636762
0.032641314
0.032645819
0.032650616
0.032655156
0.032659969
0.032664671
0.032669133
0.032673495
0.032678014
0.032682666
0.032726423
0.032721751
0.032717191
0.03271295
0.032708398
0.032703753
0.032699182
0.03269472
0.032690118
0.03268579
0.032681543
0.032677639
0.032673526
0.03266982
0.032666009
0.032662091
0.032658062
0.03265426
0.032650615
0.032647389
0.032644714
0.032642099
0.032639707
0.032638077
0.0326366
0.032635554
0.032634597
0.032633822
0.032633523
0.032633267
0.032633387
0.032635065
0.032678261
0.032677239
0.032677245
0.032677569
0.032677903
0.03267863
0.032679539
0.03268052
0.032681796
0.03268324
0.03268522
0.032687419
0.032689799
0.032692584
0.032695725
0.032699001
0.032702529
0.03270606
0.032709576
0.032713086
0.03271688
0.032720599
0.032724547
0.032759173
0.032755551
0.032752086
0.032748649
0.032745424
0.032742264
0.032739161
0.032736127
0.032733304
0.032730594
0.03272828
0.032726183
0.032724359
0.032722743
0.032721498
0.032720435
0.032719526
0.032718703
0.032718054
0.032717663
0.03271733
0.032717254
0.03271784
0.032754791
0.032754513
0.032754665
0.032754991
0.032755393
0.032755957
0.032756687
0.032757489
0.032758378
0.03275943
0.032760734
0.032762238
0.032763992
0.032765938
0.032768215
0.032770609
0.032773187
0.032775871
0.032778652
0.032781553
0.032784611
0.032787765
0.032791055
0.032821211
0.0328183
0.032815485
0.032812817
0.032810266
0.032807863
0.032805573
0.032803414
0.032801402
0.032799525
0.032797914
0.032796481
0.032795259
0.032794221
0.032793347
0.032792609
0.032791939
0.032791323
0.032790829
0.032790421
0.032790103
0.032789898
0.032789991
0.032824044
0.032824089
0.032824329
0.032824637
0.032825011
0.032825449
0.032825967
0.03282652
0.032827126
0.032827819
0.032828638
0.032829608
0.032830764
0.032832079
0.032833603
0.032835263
0.032837057
0.032838976
0.032841029
0.032843215
0.03284552
0.032847963
0.032850517
0.032879548
0.032877352
0.032875271
0.03287331
0.032871476
0.032869751
0.032868164
0.032866691
0.032865341
0.032864119
0.032863065
0.032862151
0.032861391
0.032860751
0.032860223
0.032859737
0.032859281
0.032858851
0.032858462
0.032858135
0.032857842
0.032857575
0.032857439
0.0024595715
0.0025370221
0.0026160155
0.0026966262
0.0027811466
0.0028675398
0.0029569612
0.0030477499
0.0031415584
0.0032373074
0.0033351021
0.0034347244
0.0035392895
0.0036462023
0.0037575721
0.0038711873
0.0039889718
0.0041091306
0.0042341962
0.0043622846
0.0044960389
0.0046341327
0.0047772232
0.0049250193
0.0050825472
0.0052458554
0.00541814
0.0055968085
0.0057852507
0.0059804238
0.0061857798
0.006398801
0.0066203741
0.0068487694
0.0070895962
0.0073374359
0.0075932265
0.0078527853
0.008121022
0.0083904324
0.0086623435
0.0089284939
0.0091912114
0.0094424536
0.0096849581
0.0099118639
0.010126635
0.010324688
0.010511683
0.010680619
0.010838045
0.010976271
0.01110131
0.011202264
0.01128086
0.011319367
0.011321551
0.011254756
0.011121954
0.010892831
0.010648236
0.010414262
0.01037085
0.0029821534
0.0056241593
0.003150238
0.0027053905
0.0043085608
0.00339927
0.0024375874
0.003295439
0.0036945915
0.0035498609
0.0041643231
0.0065484231
0.0062740257
0.0033843625
0.0074666272
0.010514924
0.011012067
0.011235294
0.011357568
0.011403446
0.011412522
0.011373805
0.011311407
0.011214353
0.011102701
0.010969559
0.010825885
0.010663914
0.010490858
0.010299597
0.010095237
0.0098738018
0.0096402399
0.0093923131
0.0091355577
0.0088695543
0.0086028576
0.0083314608
0.0080608538
0.0077910521
0.0075300198
0.0072761168
0.0070304361
0.00679122
0.0065639505
0.0063461678
0.0061375696
0.0059361497
0.0057442536
0.0055596476
0.0053841142
0.005215511
0.0050567179
0.0049031276
0.0047569477
0.0046152759
0.0044796277
0.0043475817
0.004220825
0.0040971198
0.0039780761
0.0038616836
0.0037495228
0.003639801
0.0035340618
0.0034306665
0.0033311825
0.0032339148
0.0031399575
0.0030478932
0.0029589195
0.002871659
0.0027867916
0.0027030851
0.0026223286
0.0025437429
0.0026524127
0.0027317409
0.0028118864
0.0028969186
0.0029811099
0.0030691517
0.003157502
0.0032505099
0.0033439386
0.0034423271
0.0035413607
0.0036459458
0.0037512289
0.0038622602
0.0039740603
0.0040919727
0.0042107991
0.0043362342
0.0044628911
0.0045968319
0.0047323806
0.0048759301
0.0050217286
0.0051768084
0.0053350795
0.0055062677
0.005681395
0.0058682039
0.0060591697
0.0062628307
0.0064699338
0.006688794
0.0069152691
0.0071565706
0.0074009166
0.0076557267
0.0079158514
0.0081877015
0.0084570251
0.00872912
0.0089938605
0.0092613994
0.0095168342
0.009766369
0.0099989052
0.010222295
0.010425856
0.010618522
0.010791932
0.010956438
0.011101898
0.011238721
0.011351938
0.011454526
0.011522991
0.011572459
0.011565917
0.011520498
0.011365157
0.011066268
0.0099709541
0.0062518122
0.010467755
0.010791466
0.011165335
0.011495722
0.01177697
0.011881655
0.011956227
0.011921082
0.011882298
0.011784058
0.011692334
0.011560496
0.011434535
0.011275147
0.011121137
0.010934274
0.010753975
0.010537416
0.010328678
0.010083961
0.0098529788
0.009587533
0.0093450846
0.009070082
0.0088196836
0.0085420446
0.0082996372
0.0080348923
0.007805745
0.0075512515
0.0073374752
0.0071029214
0.00690857
0.0066885183
0.0065077246
0.0063025351
0.0061369999
0.0059471965
0.0057978702
0.0056233318
0.0054848762
0.0053216844
0.005193976
0.0050414139
0.0049233303
0.0047803367
0.0046706782
0.0045361378
0.0044340744
0.0043072678
0.004212205
0.0040926009
0.0040040662
0.0038911452
0.0038083638
0.0037013093
0.0036237833
0.0035221423
0.00344898
0.0033520104
0.0032839752
0.0031932687
0.0025447501
0.0026236722
0.0027040401
0.002785846
0.0028712082
0.0029591954
0.0030502813
0.0031429246
0.0032384367
0.0033353231
0.0034358915
0.003536858
0.003640986
0.0037480336
0.0038607856
0.0039759945
0.004095563
0.0042176613
0.0043444067
0.0044740713
0.0046095877
0.0047473013
0.0048911942
0.0050418066
0.0052013801
0.0053670352
0.0055418529
0.0057239743
0.0059162389
0.0061158129
0.0063266785
0.0065431192
0.0067687486
0.0070012468
0.0072439341
0.0074922193
0.0077488908
0.0080082164
0.0082740551
0.0085412321
0.0088103147
0.0090730666
0.0093312749
0.0095774482
0.0098145877
0.010034532
0.010242023
0.010434412
0.010616574
0.01078185
0.010935425
0.011070216
0.011191265
0.011287508
0.011358847
0.011392142
0.011384399
0.011310847
0.011171626
0.010972398
0.010770609
0.010616192
0.0080591299
0.0036940814
0.0034614502
0.0036158847
0.0054087504
0.0052574722
0.0044301773
0.0056196561
0.0033110313
0.0026999581
0.0033006972
0.0026771513
0.0028149375
0.0040423587
0.0055037824
0.0084750719
0.01286994
0.01882297
0.026655431
0.033001826
0.032957047
0.032941097
0.028050717
0.028585416
0.029080214
0.029537447
0.029957833
0.030341378
0.03068797
0.030998664
0.031274565
0.031516894
0.031727893
0.031910095
0.032065483
0.032196567
0.032306437
0.032397768
0.032473278
0.032535854
0.032588154
0.032632739
0.032671761
0.032706968
0.032739782
0.032771216
0.032802001
0.032832629
0.032863419
0.032863465
0.032832564
0.032801773
0.032770763
0.032739025
0.032705808
0.0326701
0.032630425
0.032585075
0.032531855
0.032468162
0.032391383
0.032298534
0.032187171
0.032054291
0.031896615
0.031711773
0.031498277
0.031253038
0.030973512
0.030659353
0.030310284
0.029924146
0.029502405
0.02904377
0.02854702
0.028011871
0.027836318
0.027882374
0.0280298
0.02819363
0.0283337
0.028427461
0.028494289
0.028522883
0.028520053
0.028511588
0.028510414
0.028523955
0.028543921
0.028526326
0.028488934
0.02840825
0.028282626
0.028136284
0.028030735
0.028563311
0.028662147
0.028798508
0.028914894
0.028989216
0.02902759
0.029042357
0.029022531
0.029010139
0.029010918
0.029021011
0.029020569
0.028992951
0.028934494
0.028844448
0.028713231
0.028561979
0.028424024
0.028382115
0.028884567
0.028926237
0.029053364
0.029192404
0.029313607
0.029399506
0.029449766
0.029476239
0.029480127
0.029468245
0.029470204
0.029479215
0.029499275
0.029486193
0.029448884
0.029379545
0.029276533
0.02914847
0.029058145
0.02951381
0.029600056
0.029715155
0.029808448
0.029870785
0.029906815
0.029917291
0.029899758
0.029891503
0.029888613
0.029897796
0.029893054
0.029870634
0.029825492
0.029746344
0.029636506
0.029507847
0.029390956
0.029353255
0.029781728
0.029818415
0.029924803
0.030042753
0.030141234
0.030213377
0.030252774
0.030272045
0.030275881
0.030270368
0.03027481
0.030281572
0.030295798
0.030286665
0.030255482
0.030199545
0.030117435
0.030015619
0.029936168
0.030321631
0.030392258
0.030482536
0.030554583
0.030603238
0.030630345
0.030638048
0.030625959
0.030618209
0.03061458
0.030618112
0.030613529
0.030597191
0.030560784
0.030495547
0.030410729
0.030303747
0.030207952
0.030175387
0.030529537
0.030560427
0.030647176
0.030742174
0.030813517
0.030870814
0.030905462
0.030919314
0.030923843
0.030922606
0.030925049
0.030934038
0.030943788
0.03093761
0.030915479
0.030874492
0.030811175
0.030731963
0.030672338
0.030985142
0.031037825
0.031106
0.031160175
0.031192496
0.031209892
0.03121407
0.031206676
0.031198614
0.031196191
0.031195048
0.031190124
0.031177682
0.031146333
0.031097755
0.031035931
0.030953856
0.030876231
0.030849346
0.031132079
0.031156427
0.031225688
0.031295596
0.031348826
0.031389705
0.031417206
0.031428408
0.03143365
0.03143643
0.031438953
0.031446589
0.031451886
0.031450179
0.031436346
0.031412475
0.03136653
0.031308618
0.031263887
0.031507535
0.03154641
0.03159448
0.031631814
0.031650551
0.031659968
0.031660022
0.031654688
0.031647995
0.031645333
0.031641382
0.031636229
0.031626052
0.031603261
0.031568514
0.031522704
0.03146335
0.031404654
0.03138399
0.031603096
0.03162106
0.031670406
0.031720253
0.031759061
0.031788209
0.03180714
0.031816034
0.031821301
0.031826278
0.03182866
0.031834551
0.031840819
0.031841536
0.031835734
0.031821429
0.031792008
0.03175295
0.031720949
0.031903856
0.031930606
0.031961561
0.031983921
0.031994559
0.031997086
0.031995252
0.0319893
0.031983692
0.031980601
0.031975954
0.031970204
0.031962837
0.031947252
0.031923182
0.031890578
0.031849203
0.031808697
0.03179396
0.031957248
0.03196992
0.032002658
0.032036432
0.032063351
0.032083231
0.032095309
0.032101663
0.032107088
0.032111523
0.032115391
0.032121035
0.032126561
0.032129349
0.032129423
0.032121843
0.032105667
0.03208162
0.032060576
0.032191804
0.032208712
0.032226865
0.032238625
0.032243179
0.032241661
0.032238033
0.032232586
0.032227021
0.032222595
0.032218152
0.032213921
0.032208232
0.032198433
0.03218262
0.032161135
0.032133799
0.03210739
0.032097011
0.032215183
0.032223989
0.03224531
0.032267009
0.03228391
0.032296226
0.032304489
0.032309257
0.032312527
0.032316816
0.032321265
0.032326694
0.032331935
0.032335976
0.032338612
0.032336423
0.032328123
0.032315196
0.032302028
0.032393735
0.032403472
0.032412829
0.032417809
0.032418228
0.032415133
0.03241091
0.032405802
0.032400904
0.032396745
0.032392904
0.032389818
0.032385811
0.032379359
0.032369789
0.032356317
0.032339422
0.03232287
0.032315989
0.032401112
0.032406578
0.032419243
0.032432226
0.032442744
0.03245016
0.032455038
0.032458383
0.032461176
0.032464663
0.032468447
0.032472684
0.032477592
0.03248177
0.032484838
0.032485741
0.032483003
0.032476516
0.032469993
0.032532862
0.032537493
0.032541719
0.032542917
0.032541263
0.032538172
0.032534222
0.032529887
0.032526036
0.032522746
0.032519771
0.032517422
0.032514654
0.032510902
0.032505254
0.032497139
0.032487262
0.032477868
0.032473728
0.03253574
0.032539028
0.032545887
0.032553223
0.032559472
0.03256365
0.032566497
0.032568755
0.032570684
0.032573157
0.032575952
0.032579356
0.032583102
0.032586688
0.032589728
0.03259164
0.032591423
0.03258883
0.032585711
0.032630813
0.032632912
0.032634386
0.032634062
0.032632098
0.032629246
0.032626132
0.032622981
0.032620113
0.03261772
0.032615681
0.032614067
0.032612322
0.032610112
0.032607087
0.032602507
0.032597199
0.032592055
0.032589592
0.032636969
0.032638889
0.032642676
0.032646531
0.032649795
0.032651927
0.032653627
0.032654944
0.032656265
0.032657911
0.032659902
0.032662279
0.032664831
0.032667463
0.032669996
0.032671892
0.032672501
0.032671791
0.032670402
0.032706065
0.03270699
0.032707302
0.03270653
0.032704851
0.032702723
0.032700554
0.032698477
0.032696588
0.03269499
0.032693688
0.032692606
0.032691612
0.032690395
0.032688896
0.032686622
0.032683853
0.032681093
0.032679654
0.032718785
0.032719923
0.032721936
0.032723906
0.03272545
0.032726447
0.032727294
0.032728026
0.032728888
0.032729908
0.032731155
0.032732619
0.032734278
0.032736005
0.032737747
0.032739165
0.032739976
0.032739881
0.032739272
0.032771007
0.032771466
0.032771436
0.032770692
0.032769509
0.032768116
0.03276676
0.032765493
0.032764378
0.032763422
0.032762642
0.03276198
0.032761442
0.032760884
0.032760249
0.03275923
0.032757842
0.03275637
0.032755479
0.032790468
0.032791211
0.032792319
0.032793281
0.032793912
0.032794285
0.032794629
0.032795011
0.032795512
0.032796095
0.032796811
0.03279764
0.032798579
0.032799627
0.032800708
0.032801685
0.032802328
0.032802401
0.032802055
0.032832873
0.032833181
0.032833104
0.032832565
0.032831767
0.032830931
0.03283015
0.032829466
0.032828864
0.03282834
0.032827906
0.032827543
0.032827279
0.032827091
0.032826908
0.032826549
0.032825886
0.03282504
0.032824401
0.0328577
0.032858277
0.032858951
0.032859404
0.032859574
0.03285962
0.032859701
0.032859873
0.032860132
0.032860447
0.032860821
0.032861247
0.032861731
0.032862302
0.032862946
0.032863594
0.032864046
0.032864107
0.032863811
0.0026456753
0.0027269705
0.002809831
0.0028942583
0.0029805151
0.0030680354
0.0031594818
0.0032526412
0.0033491381
0.003446952
0.0035478734
0.003650607
0.0037556991
0.0038628326
0.0039754458
0.0040903255
0.0042097674
0.0043315039
0.0044580873
0.0045873848
0.0047223253
0.0048611357
0.0050045945
0.0051528306
0.0053111829
0.0054743928
0.0056468124
0.0058280347
0.0060204794
0.0062201159
0.006430355
0.0066482253
0.0068768013
0.0071124709
0.0073554782
0.0076031728
0.0078607287
0.0081214551
0.0083851833
0.0086470201
0.0089113214
0.0091689479
0.009422575
0.0096637524
0.0098957875
0.010112099
0.010315712
0.010502959
0.010681659
0.010845154
0.011000003
0.011138288
0.011264943
0.011369609
0.011453892
0.011502785
0.011520065
0.011482221
0.011399112
0.011256289
0.011107578
0.011005113
0.0056738721
0.0049130098
0.0033997424
0.0038720082
0.0060623805
0.0051517256
0.0069050758
0.0065639406
0.0061815928
0.0054455741
0.0064113102
0.0060467681
0.0041910947
0.0027163157
0.0038884925
0.0050938193
0.0058910034
0.0060615727
0.0065208524
0.0053374771
0.0033548434
0.0031335541
0.0026759017
0.0034035272
0.0035339179
0.0049048308
0.007474231
0.01175352
0.017339633
0.0248015
0.033039955
0.03298598
0.032962809
0.0049096924
0.0050860047
0.0052718716
0.0054710565
0.005681582
0.0059069096
0.0061459036
0.0064014285
0.0066727213
0.0069628766
0.007270726
0.0075988304
0.007946009
0.0083138343
0.008698297
0.0090973649
0.0095009748
0.0099029275
0.010290735
0.010655847
0.010982369
0.011263176
0.011489273
0.01165806
0.011765642
0.01181561
0.011804484
0.011748231
0.01167288
0.011659475
0.011789274
0.0063594564
0.0034179704
0.0031533981
0.0033502634
0.0043663672
0.0062389948
0.0070003396
0.010541252
0.015231853
0.021615918
0.029888279
0.032966194
0.032932295
0.032924295
0.032911143
0.032911119
0.032932783
0.032981147
0.025743785
0.018900759
0.013720366
0.0099233999
0.0070747714
0.0046880563
0.0036856363
0.0037700008
0.0044106195
0.0067144042
0.01182539
0.013121371
0.012841215
0.012649542
0.012498194
0.012364305
0.012240992
0.012109957
0.011981686
0.011812325
0.011642099
0.01141752
0.011201626
0.010935292
0.010685599
0.010394804
0.010133913
0.0098417699
0.0095924839
0.0093159419
0.0090856944
0.0088299631
0.0086270549
0.0083974941
0.0082192678
0.0080128831
0.0078604816
0.0076785217
0.0075510171
0.0073910932
0.0072829411
0.010620987
0.010537666
0.010901645
0.010833552
0.011214857
0.011166435
0.011567394
0.011541295
0.011959302
0.011952533
0.012386855
0.012400098
0.012843693
0.012870598
0.013318064
0.013353385
0.013799061
0.013831934
0.014269131
0.014285752
0.014714857
0.014709753
0.015149586
0.015131049
0.015605902
0.015590087
0.016126282
0.016199748
0.0132635
0.010867727
0.0078051161
0.0060203417
0.005107449
0.0050189477
0.0055797583
0.006954547
0.008944047
0.011034423
0.013842056
0.017999659
0.02381803
0.031229213
0.032934283
0.032901814
0.032893003
0.032900503
0.032891885
0.032878132
0.032875775
0.032890987
0.032927764
0.030071486
0.023844873
0.018907583
0.015594516
0.013877216
0.013763549
0.0085866641
0.0102968
0.01403605
0.019799465
0.019715309
0.018737595
0.017943794
0.017263799
0.01665698
0.016102233
0.015581657
0.015085537
0.014607994
0.014147433
0.013709333
0.013314536
0.012961783
0.018773016
0.01917284
0.019567041
0.019962897
0.020397954
0.020877783
0.021416899
0.022020365
0.022691701
0.023430615
0.024262321
0.025227595
0.026362191
0.023511395
0.018479237
0.015402045
0.020669751
0.018922104
0.019475105
0.021888614
0.025803113
0.030961801
0.032906637
0.032872336
0.032855454
0.032854982
0.032866118
0.032884873
0.032879289
0.032856809
0.032839273
0.032828964
0.03282894
0.032842138
0.032868228
0.032900436
0.029864525
0.02729824
0.026554859
0.028267944
0.032406071
0.024605836
0.03040766
0.030706556
0.030001463
0.029309891
0.028645692
0.028011999
0.027395503
0.02679991
0.026228715
0.025689061
0.025186604
0.024716605
0.024235479
0.023730877
0.026521778
0.027122762
0.027700129
0.028258826
0.02879705
0.029317191
0.029815806
0.030289896
0.030737556
0.031159715
0.031554527
0.031916563
0.032234543
0.032496328
0.032598196
0.032707126
0.032776429
0.032813164
0.03282459
0.032819667
0.03280772
0.032796829
0.032792891
0.032797458
0.032809552
0.032827422
0.032849564
0.032874832
0.032871363
0.032844138
0.032818859
0.032795996
0.032776111
0.032759733
0.032747157
0.032737502
0.032728041
0.032714033
0.032688877
0.032645353
0.032577369
0.03248094
0.032353716
0.032451452
0.032263136
0.032033765
0.031764433
0.031456849
0.031111866
0.030730522
0.030310096
0.029850793
0.029355263
0.028824903
0.028260521
0.027661869
0.027924702
0.028510717
0.029059121
0.029564322
0.030030849
0.030456087
0.030839997
0.031186326
0.03149685
0.031768215
0.031999278
0.03219455
0.032061248
0.032220134
0.032349883
0.032452429
0.032530976
0.032589154
0.032631914
0.032664133
0.032690487
0.032714278
0.032737523
0.032761356
0.032786312
0.032812545
0.03284002
0.032868678
0.032866703