/*--------------------------------*- C++ -*----------------------------------*\
| =========                 |                                                 |
| \\      /  F ield         | OpenFOAM: The Open Source CFD Toolbox           |
|  \\    /   O peration     | Version:  v2012                                 |
|   \\  /    A nd           | Website:  www.openfoam.com                      |
|    \\/     M anipulation  |                                                 |
\*---------------------------------------------------------------------------*/
FoamFile
{
    version     2.0;
    format      ascii;
    class       surfaceScalarField;
    location    "100";
    object      phi;
}
// * * * * * * * * * * * * * * * * * * * * * * * * * * * * * * * * * * * * * //

dimensions      [0 3 -1 0 0 0 0];
oriented        oriented;


internalField   nonuniform List<scalar> 
142619
(
-0.0040685012
-7.729986e-06
1.5552235e-05
-1.1219969e-06
-0.0040745349
-6.7750279e-06
1.3631616e-05
-8.2282256e-07
-0.0040798176
-5.7144081e-06
1.1502231e-05
-5.0512305e-07
-0.0040842723
-4.5471138e-06
9.1649029e-06
-1.6314096e-07
-0.0040878094
-3.2788594e-06
6.6196561e-06
1.9634622e-07
-0.004090341
-1.9127386e-06
3.876145e-06
5.681827e-07
-0.004091785
-4.5787956e-07
9.5014283e-07
9.5174069e-07
-0.0040920566
1.0668862e-06
-2.1431806e-06
1.3478885e-06
-0.0040910643
2.6006029e-06
-5.3261394e-06
1.733249e-06
-0.0040887637
4.3320218e-06
-8.7631232e-06
2.1304342e-06
-0.0040850938
6.0694046e-06
-1.2272064e-05
2.5327579e-06
-0.0040800392
7.7987524e-06
-1.5784427e-05
2.9310617e-06
-0.0040736269
9.4540511e-06
-1.917173e-05
3.3054087e-06
-0.0040659528
1.0976651e-05
-2.2300186e-05
3.6494324e-06
-0.0040571905
1.2292733e-05
-2.5008783e-05
3.9537312e-06
-0.0040475832
1.3325753e-05
-2.7135217e-05
4.2021667e-06
-0.0040374414
1.4012721e-05
-2.8537155e-05
4.3826964e-06
-0.0040271111
1.4320359e-05
-2.9139146e-05
4.4885012e-06
-0.0040169127
1.4263131e-05
-2.8977488e-05
4.5158975e-06
-0.0040071055
1.3894068e-05
-2.8170806e-05
4.4695847e-06
-0.0039978854
1.3275506e-05
-2.6854882e-05
4.3592454e-06
-0.0039893765
1.2478377e-05
-2.5182606e-05
4.1953767e-06
-0.00398164
1.1569725e-05
-2.3297176e-05
3.9909185e-06
-0.0039746873
1.060873e-05
-2.1318241e-05
3.7568211e-06
-0.0039684928
9.6405659e-06
-1.9337998e-05
3.502918e-06
-0.0039630125
8.7001591e-06
-1.7422407e-05
3.2419453e-06
7.8084959e-06
-1.561268e-05
2.9808674e-06
-9.1879779e-06
0.00026763785
-0.00058703298
0.00031447124
-1.2565864e-05
0.00026804844
-0.0005794266
0.00031475605
-9.9063397e-06
0.00026799886
-0.00058482467
0.00031416628
-1.9252822e-05
0.00026695069
-0.00057033809
0.00031273388
-4.9572624e-05
0.00026998425
0.00031067785
-0.0005503423
-0.00022527279
0.00030324772
0.00033769216
-0.00046523971
-0.00022975055
0.00011428422
6.5542766e-05
-0.00017534923
-0.00025301456
3.6174095e-05
-4.0609426e-05
2.7699343e-05
-4.7093989e-05
0.00015779214
-0.00061731284
0.00025360013
-2.8642455e-05
0.00023473917
-0.00055096954
0.00029777884
-1.4012023e-05
0.00025666783
-0.00058081706
0.0003095188
-1.7289916e-05
0.00026398239
-0.00057365228
0.00031294779
-1.3019943e-05
0.00026644223
-0.00058454613
0.00031383393
-2.3671716e-05
0.00026608286
-0.00056842465
0.00031299357
-5.2281014e-05
0.00026931734
-0.00055183452
0.00031112648
-0.00022816167
0.00030226578
-0.00046480801
0.00033842289
-0.00023147764
0.00011113466
-0.00017000839
6.2189705e-05
-0.00025676604
3.3192395e-05
-3.2255932e-05
2.4351945e-05
-5.2705034e-05
0.0001561483
-0.00061239489
0.00025218558
-4.1375045e-05
0.00023023072
-0.00053471129
0.00029315058
-5.7068438e-05
0.00025490607
0.00030279179
-0.00054200446
-0.00022900995
0.00029541293
-0.00045731379
0.00033384237
-0.00023191706
0.0001065414
-0.00016201216
5.8377874e-05
-0.00026212837
3.071307e-05
-2.1746177e-05
2.1244411e-05
-5.7260452e-05
0.00015575699
-0.00061297336
0.00025234846
-4.9818472e-05
0.00022945854
-0.00053042969
0.00029352917
-6.3288529e-05
0.00025418745
-0.00054385119
0.0003031338
-0.00023642411
0.00029289804
-0.00045343474
0.00033367229
-0.00023591656
9.7317822e-05
-0.00014747041
4.964504e-05
-0.00026759071
2.1548125e-05
-1.0301793e-06
1.11562e-05
-9.7089302e-05
0.00015383505
-0.00057078411
0.00024644765
-0.00024060335
0.00025405103
-0.00042400349
0.00031346651
-0.00023716612
8.1383091e-05
-0.00012217329
3.7352963e-05
-0.00027184148
1.3360162e-05
1.818395e-05
3.1312458e-06
-0.00010972887
0.00014960337
-0.00055311077
0.0002413948
-0.00026479432
0.00024766364
-0.00040585835
0.00031326016
-0.00026438027
5.980978e-05
-8.6348524e-05
2.6124693e-05
-0.00025617978
-7.3745482e-05
0.00010698068
-4.1435695e-05
-0.00025349071
0.00041470422
-0.00010063553
-0.00031675775
-0.00029077488
2.3725571e-05
-2.0385702e-05
3.3944295e-05
-0.00033079404
7.3031293e-06
9.8883683e-06
2.2827665e-05
-0.00034243323
-1.0655259e-05
4.7695921e-06
1.7524856e-05
-0.00037126889
3.4372806e-05
8.6408962e-07
-6.4012407e-06
-0.0002955111
-5.8494013e-05
-2.3765372e-05
6.5016005e-06
-0.00011770486
0.00012951434
-0.00016520504
-0.00014211555
-0.000150965
-4.8207832e-06
1.9344547e-05
1.8736381e-05
-0.00022099021
-2.375818e-05
6.975681e-05
2.4026574e-05
-0.00024344949
-1.7122774e-05
1.0952401e-05
2.8629661e-05
-0.00026575836
-1.292975e-05
1.3575475e-05
2.1663142e-05
-0.00028123454
-1.1506683e-05
1.1187623e-05
1.5795235e-05
-0.0002927475
-1.1155652e-05
1.0675464e-05
1.1993149e-05
-0.0003024814
-1.0829098e-05
9.994051e-06
1.0568948e-05
-0.00031186311
-1.0761803e-05
9.3775585e-06
1.0765958e-05
-0.00032185188
-1.0797153e-05
1.086714e-05
9.9187784e-06
-0.00033294322
-1.0723375e-05
1.0932176e-05
1.0882545e-05
-0.00034477548
-1.0561971e-05
1.0716459e-05
1.1677768e-05
-0.00035681443
-1.0704646e-05
1.2332527e-05
1.0411066e-05
-0.0003680256
-1.0423862e-05
9.050604e-06
1.2584426e-05
-0.00037488686
-6.1903236e-06
4.1695925e-06
8.8819971e-06
-0.00033700832
4.9708273e-06
-2.3653765e-05
-1.91956e-05
-9.1979297e-05
2.1256797e-05
-0.00012934243
-0.0001369434
-0.00011952158
-2.7750563e-06
1.4982902e-05
1.5334439e-05
-0.00010731894
-2.8595837e-05
4.589739e-06
1.1803461e-05
-0.0002029869
-0.00028300517
0.00020083485
0.00017783828
-0.00022147668
2.2514571e-05
-2.7299375e-05
2.3274578e-05
-0.00021471654
-9.2532965e-05
0.00013461867
-4.8845842e-05
-0.00028057875
0.00039125376
-1.4671994e-05
-0.00031071956
-0.00033362383
-4.894776e-07
-4.0396888e-06
5.757425e-05
-0.00038500578
1.3320031e-05
3.545624e-06
3.4516292e-05
-0.00034336382
-0.00010841743
8.4448819e-06
5.8330586e-05
-0.00022977981
0.000118468
-2.0625512e-05
-0.00021142649
-0.00027835904
-1.501251e-05
-2.6485289e-06
6.6240271e-05
-0.00032762119
-4.4827824e-06
3.6021466e-06
5.0142785e-05
-0.00034600426
5.3952575e-06
-6.1804253e-06
1.9168236e-05
-0.00011706797
1.7909329e-05
-0.00013548127
-0.00011136435
-0.00023021717
-8.3481426e-06
4.5675526e-05
7.5821817e-05
-0.00029504127
-1.199311e-05
6.446981e-05
1.2347408e-05
-0.00032904522
-4.4135401e-06
-8.8083004e-06
4.7225791e-05
-0.00017858061
2.7670333e-05
-2.20513e-05
-0.00015608365
-0.00025516575
1.9035291e-05
4.2705848e-06
5.3279264e-05
-0.00027118088
-7.5217442e-05
-8.0358601e-07
9.2036154e-05
-0.00018912044
0.00012421686
-2.82352e-05
-0.00017804209
-0.00018713356
-4.9984709e-05
-2.7908939e-05
7.5906766e-05
-9.4955821e-05
9.7859423e-05
-5.4422199e-05
-0.00013561496
-5.5302556e-05
4.7313036e-05
-4.1230291e-05
-4.573601e-05
-8.5972e-05
3.8406319e-05
-2.0477538e-05
1.2740663e-05
-8.9247091e-05
3.5316321e-05
-4.1083614e-05
9.0423836e-06
6.7476578e-05
-5.9949063e-05
-0.00024037803
0.00014360342
6.0341274e-05
8.6316271e-05
-0.00021652441
0.00013734344
0.00016395668
6.2809876e-05
-0.00030027943
0.00013385415
-1.3881067e-05
0.00010174584
8.7210798e-05
-1.1118894e-05
-3.1244614e-05
7.0739981e-05
9.4334421e-06
8.1692418e-05
8.69556e-06
6.0638944e-05
3.7831163e-05
2.162863e-05
0.00010882112
-5.6556212e-05
5.5687075e-05
2.4799967e-05
7.10516e-05
3.2528897e-05
-1.9559347e-05
6.5604917e-05
7.0697643e-06
0.00017863583
4.6241877e-05
-8.8221192e-05
4.5075982e-05
9.0467705e-05
1.6631228e-05
2.6460917e-05
9.3768928e-05
3.0646818e-07
0.00025832264
2.9327789e-05
-0.0001034138
0.00021677418
7.0822061e-06
5.3501548e-05
0.00031512342
-0.00018967712
0.00011899821
0.00032873288
7.7920233e-05
-9.5943234e-05
0.00025830371
9.6524426e-06
4.8783618e-05
0.00018716263
3.2576918e-06
5.9535249e-05
0.00035624759
1.8760778e-05
-0.00016993641
0.00034226323
-1.2036824e-05
3.1416446e-05
0.00030132516
-1.3802467e-05
5.0257751e-05
0.00023776887
-1.2932798e-05
6.147658e-05
7.8070183e-05
0.00012275432
-6.6570403e-06
4.3601406e-05
0.00011856657
-3.0445827e-05
0.00035491565
3.1637461e-05
-0.00014523222
0.00035288358
-3.9608591e-06
1.9312956e-05
0.0003179165
-1.4269831e-05
4.8747441e-05
0.00020811393
-2.0251448e-05
3.7521051e-05
0.00021390969
-1.2320018e-06
1.7950808e-05
0.00016321432
9.6346451e-06
1.2464889e-05
0.00013213267
8.7056525e-07
2.7436032e-05
0.00033539228
-2.7012065e-05
-0.00015499075
0.00037359385
-2.5083622e-05
-8.1471175e-06
0.00037439735
-1.7899188e-05
1.0905364e-05
0.00036431851
-1.3451366e-05
1.3106339e-05
0.00035184572
-1.0686707e-05
1.2454858e-05
0.00033975142
-1.0090925e-05
1.1623253e-05
0.00032820234
-1.0368936e-05
1.1194638e-05
0.00031785992
-1.0702594e-05
1.0247863e-05
0.00030874179
-1.0842761e-05
9.1990823e-06
0.00029989148
-1.0931552e-05
8.9527671e-06
0.00029000857
-1.112615e-05
9.8534055e-06
0.00027970106
-1.1710648e-05
1.0511478e-05
0.00026583636
-1.2848394e-05
1.3783345e-05
0.0002473282
-1.4480085e-05
1.5865471e-05
0.00021887116
-1.3868114e-05
1.8566968e-05
0.00019777407
-1.085884e-05
2.7135152e-05
4.8290424e-05
0.00012668787
-4.0474625e-06
2.6843233e-05
0.00013930544
-1.9994694e-05
0.00029147744
-0.00016994726
0.00014446314
0.00035643964
2.4517871e-06
-3.304118e-05
0.00037539615
2.2772194e-05
-5.2383967e-05
0.00032875589
-9.2579764e-07
5.4869188e-05
0.00032516282
2.4939367e-05
2.379272e-06
0.00024999409
1.3189717e-05
-1.1766469e-05
0.00032390741
-9.9265473e-06
-4.176989e-06
3.7869783e-05
-2.2596657e-05
-1.8767598e-05
0.00032740188
2.8061572e-05
-3.2244771e-05
0.00028971662
0.00020644252
-1.5417417e-05
0.0003124156
-2.3759596e-05
-8.3039326e-07
1.9751833e-05
-2.9951295e-05
-6.6174515e-06
0.00032923252
1.7628427e-05
-3.7269077e-05
0.00029344351
0.00020987964
-1.6868038e-05
0.00032616547
-2.7372639e-05
8.4046344e-06
1.5503738e-05
-3.2071257e-05
0.00034751765
-4.784657e-06
2.6326678e-05
-4.7156344e-05
0.00032923144
1.6763627e-05
0.00030679558
-4.3045077e-05
2.5320536e-06
0.00028001034
-3.6320229e-05
0.00020698616
-1.7984044e-05
0.00032479572
1.7613006e-05
-2.8881171e-05
7.7612943e-06
2.9885698e-06
0.00034851168
-3.4465825e-05
2.2145433e-05
0.00032996851
-4.8939725e-05
1.3705879e-05
0.00030708826
-4.3742646e-05
-9.0988835e-08
0.00028065853
-3.6630942e-05
0.00020760288
-1.8353178e-05
0.0003285107
1.9713515e-05
-2.9486681e-05
8.4125645e-06
8.9434533e-06
0.00034881285
-3.7658166e-05
2.4148131e-05
0.00033549833
-4.896812e-05
1.4599685e-05
0.00032535345
-4.6487665e-05
1.003754e-05
0.00031834659
-4.7701587e-05
8.6441049e-06
0.00031555222
-4.7716561e-05
6.8560454e-06
0.0003123926
-4.6622158e-05
3.5551954e-06
0.00030453941
-4.457073e-05
-5.5125269e-06
0.00028197971
-3.8172819e-05
0.00020772117
-1.9267466e-05
0.00032811612
2.5573287e-05
-3.1684013e-05
7.0004905e-06
0.00034915333
9.796947e-06
-3.7834647e-05
2.2217775e-05
-4.9476901e-05
0.00033750734
1.2282189e-05
0.00032684188
-4.692204e-05
7.8923478e-06
0.0003196023
-4.8261769e-05
7.422765e-06
0.00031731881
-4.885036e-05
7.2536731e-06
0.00031690172
-4.8684186e-05
0.00031636344
-4.8116891e-05
0.0038934209
-2.232674e-06
-2.4532082e-06
0.0038983285
-2.2946236e-06
-2.6129217e-06
0.0039034311
-2.3388322e-06
-2.7637832e-06
0.0039086932
-2.3597188e-06
-2.9023505e-06
0.0039140745
-2.3593939e-06
-3.0219819e-06
0.003919529
-2.336984e-06
-3.1174986e-06
0.0039249997
-2.2845767e-06
-3.1861168e-06
0.0039304227
-2.1999265e-06
-3.2230459e-06
0.0039357319
-2.0835078e-06
-3.2256891e-06
0.003940857
-1.932432e-06
-3.1927329e-06
0.0039457222
-1.7483732e-06
-3.1167411e-06
0.0039502517
-1.5320445e-06
-2.9974705e-06
0.0039543757
-1.2813131e-06
-2.8426995e-06
0.0039580265
-1.0016922e-06
-2.649153e-06
0.0039611435
-6.9712961e-07
-2.4198919e-06
0.0039636757
-3.7014965e-07
-2.1619855e-06
0.0039655771
-2.4742353e-08
-1.8766841e-06
0.0039668117
3.345764e-07
-1.5692037e-06
0.0039673155
7.1957737e-07
-1.2233605e-06
0.0039672028
1.0434234e-06
-9.306899e-07
0.0039664346
1.3840435e-06
-6.1582939e-07
0.0039650084
1.7221967e-06
-2.9599488e-07
0.0039629439
2.0458721e-06
1.8632498e-08
0.0039602812
2.3437537e-06
3.1892665e-07
0.0039570633
2.6183125e-06
5.9952928e-07
0.0039533338
2.8690353e-06
8.6046275e-07
3.0862554e-06
1.1014228e-06
-3.1321007e-05
-0.0042572669
1.2228842e-05
-3.2363516e-05
-0.0042557531
1.2125472e-05
-3.338563e-05
-0.0042541419
1.2025829e-05
-3.4397203e-05
-0.0042524694
1.1924267e-05
-3.5400364e-05
-0.0042507645
1.1817005e-05
-3.6394817e-05
-0.0042489877
1.1701595e-05
-3.7384082e-05
-0.0042470911
1.1576817e-05
-3.836616e-05
-0.0042451606
1.143586e-05
-3.9331494e-05
-0.0042431469
1.1271271e-05
-4.0256039e-05
-0.004241015
1.1067239e-05
-4.1110728e-05
-0.0042387964
1.0816463e-05
-4.1856678e-05
-0.0042365355
1.0508643e-05
-4.2446989e-05
-0.0042341906
1.0135517e-05
-4.2830165e-05
-0.0042317802
9.6917367e-06
-4.2951592e-05
-0.0042292643
9.1740077e-06
-4.2762021e-05
-0.0042266916
8.5871778e-06
-4.2221505e-05
-0.0042241257
7.9438129e-06
-0.0042216018
7.2590049e-06
3.5001097e-05
-0.004228551
4.1971427e-06
3.7091761e-05
-0.0042248244
4.8114769e-06
3.8832179e-05
-0.0042249495
5.4689767e-06
4.0202242e-05
-0.0042268389
6.1527934e-06
4.1193804e-05
-0.0042294366
6.8432359e-06
4.1817463e-05
-0.0042322681
7.5186627e-06
4.2102198e-05
-0.0042351314
8.1550377e-06
4.2083275e-05
-0.0042379837
8.7382906e-06
4.1806847e-05
-0.0042407601
9.2563622e-06
4.1325386e-05
-0.0042434129
9.7037864e-06
4.0689798e-05
-0.0042459832
1.00833e-05
3.9945519e-05
-0.0042484524
1.0400321e-05
3.9127458e-05
-0.0042508602
1.066331e-05
3.8262336e-05
-0.004253164
1.0882219e-05
3.737213e-05
-0.0042553344
1.1063913e-05
3.6467027e-05
-0.0042574081
1.1222145e-05
3.5549277e-05
-0.004259435
1.1364973e-05
3.4617451e-05
-0.0042613314
1.1498672e-05
3.3668306e-05
-0.004263145
1.1624694e-05
3.2696326e-05
-0.004264917
1.1747116e-05
3.1693986e-05
-0.0042666188
1.1868024e-05
3.065391e-05
-0.0042682168
1.1989978e-05
2.9564775e-05
-0.0042697517
1.2116681e-05
-0.0042712275
1.2246344e-05
-2.88021e-05
-0.0042835129
1.2055442e-05
-2.992527e-05
-0.0042820061
1.1901727e-05
-3.0981328e-05
-0.0042804479
1.1752286e-05
-3.1979372e-05
-0.0042788228
1.1604072e-05
-3.2933689e-05
-0.004277126
1.146157e-05
-3.384771e-05
-0.0042753214
1.1318384e-05
-3.4726181e-05
-0.0042734407
1.1174225e-05
-3.5577654e-05
-0.0042715074
1.1027503e-05
-3.6407857e-05
-0.0042694795
1.087474e-05
-3.7216768e-05
-0.0042673121
1.0712872e-05
-3.8001229e-05
-0.0042650857
1.0535776e-05
-3.8750285e-05
-0.004262751
1.0336053e-05
-3.9444928e-05
-0.0042602685
1.0102906e-05
-4.0048632e-05
-0.0042576767
9.8280173e-06
-4.0566468e-05
-0.0042549675
9.5020828e-06
-4.0919558e-05
-0.0042521782
9.1184305e-06
-4.1082496e-05
-0.0042492678
8.6706084e-06
-4.0970361e-05
-0.0042462532
8.157393e-06
-4.0577975e-05
-0.0042431068
7.5830925e-06
-3.9860923e-05
-0.0042399455
6.9604239e-06
-3.8794346e-05
-0.0042368065
6.3032901e-06
-3.7371422e-05
-0.0042338969
5.6350855e-06
-3.5602454e-05
-0.0042316953
4.9768852e-06
-3.3511168e-05
-0.0042312642
4.3485534e-06
-3.1127245e-05
-0.0042346992
3.7642243e-06
-2.8482865e-05
-0.0042454633
3.2343454e-06
-2.5609333e-05
-0.004267865
2.7656934e-06
-2.2537291e-05
-0.0043043847
2.3640186e-06
-1.9305737e-05
-0.0043502403
2.0332154e-06
-1.5970289e-05
-0.0043876373
1.7723336e-06
-1.26071e-05
-0.0043859587
1.5738633e-06
-9.306854e-06
-0.004316522
1.4309176e-06
-6.1426461e-06
-0.0041821773
1.3344387e-06
-0.0040365928
1.2381253e-06
5.7131234e-06
-0.0040404145
9.7758207e-07
8.6636268e-06
-0.0041861827
1.0549676e-06
1.1750043e-05
-0.0043207427
1.1343206e-06
1.4905777e-05
-0.0043903722
1.2577729e-06
1.8048606e-05
-0.0043922129
1.4327769e-06
2.1111313e-05
-0.0043549689
1.6659488e-06
2.4043537e-05
-0.0043092818
1.9648522e-06
2.6808846e-05
-0.0042729607
2.3303989e-06
2.9377644e-05
-0.0042507919
2.7598008e-06
3.1720311e-05
-0.0042402906
3.2487683e-06
3.3803729e-05
-0.00423714
3.792383e-06
3.5597147e-05
-0.0042378693
4.3805244e-06
3.7074587e-05
-0.0042403755
5.0011013e-06
3.822197e-05
-0.0042435895
5.6356036e-06
3.9029609e-05
-0.0042470177
6.2645318e-06
3.9552959e-05
-0.0042504964
6.8662338e-06
3.9773716e-05
-0.0042538996
7.4256151e-06
3.9780585e-05
-0.0042572043
7.929635e-06
3.9577447e-05
-0.0042603506
8.3755096e-06
3.9220112e-05
-0.0042633723
8.7621247e-06
3.8748317e-05
-0.0042663003
9.0953423e-06
3.8191466e-05
-0.0042690936
9.3818939e-06
3.7572925e-05
-0.0042717626
9.630132e-06
3.6907794e-05
-0.0042742695
9.8489399e-06
3.6205888e-05
-0.0042766571
1.0046908e-05
3.5460986e-05
-0.0042789646
1.0230001e-05
3.4710385e-05
-0.0042811614
1.0404619e-05
3.3923024e-05
-0.004283227
1.0573598e-05
3.3062817e-05
-0.0042852032
1.0742039e-05
3.2152553e-05
-0.0042871242
1.0908394e-05
3.1214844e-05
-0.0042889588
1.1073712e-05
3.0198949e-05
-0.0042906759
1.1243845e-05
2.9094567e-05
-0.0042923169
1.1415222e-05
-0.0042939405
1.1588773e-05
-2.9320479e-05
1.0977402e-05
-3.0373123e-05
-0.0043020467
1.0782391e-05
-3.1342185e-05
-0.0043002945
1.0587718e-05
-3.2237725e-05
-0.0042984581
1.0394883e-05
-3.3070295e-05
-0.0042964962
1.0204606e-05
-3.3842762e-05
-0.004294444
1.0013289e-05
-3.4557473e-05
-0.0042923326
9.820289e-06
-3.5224648e-05
-0.0042901214
9.62718e-06
-3.5850102e-05
-0.0042877679
9.428778e-06
-3.643252e-05
-0.0042852973
9.2225845e-06
-3.6966116e-05
-0.0042827392
9.0033305e-06
-3.744276e-05
-0.0042800505
8.7645607e-06
-3.7849212e-05
-0.0042771875
8.5003987e-06
-3.8162569e-05
-0.004274189
8.2020562e-06
-3.8355179e-05
-0.0042710427
7.8630008e-06
-3.8392251e-05
-0.0042677895
7.4759522e-06
-3.823805e-05
-0.0042643952
7.0367434e-06
-3.7856938e-05
-0.0042608272
6.5465201e-06
-3.7225553e-05
-0.004257137
6.009167e-06
-3.6281263e-05
-0.0042533989
5.4369202e-06
-3.5047453e-05
-0.0042496684
4.8450569e-06
-3.3515731e-05
-0.0042461606
4.2534526e-06
-3.1703232e-05
-0.0042433623
3.6805246e-06
-2.963801e-05
-0.0042423486
3.1433901e-06
-2.7351594e-05
-0.0042452288
2.6517612e-06
-2.4876578e-05
-0.0042554815
2.2145098e-06
-2.2241807e-05
-0.0042774296
1.8341881e-06
-1.9475415e-05
-0.0043135614
1.5132192e-06
-1.6610174e-05
-0.0043590879
1.2537677e-06
-1.3690715e-05
-0.0043961871
1.054731e-06
-1.0774806e-05
-0.0043941974
9.092354e-07
-7.9338065e-06
-0.0043243958
8.1207371e-07
-5.2237838e-06
-0.0041896491
7.5630925e-07
-0.0040437193
6.993564e-07
4.6817688e-06
-0.0040464523
3.9495541e-07
7.1209151e-06
-0.0041925159
4.2771078e-07
9.6864268e-06
-0.0043274199
4.5859135e-07
1.2332507e-05
-0.0043973714
5.2790911e-07
1.5001206e-05
-0.0043994966
6.4079671e-07
1.7642814e-05
-0.0043625305
8.0094923e-07
2.0218747e-05
-0.0043171517
1.01433e-06
2.270036e-05
-0.004281194
1.2827708e-06
2.5062961e-05
-0.00425945
1.6059146e-06
2.7278712e-05
-0.004249427
1.9824654e-06
2.9315199e-05
-0.0042467962
2.4110764e-06
3.1140768e-05
-0.004248074
2.8861253e-06
3.2725228e-05
-0.0042511449
3.3997999e-06
3.4048145e-05
-0.0042549288
3.9374985e-06
3.5088434e-05
-0.0042589221
4.4828766e-06
3.5888728e-05
-0.0042629545
5.0172624e-06
3.6432253e-05
-0.004266896
5.525277e-06
3.6758712e-05
-0.0042707172
5.9954541e-06
3.6898767e-05
-0.004274353
6.4234221e-06
3.6883131e-05
-0.0042778354
6.8083934e-06
3.6741024e-05
-0.0042811998
7.152947e-06
3.6496986e-05
-0.0042844063
7.4628175e-06
3.6172484e-05
-0.0042874691
7.7430804e-06
3.5780133e-05
-0.0042903483
8.0014593e-06
3.5327567e-05
-0.0042930876
8.2428777e-06
3.4818874e-05
-0.004295732
8.4728221e-06
3.4254342e-05
-0.0042982529
8.6960438e-06
3.3630698e-05
-0.0043006236
8.914647e-06
3.2941449e-05
-0.0043028873
9.1325056e-06
3.2181646e-05
-0.0043050864
9.3499897e-06
3.1347336e-05
-0.00430719
9.5662142e-06
3.0432138e-05
-0.0043091625
9.7831127e-06
1.0001571e-05
-3.1212609e-05
-0.0043171446
8.8369548e-06
-3.1979112e-05
-0.004315019
8.595419e-06
-3.2660923e-05
-0.0043127577
8.3531392e-06
-3.3261385e-05
-0.0043103959
8.1091057e-06
-3.3786652e-05
-0.004307964
7.8657023e-06
-3.4241173e-05
-0.0043054195
7.621055e-06
-3.4626664e-05
-0.0043027194
7.3728852e-06
-3.4942633e-05
-0.0042998901
7.1184936e-06
-3.5185868e-05
-0.0042969595
6.8544273e-06
-3.5349208e-05
-0.0042938819
6.5760999e-06
-3.5421111e-05
-0.0042906141
6.2796792e-06
-3.5381987e-05
-0.0042871978
5.9588592e-06
-3.5210038e-05
-0.0042836173
5.6099273e-06
-3.4881579e-05
-0.00427991
5.2286313e-06
-3.4372187e-05
-0.0042760406
4.8140917e-06
-3.3657612e-05
-0.0042719782
4.367627e-06
-3.2729751e-05
-0.0042677771
3.8946941e-06
-3.1540069e-05
-0.0042635181
3.4063693e-06
-3.0126602e-05
-0.0042592604
2.9182092e-06
-2.8491646e-05
-0.0042552261
2.4462506e-06
-2.6660014e-05
-0.0042519093
2.0036774e-06
-2.4663167e-05
-0.004250395
1.6020034e-06
-2.253351e-05
-0.0042528034
1.2466798e-06
-2.0301991e-05
-0.0042626222
9.4071369e-07
-1.799389e-05
-0.0042841855
6.8342814e-07
-1.5631533e-05
-0.0043199885
4.7450026e-07
-1.32389e-05
-0.0043652357
3.1253719e-07
-1.0847369e-05
-0.004402084
1.958911e-07
-8.4962849e-06
-0.0043998416
1.1919496e-07
-6.2316744e-06
-0.0043297639
7.9366674e-08
-4.0907158e-06
-0.00419473
7.309268e-08
-0.0040485641
6.7049769e-08
3.4549701e-06
-0.0040500262
-2.7075927e-07
5.2802406e-06
-0.004196265
-2.9021132e-07
7.2223018e-06
-0.0043313926
-3.1331191e-07
9.2552009e-06
-0.0044015667
-3.0785214e-07
1.134575e-05
-0.0044039025
-2.7210153e-07
1.3466145e-05
-0.0043671516
-2.0444866e-07
1.5593541e-05
-0.0043220155
-1.0042337e-07
1.7708648e-05
-0.0042863425
4.1861047e-08
1.9791816e-05
-0.0042649297
2.2430371e-07
2.1819962e-05
-0.0042552813
4.4978388e-07
2.3764582e-05
-0.0042530614
7.2177733e-07
2.5593536e-05
-0.0042547786
1.0403392e-06
2.7273847e-05
-0.0042583091
1.4026331e-06
2.8776831e-05
-0.0042625639
1.8004926e-06
3.0080923e-05
-0.0042670456
2.2234129e-06
3.117651e-05
-0.004271531
2.6583252e-06
3.2067262e-05
-0.0042759599
3.0909409e-06
3.2766084e-05
-0.0042802498
3.510299e-06
3.3290523e-05
-0.0042843438
3.9092754e-06
3.3669852e-05
-0.0042882815
4.2848937e-06
3.3885089e-05
-0.00429205
4.6369974e-06
3.3992136e-05
-0.0042956887
4.9676471e-06
3.3996258e-05
-0.0042991654
5.2794076e-06
3.390802e-05
-0.0043024488
5.5774928e-06
3.3733629e-05
-0.0043055796
5.8638629e-06
3.3476481e-05
-0.0043086042
6.141875e-06
3.3138382e-05
-0.0043114966
6.4152271e-06
3.2718292e-05
-0.0043142297
6.6857478e-06
3.2212375e-05
-0.004316845
6.9549843e-06
3.1614736e-05
-0.0043193849
7.2247753e-06
3.0910116e-05
-0.0043218077
7.4934019e-06
-0.0043241276
7.759818e-06
-3.0462082e-05
-0.0043299654
6.5563006e-06
-3.1073091e-05
-0.004327462
6.2652828e-06
-3.1579427e-05
-0.0043248501
5.9715463e-06
-3.1985195e-05
-0.0043221165
5.6772918e-06
-3.229524e-05
-0.004319303
5.3833874e-06
-3.2512312e-05
-0.0043163676
5.0880706e-06
-3.2636146e-05
-0.0043132711
4.7907325e-06
-3.2664813e-05
-0.0043100404
4.4895202e-06
-3.2582605e-05
-0.0043067129
4.1819001e-06
-3.2420521e-05
-0.0043031932
3.865682e-06
-3.2131123e-05
-0.0042995178
3.5396363e-06
-3.1711626e-05
-0.0042956704
3.2008833e-06
-3.1147129e-05
-0.0042916943
2.8482704e-06
-3.0424992e-05
-0.0042875472
2.481291e-06
-2.9534839e-05
-0.0042832418
2.1018602e-06
-2.8466592e-05
-0.0042787431
1.7149466e-06
-2.7215278e-05
-0.0042741114
1.3291032e-06
-2.5786287e-05
-0.0042694292
9.5457144e-07
-2.4198749e-05
-0.0042647552
6.0369348e-07
-2.2480474e-05
-0.0042603151
2.8773039e-07
-2.066411e-05
-0.0042566092
1.4284207e-08
-1.8783967e-05
-0.0042547289
-2.1261657e-07
-1.6871743e-05
-0.0042567999
-3.9359368e-07
-1.4953547e-05
-0.0042663159
-5.3195891e-07
-1.3049782e-05
-0.0042876127
-6.3357301e-07
-1.1176426e-05
-0.0043231857
-7.0316319e-07
-9.3471865e-06
-0.004368237
-7.4383817e-07
-7.5775745e-06
-0.0044049142
-7.5790588e-07
-5.8831546e-06
-0.0044025116
-7.4945529e-07
-4.2824004e-06
-0.0043322759
-7.1751567e-07
-2.7891441e-06
-0.0041970956
-6.6267556e-07
-0.0040508156
-6.156223e-07
2.1084159e-06
-0.0040509181
-9.6250463e-07
3.2547156e-06
-0.0041972005
-1.0414626e-06
4.5014735e-06
-0.0043323949
-1.1276979e-06
5.8438354e-06
-0.0044026561
-1.1979461e-06
7.277791e-06
-0.0044050947
-1.2534894e-06
8.8002275e-06
-0.004368464
-1.2954463e-06
1.0403999e-05
-0.0043234684
-1.3210493e-06
1.2080555e-05
-0.0042879618
-1.3274388e-06
1.3818705e-05
-0.0042667436
-1.310463e-06
1.5601321e-05
-0.0042573188
-1.2636991e-06
1.7404252e-05
-0.0042553525
-1.1793991e-06
1.9196531e-05
-0.0042573509
-1.050641e-06
2.0942809e-05
-0.0042611882
-8.7317423e-07
2.2606394e-05
-0.0042657719
-6.4687922e-07
2.4152845e-05
-0.0042705998
-3.7583837e-07
2.5555215e-05
-0.0042754455
-6.8319973e-08
2.6798259e-05
-0.0042802508
2.6469502e-07
2.7877397e-05
-0.0042849342
6.132805e-07
2.8794525e-05
-0.0042894326
9.6825134e-07
2.9554637e-05
-0.0042937769
1.3224827e-06
3.0165226e-05
-0.0042979534
1.6723892e-06
3.0636585e-05
-0.0043020053
2.0162068e-06
3.0981347e-05
-0.0043058914
2.3534413e-06
3.1209088e-05
-0.0043096265
2.6859101e-06
3.1338925e-05
-0.0043131828
3.0125908e-06
3.1350213e-05
-0.004316617
3.3346411e-06
3.1244859e-05
-0.004319916
3.6537556e-06
3.1048157e-05
-0.0043230773
3.9710317e-06
3.0746817e-05
-0.0043261028
4.2876161e-06
3.0337321e-05
-0.0043290452
4.6046723e-06
2.9813351e-05
-0.0043318597
4.9216455e-06
-0.0043345587
5.2353647e-06
-2.8971233e-05
-0.0043377987
3.8108397e-06
-2.9391391e-05
-0.0043349179
3.4783295e-06
-2.970177e-05
-0.0043318768
3.1419466e-06
-2.9897188e-05
-0.0043287132
2.8058875e-06
-2.997977e-05
-0.004325465
2.4702313e-06
-2.9936638e-05
-0.004322093
2.1338244e-06
-2.9791932e-05
-0.0043185581
1.7964501e-06
-2.9542675e-05
-0.0043148903
1.458194e-06
-2.9160022e-05
-0.0043111268
1.1175957e-06
-2.8649751e-05
-0.0043071757
7.7405067e-07
-2.800239e-05
-0.0043030825
4.298125e-07
-2.7207819e-05
-0.0042988326
8.4699527e-08
-2.625966e-05
-0.0042944664
-2.5865495e-07
-2.5155304e-05
-0.0042899409
-5.9600138e-07
-2.3895146e-05
-0.0042852725
-9.2186546e-07
-2.2486557e-05
-0.0042804319
-1.2275303e-06
-2.0947474e-05
-0.0042754839
-1.5006441e-06
-1.9300276e-05
-0.0042705133
-1.7336873e-06
-1.757684e-05
-0.0042655763
-1.9189884e-06
-1.5817936e-05
-0.0042608969
-2.0502165e-06
-1.4064002e-05
-0.0042569777
-2.1270956e-06
-1.2351893e-05
-0.0042549111
-2.1534496e-06
-1.0712109e-05
-0.0042568212
-2.137447e-06
-9.1669408e-06
-0.0042661996
-2.0891422e-06
-7.7297729e-06
-0.0042873804
-2.0185654e-06
-6.407875e-06
-0.0043228564
-1.9339104e-06
-5.2043166e-06
-0.0043678274
-1.8401549e-06
-4.1165568e-06
-0.0044044425
-1.7398845e-06
-3.136577e-06
-0.0044020008
-1.6352146e-06
-2.2525603e-06
-0.0043317553
-1.5236119e-06
-1.4549931e-06
-0.0041965961
-1.4018997e-06
-0.0040503653
-1.2882501e-06
7.1713891e-07
-0.0040490967
-1.6511492e-06
1.1680395e-06
-0.0041952627
-1.7843177e-06
1.6979247e-06
-0.0043303534
-1.9318286e-06
2.3242861e-06
-0.0044005489
-2.078276e-06
3.0716638e-06
-0.0044029625
-2.227428e-06
3.960003e-06
-0.0043663328
-2.3829137e-06
5.0006791e-06
-0.0043213534
-2.5436859e-06
6.1975527e-06
-0.0042858707
-2.706603e-06
7.5480505e-06
-0.0042646846
-2.8655578e-06
9.0422697e-06
-0.0042553048
-3.0105445e-06
1.0661391e-05
-0.004253402
-3.128299e-06
1.2376606e-05
-0.004255488
-3.2048748e-06
1.4150025e-05
-0.0042594416
-3.2286779e-06
1.593746e-05
-0.0042641725
-3.1912599e-06
1.7691899e-05
-0.0042691788
-3.0889889e-06
1.9369055e-05
-0.0042742371
-2.9239698e-06
2.0933738e-05
-0.0042792917
-2.704877e-06
2.2361297e-05
-0.0042842577
-2.44239e-06
2.3636907e-05
-0.0042890692
-2.147332e-06
2.4754325e-05
-0.0042937537
-1.8301047e-06
2.5712118e-05
-0.0042982915
-1.4989163e-06
2.6512783e-05
-0.0043027231
-1.1600639e-06
2.7163965e-05
-0.004307008
-8.1890852e-07
2.7684682e-05
-0.0043111663
-4.8116095e-07
2.8083707e-05
-0.004315151
-1.382791e-07
2.8356928e-05
-0.0043190427
2.1135756e-07
2.8505023e-05
-0.0043228024
5.6131386e-07
2.8531278e-05
-0.0043264022
9.109839e-07
2.843843e-05
-0.0043298805
1.2600721e-06
2.8226127e-05
-0.0043332739
1.6093461e-06
2.7889136e-05
-0.0043365399
1.9590523e-06
-0.0043396373
2.3050379e-06
-2.6615721e-05
-0.0043400166
7.5093817e-07
-2.6863294e-05
-0.0043366889
3.9658937e-07
-2.69984e-05
-0.0043331946
5.586713e-08
-2.7014005e-05
-0.0043295776
-2.8722681e-07
-2.6902462e-05
-0.0043258771
-6.3667996e-07
-2.6656355e-05
-0.0043220583
-9.901696e-07
-2.6267934e-05
-0.004318085
-1.3461865e-06
-2.5723018e-05
-0.0043139928
-1.7031568e-06
-2.505602e-05
-0.0043097729
-2.0604266e-06
-2.4222473e-05
-0.0043054242
-2.4172742e-06
-2.3230414e-05
-0.0043009475
-2.7676493e-06
-2.2081392e-05
-0.0042963341
-3.1064219e-06
-2.0779305e-05
-0.0042916289
-3.426939e-06
-1.9327625e-05
-0.0042867989
-3.7220017e-06
-1.7737466e-05
-0.004281866
-3.9818195e-06
-1.6031331e-05
-0.0042768032
-4.1946506e-06
-1.4242972e-05
-0.0042716767
-4.3487521e-06
-1.2414884e-05
-0.0042665721
-4.4347307e-06
-1.0596287e-05
-0.0042615441
-4.4469399e-06
-8.8384274e-06
-0.0042568137
-4.3857859e-06
-7.1879703e-06
-0.0042528796
-4.2589259e-06
-5.6831708e-06
-0.0042508282
-4.0785311e-06
-4.3512755e-06
-0.0042527769
-3.8598116e-06
-3.2083546e-06
-0.0042622078
-3.6197373e-06
-2.2611211e-06
-0.004283444
-3.3738986e-06
-1.5082083e-06
-0.004318972
-3.1342738e-06
-9.401785e-07
-0.0043639929
-2.907992e-06
-5.3819077e-07
-0.0044006663
-2.6981973e-06
-2.7045943e-07
-0.0043983119
-2.5047393e-06
-1.0144979e-07
-0.0043281997
-2.322684e-06
-5.728642e-09
-0.0041932116
-2.1468643e-06
-0.0040471402
-1.9869282e-06
-6.7906926e-07
-0.0040445334
-2.2979213e-06
-9.2948982e-07
-0.0041904772
-2.4839416e-06
-1.1152858e-06
-0.0043253262
-2.6876582e-06
-1.201993e-06
-0.0043953213
-2.9038781e-06
-1.1407695e-06
-0.004397588
-3.1394709e-06
-8.9044903e-07
-0.0043608424
-3.4007944e-06
-4.2476331e-07
-0.0043157487
-3.6890775e-06
2.7043039e-07
-0.0042801382
-4.001047e-06
1.2000465e-06
-0.0042588088
-4.3285319e-06
2.3607784e-06
-0.0042492796
-4.6580904e-06
3.7390018e-06
-0.0042472342
-4.9722923e-06
5.3086947e-06
-0.0042491974
-5.2519083e-06
7.0316169e-06
-0.0042530583
-5.4782482e-06
8.8587441e-06
-0.0042577357