/*--------------------------------*- C++ -*----------------------------------*\
| =========                 |                                                 |
| \\      /  F ield         | OpenFOAM: The Open Source CFD Toolbox           |
|  \\    /   O peration     | Version:  v2012                                 |
|   \\  /    A nd           | Website:  www.openfoam.com                      |
|    \\/     M anipulation  |                                                 |
\*---------------------------------------------------------------------------*/
FoamFile
{
    version     2.0;
    format      ascii;
    class       volVectorField;
    location    "100";
    object      U;
}
// * * * * * * * * * * * * * * * * * * * * * * * * * * * * * * * * * * * * * //

dimensions      [0 1 -1 0 0 0 0];


internalField   nonuniform List<vector> 
48533
(
(5.1750672 -0.00071368246 0.013707375)
(5.1831987 -0.00055829504 0.012014779)
(5.1904302 -0.00039159173 0.010136505)
(5.1966553 -0.00021289668 0.008075488)
(5.2017652 -2.1457534e-05 0.0058330186)
(5.2056576 0.00017910983 0.0034155279)
(5.2082261 0.00038528943 0.00084266856)
(5.209332 0.00059749791 -0.0018678035)
(5.2088957 0.00080557888 -0.0046388909)
(5.2068142 0.001026747 -0.0076701361)
(5.2030342 0.0012495847 -0.010748316)
(5.1974633 0.0014697155 -0.013818262)
(5.1901283 0.0016817533 -0.016766953)
(5.1810963 0.0018788738 -0.019483182)
(5.1705382 0.0020542628 -0.021831405)
(5.1587162 0.002200175 -0.023676897)
(5.1460047 0.0023084098 -0.02490515)
(5.1328038 0.0023736158 -0.025453581)
(5.1196151 0.0023935624 -0.025348241)
(5.1067611 0.0023718751 -0.024686023)
(5.0945586 0.0023130551 -0.023577225)
(5.0832057 0.0022236777 -0.022149493)
(5.0728207 0.0021113019 -0.020524927)
(5.0634469 0.0019829718 -0.018807901)
(5.0550728 0.0018450669 -0.017080562)
(5.0476493 0.0017029611 -0.015402713)
(5.0411041 0.0015608305 -0.013813972)
(5.6758324 -0.24516535 0.091740593)
(5.67616 -0.24273563 0.092540071)
(5.6753043 -0.24092935 0.093186893)
(5.6758586 -0.23804191 0.094078545)
(5.6760628 -0.23482841 0.094015364)
(5.675271 -0.23377995 0.095107362)
(5.6834112 -0.22998718 0.098821653)
(5.6933759 -0.21741376 0.098772)
(5.6978245 -0.20890314 0.10041814)
(5.698037 -0.20581417 0.10132445)
(5.6992974 -0.20200934 0.10252955)
(5.7008973 -0.19869515 0.10345154)
(5.7030555 -0.19546401 0.10498387)
(5.7054441 -0.19172056 0.1062551)
(5.7070761 -0.18696676 0.10738318)
(5.7075201 -0.18420296 0.10870913)
(5.7159009 -0.17810085 0.11169008)
(5.7235642 -0.16338457 0.11262425)
(5.7268466 -0.15307 0.11427415)
(5.7261719 -0.15043215 0.1150108)
(5.7290016 -0.14472926 0.11612994)
(5.7301047 -0.14089465 0.11792375)
(5.7395835 -0.13402774 0.12193857)
(5.7497271 -0.11706889 0.12162836)
(5.7539447 -0.10586886 0.12361803)
(5.7538769 -0.1026864 0.12461716)
(5.7566355 -0.096761459 0.12615649)
(5.757814 -0.091884003 0.12908332)
(5.7669108 -0.082908688 0.13329065)
(5.7764269 -0.066102274 0.13261286)
(5.780553 -0.053433576 0.13358316)
(5.7801793 -0.049235222 0.13488859)
(5.7882086 -0.040860715 0.13830957)
(5.7983677 -0.025110601 0.13790747)
(5.8027127 -0.013316314 0.13832958)
(5.80342 -0.0069115451 0.13933081)
(5.8100362 0.0048822362 0.14219004)
(5.8145454 0.01978455 0.1440119)
(5.8182998 0.027872203 0.14434594)
(5.8193591 0.036129617 0.1430465)
(5.830584 0.064183675 0.14752444)
(5.8352468 0.088462457 0.14929253)
(5.8411114 0.10965903 0.14968529)
(5.8476123 0.13526902 0.14979843)
(5.8562809 0.1536997 0.15557706)
(5.8546189 0.17507277 0.15528066)
(5.8577362 0.19246571 0.15541398)
(5.8644999 0.22609286 0.15565646)
(5.8675896 0.25864701 0.1596191)
(5.8725107 0.28980291 0.15875935)
(5.8748878 0.32811795 0.16513659)
(5.8738313 0.36119029 0.16259465)
(5.8778086 0.39409328 0.16275224)
(5.8822928 0.43770121 0.16459371)
(5.8804974 0.48369566 0.16609144)
(5.876198 0.52666232 0.16411892)
(5.873873 0.57001763 0.16481876)
(5.8687757 0.62007291 0.16192356)
(5.8639062 0.66757041 0.15922173)
(5.8565842 0.72832149 0.15981824)
(5.8502127 0.77623706 0.1571727)
(5.8249767 0.81861282 0.15601975)
(5.817463 0.84469331 0.1447843)
(5.8183795 0.8913017 0.14148215)
(5.8076978 0.9364084 0.14232475)
(5.7910482 0.98129555 0.14048294)
(5.7923316 1.0089413 0.12792371)
(5.7606509 1.0675346 0.11926541)
(5.7244436 1.1483932 0.10443304)
(5.6813275 1.2252804 0.091971234)
(5.6642405 1.2914402 0.083678291)
(5.6102784 1.3926866 0.062198944)
(5.5476338 1.4987597 0.043585972)
(5.4719456 1.6237746 0.011706186)
(5.4127125 1.7257808 -0.021232764)
(5.2829896 1.8717905 -0.058300186)
(5.162879 2.0014681 -0.10162296)
(4.9751408 2.1656312 -0.16787981)
(4.8300837 2.2982305 -0.24397058)
(4.4444503 2.5667609 -0.35947268)
(4.0742314 2.6462142 -0.47187214)
(3.7345828 2.5857651 -0.65469545)
(2.9760338 2.5388586 -0.84985442)
(2.5529592 1.9540827 -1.123064)
(1.5820398 0.89097944 -1.4381338)
(2.0968266 0.16192955 -1.2579071)
(2.7368469 0.22369499 -1.0113298)
(3.2261941 0.21011882 -0.80708117)
(3.3046778 0.16193685 -0.7998283)
(3.4222325 0.1394531 -0.7139967)
(3.3083129 0.17649313 -0.75739533)
(2.9894734 0.18177569 -0.92235607)
(2.8818247 0.19010888 -0.94295377)
(2.2293189 0.10426912 -1.1546544)
(1.7597737 0.64250164 -1.3818984)
(2.0976341 1.6135857 -1.2216264)
(2.5366543 2.1942522 -0.88326602)
(2.6110104 2.1853147 -1.0918198)
(3.17056 2.5882384 -0.84711871)
(3.7498608 2.6203105 -0.51477539)
(3.9729779 2.6070793 -0.57368389)
(4.3301053 2.5862896 -0.41014409)
(4.7373813 2.3382154 -0.25988505)
(4.8792774 2.2234949 -0.19038189)
(5.0869352 2.0749003 -0.12268546)
(5.2476379 1.9218714 -0.067058897)
(5.3837175 1.7621221 -0.0242329)
(5.4454389 1.6603422 0.009900282)
(5.532565 1.5371023 0.042650287)
(5.5920629 1.4220601 0.06010205)
(5.6372933 1.3268689 0.078009506)
(5.66722 1.2613568 0.095313359)
(5.6850419 1.2533846 0.09234577)
(5.7142466 1.1759678 0.10744334)
(5.7509343 1.0902079 0.11891186)
(5.7779859 1.0129625 0.13283712)
(5.806305 0.93870845 0.1352363)
(5.814565 0.86304236 0.14620553)
(5.8225023 0.83737931 0.15281776)
(5.8512427 0.78875314 0.1566544)
(5.8574977 0.74301587 0.16063242)
(5.8642083 0.68020715 0.1619639)
(5.8669592 0.63666174 0.16396392)
(5.8742102 0.58755042 0.16600424)
(5.8767402 0.5385833 0.16541804)
(5.8799111 0.49857004 0.16619285)
(5.8841222 0.4529328 0.16755287)
(5.8801906 0.40401447 0.16650545)
(5.8731037 0.36862527 0.16490505)
(5.8762301 0.34246495 0.16439026)
(5.8748504 0.29657902 0.16165972)
(5.8688688 0.270621 0.16145295)
(5.8663143 0.23461232 0.15857557)
(5.859908 0.20375749 0.15906143)
(5.8554768 0.17795553 0.153348)
(5.8521585 0.14986585 0.15129065)
(5.8507604 0.13891266 0.15396448)
(5.8492197 0.13424169 0.15350829)
(5.8421294 0.11158366 0.14910984)
(5.8360264 0.09278797 0.14758282)
(5.8325769 0.070894862 0.147634)
(5.8232092 0.042652523 0.14644429)
(5.8135363 0.020199014 0.14169967)
(5.8093195 -0.00013988276 0.13758586)
(5.7991512 -0.025509724 0.13878787)
(5.7987694 -0.029731714 0.13815851)
(5.7986356 -0.035041686 0.13596589)
(5.7875441 -0.049945288 0.13613443)
(5.7771499 -0.069901073 0.13553176)
(5.775535 -0.073048134 0.13517298)
(5.7753765 -0.078475081 0.13155774)
(5.7638521 -0.093864463 0.13151804)
(5.7525407 -0.11288306 0.13047612)
(5.7505891 -0.11526132 0.12877628)
(5.747824 -0.12179477 0.12485243)
(5.7456818 -0.12708954 0.12292348)
(5.7483057 -0.12894618 0.12021195)
(5.7349679 -0.1458274 0.12082023)
(5.7251481 -0.15981471 0.11928599)
(5.7245632 -0.16085854 0.11748411)
(5.7227883 -0.16463483 0.11379119)
(5.7212066 -0.1668501 0.11317306)
(5.7231822 -0.17045584 0.1124211)
(5.7126507 -0.18968989 0.11013998)
(5.6973242 -0.20486633 0.1095496)
(5.6979476 -0.2053826 0.10903599)
(5.6947793 -0.21155914 0.10577211)
(5.6913845 -0.2156225 0.10291196)
(5.6891316 -0.21752628 0.101839)
(5.688067 -0.219322 0.10046853)
(5.6887347 -0.22151851 0.099969486)
(5.6894103 -0.22365521 0.099308727)
(5.6915549 -0.22485875 0.098462222)
(5.6790388 -0.23977242 0.098574389)
(5.6686836 -0.24991394 0.096897559)
(5.668846 -0.24929834 0.094785829)
(5.6690976 -0.25057939 0.092216682)
(5.6691151 -0.25210219 0.092255982)
(5.6680566 -0.25618516 0.092771755)
(5.6673639 -0.26164677 0.091492555)
(5.6666742 -0.26558598 0.089673325)
(5.0564317 0.0011795408 -0.001314038)
(5.062673 0.0012568471 -0.0013498691)
(5.0691855 0.001329655 -0.001375795)
(5.0759307 0.0013959209 -0.0013901487)
(5.0828604 0.0014535262 -0.0013912566)
(5.089918 0.0015002689 -0.0013774707)
(5.0970325 0.001533971 -0.0013471428)
(5.1041369 0.001552388 -0.0012984728)
(5.1111316 0.0015536643 -0.0012306667)
(5.1179352 0.0015366876 -0.0011431362)
(5.1244492 0.0015005539 -0.00103551)
(5.1305768 0.0014450021 -0.00090814127)
(5.1362231 0.0013703708 -0.00076193757)
(5.1412962 0.0012776219 -0.0005984761)
(5.1457136 0.0011681837 -0.00041970509)
(5.1493989 0.0010441887 -0.0002283691)
(5.152295 0.00090738407 -2.6467081e-05)
(5.1543394 0.00076008548 0.00018342203)
(5.155505 0.00059047082 0.00041762165)
(5.1556788 0.00045507407 0.00059839539)
(5.1551539 0.00030278432 0.00079929558)
(5.1537238 0.00014922019 0.00099638654)
(5.1514414 -1.5865578e-06 0.0011855896)
(5.1483606 -0.00014570195 0.0013621357)
(5.1445248 -0.00028137569 0.0015238805)
(5.1399917 -0.00040724342 0.0016693771)
(5.1348289 -0.00052196885 0.0017974195)
(5.1943787 -0.0052791796 0.037616904)
(5.1925627 -0.0052342459 0.038908214)
(5.1906714 -0.0051916274 0.040169374)
(5.1887074 -0.0051478135 0.041409524)
(5.1866674 -0.0051015573 0.042637216)
(5.1845481 -0.0050512473 0.043857332)
(5.1823411 -0.0049973106 0.045070986)
(5.1800496 -0.0049360937 0.046278798)
(5.1776645 -0.0048649494 0.047472796)
(5.1751871 -0.0047757891 0.048635779)
(5.1726145 -0.0046676811 0.049731027)
(5.1699559 -0.0045336774 0.050721757)
(5.1672109 -0.0043738737 0.051550524)
(5.1643909 -0.0041828165 0.052161187)
(5.1614987 -0.0039606134 0.052487346)
(5.1585478 -0.0037086627 0.052462486)
(5.1555485 -0.0034326374 0.052027871)
(5.152516 -0.00313852 0.051139464)
(5.1489325 -0.0018227936 0.041390489)
(5.1521857 -0.0020875896 0.0441414)
(5.155526 -0.0023701903 0.046487047)
(5.1589199 -0.0026641568 0.048391288)
(5.1623391 -0.0029598044 0.049836653)
(5.165743 -0.0032500781 0.050817268)
(5.1691013 -0.0035231948 0.051360785)
(5.1723925 -0.0037740543 0.051506525)
(5.1756036 -0.0039967423 0.051310333)
(5.1787193 -0.0041894662 0.050834648)
(5.1817351 -0.0043525547 0.050142352)
(5.1846418 -0.0044905604 0.049288139)
(5.1874408 -0.0046039256 0.048325103)
(5.1901233 -0.0046991141 0.047288525)
(5.1926937 -0.0047780151 0.046212217)
(5.1951533 -0.0048463963 0.045112408)
(5.1975128 -0.0049085241 0.043997647)
(5.1997715 -0.0049664667 0.042866569)
(5.2019385 -0.0050205458 0.04171841)
(5.2040172 -0.0050730361 0.040547242)
(5.2060121 -0.0051254407 0.039343316)
(5.2079244 -0.0051778027 0.038099337)
(5.209756 -0.0052331292 0.036802547)
(5.2115149 -0.0052885206 0.035439954)
(5.2266996 -0.0052081052 0.034483938)
(5.2249225 -0.0051415546 0.035899644)
(5.2230697 -0.0050776653 0.037227417)
(5.221136 -0.005013304 0.038478781)
(5.219113 -0.004952182 0.039666742)
(5.2170002 -0.0048899825 0.040803742)
(5.2147924 -0.0048282847 0.041895865)
(5.2124855 -0.0047650925 0.042953461)
(5.2100741 -0.0046985213 0.043982453)
(5.20755 -0.0046278747 0.044984256)
(5.2049102 -0.004551345 0.045959973)
(5.2021441 -0.0044643457 0.046900798)
(5.1992463 -0.0043633588 0.047791064)
(5.1962127 -0.0042444901 0.048601373)
(5.1930492 -0.0041032712 0.049296702)
(5.189755 -0.0039381986 0.049829518)
(5.1863377 -0.0037449002 0.050147985)
(5.1828015 -0.0035242575 0.05019273)
(5.179165 -0.003277206 0.049907232)
(5.175444 -0.0030096803 0.049239365)
(5.1716643 -0.0027273925 0.048154391)
(5.167862 -0.0024409291 0.04663098)
(5.1640816 -0.00215824 0.044676275)
(5.1603593 -0.0018881077 0.042312669)
(5.1567344 -0.0016361436 0.03957752)
(5.1532505 -0.0014058287 0.036511323)
(5.1499497 -0.0011984303 0.033157749)
(5.1468674 -0.0010140666 0.029550347)
(5.1440443 -0.00085316268 0.025722803)
(5.1415323 -0.0007178799 0.021715029)
(5.1393868 -0.0006140144 0.017587774)
(5.137655 -0.00054616376 0.013436606)
(5.1363429 -0.00051396187 0.0093697062)
(5.1354167 -0.00051131732 0.0054852837)
(5.140604 -0.00039631903 0.0050962188)
(5.1415896 -0.00039604013 0.0087115988)
(5.143005 -0.00042194367 0.012506401)
(5.144888 -0.00048100935 0.016393179)
(5.1472294 -0.00057433911 0.020274342)
(5.1499778 -0.00069709906 0.024063907)
(5.1530717 -0.00084368166 0.027706357)
(5.1564548 -0.001012006 0.031165002)
(5.1600827 -0.0012020333 0.03440829)
(5.163915 -0.0014142719 0.03740436)
(5.1679047 -0.0016486856 0.040109833)
(5.1720033 -0.0019015882 0.042483739)
(5.1761647 -0.0021686172 0.044486731)
(5.1803466 -0.0024411173 0.046093469)
(5.1844992 -0.0027115464 0.047292843)
(5.1885814 -0.0029701475 0.048099805)
(5.1925631 -0.0032104498 0.048543122)
(5.1964255 -0.0034267174 0.048670327)
(5.2001475 -0.0036189068 0.048530727)
(5.2037245 -0.0037853408 0.048178753)
(5.2071505 -0.0039294191 0.047662325)
(5.2104262 -0.0040534958 0.047024748)
(5.2135483 -0.0041606907 0.04629857)
(5.2165214 -0.0042558362 0.045510216)
(5.2193535 -0.0043414791 0.044673555)
(5.2220557 -0.0044210588 0.043798199)
(5.2246337 -0.004496932 0.04288315)
(5.2270958 -0.0045696116 0.041927397)
(5.2294475 -0.0046419806 0.040923764)
(5.2316944 -0.0047141085 0.039863055)
(5.2338436 -0.0047852559 0.03873912)
(5.2358953 -0.0048587423 0.03754101)
(5.2378574 -0.0049322136 0.036255737)
(5.2397369 -0.0050072757 0.034874752)
(5.2521483 -0.0047438235 0.035154656)
(5.2501473 -0.0046598817 0.036492329)
(5.2480591 -0.0045761692 0.037726918)
(5.245872 -0.0044930709 0.038863916)
(5.24358 -0.0044109701 0.039915756)
(5.2411815 -0.0043281697 0.040890878)
(5.2386693 -0.0042451371 0.041796658)
(5.2360367 -0.0041620323 0.042640891)
(5.2332778 -0.0040761722 0.043430889)
(5.2303834 -0.0039869462 0.044167429)
(5.2273471 -0.0038920608 0.044851156)
(5.2241567 -0.0037885114 0.045472523)
(5.2208019 -0.0036746993 0.046018337)
(5.2172784 -0.0035455708 0.046465688)
(5.2135861 -0.0033991577 0.046784158)
(5.2097248 -0.0032323365 0.04693577)
(5.2056989 -0.003043206 0.046876934)
(5.201514 -0.0028326975 0.046560049)
(5.1971923 -0.0026018935 0.045941692)
(5.1927565 -0.0023559148 0.044982584)
(5.1882402 -0.002101548 0.04366006)
(5.1836896 -0.0018475641 0.041966813)
(5.1791592 -0.0016012797 0.039918132)
(5.1746981 -0.0013702647 0.037543189)
(5.1703584 -0.00115827 0.034882407)
(5.1661927 -0.00096839697 0.03197681)
(5.1622531 -0.00079986703 0.028868518)
(5.1585842 -0.00065143327 0.025587828)
(5.1552336 -0.00052243033 0.022163588)
(5.1522618 -0.00041486906 0.018628132)
(5.1497357 -0.00033431318 0.015030837)
(5.147711 -0.00028542719 0.011447525)
(5.146199 -0.0002666967 0.0079633004)
(5.145159 -0.00027017419 0.0046540763)
(5.1490137 -0.0001342082 0.0041627049)
(5.1501024 -0.00012724883 0.0071313511)
(5.1517016 -0.00013801143 0.010269034)
(5.1538555 -0.00017527511 0.013512552)
(5.1565505 -0.00024101801 0.016790205)
(5.1597272 -0.00033062975 0.020037732)
(5.1633141 -0.00043883613 0.023212297)
(5.1672473 -0.00056378675 0.026286556)
(5.1714758 -0.00070689039 0.029235095)
(5.1759517 -0.00087017236 0.032029393)
(5.180619 -0.0010549559 0.034629795)
(5.1854211 -0.0012592594 0.036995938)
(5.1903 -0.0014800714 0.039085618)
(5.1952009 -0.0017109219 0.040866889)
(5.2000647 -0.0019451953 0.042318818)
(5.2048406 -0.002174968 0.043441213)
(5.2094914 -0.0023935332 0.044248418)
(5.213991 -0.0025960476 0.044771392)
(5.2183162 -0.002780853 0.045045119)
(5.2224609 -0.0029470021 0.045110853)
(5.226421 -0.0030954953 0.045006222)
(5.2301973 -0.00322946 0.044764583)
(5.2337919 -0.0033503083 0.044412829)
(5.2372095 -0.0034621906 0.043971194)
(5.2404622 -0.0035665658 0.043452287)
(5.2435627 -0.0036657664 0.042865449)
(5.2465176 -0.0037622355 0.042210313)
(5.2493368 -0.0038566047 0.041486182)
(5.2520271 -0.0039503159 0.04068706)
(5.2545956 -0.0040442505 0.039805947)
(5.257049 -0.0041376846 0.038834905)
(5.2593897 -0.0042311327 0.037767047)
(5.2616255 -0.0043252738 0.036593002)
(5.2697213 -0.0038248764 0.037642152)
(5.2672066 -0.0037206831 0.038632236)
(5.2645725 -0.0036159981 0.039514202)
(5.2618149 -0.0035107459 0.040293624)
(5.2589276 -0.0034060612 0.040978191)
(5.2559045 -0.0033003855 0.041574273)
(5.2527379 -0.0031931786 0.04208639)
(5.2494177 -0.0030836183 0.04251509)
(5.2459367 -0.002969605 0.04285947)
(5.2422822 -0.0028492342 0.043110873)
(5.2384414 -0.0027213719 0.043257295)
(5.2344088 -0.0025828435 0.043281343)
(5.2301807 -0.0024326586 0.043159255)
(5.2257568 -0.0022682002 0.04286309)
(5.2211404 -0.0020892425 0.04236093)
(5.2163383 -0.0018967236 0.04161994)
(5.2113746 -0.0016931248 0.040612915)
(5.2062783 -0.0014829902 0.039319606)
(5.2010902 -0.0012728474 0.037734286)
(5.1958653 -0.0010695273 0.03586613)
(5.1906662 -0.0008788415 0.033741238)
(5.1855534 -0.00070585868 0.031395445)
(5.180589 -0.00055278728 0.028871279)
(5.1758338 -0.00042028878 0.026208807)
(5.1713465 -0.00030633372 0.023444078)
(5.1671779 -0.00020821365 0.020603207)
(5.1633814 -0.00012389865 0.01770758)
(5.1600237 -5.473128e-05 0.014779481)
(5.1571803 -5.7650129e-06 0.011853817)
(5.1549137 1.8558277e-05 0.0089829725)
(5.1532391 2.0754152e-05 0.0062239985)
(5.1521097 1.0130274e-05 0.0036268611)
(5.1544014 0.0001610707 0.0030535755)
(5.155561 0.0001754077 0.0052530453)
(5.1572951 0.00018229187 0.0076053788)
(5.1596539 0.00017201135 0.010075034)
(5.1626204 0.00014152277 0.012620046)
(5.1661293 9.5063763e-05 0.015200782)
(5.1701023 3.7234092e-05 0.017790798)
(5.1744707 -3.0977206e-05 0.02037333)
(5.179179 -0.00011229591 0.022931399)
(5.1841748 -0.00021021196 0.025442435)
(5.1893973 -0.00032751859 0.027873832)
(5.1947828 -0.0004649092 0.030186924)
(5.2002655 -0.00062119101 0.03233874)
(5.2057808 -0.00079286607 0.034290134)
(5.2112627 -0.00097513685 0.03600888)
(5.2166533 -0.0011623129 0.037477073)
(5.2219081 -0.0013483651 0.038689939)
(5.2269958 -0.00152879 0.039657055)
(5.2318917 -0.0017005266 0.040396184)
(5.2365878 -0.0018622041 0.040932031)
(5.2410812 -0.0020135919 0.041289354)
(5.2453719 -0.0021561042 0.041491296)
(5.2494643 -0.0022906179 0.041558106)
(5.2533645 -0.0024194158 0.041504832)
(5.2570852 -0.0025430584 0.041341608)
(5.2606394 -0.0026628228 0.041077937)
(5.2640336 -0.0027808469 0.040715017)
(5.2672786 -0.0028975013 0.04025393)
(5.2703813 -0.0030132894 0.03969062)
(5.2733481 -0.0031294412 0.039020261)
(5.2761828 -0.0032455481 0.038235137)
(5.2788912 -0.0033605607 0.037330286)
(5.2867459 -0.0028414298 0.036810663)
(5.2838241 -0.0027158605 0.037622738)
(5.280768 -0.0025891449 0.038303476)
(5.2775736 -0.0024623669 0.038858479)
(5.2742374 -0.0023357479 0.039294682)
(5.2707538 -0.0022084785 0.039615632)
(5.2671165 -0.0020803385 0.039824274)
(5.2633158 -0.0019506538 0.03991911)
(5.2593448 -0.00181798 0.039896903)
(5.2551915 -0.0016813448 0.039748044)
(5.2508438 -0.0015407739 0.039464482)
(5.2462954 -0.0013949706 0.039032543)
(5.2415421 -0.0012433717 0.038435956)
(5.2365839 -0.001085646 0.03765666)
(5.2314242 -0.00092264484 0.03667678)
(5.2260725 -0.00075642086 0.035481033)
(5.2205536 -0.00059054727 0.034060954)
(5.214901 -0.00042934771 0.032419304)
(5.2091618 -0.00027827025 0.030571024)
(5.2033968 -0.00014193324 0.02854384)
(5.1976742 -2.3794684e-05 0.026375416)
(5.1920617 7.4240339e-05 0.024108941)
(5.1866274 0.00015231298 0.021786737)
(5.181437 0.00021237756 0.019446161)
(5.1765521 0.00025814526 0.017115445)
(5.1720261 0.00029391867 0.01481352)
(5.1679152 0.00032287447 0.012552151)
(5.1642893 0.00034475784 0.010342718)
(5.1612284 0.00035535445 0.0082024994)
(5.1587995 0.00035065603 0.0061582099)
(5.1570207 0.0003341013 0.0042359463)
(5.1558389 0.00031533545 0.0024553627)
(5.1563736 0.00046884423 0.0018423832)
(5.157574 0.00049282439 0.0031913317)
(5.1593848 0.00051978384 0.0046688179)
(5.1618618 0.00054031023 0.0062710604)
(5.1649868 0.00055084682 0.0079885194)
(5.1686923 0.00055499429 0.009808109)
(5.1728983 0.00055662443 0.011721609)
(5.1775349 0.00055532761 0.01372421)
(5.182546 0.00054733737 0.015809009)
(5.1878784 0.00052757419 0.017961474)
(5.193471 0.0004914459 0.02015762)
(5.1992576 0.00043566009 0.022362308)
(5.2051687 0.00035865394 0.024533582)
(5.2111356 0.00026065468 0.026625044)
(5.2170887 0.00014367681 0.028593249)
(5.2229654 1.1253916e-05 0.030401345)
(5.2287164 -0.00013189782 0.032023315)
(5.2343075 -0.00028171482 0.033444655)
(5.2397129 -0.00043419705 0.034662674)
(5.2449215 -0.00058637057 0.035683683)
(5.2499288 -0.00073680199 0.036518013)
(5.254734 -0.00088466047 0.037178385)
(5.2593409 -0.0010299392 0.037677705)
(5.2637535 -0.0011735418 0.038028896)
(5.2679819 -0.0013142099 0.038236981)
(5.2720397 -0.001452639 0.038313289)
(5.2759328 -0.0015900831 0.038261388)
(5.2796698 -0.0017268594 0.038084094)
(5.2832557 -0.0018634461 0.037779314)
(5.2866957 -0.0020002269 0.037345091)
(5.2899911 -0.0021369474 0.036774467)
(5.2931453 -0.0022719882 0.036062548)
(5.2979711 -0.0016580049 0.03506894)
(5.2945691 -0.0015148998 0.035674144)
(5.2910176 -0.0013694297 0.036129192)
(5.2873139 -0.0012239139 0.036439943)
(5.2834603 -0.0010792441 0.036611841)
(5.2794536 -0.00093462951 0.036645123)
(5.2752902 -0.00078970249 0.036540178)
(5.2709643 -0.00064438079 0.036294026)
(5.26647 -0.00049815347 0.03590119)
(5.2617935 -0.00034996749 0.035353676)
(5.2569268 -0.00020172296 0.034646221)
(5.2518686 -5.3297202e-05 0.033766306)
(5.2466168 9.4255707e-05 0.032703596)
(5.2411737 0.00023925442 0.0314506)
(5.2355448 0.00037946447 0.030004447)
(5.2297431 0.00051105371 0.028367971)
(5.2237958 0.0006287294 0.026558842)
(5.2177405 0.00072896385 0.02460528)
(5.2116268 0.0008092157 0.022536076)
(5.2055158 0.00086640994 0.020398801)
(5.1994766 0.00090025938 0.018242268)
(5.1935777 0.00091188786 0.016116461)
(5.187888 0.00090451946 0.014062813)
(5.1824732 0.00088250478 0.012114528)
(5.1773929 0.00085147816 0.010291179)
(5.1726993 0.00081709082 0.0086032268)
(5.1684478 0.00078370862 0.0070522885)
(5.1647082 0.00075221545 0.0056370252)
(5.1615612 0.00071914138 0.0043557396)
(5.1590778 0.00068121671 0.0032064561)
(5.1572819 0.00064197781 0.0021790953)
(5.1561276 0.00061021038 0.001260453)
(5.1549585 0.00077226975 0.00058241831)
(5.1560915 0.00080242729 0.0010635941)
(5.157863 0.00084824304 0.0016474741)
(5.1603262 0.00090033729 0.002355335)
(5.1634583 0.00095418915 0.0032099675)
(5.1671878 0.0010122033 0.0042268445)
(5.1714353 0.0010769077 0.0054173913)
(5.1761324 0.0011467832 0.0067903527)
(5.1812252 0.0012167188 0.0083497221)
(5.1866639 0.0012804871 0.01009086)
(5.1923914 0.0013314517 0.011998937)
(5.1983441 0.0013638741 0.014044616)
(5.2044551 0.0013729706 0.016187218)
(5.2106569 0.0013557095 0.018375012)
(5.2168815 0.0013106551 0.020551854)
(5.2230681 0.0012390233 0.022660774)
(5.2291659 0.0011444038 0.024651374)
(5.2351361 0.0010313339 0.02648682)
(5.2409501 0.00090430463 0.028142722)
(5.2465929 0.00076789164 0.029606603)
(5.2520572 0.00062577752 0.030873585)
(5.2573407 0.00048071454 0.031946135)
(5.262446 0.00033531278 0.032832115)
(5.2673806 0.00019188725 0.033542285)
(5.2721495 4.4552751e-05 0.034107162)
(5.276755 -0.00010564243 0.034517174)
(5.2812015 -0.00025594043 0.034773055)
(5.285493 -0.00040643217 0.034879255)
(5.2896306 -0.00055725229 0.034836596)
(5.2936147 -0.00070881055 0.034648511)
(5.2974386 -0.00085994812 0.034312634)
(5.3011057 -0.001008508 0.033821459)
(5.3024306 -0.00033579942 0.032328457)
(5.2984775 -0.00018415955 0.032700847)
(5.2943696 -4.0280506e-05 0.032938958)
(5.2901184 0.00010376 0.033036684)
(5.2857243 0.00025234027 0.032977252)
(5.2811804 0.00040379417 0.032755475)
(5.2764825 0.0005569283 0.032367393)
(5.271626 0.00071100315 0.031807812)
(5.2666079 0.00086554042 0.031070537)
(5.2614253 0.0010198336 0.030145196)
(5.2560784 0.0011711849 0.029032141)
(5.2505645 0.00131741 0.027727784)
(5.2448859 0.0014556763 0.026230276)
(5.239049 0.0015828368 0.024542832)
(5.2330649 0.0016947575 0.022677093)
(5.2269517 0.0017865365 0.020653082)
(5.2207396 0.0018532788 0.018505727)
(5.2144676 0.0018909342 0.016282097)
(5.2081851 0.0018972886 0.014039078)
(5.2019513 0.0018722299 0.01184004)
(5.1958316 0.0018188523 0.0097459964)
(5.1898898 0.0017417643 0.0078094264)
(5.1841897 0.0016471694 0.00607032)
(5.1787906 0.0015419788 0.0045542065)
(5.1737459 0.0014335118 0.0032720126)
(5.1691021 0.0013286692 0.0022236226)
(5.1649104 0.0012330722 0.0014000589)
(5.161236 0.0011488552 0.00078703462)
(5.1581558 0.0010742601 0.00036478415)
(5.1557385 0.0010076111 0.00010659116)
(5.1540037 0.00095355433 -2.3126877e-05)
(5.1528958 0.00092045472 -5.7890192e-05)
(5.1499762 0.0010574197 -0.00067308167)
(5.1510479 0.0010934719 -0.0010705438)
(5.1527297 0.0011556059 -0.001385918)
(5.1550765 0.0012361582 -0.0015705676)
(5.1580708 0.0013305402 -0.0015752659)
(5.1616475 0.001439764 -0.0013620151)
(5.1657337 0.0015647629 -0.00090364412)
(5.1702687 0.0017027972 -0.00018075599)
(5.1752052 0.0018477922 0.00081963013)
(5.1805009 0.0019923943 0.002102026)
(5.1861076 0.0021286266 0.0036593139)
(5.1919712 0.0022485817 0.0054692122)
(5.1980331 0.0023447789 0.0074929807)
(5.204234 0.0024111884 0.0096771392)
(5.2105128 0.0024433254 0.011956291)
(5.2168134 0.002440065 0.014260724)
(5.2230871 0.0024031168 0.016524087)
(5.2292948 0.0023363161 0.018690348)
(5.2354057 0.0022447161 0.0207158)
(5.241399 0.0021337225 0.022572235)
(5.2472612 0.0020080802 0.024242036)
(5.2529841 0.0018716745 0.025718216)
(5.2585624 0.0017276067 0.027000894)
(5.2639939 0.0015783916 0.028094218)
(5.2692792 0.0014252621 0.029005549)
(5.2744182 0.0012692722 0.029743017)
(5.2794086 0.0011111935 0.030312358)
(5.2842495 0.00095133885 0.030719732)
(5.2889378 0.00079031323 0.030966452)
(5.2934738 0.00062882495 0.031052393)
(5.2978503 0.00046863101 0.030969374)
(5.3020598 0.00031095833 0.030712962)
(5.2998273 0.0010371807 0.02856797)
(5.2953199 0.0011956577 0.028677769)
(5.2906501 0.0013527385 0.028627479)
(5.2858261 0.0015084981 0.028417507)
(5.2808544 0.0016630918 0.028047175)
(5.2757383 0.0018161131 0.027513813)
(5.270482 0.0019672676 0.026813352)
(5.2650886 0.0021161812 0.025939231)
(5.2595616 0.0022618724 0.024884725)
(5.2539043 0.0024028822 0.023642648)
(5.2481211 0.0025370416 0.022207867)
(5.2422178 0.0026614617 0.020578426)
(5.2362033 0.0027724898 0.018757495)
(5.2300896 0.0028654292 0.016757304)
(5.2238934 0.0029350173 0.014601262)
(5.2176381 0.0029757351 0.012324899)
(5.2113558 0.0029823689 0.0099799043)
(5.2050848 0.0029514503 0.0076297671)
(5.1988716 0.0028819766 0.0053478502)
(5.1927681 0.0027763266 0.0032082781)
(5.1868297 0.0026400483 0.0012795942)
(5.1811098 0.0024804316 -0.00038469554)
(5.1756605 0.0023059164 -0.0017471915)
(5.1705296 0.0021252911 -0.0027889013)
(5.165759 0.0019469586 -0.0035059001)
(5.1613858 0.001778644 -0.003906451)
(5.1574525 0.001626712 -0.0040070295)
(5.1540145 0.001494551 -0.0038314315)
(5.1511399 0.0013820688 -0.0034140555)
(5.1488895 0.0012888687 -0.0028038141)
(5.1472792 0.0012196309 -0.0020636413)
(5.1462574 0.0011812597 -0.0012560044)
(5.1418012 0.0012901153 -0.0018000278)
(5.142762 0.0013299695 -0.0029900453)
(5.1442836 0.0014049243 -0.0041274064)
(5.1464141 0.001508888 -0.0051374554)
(5.149139 0.0016371173 -0.0059447786)
(5.1524016 0.0017893285 -0.0064901225)
(5.1561399 0.0019647385 -0.006732706)
(5.1603041 0.0021593453 -0.00664486)
(5.1648574 0.0023666307 -0.0062072788)
(5.1697683 0.002578602 -0.005408622)
(5.175002 0.0027865868 -0.0042501034)
(5.1805182 0.002981286 -0.0027478362)
(5.1862723 0.0031534609 -0.00093743352)
(5.1922177 0.0032948954 0.0011279263)
(5.1983059 0.003399177 0.0033778384)
(5.2044896 0.0034630472 0.0057354371)
(5.2107255 0.003486705 0.0081219273)
(5.2169757 0.0034732521 0.010467912)
(5.2232075 0.0034277898 0.012715031)
(5.2293955 0.0033560063 0.014822013)
(5.2355197 0.0032632992 0.016760235)
(5.241565 0.003154792 0.01851331)
(5.2475189 0.0030346129 0.02007485)
(5.2533715 0.002905995 0.021445137)
(5.2591159 0.0027712197 0.022628336)
(5.2647453 0.0026320806 0.023631128)
(5.2702522 0.0024897216 0.024460004)
(5.2756302 0.0023448225 0.025121277)
(5.2808715 0.0021976948 0.025619016)
(5.2859691 0.0020488962 0.025956034)
(5.2909126 0.0018988434 0.026132704)
(5.2956922 0.0017476703 0.026148559)
(5.2896997 0.0024355497 0.023461128)
(5.2846598 0.0025773582 0.023315705)
(5.2794611 0.0027170776 0.023014086)
(5.2741152 0.0028546447 0.022556289)
(5.2686342 0.0029896364 0.021941103)
(5.2630276 0.0031217186 0.021165239)
(5.2573053 0.0032505792 0.020223893)
(5.2514769 0.0033753219 0.019111038)
(5.2455527 0.0034946657 0.017820073)
(5.2395431 0.0036067864 0.016345556)
(5.2334592 0.0037090664 0.014684276)
(5.2273148 0.0037979719 0.012838761)
(5.221126 0.0038692758 0.010817908)
(5.2149116 0.003917561 0.008642118)
(5.2086944 0.003937321 0.0063441098)
(5.2025021 0.0039229548 0.0039707708)
(5.1963673 0.0038696579 0.0015845264)
(5.1903267 0.0037749172 -0.00074055455)
(5.1844199 0.0036391432 -0.0029231424)
(5.1786884 0.0034662762 -0.0048842687)
(5.1731734 0.0032633705 -0.0065539239)
(5.167914 0.003039213 -0.007879517)
(5.1629464 0.0028035416 -0.0088276553)
(5.158303 0.0025658144 -0.0093842041)
(5.1540112 0.0023348571 -0.0095506612)
(5.1500961 0.0021186907 -0.0093403417)
(5.1465887 0.0019240069 -0.0087748083)
(5.1435325 0.0017552769 -0.0078848202)
(5.1409835 0.001614149 -0.0067166806)
(5.1389932 0.0015016406 -0.0053387065)
(5.137575 0.001422495 -0.0038373167)
(5.1366843 0.001382003 -0.0022974133)
(5.1309917 0.001455485 -0.0027422121)
(5.1318054 0.0014957809 -0.0045952375)
(5.1331092 0.0015774713 -0.0064231534)
(5.1349437 0.0016961298 -0.0081323779)
(5.1372968 0.0018469575 -0.0096272897)
(5.1401224 0.0020282501 -0.010831902)
(5.1433711 0.0022375186 -0.011695412)
(5.1470055 0.0024698903 -0.012184856)
(5.1510012 0.0027186252 -0.012277435)
(5.1553393 0.0029758723 -0.011958124)
(5.1599999 0.0032328616 -0.011223898)
(5.1649588 0.0034800918 -0.010086685)
(5.1701884 0.0037078272 -0.0085783318)
(5.1756573 0.0039069643 -0.0067492939)
(5.1813322 0.004070185 -0.0046689337)
(5.1871773 0.004193008 -0.0024156582)
(5.1931573 0.0042745138 -7.2313041e-05)
(5.1992376 0.0043166422 0.0022852316)
(5.2053856 0.0043237336 0.0045912168)
(5.2115724 0.0043010949 0.0067952397)
(5.2177729 0.0042541256 0.0088608945)