/*--------------------------------*- C++ -*----------------------------------*\
| =========                 |                                                 |
| \\      /  F ield         | OpenFOAM: The Open Source CFD Toolbox           |
|  \\    /   O peration     | Version:  v2012                                 |
|   \\  /    A nd           | Website:  www.openfoam.com                      |
|    \\/     M anipulation  |                                                 |
\*---------------------------------------------------------------------------*/
FoamFile
{
    version     2.0;
    format      ascii;
    class       volScalarField;
    location    "145";
    object      k;
}
// * * * * * * * * * * * * * * * * * * * * * * * * * * * * * * * * * * * * * //

dimensions      [0 2 -2 0 0 0 0];


internalField   nonuniform List<scalar> 
11751
(
0.22434065
0.21904889
0.21394556
0.20900959
0.20424171
0.19963194
0.19517216
0.19085368
0.18666847
0.18260902
0.17866832
0.1748398
0.17111731
0.16749424
0.16396528
0.16052522
0.15716998
0.15390557
0.1507248
0.14762201
0.14458705
0.14160694
0.13868896
0.13581497
0.13298759
0.13019624
0.1274987
0.12484447
0.12234861
0.11985167
0.11754574
0.11786728
0.12301124
0.12853227
0.13615146
0.14495166
0.15385485
0.16243553
0.16762211
0.17080792
0.17297855
0.17485228
0.17538518
0.17599516
0.17534026
0.17547552
0.172883
0.16908384
0.15984835
0.14884703
0.13679491
0.13873252
0.15740135
0.17875363
0.19287181
0.20022106
0.20355178
0.20486157
0.2051696
0.20546822
0.20525982
0.20501531
0.20470951
0.20439813
0.20399525
0.20355791
0.20316582
0.20277582
0.2025796
0.20249843
0.20270106
0.20257039
0.20275092
0.20306978
0.20354061
0.20400344
0.20450048
0.20499067
0.20547882
0.20595768
0.20639332
0.20678438
0.20711259
0.20740034
0.20763723
0.20780633
0.20799811
0.20818592
0.2084074
0.20861825
0.20884915
0.20905092
0.20924474
0.20940096
0.20951827
0.2095726
0.20954984
0.20953674
0.20954171
0.20974654
0.20990331
0.21064217
0.21139373
0.21204135
0.21120104
0.20774351
0.19967711
0.18511672
0.16416689
0.13853153
0.13953199
0.16454578
0.18529539
0.19942112
0.20755629
0.21105085
0.21181699
0.21128847
0.21049396
0.20983707
0.20987605
0.21058556
0.21140605
0.2118694
0.21115048
0.2076069
0.19960465
0.1859554
0.16595321
0.14238736
0.14669556
0.16867239
0.1872877
0.20029294
0.20802637
0.2114513
0.21205381
0.21151035
0.2106963
0.20994565
0.20991323
0.21072352
0.21161447
0.21221366
0.21177597
0.20864306
0.20145226
0.18922757
0.17187856
0.15195028
0.15808689
0.17599511
0.19158275
0.20276222
0.20934264
0.21210365
0.21233423
0.21162314
0.2106973
0.20989707
0.20974165
0.2105932
0.21161852
0.21243788
0.21242438
0.21013256
0.20430643
0.19419362
0.18015225
0.16483343
0.17074951
0.1841932
0.19660512
0.20562785
0.21081589
0.21270932
0.21253574
0.21154476
0.21046035
0.20961913
0.2093984
0.21024909
0.2113794
0.21252651
0.21291978
0.21136555
0.20669965
0.19836759
0.18698328
0.17522314
0.17769704
0.18893867
0.19947417
0.20735133
0.21171751
0.21296468
0.21240459
0.21123061
0.21006698
0.20923118
0.20897971
0.20988798
0.21108513
0.2122896
0.21297479
0.21195185
0.20790903
0.20030168
0.1900865
0.17958734
0.18087585
0.19122696
0.20108687
0.2083144
0.2121382
0.21296094
0.21215014
0.21086872
0.20969424
0.20880406
0.20855201
0.20948641
0.21071055
0.21200157
0.21290799
0.21225843
0.20867059
0.20153079
0.19170771
0.18173102
0.18190437
0.19215442
0.20177271
0.20877607
0.21229181
0.2128648
0.21188351
0.21052079
0.20930397
0.20839626
0.20818494
0.20912917
0.21040908
0.21178638
0.21279524
0.21230946
0.20890521
0.20191428
0.19217026
0.18189918
0.18169799
0.19204474
0.20192484
0.20878039
0.21221383
0.21267806
0.21167378
0.21024334
0.20894748
0.20805833
0.20780662
0.20872764
0.21000953
0.21135387
0.21227116
0.21152953
0.20780602
0.20075238
0.19081683
0.17991286
0.17611051
0.18757207
0.19803907
0.2057293
0.21007995
0.21134193
0.21076561
0.20958064
0.20835908
0.2074725
0.20713421
0.20792313
0.20903516
0.20998639
0.21017875
0.20812017
0.20263887
0.19368817
0.18203763
0.16902458
0.16014799
0.17484668
0.1883384
0.19885471
0.20575026
0.20867313
0.20901769
0.20835177
0.20742196
0.20669638
0.20623411
0.20686457
0.20767241
0.20808028
0.207367
0.20353638
0.19560907
0.18352944
0.16789081
0.15125346
0.15200612
0.1682622
0.18322395
0.19488538
0.20255193
0.20633638
0.20721965
0.20692548
0.20624804
0.20568962
0.2051737
0.2056267
0.20624285
0.20652434
0.20593109
0.20299076
0.19717944
0.18829205
0.17716837
0.16574791
0.18284246
0.18905539
0.19530891
0.20043247
0.20391924
0.20564668
0.20589781
0.20554734
0.20502554
0.20462568
0.20411747
0.20444315
0.20491745
0.20529241
0.20542893
0.20468473
0.20299122
0.20040915
0.19738342
0.19460753
0.2009621
0.20211441
0.20334726
0.20434387
0.20491979
0.20497477
0.20464306
0.20423924
0.20384584
0.20358421
0.20312253
0.20330666
0.20366576
0.20404737
0.20451223
0.20475635
0.20477421
0.20453648
0.20413698
0.2037793
0.20481427
0.20482937
0.20480012
0.20463711
0.2043608
0.20398245
0.20354515
0.20315863
0.20287539
0.20272548
0.20251791
0.20263098
0.2028532
0.20322324
0.20362949
0.20405853
0.20444295
0.20471018
0.20491826
0.20505105
0.20683968
0.20693739
0.20891487
0.21093322
0.21298935
0.21504557
0.21708729
0.21908975
0.22105333
0.22298038
0.22488173
0.22676652
0.22864147
0.23051215
0.23238302
0.23425727
0.23613828
0.23802854
0.23992996
0.24184428
0.24377323
0.24571838
0.24768141
0.2496638
0.25166669
0.25369135
0.25573876
0.25780981
0.25990517
0.26202493
0.26416849
0.26633422
0.26851908
0.27071817
0.27292531
0.26667231
0.26447607
0.26230635
0.26016487
0.25805257
0.25596981
0.25391657
0.25189251
0.24989708
0.24792958
0.24598909
0.2440746
0.24218493
0.24031873
0.23847442
0.23665019
0.23484388
0.23305294
0.23127415
0.22950328
0.22773469
0.22596017
0.22417115
0.22235509
0.22051695
0.21864012
0.21678315
0.21490605
0.21310302
0.21131631
0.21155489
0.21339192
0.21526263
0.21716494
0.21907
0.22096742
0.22283619
0.22467619
0.22649098
0.22828967
0.23008096
0.23187257
0.2336702
0.23547833
0.23730031
0.23913891
0.2409964
0.24287472
0.24477558
0.24670043
0.24865052
0.25062697
0.25263074
0.25466265
0.25672338
0.25881336
0.26093271
0.26308115
0.26525785
0.26746116
0.26922294
0.26700128
0.26480592
0.2626384
0.26049941
0.25838905
0.25630705
0.25425283
0.25222562
0.25022443
0.24824825
0.24629589
0.24436606
0.24245724
0.24056769
0.23869539
0.23683811
0.23499301
0.23315679
0.23132499
0.22949211
0.22765073
0.22579252
0.2239087
0.22199409
0.22005058
0.21809223
0.21613948
0.21421159
0.21232709
0.21320114
0.21519341
0.21721833
0.21926705
0.2213207
0.22335723
0.22536242
0.22733455
0.22927917
0.23120525
0.23312115
0.23503411
0.23694952
0.23887173
0.24080396
0.24274899
0.24470911
0.24668609
0.24868188
0.25069802
0.25273587
0.25479661
0.25688136
0.25899119
0.261127
0.26328956
0.26547932
0.26769632
0.26994008
0.27220921
0.27656493
0.27418363
0.27182624
0.2694942
0.26718792
0.26490724
0.26265154
0.26041999
0.25821162
0.25602539
0.25386025
0.251715
0.24958843
0.24747905
0.24538513
0.24330509
0.24123691
0.23917818
0.2371259
0.23507621
0.2330239
0.23096217
0.2288826
0.22677669
0.22463897
0.22247265
0.22029314
0.21812511
0.21598875
0.21390393
0.21319232
0.21543009
0.21772928
0.22007094
0.22243317
0.22478975
0.22712335
0.2294297
0.23171367
0.23398309
0.23624659
0.23851042
0.24077969
0.24305799
0.24534809
0.24765183
0.24997104
0.25230728
0.25466208
0.25703572
0.25942973
0.26184537
0.26428358
0.26674531
0.26923146
0.27174284
0.27428008
0.27684323
0.27943158
0.28204358
0.28755841
0.28454921
0.28156682
0.27861425
0.27569273
0.27280258
0.26994384
0.26711575
0.26431754
0.26154817
0.25880711
0.25609324
0.25340568
0.25074388
0.24810687
0.24549299
0.24290069
0.24032872
0.23777477
0.23523504
0.23270476
0.23017816
0.22764611
0.22510267
0.22254321
0.21997292
0.21741102
0.21488517
0.21241714
0.2099946
0.20211619
0.20473077
0.20739942
0.21013591
0.2129232
0.21573436
0.21854791
0.22135784
0.22417013
0.22699008
0.22982666
0.23268644
0.23557519
0.23849533
0.24145047
0.24444186
0.24747175
0.25054078
0.25365101
0.25680302
0.25999846
0.26323712
0.26652007
0.26984893
0.27322456
0.27664909
0.28012125
0.2836404
0.28720464
0.29081086
0.28792428
0.28359664
0.27933693
0.27515327
0.27104747
0.26701867
0.26306724
0.25918953
0.25538362
0.25164823
0.24798163
0.24438511
0.24085532
0.23738907
0.23398389
0.23063867
0.22735105
0.22411733
0.22093413
0.21779855
0.21470477
0.21164274
0.20860193
0.20557552
0.20256117
0.19956708
0.19662145
0.19375181
0.19096935
0.18818023
0.16674167
0.16943408
0.17220287
0.17509105
0.17807486
0.18112016
0.18420447
0.18731844
0.19046269
0.19364671
0.19688684
0.20017567
0.20353224
0.20696218
0.21046795
0.21404907
0.21771121
0.22146183
0.22529825
0.22922421
0.23324329
0.23735802
0.24157156
0.24588762
0.25030767
0.25483483
0.25947283
0.26421425
0.26906218
0.27401331
0.27059057
0.26827115
0.26597834
0.26371191
0.26147208
0.25925932
0.25707418
0.25491717
0.25278867
0.2506889
0.24861794
0.24657569
0.24456191
0.2425762
0.24061804
0.23868676
0.23678154
0.23490139
0.23304511
0.23121128
0.22939818
0.22760377
0.2258255
0.22406021
0.22230357
0.22055002
0.2187911
0.21701834
0.21521894
0.21339758
0.21153737
0.2096961
0.2078335
0.20604184
0.20426509
0.20418512
0.20434845
0.20468391
0.20511471
0.20558282
0.2060624
0.20655711
0.20704567
0.20752945
0.2079683
0.20836285
0.20869076
0.20897662
0.20920895
0.2093818
0.20957439
0.20976051
0.20997998
0.21018844
0.2104184
0.21061884
0.2108141
0.21097013
0.21110277
0.21115447
0.21116678
0.21113988
0.21115784
0.21296187
0.2129366
0.21295108
0.21292146
0.21286068
0.21272409
0.21256441
0.21237198
0.2121698
0.21194417
0.21173524
0.21152095
0.21133365
0.21114345
0.21096658
0.21073614
0.21045558
0.21012509
0.20972989
0.209285
0.20879877
0.20830333
0.20780646
0.20732867
0.20686804
0.2064569
0.20613809
0.20598331
0.2078131
0.20796992
0.20827012
0.20866568
0.20911547
0.20959456
0.21009463
0.21059747
0.2110872
0.21153753
0.21193346
0.21226558
0.21254178
0.21277001
0.21295019
0.2131375
0.21332662
0.213536
0.21374584
0.21396701
0.21417125
0.2143607
0.21452448
0.21466263
0.21473545
0.21477795
0.21477945
0.21480561
0.21668315
0.2166519
0.21663718
0.21658329
0.21649862
0.21635828
0.21619115
0.21600237
0.21579611
0.21557902
0.21536813
0.21516299
0.21497186
0.21478711
0.21460406
0.21437697
0.21410511
0.21377117
0.21337502
0.2129192
0.21242602
0.21191598
0.21141352
0.21093328
0.21049415
0.21011248
0.20982926
0.20967784
0.21154281
0.21169615
0.21196507
0.21233407
0.21276335
0.21324348
0.21374788
0.21426381
0.21476052
0.21522093
0.21561766
0.21595299
0.21622156
0.21644721
0.21663286
0.21681667
0.21700863
0.21721049
0.21742226
0.21763617
0.21784496
0.21803475
0.21820442
0.21834858
0.21844358
0.21850788
0.21853422
0.21856605
0.22044143
0.22040372
0.22036623
0.220292
0.22018868
0.22003893
0.21986607
0.21967348
0.21946426
0.2192521
0.21904007
0.21883988
0.21864859
0.21846437
0.21827624
0.21805271
0.21778613
0.21745066
0.21705265
0.21658903
0.21608847
0.21556839
0.21506161
0.21458314
0.21416238
0.2138058
0.21355007
0.2134041
0.21523475
0.21537502
0.21561962
0.2159634
0.2163775
0.21685386
0.21736258
0.21788504
0.21839002
0.2188553
0.21925552
0.21959115
0.21985651
0.2200781
0.22026826
0.22045194
0.22064442
0.22084412
0.221056
0.22126743
0.22147648
0.2216719
0.22184791
0.22200179
0.22211426
0.22219796
0.22224644
0.22228929
0.22410803
0.22406023
0.22400196
0.22390959
0.22378838
0.22363062
0.22345166
0.22325429
0.22304447
0.22283223
0.22262124
0.222421
0.22222824
0.22204475
0.22185329
0.22163275
0.22136793
0.22103237
0.22063035
0.22016338
0.21965471
0.21912996
0.21861961
0.21814563
0.21773741
0.2174054
0.21717115
0.21703801
0.21881641
0.21894555
0.2191702
0.21949218
0.2198944
0.22036611
0.22087781
0.22140506
0.22191672
0.22238563
0.22278874
0.22312438
0.22338885
0.22360935
0.22380154
0.22398552
0.22417812
0.22437898
0.22458941
0.22480251
0.22501326
0.22521243
0.22539424
0.22555609
0.22568454
0.22578492
0.22585125
0.22590304
0.22768231
0.22762811
0.22755511
0.22744813
0.22731327
0.22714778
0.22696319
0.22676176
0.22655059
0.22633659
0.22612654
0.22592493
0.22573226
0.22554697
0.22535399
0.2251339
0.22486894
0.22453367
0.22412943
0.22365817
0.22314438
0.22261431
0.22210156
0.22163268
0.22123582
0.22092269
0.22070554
0.22058066
0.22233855
0.22246047
0.22267142
0.22297675
0.22336871
0.22383478
0.2243484
0.22488108
0.2253968
0.22587039
0.22627566
0.22661067
0.22687634
0.22709648
0.22729029
0.2274769
0.22766994
0.22787227
0.22808242
0.22829721
0.22850899
0.22871237
0.22889946
0.22906805
0.22920847
0.2293209
0.22939951
0.22945579
0.23123026
0.23117265
0.23108955
0.23097257
0.23082738
0.23065596
0.23046653
0.23026136
0.2300489
0.22983324
0.22962281
0.22941965
0.2292261
0.22903814
0.22884369
0.22862303
0.22835643
0.22802139
0.22761461
0.22713952
0.22662128
0.22608707
0.22557283
0.22510927
0.22472187
0.22442342
0.22421787
0.22409887
0.2258667
0.22598335
0.22618411
0.22647642
0.22685951
0.22732056
0.22783481
0.22837029
0.22889084
0.22936738
0.22977585
0.23011138
0.23037888
0.23060028
0.23079557
0.23098487
0.23117914
0.23138324
0.23159416
0.23181073
0.23202388
0.23223069
0.23242221
0.23259638
0.23274546
0.23286627
0.23295314
0.23301209
0.23480514
0.23474519
0.23465522
0.23453113
0.23437888
0.23420208
0.23400842
0.23380042
0.23358616
0.23336902
0.23315714
0.2329524
0.23275708
0.23256656
0.23237011
0.2321477
0.23187943
0.23154292
0.23113269
0.2306546
0.23013214
0.22959537
0.22908145
0.22862292
0.22824439
0.22795754
0.22776115
0.22764692
0.22944249
0.2295546
0.229747
0.23002883
0.2304027
0.23085856
0.23137176
0.23190946
0.23243377
0.23291351
0.23332551
0.233663
0.23393251
0.23415599
0.23435392
0.23454575
0.23474221
0.23494766
0.23516059
0.23537834
0.23559374
0.23580283
0.23599844
0.23617744
0.23633261
0.23645952
0.23655214
0.23661313
0.23843847
0.23837666
0.23828184
0.23815247
0.23799469
0.23781376
0.2376164
0.23740624
0.23718974
0.23697132
0.2367574
0.23655103
0.23635337
0.23616016
0.23596062
0.23573584
0.23546481
0.23512613
0.23471235
0.2342308
0.23370473
0.23316622
0.23265417
0.2322014
0.23183204
0.23155487
0.23136632
0.23125636
0.23309054
0.23319855
0.23338339
0.23365615
0.23402107
0.23447045
0.23498103
0.23552008
0.23604779
0.23653135
0.23694695
0.23728706
0.23755985
0.23778625
0.23798741
0.23818206
0.23838099
0.23858839
0.23880324
0.23902245
0.23923994
0.23945118
0.23965008
0.23983281
0.23999282
0.24012435
0.24022102
0.24028363
0.24215037
0.24208709
0.24198884
0.24185546
0.24169347
0.24150911
0.24130879
0.24109652
0.24087806
0.24065805
0.24044225
0.24023372
0.24003357
0.2398373
0.23963439
0.23940627
0.23913152
0.23878958
0.23837201
0.23788647
0.23735714
0.23681801
0.23630913
0.23586331
0.23550276
0.2352344
0.23505307
0.2349469
0.23682688
0.23693129
0.23710929
0.23737339
0.23772954
0.23817162
0.23867855
0.23921751
0.23974839
0.24023596
0.24065568
0.2409997
0.24127663
0.24150666
0.24171147
0.24190942
0.24211083
0.24232051
0.24253724
0.24275803
0.24297743
0.24319066
0.24339229
0.24357812
0.24374187
0.24387686
0.24397647
0.24404041
0.24595509
0.24589059
0.24578982
0.24565341
0.24548809
0.24530092
0.24509809
0.24488394
0.24466365
0.24444208
0.24422437
0.24401363
0.24381084
0.24361126
0.24340442
0.24317227
0.24289297
0.24254666
0.24212467
0.24163497
0.2411026
0.24056397
0.24005927
0.23962104
0.23926928
0.2390093
0.23883447
0.2387318
0.24066265
0.24076366
0.24093549
0.24119148
0.24153885
0.24197315
0.24247541
0.24301356
0.24354739
0.24403932
0.24446368
0.24481248
0.24509433
0.2453288
0.24553772
0.24573898
0.24594318
0.24615498
0.24637365
0.24659602
0.24681715
0.24703216
0.2472361
0.2474245
0.24759122
0.24772887
0.24783066
0.24789569
0.24986321
0.24979775
0.24969509
0.2495563
0.24938834
0.24919877
0.24899382
0.24877798
0.24855608
0.2483329
0.24811327
0.24790039
0.2476948
0.24749176
0.24728066
0.24704372
0.24675924
0.24640775
0.24598086
0.24548664
0.24495146
0.24441388
0.2439142
0.24348386
0.24314086
0.24288873
0.24271974
0.24262034
0.24460554
0.24470343
0.24486974
0.24511817
0.24545689
0.24588324
0.24638025
0.24691719
0.24745367
0.24795019
0.24837974
0.24873405
0.24902127
0.2492608
0.24947413
0.24967899
0.24988605
0.25010004
0.25032062
0.25054457
0.25076725
0.25098386
0.25118975
0.25138039
0.25154951
0.25168934
0.25179278
0.25185863
0.25388263
0.25381644
0.2537123
0.25357154
0.25340135
0.25320973
0.25300298
0.25278562
0.25256219
0.25233746
0.25211593
0.25190078
0.25169219
0.25148547
0.25126984
0.25102766
0.2507376
0.25038042
0.24994809
0.24944929
0.24891154
0.24837526
0.24788097
0.24745858
0.24712399
0.24687909
0.24671529
0.24661882
0.24866058
0.24875572
0.24891719
0.24915879
0.24948945
0.24990798
0.25039957
0.25093515
0.25147411
0.25197517
0.25241029
0.25277043
0.25306334
0.25330824
0.25352622
0.25373486
0.25394504
0.2541614
0.2543839
0.25460942
0.25483359
0.25505166
0.25525924
0.25545177
0.25562296
0.25576459
0.25586932
0.25593579
0.25801849
0.25795181
0.25784654
0.25770407
0.25753197
0.25733856
0.25713022
0.25691143
0.25668653
0.25646016
0.25623664
0.25601899
0.25580718
0.25559651
0.25537613
0.25512854
0.25483274
0.2544697
0.25403179
0.25352858
0.25298851
0.2524537
0.25196471
0.25154985
0.25122289
0.25098434
0.250825
0.25073108
0.25283043
0.25292328
0.25308068
0.25331646
0.25364001
0.25405143
0.25453791
0.25507187
0.25561297
0.25611818
0.25655872
0.25692454
0.25722317
0.25747344
0.25769627
0.25790904
0.25812257
0.25834161
0.25856622
0.25879349
0.25901916
0.25923865
0.25944772
0.25964195
0.25981492
0.25995815
0.26006389
0.26013073
0.26227216
0.26220523
0.26209906
0.26195513
0.26178133
0.26158633
0.26137655
0.26115634
0.26092986
0.2607016
0.26047581
0.26025528
0.26003991
0.25982495
0.25959965
0.25934676
0.25904545
0.2586771
0.2582342
0.25772725
0.2571853
0.2566523
0.25616821
0.25575996
0.25543947
0.25520617
0.25505049
0.2549586
0.25711532
0.25720637
0.25736057
0.25759169
0.25790949
0.25831485
0.25879661
0.25932852
0.25987103
0.26037931
0.26082407
0.26119457
0.26149829
0.26175372
0.26198148
0.26219871
0.26241604
0.26263821
0.2628653
0.26309464
0.26332199
0.26354296
0.26375345
0.26394919
0.26412377
0.26426836
0.2643749
0.26444187
0.26663815
0.26657122
0.26646437
0.26631916
0.26614384
0.26594738
0.26573619
0.26551442
0.26528611
0.26505558
0.26482702
0.26460307
0.26438363
0.26416404
0.26393381
0.26367603
0.2633703
0.26299823
0.26255231
0.26204339
0.26150082
0.26097026
0.2604908
0.26008811
0.2597727
0.25954345
0.25939055
0.25930022
0.26151278
0.26160247
0.26175422
0.26198181
0.26229508
0.26269522
0.26317223
0.26370095
0.26424277
0.26475129
0.26697348
0.26646689
0.2659271
0.26540107
0.26492693
0.26452941
0.2642182
0.26399217
0.26384149
0.26375242
0.26601863
0.26610702
0.26625657
0.266481
0.26679
0.26718451
0.26765494
0.26817688
0.26871275
0.26921527
0.27147241
0.27097687
0.27044761
0.26993184
0.26946649
0.26907579
0.26876947
0.26854692
0.2683987
0.26831114
0.27063013
0.27071663
0.27086316
0.27108328
0.27138612
0.27177172
0.27223
0.27273681
0.27325591
0.27374072
0.26743202
0.26522869
0.26305202
0.26090365
0.25878441
0.25669457
0.25463398
0.25260219
0.25059855
0.24862221
0.24667221
0.24474741
0.24284653
0.24096804
0.23911031
0.23727128
0.23544875
0.23363977
0.23184116
0.23004831
0.22825599
0.22645668
0.22464274
0.2228055
0.22093998
0.2190459
0.21713421
0.21522139
0.21333248
0.21148912
0.21152738
0.21230249
0.21220072
0.21309687
0.21321455
0.21377234
0.21370995
0.21305914
0.21316707
0.21348545
0.2139716
0.21332498
0.21240872
0.21158656
0.21154808
0.21152285
0.21136242
0.21229709
0.21240208
0.21243634
0.213431
0.21413787
0.2138194
0.21415573
0.21425973
0.21344451
0.21343087
0.21435978
0.21447061
0.21475619
0.21445662
0.21334943
0.21215423
0.21123081
0.21101712
0.21084539
0.21059996
0.21159004
0.21176686
0.2119471
0.21318883
0.21444464
0.21497694
0.21501458
0.21433222
0.2130448
0.21289648
0.21421752
0.21502916
0.21502527
0.21408689
0.21268463
0.21139182
0.21041959
0.21017613
0.21001759
0.20980954
0.21084113
0.21100738
0.21119038
0.21252848
0.21394101
0.21497507
0.21494938
0.21383427
0.21234458
0.2122376
0.21374486
0.21488813
0.21725387
0.21731058
0.21731018
0.21736278
0.21734805
0.21733466
0.21728301
0.2170684
0.21678166
0.21647107
0.21611329
0.21578198
0.21544465
0.21532991
0.21583834
0.21511001
0.21411066
0.21607144
0.21717439
0.21728983
0.21616192
0.21524892
0.21336632
0.21420803
0.21522651
0.21591352
0.21811816
0.21802942
0.21767238
0.21780771
0.22018821
0.22004613
0.2202368
0.21925417
0.21805221
0.22002191
0.22131858
0.22142334
0.22009476
0.21906108
0.21715957
0.21814091
0.21937582
0.22034005
0.22252755
0.22243328
0.22241518
0.22255079
0.22487614
0.22476401
0.22459885
0.22335196
0.2219663
0.22387771
0.22535064
0.22541108
0.22391055
0.22279572
0.22094421
0.22202099
0.22343814
0.2246758
0.22678664
0.22673316
0.22708587
0.22717668
0.22945517
0.22938583
0.22883728
0.22731858
0.2257602
0.22761861
0.22926203
0.22928831
0.22762182
0.22642822
0.22462328
0.22577741
0.22736155
0.22887498
0.23094358
0.23091925
0.23166686
0.23172234
0.2319075
0.23102033
0.22930418
0.22760323
0.22637827
0.22458302
0.22276955
0.22093155
0.21906557
0.21717695
0.21528196
0.21341008
0.21336472
0.2152322
0.21712016
0.219001
0.21891973
0.21705367
0.21518121
0.21332952
0.21316875
0.2150245
0.21689864
0.21876571
0.2206109
0.22076867
0.22085868
0.22268753
0.22449294
0.22628201
0.2261622
0.22438309
0.22258829
0.2224278
0.22422095
0.22599838
0.22729859
0.22743769
0.22754092
0.22571919
0.22577186
0.22392396
0.22205237
0.22014913
0.21821099
0.21624773
0.21430066
0.21533355
0.21740416
0.21748766
0.21625957
0.21432221
0.21543458
0.21628128
0.21611514
0.21832571
0.21814938
0.21848598
0.2184923
0.22070337
0.22054725
0.21948098
0.22151688
0.22155924
0.22013685
0.21821371
0.21955116
0.2195499
0.21815721
0.21621717
0.21428556
0.21544835
0.21750605
0.21748495
0.21610771
0.21417952
0.2154352
0.21650834
0.21640985
0.21861648
0.21884597
0.21916143
0.21871723
0.2209097
0.22081501
0.22295748
0.22285968
0.22271507
0.22284236
0.22051999
0.22086006
0.22317801
0.22350583
0.2212083
0.22152622
0.22383398
0.22304651
0.22152855
0.22156097
0.22007392
0.21995508
0.21804965
0.21953534
0.21942455
0.21788723
0.21673499
0.21487303
0.21302932
0.21282508
0.21468232
0.21655902
0.218421
0.21859969
0.22044038
0.2222534
0.22206076
0.22025646
0.22004225
0.21821428
0.21636141
0.21449708
0.21264922
0.21240678
0.21426233
0.21613322
0.21799325
0.21983321
0.22164331
0.22185135
0.22363759
0.22385071
0.22404444
0.22581865
0.2256226
0.22540806
0.22519443
0.22342839
0.22472193
0.22493874
0.22513777
0.22532491
0.22549201
0.22562494
0.22379856
0.22388337
0.22202595
0.22353327
0.22351113
0.22546477
0.22547508
0.22739546
0.22739443
0.22897425
0.22691398
0.22483293
0.22514513
0.22741485
0.22768776
0.22701877
0.22495749
0.22545036
0.22577495
0.2250508
0.22352081
0.22195235
0.22182961
0.22367215
0.22539359
0.22544792
0.22735552
0.22925093
0.2292996
0.2310996
0.22906704
0.22992632
0.22966893
0.22828493
0.22783305
0.22763875
0.22511035
0.2225696
0.22001289
0.21743792
0.21485856
0.21231037
0.2098277
0.20202413
0.20233729
0.2099278
0.21040048
0.20314206
0.20437553
0.21104775
0.21174698
0.20568162
0.20720131
0.21252434
0.21318551
0.20847698
0.20952806
0.21372379
0.21407343
0.21016907
0.21072591
0.21430204
0.21449021
0.21112286
0.2114908
0.2146127
0.21465297
0.21159592
0.21174356
0.21468416
0.21733166
0.2172795
0.21723174
0.21711396
0.216913
0.2166961
0.21633306
0.2158004
0.21515016
0.21436792
0.21365808
0.21299595
0.2124664
0.21507673
0.20807047
0.20755706
0.20476709
0.20518379
0.1920133
0.1910798
0.18821935
0.1672975
0.16891281
0.18901406
0.19052976
0.17183106
0.17515964
0.19258127
0.19491404
0.17931901
0.18345843
0.19749875
0.1998687
0.18747863
0.19025008
0.20160888
0.20266972
0.19220749
0.19336901
0.20350412
0.20431369
0.19451967
0.19498802
0.20476676
0.20498365
0.19546311
0.19550615
0.2051584
0.2085481
0.20835419
0.20811892
0.20766894
0.20684401
0.20600174
0.20493016
0.2031903
0.20083417
0.19823135
0.19585223
0.1937148
0.20609126
0.20908598
0.21563668
0.21631319
0.21036959
0.20737211
0.20871016
0.21174808
0.21703094
0.21781011
0.21323591
0.21022427
0.21149183
0.21452253
0.21846052
0.21944479
0.21878536
0.21739175
0.21595766
0.2140319
0.21534817
0.21519861
0.21383628
0.21577734
0.2172602
0.21930952
0.21772552
0.21963217
0.21980147
0.22142261
0.22130135
0.22305253
0.22308129
0.22096623
0.22180332
0.22411285
0.22426878
0.22198683
0.22094646
0.21877766
0.21658829
0.21659773
0.21648944
0.21505655
0.21365602
0.215595
0.21711996
0.21694847
0.21539721
0.21347252
0.21490271
0.2163772
0.21858528
0.21869882
0.21971502
0.21964898
0.21898136
0.21552171
0.21252516
0.21318066
0.21621935
0.21934923
0.21956335
0.21973295
0.22209088
0.22207344
0.22088803
0.21917168
0.21753943
0.21944083
0.22115817
0.22096601
0.21922306
0.21733036
0.21899097
0.22077828
0.22289396
0.22300583
0.22437301
0.22439296
0.22664819
0.22662206
0.22652309
0.22636691
0.22609695
0.22512937
0.22348017
0.2233726
0.22167241
0.22351015
0.2252845
0.22513783
0.22332704
0.22149631
0.22323904
0.22512393
0.22515983
0.22719753
0.22717882
0.22710921
0.22801668
0.22833021
0.23055016
0.23024607
0.22914906
0.23117723
0.23246794
0.23215802
0.23438721
0.23415612
0.23398126
0.23393758
0.23298509
0.23118936
0.2294622
0.23129744
0.2331075
0.23311666
0.2312843
0.23000961
0.22822221
0.22945678
0.23120714
0.23300303
0.23505462
0.2350429
0.23620285
0.23623991
0.23849949
0.23846937
0.23709778
0.23502311
0.23313192
0.23497026
0.23694098
0.23694008
0.23494737
0.2335951
0.23179944
0.23311377
0.23502764
0.23710666
0.23915979
0.23915519
0.24074065
0.24076557
0.24303979
0.2430218
0.24121836
0.2388655
0.23681728
0.23867592
0.24079968
0.24079113
0.23864642
0.23722262
0.23540208
0.23679105
0.23886104
0.24122028
0.24328944
0.24329068
0.24531373
0.24532709
0.24762838
0.24761925
0.24537494
0.24274675
0.24054937
0.24243969
0.24470819
0.24469378
0.24240558
0.24091659
0.23906023
0.24051758
0.24273535
0.24537149
0.24746591
0.24747166
0.24993977
0.24994351
0.25001826
0.24746422
0.24465624
0.24233975
0.24083004
0.23897597
0.23714127
0.23532377
0.23352079
0.23172929
0.22994529
0.2281641
0.22806119
0.2298375
0.23161716
0.23340494
0.23325982
0.23147718
0.22970358
0.22793438
0.22776713
0.22953414
0.23130527
0.23308538
0.23487784
0.23505581
0.23520485
0.23701926
0.23885113
0.24070273
0.2405433
0.23869501
0.23686669
0.23668566
0.23851141
0.24035733
0.2419022
0.24208205
0.24223006
0.24034918
0.24045471
0.23858757
0.23673614
0.23489766
0.23306933
0.23124727
0.22942753
0.23121107
0.23311382
0.23308454
0.2311673
0.22935589
0.23119443
0.23313235
0.23306667
0.23510974
0.23640173
0.23661894
0.23516294
0.23719455
0.23715098
0.23501789
0.23692426
0.2368763
0.23480562
0.23298329
0.23497877
0.23490254
0.23285824
0.23104987
0.22924535
0.23113671
0.23301932
0.2329182
0.23090056
0.22910075
0.23104571
0.22917157
0.22729048
0.2292118
0.23122814
0.23276494
0.23497646
0.23468715
0.23319982
0.23521686
0.23690715
0.23718704
0.23524103
0.23323715
0.23321398
0.23091344
0.22892376
0.22758422
0.22934839
0.22914415
0.22738462
0.22716932
0.22892908
0.22871028
0.22695387
0.2283032
0.22852392
0.22872975
0.22693872
0.22712876
0.22904681
0.22717338
0.22702523
0.22889714
0.23116032
0.23121813
0.22921531
0.23079092
0.22859014
0.22874677
0.22715566
0.22916673
0.23095852
0.2331558
0.2329948
0.23519391
0.2373943
0.23521425
0.2327831
0.23072176
0.23052275
0.23262135
0.23076127
0.23315344
0.23514302
0.2375306
0.23534571
0.23540917
0.23306319
0.23058161
0.22872611
0.22673598
0.2265173
0.22852987
0.22667027
0.22686337
0.22498651
0.22313073
0.22130188
0.2230907
0.22289934
0.22108614
0.22291615
0.22479698
0.22696512
0.22708374
0.22506508
0.22495052
0.22481385
0.22269558
0.22087024
0.21961478
0.21778583
0.21593273
0.21406882
0.21222158
0.21198671
0.21384579
0.21571936
0.21758144
0.21739967
0.21554333
0.21367647
0.21182568
0.21162281
0.21348418
0.21535955
0.21722368
0.21906231
0.21923754
0.21942193
0.22123142
0.22142427
0.22320948
0.22497841
0.22478114
0.22301587
0.22282423
0.22104468
0.22087231
0.22265939
0.22442802
0.22459273
0.22594225
0.22610681
0.22629983
0.22450774
0.22270117
0.22459393
0.22443968
0.22251
0.22068374
0.21882631
0.219015
0.21712242
0.21519526
0.21327027
0.21469557
0.2167579
0.21659341
0.21499901
0.21307197
0.21454192
0.21610769
0.21625263
0.21846998
0.21974975
0.21970634
0.21832445
0.22051442
0.2206551
0.21879632
0.22077401
0.22061434
0.21863653
0.21693134
0.21675556
0.2148242
0.21289396
0.21436453
0.2164317
0.21632543
0.21467204
0.21273595
0.21426435
0.21593344
0.21601412
0.2182394
0.21971763
0.21968387
0.218172
0.2203804
0.22043896
0.21848372
0.2204818
0.21865974
0.2185168
0.2166154
0.21838953
0.2203873
0.22252187
0.22256778
0.22263569
0.2227657
0.22438202
0.22210356
0.22207334
0.22437655
0.22439272
0.22209504
0.22208359
0.22441873
0.22670105
0.2266581
0.22662795
0.22662745
0.22884079
0.22886608
0.22884436
0.2310454
0.2290906
0.23108178
0.23323327
0.2332392
0.2309477
0.22896577
0.23106131
0.23103847
0.22882823
0.22647033
0.22833225
0.22817143
0.22631504
0.22431718
0.22415214
0.22234729
0.22052066
0.22241839
0.22254695
0.22469751
0.22672175
0.22683587
0.22884728
0.23104934
0.22872383
0.23070883
0.23081578
0.23322391
0.23323372
0.23325602
0.23064509
0.22804039
0.22618646
0.22431599
0.224229
0.22220905
0.22038089
0.22232915
0.22459989
0.22463991
0.22666587
0.22888086
0.22894847
0.22663858
0.22865234
0.22866687
0.23108011
0.23117721
0.2333854
0.23065089
0.22797098
0.22581005
0.22401871
0.22611
0.2260368
0.22389108
0.22248914
0.22070737
0.2189019
0.21706821
0.21520951
0.21333824
0.21148284
0.20967729
0.20943646
0.20910602
0.20877109
0.20965725
0.21009264
0.21044572
0.2106587
0.21208761
0.21185805
0.21335002
0.21365536
0.21479543
0.21441784
0.21352603
0.21278127
0.21144801
0.21090258
0.21201104
0.21239359
0.21089237
0.21103887
0.21022141
0.20915632
0.20832882
0.20786333
0.20731152
0.20679091
0.20732164
0.2079607
0.20858482
0.20952438
0.2100786
0.20957589
0.20849379
0.20918708
0.20875608
0.20804386
0.20844172
0.2080154
0.20764225
0.20777165
0.2073225
0.20671008
0.20623566
0.20573252
0.2051989
0.2047473
0.20495949
0.20551051
0.20611333
0.20666338
0.20711481
0.20734186
0.20681108
0.20642261
0.20595894
0.20535675