/*--------------------------------*- C++ -*----------------------------------*\
| =========                 |                                                 |
| \\      /  F ield         | OpenFOAM: The Open Source CFD Toolbox           |
|  \\    /   O peration     | Version:  v2012                                 |
|   \\  /    A nd           | Website:  www.openfoam.com                      |
|    \\/     M anipulation  |                                                 |
\*---------------------------------------------------------------------------*/
FoamFile
{
    version     2.0;
    format      ascii;
    class       volScalarField;
    location    "145";
    object      nut;
}
// * * * * * * * * * * * * * * * * * * * * * * * * * * * * * * * * * * * * * //

dimensions      [0 2 -1 0 0 0 0];


internalField   nonuniform List<scalar> 
11751
(
0.010543281
0.010512169
0.010480489
0.010447343
0.01041255
0.010375967
0.010337588
0.010297429
0.010255529
0.010211913
0.0101666
0.010119598
0.010070899
0.010020446
0.0099682183
0.0099141829
0.0098583557
0.0098014081
0.0097431667
0.009683596
0.0096223857
0.0095591979
0.0094950526
0.009429632
0.0093621307
0.0092933033
0.0092214601
0.0091466781
0.0090698735
0.008982872
0.0088966009
0.0089426165
0.009455877
0.010064109
0.010914876
0.011949733
0.013085121
0.014223919
0.015056962
0.015657724
0.016098807
0.016441596
0.016580908
0.01667531
0.016562375
0.016418737
0.015820712
0.014873199
0.013206066
0.011239503
0.0093958064
0.0094131787
0.011718592
0.015576724
0.020462007
0.024578898
0.027332352
0.028821854
0.029546564
0.029859267
0.029867463
0.029905032
0.029962166
0.030017108
0.030042695
0.03004114
0.030021521
0.029991618
0.029974328
0.029975868
0.030009329
0.029985617
0.030000007
0.030037751
0.030086951
0.030132319
0.030171756
0.030206137
0.030238109
0.030272568
0.03030697
0.030341403
0.030371314
0.030397898
0.030417853
0.030427289
0.030439631
0.030450471
0.030465707
0.030478749
0.030494809
0.030506613
0.030517983
0.030524
0.030526814
0.03051964
0.030508644
0.030497796
0.030499596
0.030527632
0.030491823
0.030446008
0.030269691
0.029809206
0.028760797
0.026752851
0.023724541
0.019663369
0.015419307
0.011472639
0.011564909
0.01540532
0.01963715
0.023585391
0.026681307
0.028730952
0.029784941
0.030251617
0.030426189
0.030480426
0.030487057
0.030442401
0.030270082
0.029793485
0.028731107
0.026622917
0.023501283
0.01962381
0.015504015
0.011857759
0.012335881
0.015777037
0.019715781
0.023509571
0.026622794
0.02876455
0.029823591
0.030292263
0.03046581
0.030504034
0.030509354
0.03048201
0.03032103
0.029860528
0.028820883
0.026695081
0.023641098
0.019957349
0.016187606
0.012966326
0.01374977
0.01675362
0.020325795
0.023867552
0.026827971
0.0288977
0.029902221
0.03034202
0.030494861
0.03052228
0.03051557
0.030499128
0.030366154
0.029950862
0.028990834
0.027003229
0.024159691
0.020771499
0.017398455
0.014669805
0.015578733
0.018084683
0.021232918
0.024457181
0.02718695
0.029090822
0.030005294
0.03038435
0.030501626
0.030516117
0.030502593
0.030494075
0.030392308
0.030050177
0.02918815
0.027363024
0.024731277
0.021646226
0.018691522
0.016363685
0.016921629
0.019184964
0.021980598
0.024961449
0.027521416
0.02926967
0.030082711
0.030404238
0.030491922
0.030498139
0.030480658
0.030490381
0.030417011
0.030116924
0.029349094
0.027672901
0.025185557
0.022254501
0.019526548
0.017346257
0.017631668
0.019798749
0.022500578
0.025384059
0.027812083
0.029420537
0.030144278
0.030417349
0.030485671
0.030474753
0.030455756
0.030476413
0.030421646
0.03016197
0.029473101
0.027923386
0.025548978
0.022679861
0.019963047
0.0178119
0.017870304
0.020065773
0.022780123
0.025631317
0.027977393
0.029494839
0.030165276
0.030411758
0.030466792
0.030450078
0.030433068
0.030451488
0.03039741
0.030137954
0.029451097
0.027930327
0.025594241
0.022753023
0.020029477
0.017829289
0.017633038
0.019802161
0.022490828
0.025306188
0.027692603
0.029294574
0.030053151
0.030350468
0.030425715
0.030426462
0.030397593
0.030383179
0.030262873
0.029867517
0.028952264
0.027131019
0.024593727
0.021778549
0.019190308
0.017064951
0.016032656
0.018058996
0.020531873
0.023383789
0.026202643
0.028394179
0.029574529
0.030119378
0.03030989
0.030355002
0.030314468
0.030227122
0.029951343
0.029224037
0.027718382
0.025031531
0.021821532
0.01887555
0.016450593
0.014444601
0.012570983
0.014646364
0.017182424
0.020297123
0.023908356
0.027091412
0.028903821
0.029793997
0.030149861
0.030266796
0.03022901
0.030095931
0.02970757
0.028735289
0.026752122
0.02327086
0.019375673
0.016011473
0.013198024
0.010939022
0.010895758
0.013191702
0.016099172
0.019614144
0.023509221
0.026888005
0.02879392
0.029708336
0.030071642
0.030193533
0.030172766
0.03007675
0.029797276
0.029066539
0.027509935
0.024691153
0.021257076
0.017864002
0.015041916
0.012943315
0.016638483
0.018558018
0.021049682
0.023780691
0.026342745
0.028344478
0.029420676
0.029910108
0.030091599
0.030147347
0.030120453
0.030095173
0.030004279
0.029725444
0.029096669
0.027872727
0.026238678
0.024402408
0.022636823
0.021238042
0.025062936
0.025931888
0.026990191
0.028051993
0.028955743
0.029598039
0.029910546
0.030038112
0.030071709
0.03007646
0.030032954
0.030033883
0.030037165
0.029994546
0.029875111
0.02958221
0.029147318
0.028603786
0.028037158
0.027568016
0.028936777
0.029160517
0.0294345
0.029683374
0.029869527
0.029980603
0.030013325
0.030009014
0.029995495
0.029989447
0.029970857
0.029974961
0.029989681
0.03001156
0.030015675
0.029986509
0.029916776
0.029803606
0.029680259
0.029582694
0.029710476
0.029662813
0.029801348
0.029936268
0.030063119
0.030181601
0.030292101
0.030394677
0.030490139
0.030579249
0.030663171
0.030742812
0.030818785
0.030891622
0.030961761
0.031029533
0.031095256
0.031159157
0.031221397
0.031282105
0.031341387
0.031399331
0.031456012
0.031511487
0.031565797
0.031618982
0.031671076
0.031722102
0.031772072
0.031820959
0.031868677
0.031915039
0.031959725
0.032002333
0.032042545
0.032016086
0.031978257
0.031940433
0.031902708
0.031865138
0.031827751
0.031790554
0.031753535
0.031716671
0.03167992
0.031643227
0.03160652
0.031569702
0.031532656
0.031495229
0.031457235
0.031418437
0.031378551
0.03133722
0.031294016
0.031248406
0.031199749
0.031147294
0.031090177
0.031027668
0.030958745
0.030883465
0.030800483
0.030710512
0.030614317
0.030585494
0.030689637
0.030786733
0.030875761
0.030956827
0.031030763
0.031097937
0.031159267
0.031215571
0.031267747
0.031316547
0.031362655
0.031406608
0.031448873
0.031489816
0.03152975
0.031568923
0.03160754
0.031645763
0.031683727
0.031721536
0.031759271
0.031796999
0.031834767
0.03187261
0.031910548
0.031948582
0.031986694
0.032024835
0.032062922
0.032161547
0.032121978
0.032082164
0.032042179
0.032002062
0.031961819
0.031921438
0.03188089
0.031840133
0.031799111
0.031757755
0.031715977
0.031673673
0.031630705
0.031586911
0.031542082
0.031495976
0.03144828
0.031398637
0.031346582
0.031291592
0.03123299
0.031170047
0.031101869
0.031027623
0.030946468
0.030857962
0.030761671
0.03065738
0.030546488
0.030376088
0.030499119
0.030616535
0.030726266
0.030828367
0.030923093
0.031010794
0.031092235
0.031168234
0.031239661
0.031307241
0.031371629
0.031433336
0.031492807
0.03155038
0.031606352
0.031660957
0.031714369
0.031766762
0.031818262
0.031868967
0.031918954
0.031968283
0.032017007
0.032065165
0.032112787
0.032159887
0.032206453
0.032252458
0.032297829
0.032384838
0.032322985
0.032260004
0.032195993
0.032131009
0.03206509
0.031998249
0.031930489
0.031861805
0.031792181
0.031721592
0.031649992
0.031577326
0.031503498
0.031428382
0.031351846
0.031273706
0.031193732
0.031111628
0.031027028
0.030939463
0.030848359
0.030753021
0.030652689
0.030546595
0.030434217
0.030315426
0.030190509
0.03005987
0.029926253
0.028881136
0.029027163
0.029173792
0.029316897
0.029455611
0.029589336
0.029717925
0.029841771
0.029961565
0.030077975
0.030191704
0.030303257
0.030413085
0.03052152
0.030628825
0.030735169
0.030840713
0.030945571
0.03104984
0.031153489
0.03125658
0.031359137
0.031461141
0.031562559
0.031663345
0.031763438
0.031862766
0.03196123
0.032058704
0.032155052
0.031040023
0.030895184
0.030750679
0.030606645
0.03046319
0.030320422
0.030178464
0.030037377
0.029897211
0.029757974
0.029619705
0.029482362
0.029345906
0.029210308
0.029075486
0.028941282
0.028807523
0.028674074
0.028540684
0.028406976
0.028272512
0.02813681
0.027999119
0.027858941
0.027715642
0.027568961
0.027419044
0.027266149
0.027109685
0.026938925
0.023904194
0.024072658
0.024227227
0.024377111
0.024524381
0.024669355
0.024811794
0.02495191
0.025090386
0.025227694
0.025364551
0.02550155
0.025639216
0.025777848
0.025917815
0.026059318
0.026202601
0.026347793
0.026495102
0.026644626
0.026796503
0.026950748
0.027107412
0.027266582
0.027428267
0.027592561
0.027759367
0.027928708
0.028100703
0.028275633
0.02360191
0.023457901
0.023316504
0.023177308
0.02303999
0.022904396
0.022770635
0.022638625
0.022508404
0.022380017
0.02225345
0.022128859
0.022006064
0.021884881
0.021765157
0.021646813
0.021529683
0.021413469
0.02129791
0.021182766
0.021067621
0.020951762
0.020834489
0.020715313
0.020593927
0.020470397
0.020345508
0.020219076
0.020088098
0.019929705
0.015542314
0.015652165
0.015752374
0.015851444
0.015949848
0.016046547
0.016141274
0.016233862
0.016324415
0.016413399
0.016501745
0.016588554
0.016675062
0.016761545
0.016847993
0.016934247
0.017020545
0.017107236
0.01719396
0.017280773
0.017367671
0.017454555
0.017541328
0.017627882
0.017713939
0.017799313
0.017883919
0.017967222
0.018049698
0.018131964
0.031821714
0.031778599
0.03173552
0.031692476
0.031649487
0.031606587
0.031563817
0.031521215
0.031478817
0.031436647
0.031394726
0.031353061
0.031311653
0.031270489
0.031229543
0.031188778
0.031148132
0.03110753
0.031066858
0.031025976
0.030984699
0.030942796
0.03089997
0.03085586
0.030810005
0.030761858
0.030710713
0.0306558
0.030596155
0.030531022
0.030459237
0.030380946
0.030294541
0.03020084
0.030100368
0.030081451
0.030095795
0.030133019
0.03017801
0.030222115
0.030259767
0.030294358
0.03032648
0.030361336
0.030395815
0.030430289
0.030459726
0.030485623
0.03050457
0.03051442
0.030526711
0.030537175
0.030551942
0.030564499
0.030580207
0.030591671
0.030602958
0.030609179
0.030613583
0.030607476
0.030599728
0.030589249
0.030590259
0.0306905
0.03068961
0.030698181
0.030703823
0.030708058
0.030703108
0.030696254
0.030685512
0.03067392
0.03065906
0.030646568
0.030632753
0.030622239
0.0306105
0.030600233
0.030581915
0.030557247
0.030527909
0.030493851
0.030458927
0.030424081
0.030391158
0.030356591
0.030319392
0.030277272
0.03023511
0.030200755
0.030186668
0.030283962
0.030298155
0.030329677
0.030369254
0.030409365
0.030446389
0.030481113
0.030514801
0.030549755
0.030584983
0.03061861
0.030647666
0.030671227
0.030688846
0.030699391
0.030710505
0.030721152
0.030734077
0.030746572
0.030760607
0.030772403
0.030782663
0.03079019
0.030795491
0.030793225
0.030789421
0.03078301
0.030784163
0.030869607
0.030868247
0.03087277
0.030874926
0.030875378
0.030869721
0.03086169
0.030851572
0.030839573
0.030826277
0.030813754
0.030801599
0.0307908
0.030780257
0.030769528
0.030752467
0.030730023
0.030701265
0.030668168
0.030632668
0.030597629
0.0305632
0.030528367
0.030491403
0.030453107
0.030415811
0.030386961
0.030373125
0.03045378
0.03046759
0.030494166
0.030529429
0.030566169
0.030603017
0.030637999
0.030673022
0.030708174
0.030743806
0.030776407
0.030804779
0.030826253
0.030842706
0.03085356
0.030863777
0.030874549
0.030886095
0.030898619
0.030911323
0.030923576
0.030933759
0.0309421
0.03094825
0.03094928
0.030948605
0.03094579
0.030947464
0.031018069
0.031016118
0.031017446
0.031016786
0.031014642
0.031007812
0.030999126
0.030988659
0.030976475
0.03096415
0.030951715
0.030940532
0.03093
0.030919909
0.030908959
0.030893211
0.030872517
0.030844721
0.030812518
0.030776948
0.030741607
0.030706188
0.030670917
0.03063432
0.030598846
0.030565479
0.03054084
0.030527625
0.03059438
0.03060707
0.030630219
0.030661738
0.030696285
0.03073262
0.030768166
0.030803773
0.030839399
0.030874701
0.030906628
0.030933847
0.030953868
0.030968947
0.030979922
0.030989756
0.031000321
0.031011319
0.031023613
0.031035711
0.031047732
0.031058464
0.031067458
0.03107473
0.031078056
0.031079906
0.031079915
0.031082225
0.031140525
0.031137985
0.03113686
0.031133969
0.03112955
0.031121881
0.03111261
0.031101743
0.031089743
0.031077647
0.03106559
0.031054622
0.03104415
0.031034516
0.03102362
0.031009078
0.030989637
0.030963028
0.030931441
0.0308964
0.030860584
0.030824783
0.030788989
0.030752924
0.030719151
0.030689267
0.03066744
0.03065538
0.030711335
0.030723054
0.030743654
0.030772176
0.03080517
0.030840987
0.030876993
0.030913013
0.030948919
0.030983726
0.031014871
0.031040885
0.031059776
0.031073925
0.031084664
0.031094198
0.031104524
0.031115477
0.031127355
0.031139464
0.031151476
0.031162469
0.03117201
0.031180115
0.03118541
0.031189243
0.031191261
0.031194063
0.031243531
0.031240581
0.031237813
0.031233215
0.031227152
0.031218664
0.031208848
0.03119765
0.031185685
0.03117355
0.031161816
0.031150854
0.031140639
0.031131089
0.031120495
0.031106787
0.031088338
0.031062978
0.031032282
0.030997663
0.030961789
0.030925517
0.030889351
0.030853859
0.030821555
0.030794231
0.030774605
0.03076337
0.030812146
0.030823002
0.030841796
0.030868056
0.03089973
0.030934898
0.030971189
0.031007666
0.031043469
0.031077882
0.031108112
0.031132829
0.031150863
0.031164197
0.031174653
0.031184221
0.031194373
0.031205341
0.031217002
0.031229157
0.031241115
0.031252482
0.031262547
0.031271359
0.031278081
0.031283306
0.031286721
0.031289853
0.031333581
0.031330339
0.031326404
0.031320661
0.031313383
0.031304274
0.031293976
0.031282452
0.031270487
0.031258298
0.031246679
0.031235687
0.031225578
0.031215988
0.031205694
0.031192665
0.031175021
0.031150908
0.031121097
0.031086999
0.031051213
0.031014676
0.030978303
0.030943427
0.030912346
0.030887028
0.03086898
0.030858524
0.030902989
0.030913113
0.030930491
0.030954964
0.030985481
0.031020058
0.031056423
0.031092978
0.031128711
0.031162479
0.031191884
0.031215451
0.031232703
0.031245458
0.031255621
0.031265233
0.031275331
0.031286359
0.031297964
0.031310195
0.031322174
0.031333837
0.031344341
0.031353736
0.031361454
0.031367625
0.031371988
0.031375353
0.031415558
0.031412115
0.031407413
0.031400889
0.03139283
0.031383162
0.031372449
0.031360706
0.031348655
0.031336428
0.031324774
0.031313748
0.031303619
0.031294003
0.031283925
0.031271405
0.031254556
0.031231476
0.031202473
0.031169032
0.031133408
0.031096844
0.031060539
0.031026269
0.030996355
0.030972635
0.030955872
0.030946088
0.030988156
0.030997641
0.031013843
0.031036868
0.031066165
0.031100097
0.031136281
0.0311728
0.031208299
0.031241419
0.031270017
0.031292613
0.031309118
0.031321418
0.031331453
0.031341087
0.031351257
0.03136229
0.031374002
0.03138623
0.031398353
0.031410164
0.03142106
0.031430941
0.031439305
0.031446116
0.031451093
0.031454616
0.031492794
0.031489223
0.031484034
0.031476988
0.031468367
0.031458311
0.031447261
0.031435387
0.031423199
0.031410962
0.031399203
0.031388141
0.031377923
0.031368262
0.03135825
0.031346135
0.031329936
0.031307795
0.031279605
0.031246792
0.031211441
0.031174994
0.031138993
0.031105462
0.031076769
0.031054387
0.031038727
0.031029542
0.031070472
0.031079385
0.031094526
0.031116294
0.031144386
0.031177471
0.031213233
0.031249562
0.031284741
0.031317259
0.031345048
0.031366768
0.031382696
0.031394671
0.031404664
0.03141436
0.031424632
0.031435736
0.03144753
0.031459787
0.031472023
0.03148396
0.031495133
0.031505343
0.031514168
0.031521405
0.031526752
0.031530369
0.031567519
0.031563877
0.03155841
0.031551027
0.031542035
0.031531697
0.031520419
0.03150843
0.031496153
0.031483879
0.031472049
0.031460897
0.03145058
0.031440831
0.031430838
0.031418983
0.031403292
0.031381946
0.031354541
0.031322325
0.031287335
0.031251186
0.031215706
0.031183104
0.031155612
0.031134457
0.031119808
0.031111153
0.03115173
0.031160138
0.03117432
0.031194876
0.031221754
0.031253838
0.031288988
0.031324914
0.031359693
0.031391609
0.031418648
0.031439657
0.031455143
0.031466908
0.031476921
0.031486731
0.031497092
0.031508289
0.031520146
0.031532432
0.031544742
0.031556772
0.031568137
0.03157858
0.031587706
0.031595199
0.031600753
0.031604418
0.031641185
0.031637512
0.031631899
0.031624323
0.031615091
0.031604563
0.031593128
0.031581067
0.031568733
0.031556441
0.031544559
0.031533332
0.031522917
0.031513053
0.031503004
0.031491296
0.031475983
0.03145528
0.031428589
0.03139697
0.031362422
0.031326756
0.031291986
0.031260451
0.031234198
0.031214228
0.031200493
0.03119233
0.031233034
0.031240961
0.031254268
0.031273662
0.03129928
0.031330236
0.03136458
0.031399951
0.031434251
0.031465578
0.031491935
0.031512363
0.031527535
0.031539215
0.03154931
0.03155923
0.031569696
0.031580948
0.031592847
0.031605142
0.031617487
0.031629568
0.031641056
0.031651654
0.031660967
0.031668602
0.031674252
0.031677927
0.031714714
0.03171105
0.031705382
0.031697707
0.031688335
0.031677681
0.031666154
0.031654062
0.03164172
0.031629428
0.031617519
0.031606248
0.031595738
0.031585754
0.031575602
0.031563925
0.031548872
0.031528686
0.031502644
0.031471608
0.03143758
0.031402534
0.031368655
0.031338302
0.031313333
0.031294503
0.031281606
0.031273909
0.031314997
0.031322474
0.031334978
0.031353252
0.031377568
0.031407293
0.031440674
0.031475364
0.031509103
0.031539846
0.031565592
0.031585562
0.031600523
0.031612216
0.031622432
0.031632479
0.031643034
0.031654319
0.031666229
0.031678508
0.031690841
0.031702933
0.031714483
0.031725177
0.031734594
0.031742295
0.031747965
0.031751612
0.03178866
0.031785037
0.031779378
0.031771667
0.031762217
0.031751497
0.031739936
0.031727854
0.031715538
0.031703281
0.031691378
0.031680082
0.031669485
0.031659375
0.031649088
0.031637365
0.031622473
0.031602697
0.031577229
0.031546783
0.031513351
0.031479043
0.031446191
0.031417113
0.03139345
0.03137572
0.031363594
0.031356328
0.031397915
0.03140498
0.031416745
0.031433945
0.031456959
0.031485375
0.031517672
0.031551573
0.031584679
0.031614824
0.031640025
0.031659632
0.031674472
0.03168624
0.031696601
0.031706774
0.031717411
0.031728713
0.031740602
0.031752832
0.031765121
0.031777182
0.031788744
0.031799479
0.031808948
0.031816658
0.031822294
0.031825885
0.031863299
0.031859748
0.031854146
0.031846445
0.031836969
0.031826228
0.031814678
0.031802644
0.031790391
0.031778192
0.031766323
0.031755016
0.031744346
0.031734108
0.031723669
0.031711852
0.031697045
0.031677594
0.031652649
0.031622813
0.031590051
0.031556586
0.031524864
0.031497116
0.031474744
0.031458057
0.031446635
0.031439761
0.031481859
0.031488555
0.031499649
0.031515842
0.031537583
0.031564662
0.031595791
0.031628795
0.031661192
0.031690708
0.0317154
0.031734706
0.031749491
0.031761362
0.031771881
0.031782182
0.031792885
0.031804193
0.031816039
0.031828202
0.031840414
0.031852412
0.03186394
0.031874676
0.03188415
0.031891833
0.031897392
0.031900897
0.031938652
0.0319352
0.031929691
0.031922035
0.03191257
0.031901849
0.03189035
0.031878396
0.03186623
0.031854107
0.031842285
0.031830977
0.031820243
0.03180988
0.031799283
0.031787356
0.03177259
0.031753427
0.031728992
0.03169981
0.0316678
0.031635285
0.031604763
0.031578351
0.031557224
0.031541506
0.03153072
0.031524191
0.03156673
0.031573105
0.0315836
0.031598865
0.031619397
0.031645147
0.031675046
0.031707044
0.031738641
0.031767466
0.031791629
0.031810643
0.031825387
0.031837367
0.031848039
0.031858463
0.031869228
0.031880537
0.031892332
0.031904415
0.03191653
0.031928436
0.031939897
0.031950595
0.031960043
0.031967665
0.031973117
0.031976508
0.032014374
0.032011052
0.032005664
0.031998082
0.031988657
0.03197799
0.031966574
0.031954722
0.03194266
0.031930619
0.031918847
0.031907537
0.031896741
0.031886257
0.031875516
0.03186349
0.031848781
0.031829932
0.031806067
0.031777635
0.031746488
0.031715037
0.031685775
0.031660684
0.031640729
0.031625896
0.031615674
0.031609444
0.031652291
0.031658387
0.03166835
0.031682768
0.031702162
0.031726598
0.031755202
0.031786065
0.031816711
0.031844699
0.031883227
0.031855759
0.031825684
0.031795465
0.031767549
0.031743773
0.031724931
0.031710914
0.0317012
0.031695232
0.031738229
0.031744073
0.031753543
0.031767165
0.031785455
0.031808554
0.031835735
0.03186523
0.031894634
0.031921478
0.031959259
0.031933177
0.031904578
0.031875916
0.031849539
0.031827151
0.031809425
0.031796203
0.031786978
0.03178126
0.031824325
0.031829913
0.031838884
0.031851691
0.031868825
0.03189045
0.031915929
0.031943619
0.031971242
0.031996383
0.032061314
0.032023199
0.031985031
0.031946896
0.031908842
0.031870886
0.031833025
0.03179524
0.031757495
0.031719741
0.03168191
0.031643918
0.031605657
0.031566988
0.031527751
0.031487728
0.031446677
0.031404264
0.031360138
0.031313798
0.031264733
0.031212206
0.031155525
0.031093727
0.031026032
0.030951451
0.030869534
0.03077952
0.03068143
0.03057624
0.03058342
0.030544636
0.030528701
0.030361039
0.030376836
0.02990198
0.029899484
0.028853311
0.028849147
0.028877818
0.029927038
0.030395469
0.030564977
0.030597666
0.030601966
0.030612944
0.030605821
0.03059521
0.030590871
0.030579691
0.030421507
0.029960502
0.028931043
0.029007852
0.030001224
0.030442386
0.030465421
0.030049745
0.029100854
0.029202116
0.030105044
0.030483271
0.030596601
0.030605015
0.030592856
0.030587798
0.030571556
0.030587674
0.03058859
0.030590137
0.030492757
0.030150841
0.029301896
0.029384577
0.030186115
0.030506112
0.030519135
0.030221722
0.029466379
0.029541005
0.030251767
0.03052102
0.030582621
0.03056501
0.030547617
0.030541557
0.030525294
0.030551175
0.030565129
0.030574632
0.030526124
0.030270997
0.029595552
0.029620522
0.030276555
0.030517544
0.030503561
0.030249687
0.029577227
0.029725655
0.029768637
0.029739436
0.029683456
0.029604792
0.029521374
0.029435292
0.029334853
0.0292325
0.029139583
0.029062059
0.029013441
0.028989252
0.028999017
0.030032939
0.030485103
0.030642212
0.030748816
0.03060346
0.030611386
0.030759688
0.030784443
0.030688005
0.03065621
0.030497389
0.030030944
0.030157368
0.030164084
0.029144394
0.029130348
0.029268493
0.029286692
0.030289509
0.030714163
0.03084729
0.030937359
0.030817186
0.030819964
0.030943933
0.030954079
0.030873572
0.030856309
0.030719961
0.030280191
0.030397398
0.030409356
0.029424694
0.029403452
0.029533306
0.029557869
0.030522595
0.030912663
0.03101983
0.03109505
0.031001015
0.030999722
0.03109791
0.03109426
0.031027727
0.031024659
0.030913688
0.030508819
0.03061375
0.030629643
0.029685852
0.029658622
0.029779276
0.029809345
0.030730773
0.031083069
0.031164149
0.03122782
0.031159648
0.031155382
0.03122811
0.031211301
0.031155385
0.031165741
0.031080378
0.030713546
0.030808423
0.030826982
0.029928764
0.029896437
0.029887378
0.030802653
0.031154421
0.03122903
0.031210572
0.031155676
0.031096089
0.031030965
0.030959342
0.030880539
0.030793928
0.030699498
0.030702397
0.030795932
0.030881515
0.03095942
0.030961175
0.030885346
0.03080215
0.030711338
0.030704139
0.030795511
0.03087902
0.03095514
0.031024408
0.031030816
0.031030182
0.031094334
0.031153063
0.031207317
0.031204138
0.031151156
0.031093792
0.031087155
0.031144429
0.031197297
0.03123031
0.031230406
0.031229713
0.031169843
0.031168053
0.031102274
0.031030841
0.030952735
0.030867262
0.030773752
0.030672809
0.030511837
0.030623607
0.030641469
0.030783706
0.030685185
0.030534261
0.03007916
0.030050057
0.030171841
0.029149122
0.029194716
0.030197695
0.030313834
0.030291139
0.030729026
0.030827153
0.030838407
0.03095909
0.030875551
0.030744057
0.030760517
0.030882027
0.030792329
0.030695194
0.030553919
0.030660873
0.030682556
0.030795796
0.030699244
0.030576802
0.030167346
0.030119107
0.030235856
0.029271225
0.029364953
0.030284441
0.030397977
0.030349957
0.030459678
0.030425328
0.030404701
0.029410452
0.029282042
0.029325494
0.02945197
0.029524153
0.029400091
0.029494438
0.029619629
0.030507151
0.030875607
0.030855306
0.030964777
0.030967109
0.030885822
0.030783119
0.03079816
0.030884843
0.030873392
0.030791652
0.030702118
0.030691568
0.030783225
0.030867226
0.030942763
0.030949254
0.031017984
0.031080292
0.031072006
0.031010832
0.031000025
0.030932904
0.03085857
0.0307763
0.030685959
0.030670476
0.030762222
0.030845667
0.030921207
0.030990179
0.031052394
0.031062005
0.031118621
0.031129033
0.03113737
0.031189881
0.031181307
0.031170799
0.031160575
0.031108932
0.031160093
0.031165598
0.031168794
0.031171124
0.031172334
0.031171659
0.031108432
0.031105443
0.031035605
0.030927556
0.030918666
0.031002815
0.031010442
0.031087848
0.031081269
0.030710468
0.030613909
0.030512359
0.029536438
0.02965738
0.029691087
0.03062971
0.030530512
0.029574081
0.029645371
0.030564247
0.030942701
0.031039984
0.031041894
0.031109921
0.031041314
0.031023762
0.031099582
0.031170956
0.031160331
0.030815048
0.030724657
0.029805437
0.029774325
0.027950429
0.027940914
0.027967531
0.027829616
0.027688555
0.027543376
0.027390341
0.027227077
0.027053823
0.026870012
0.023810911
0.023763695
0.026823388
0.026836006
0.023799907
0.02394621
0.026915042
0.027049122
0.024174226
0.024461506
0.0272224
0.027402842
0.024751366
0.025020602
0.027577119
0.027735346
0.025248813
0.025474738
0.027887002
0.028027218
0.025675017
0.025843767
0.02813962
0.028194876
0.025927942
0.025891922
0.028148584
0.028368992
0.028413857
0.028356986
0.0282438
0.028101197
0.027949244
0.027789097
0.027615323
0.027435905
0.027262255
0.027126217
0.027043057
0.027020047
0.027205603
0.024202162
0.024198097
0.024012877
0.023992174
0.020077431
0.020044591
0.019871418
0.015554456
0.015679812
0.019879638
0.02000236
0.015975579
0.016398751
0.020260117
0.020628147
0.016966258
0.017606633
0.021067213
0.021520019
0.018289147
0.018897001
0.021927489
0.022256749
0.019394281
0.019741229
0.022533712
0.022786231
0.020018072
0.020185277
0.022971308
0.023072862
0.020293391
0.020259625
0.023048763
0.023312136
0.023334464
0.023227466
0.023037782
0.022779041
0.022497871
0.02216701
0.021760679
0.021310278
0.020871321
0.02049799
0.020227273
0.024050586
0.024278929
0.027234907
0.027320428
0.024441416
0.024208097
0.024440668
0.024677093
0.027457194
0.02763053
0.024961293
0.024727225
0.025014624
0.025248617
0.027809952
0.029467834
0.030337404
0.0306996
0.030796419
0.030700099
0.030594313
0.030606019
0.030695664
0.030794461
0.030714337
0.030815477
0.030885719
0.030967434
0.03096752
0.03089154
0.030908226
0.030603924
0.030556999
0.030450055
0.029597426
0.029723292
0.029820987
0.029696844
0.03049762
0.030385755
0.030269577
0.030222363
0.030307853
0.030620205
0.030694367
0.030793071
0.030729211
0.030740008
0.030789589
0.030692717
0.030632985
0.030344955
0.030465492
0.030427544
0.029657597
0.029568357
0.027983157
0.025513154
0.025281685
0.02551128
0.025746837
0.028144796
0.028297841
0.029743172
0.029876451
0.029789529
0.030542565
0.030830987
0.030883974
0.030965076
0.030923196
0.030931849
0.030959136
0.030879091
0.030840932
0.030581839
0.030690215
0.030650679
0.029916457
0.030004828
0.030127922
0.030037975
0.02994218
0.02984381
0.029740384
0.030610533
0.030961986
0.030977797
0.0310419
0.031109344
0.031056964
0.031070524
0.031107508
0.031040956
0.030992984
0.030706418
0.030660018
0.030756466
0.030708164
0.030662938
0.029762071
0.029856294
0.029968265
0.029874941
0.030756723
0.030846339
0.029984549
0.029916583
0.030025079
0.029998743
0.030010388
0.03004494
0.030918822
0.031231635
0.031287108
0.031342618
0.031299713
0.031293783
0.03134128
0.031311943
0.031263383
0.031286595
0.03122661
0.030899542
0.030986999
0.031007106
0.030158339
0.030121977
0.030231341
0.030269575
0.031092285
0.031364549
0.031395136
0.031445125
0.031426642
0.031419655
0.031442721
0.031401774
0.031357971
0.031393259
0.031358142
0.031071691
0.031153701
0.03117493
0.030379001
0.030339102
0.030445447
0.030487098
0.031255356
0.031486463
0.031493123
0.031539453
0.031544342
0.031536632
0.031536361
0.031484831
0.031443982
0.031490367
0.031479131
0.031233701
0.031311841
0.031333926
0.030594001
0.030550867
0.03065542
0.030699967
0.031410896
0.031600629
0.031584475
0.031628412
0.031655476
0.031647354
0.03162492
0.031563854
0.031524731
0.031581179
0.031592705
0.031388535
0.031463759
0.031486351
0.030805128
0.030759234
0.030730312
0.031448038
0.031640606
0.031620644
0.031559103
0.031520187
0.031480582
0.031440051
0.031398291
0.03135496
0.031309613
0.031261753
0.03125775
0.031305072
0.031349938
0.031392865
0.03138658
0.031344268
0.031300142
0.031253703
0.031246492
0.031292719
0.031336585
0.031378628
0.03141922
0.031427571
0.031434304
0.031474517
0.031513845
0.031552534
0.031544682
0.031506338
0.031467395
0.031458707
0.031497381
0.031535483
0.031606149
0.031611279
0.031615954
0.031572889
0.031577167
0.031532752
0.031487168
0.031440102
0.031391238
0.031340126
0.031286323
0.031224302
0.031290694
0.031293585
0.031338706
0.031285895
0.031228724
0.030902544
0.030892008
0.030978139
0.030107587
0.030131502
0.030987008
0.031068803
0.031061351
0.031354226
0.031415047
0.031415721
0.031437278
0.031389107
0.031355933
0.031363163
0.031387111
0.031337642
0.031285682
0.031238214
0.031302122
0.031313891
0.031336273
0.0312849
0.031251214
0.031185385
0.031115776
0.030801056
0.030889283
0.030077171
0.030183225
0.03009149
0.030932449
0.031015273
0.030196192
0.030287038
0.031055302
0.030973912
0.031017902
0.031263964
0.031282452
0.031238717
0.031284622
0.031275082
0.031229734
0.031219204
0.031264649
0.031253865
0.031208804
0.031269254
0.031275204
0.031279258
0.031226085
0.031228772
0.031199094
0.031130442
0.031143798
0.031212196
0.030978917
0.030934664
0.030847836
0.030070141
0.029959324
0.030058288
0.030802347
0.030893058
0.030170371
0.030278471
0.030178397
0.030283741
0.030386889
0.031098741
0.031326201
0.031333599
0.031329755
0.031337649
0.031276658
0.031061764
0.03114137
0.030485641
0.030383432
0.030478257
0.031103761
0.031287058
0.031223714
0.031222428
0.031216718
0.031232166
0.031165347
0.031156492
0.031084553
0.031104634
0.031038268
0.031007376
0.031016311
0.031032745
0.031099363
0.031093824
0.03088589
0.030846506
0.030751972
0.030791584
0.030825227
0.031021689
0.0310262
0.030978568
0.030911063
0.030836424
0.030753904