/*--------------------------------*- C++ -*----------------------------------*\
| =========                 |                                                 |
| \\      /  F ield         | OpenFOAM: The Open Source CFD Toolbox           |
|  \\    /   O peration     | Version:  v2012                                 |
|   \\  /    A nd           | Website:  www.openfoam.com                      |
|    \\/     M anipulation  |                                                 |
\*---------------------------------------------------------------------------*/
FoamFile
{
    version     2.0;
    format      ascii;
    class       volScalarField;
    location    "145";
    object      p;
}
// * * * * * * * * * * * * * * * * * * * * * * * * * * * * * * * * * * * * * //

dimensions      [0 2 -2 0 0 0 0];


internalField   nonuniform List<scalar> 
11751
(
0.33938656
0.27354381
0.22303225
0.18380876
0.15295715
0.12832763
0.10845441
0.092281111
0.07903782
0.0680906
0.058926667
0.051195644
0.04463228
0.039016112
0.034172051
0.029966373
0.02630466
0.023086772
0.020247118
0.017713954
0.01545153
0.013395877
0.011534913
0.0097949511
0.0081950636
0.0066669006
0.0052656046
0.0039400651
0.002764401
0.0015850629
0.00068422791
0.00077800944
0.00082813521
0.0008379353
0.00079321283
0.0007597478
0.00068890676
0.00062303543
0.00054769882
0.00047870504
0.00042306767
0.00037112748
0.00031405721
0.00024258443
0.00015529837
3.0981082e-06
-0.0002224677
-0.00060626392
-0.00097433213
-0.001237472
0.00011089002
0.0024352425
0.0025437848
0.0018433215
0.00069998468
-1.6786408e-05
-0.00052910821
-0.00065615206
-0.000787084
-0.00070053996
-0.00071634122
-0.00068154983
-0.00069726548
-0.00074245098
-0.00074306992
-0.00078079409
-0.00078521645
-0.00078991332
-0.00080652065
-0.00077669265
-0.00077735099
-0.00073183628
-0.00072074392
-0.00070858958
-0.00070324092
-0.0006670286
-0.00061854337
-0.00056087441
-0.00050428071
-0.00044783861
-0.00038452907
-0.00030913498
-0.00022390333
-0.00012990302
-3.3274929e-05
6.6832567e-05
0.00016386409
0.00025650236
0.00034244208
0.00042142442
0.00049460949
0.00056512306
0.00063704452
0.00070313341
0.00076696614
0.00081015817
0.00082667158
0.00084566691
0.00082874142
0.00082732239
0.00079532888
0.0006606402
0.00059868148
0.00055396437
0.00051742006
0.00053991829
0.00048690108
0.00036152338
0.00040082653
0.00056366993
0.00059171245
0.00039611928
0.00039247811
0.00046615809
0.00052428434
0.00050578777
0.0005172413
0.00056718691
0.00065738611
0.0007709276
0.00075273024
0.00062714386
0.00052456167
0.00047429942
0.0005022897
0.00053702341
0.00048550004
0.00042349454
0.00040611006
0.00061079373
0.00062654086
0.00043668595
0.00046351237
0.00053712448
0.00057543671
0.00052307648
0.00046311646
0.000507016
0.00060869737
0.00073894395
0.00072232422
0.00059549381
0.0004929605
0.00046031205
0.00053357912
0.00059224045
0.00056427931
0.00047550221
0.00045006788
0.00062200737
0.00060371329
0.00044156368
0.00045394771
0.00054746572
0.00057409708
0.00051903645
0.00044755599
0.00047440706
0.00057357061
0.00069126558
0.00064104143
0.00053303363
0.00043935732
0.0004135006
0.00047685146
0.00052075452
0.00049354668
0.0003984763
0.00040229235
0.00055642725
0.00049960773
0.00034370098
0.00032400422
0.00041889572
0.00044358968
0.00041379673
0.00035554812
0.00038470575
0.00047389076
0.00057902189
0.00051101276
0.00040905668
0.00032179004
0.00028968337
0.00034300681
0.00036204584
0.00033706519
0.00024216996
0.00027439028
0.00043428812
0.00036693188
0.00019903515
0.00015849225
0.000248803
0.00028267943
0.00027013376
0.00022717658
0.00025736414
0.00034582495
0.00044246637
0.00037269588
0.0002815306
0.00019812371
0.0001659448
0.00019650839
0.00019996477
0.00015200898
6.5565001e-05
0.0001165467
0.00029618964
0.00022132576
2.0187636e-05
-3.9947157e-05
4.2964384e-05
0.00010362834
0.0001135187
0.00010106556
0.00013608699
0.00021537421
0.0003001407
0.00022454725
0.00014817219
6.9549736e-05
2.6815048e-05
1.7821792e-05
-9.3281022e-06
-8.814456e-05
-0.00017375063
-9.3796806e-05
0.00014021556
4.1556315e-05
-0.00024107439
-0.00033764572
-0.00024669829
-0.00014691725
-9.292048e-05
-5.7521569e-05
-1.9472096e-06
7.5479812e-05
0.00014429626
6.0458345e-05
9.2608847e-08
-7.9067118e-05
-0.00015043367
-0.00021673941
-0.00030602298
-0.00044078621
-0.00054903129
-0.00043638638
-8.9137696e-05
-0.00026362547
-0.00066411193
-0.00080253079
-0.00066269577
-0.00048286264
-0.00034615955
-0.0002449606
-0.0001598857
-8.123866e-05
-2.9052612e-05
-0.00011756729
-0.00016293475
-0.00023881455
-0.00033150874
-0.00047168644
-0.00066507742
-0.00091559016
-0.0010833451
-0.00099134819
-0.00051987432
-0.00079310331
-0.0013723332
-0.0014426018
-0.0011503898
-0.00083770265
-0.00058538324
-0.00040563767
-0.00031106755
-0.00024437949
-0.00021087059
-0.00030184222
-0.00032375052
-0.00036821912
-0.00044890425
-0.00065165899
-0.00096381409
-0.0013471232
-0.0016390337
-0.0016484247
-0.0011887445
-0.0012478276
-0.0018182818
-0.0018571577
-0.0015096825
-0.001017024
-0.00065808094
-0.00046246284
-0.00041372108
-0.00040081098
-0.0003893828
-0.00046972886
-0.00046892499
-0.00045432003
-0.00045538757
-0.00059240849
-0.00094578423
-0.001512014
-0.0018995555
-0.001592643
-0.00062838494
0.00051734157
-0.00074096438
-0.0014544626
-0.0012469946
-0.0007638648
-0.00049711702
-0.00045479429
-0.00050088952
-0.00053152528
-0.00053932424
-0.00060610602
-0.00059653505
-0.00055296714
-0.00049330576
-0.00049464065
-0.00069111237
-0.0010087299
-0.0010368277
-0.0001321018
0.0011901654
0.00084297694
-0.00016541525
-0.000906237
-0.00090035469
-0.00071785896
-0.00055939905
-0.00055840524
-0.00061410053
-0.00065368919
-0.00066049946
-0.00069904907
-0.00069325792
-0.00066282112
-0.00061696537
-0.0006174922
-0.00073589351
-0.00088461273
-0.00081357262
-0.00034455957
0.00017743413
-0.00033928823
-0.0005617392
-0.00079076201
-0.00081499175
-0.00072913207
-0.00065025868
-0.00065396477
-0.00068935042
-0.00071036578
-0.00071438168
-0.00071697255
-0.00071397669
-0.00070155679
-0.00067887351
-0.00067424674
-0.00072513451
-0.00077723421
-0.00078370941
-0.00070977078
-0.00065411178
-0.0007679154
-0.00076442444
-0.00076689853
-0.00074994332
-0.00072313562
-0.0006905648
-0.00069617894
-0.00070762394
-0.00071493938
-0.00071344389
-0.00073011675
-0.00074177141
-0.00073220032
-0.00072863855
-0.00072247722
-0.00072677385
-0.00073686163
-0.0007467975
-0.0007567303
-0.00079377313
-0.0014972502
-0.0015087242
-0.0025293427
-0.0035069425
-0.0046129875
-0.0058236896
-0.0071484454
-0.0085750501
-0.010117268
-0.011782778
-0.013591528
-0.015562263
-0.017719281
-0.020086769
-0.02269394
-0.025572652
-0.02875627
-0.032284804
-0.036204154
-0.040571712
-0.045459821
-0.050955413
-0.057169983
-0.064251563
-0.072397814
-0.081879784
-0.093073462
-0.10648666
-0.12283493
-0.14315186
-0.16869255
-0.20099056
-0.24233007
-0.29510049
-0.36025341
-0.060129125
-0.033561342
-0.013461272
0.0013998049
0.012093094
0.019505276
0.024391167
0.027331535
0.028858032
0.029320753
0.02889929
0.02792431
0.026597428
0.025033352
0.023327945
0.021555905
0.019773421
0.018014345
0.016299869
0.014642589
0.013055156
0.011531332
0.010077794
0.0086712552
0.0073299091
0.0060168141
0.0047898282
0.0035918232
0.0025672698
0.0014432922
0.0014789983
0.0025868882
0.0036263739
0.0048175071
0.0060480556
0.0073532288
0.0086985051
0.010108961
0.011574481
0.01311199
0.014718174
0.016397939
0.018141927
0.019938202
0.021766539
0.023597918
0.025380296
0.027041717
0.028492489
0.029628964
0.030281032
0.030117575
0.028884656
0.026321582
0.02192379
0.015112794
0.0051459383
-0.0088624557
-0.027983837
-0.053465032
-0.038944312
-0.015822414
0.0011732014
0.013330887
0.021727787
0.02723415
0.030559022
0.032250692
0.032748468
0.032327508
0.03123076
0.029741158
0.028011258
0.02613293
0.024184653
0.022224676
0.020293172
0.018415557
0.016608633
0.014880607
0.013236072
0.011669885
0.010180908
0.0087549154
0.0073952127
0.0060795475
0.004831145
0.0036363034
0.0025709527
0.001498075
0.001542472
0.0025651425
0.0036541238
0.0048520285
0.0061155235
0.0074475293
0.0088304514
0.010280952
0.011804902
0.013414766
0.015116737
0.016917995
0.018819716
0.020819554
0.022908226
0.025070214
0.027280153
0.029496319
0.031659322
0.033692232
0.035469178
0.036781066
0.037417434
0.037123042
0.035521395
0.032129435
0.026299338
0.017199333
0.0037575457
-0.015360375
0.018635353
0.031722963
0.039921325
0.044574726
0.046709537
0.047080406
0.046235739
0.044567694
0.042363586
0.039821009
0.03709277
0.034310883
0.031556659
0.028877159
0.026305203
0.023860884
0.021552001
0.01938071
0.017346025
0.015441184
0.013658937
0.01198608
0.010413315
0.0089237632
0.0075098276
0.0061511115
0.0048674885
0.0036523011
0.0025458897
0.0015049165
0.0014647968
0.0025096355
0.0036300829
0.0048570264
0.0061608461
0.0075484145
0.0089950947
0.010527616
0.012153408
0.013895318
0.015765683
0.017784686
0.019966243
0.022327594
0.024881995
0.027643208
0.030621474
0.033823545
0.037249129
0.04089039
0.044723516
0.048696658
0.05274366
0.056760211
0.060582144
0.063960901
0.066508355
0.067618034
0.066410557
0.061639027
0.11467549
0.10854678
0.10084608
0.092545089
0.084277649
0.076389155
0.069028992
0.062246989
0.056045341
0.050400033
0.04527266
0.040627729
0.036422556
0.03261651
0.029168769
0.026044393
0.023207625
0.020628497
0.018277168
0.01612791
0.014154618
0.012334308
0.010645308
0.0090657942
0.0075774996
0.0061631077
0.0048331855
0.0035808351
0.0024444371
0.0013616797
0.0013050517
0.0023568246
0.0035203179
0.0047812271
0.0061378431
0.0075700985
0.009088124
0.010701608
0.012437452
0.014320846
0.016376457
0.01863344
0.021123625
0.02388462
0.026956424
0.030388362
0.034234733
0.038560024
0.043440119
0.048964965
0.05524065
0.062389763
0.070560567
0.07991598
0.090642178
0.10293602
0.11696478
0.13277897
0.15019222
0.16881412
0.23093082
0.19713327
0.16819906
0.14371123
0.12318744
0.10602373
0.091621525
0.079480282
0.069196527
0.060442338
0.052945393
0.04648711
0.040890523
0.036016788
0.031748043
0.027992668
0.02467038
0.021719574
0.019080087
0.016709197
0.014563143
0.012614796
0.010828799
0.0091758639
0.0076264627
0.0061688512
0.004794486
0.0035257571
0.0023569757
0.0013253625
0.001365003
0.0024018653
0.0035740484
0.0048589326
0.0062465777
0.0077262513
0.0092978895
0.010981726
0.012804234
0.014790059
0.016979155
0.019412895
0.022135144
0.025197572
0.02866387
0.032608444
0.037124632
0.042321917
0.048341779
0.055354892
0.063583602
0.073311281
0.08489521
0.098767293
0.11549686
0.1358745
0.16078448
0.19130747
0.22877357
0.27452063
-0.50933221
-0.45055982
-0.39593488
-0.34602342
-0.30107271
-0.26108598
-0.22587741
-0.1951341
-0.1684623
-0.14543447
-0.12562043
-0.10860815
-0.094016973
-0.081503766
-0.070765497
-0.061537806
-0.053592983
-0.046736189
-0.040801646
-0.035649322
-0.031160217
-0.027234664
-0.023786998
-0.020746757
-0.018050073
-0.015646867
-0.013484912
-0.011529701
-0.0097334709
-0.0080875646
-0.0065447337
-0.0051418734
-0.003822045
-0.0026995715
-0.0015217178
-0.0014802974
-0.0014176364
-0.0013312204
-0.0012612659
-0.0011768983
-0.001108355
-0.0010345981
-0.00096152503
-0.00088214399
-0.00078718
-0.00066980137
-0.00053243613
-0.00037534234
-0.00020453537
-1.8490304e-05
0.00017061161
0.00035558701
0.00053070952
0.00069239385
0.00083859638
0.00096965043
0.0010801861
0.0011763129
0.001244219
0.0013149886
0.0013575624
0.0014078002
0.0014378469
0.0025586287
0.0025098603
0.0024427802
0.0023526351
0.0022332217
0.0020871527
0.001910324
0.0017058226
0.0014745472
0.0012186416
0.00093950611
0.00064058988
0.00032807624
6.320847e-06
-0.0003152633
-0.00062347461
-0.00090878423
-0.001166737
-0.0013898765
-0.0015807762
-0.0017454859
-0.0019006982
-0.0020524728
-0.0021985591
-0.002336737
-0.002454786
-0.0025574744
-0.0026404602
-0.0037659041
-0.0036696445
-0.0035359131
-0.0033727562
-0.0031795275
-0.0029686276
-0.002746457
-0.0025131478
-0.0022664733
-0.0019850978
-0.0016617896
-0.0012909283
-0.00087943627
-0.00044044343
1.2766216e-05
0.00046400784
0.00090239157
0.001319647
0.0017105022
0.0020701036
0.0023954969
0.0026840698
0.0029344242
0.0031430854
0.0033120423
0.003438049
0.0035270539
0.0035839771
0.0047704665
0.0047017125
0.0045864671
0.004417896
0.0041914131
0.0039087926
0.0035724526
0.0031863758
0.002753883
0.0022786527
0.0017647091
0.0012154649
0.00063743479
4.1868632e-05
-0.00055695449
-0.0011423359
-0.0016964565
-0.0022027113
-0.0026491997
-0.0030444332
-0.0033966786
-0.0037294174
-0.0040432581
-0.0043329977
-0.0045913508
-0.0048029982
-0.0049677489
-0.0050725618
-0.0064620427
-0.0063364685
-0.0061348325
-0.0058693909
-0.0055417054
-0.0051694456
-0.0047629812
-0.0043302745
-0.0038669922
-0.0033506791
-0.0027727931
-0.0021279667
-0.001430268
-0.0006950855
5.3491816e-05
0.00079662091
0.0015170568
0.0022041638
0.0028498727
0.0034478471
0.0039929133
0.0044798667
0.0049046586
0.0052621444
0.0055481103
0.0057606117
0.0059051103
0.0059886704
0.0072829978
0.0071802061
0.0070035846
0.0067435175
0.0063939494
0.0059567271
0.0054381374
0.0048446001
0.0041816985
0.0034559222
0.0026715164
0.0018379872
0.00096497784
6.5136862e-05
-0.00084031023
-0.0017317368
-0.0025842517
-0.0033789012
-0.0041020594
-0.0047532529
-0.0053421735
-0.0058892031
-0.0063967674
-0.0068574323
-0.0072597407
-0.0075844321
-0.0078304998
-0.0079825004
-0.0096125317
-0.0094320158
-0.0091410329
-0.008753427
-0.008270286
-0.0077112188
-0.0070918707
-0.0064198098
-0.005696068
-0.0048995935
-0.0040234086
-0.0030700482
-0.0020540133
-0.00099711969
7.3803155e-05
0.0011353791
0.0021661668
0.0031490565
0.0040752201
0.0049324084
0.0057159353
0.0064182432
0.0070326394
0.0075514732
0.0079673179
0.0082775745
0.0084888099
0.0086130746
0.010006196
0.0098589924
0.0096115594
0.009248942
0.0087638857
0.0081593831
0.0074444448
0.0066280885
0.00571804
0.0047224267
0.0036476337
0.0025063584
0.0013099677
7.6996362e-05
-0.0011683854
-0.0024022251
-0.0035935423
-0.0047190172
-0.0057604541
-0.0067155733
-0.0075874596
-0.0083966341
-0.0091398136
-0.0098076905
-0.010381294
-0.010839076
-0.011179508
-0.011390861
-0.013330532
-0.013086398
-0.012691643
-0.012157128
-0.011483494
-0.01069577
-0.009816354
-0.0088564362
-0.0078233465
-0.0066965703
-0.0054753732
-0.0041644726
-0.0027851207
-0.0013624011
6.8497467e-05
0.001481761
0.0028531894
0.0041598116
0.0053904333
0.006530307
0.0075724699
0.0085076075
0.0093270362
0.010020538
0.010577582
0.01099475
0.011279709
0.011450151
0.01296379
0.012769203
0.012444972
0.011970511
0.011337694
0.010550372
0.009620658
0.0085598268
0.0073781301
0.0060848152
0.004689449
0.0032057115
0.0016487977
4.1342535e-05
-0.0015896462
-0.0032154071
-0.0047974801
-0.0063103421
-0.0077274605
-0.0090436314
-0.010255567
-0.011382234
-0.012414656
-0.013334601
-0.014119244
-0.014740567
-0.015195514
-0.015476465
-0.017862275
-0.017540734
-0.017018657
-0.016301284
-0.01539145
-0.014320376
-0.013118885
-0.011807199
-0.010398244
-0.0088732504
-0.0072408785
-0.0055078461
-0.0037050514
-0.0018594043
-1.3172867e-05
0.0018016847
0.0035573374
0.0052285839
0.0067993677
0.0082547058
0.0095841294
0.010777477
0.011823364
0.012709381
0.013421856
0.013956491
0.014321768
0.014541275
0.016187523
0.015941818
0.015533338
0.014935078
0.014138259
0.013147658
0.011978519
0.010644227
0.0091578133
0.0075293057
0.0057716919
0.0038987556
0.0019304015
-0.00010889603
-0.002187696
-0.0042716914
-0.0063168658
-0.0082916515
-0.010160733
-0.011916592
-0.013546894
-0.01506631
-0.016458316
-0.017698605
-0.018748449
-0.01957402
-0.020171551
-0.020538804
-0.023555787
-0.023136734
-0.022453696
-0.021504896
-0.020297239
-0.01886715
-0.017260868
-0.015507472
-0.013630456
-0.011618129
-0.0094869064
-0.0072459836
-0.0049364518
-0.0025924624
-0.0002622411
0.0020185768
0.0042158434
0.0063040056
0.0082614288
0.010073912
0.011727335
0.013211012
0.014510715
0.015611977
0.016497857
0.017163255
0.017617164
0.017890346
0.019636854
0.019334237
0.018832138
0.018096237
0.017116675
0.015898466
0.014460291
0.012817834
0.01098667
0.0089779453
0.0068068948
0.0044878294
0.0020444906
-0.00049744461
-0.0030998226
-0.0057267499
-0.0083256492
-0.010859872
-0.013281317
-0.015579615
-0.0177326
-0.019749008
-0.021596725
-0.023241482
-0.02462917
-0.025717832
-0.026498424
-0.026976553
-0.030871152
-0.030325423
-0.029433434
-0.028185143
-0.026592433
-0.024704153
-0.022584277
-0.020272041
-0.017810588
-0.015193254
-0.012449477
-0.009593229
-0.006677928
-0.0037431055
-0.00084483893
0.0019779594
0.0046854922
0.0072511528
0.0096507592
0.011868275
0.013888315
0.015699101
0.017283552
0.018625136
0.019705332
0.020517805
0.021071877
0.021405966
0.023163995
0.022796762
0.022188135
0.021294266
0.020105669
0.018630187
0.016890418
0.014901279
0.012680405
0.010240674
0.0075978628
0.0047686297
0.0017778697
-0.0013476125
-0.0045650574
-0.0078351813
-0.011096263
-0.0143072
-0.017407179
-0.020379905
-0.023186573
-0.02583164
-0.028260419
-0.030426207
-0.032251926
-0.033682107
-0.034701245
-0.035324625
-0.040436233
-0.039723982
-0.038558515
-0.036920409
-0.034829259
-0.032348502
-0.029570228
-0.026549719
-0.023356507
-0.019988235
-0.016494674
-0.012894213
-0.0092555632
-0.005622143
-0.0020607111
0.0013890773
0.0046827165
0.007792551
0.010693796
0.013369374
0.015802987
0.017981061
0.019887488
0.021504892
0.022806458
0.023785889
0.024452201
0.024854635
0.026403371
0.02596391
0.025236997
0.024167409
0.022746675
0.020982163
0.018899991
0.016520618
0.013861787
0.010936436
0.007761706
0.0043533577
0.00073818569
-0.003058815
-0.006989484
-0.011015138
-0.015063916
-0.01909131
-0.023018978
-0.026826927
-0.030452716
-0.033895877
-0.037069164
-0.03990797
-0.042301023
-0.044177061
-0.045509741
-0.04632355
-0.0531267
-0.052196372
-0.050672393
-0.048525427
-0.045788836
-0.042543404
-0.038924297
-0.035006828
-0.030898656
-0.026602755
-0.022196967
-0.017704386
-0.013212043
-0.0087646259
-0.0044381622
-0.00027304658
0.0036827889
0.0074056034
0.010868759
0.014057186
0.016953963
0.019547441
0.021815801
0.023736222
0.025281645
0.02644638
0.027236866
0.027714907
0.028671353
0.028148978
0.027287749
0.026019449
0.024338481
0.022249154
0.01978247
0.016965674
0.013819715
0.010356312
0.0065914196
0.0025389044
-0.0017756402
-0.0063294588
-0.011074828
-0.01597264
-0.020941948
-0.025939828
-0.030868342
-0.035703296
-0.040348259
-0.044797415
-0.048918421
-0.052623847
-0.055750348
-0.058205306
-0.059946926
-0.061009754
-0.070167763
-0.068954261
-0.06696583
-0.064161409
-0.06059446
-0.056371369
-0.051687896
-0.046644948
-0.041405151
-0.03597919
-0.030482248
-0.024939458
-0.01945906
-0.014085348
-0.0088990597
-0.0039386445
0.00074924224
0.0051443776
0.0092223082
0.012970732
0.016374198
0.019420209
0.022086028
0.024352535
0.026182513
0.027560886
0.028498459
0.029070517
0.028601908
0.02799674
0.026996596
0.025514338
0.023548923
0.021107759
0.018232305
0.014948089
0.01127866
0.0072363246
0.0028362158
-0.0019117781
-0.0069847921
-0.012366097
-0.018010253
-0.023885449
-0.029904121
-0.036030676
-0.042140305
-0.048211415
-0.054105635
-0.05980641
-0.065116089
-0.069918178
-0.073980536
-0.077177085
-0.079444185
-0.080827047
-0.093252626
-0.091680101
-0.089102715
-0.085468467
-0.080855056
-0.075410379
-0.069408875
-0.062985016
-0.056377247
-0.049609251
-0.042845599
-0.036103434
-0.02951982
-0.023127467
-0.01701188
-0.011200614
-0.005735012
-0.00062739971
0.004102438
0.0084456248
0.012388441
0.015918294
0.019010011
0.021637348
0.023753837
0.025348585
0.026418484
0.027063356
0.024099239
0.023396739
0.022241398
0.020521028
0.018244317
0.015421677
0.012103625
0.0083188489
0.0040942646
-0.00055646268
-0.0056208245
-0.011091876
-0.016952805
-0.02319802
-0.02979007
-0.036711011
-0.043874129
-0.051258007
-0.05871059
-0.066221926
-0.073597221
-0.080806596
-0.087564161
-0.093712686
-0.098931156
-0.10304665
-0.1059661
-0.1077469
-0.12465497
-0.12264865
-0.11935983
-0.11472408
-0.10885271
-0.10194525
-0.094375284
-0.086325629
-0.07813699
-0.069845925
-0.061680864
-0.053642433
-0.045893918
-0.038445629
-0.031380287
-0.024705877
-0.018450744
-0.012616975
-0.0072150478
-0.002251499
0.0022627914
0.0063122299
0.0098683078
0.012898665
0.015346727
0.017199557
0.018440134
0.019196303
0.011765761
0.01095049
0.0096190049
0.0076253898
0.0049965615
0.0017482982
-0.0020556926
-0.0063789129
-0.011189106
-0.016469177
-0.022207568
-0.028399976
-0.035038887
-0.042131485
-0.04965522
-0.057617198
-0.065940461
-0.074630668
-0.083514535
-0.092604727
-0.10163602
-0.1105645
-0.11898817
-0.12669604
-0.13325501
-0.13843796
-0.14211596
-0.14435917
-0.16727607
-0.16479315
-0.16072069
-0.15498178
-0.14772234
-0.1391986
-0.1299065
-0.12008673
-0.11020973
-0.10032611
-0.090740277
-0.081424606
-0.072556305
-0.064111856
-0.056155424
-0.048669755
-0.041662001
-0.035122677
-0.029051984
-0.02345575
-0.018344947
-0.013740565
-0.0096793444
-0.0062032826
-0.003384508
-0.001243434
0.00018136997
0.001056372
-0.013821424
-0.014760328
-0.016284774
-0.018581074
-0.021600048
-0.025313268
-0.029640535
-0.034531913
-0.039945358
-0.045855741
-0.052248319
-0.059118612
-0.066467324
-0.074313392
-0.082657279
-0.09153408
-0.10089374
-0.11077946
-0.12101552
-0.13165005
-0.14233727
-0.15302047
-0.16315492
-0.17246964
-0.18040505
-0.18667948
-0.1911302
-0.19384201
-0.22449291
-0.2215818
-0.21680117
-0.21005532
-0.20152047
-0.19149765
-0.18060673
-0.16914585
-0.15773699
-0.14644323
-0.13565014
-0.12528751
-0.11552042
-0.10628671
-0.097616415
-0.089461399
-0.0818071
-0.074631895
-0.067932112
-0.06171484
-0.055999767
-0.050817142
-0.046216872
-0.042257799
-0.039029587
-0.03657157
-0.034942391
-0.033937511
-0.060523795
-0.061597401
-0.063337971
-0.065963837
-0.069409793
-0.073621652
-0.078500528
-0.083975419
-0.089988682
-0.096500909
-0.10348615
-0.11093246
-0.11884305
-0.12724245
-0.13615495
-0.14564228
-0.1556947
-0.16639986
-0.17759971
-0.1893923
-0.20135881
-0.21343057
-0.22490932
-0.23547698
-0.24446361
-0.25155867
-0.25657859
-0.25963427
-0.29960018
-0.29648491
-0.29136831
-0.28411887
-0.27492004
-0.26407429
-0.25228435
-0.23987372
-0.22761035
-0.21555953
-0.26142914
-0.27339717
-0.28557715
-0.29792318
-0.30961426
-0.32034483
-0.32940805
-0.33653047
-0.34154128
-0.34459244
-0.39462087
-0.39179643
-0.3871573
-0.38053339
-0.37207068
-0.36198485
-0.35095105
-0.33922052
-0.32763875
-0.31620896
-0.38061239
-0.3909176
-0.40124555
-0.41166467
-0.42134396
-0.4301305
-0.43742637
-0.44310263
-0.44705165
-0.44945457
-0.50853247
-0.50676815
-0.50387021
-0.49965409
-0.49417688
-0.48744625
-0.47993353
-0.47165131
-0.4633698
-0.45490784
-0.05359086
-0.028127704
-0.009027644
0.0049631154
0.014917123
0.021722099
0.026116752
0.028682059
0.02991048
0.030074934
0.029435564
0.028308954
0.026867662
0.025217318
0.023446327
0.021626325
0.019809221
0.018023705
0.016290346
0.014621201
0.013025687
0.011499977
0.010047453
0.008652727
0.0073228974
0.0060337829
0.0048170565
0.0036357572
0.0025828017
0.0014803143
0.0014626959
0.0015014649
0.0015109339
0.0015542452
0.001538336
0.001521679
0.0015345212
0.001476928
0.0014637696
0.0014482743
0.0014981596
0.0015136714
0.0014758253
0.0014308542
0.0013776423
0.0013041901
0.0012224348
0.0012713745
0.0013518628
0.0014220641
0.0014637343
0.0014435308
0.0013948602
0.0013335427
0.0013828039
0.0013975148
0.0013206893
0.0013078501
0.0012611089
0.0011718843
0.0012104187
0.0012261176
0.0011751032
0.0011241541
0.0010095708
0.00087724836
0.00073064689
0.00076740221
0.00091621198
0.0010576882
0.0010999619
0.0010909409
0.0010679831
0.00093791033
0.00095946049
0.00095887744
0.00080786247
0.00081018046
0.00078792199
0.00062316815
0.00065000912
0.00064790938
0.00060619953
0.00057110596
0.00040303531
0.00022665884
4.5137636e-05
7.9488638e-05
0.00026093625
0.0004387458
0.00047827769
0.00047723723
0.00044273552
0.00024421114
0.00029451288
0.00029821348
0.00010852345
9.7045702e-05
2.9502044e-05
-3.8063373e-05
0.00033973993
0.00069288085
0.0010155799
0.0013117942
0.0015775047
0.0018108651
0.002015252
0.0021881662
0.0023339863
0.0024483831
0.0025210218
0.0025433486
0.0025506972
0.0025916968
0.0025979506
0.0025784137
0.0036685287
0.0037121288
0.0036937717
0.0036405475
0.0035977596
0.0025460578
0.0025508979
0.002573562
0.002577419
0.0037052593
0.0037213486
0.0036929801
0.0036785494
0.0048912358
0.0049187797
0.0049255342
0.0049003048
0.0048576984
0.0060811516
0.0061361279
0.0060846225
0.0060251139
0.0059660445
0.0047686635
0.0048160053
0.004864973
0.0048929075
0.0061315829
0.006180501
0.0061916795
0.0061468591
0.0074754855
0.0075404637
0.0075013436
0.0074353983
0.007374517
0.0087176581
0.0087986489
0.0086936618
0.0086078008
0.0085356313
0.0072312076
0.0072931109
0.0073600524
0.0074298718
0.0087920245
0.0088937769
0.0089643456
0.0088687817
0.010354634
0.01048016
0.010367644
0.01023399
0.010127498
0.01160284
0.011744872
0.011584291
0.011439948
0.011332519
0.0099050928
0.0099902092
0.010099457
0.01023542
0.011768121
0.011926943
0.012090754
0.011938327
0.011671695
0.011489443
0.011300933
0.01115337
0.011042788
0.0096540347
0.0083223978
0.0070546884
0.0058252029
0.0046613751
0.0035194736
0.0024887443
0.0023967006
0.0033906476
0.0044904524
0.0056078794
0.0053151645
0.0042572315
0.0032142328
0.0022710798
0.0021174829
0.0029975144
0.003968187
0.0049529912
0.0059912053
0.0064314723
0.006787825
0.0080047171
0.009283117
0.010616595
0.010053522
0.0087920233
0.0075827195
0.0070620784
0.0081866298
0.0093597685
0.0094698345
0.010163471
0.010726992
0.0093714908
0.0097424159
0.0083986729
0.0071223719
0.0058928794
0.0047212498
0.0035769896
0.0025021925
0.0025310861
0.0036396988
0.0035150347
0.0034492635
0.0024114341
0.0024430617
0.002461699
0.0025473709
0.003656251
0.0036333427
0.0035243937
0.0035406242
0.004656849
0.004815803
0.0047810714
0.0059603333
0.0057494161
0.0056793308
0.0045542743
0.0046169703
0.0043846444
0.0043210235
0.0032706481
0.0022858857
0.0023180964
0.0033364822
0.003115423
0.0030513493
0.0021331347
0.002164339
0.0021833843
0.0023366033
0.0033682751
0.003359172
0.0031481927
0.0031508479
0.0041406751
0.0044286637
0.0055199226
0.005806661
0.0060141457
0.0060408056
0.0048212806
0.0046712429
0.0058443141
0.0055676618
0.0044518267
0.0041704901
0.0052153214
0.0051608988
0.00509631
0.0054587527
0.0053871395
0.0050238471
0.0040302615
0.0040938052
0.0037515167
0.0036881457
0.0036276194
0.002742197
0.0019369412
0.0017298401
0.0024495423
0.0032382151
0.0040381337
0.0045260866
0.0054727808
0.0064491513
0.005749424
0.0048806475
0.0042196956
0.0034927592
0.0028031285
0.0021206544
0.0014974848
0.0012422538
0.0017579524
0.0023249215
0.0028958992
0.0034958797
0.0041151579
0.0049688161
0.0057563732
0.0066619881
0.0074744737
0.0085438989
0.0076134852
0.0065761563
0.0054414173
0.0047652837
0.0048555197
0.0058467311
0.0067516454
0.0075632664
0.0082745539
0.0088798705
0.007659341
0.0080816293
0.006856812
0.0069307862
0.0071941987
0.0084881559
0.0081729783
0.0094857768
0.0098548979
0.0099958168
0.0085919587
0.0072700593
0.0073274904
0.0086808705
0.0083837476
0.0082816718
0.0070118365
0.0070811049
0.0067425827
0.0066622463
0.0065759801
0.0065000319
0.0060589125
0.0071384145
0.0072344753
0.0077529549
0.0089966777
0.010315347
0.010876165
0.011069836
0.0096317023
0.0097758559
0.010126745
0.010269211
0.01047858
0.010592755
0.0090318045
0.0075675941
0.0061933292
0.0048921838
0.0036383016
0.00248439
0.001379032
0.0012955061
0.0012861178
0.0013697122
0.0013521627
0.0012948958
0.0012829709
0.0013059505
0.0012550302
0.0012622041
0.0012233035
0.0011962254
0.0011188146
0.0011656856
0.0010799597
0.0010175731
0.00089573356
0.00096670762
0.00082400911
0.0007537615
0.00058845692
0.00065545696
0.00045074129
0.00040194732
0.00018549549
0.00020915679
-7.2340618e-05
-5.0442034e-05
-0.00014673959
0.00027952612
0.00066724184
0.0010091562
0.0013117295
0.0015770511
0.001809417
0.0020128986
0.0021841812
0.0023240272
0.0024294712
0.0024867096
0.0024921606
0.0036329617
0.0035781598
0.0035693674
0.0023828852
0.0024003339
0.0024281806
0.0024036144
0.0013445466
0.0013937007
0.0014214697
0.0013609982
0.0013919944
0.0014693369
0.0014896926
0.00139181
0.001377018
0.0014858575
0.0014584948
0.001342497
0.0012845592
0.0014076998
0.0013313546
0.0011982515
0.001090973
0.0012341953
0.0011134613
0.00095575604
0.00079435773
0.00096873491
0.00078768335
0.00058584758
0.00033484556
0.00055658736
0.00023974802
1.3692055e-05
-0.00019632653
0.00034679423
0.00079125243
0.0011592689
0.0014576529
0.0017094977
0.0019224522
0.0021062561
0.0022542054
0.0023660894
0.002431099
0.0024537508
0.0024256646
0.0035689054
0.0036002361
0.0035020591
0.0035040415
0.0023999441
0.0023258409
0.0033764306
0.0033513723
0.003152377
0.0031933306
0.0022029526
0.0020471046
0.0029679099
0.0029113946
0.0028976137
0.0028938635
0.0028567738
0.0027946426
0.0019544056
0.0019850055
0.0017813464
0.0017485145
0.0025005785
0.002561119
0.0033599714
0.0032973828
0.0041064295
0.0045957674
0.0046690075
0.0041798048
0.0042470396
0.0047359675
0.0038001285
0.0038348837
0.0047955745
0.0043094054
0.0034451614
0.0034087693
0.0025963023
0.0018050918
0.0020076069
0.0015700231
0.0015510917
0.0015156142
0.0021696728
0.0022278006
0.0018581121
0.0018053155
0.0012589594
0.0012894276
0.0013053068
0.001889616
0.0022619315
0.002274967
0.0026058343
0.0026252267
0.0026954396
0.0018560788
0.0016306641
0.0023777821
0.0022973906
0.0019243374
0.0019037812
0.0025124568
0.0030050109
0.0029688992
0.0029215673
0.0028599765
0.00355945
0.0036323164
0.0030299964
0.0029594946
0.0023779528
0.0024369778
0.0024804663
0.0030915326
0.00369834
0.0037608711
0.0031492881
0.0038177139
0.0045541559
0.0052165167
0.0058050171
0.0063147331
0.0062266477
0.0061366175
0.0056194707
0.0055398293
0.0065258799
0.0066243353
0.0059266425
0.0058265133
0.004946842
0.005027996
0.0051210627
0.0057119444
0.0067444356
0.0073520859
0.0078667517
0.0079800799
0.0074728463
0.0087129406
0.0093040213
0.0091482021
0.010514079
0.010721504
0.011265367
0.012870297
0.013335086
0.01364219
0.013820146
0.013588996
0.013344293
0.013157524
0.014792437
0.015038244
0.014828029
0.014579408
0.014403232
0.012833129
0.012969444
0.013158569
0.013404733
0.015153786
0.015362918
0.015680006
0.015476641
0.017460344
0.017689494
0.017261084
0.016833184
0.016511774
0.018310757
0.018730054
0.018469792
0.01804591
0.017752181
0.0160461