/*--------------------------------*- C++ -*----------------------------------*\
| =========                 |                                                 |
| \\      /  F ield         | OpenFOAM: The Open Source CFD Toolbox           |
|  \\    /   O peration     | Version:  v2012                                 |
|   \\  /    A nd           | Website:  www.openfoam.com                      |
|    \\/     M anipulation  |                                                 |
\*---------------------------------------------------------------------------*/
FoamFile
{
    version     2.0;
    format      ascii;
    class       surfaceScalarField;
    location    "145";
    object      phi;
}
// * * * * * * * * * * * * * * * * * * * * * * * * * * * * * * * * * * * * * //

dimensions      [0 3 -1 0 0 0 0];
oriented        oriented;


internalField   nonuniform List<scalar> 
33478
(
0.011779873
3.1345584e-07
-1.2876156e-05
0.011792299
3.3687465e-06
-1.5794505e-05
0.011808184
2.4899232e-06
-1.8374482e-05
0.011822588
3.5734908e-06
-1.7977957e-05
0.011835932
3.8313665e-06
-1.7175278e-05
0.011847159
4.578861e-06
-1.5806316e-05
0.011856626
4.9889188e-06
-1.4455653e-05
0.011864528
5.3405991e-06
-1.3242192e-05
0.011871158
5.5950618e-06
-1.2225689e-05
0.011876769
5.7821621e-06
-1.1392462e-05
0.011881552
5.9396025e-06
-1.0722855e-05
0.011885664
6.0690556e-06
-1.0180977e-05
0.01188924
6.1536013e-06
-9.7295721e-06
0.011892373
6.2059433e-06
-9.3391404e-06
0.011895128
6.2554514e-06
-9.010093e-06
0.011897566
6.2983175e-06
-8.7365204e-06
0.011899744
6.3165554e-06
-8.4946718e-06
0.01190166
6.3356017e-06
-8.2511478e-06
0.011903241
6.3869227e-06
-7.9683074e-06
0.011904399
6.4349013e-06
-7.5930607e-06
0.011904848
6.5419583e-06
-6.9905932e-06
0.011905107
6.1250346e-06
-6.384166e-06
0.01190537
-5.6120142e-06
5.3492407e-06
0.011911543
-6.9020209e-06
7.2896591e-07
0.011918654
-6.0152381e-06
-1.0959256e-06
0.011942463
-1.1572668e-05
-1.2236571e-05
0.011967847
-1.0797792e-05
-1.4586579e-05
0.012019451
-1.889296e-05
-3.2710904e-05
0.012114622
-3.5238982e-05
-5.9931265e-05
0.012163115
-7.5325142e-06
-4.0960531e-05
0.00019098411
0.00021605547
2.4977341e-05
7.5779497e-05
-0.012730195
0.00040913341
0.00012400467
-0.013515443
9.5772856e-05
0.00021368814
-0.014480139
0.00028087711
0.00026464844
-0.015103489
6.8333656e-05
0.00027752592
-0.01554885
7.6819106e-05
0.0002703674
-0.015664585
1.9078007e-05
0.00026526519
-0.015676882
1.8368713e-05
0.00026266044
-0.015619549
2.3012579e-05
0.00026134299
-0.015559067
3.4474816e-05
0.00025974657
-0.015508756
4.5421201e-05
0.00025744323
-0.015471175
5.8045111e-05
0.00025409426
-0.015441348
7.3731986e-05
0.00024957318
-0.015415527
9.4159981e-05
0.0002439482
-0.015390569
0.00012046614
0.00023764776
-0.015363141
0.00015282346
0.00023151948
-0.015328769
0.00018994848
0.00022693842
-0.015280686
0.00022732177
0.00022631646
-0.015209689
0.00025598478
0.00023456624
-0.015104224
0.000251378
0.00025716898
-0.01497021
0.00020883592
0.00028829497
-0.014936038
9.7602762e-05
0.00030682326
-0.01507188
5.8518801e-05
0.00030825588
-0.015202875
-0.00018389665
0.00030618897
-0.015186529
-2.8369414e-05
0.00028636048
-0.014798514
-0.00035618423
0.00023170251
-0.014206974
3.8550139e-06
0.00014031492
-0.013265836
-0.00017399659
9.0757775e-05
-0.012494881
0.00022661724
-0.011937561
7.1482892e-05
-0.00012192842
-0.012372951
0.00050082202
-0.00019066668
-0.012918965
0.00014993648
-0.00020746774
-0.013678478
0.00027252616
-0.00021526311
-0.014093097
2.9789145e-05
-0.00022115505
-0.014404624
-0.00021508743
-0.00021888833
-0.01440241
-9.9070787e-05
-0.0002086593
-0.014086734
-0.00045978537
-0.00019722801
-0.013668958
-4.31883e-05
-0.00017810106
-0.012907615
-0.0002121357
-0.00010792565
-0.012360422
0.00018794357
-0.011924463
2.6232478e-05
7.4480709e-05
-0.012484599
0.00040521644
0.00012101745
-0.013263033
0.00010108792
0.00020773866
-0.014221226
0.00028811057
0.00025645235
-0.014847542
8.5005196e-05
0.00026836125
-0.015302262
9.9223909e-05
0.00026165007
-0.015436216
4.682538e-05
0.00025813151
-0.01547147
4.8326749e-05
0.00025821823
-0.015440981
5.183616e-05
0.00026057167
-0.01541001
5.8114618e-05
0.00026340612
-0.015391341
5.9372145e-05
0.00026608882
-0.015387091
5.7366477e-05
0.0002681941
-0.015391832
5.3028764e-05
0.0002695818
-0.01540156
4.7638348e-05
0.0002702745
-0.015413747
4.2251728e-05
0.0002704023
-0.015427241
3.7773672e-05
0.00027014003
-0.015442007
3.5046894e-05
0.00026965003
-0.015458778
3.4396345e-05
0.0002690548
-0.015479837
3.7054061e-05
0.00026841448
-0.015508939
3.4876739e-05
0.0002679
-0.015551321
2.8670349e-05
0.00026779289
-0.015604632
-3.3716146e-05
0.00026956464
-0.015655757
-2.9728044e-05
0.00027439058
-0.015638259
-0.00024658684
0.0002818177
-0.015518245
-6.739531e-05
0.00026972777
-0.015069621
-0.00038637203
0.000219847
-0.01444318
-1.0386145e-05
0.0001309711
-0.013476031
-0.00018318683
8.3045388e-05
-0.012688466
0.00022245837
-0.012120598
5.7798816e-05
-0.00011793011
-0.012566486
0.00048892999
-0.00018951828
-0.013128702
0.00012928895
-0.00020913045
-0.013912572
0.00025432542
-0.00022013427
-0.014350276
9.8542559e-06
-0.0002291244
-0.014685938
-0.00023538261
-0.00022899522
-0.014701741
-0.00011122127
-0.00021951177
-0.014393762
-0.00047460459
-0.00020756689
-0.013974092
-4.4999317e-05
-0.00018637192
-0.013193529
-0.00011244202
-0.01262268
0.00017725108
-0.00011860266
-0.013279725
0.00039679914
-0.00020026496
-0.014043596
0.00035457199
-0.00021089548
-0.014740621
0.00025865963
-0.00020727185
-0.015201259
-1.0122995e-05
-0.00020893806
-0.015419774
-0.00027814787
-0.00020950069
-0.015403655
-0.00037230231
-0.00020928586
-0.015156571
-0.00041204477
-0.00021499627
-0.014677653
-0.00018980175
-0.00020754223
-0.013977014
-0.00013007782
-0.013223424
0.00034666047
1.6544912e-05
-0.014196626
0.0005666842
-4.5818268e-05
-0.015111703
0.000593045
-1.7113303e-05
-0.015870656
0.00037741232
1.5695792e-05
-0.016346737
1.0365974e-05
3.0032476e-05
-0.016570963
-0.00035774343
3.1307344e-05
-0.016587655
-0.00057579418
1.9872246e-05
-0.016393023
-0.00055195845
-9.4219438e-06
-0.015935565
-0.00033480578
-3.3460386e-05
-0.015179377
3.4650181e-05
-0.01425195
0.0005043628
0.00012218228
-0.015200811
0.00076665709
0.00015118695
-0.016213482
0.00077376176
0.00020735171
-0.017012286
0.00047324667
0.00025282926
-0.017469302
-1.0219672e-05
0.00027126566
-0.017652375
-0.00049228747
0.00026922867
-0.017635529
-0.00078988088
0.00024634228
-0.017422733
-0.00077990553
0.00019589277
-0.016947456
-0.00051481764
0.00013372402
-0.016147
9.8130581e-05
-0.015148036
0.00062070795
0.00016966981
-0.015833181
0.00091762446
0.00021279767
-0.01685177
0.00091625379
0.00028181952
-0.017657875
0.00056543872
0.00033030316
-0.018126976
9.6571203e-06
0.00035223851
-0.018333853
-0.00054761567
0.00035493665
-0.018350198
-0.00090163185
0.00033881667
-0.01817196
-0.00090608992
0.00029663558
-0.017719986
-0.00061188477
0.0002348034
-0.016914503
0.00019908113
-0.015882007
0.00064574967
0.00015374011
-0.016254982
0.00095799124
0.0002125346
-0.017271395
0.00095186895
0.00025776373
-0.018063446
0.00057740489
0.00028446371
-0.018507538
-9.1800797e-06
0.00029312717
-0.018683457
-0.00059424308
0.00028982785
-0.018668153
-0.000965422
0.00027411839
-0.018465621
-0.00096834384
0.00023989717
-0.018006047
-0.00065339449
0.00018643664
-0.017214229
0.0001198077
-0.01621111
0.00065230018
7.130644e-05
-0.016355796
0.00097412209
0.00011344574
-0.017341174
0.00097266754
0.00014668968
-0.018116496
0.00059852642
0.00016624618
-0.018565813
9.1728695e-06
0.00017572357
-0.018763555
-0.00058160985
0.00017967846
-0.018777529
-0.0009590656
0.00017854029
-0.01860389
-0.00096386767
0.00016772058
-0.018168123
-0.00064493406
0.00014363251
-0.017391729
0.0001096848
-0.016393913
0.00063804159
6.2113502e-05
-0.016398789
0.00095728379
8.2777403e-05
-0.017390611
0.00095254318
9.0089781e-05
-0.018156642
0.00057684996
8.9734122e-05
-0.01858536
-9.9333136e-06
8.5667347e-05
-0.018756493
-0.0005953667
8.0910432e-05
-0.018743951
-0.00096764523
7.5123498e-05
-0.018551398
-0.00096871902
6.5404622e-05
-0.018111177
-0.00064610903
4.8043455e-05
-0.017347111
1.8963633e-05
-0.016367052
0.00064267564
-9.0647686e-06
-0.016329762
0.00096370506
6.2665283e-06
-0.017307701
0.00096203699
1.4797063e-05
-0.018065321
0.00059209491
1.9889816e-05
-0.018498795
1.1652057e-05
2.443182e-05
-0.018686747
-0.00057020738
3.0181218e-05
-0.018697855
-0.00094380673
3.7341815e-05
-0.018528643
-0.00094970032
4.389057e-05
-0.018104587
-0.00063287578
4.6375449e-05
-0.017343985
3.9693838e-05
-0.016354614
0.0006286342
3.2460981e-05
-0.0162987
0.00094259337
3.098094e-05
-0.017289388
0.00093540301
2.3030682e-05
-0.018048126
0.00056346037
1.3083896e-05
-0.018469956
-1.4403126e-05
3.8825956e-06
-0.018638327
-0.00059073961
-3.0861582e-06
-0.01862862
-0.00095860087
-7.8660224e-06
-0.018444143
-0.00096071339
-1.1473766e-05
-0.018014994
-0.00064129398
-1.5715253e-05
-0.017260408
-2.322875e-05
-0.016281222
0.00064109474
-2.9702398e-05
-0.016241063
0.00095957231
-2.6945316e-05
-0.017220228
0.00095754886
-2.457253e-05
-0.017973149
0.00059154266
-2.1052671e-05
-0.018399623
1.8333069e-05
-1.5366365e-05
-0.018581631
-0.00055656863
-6.9127685e-06
-0.018589974
-0.00092724786
4.1919371e-06
-0.018421497
-0.00093552375
1.6626231e-05
-0.018000205
-0.00062425465
2.8011766e-05
-0.017241797
3.4837642e-05
-0.016250677
0.0006189856
4.1735903e-05
-0.016212653
0.00092772669
3.1537906e-05
-0.017203618
0.00091857779
1.7146298e-05
-0.017962127
0.00054897643
1.9810115e-06
-0.018383694
-2.3612702e-05
-1.1428858e-05
-0.018552834
-0.00059420609
-2.165792e-05
-0.018545826
-0.00095841046
-2.8475797e-05
-0.018365689
-0.0009598173
-3.2327935e-05
-0.017941107
-0.00064157778
-3.3875994e-05
-0.017189568
-3.4283474e-05
-0.016211238
0.00064239375
-3.8958847e-05
-0.016188987
0.00096091194
-3.986114e-05
-0.017165956
0.00096052107
-3.8829891e-05
-0.017916053
0.0005982317
-3.468354e-05
-0.018339007
3.0143818e-05
-2.6734324e-05
-0.018517529
-0.00054022518
-1.4456605e-05
-0.018523204
-0.00090864229
1.9053323e-06
-0.018353138
-0.00091844832
2.0680153e-05
-0.017931026
-0.00061222913
3.8705997e-05
-0.017172435
5.1976215e-05
-0.016181998
0.00060365338
6.5647296e-05
-0.016155247
0.00090729961
4.8474024e-05
-0.017144948
0.00089716027
2.539389e-05
-0.017903568
0.0005303366
1.7469986e-06
-0.018326357
-3.7461798e-05
-1.8275782e-05
-0.018497535
-0.00060291928
-3.2762095e-05
-0.018493289
-0.00096313271
-4.1650235e-05
-0.018316358
-0.00096228507
-4.5796814e-05
-0.017895006
-0.00064323188
-4.6216417e-05
-0.017146445
-4.4390856e-05
-0.016170953
0.00064373356
-5.0409761e-05
-0.016155112
0.00096328963
-5.3226019e-05
-0.017129092
0.00096534953
-5.3729596e-05
-0.017876026
0.00060723919
-5.0037806e-05
-0.018295684
4.455958e-05
-4.0561469e-05
-0.018470868
-0.0005201513
-2.3945761e-05
-0.018473402
-0.00088470628
2.5819086e-07
-0.018300754
-0.00089456935
3.0489006e-05
-0.017876997
-0.00059338753
6.0953154e-05
-0.017118276
8.3573337e-05
-0.016129338
0.00058231469
0.00010550563
-0.016101026
0.00088160271
7.4453564e-05
-0.017089385
0.0008729194
3.4463891e-05
-0.017848836
0.00051144886
-3.4089661e-06
-0.018274419
-4.980529e-05
-3.2070862e-05
-0.01844935
-0.00060977858
-5.0343512e-05
-0.01844914
-0.00096610151
-5.9680071e-05
-0.018276086
-0.00096319503
-6.2144307e-05
-0.017858336
-0.0006434857
-6.0101086e-05
-0.017113138
-5.6337568e-05
-0.016140661
0.00064212252
-6.1942086e-05
-0.016127768
0.00096133524
-6.7286388e-05
-0.017098781
0.00096426455
-7.1022456e-05
-0.017842103
0.0006088817
-7.0112427e-05
-0.01825761
5.1040789e-05
-6.1706452e-05
-0.018427904
-0.00050686328
-4.2756465e-05
-0.018424684
-0.00086447838
-1.0242096e-05
-0.018245818
-0.0008706234
3.6061374e-05
-0.017816379
-0.0005720614
8.8189378e-05
-0.017054438
0.0001309241
-0.016065858
0.00056520692
0.00015756042
-0.016017588
0.00086519189
9.9522695e-05
-0.017008672
0.00086323665
3.3327655e-05
-0.017776944
0.00050967863
-2.0838781e-05
-0.018214006
-4.5848651e-05
-5.5597269e-05
-0.018399722
-0.00060306833
-7.3795045e-05
-0.018408049
-0.00095898845
-8.0438248e-05
-0.018241311
-0.00095720362
-7.9412013e-05
-0.017828383
-0.00063935094
-7.371334e-05
-0.017087077
-6.6256318e-05
-0.016117526
0.00063521793
-6.917196e-05
-0.016112237
0.00095087629
-7.9633302e-05
-0.01708026
0.00095015302
-8.7498738e-05
-0.017819475
0.00059163409
-9.047954e-05
-0.018229688
3.2395398e-05
-8.6022069e-05
-0.018392215
-0.00052333327
-6.9967287e-05
-0.018376826
-0.00087413146
-3.5509845e-05
-0.018180169
-0.00087106518
2.3952686e-05
-0.017728862
-0.00056636708
0.0001037453
-0.016947229
0.00018021074
-0.015948571
0.00058280337
0.00018970525
-0.015851855
0.0008951556
9.4858793e-05
-0.016869545
0.00090184182
6.0278926e-06
-0.017676541
0.00054961778
-5.4275769e-05
-0.018150129
-1.0843257e-05
-8.6277566e-05
-0.018361631
-0.00057553706
-9.9847959e-05
-0.018385279
-0.00093885567
-0.00010250036
-0.018226873
-0.00094319721
-9.785323e-05
-0.017818953
-0.00063020245
-8.7374565e-05
-0.017081691
-7.1956689e-05
-0.01611556
0.00062523716
-7.9970061e-05
-0.016130525
0.00093574067
-0.00010275992
-0.017094244
0.00092744312
-0.00011732438
-0.017830313
0.00055778696
-0.00012375563
-0.018237441
-1.5563686e-05
-0.00012191254
-0.018393442
-0.00058585637
-0.0001093713
-0.018363078
-0.0009461452
-7.9402695e-05
-0.018137291
-0.00094170759
-2.1516721e-05
-0.017638498
-0.00062249821
6.8200548e-05
-0.016795852
0.00017129406
-0.015741489
0.00067343893
0.00011871606
-0.015715224
0.00099625292
1.9518205e-05
-0.016787954
0.00099386983
-6.5222292e-05
-0.017647588
0.00062227999
-0.00012145345
-0.018156565
4.0253496e-05
-0.00015224416
-0.018387363
-0.00054284935
-0.00016580293
-0.018419164
-0.00091889479
-0.0001671435
-0.018262062
-0.00093044898
-0.00015707424
-0.017852803
-0.00062162676
-0.00013480866
-0.017115889
-9.9368723e-05
-0.016155459
0.00062098263
-0.00014093755
-0.016171171
0.00092885205
-0.0001879664
-0.017132055
0.0009153294
-0.00022441843
-0.01787389
0.00053441453
-0.00024268929
-0.018289068
-5.6455261e-05
-0.00024364752
-0.018451243
-0.000646871
-0.00022873819
-0.018424195
-0.0010248137
-0.00019498483
-0.01820059
-0.001029863
-0.0001364026
-0.017705209
-0.00070365821
-5.3732596e-05
-0.016867117
3.4276737e-05
-0.015819796
0.0007068498
-4.340463e-05
-0.015929269
0.0010352895
-0.00013668252
-0.016939189
0.001032944
-0.00022349936
-0.017746675
0.00065540424
-0.00028806507
-0.018221495
6.2517668e-05
-0.00032530056
-0.018433005
-0.00053185032
-0.00034012338
-0.018452098
-0.00091499764
-0.00033370988
-0.018282485
-0.00092998801
-0.00030226144
-0.017858092
-0.00062438926
-0.00024736244
-0.017106004
-0.00017755575
-0.016141158
0.00062417862
-0.00021512847
-0.015982168
0.00092247397
-0.00026050001
-0.016963544
0.00090615257
-0.00032957696
-0.017731421
0.00052702279
-0.00037445707
-0.018166618
-6.0963738e-05
-0.00038743661
-0.01834373
-0.00064630797
-0.00037433318
-0.018332462
-0.0010169916
-0.00033511934
-0.018131365
-0.0010172668
-0.00026485427
-0.017669274
-0.00069447987
-0.00017451066
-0.016874582
-0.00011564537
-0.015873918
0.00064958617
-6.2504557e-05
-0.015549488
0.00095344131
-0.00010726971
-0.016552948
0.00095620762
-0.00018282297
-0.01734601
0.00060846368
-0.00024807075
-0.017803328
5.5034417e-05
-0.00028374699
-0.017998185
-0.00050154558
-0.00029416543
-0.018003453
-0.0008588679
-0.00027882457
-0.017819655
-0.00087275115
-0.00023190537
-0.017374285
-0.00059194765
-0.00017027397
-0.016592541
-0.00013331204
-0.015596603
0.00048869993
-4.2450898e-05
-0.01491218
0.00073904249
1.7775831e-05
-0.015888477
0.00073768706
-1.0635106e-05
-0.016664745
0.00043459553
-4.0833135e-05
-0.017117008
-4.725449e-05
-4.9756603e-05
-0.017308526
-0.00052607175
-4.2271618e-05
-0.017307151
-0.00081991991
-1.8969856e-05
-0.017112615
-0.00080596914
2.3623865e-05
-0.016656794
-0.00053550463
6.0908134e-05
-0.015876876
5.4918204e-06
-0.014898118
0.00036295957
0.00014074673
-0.013971787
0.00058709799
0.00021349466
-0.014865862
0.00061662778
0.00021544921
-0.01560177
0.00040405079
0.00020351087
-0.016055051
3.9619295e-05
0.00019783826
-0.01625802
-0.00032746792
0.00019310017
-0.016257213
-0.00054828042
0.00018975404
-0.016052885
-0.00053200178
0.0001941123
-0.015598916
-0.00032480242
0.00018689668
-0.014863078
0.00011135125
-0.013969336
0.00017201211
-0.013008147
0.00038246431
-0.01374325
0.00033519599
-0.014422336
0.00023507497
-0.014880021
-3.3612677e-05
-0.015108092
-0.00029988714
-0.01510993
-0.00039280555
-0.01488526
-0.00042882498
-0.014430106
-0.00020398093
-0.01375247
-0.013017987
-1.1714935e-05
0.00015804621
7.8408443e-05
-0.00023880202
-0.013003925
-0.012450274
5.4476285e-05
-0.00011079886
-0.012441182
7.3776143e-05
-0.0001180006
3.5132889e-05
-0.012446423
4.8003721e-05
-7.9411554e-05
3.6649156e-05
-0.012446352
3.0665924e-05
-5.2884387e-05
2.2147369e-05
-0.012443522
2.8754989e-05
-4.3556952e-05
1.1971927e-05
-0.012442042
1.7814334e-05
-3.5765925e-05
1.6471586e-05
-0.012445612
1.5987231e-05
-3.0289227e-05
1.7871442e-05
-0.01244997
1.1364404e-05
-2.5738226e-05
1.8731969e-05
-0.012454465
1.0552001e-05
-2.3338029e-05
1.72816e-05
-0.012457981
1.0115332e-05
-2.2509338e-05
1.5909795e-05
-0.012460635
1.0211339e-05
-2.2418087e-05
1.486047e-05
-0.012462698
1.0242555e-05
-2.2512656e-05
1.4333402e-05
-0.012464501
1.0256386e-05
-2.2571172e-05
1.411788e-05
-0.012466254
1.021313e-05
-2.2533144e-05
1.4072866e-05
-0.012468067
1.0119728e-05
-2.2388724e-05
1.4081774e-05
-0.012470011
9.9894484e-06
-2.2145982e-05
1.4100615e-05
-0.012472121
9.812239e-06
-2.1803337e-05
1.4101478e-05
-0.012474414
9.5811827e-06
-2.1348044e-05
1.4059247e-05
-0.012476922
9.2958278e-06
-2.0771833e-05
1.3984114e-05
-0.012479662
8.9419919e-06
-2.0060068e-05
1.385784e-05
-0.012482642
8.5287199e-06
-1.9220327e-05
1.3671696e-05
-0.012485829
8.0856863e-06
-1.8324261e-05
1.342563e-05
-0.012489104
7.6723554e-06
-1.7507405e-05
1.3110375e-05
-0.012492204
7.3875334e-06
-1.6997948e-05
1.271071e-05
-0.012494677
7.376474e-06
-1.712896e-05
1.222486e-05
-0.012495821
7.8209948e-06
-1.833088e-05
1.1653955e-05
-0.012494584
8.9075375e-06
-2.1128614e-05
1.0984615e-05
-0.012489496
1.0768644e-05
-2.6061904e-05
1.0204443e-05
-0.01247883
1.3296608e-05
-3.3278958e-05
9.3168322e-06
-0.012461395
1.5755366e-05
-4.1450958e-05
8.2610215e-06
-0.012438344
1.6496393e-05
-4.6433918e-05
6.886211e-06
-0.012414833
1.3411032e-05
-4.1931239e-05
5.0089518e-06
-0.01239864
5.3697101e-06
-2.4125349e-05
2.5624012e-06
-6.6162284e-06
4.393941e-06
-2.6482563e-07
0.011886253
1.9358855e-05
-6.4912577e-06
0.01187636
1.6056826e-05
-6.163469e-06
0.011868946
1.3263876e-05
-5.8495188e-06
0.011863569
1.0929237e-05
-5.5527814e-06
0.011859829
9.005066e-06
-5.2644766e-06
0.011857383
7.429778e-06
-4.9840146e-06
0.011855945
6.1707923e-06
-4.7332129e-06
0.011855299
5.1388579e-06
-4.492031e-06
0.011855232
4.3504196e-06
-4.2839265e-06
0.011855565
3.7541907e-06
-4.0867705e-06
0.011856198
3.2624506e-06
-3.8958299e-06
0.011857045
2.8758104e-06
-3.7228103e-06
0.011858033
2.5721098e-06
-3.55963e-06
0.011859106
2.3224732e-06
-3.396354e-06
0.011860226
2.1302121e-06
-3.2502393e-06
0.011861364
1.9886151e-06
-3.1265837e-06
0.011862494
1.879071e-06
-3.009155e-06
0.011863562
1.8204275e-06
-2.8883777e-06
0.011864457
1.8474486e-06
-2.7418422e-06
0.011865055
2.0040768e-06
-2.6024519e-06
0.01186504
2.429901e-06
-2.4150597e-06
0.011864916
2.902063e-06
-2.7778578e-06
0.011864859
3.5802324e-06
-3.5233196e-06
0.01187075
2.2422814e-06
-8.1326328e-06
0.011877618
3.0700425e-06
-9.9381307e-06
0.011901166
-2.5281979e-06
-2.1020544e-05
0.011926287
-1.9792092e-06
-2.3141332e-05
0.011977593
-1.0322056e-05
-4.0984248e-05
0.012072337
-2.7103136e-05
-6.7640603e-05
1.4108208e-07
-4.8402066e-05
-0.012397571
-1.4387524e-05
-0.00015438634
-0.012310776
-2.4757095e-05
-8.9141804e-05
-0.012269651
-7.2538432e-06
-4.4192551e-05
-0.012245843
3.3615695e-06
-2.9148666e-05
-0.012229106
4.5485722e-06
-2.3813804e-05
-0.012220496
5.8327117e-06
-1.1372745e-05
-0.012219098
5.676742e-06
-4.8328592e-06
-0.012220386
5.6530433e-06
-7.8489703e-07
-0.012222265
5.2172244e-06
-4.3637193e-07
-0.012223426
4.6131456e-06
-1.0223335e-06
-0.012223688
4.1129887e-06
-1.8462862e-06
-0.012223257
3.8406361e-06
-2.4239338e-06
-0.012222415
3.7730527e-06
-2.7946884e-06
-0.012221364
3.8521376e-06
-3.0241895e-06
-0.012220222
4.0364931e-06
-3.1899498e-06
-0.012219069
4.3067657e-06
-3.3293875e-06
-0.012217932
4.670616e-06
-3.4850259e-06
-0.012216848
5.143318e-06
-3.6561559e-06
-0.012215904
5.7436051e-06
-3.8111431e-06
-0.012215169
6.5032843e-06
-3.9757782e-06
-0.012214719
7.4672524e-06
-4.1629534e-06
-0.012214682
8.6726718e-06
-4.3596227e-06
-0.012215192
1.0227009e-05
-4.5776324e-06
-0.012216433
1.2210612e-05
-4.7994113e-06
-0.012218674
1.4686568e-05
-5.0152003e-06
-0.012222192
1.7769922e-05
-5.2471024e-06
-0.01222731
2.153256e-05
-5.4857779e-06
-0.012234403
2.6075836e-05
-5.7189606e-06
-0.012243885
3.1487437e-05
-5.9482737e-06
3.7865551e-05
-6.171836e-06
0.012828983
5.4878436e-05
-6.344942e-06
0.012820699
4.5943149e-05
-6.1720888e-06
0.012814476
3.8279581e-05
-5.9806836e-06
0.012810004
3.1774747e-05
-5.7700235e-06
0.01280698
2.6336393e-05
-5.5423079e-06
0.01280513
2.1851411e-05
-5.3150446e-06
0.012804213
1.8221222e-05
-5.0935316e-06
0.012803979
1.5322358e-05
-4.8611547e-06
0.012804234
1.3037814e-05
-4.6199796e-06
0.012804849
1.1252019e-05
-4.4004943e-06
0.012805726
9.8352021e-06
-4.2084174e-06
0.012806794
8.7128648e-06
-4.0374289e-06
0.012807978
7.8322838e-06
-3.8727289e-06
0.012809186
7.1521749e-06
-3.6895273e-06
0.012810377
6.6302197e-06
-3.5145267e-06
0.012811526
6.235856e-06
-3.3484749e-06
0.012812543
5.9685121e-06
-3.133328e-06
0.01281327
5.8483865e-06
-2.8021155e-06
0.012813436
5.9184925e-06
-2.2436782e-06
0.012812649
6.239489e-06
-1.339501e-06
0.012810514
6.849009e-06
-1.0170916e-07
0.012807008
7.7288546e-06
9.9450519e-07
0.012803144
8.9000882e-06
6.1742588e-07
0.012801984
1.0489832e-05
-3.6536373e-06
0.012809177
1.239976e-05
-1.3759711e-05
0.012828157
1.3511189e-05
-2.7942861e-05
0.012857253
1.217084e-05
-3.7904989e-05
0.012899162
4.4709674e-06
-5.3633866e-05
0.012993971
-2.8968634e-06
-0.00011666925
7.7761539e-05
-0.00022688007
-0.013631138
5.2901138e-05
-0.00025657396
-0.013516144
1.675808e-05
-0.00013464909
-0.013461334
1.3542951e-05
-6.3881611e-05
-0.013421625
1.7202131e-05
-4.4740115e-05
-0.013395363
1.83487e-05
-3.1100177e-05
-0.01338538
1.6953082e-05
-1.4535743e-05
-0.013386287
1.4370712e-05
-2.9743425e-06
-0.013390927
1.1939383e-05
1.6013358e-06
-0.013395213
1.0189562e-05
1.8247307e-06
-0.013397823
9.0481521e-06
4.1135248e-07
-0.013398858
8.3756329e-06
-1.1011047e-06
-0.013398817
8.0735891e-06
-2.1964905e-06
-0.013398155
8.0561413e-06
-2.8695944e-06
-0.013397172
8.2511629e-06
-3.2659845e-06
-0.013396031
8.6138922e-06
-3.5188481e-06
-0.01339482
9.1297327e-06
-3.7109664e-06
-0.013393566
9.8033634e-06
-3.9043751e-06
-0.013392304
1.0672053e-05
-4.1018889e-06
-0.013391096
1.179706e-05
-4.292644e-06
-0.013390009
1.3236467e-05
-4.488136e-06
-0.013389115
1.5058889e-05
-4.7009685e-06
-0.01338849
1.736273e-05
-4.9499857e-06
-0.013388253
2.0294551e-05
-5.208794e-06
-0.013388581
2.4002627e-05
-5.4541199e-06
-0.013389658
2.8621851e-05
-5.6929009e-06
-0.013391662
3.4272063e-05
-5.9321937e-06
-0.013394773
4.1041745e-05
-6.1556739e-06
-0.013399131
4.8985526e-05
-6.3477008e-06
-0.013404805
5.8117709e-05
-6.5003109e-06
6.8496078e-05
-6.612434e-06
0.013795479
7.6167249e-05
-6.6657192e-06
0.013794071
6.6179516e-05
-6.6540406e-06
0.01379276
5.6868724e-05
-6.5725259e-06
0.013791866
4.8358123e-05
-6.4227187e-06
0.013791514
4.0842095e-05
-6.2178644e-06
0.013791685
3.4428427e-05
-5.9768692e-06
0.013792291
2.9114945e-05
-5.7189381e-06
0.013793227
2.4811284e-05
-5.4525643e-06
0.013794384
2.1385457e-05
-5.1793028e-06
0.01379567
1.868518e-05
-4.9127055e-06
0.013797022
1.6559115e-05
-4.6746392e-06
0.013798384
1.4888427e-05
-4.4529729e-06
0.013799716
1.3578925e-05
-4.2394843e-06
0.013800994
1.2556059e-05
-4.0307096e-06
0.013802194
1.1755733e-05
-3.8259147e-06
0.013803291
1.1129784e-05
-3.6124976e-06
0.013804216
1.0660855e-05
-3.3349594e-06
0.013804825
1.0351404e-05
-2.903943e-06
0.013804848
1.0222961e-05
-2.1729332e-06
0.013803872
1.0324692e-05
-9.7308385e-07
0.013801473
1.0730803e-05
7.1641163e-07
0.013797745
1.1535542e-05
2.3817393e-06
0.013794425
1.2833863e-05
2.4263558e-06
0.013796197
1.4589275e-05
-1.9907385e-06
0.013810528
1.6291114e-05
-1.3668857e-05
0.013843109
1.6991452e-05
-3.1223755e-05
0.013891564
1.6175626e-05
-4.7428967e-05
0.013960089
1.5334239e-05
-7.0316343e-05
0.014100881
2.1604141e-05
-0.00014563776
7.5350481e-05
-0.00027184478
-0.01434097
1.014753e-05
-0.00027976472
-0.01417886
1.0562483e-05
-0.00015106836
-0.014101836
1.1004843e-05
-7.2694786e-05
-0.01404964
1.1322863e-05
-4.7343044e-05
-0.014014095
1.1471556e-05
-3.0025887e-05
-0.013996871
1.1503946e-05
-1.2436255e-05
-0.013992735
1.1516723e-05
-1.0632489e-06
-0.013994532
1.1555556e-05
3.0745332e-06
-0.013997451
1.1650782e-05
2.8038411e-06
-0.013999496
1.1804894e-05
9.708687e-07
-0.014000372
1.2023306e-05
-8.2255656e-07
-0.014000379
1.230981e-05
-2.0789926e-06
-0.013999859
1.2673293e-05
-2.84216e-06
-0.013998993
1.3090748e-05
-3.2958423e-06
-0.01399802
1.3749979e-05
-3.593937e-06
-0.013996862
1.4427939e-05
-3.8295284e-06
-0.013995579
1.5322992e-05
-4.0497858e-06
-0.013994172
1.6449047e-05
-4.2773877e-06
-0.013992643
1.7875941e-05
-4.5166357e-06
-0.013991002
1.9687077e-05
-4.7688497e-06
-0.013989228
2.1950508e-05
-5.0389782e-06
-0.013987437
2.4924292e-05
-5.3307114e-06
-0.013985622
2.8632313e-05
-5.6358119e-06
-0.013983821
3.3255782e-05
-5.9411486e-06
-0.013982059
3.8900739e-05
-6.2345959e-06
-0.013980297
4.557904e-05
-6.4991068e-06
-0.013978352
5.3124546e-05
-6.7117238e-06
-0.013975788
6.1148195e-05
-6.843415e-06
-0.013971819
6.9098839e-05
-6.8881238e-06
7.6532442e-05
-6.8498986e-06
0.013969947
6.9999287e-05
-6.7934582e-06
0.013979114
6.6663892e-05
-6.7325407e-06
0.013985597
6.1322055e-05
-6.6569644e-06
0.013990505
5.4739948e-05
-6.5230966e-06
0.013994514
4.7892903e-05
-6.3230538e-06
0.013997973
4.1508603e-05
-6.0664479e-06
0.014001034
3.5965437e-05
-5.7711044e-06
0.014003761
3.1363617e-05
-5.4581788e-06
0.014006184
2.7644894e-05
-5.1440284e-06
0.014008289
2.4687507e-05
-4.8419617e-06
0.01401018
2.2352566e-05
-4.5557454e-06
0.014011838
2.0502316e-05
-4.2846778e-06
0.014013283
1.9033254e-05
-4.0289193e-06
0.014014534
1.7862822e-05
-3.7909762e-06
0.014015605
1.6915948e-05
-3.5597618e-06
0.014016535
1.6131818e-05
-3.3113865e-06
0.014017163
1.5465861e-05
-3.0033158e-06
0.014017508
1.4868897e-05
-2.5405269e-06
0.014017313
1.4271668e-05
-1.7669941e-06
0.014016244
1.3594424e-05
-5.0153594e-07
0.014014001
1.2744586e-05
1.3026568e-06
0.014010885
1.1621751e-05
3.1449653e-06
0.014008895
1.0121345e-05
3.4242202e-06
0.014012848
8.2749901e-06
-7.1047558e-07
0.0140299
6.5370237e-06
-1.2085045e-05
0.0140653
5.7573757e-06
-2.9686728e-05
0.01411737
6.269707e-06
-4.7016669e-05
0.014194289
6.4799988e-06
-7.2393955e-05
0.014356423
-7.2036223e-07
-0.00015085121
-5.5475224e-05
-0.00027969483
-0.014143907
-3.3941007e-05
-0.00027138856
-0.014003117
3.2823226e-06
-0.00014479355
-0.013934858
7.4617326e-06
-6.923995e-05
-0.013886751
4.4492699e-06
-4.6287405e-05
-0.013854559
3.6174732e-06
-3.0051585e-05
-0.013840682
5.1283188e-06
-1.2468339e-05
-0.013839411
7.785255e-06
-7.8106482e-07
-0.013843259
1.0346731e-05
3.6220048e-06
-0.013847516
1.2325773e-05
3.5535551e-06
-0.013850435
1.3805134e-05
1.858646e-06
-0.013851912
1.4932812e-05
1.3862713e-07
-0.013852362
1.5814532e-05
-1.0931107e-06
-0.013852184
1.6547661e-05
-1.8564774e-06
-0.013851629
1.7233726e-05
-2.3232288e-06
-0.013850812
1.7954641e-05
-2.6403116e-06
-0.013849763
1.8775706e-05
-2.9088214e-06
-0.013848483
1.974136e-05
-3.1581829e-06
-0.013846949
2.0913892e-05
-3.4140743e-06
-0.013845112
2.2367766e-05
-3.7032533e-06
-0.01384292
2.4177493e-05
-4.0160574e-06
-0.013840323
2.643346e-05
-4.3436833e-06
-0.013837245
2.9262525e-05
-4.6951217e-06
-0.013833604
3.2792722e-05
-5.0699493e-06
-0.013829312
3.712293e-05
-5.4501129e-06
-0.013824248
4.2265727e-05
-5.8212888e-06
-0.013818219
4.8026098e-05
-6.1617712e-06
-0.013810864
5.3846333e-05
-6.4612549e-06
-0.013801508
5.8705372e-05
-6.7394262e-06
-0.013789107
6.1306895e-05
-7.0444465e-06
6.0845407e-05
-7.521523e-06
0.013389563
4.9405535e-05
-5.4386671e-06
0.013403322
5.2171076e-05
-4.6235718e-06
0.013414619
5.1736507e-05
-4.3284262e-06
0.013423995
4.8618601e-05
-4.1484244e-06
0.013431828
4.4163325e-05
-3.9692865e-06
0.01343837
3.9461921e-05
-3.7386944e-06
0.013443807
3.5137932e-05
-3.4523981e-06
0.013448312
3.1434382e-05
-3.1464219e-06
0.013452028
2.8384784e-05
-2.8375752e-06
0.0134551
2.590985e-05
-2.548456e-06
0.013457644
2.390939e-05
-2.2761644e-06
0.013459724
2.229254e-05
-2.0050103e-06
0.013461417
2.0971822e-05
-1.7506629e-06
0.01346282
1.9880545e-05
-1.5425685e-06
0.01346396
1.8970236e-05
-1.3341943e-06
0.013464826
1.8183972e-05
-1.0953021e-06
0.013465394
1.7480493e-05
-8.1498417e-07
0.013465544
1.6797802e-05
-4.0013807e-07
0.013465006
1.6061131e-05
2.9152472e-07
0.013463344
1.5186794e-05
1.4075217e-06
0.013460073
1.4131661e-05
2.9447968e-06
0.013455106
1.29101e-05
4.3832272e-06
0.013449774
1.1498223e-05
4.1800735e-06
0.013448199
9.7496174e-06
-3.8903736e-07
0.013457571
7.7328262e-06
-1.1977141e-05
0.01348331
6.4682778e-06
-2.8589268e-05
0.013522558
7.4852516e-06
-4.2284716e-05
0.01357699
1.456118e-05
-6.153141e-05
0.013691907
2.1040424e-05
-0.00013267454
-6.0908689e-05
-0.00025521775
-0.013058622
-0.00022382201
2.8007055e-05
-0.012963849
-0.00011288536
3.9151992e-05
-0.012922246
-4.9372526e-05
2.2331432e-05
-0.012893525
-3.346777e-05
1.2231186e-05
-0.012874982
-2.341628e-05
1.1341906e-05
-0.012868292
-9.1630955e-06
1.0206199e-05
-0.012869999
9.9238738e-07
1.0464399e-05
-0.012874415
5.2864957e-06
1.0627261e-05
-0.012878448
5.6774914e-06
1.1265759e-05
-0.012881065
4.5955189e-06
1.2153509e-05
-0.012882274
3.3817414e-06
1.3013992e-05
-0.012882451
2.5042297e-06
1.3733104e-05
-0.012881962
1.9815839e-06
1.4327277e-05
-0.012881043
1.6844729e-06
1.4877445e-05
-0.012879788
1.493129e-06
1.5436174e-05