/*--------------------------------*- C++ -*----------------------------------*\
| =========                 |                                                 |
| \\      /  F ield         | OpenFOAM: The Open Source CFD Toolbox           |
|  \\    /   O peration     | Version:  v2012                                 |
|   \\  /    A nd           | Website:  www.openfoam.com                      |
|    \\/     M anipulation  |                                                 |
\*---------------------------------------------------------------------------*/
FoamFile
{
    version     2.0;
    format      ascii;
    class       volVectorField;
    location    "145";
    object      U;
}
// * * * * * * * * * * * * * * * * * * * * * * * * * * * * * * * * * * * * * //

dimensions      [0 1 -1 0 0 0 0];


internalField   nonuniform List<vector> 
11751
(
(4.9853366 4.0527634e-05 -0.0027762374)
(4.9994191 -0.00015951359 -0.0021888195)
(5.010315 -0.00040195615 -0.0018434904)
(5.0188471 -0.00062810213 -0.0015867043)
(5.0256364 -0.00082253735 -0.0014305089)
(5.0310868 -0.00099278729 -0.0013439609)
(5.0355397 -0.0011273568 -0.0012882836)
(5.0392157 -0.0012382815 -0.0012393405)
(5.0422741 -0.0013263281 -0.0012006327)
(5.044847 -0.0013930937 -0.0011714321)
(5.0470328 -0.0014427716 -0.0011481588)
(5.0489126 -0.0014788821 -0.0011295712)
(5.0505335 -0.0015038589 -0.0011144285)
(5.0519499 -0.001519546 -0.0011027527)
(5.0531908 -0.0015275563 -0.0010934313)
(5.0542929 -0.001530001 -0.0010850526)
(5.0552711 -0.0015277759 -0.0010776269)
(5.0561494 -0.0015221339 -0.0010705229)
(5.0569403 -0.0015135209 -0.0010638282)
(5.057657 -0.0015030818 -0.0010569723)
(5.0583128 -0.0014909913 -0.001049693)
(5.0589106 -0.0014781902 -0.0010425207)
(5.0594723 -0.0014645954 -0.0010351184)
(5.0599824 -0.0014493321 -0.0010269101)
(5.0604848 -0.0014355329 -0.0010211223)
(5.0609246 -0.0014147024 -0.0010122254)
(5.0613794 -0.0014053442 -0.0010112006)
(5.0617434 -0.0013820898 -0.0010014574)
(5.062151 -0.0013794903 -0.0010059459)
(5.0624077 -0.0013750061 -0.0010024721)
(5.0628336 -0.0013411234 -0.00097348087)
(5.0614129 -0.0013609679 -0.002969675)
(5.0587798 -0.0012554567 -0.0049840455)
(5.0555688 -0.0010315496 -0.0067625207)
(5.0520064 -0.00077133893 -0.00818372)
(5.0480805 -0.00056934035 -0.0091998058)
(5.0435539 -0.00047032951 -0.0099974276)
(5.0384169 -0.00045985705 -0.010742683)
(5.0326596 -0.00052944503 -0.011612044)
(5.0263474 -0.0006790576 -0.012760528)
(5.0195941 -0.00092446392 -0.014372755)
(5.0125235 -0.0012942778 -0.01666762)
(5.0052807 -0.0018325508 -0.019958013)
(4.9979024 -0.0025654763 -0.024613083)
(4.9901455 -0.0034941241 -0.03109077)
(4.9812522 -0.0045423796 -0.039709811)
(4.9697546 -0.0055613669 -0.050614323)
(4.9531996 -0.0062985802 -0.063371474)
(4.9279108 -0.0062532051 -0.077003836)
(4.8890216 -0.0043197378 -0.088848268)
(4.8371326 1.0545055e-05 -0.094154684)
(4.8136873 0.0057455856 -0.084925908)
(4.8449966 0.0087659516 -0.064466942)
(4.8952035 0.0076316899 -0.044833748)
(4.9302895 0.0055615288 -0.03063008)
(4.9495847 0.0040704929 -0.020876548)
(4.9596843 0.0030798075 -0.013917022)
(4.9648279 0.0024973163 -0.0088002068)
(4.9673687 0.0021104708 -0.0048164588)
(4.9685248 0.0018750059 -0.0015103458)
(4.9683101 0.0056287792 -0.0013919038)
(4.9680967 0.008986752 -0.0011077715)
(4.9677957 0.011577344 -0.00068916401)
(4.9673566 0.013054751 -0.0002282891)
(4.9667396 0.013243934 0.00019915941)
(4.9659475 0.012286208 0.00054880625)
(4.9651106 0.010518347 0.00079365907)
(4.9643254 0.0082613698 0.0009453519)
(4.9637186 0.0058516925 0.0010367935)
(4.9633119 0.003453865 0.0010701641)
(4.9631148 0.0011306028 0.0010623558)
(4.9633564 0.0011797065 0.0033203594)
(4.963883 0.0012352484 0.0057644181)
(4.9647442 0.0012734603 0.0084812649)
(4.9660077 0.0013067841 0.01146825)
(4.9676642 0.0012870444 0.014587927)
(4.9697241 0.001199979 0.017692384)
(4.9721394 0.0010139788 0.020487699)
(4.9749063 0.00072806562 0.022722552)
(4.9780068 0.00036504284 0.024149596)
(4.9814317 -2.5842585e-05 0.024638029)
(4.9851511 -0.0003871216 0.024190055)
(4.9891226 -0.00067055625 0.022945268)
(4.9932935 -0.00085029449 0.021131084)
(4.9976099 -0.00092481872 0.019007067)
(5.0020206 -0.00091167621 0.016804633)
(5.006478 -0.00083981694 0.014694502)
(5.0109364 -0.00073722518 0.012776825)
(5.0153519 -0.00062674128 0.011089718)
(5.0196791 -0.00052327157 0.0096290435)
(5.0238711 -0.0004349898 0.0083649518)
(5.0278757 -0.00036495435 0.0072570998)
(5.0316369 -0.00031400168 0.0062615508)
(5.0350702 -0.00028203499 0.0053410893)
(5.038105 -0.00026651853 0.0044571157)
(5.040614 -0.00026626744 0.0035993314)
(5.0425681 -0.00027086632 0.0027506704)
(5.0439228 -0.00028307616 0.001928365)
(5.0447515 -0.00028677639 0.0011410989)
(5.0451153 -0.00029044505 0.00037267732)
(5.0464125 -0.00088312258 0.00037689714)
(5.049037 -0.0015161411 0.00037835605)
(5.0530444 -0.0022134556 0.00036624463)
(5.0582178 -0.0029883929 0.00035327409)
(5.0639116 -0.0037917154 0.00032499837)
(5.0693972 -0.0045745575 0.00026419182)
(5.0735177 -0.005169812 0.00014780755)
(5.0752811 -0.0053980319 -4.7134984e-05)
(5.0738204 -0.0049831016 -0.00034896643)
(5.068861 -0.0036754813 -0.00072282559)
(5.0674137 -0.0036347922 -0.0021405713)
(5.0725462 -0.0048852834 -0.00099518062)
(5.0742133 -0.0052537458 -0.0001012478)
(5.0726342 -0.0050186305 0.00046724146)
(5.0686487 -0.0044424639 0.00081319586)
(5.0633277 -0.0036913653 0.00099310359)
(5.0577158 -0.0029141012 0.0010806822)
(5.052626 -0.0021666267 0.0011208078)
(5.0486453 -0.0014867295 0.0011418694)
(5.0460258 -0.00086519573 0.0011463997)
(5.0451603 -0.00083852596 0.0019354701)
(5.0477312 -0.0014335098 0.001920447)
(5.051641 -0.0020775324 0.0018830001)
(5.0566273 -0.0027723439 0.0018078334)
(5.0621045 -0.0034823721 0.0016547679)
(5.0672393 -0.0041554785 0.0013506373)
(5.0709846 -0.004652966 0.00077224604)
(5.072239 -0.0048339767 -0.00016435856)
(5.0701814 -0.0044704524 -0.0016385444)
(5.0647166 -0.0033135714 -0.0035425588)
(5.0612273 -0.0027568176 -0.00479513)
(5.066888 -0.0038041641 -0.0022498651)
(5.0693369 -0.0042018693 -0.00026721512)
(5.068471 -0.0041246805 0.001018941)
(5.0650526 -0.003755353 0.0018371864)
(5.0601652 -0.0032025131 0.0022850117)
(5.054885 -0.0025871422 0.0025253133)
(5.0500491 -0.0019662065 0.0026534782)
(5.0462511 -0.001369717 0.0027189284)
(5.0437552 -0.00080553269 0.0027499601)
(5.0417621 -0.00078591807 0.0035768079)
(5.0441632 -0.0013228267 0.0035159297)
(5.0478136 -0.0018734736 0.0034007454)
(5.0524451 -0.0024223182 0.0031959243)
(5.0574678 -0.0029336799 0.0028375258)
(5.0620415 -0.0033514087 0.0022229976)
(5.0650843 -0.0035757665 0.0011582029)
(5.0655655 -0.0035309159 -0.00045357721)
(5.0628251 -0.0030788845 -0.0028623294)
(5.0572245 -0.0021385333 -0.0058722676)
(5.0527584 -0.0016572106 -0.0067507725)
(5.058119 -0.0025137586 -0.0034706171)
(5.0610381 -0.0030188534 -0.00072799068)
(5.060908 -0.0031745607 0.0011823307)
(5.0582652 -0.0030777816 0.0024978216)
(5.0540561 -0.0027753889 0.0033031551)
(5.0493411 -0.0023457442 0.0038062406)
(5.0449555 -0.0018469654 0.0041165895)
(5.0414833 -0.0013204753 0.0043037259)
(5.039196 -0.00079001072 0.0044094609)
(5.0361174 -0.00083627715 0.0052570436)
(5.0382816 -0.0013909701 0.0050918456)
(5.0415536 -0.0019299208 0.0048127949)
(5.0456646 -0.0024192184 0.0043708764)
(5.0500402 -0.0028090301 0.0036968945)
(5.0538603 -0.0030388242 0.0026779968)
(5.0561022 -0.0030436829 0.0011086977)
(5.0559049 -0.0027972838 -0.0010822291)
(5.0528546 -0.002237071 -0.0040918369)
(5.0477705 -0.0014146986 -0.0075187011)
(5.0422884 -0.0014023602 -0.0082747174)
(5.0471495 -0.0022661274 -0.0047597441)
(5.0503208 -0.0029067217 -0.0015175093)
(5.05083 -0.0032348632 0.00095342292)
(5.0489821 -0.0032883353 0.0027937485)
(5.0455566 -0.0030829327 0.0040542969)
(5.0415352 -0.0026810259 0.0049255987)
(5.0377123 -0.0021511518 0.0055202966)
(5.0346536 -0.001553347 0.0059076692)
(5.0326232 -0.00093399566 0.0061414454)
(5.028801 -0.0010903403 0.0070992444)
(5.030693 -0.0018196954 0.0067916885)
(5.0335326 -0.0025276473 0.0062844334)
(5.037061 -0.0031527695 0.0055174224)
(5.0407268 -0.0036285639 0.0044175272)
(5.0437634 -0.0038601455 0.0028749975)
(5.0452288 -0.0037787678 0.00073209966)
(5.0444127 -0.0033664618 -0.0020540502)
(5.0410982 -0.0026033332 -0.0055415857)
(5.0363508 -0.0016081316 -0.0091495139)
(5.0300121 -0.0020441167 -0.010265256)
(5.0347669 -0.0032790288 -0.0065128086)
(5.0382652 -0.0042205513 -0.0027228206)
(5.0393899 -0.0047228348 0.00044599308)
(5.0382958 -0.0047955527 0.002959573)
(5.035642 -0.0044760837 0.0048361149)
(5.0323272 -0.0038597983 0.0062007285)
(5.0290962 -0.0030677652 0.0071593479)
(5.0264776 -0.0021952837 0.0077926107)
(5.0247284 -0.0013073893 0.0081735021)
(5.0204672 -0.0015834119 0.0094116935)
(5.0220719 -0.0026795641 0.0089639644)
(5.024466 -0.0037821825 0.008205331)
(5.0274009 -0.0048169263 0.0070409674)
(5.0303669 -0.0056600187 0.005374953)
(5.0326455 -0.0061500151 0.0030956384)
(5.0333771 -0.0061396638 0.00011193818)
(5.0319352 -0.0055523434 -0.0035593718)
(5.0282067 -0.0043682722 -0.0077744032)
(5.0233268 -0.0027555439 -0.011781369)
(5.0163998 -0.0038226331 -0.013880151)
(5.0214723 -0.0059760733 -0.0094394513)
(5.0254704 -0.0074695611 -0.0045982454)
(5.0272348 -0.0081164246 -0.0002413597)
(5.0268586 -0.0079752552 0.0033545428)
(5.0249504 -0.0072015625 0.0061190733)
(5.0223328 -0.0060240809 0.0081207882)
(5.0196957 -0.0046592966 0.0094933455)
(5.0175281 -0.0032610012 0.010364394)
(5.0160699 -0.0019091619 0.010861165)
(5.0115838 -0.0022603291 0.01256084)
(5.0128927 -0.0039004054 0.012046191)
(5.0148283 -0.0056498403 0.01109671)
(5.0171602 -0.0074341082 0.0095368929)
(5.0194233 -0.0090685641 0.0071796209)
(5.0209583 -0.010272403 0.0038422977)
(5.0209812 -0.010700622 -0.00054474588)
(5.0188992 -0.010072093 -0.0058551075)
(5.0146281 -0.008227293 -0.011640412)
(5.0093197 -0.0053462144 -0.016802837)
(5.0020981 -0.0074011309 -0.020826633)
(5.0076167 -0.0111746 -0.014495429)
(5.0121622 -0.013357635 -0.0073019865)
(5.0145746 -0.013824545 -0.00068153765)
(5.0149282 -0.012919649 0.0047039812)
(5.0137944 -0.011120062 0.0086864312)
(5.0119103 -0.0089141591 0.01138589)
(5.0099006 -0.0066481092 0.013079365)
(5.008207 -0.0045215661 0.014045022)
(5.007053 -0.002591812 0.01452514)
(5.0025198 -0.002832591 0.016725523)
(5.0035103 -0.0049976878 0.016347734)
(5.0049428 -0.0074635452 0.015457956)
(5.0065957 -0.010210242 0.013731365)
(5.0080441 -0.013047104 0.010759377)
(5.008697 -0.01558392 0.0061075549)
(5.0078717 -0.017179627 -0.00047173793)
(5.0050447 -0.017105141 -0.008832761)
(5.0001837 -0.014706289 -0.018067903)
(4.9944491 -0.0099490203 -0.026229897)
(4.9856597 -0.01276462 -0.033180256)
(4.9917018 -0.018418537 -0.022301587)
(4.9970947 -0.020766239 -0.010237724)
(5.0005984 -0.020157793 0.00030349452)
(5.002128 -0.017676549 0.0082023137)
(5.0021273 -0.014355425 0.013455616)
(5.0012224 -0.010947913 0.016556417)
(4.9999856 -0.0078364117 0.018172018)
(4.9988421 -0.0051634948 0.018870673)
(4.9980276 -0.0028927785 0.019064466)
(4.9936242 -0.0026807802 0.021362493)
(4.9942476 -0.0048436179 0.021423246)
(4.9950648 -0.0074764302 0.021033796)
(4.9958016 -0.010686559 0.019706287)
(4.9959924 -0.014419773 0.016699956)
(4.9950342 -0.018399027 0.011055806)
(4.9923339 -0.021842357 0.0018805197)
(4.9875603 -0.023473578 -0.011195801)
(4.9810591 -0.021593324 -0.026878561)
(4.9743647 -0.01538149 -0.041583523)
(4.9583746 -0.01703551 -0.050979195)
(4.9666115 -0.023171104 -0.031351832)
(4.9754335 -0.023878258 -0.011240774)
(4.9825761 -0.021053806 0.004411603)
(4.9872516 -0.016839028 0.014558742)
(4.9896313 -0.012631067 0.020222356)
(4.9903788 -0.009044468 0.022853737)
(4.9902386 -0.0061598411 0.023728176)
(4.9897835 -0.0039116215 0.023723313)
(4.9893618 -0.0021348552 0.023369183)
(4.9853002 -0.0012533399 0.024781879)
(4.9855219 -0.0023518192 0.025413895)
(4.9856022 -0.0038254621 0.025819965)
(4.9850806 -0.0058558467 0.025480044)
(4.983189 -0.0086004805 0.02345961)
(4.9788505 -0.01221361 0.018261192)
(4.9710826 -0.016453063 0.0078111979)
(4.9597087 -0.020233904 -0.0099843606)
(4.9463596 -0.021103583 -0.034715365)
(4.9346756 -0.016540147 -0.060187525)
(4.9001635 -0.011556586 -0.067232984)
(4.9192495 -0.012980802 -0.035651064)
(4.9407285 -0.010648006 -0.00728374)
(4.9585595 -0.0072387833 0.01133489)
(4.9704392 -0.0044208109 0.021211759)
(4.97706 -0.0025202846 0.02559315)
(4.9801405 -0.0013631673 0.02696182)
(4.9812918 -0.00067990529 0.026854971)
(4.9815497 -0.00030768978 0.026155688)
(4.9815022 -0.0001188901 0.025339727)
(4.9780218 0.0011144801 0.024865552)
(4.9779525 0.001930427 0.025718761)
(4.9774646 0.0028097246 0.026498182)
(4.9758725 0.0037295859 0.026765273)
(4.9719164 0.0046340453 0.025740754)
(4.9634556 0.0053684535 0.022035504)
(4.9477983 0.0056032866 0.01321797)
(4.9229089 0.0048903009 -0.0044911955)
(4.8904575 0.0029774552 -0.033584141)
(4.8583299 0.0007743817 -0.068857904)
(4.8398956 0.016076104 -0.061679244)
(4.8787924 0.020867564 -0.030029965)
(4.9159615 0.020816953 -0.0042379905)
(4.9430472 0.01798678 0.011545654)
(4.9595638 0.014506404 0.01977177)
(4.9683879 0.011228976 0.02351527)
(4.9725333 0.0084119685 0.024746015)
(4.9742373 0.0060251744 0.024688013)
(4.9747889 0.0040008438 0.024087309)
(4.9748986 0.0022582321 0.023361335)
(4.9721441 0.003149489 0.020979927)
(4.9720707 0.0055868918 0.021473139)
(4.9716158 0.0084249905 0.021732191)
(4.9701554 0.011780256 0.02132987)
(4.9665796 0.015719183 0.019532184)
(4.9590945 0.020255288 0.015272234)
(4.9454769 0.025023378 0.0071328451)
(4.9237572 0.02894055 -0.0064744748)
(4.8945774 0.029426779 -0.026327128)
(4.864566 0.023048895 -0.048696792)
(4.9046935 0.020533074 -0.036031005)
(4.9208274 0.027430332 -0.022168218)
(4.9378375 0.028647773 -0.0081034108)
(4.9515226 0.026114344 0.0030456805)
(4.9607136 0.022086713 0.010562561)
(4.9660007 0.017685044 0.015058511)
(4.9685496 0.01352681 0.017307478)
(4.9695347 0.0098021787 0.018153728)
(4.969778 0.0065546629 0.018250585)
(4.969762 0.0037163066 0.018019169)
(4.9677532 0.003972336 0.01478096)
(4.9678791 0.006949984 0.014801968)
(4.9678849 0.01026599 0.014441884)
(4.967438 0.013913124 0.013344639)
(4.965989 0.017713697 0.010983495)
(4.9628453 0.021301672 0.0067865062)
(4.9575008 0.023953703 0.00041680506)
(4.9500044 0.024662558 -0.0080119422)
(4.9414374 0.022094284 -0.017492089)
(4.9340459 0.015559636 -0.025849946)
(4.9509968 0.011642371 -0.018190738)
(4.9542168 0.01728315 -0.013110326)
(4.9582087 0.020351378 -0.0068550365)
(4.9618932 0.020836282 -0.00079991855)
(4.9645711 0.0193729 0.0041575327)
(4.9660701 0.016684572 0.0076784521)
(4.9666071 0.013449029 0.0098273779)
(4.9665854 0.010111785 0.010956525)
(4.9663565 0.0069348251 0.011439656)
(4.9661331 0.0040006459 0.011555344)
(4.964906 0.0038946736 0.0085209495)
(4.965206 0.0066991051 0.0083530018)
(4.9656026 0.0096505055 0.0078707113)
(4.9659666 0.012621648 0.0068833009)
(4.9660726 0.015306121 0.0051431893)
(4.9656677 0.017268146 0.0024554887)
(4.9646319 0.01793463 -0.0011328777)
(4.9630857 0.016848675 -0.0052701906)
(4.9614087 0.013778709 -0.0093070558)
(4.9601097 0.0089957589 -0.012408115)
(4.9648516 0.0073198533 -0.0079580762)
(4.9652457 0.011430516 -0.0061189819)
(4.9657633 0.014334103 -0.0036343274)
(4.9661665 0.015673167 -0.00099434667)
(4.9662658 0.015477516 0.0013841211)
(4.9660138 0.014023277 0.0032340624)
(4.9655078 0.011770501 0.0044798889)
(4.9649231 0.0091261208 0.0052255561)
(4.9644142 0.0063973196 0.005616254)
(4.964062 0.003745916 0.0057769996)
(4.9635514 0.0035957787 0.0033143427)
(4.9639386 0.0061084851 0.0032019167)
(4.9645148 0.0086533501 0.002953074)
(4.9652289 0.01105539 0.0024968065)
(4.9659593 0.013008865 0.001758422)
(4.9665738 0.014143158 0.00069190757)
(4.9669691 0.014081051 -0.00064473337)
(4.9671464 0.012650696 -0.0020939325)
(4.9671984 0.0099250871 -0.0034264638)
(4.9672306 0.006270225 -0.0043906515)
(4.9676344 0.0064375481 -0.0044158057)
(4.9677381 0.0021783115 -0.0049283638)
(4.9679768 0.0022059238 -0.0049750787)
(4.9682947 0.0022372109 -0.0050201124)
(4.9686034 0.0022715343 -0.0050673252)
(4.9689579 0.002301761 -0.0051054638)
(4.9693268 0.0023340351 -0.0051408527)
(4.9697254 0.0023634564 -0.0051710324)
(4.9701428 0.0023923015 -0.0051970571)
(4.9705886 0.0024187298 -0.0052171769)
(4.9710616 0.0024432383 -0.0052306001)
(4.9715689 0.0024654794 -0.0052357254)
(4.9721123 0.0024856439 -0.0052314207)
(4.9726976 0.0025033567 -0.0052158639)
(4.9733285 0.0025182376 -0.0051871659)
(4.9740111 0.0025295512 -0.0051426611)
(4.9747506 0.0025365775 -0.0050793851)
(4.9755543 0.0025381965 -0.004993258)
(4.97643 0.0025331855 -0.004879142)
(4.9773881 0.0025199362 -0.0047302874)
(4.9784417 0.0024964957 -0.0045381027)
(4.9796071 0.0024603393 -0.004291622)
(4.9809057 0.0024089732 -0.0039763883)
(4.982366 0.0023386114 -0.0035734097)
(4.9840269 0.0022454601 -0.0030580278)
(4.9859419 0.0021245688 -0.002398173)
(4.9881857 0.0019705921 -0.0015527469)
(4.9908602 0.0017780655 -0.00047122486)
(4.9941089 0.0015415876 0.00090811693)
(4.9981348 0.0012569022 0.0026508347)
(5.0031881 0.00092364474 0.0048093951)
(5.0095777 0.00054723908 0.0074296784)
(5.0177438 0.00013959967 0.010531587)
(5.0281421 -0.00027095229 0.01395839)
(5.0409668 -0.00064835697 0.017347157)
(5.0529329 -0.0037852838 0.0010948177)
(5.0478884 -0.0031091607 0.0010337032)
(5.0441076 -0.0025461308 0.00097622386)
(5.0413467 -0.0020828307 0.00092232656)
(5.0394068 -0.0017068707 0.00087196577)
(5.0381009 -0.0014018959 0.00082481154)
(5.0373045 -0.0011594982 0.00078122838)
(5.0368711 -0.00095669716 0.0007392126)
(5.0367535 -0.00081489891 0.00070544502)
(5.0368148 -0.00070690656 0.00067403777)
(5.0370312 -0.00061314546 0.00064202075)
(5.0373563 -0.00053796668 0.00061212482)
(5.0377535 -0.00047886616 0.0005845151)
(5.0381978 -0.00043274716 0.00055916455)
(5.0386695 -0.0003969393 0.00053595911)
(5.0391534 -0.00036911176 0.00051476529)
(5.0396402 -0.00034740683 0.00049540749)
(5.0401208 -0.00033070367 0.00047785663)
(5.0405913 -0.0003179381 0.00046197579)
(5.0410466 -0.00030817236 0.00044774625)
(5.0414882 -0.00030072188 0.000434983)
(5.041911 -0.00029497769 0.0004236616)
(5.0423233 -0.00029072094 0.00041351194)
(5.0427157 -0.00028754129 0.00040420312)
(5.0431048 -0.00028601993 0.00039646616)
(5.043468 -0.0002847392 0.00038811692)
(5.0438338 -0.00028689337 0.00038408586)
(5.0441522 -0.00028582191 0.00037750133)
(5.0444936 -0.0002909374 0.00037842925)
(5.0447253 -0.00028776586 0.00037710159)
(5.0460458 -0.00087152801 0.00037555547)
(5.0458092 -0.00087415886 0.00037242823)
(5.045479 -0.00087006846 0.00037328632)
(5.0451669 -0.00087183059 0.00037676247)
(5.0448135 -0.00087321721 0.00038257422)
(5.0444612 -0.00087759431 0.0003903968)
(5.0440847 -0.00088358251 0.00039918993)
(5.0437019 -0.00089236177 0.00040872091)
(5.0432995 -0.00090425389 0.00041923529)
(5.0428844 -0.00092050665 0.00043071373)
(5.0424501 -0.00094211673 0.0004434826)
(5.0420001 -0.00097070899 0.00045757706)
(5.0415334 -0.0010082036 0.00047318569)
(5.0410542 -0.0010572183 0.00049034965)
(5.0405657 -0.0011210259 0.00050918434)
(5.0400754 -0.0012032115 0.00052973546)
(5.0395936 -0.0013085357 0.00055205042)
(5.0391336 -0.0014438145 0.00057624121)
(5.0387136 -0.0016174402 0.00060236596)
(5.0383566 -0.0018394769 0.00063037893)
(5.0380962 -0.0021203729 0.00066029399)
(5.0379841 -0.0024629483 0.00069130983)
(5.0380635 -0.0029110046 0.00072507243)
(5.0384121 -0.003494214 0.00076198056)
(5.0391145 -0.0042248998 0.0008014792)
(5.0402981 -0.0051451992 0.00084400216)
(5.0420991 -0.0062869694 0.00088948623)
(5.044699 -0.0076966171 0.00093811149)
(5.0483037 -0.0094149529 0.00099006429)
(5.0531613 -0.011483423 0.0010457852)
(5.0541202 -0.01940705 0.00092994013)
(5.0496573 -0.015873866 0.00088846181)
(5.0464071 -0.012954039 0.00085062321)
(5.0441139 -0.010571213 0.00081565366)
(5.0425676 -0.0086485564 0.00078255717)
(5.0415922 -0.0071077765 0.00075105457)
(5.0410503 -0.0058853459 0.00072134445)
(5.040828 -0.0049182429 0.00069292641)
(5.0408425 -0.0041654545 0.00066554688)
(5.0410294 -0.0035835903 0.00063951549)
(5.0413406 -0.0031193774 0.0006142717)
(5.0417314 -0.0027519811 0.00058978271)
(5.0421719 -0.0024642697 0.00056612612)
(5.0426421 -0.0022398914 0.00054366932)
(5.0431252 -0.0020653897 0.0005225795)
(5.0436092 -0.0019297633 0.00050290307)
(5.0440856 -0.0018247756 0.00048468245)
(5.0445489 -0.0017438337 0.00046791354)
(5.044996 -0.001681606 0.00045254734)
(5.0454244 -0.0016339 0.00043852834)
(5.0458346 -0.0015975828 0.00042571273)
(5.046225 -0.0015700906 0.00041401218)
(5.0465998 -0.0015496569 0.00040312381)
(5.0469558 -0.001534523 0.00039297583)
(5.0473018 -0.0015239931 0.00038321636)
(5.0476278 -0.0015169903 0.00037488705)
(5.0479495 -0.0015137507 0.00036888119)
(5.0482392 -0.0015114824 0.00036586334)
(5.0485348 -0.0015155307 0.00036506637)
(5.0487656 -0.0015111135 0.00037067252)
(5.0528739 -0.0022188084 0.00036252242)
(5.0526701 -0.0022217784 0.00035744546)
(5.0524303 -0.002220878 0.00035776581)
(5.0521835 -0.002225105 0.00036091509)
(5.0519147 -0.0022321344 0.00036741138)
(5.0516358 -0.0022434732 0.00037628136)
(5.0513407 -0.0022597791 0.00038696856)
(5.0510318 -0.0022821291 0.00039803379)
(5.0507048 -0.0023117641 0.00040954303)
(5.0503591 -0.0023508002 0.00042180108)
(5.0499928 -0.0024017609 0.00043508079)
(5.049605 -0.0024680373 0.00044952634)
(5.0491956 -0.002553881 0.00046522676)
(5.0487651 -0.0026648979 0.00048222345)
(5.0483159 -0.0028081564 0.00050044853)
(5.0478512 -0.0029927242 0.00051971633)
(5.047377 -0.0032299834 0.00053983975)
(5.0469015 -0.0035346182 0.00056081838)
(5.0464373 -0.0039248188 0.00058248749)
(5.0459999 -0.0044238526 0.00060461611)
(5.0456142 -0.0050588474 0.00062702877)
(5.0453164 -0.0058648573 0.00064986795)
(5.0451487 -0.0069007682 0.00067359962)
(5.0451658 -0.0082267875 0.00069756193)
(5.0454412 -0.0099117129 0.00072136904)
(5.0460736 -0.012043118 0.00074456988)
(5.0471906 -0.014719993 0.00076704826)
(5.0489587 -0.018058999 0.00078912647)
(5.0515877 -0.022182198 0.00081188053)
(5.0553404 -0.027214171 0.0008362027)
(5.056175 -0.034625885 0.00084599993)
(5.0535281 -0.028122038 0.00082552386)
(5.0518487 -0.022853168 0.00080480116)
(5.0508706 -0.018627358 0.00078328647)
(5.0503929 -0.015265872 0.00076047881)
(5.050266 -0.012606752 0.00073632978)
(5.0503816 -0.010513734 0.00071115133)
(5.0506607 -0.0088715267 0.00068556865)
(5.0510465 -0.0075876367 0.00066022979)
(5.0514983 -0.006585323 0.00063567901)
(5.0519859 -0.0057990377 0.00061149176)
(5.0524853 -0.0051821237 0.0005876034)
(5.0529804 -0.0046989314 0.00056427895)
(5.0534616 -0.0043204796 0.00054175015)
(5.0539223 -0.0040242152 0.00052018034)
(5.0543585 -0.0037924163 0.00049954196)
(5.0547684 -0.0036110365 0.00048003882)
(5.0551512 -0.0034690626 0.00046184492)
(5.0555071 -0.0033578198 0.00044499986)
(5.055837 -0.0032706607 0.00042947404)
(5.0561426 -0.0032022316 0.00041515023)
(5.0564253 -0.0031486698 0.00040190016)
(5.0566881 -0.0031065323 0.00038937285)
(5.0569316 -0.003073845 0.00037725472)
(5.0571613 -0.0030483116 0.00036538799)
(5.0573746 -0.0030294907 0.0003555841)
(5.0575795 -0.0030156913 0.00034804993)
(5.0577644 -0.0030066264 0.00034428135)
(5.0579449 -0.0030014766 0.00034385623)
(5.0580895 -0.0029979824 0.00034921988)
(5.0638344 -0.0038132766 0.00032090722)
(5.0637486 -0.0038205565 0.0003168399)
(5.0636313 -0.0038350287 0.00031758728)
(5.0635167 -0.0038524336 0.00032149414)
(5.0633795 -0.0038768169 0.00033100517)
(5.0632388 -0.0039059965 0.00034241866)
(5.0630798 -0.0039431902 0.00035579624)
(5.0629098 -0.0039879067 0.00036925753)
(5.0627185 -0.0040434739 0.00038332492)
(5.0625079 -0.0041113042 0.00039817665)
(5.0622716 -0.0041956419 0.0004143569)
(5.0620086 -0.0043002372 0.00043193058)
(5.0617145 -0.0044310561 0.00045114159)
(5.061387 -0.0045950805 0.00047205027)
(5.0610227 -0.0048017905 0.00049476449)
(5.0606191 -0.0050631365 0.00051932356)
(5.0601738 -0.0053945696 0.00054578253)
(5.0596856 -0.0058158067 0.00057421132)
(5.0591541 -0.006352167 0.00060462393)
(5.0585809 -0.0070365998 0.00063693396)
(5.0579707 -0.0079106935 0.00067088009)
(5.0573326 -0.0090290831 0.00070648122)
(5.0566798 -0.010464119 0.00074388393)
(5.0560329 -0.012306305 0.00078294336)
(5.0554244 -0.014668568 0.00082349932)
(5.0549042 -0.017693503 0.00086540859)
(5.0545493 -0.021556884 0.00090895851)
(5.0544774 -0.026473805 0.00095449899)
(5.0548625 -0.032696034 0.0010013732)
(5.0559546 -0.040507626 0.0010482944)
(5.0540812 -0.045237982 0.0013117118)
(5.0550271 -0.036386715 0.0012116973)
(5.0562739 -0.029452195 0.0011183618)
(5.0576246 -0.024041753 0.0010330428)
(5.0589607 -0.019830885 0.00095580879)
(5.0602202 -0.016556424 0.0008860722)
(5.0613759 -0.014010212 0.00082307914)
(5.0624195 -0.012028488 0.00076604258)
(5.0633517 -0.010484465 0.00071427305)
(5.0641784 -0.0092788009 0.00066717551)
(5.0649076 -0.0083341109 0.00062414675)
(5.0655474 -0.0075912898 0.00058479025)
(5.066106 -0.007005191 0.00054869825)
(5.0665921 -0.0065407641 0.00051567416)
(5.0670135 -0.0061710529 0.00048535634)
(5.0673772 -0.0058753724 0.00045766532)
(5.0676903 -0.0056373007 0.00043225836)
(5.0679584 -0.005444643 0.00040910453)
(5.0681877 -0.0052872343 0.00038789486)
(5.0683824 -0.0051581775 0.00036869732)
(5.0685488 -0.0050507973 0.00035103861)
(5.0686887 -0.0049617419 0.0003349762)
(5.0688094 -0.0048855213 0.00031969158)
(5.0689098 -0.004821726 0.00030526291)
(5.0690006 -0.0047653838 0.00029034878)
(5.0690745 -0.0047191993 0.00027767687)
(5.069147 -0.0046768565 0.00026698107)
(5.0691982 -0.0046455599 0.00026218761)
(5.0692627 -0.0046150252 0.00026034773)
(5.0692867 -0.004597628 0.00026394642)
(5.0734705 -0.0052017821 0.00015154292)
(5.0734744 -0.0052424198 0.00015170176)
(5.0734591 -0.0052893048 0.00015556122)
(5.0734442 -0.0053397665 0.0001625385)
(5.0734188 -0.0054001416 0.00017353986)
(5.0733864 -0.0054660664 0.00018717831)
(5.0733427 -0.0055410824 0.0002024972)
(5.0732864 -0.0056237993 0.00021790875)
(5.0732119 -0.0057177179 0.00023394757)
(5.0731163 -0.0058239207 0.00025097552)
(5.0729937 -0.005947105 0.0002698013)
(5.0728395 -0.0060911746 0.00029077808)
(5.0726476 -0.0062610519 0.00031407592)
(5.0724107 -0.0064637385 0.00034002503)
(5.0721211 -0.0067072767 0.00036886425)
(5.0717689 -0.0070037078 0.00040111116)
(5.0713437 -0.0073669456 0.00043706795)
(5.0708319 -0.0078166288 0.00047731689)
(5.0702192 -0.0083767453 0.00052243957)
(5.0694866 -0.0090805583 0.00057328687)
(5.0686134 -0.0099698329 0.0006307492)
(5.0675739 -0.011101562 0.00069608764)
(5.0663384 -0.012550398 0.00077102726)
(5.0648725 -0.014415559 0.00085775045)
(5.0631386 -0.016827308 0.00095846546)
(5.0610965 -0.019959989 0.0010752995)
(5.0587123 -0.024044712 0.001210479)
(5.0559693 -0.02939227 0.0013660759)
(5.0528903 -0.03640895 0.0015425831)
(5.0495596 -0.04561449 0.0017368428)
(5.0406699 -0.046285555 0.0015844908)
(5.046861 -0.036963876 0.001347487)
(5.0520552 -0.029954711 0.0011434457)
(5.0563539 -0.024651435 0.00097139939)
(5.0598732 -0.020615903 0.00082758975)
(5.0627399 -0.017527189 0.00070766888)
(5.0650766 -0.015143813 0.00060671625)
(5.0669843 -0.01329178 0.00052133847)
(5.0685434 -0.011843735 0.0004487709)
(5.06982 -0.010703059 0.00038635636)
(5.0708664 -0.0097976668 0.00033233466)
(5.0717263 -0.0090724813 0.0002851088)
(5.0724321 -0.0084875632 0.00024371307)
(5.0730121 -0.0080108941 0.00020730857)
(5.0734869 -0.0076195953 0.00017511209)
(5.0738754 -0.0072945732 0.00014653086)
(5.074191 -0.007022362 0.00012115332)
(5.0744469 -0.0067914875 9.8845461e-05)
(5.0746524 -0.006593903 7.9060244e-05)
(5.0748167 -0.0064224822 6.11122e-05)
(5.0749461 -0.0062738101 4.3894014e-05)
(5.075049 -0.0061434148 2.8049141e-05)
(5.0751272 -0.0060249719 1.4214612e-05)
(5.0751856 -0.0059163212 1.4802512e-06)
(5.0752278 -0.0058181935 -1.0281278e-05)
(5.0752588 -0.0057281512 -2.0602401e-05)
(5.0752803 -0.0056493097 -2.8424105e-05)
(5.0752959 -0.0055773503 -3.4622078e-05)
(5.0753051 -0.0055144272 -3.8248229e-05)
(5.0753076 -0.0054605924 -3.8630935e-05)
(5.0737977 -0.0050622347 -0.0003385285)
(5.0737248 -0.0051112235 -0.00033755326)
(5.0736463 -0.0051759461 -0.00033540803)
(5.0735531 -0.0052519067 -0.00033273409)
(5.073457 -0.0053323842 -0.00032969926)
(5.073342 -0.0054246137 -0.00032498727)
(5.0732167 -0.0055208955 -0.00032008497)
(5.0730674 -0.0056281732 -0.00031514383)
(5.072897 -0.0057432565 -0.00031013038)
(5.072695 -0.0058702289 -0.00030423414)
(5.0724592 -0.0060092395 -0.0002975811)
(5.0721774 -0.0061647506 -0.00028893129)
(5.0718453 -0.0063380917 -0.0002789927)
(5.0714474 -0.0065359819 -0.00026622423)
(5.070976 -0.0067615173 -0.00025075069)
(5.0704099 -0.0070242246 -0.00023185744)
(5.0697352 -0.0073310311 -0.0002091363)
(5.068923 -0.0076959093 -0.0001819553)
(5.0679485 -0.0081321784 -0.00014908379)
(5.0667701 -0.0086620011 -0.00010929969)
(5.0653447 -0.0093107595 -6.0956464e-05)
(5.0636082 -0.01011628 -1.9384352e-06)
(5.0614874 -0.011126875 7.053337e-05)
(5.0588842 -0.012411887 0.00016069302)
(5.0556792 -0.014062991 0.0002721003)
(5.0517053 -0.016212865 0.00040744403)
(5.0467663 -0.019049533 0.00057557793)
(5.0406282 -0.022857567 0.00078374499)
(5.0330218 -0.02805828 0.0010306706)
(5.023644 -0.035287522 0.0013454917)
(5.0611773 -0.00097077237 0.003702635)
(5.0497192 -0.00080864797 0.003572228)
(5.0390586 -0.00061664753 0.0034113684)
(5.0293092 -0.00040858519 0.0032320468)
(5.0205237 -0.00019681053 0.0030450653)
(5.0127061 9.1612504e-06 0.0028587215)
(5.0058233 0.00020252778 0.0026786441)
(4.9998161 0.00037841756 0.0025088279)
(4.9946091 0.0005342157 0.0023517321)
(4.9901195 0.00066926192 0.0022084856)
(4.9862638 0.0007842176 0.0020792791)
(4.9829613 0.00088048708 0.0019635846)
(4.9801377 0.00095996234 0.0018605891)
(4.9777254 0.0010246454 0.0017691522)
(4.975665 0.0010765967 0.0016881857)
(4.9739042 0.0011177003 0.0016164817)
(4.9723983 0.0011497316 0.0015530246)
(4.9711083 0.0011741921 0.0014967265)
(4.970002 0.0011924354 0.0014467555)
(4.969051 0.0012055427 0.001402221)
(4.9682324 0.001214437 0.0013624864)
(4.9675254 0.0012198992 0.0013268735)
(4.9669143 0.0012225461 0.0012949423)
(4.9663828 0.0012228796 0.0012661294)