/*--------------------------------*- C++ -*----------------------------------*\
| =========                 |                                                 |
| \\      /  F ield         | OpenFOAM: The Open Source CFD Toolbox           |
|  \\    /   O peration     | Version:  v2012                                 |
|   \\  /    A nd           | Website:  www.openfoam.com                      |
|    \\/     M anipulation  |                                                 |
\*---------------------------------------------------------------------------*/
FoamFile
{
    version     2.0;
    format      ascii;
    class       volScalarField;
    location    "200";
    object      nut;
}
// * * * * * * * * * * * * * * * * * * * * * * * * * * * * * * * * * * * * * //

dimensions      [0 2 -1 0 0 0 0];


internalField   nonuniform List<scalar> 
48571
(
0.033486962
0.03348726
0.033520857
0.033520538
0.033520529
0.033520189
0.033520231
0.033519999
0.033520134
0.033520091
0.033520111
0.033520085
0.033520068
0.033520058
0.033520058
0.033520068
0.033520085
0.033520111
0.033520091
0.033520134
0.033519999
0.033520231
0.033520189
0.033520529
0.033520538
0.033520857
0.033520787
0.033521259
0.033521156
0.033521387
0.033521276
0.033521251
0.033521173
0.033521132
0.033521111
0.033521106
0.033521107
0.03352111
0.033521112
0.033521114
0.033521116
0.033521117
0.033521118
0.033521119
0.03352112
0.033521121
0.033521122
0.033521122
0.033521123
0.033521123
0.033521124
0.033521124
0.033521124
0.033521124
0.033521124
0.033521124
0.033521124
0.033521124
0.033521123
0.033521122
0.03352112
0.033521118
0.033521118
0.033521123
0.033521146
0.033521187
0.033521265
0.03352129
0.033521402
0.033521171
0.033521274
0.033520803
0.033520872
0.033520554
0.03352055
0.033520223
0.033520285
0.033520081
0.033520252
0.033520252
0.033520317
0.033520339
0.033520366
0.033520396
0.033520425
0.03352045
0.033520467
0.033520474
0.033520419
0.033520412
0.033520223
0.033520398
0.033520314
0.033520621
0.033520616
0.033520935
0.033520873
0.03352135
0.033521261
0.033521502
0.033521404
0.03352139
0.03352132
0.033521286
0.033521268
0.033521265
0.033521272
0.033521309
0.033521443
0.033521762
0.03352231
0.033523052
0.03352389
0.033524697
0.033525179
0.033525216
0.033525213
0.033525206
0.033525199
0.033525192
0.033525185
0.033525179
0.033525168
0.033525118
0.033524624
0.033523807
0.03352296
0.033522209
0.033521652
0.033521325
0.033521185
0.033521142
0.033521131
0.033521132
0.03352115
0.033521188
0.033521263
0.033521285
0.033521393
0.03352116
0.033521261
0.033520788
0.033487559
0.033487591
0.033487933
0.033487977
0.03348805
0.033487943
0.033487862
0.033487777
0.033487733
0.033487717
0.033487738
0.033487858
0.033488266
0.033489203
0.033490788
0.03349291
0.033495289
0.033497541
0.033498872
0.033499036
0.033499069
0.033499087
0.033499104
0.033499122
0.03349914
0.033499157
0.033499159
0.033499028
0.033497727
0.033495503
0.033493152
0.033491057
0.033489499
0.033488589
0.033488208
0.033488112
0.033488113
0.033488146
0.033488204
0.033488297
0.033488381
0.033488488
0.033488411
0.033488364
0.033488014
0.033487982
0.033487679
0.033487809
0.033453794
0.0334189
0.033384852
0.03335365
0.033327875
0.033311314
0.033310277
0.033334484
0.033391597
0.025303214
0.018215317
0.012647285
0.0081203241
0.0043322753
0.0030614251
0.0018987462
0.00113136
0.0010526207
0.00062465374
0.00078278001
0.0010645451
0.0015415332
0.0019936177
0.0025323034
0.0028781444
0.0031517134
0.003180432
0.0032213786
0.0032794814
0.0035714679
0.0037003745
0.0036913808
0.0037357305
0.0037964661
0.0038641675
0.0039411056
0.0042174724
0.0042983102
0.0043630395
0.0044265739
0.0045046216
0.0047127204
0.0047598576
0.0048189897
0.0048679098
0.0049161769
0.0050692005
0.005472571
0.0054888784
0.0056513794
0.0056969781
0.0057367484
0.0057846397
0.005833514
0.0058860961
0.0059328855
0.0059753635
0.0060147289
0.0060527916
0.006089348
0.0061253901
0.0061610061
0.0061962984
0.0062320801
0.0062673861
0.006303951
0.0063395975
0.0063760599
0.0064126549
0.006449382
0.0064874201
0.0065245106
0.006562141
0.0066003834
0.0066380505
0.0066765885
0.0067147268
0.0067527578
0.0067918925
0.0068303424
0.0068684043
0.0069079034
0.0069461584
0.006984014
0.0070227768
0.0070606203
0.0070974984
0.0071348437
0.0071716204
0.0072071276
0.0072421696
0.0072776711
0.007310972
0.0073433008
0.0073756608
0.0074061862
0.0074344168
0.0074610446
0.0074865311
0.007509651
0.0075311421
0.0075523025
0.0075793872
0.0076118328
0.0077234093
0.0079907782
0.0080554815
0.0080749837
0.0080877943
0.0080966221
0.0080727559
0.0080387166
0.0080026052
0.0079985069
0.0079797029
0.0079912073
0.0080469123
0.0080330955
0.0079987422
0.0079697983
0.0079853172
0.0079913958
0.0079889906
0.0079808296
0.0079686275
0.0079516597
0.0079311279
0.0079075075
0.0078822349
0.0078572171
0.007828128
0.007863525
0.0080849851
0.0081277304
0.0081324069
0.032896062
0.032926989
0.03295864
0.032990915
0.033023733
0.033057029
0.033090755
0.03312488
0.033159397
0.03319433
0.033229739
0.033265719
0.033302355
0.033339637
0.033377389
0.033415053
0.033451985
0.033452188
0.033451856
0.03345237
0.033452284
0.033452442
0.033452295
0.033452206
0.033452093
0.033452028
0.033452
0.033452034
0.033452246
0.033452946
0.033454533
0.0334572
0.033460757
0.03346472
0.0334684
0.033470536
0.033470865
0.033470936
0.033470971
0.033471003
0.033471037
0.033471072
0.033471103
0.033471099
0.033470833
0.033468753
0.033465129
0.033461224
0.033457728
0.033455126
0.033453607
0.033452975
0.03345283
0.033452862
0.033452953
0.033453079
0.033453248
0.033453389
0.033453585
0.03345347
0.033453598
0.033453116
0.033453477
0.033453288
0.03341825
0.033384216
0.033353014
0.033327138
0.033310163
0.033308216
0.033330943
0.033386336
0.025381497
0.017648439
0.011666215
0.0072818303
0.0041014909
0.0049141148
0.002649067
0.0021052116
0.00096681038
0.0012036405
0.0013477943
0.0018250249
0.0021396627
0.0010507349
0.0009530995
0.00087150153
0.00094064983
0.00083503555
0.00091334733
0.00099605068
0.00053311686
0.00057104798
0.00079208389
0.0008307902
0.00077584973
0.0009901786
0.0014390415
0.0021936705
0.0021623779
0.0025565907
0.002882097
0.0029569661
0.0030203159
0.0030891994
0.0032266512
0.0033749918
0.0034565373
0.003668859
0.0033310803
0.0032795485
0.0032512559
0.0032282212
0.0026271923
0.0028136537
0.0019021721
0.0017397039
0.00099965326
0.00087615569
0.00065685625
0.00062726266
0.0010959227
0.0010275446
0.00068832663
0.00057068219
0.00073070458
0.00071761888
0.0011330663
0.0019137226
0.0018450807
0.0029975661
0.0030458283
0.0034103346
0.0034244393
0.0034586258
0.0034991828
0.0038472626
0.0038979175
0.0037365167
0.003773765
0.0037980878
0.0038508015
0.0038999892
0.0041505179
0.0042404415
0.0043070569
0.0043729584
0.0044249093
0.0044653431
0.0046306704
0.0046668927
0.0046634977
0.0047525814
0.0048186919
0.004873593
0.0049482241
0.0051511149
0.0052039407
0.0053026916
0.0053623399
0.0050368483
0.0049771701
0.0049147442
0.0048660518
0.0048119492
0.0047689679
0.0045075458
0.004447404
0.0043921488
0.0043336118
0.0042759951
0.0042266933
0.0038899413
0.0038119594
0.0039451627
0.0039949626
0.0040439257
0.0042458996
0.0043429552
0.0043977236
0.0044472357
0.0044967958
0.0045468914
0.00459317
0.004768617
0.0048525492
0.004904323
0.0049546551
0.0050036807
0.0050540953
0.0053858216
0.0054723226
0.005529578
0.0056983308
0.0057241438
0.0057391265
0.0057870306
0.0058340006
0.0058793367
0.0059233803
0.0059664014
0.0060089441
0.00605096
0.0060929834
0.0061345965
0.0061765703
0.0062181067
0.0062603258
0.0063020802
0.0063440471
0.0063860634
0.0064280013
0.0064704237
0.006512589
0.0065545106
0.0065968547
0.0066385756
0.0066807096
0.0067222101
0.0067636182
0.0068056116
0.0068473217
0.0068883283
0.0069304245
0.0069714807
0.0070120264
0.0070530089
0.0070933544
0.0071324888
0.0071718714
0.0072105337
0.0072481087
0.0072847355
0.0073216924
0.0073566822
0.0073904114
0.0074236296
0.0074555744
0.0074850256
0.0075127642
0.0075387827
0.0075619947
0.0075824229
0.0076009338
0.0076240894
0.0076212469
0.0076724065
0.0078038301
0.0077193653
0.0076984293
0.0076826482
0.0076626827
0.0076383933
0.0076109394
0.0075809414
0.0075491312
0.0075146689
0.0074793013
0.0074427216
0.0074046267
0.0073649266
0.007325224
0.0072841751
0.0072422699
0.0071992127
0.0071563048
0.0071120877
0.0070672621
0.0070223357
0.0069772135
0.0069308952
0.0068853676
0.0068391805
0.006792919
0.0067468263
0.0067009254
0.0066538986
0.0066069668
0.0065597129
0.0065125459
0.0064647634
0.0064173554
0.0063693909
0.0063218364
0.0062739899
0.0062262877
0.0061783699
0.0061306266
0.0060827554
0.0060348718
0.0059867579
0.0059385965
0.005889918
0.0058410001
0.0057909604
0.0057393824
0.0056846833
0.005591233
0.005542201
0.0055182677
0.0055014817
0.0056079309
0.0056169655
0.0056956847
0.0056534583
0.0056309998
0.0055374632
0.0055676657
0.0056253492
0.0056923304
0.0057756326
0.0058229756
0.0058693336
0.0059154791
0.0059615202
0.0060079159
0.0060544058
0.0061014137
0.0061487187
0.0061964419
0.0062449102
0.0062932812
0.0063427418
0.006391783
0.0064418022
0.0064915352
0.0065416347
0.0065920786
0.0066421645
0.0066923053
0.0067431541
0.006792355
0.0068418835
0.0068921912
0.0069421889
0.0069917081
0.0070423796
0.0070914632
0.0071403871
0.0071897062
0.0072378984
0.0072847425
0.0073320522
0.0073779099
0.0074225744
0.0074661063
0.0075091732
0.0075509894
0.0075911977
0.0076299464
0.0076674349
0.0077027035
0.0077359205
0.0077661997
0.0077931657
0.0078155988
0.0078351007
0.0078676537
0.007968683
0.0080873637
0.0081567613
0.00818501
0.0081978255
0.008197898
0.0081642197
0.0082016396
0.0084851446
0.0085271618
0.0087260275
0.0087478971
0.0087693972
0.0087747204
0.008709077
0.0087107137
0.0086409073
0.0086501583
0.0086797999
0.0087028625
0.0088180186
0.0088532756
0.0090275676
0.0090732819
0.009265997
0.0093310096
0.0094227519
0.0095018803
0.0095715086
0.0096227705
0.0098865653
0.0099500035
0.010201364
0.010268518
0.010560102
0.010632732
0.010926057
0.011001008
0.011282473
0.011358402
0.011627783
0.011703082
0.011949547
0.012021877
0.012239858
0.012312442
0.012390479
0.012436208
0.012483438
0.012538284
0.012757593
0.012829846
0.01307409
0.013148733
0.013392867
0.013468907
0.013709565
0.013788885
0.014022425
0.014102397
0.014185969
0.014233177
0.014284763
0.014343046
0.014555165
0.014625789
0.014683401
0.014578501
0.014394361
0.014299075
0.014310953
0.01435166
0.014166218
0.014055808
0.01385687
0.013739548
0.0135314
0.013418112
0.013210018
0.013098142
0.012889055
0.012779484
0.012587647
0.012496705
0.012505602
0.012542465
0.012365991
0.012265455
0.012076784
0.011965551
0.011753089
0.011638316
0.011408368
0.011290428
0.011045477
0.010929151
0.010677305
0.010563458
0.010312459
0.010206176
0.0099872059
0.0098842226
0.0096520371
0.0095625945
0.0095402488
0.0095577126
0.0093643
0.0092761509
0.0091072729
0.009032954
0.0088813941
0.0088245541
0.0087260226
0.0086900379
0.0086675468
0.0086569893
0.0087229671
0.008724168
0.0087838519
0.008778819
0.0087615489
0.0087277371
0.0085499158
0.0084796016
0.0082204389
0.0081501872
0.0080118307
0.0080284835
0.0080630082
0.008025055
0.0079938986
0.0079929154
0.0080417532
0.0081068057
0.0087387061
0.0086235873
0.0086737718
0.0086713668
0.0086575663
0.0085607391
0.0080295609
0.0078552165
0.0078119761
0.0077944634
0.0077803865
0.0077649714
0.0077457149
0.0077242145
0.007698827
0.0076717147
0.0076408888
0.0076098364
0.007576817
0.0075439303
0.0075086861
0.0074749125
0.0074392512
0.0074041836
0.0073676649
0.0073327313
0.0072956528
0.0072597607
0.0072231487
0.0071873895
0.0071501001
0.0071149811
0.007078521
0.0070434782
0.0070084363
0.0069744293
0.0069397779
0.0069071235
0.0068734182
0.0068418744
0.0068103674
0.0067797986
0.0067504744
0.0067224459
0.0066952884
0.0066706674
0.0066463315
0.0066258345
0.00660628
0.0065909168
0.0065778183
0.0065693129
0.0065646292
0.0065649822
0.0065701143
0.0065806993
0.0065947895
0.0066196047
0.0066837394
0.006812167
0.0072107399
0.0074051838
0.0067961572
0.0068429863
0.0078810214
0.0079433876
0.010521452
0.010835476
0.012114342
0.011082719
0.0096128984
0.0082614523
0.0079337277
0.0071019964
0.0070256038
0.0069358639
0.007260676
0.007121933
0.0088936258
0.01298209
0.016937407
0.023180326
0.030905968
0.033345137
0.033305792
0.033294988
0.033303368
0.03332339
0.033350589
0.033382239
0.033416432
0.033451616
0.033486506
0.033486526
0.033486528
0.033486715
0.033486778
0.033486807
0.033486774
0.033486717
0.033486645
0.033486565
0.033486481
0.033486368
0.033486256
0.033486056
0.033486068
0.033486081
0.033486675
0.03348696
0.03348747
0.033452728
0.033416232
0.033379056
0.033342019
0.033305824
0.033270803
0.033237043
0.033204567
0.033173374
0.033143498
0.033114989
0.033087888
0.033062207
0.033037903
0.033014871
0.032992934
0.032971849
0.032951321
0.03293103
0.03291064
0.032889847
0.032868401
0.032846115
0.032822887
0.032798698
0.032773606
0.03274774
0.03272128
0.032694444
0.032667476
0.032640617
0.032614109
0.03258815
0.032562929
0.032538596
0.032515256
0.032492977
0.032471784
0.032451662
0.032432558
0.032414387
0.032397031
0.032380351
0.032364186
0.032373728
0.032389693
0.032406163
0.032423295
0.032441233
0.03246009
0.032479955
0.032500879
0.032522879
0.032545928
0.032569961
0.03259487
0.03262051
0.032646699
0.032673235
0.032699874
0.032726379
0.032752504
0.032778035
0.03280279
0.032826641
0.032849532
0.032871484
0.032892602
0.032913076
0.032933158
0.03295316
0.032973421
0.032994265
0.03301599
0.033038842
0.033062994
0.033088551
0.033115548
0.033143969
0.033173764
0.033204874
0.033237258
0.033270897
0.033305768
0.033341744
0.033378552
0.033415517
0.033451973
0.033451476
0.033414977
0.033378069
0.033341475
0.033305731
0.033271084
0.033237631
0.033205403
0.03317444
0.033144801
0.033116563
0.033089789
0.03306451
0.033040698
0.033018255
0.032997009
0.032976711
0.032957057
0.032937713
0.032918331
0.032898587
0.032878221
0.032857036
0.03283492
0.032811847
0.032787873
0.032763121
0.032737768
0.032712031
0.032686147
0.032660351
0.032634881
0.032609949
0.032585734
0.032562377
0.032539979
0.032518605
0.032498279
0.032478986
0.032460673
0.032443253
0.032426611
0.032410607
0.032395081
0.032432003
0.032446798
0.032462026
0.032477845
0.032494395
0.032511789
0.032530114
0.032549422
0.032569729
0.032591014
0.032613213
0.032636229
0.032659928
0.032684134
0.032708633
0.032733184
0.032757559
0.032781529
0.032804887
0.03282746
0.032849132
0.032869855
0.032889664
0.032908682
0.032927118
0.03294525
0.032963418
0.03298199
0.033001311
0.0330217
0.033043408
0.033066605
0.033091379
0.033117741
0.033145641
0.033174992
0.033205695
0.033237667
0.033270855
0.03330523
0.033340717
0.033377099
0.033413921
0.0334505
0.033450486
0.033413834
0.033376954
0.033340561
0.033305115
0.033270834
0.033237789
0.033206014
0.033175574
0.033146575
0.033119139
0.033093382
0.03306938
0.033047144
0.033026599
0.033007576
0.032989814
0.032972979
0.032956695
0.03294057
0.032924233
0.032907379
0.032889777
0.032871285
0.032851853
0.032831514
0.032810372
0.032788588
0.032766353
0.032743884
0.032721407
0.032699164
0.032677367
0.032656185
0.032635743
0.032616137
0.032597427
0.032579632
0.032562737
0.03254669
0.032531406
0.032516775
0.032502659
0.032488905
0.032570026
0.032582521
0.032595262
0.032608402
0.032622071
0.032636376
0.032651396
0.03266718
0.032683743
0.032701066
0.032719091
0.032737728
0.032756859
0.032776324
0.032795921
0.032815409
0.032834558
0.032853166
0.03287106
0.032888101
0.032904209
0.032919373
0.032933669
0.032947273
0.03296045
0.03297355
0.032986991
0.033001212
0.033016629
0.03303361
0.03305243
0.033073254
0.033096138
0.033121035
0.03314783
0.033176364
0.033206471
0.033238012
0.033270894
0.033305062
0.033340432
0.033376783
0.033413658
0.033450355
0.033450654
0.033413985
0.03337712
0.03334079
0.033305471
0.033271402
0.033238689
0.033207419
0.033177728
0.033149808
0.033123885
0.033100183
0.033078882
0.033060078
0.033043752
0.033029743
0.033017752
0.033007359
0.032998076
0.032989389
0.032980802
0.032971892
0.032962334
0.0329519
0.032940468
0.032928013
0.032914582
0.032900286
0.032885276
0.032869739
0.032853922
0.032838054
0.032822327
0.032806891
0.032791855
0.032777308
0.032763303
0.032749863
0.032736977
0.032724602
0.032712668
0.032701077
0.032689708
0.032678416
0.032813788
0.032824543
0.032835137
0.032845701
0.03285634
0.032867134
0.032878139
0.032889383
0.032900864
0.032912554
0.032924393
0.032936296
0.032948155
0.032959827
0.032971135
0.032981867
0.032991744
0.033000586
0.03300826
0.033014687
0.033019857
0.033023849
0.033026847
0.033029161
0.033031218
0.033033562
0.033036823
0.033041645
0.033048642
0.033058323
0.033071033
0.033086924
0.033105962
0.033127964
0.033152653
0.033179704
0.0332088
0.03323967
0.033272118
0.033306008
0.033341202
0.033377439
0.033414229
0.03345083
0.033451033
0.033414515
0.033377817
0.033341699
0.033306672
0.033273027
0.033240951
0.033210641
0.033182382
0.033156557
0.033133622
0.033114052
0.033098284
0.033086637
0.033079229
0.033075908
0.033076235
0.033079521
0.033084916
0.03309153
0.033098501
0.033105092
0.033110727
0.033114988
0.033117616
0.033118481
0.033117558
0.033114911
0.03311067
0.033105033
0.033098324
0.033090718
0.033082386
0.033073476
0.033064101
0.033054358
0.033044327
0.03303406
0.033023588
0.033012911
0.033002006
0.032990824
0.032979288
0.032967297
0.033110204
0.0331269
0.03314287
0.033158171
0.033172828
0.033186836
0.033200159
0.033212732
0.033224467
0.033235247
0.033244938
0.033253395
0.03326046
0.033265953
0.033269685
0.03327152
0.033271136
0.033268271
0.033262742
0.033254456
0.033243433
0.033229821
0.033213934
0.033196294
0.033177645
0.033158987
0.033141543
0.033126642
0.033115595
0.033109491
0.033109019
0.033114389
0.033125366
0.033141413
0.03316184
0.033185926
0.033213008
0.033242536
0.033274099
0.033307406
0.03334221
0.033378175
0.033414761
0.03345119
0.033451335
0.033414994
0.033378532
0.033342755
0.03330824
0.033275384
0.033244524
0.033216081
0.033190655
0.033169047
0.033152252
0.033141381
0.033137533
0.03314157
0.033153807
0.033173714
0.033199928
0.033230476
0.033263196
0.033296091
0.033327519
0.033356292
0.033381579
0.033402823
0.033419724
0.033432187
0.033440301
0.033444311
0.033444581
0.033441527
0.033435237
0.033425911
0.033413846
0.033399349
0.033382711
0.033364213
0.03334412
0.033322667
0.033300057
0.033276455
0.033251987
0.033226739
0.03320075
0.033174013
0.033023071
0.03306568
0.033108157
0.033150499
0.033192638
0.03323444
0.033275706
0.03331617
0.033355508
0.033393337
0.033429193
0.033462542
0.03349278
0.033519249
0.033541315
0.03355839
0.033570961
0.033578482
0.033580088
0.033575
0.033562674
0.033542851
0.033515626
0.033481597
0.033441697
0.033397131
0.033349727
0.033302011
0.033257145
0.033218579
0.033189318
0.033171238
0.033164376
0.033167541
0.033179016
0.033197056
0.03322014
0.03324707
0.033276967
0.033309217
0.033343354
0.033378898
0.033415216
0.033451467
0.033451576
0.033415419
0.033379272
0.033344022
0.033310382
0.033278949
0.033250374
0.033225555
0.0332058
0.033192932
0.033189321
0.033197673
0.033220398
0.033258075
0.033308261
0.033365293
0.03342418
0.033480262
0.033529919
0.033570958
0.03360192
0.033621496
0.033628094
0.033620748
0.033600237
0.03356844
0.033527716
0.033480465
0.033428607
0.033371941
0.033309532
0.033242684
0.03317281
0.033101364
0.033029492
0.032957952
0.032887197
0.032817534
0.03274921
0.032682423
0.032617286
0.032553798
0.032491874
0.032431397
0.031233569
0.03131059
0.031392421
0.031479634
0.031572557
0.031671394
0.031776555
0.031888756
0.032008747
0.032136457
0.032269912
0.032405728
0.032541188
0.032674271
0.032805341
0.032939513
0.033074234
0.033204036
0.033321622
0.033418403
0.032523044
0.031171683
0.030046413
0.029281524
0.029028406
0.029362464
0.030540536
0.032730331
0.033347649
0.033289442
0.033245524
0.033220373
0.033212401
0.033217759
0.033232787
0.03325467
0.033281441
0.033311779
0.033344767
0.033379642
0.033415587
0.033451646
0.033451632
0.033415682
0.033379989
0.033345595
0.033313454
0.033284563
0.033260217
0.033242366
0.033233991
0.033239396
0.033263914
0.033310691
0.033373832
0.029541933
0.026401493
0.024666824
0.023992627
0.02410245
0.024711698
0.025747337
0.027015938
0.02835151
0.029827733
0.031670949
0.031802042
0.03148737
0.031194648
0.030929603
0.030689079
0.030452724
0.030224439
0.03000461
0.029796608
0.029612027
0.029455156
0.029321436
0.029205399
0.029102907
0.029012022
0.028932086
0.02886216
0.02880039
0.025070074
0.025064569
0.025068643
0.025086054
0.025117333
0.025162203
0.025224742
0.025317741
0.025458999
0.025671877
0.025950421
0.026229279
0.026520668
0.026833436
0.027175089
0.027555767
0.028009354
0.028540397
0.029012296
0.026712987
0.024658486
0.022830658
0.02156798
0.020760564
0.019924969
0.01939837
0.019543278
0.020733934
0.023328246
0.027527971
0.033192202
0.033321141
0.033275866
0.033255556
0.033254802
0.03326726
0.033288448
0.033315499
0.033346581
0.033380388
0.033415778
0.033451599
0.033451396
0.033415749
0.033380752
0.033347671
0.033317872
0.033293064
0.033275804
0.033270236
0.033282934
0.033321544
0.033384878
0.026987578
0.021734272
0.017616399
0.016124719
0.015365957
0.015535921
0.015975195
0.017285326
0.018875328
0.020924728
0.023238007
0.024566085
0.023677942
0.022896791
0.022232445
0.021680356
0.021224014
0.020855427
0.020557307
0.020293409
0.020026362
0.01974083
0.019449153
0.019476965
0.019589614
0.019709301
0.019824769
0.019930845
0.020038364
0.020157564
0.020285589
0.01499498
0.014798794
0.014650944
0.014476492
0.014239637
0.014012682
0.013884659
0.012241161
0.011435715
0.012039244
0.011901036
0.012464051
0.0123583
0.012885734
0.012768365
0.013204688
0.013045346
0.013393529
0.013215031
0.013544453
0.013413336
0.013728739
0.0087247877
0.0086731711
0.008593983
0.008102361
0.0080078971
0.0080256009
0.0080546471
0.0080821966
0.0081085499
0.0081284534
0.008144742
0.0081529192
0.0081579535
0.008150253
0.0081324858
0.008047895
0.0081053835
0.008290995
0.0083165102
0.0083779902
0.0081337731
0.0080678879
0.0080931927
0.0080137814
0.0079754964
0.0080093711
0.0079869756
0.008039407
0.0080436689
0.0082239827
0.0088198531
0.010538654
0.010154264
0.0099333087
0.0098562756
0.0098439324
0.0098285328
0.0095793977
0.0093963965
0.0094006161
0.009403856
0.0093932447
0.0093689472
0.0093268099
0.0092839237
0.0092366309
0.0091971672
0.0091589486
0.0091326346
0.0091113005
0.0091059731
0.009109236
0.0091254458
0.0091470062
0.0091832914
0.0092268292
0.0092866618
0.0093560512
0.0094429208
0.0095406166
0.0096545393
0.0097791201
0.0099283062
0.010125837
0.010283213
0.014735578
0.015523371
0.01467536
0.014706718
0.012841706
0.011978418
0.011209364
0.011323504
0.013869172
0.016009057
0.021671524
0.027762063
0.03336978
0.033314478
0.033288022
0.033285507
0.033298342
0.033320727
0.0333492
0.03338156
0.033416164
0.033451581
0.033451362
0.033451324
0.033451439
0.033451511
0.033451513
0.033451445
0.033451335
0.033451204
0.033451059
0.033450899
0.033450707
0.033450491
0.033450278
0.033450261
0.033450534
0.033451226
0.033451928
0.033452228
0.033452426
0.033452085
0.033452587
0.033452486
0.033452626
0.03345246
0.03345235
0.033452215
0.033452126
0.033452067
0.033452037
0.03345202
0.03345201
0.033452003
0.033451997
0.033451991
0.033451985
0.033451979
0.033451973
0.033451967
0.033451961
0.033451955
0.033451949
0.033451943
0.033451938
0.033451932
0.033451926
0.033451921
0.033451915
0.033451909
0.033451903
0.033451897
0.033451891
0.033451886
0.033451883
0.033451888
0.033451906
0.033451953
0.033452031
0.033452155
0.033452255
0.033452413
0.033452264
0.033452358
0.03345185
0.033452186
0.033451987
0.033452489
0.033487388
0.03348726
0.033487557
0.033487586
0.033487924
0.033487963
0.03348803
0.033487917
0.033487829
0.033487737
0.033487685
0.033487659
0.033487651
0.033487651
0.033487654
0.033487658
0.033487661
0.033487665
0.033487668
0.03348767
0.033487673
0.033487676
0.033487678
0.033487681
0.033487683
0.033487685
0.033487687
0.033487688
0.03348769
0.033487692
0.033487693
0.033487694
0.033487696
0.033487697
0.033487697
0.033487698
0.033487699
0.033487703
0.033487715
0.033487745
0.033487801
0.033487896
0.033487986
0.033488103
0.033488038
0.033488002
0.033487665
0.033487638
0.033487342
0.033487055
0.033520593
0.033520537
0.033520831
0.033520884
0.033521042
0.033520981
0.033520926
0.033520843
0.033520788
0.033520756
0.033520743
0.033520739
0.033520739
0.033520739
0.03352074
0.03352074
0.03352074
0.03352074
0.03352074
0.03352074
0.03352074
0.033520739
0.033520739
0.033520739
0.033520738
0.033520737
0.033520737
0.033520736
0.033520735
0.033520734
0.033520733
0.033520731
0.03352073
0.033520728
0.033520727
0.033520725
0.033520725
0.033520728
0.03352074
0.033520771
0.033520825
0.033520907
0.033520962
0.033521023
0.033520864
0.033520811
0.033520515
0.033520571
0.033520133
0.033520091
0.03352027
0.03352044
0.033520557
0.033520527
0.033520442
0.033520347
0.033520278
0.033520236
0.033520216
0.033520209
0.033520207
0.033520207
0.033520209
0.03352021
0.033520212
0.033520214
0.033520215
0.033520216
0.033520217
0.033520218
0.033520219
0.03352022
0.033520221
0.033520222
0.033520222
0.033520223
0.033520224
0.033520224
0.033520225
0.033520225
0.033520225
0.033520225
0.033520226
0.033520227
0.03352023
0.033520239
0.033520261
0.033520304
0.033520375
0.033520471
0.033520556
0.033520587
0.033520472
0.033520302
0.033520124
0.033520167
0.033520003
0.03351986
0.033520011
0.033520234
0.033520351
0.033520321
0.033520216
0.033520105
0.033520022
0.033519971
0.033519944
0.033519931
0.033519925
0.033519923
0.033519921
0.03351992
0.033519919
0.033519918
0.033519917
0.033519916
0.033519915
0.033519913
0.033519912
0.033519911
0.03351991
0.033519908
0.033519907
0.033519905
0.033519904
0.033519903
0.033519901
0.033519899
0.033519897
0.033519896
0.033519895
0.033519894
0.033519897
0.033519907
0.033519932
0.033519981
0.033520062
0.033520171
0.033520274
0.033520302
0.033520183
0.033519958
0.033519806
0.033519949
0.033519813
0.033519732
0.033519922
0.033520183
0.033520311
0.033520276
0.033520159
0.033520039
0.033519951
0.033519898
0.033519872
0.033519862
0.033519859
0.033519859
0.03351986
0.033519862
0.033519864
0.033519866
0.033519868
0.03351987
0.033519872
0.033519874
0.033519876
0.033519878
0.03351988
0.033519882
0.033519883
0.033519885
0.033519888
0.03351989
0.033519892
0.033519894
0.033519896
0.033519898
0.033519901
0.033519905
0.033519912
0.033519927
0.033519957
0.033520013
0.033520104
0.033520228
0.033520347
0.033520385
0.03352026
0.033520002
0.033519815
0.033519896
0.033520018
0.033519933
0.033520145
0.03352042
0.033520544
0.033520497
0.033520365
0.033520233
0.033520135
0.033520076
0.033520044
0.033520028
0.033520019
0.033520014
0.03352001
0.033520006
0.033520003
0.033519999
0.033519996
0.033519993
0.03351999
0.033519987
0.033519984
0.033519981
0.033519979
0.033519976
0.033519973
0.033519971
0.033519969
0.033519966
0.033519964
0.033519961
0.033519959
0.033519957
0.033519955
0.033519954
0.033519957
0.033519967
0.033519993
0.033520047
0.033520139
0.033520267
0.033520395
0.033520439
0.03352031
0.033520031
0.033519815
0.033519899
0.033519927
0.033519893
0.033520129
0.033520413
0.033520537
0.033520485
0.033520349
0.033520216
0.033520121
0.033520067
0.033520042
0.033520032
0.03352003
0.033520031
0.033520033
0.033520036
0.033520039
0.033520042
0.033520045
0.033520048
0.033520051
0.033520054
0.033520057
0.03352006
0.033520064
0.033520068
0.033520071
0.033520075
0.03352008
0.033520084
0.033520089
0.033520094
0.033520099
0.033520104
0.03352011
0.033520117
0.033520127
0.033520145
0.033520178
0.03352024
0.033520341
0.033520481
0.033520622
0.03352068
0.033520561
0.033520284
0.033520053
0.033520088
0.033520159
0.033520131
0.033520364
0.033520637
0.033520747
0.033520681
0.033520534
0.033520389
0.033520285
0.033520221
0.033520186
0.033520166
0.033520154
0.033520145
0.033520138
0.033520131
0.033520124
0.033520118
0.033520112
0.033520106
0.0335201
0.033520095
0.03352009
0.033520085
0.033520081
0.033520077
0.033520073
0.033520069
0.033520065
0.033520062
0.033520058
0.033520055
0.033520051
0.033520048
0.033520045
0.033520044
0.033520045
0.033520054
0.033520079
0.033520133
0.033520228
0.033520365
0.033520505
0.033520564
0.033520447
0.033520166
0.033519926
0.033519952
0.033519939
0.033519921
0.03352016
0.033520437
0.03352055
0.033520487
0.033520344
0.033520206
0.033520111
0.033520058
0.033520034
0.033520025
0.033520024
0.033520026
0.03352003
0.033520033
0.033520037
0.033520041
0.033520045
0.033520049
0.033520054
0.033520058
0.033520063
0.033520068
0.033520073
0.033520079
0.033520085
0.033520092
0.033520098
0.033520106
0.033520113
0.033520121
0.03352013
0.033520139
0.033520148
0.033520159
0.033520173
0.033520194
0.033520231
0.033520297
0.033520403
0.033520551
0.033520702
0.033520774
0.033520671
0.033520404
0.033520173
0.033520194
0.033520224
0.033520203
0.033520431
0.033520694
0.033520792
0.033520717
0.033520563
0.033520413
0.033520305
0.033520238
0.033520199
0.033520176
0.03352016
0.033520148
0.033520136
0.033520126
0.033520116
0.033520106
0.033520097
0.033520088
0.03352008
0.033520073
0.033520066
0.033520059
0.033520053
0.033520047
0.033520041
0.033520036
0.033520031
0.033520026
0.033520022
0.033520017
0.033520013
0.033520009
0.033520005
0.033520003
0.033520003
0.033520011
0.033520035
0.033520087
0.033520182
0.033520319
0.033520463
0.033520528
0.033520418
0.033520144
0.033519906
0.033519924
0.033519915
0.033519897
0.033520134
0.033520407
0.033520516
0.03352045
0.033520306
0.033520169
0.033520075
0.033520023
0.03352
0.033519992
0.033519992
0.033519995
0.033519999
0.033520004
0.033520008
0.033520013
0.033520018
0.033520023
0.033520029
0.033520035
0.033520041
0.033520048
0.033520055
0.033520062
0.03352007
0.033520079
0.033520088
0.033520098
0.033520108
0.033520119
0.033520131
0.033520143
0.033520156
0.03352017
0.033520187
0.033520212
0.033520252
0.033520321
0.033520431
0.033520581
0.033520737
0.033520815
0.033520718
0.033520458
0.033520232
0.033520254
0.033520284
0.033520261
0.033520487
0.033520746
0.033520841
0.033520764
0.033520607
0.033520455
0.033520345
0.033520275
0.033520233
0.033520207
0.033520189
0.033520173
0.033520159
0.033520146
0.033520133
0.033520121
0.03352011
0.033520099
0.033520089
0.03352008
0.033520071