/*--------------------------------*- C++ -*----------------------------------*\
| =========                 |                                                 |
| \\      /  F ield         | OpenFOAM: The Open Source CFD Toolbox           |
|  \\    /   O peration     | Version:  v2012                                 |
|   \\  /    A nd           | Website:  www.openfoam.com                      |
|    \\/     M anipulation  |                                                 |
\*---------------------------------------------------------------------------*/
FoamFile
{
    version     2.0;
    format      ascii;
    class       volScalarField;
    location    "200";
    object      omega;
}
// * * * * * * * * * * * * * * * * * * * * * * * * * * * * * * * * * * * * * //

dimensions      [0 0 -1 0 0 0 0];


internalField   nonuniform List<scalar> 
48571
(
11.075142
11.076225
11.13182
11.130863
11.131304
11.130369
11.131172
11.130404
11.130916
11.130658
11.130735
11.130656
11.130631
11.130616
11.130616
11.130631
11.130656
11.130735
11.130658
11.130916
11.130404
11.131173
11.130369
11.131304
11.130864
11.13182
11.131182
11.132596
11.131874
11.132579
11.132172
11.132252
11.132102
11.132073
11.132049
11.132053
11.132057
11.132062
11.132065
11.132066
11.132067
11.132068
11.132069
11.132069
11.132069
11.13207
11.13207
11.13207
11.132071
11.132071
11.132071
11.132071
11.132071
11.132071
11.132071
11.13207
11.13207
11.13207
11.132069
11.132068
11.132065
11.132061
11.132056
11.132053
11.132077
11.132106
11.132256
11.132176
11.132583
11.131878
11.1326
11.131186
11.131824
11.130868
11.131311
11.130382
11.131194
11.13044
11.130967
11.130729
11.130828
11.130771
11.130768
11.130772
11.130785
11.130806
11.130829
11.130898
11.130802
11.131034
11.130495
11.131234
11.130408
11.131327
11.130879
11.131836
11.131202
11.132621
11.131907
11.132619
11.132219
11.132305
11.132161
11.132136
11.132115
11.13212
11.132124
11.132122
11.132098
11.132036
11.131923
11.131767
11.131587
11.131411
11.131303
11.13129
11.131287
11.131284
11.131282
11.131279
11.131277
11.131275
11.131274
11.131282
11.131385
11.131555
11.13173
11.131881
11.131989
11.132048
11.132069
11.132069
11.132064
11.132059
11.132081
11.132109
11.132258
11.132176
11.132582
11.131876
11.132597
11.131182
11.075892
11.077201
11.076711
11.077383
11.077049
11.077073
11.076896
11.076826
11.07678
11.076773
11.076771
11.076748
11.076646
11.076392
11.075952
11.075353
11.074676
11.074031
11.073649
11.073614
11.073613
11.073618
11.073624
11.073629
11.073635
11.073642
11.073653
11.073701
11.074094
11.074753
11.075443
11.076054
11.076506
11.076769
11.07688
11.07691
11.076918
11.07693
11.076977
11.077046
11.07722
11.07719
11.077517
11.076838
11.07732
11.076006
11.076335
11.075168
11.018347
10.957761
10.897582
10.837456
10.78039
10.727495
10.681319
10.646169
10.629234
10.64614
10.728322
10.945016
11.486954
12.777865
15.952954
26.696392
55.087194
119.07149
254.09362
379.41392
321.24676
326.901
318.27367
267.6188
255.19214
221.50323
213.69167
206.15858
198.14315
175.24452
164.12493
161.59475
157.45969
152.39705
147.11985
141.97862
129.85036
125.17583
121.54034
118.26546
114.8296
108.47502
106.19531
103.6966
101.67878
99.92813
96.128496
88.049948
87.013291
83.67326
82.029816
80.91174
79.646371
78.283674
76.896742
75.622197
74.453939
73.34016
72.283271
71.259541
70.274114
69.315448
68.381739
67.477721
66.588179
65.734138
64.883916
64.058761
63.249188
62.454223
61.691251
60.928689
60.186893
59.464883
58.751179
58.06067
57.380446
56.712707
56.068785
55.427372
54.800823
54.195939
53.592742
53.003241
52.434763
51.870424
51.317172
50.781345
50.256169
49.736648
49.231902
48.745888
48.259591
47.785266
47.331735
46.884868
46.446153
46.023169
45.623741
45.225057
44.833807
44.44533
44.037674
43.593068
42.773287
41.297824
40.696877
40.28777
39.920388
39.569937
39.44154
39.329217
39.164753
38.914437
38.728151
38.438918
38.040872
37.896348
37.775334
37.582132
37.281184
37.020527
36.789832
36.577568
36.377226
36.177454
35.984489
35.794518
35.615809
35.421867
35.231062
34.862484
34.126442
33.782939
33.527277
10.112123
10.163032
10.214695
10.267082
10.320169
10.373942
10.428395
10.483536
10.539399
10.596056
10.653632
10.712288
10.772176
10.83325
10.895243
10.957136
11.017992
11.017611
11.018539
11.018283
11.018789
11.018545
11.018495
11.018305
11.018198
11.018131
11.018107
11.018093
11.018041
11.017849
11.017391
11.016605
11.015545
11.014355
11.013244
11.012604
11.012524
11.012521
11.012528
11.012537
11.012547
11.012558
11.012571
11.012595
11.012697
11.013362
11.014498
11.015712
11.016797
11.017606
11.018085
11.018298
11.018371
11.018403
11.018444
11.018526
11.018647
11.018846
11.018904
11.019154
11.018652
11.018912
11.017986
11.018368
10.958106
10.897386
10.837568
10.780376
10.727329
10.68077
10.644713
10.626712
10.643406
10.736767
11.026301
11.917844
14.010476
13.879866
16.148691
27.833239
56.250604
45.047653
31.119412
25.087969
31.546487
52.52563
72.957947
113.00707
131.61414
178.65814
90.435962
156.61419
304.93154
525.28057
367.67005
414.25645
510.08685
388.60707
386.91562
371.44354
306.37898
289.13229
241.6978
229.02728
218.39486
209.52223
196.96875
184.79983
176.15243
164.01911
188.05368
194.17694
199.95987
206.50439
245.57522
251.13665
259.75547
344.11693
349.99947
443.11794
405.14193
449.85403
262.03285
196.9203
310.4365
325.86169
311.65075
402.11617
308.24664
306.54249
242.38359
239.54865
232.74858
197.32747
193.38787
187.45991
182.02435
159.17321
153.97564
157.57589
154.45258
152.40479
148.08087
144.33783
132.94181
127.83245
124.00298
120.43061
117.61728
115.46731
110.4247
108.95815
109.0225
105.46981
102.88364
100.78363
98.815963
94.281695
92.622061
90.168599
89.189639
96.042482
97.966204
100.22339
102.52622
105.17268
107.3791
115.11134
118.01455
121.16552
124.76879
128.62495
131.96641
146.54709
151.70334
149.6173
145.47357
142.09391
131.4542
128.80437
124.99036
121.75206
118.69105
115.86823
113.62614
107.23584
105.62337
102.95562
100.61982
98.569719
96.711452
89.666492
86.340523
84.548968
81.26881
80.590001
79.81602
78.456868
77.141179
75.885125
74.677175
73.51468
72.389988
71.299585
70.242418
69.213707
68.217174
67.244654
66.304672
65.386343
64.491107
63.62193
62.770373
61.949253
61.143177
60.357986
59.59493
58.848822
58.124192
57.415616
56.722679
56.051912
55.389403
54.743194
54.115766
53.497488
52.892765
52.307917
51.731133
51.167788
50.620147
50.085456
49.558787
49.047385
48.553285
48.064333
47.585875
47.12607
46.677383
46.236851
45.810192
45.402742
45.007797
44.622918
44.241493
43.840815
43.642172
43.201149
42.715552
43.441942
43.876922
44.254385
44.632732
45.030595
45.44433
45.875481
46.319778
46.77416
47.242269
47.728284
48.224065
48.73147
49.2543
49.794045
50.344962
50.90974
51.490047
52.088074
52.696475
53.324626
53.968243
54.625951
55.301053
55.995436
56.700855
57.428383
58.176905
58.943645
59.730295
60.545687
61.382157
62.243241
63.129145
64.041036
64.980795
65.950675
66.945739
67.974865
69.033372
70.129832
71.257479
72.42662
73.633919
74.885766
76.185948
77.544828
78.982356
80.536294
82.783272
84.031616
84.939851
85.885149
86.266397
86.368169
85.145839
85.338643
85.20059
85.102129
84.197945
82.72176
81.000025
79.030944
77.671881
76.378401
75.132678
73.915644
72.734713
71.577139
70.454724
69.354041
68.284752
67.241688
66.224085
65.235476
64.267467
63.328278
62.412715
61.518071
60.654931
59.806548
58.987793
58.196098
57.415641
56.65724
55.923717
55.1996
54.496464
53.813219
53.142588
52.490129
51.859965
51.238823
50.637926
50.056293
49.486752
48.93011
48.392851
47.870886
47.363216
46.867005
46.388837
45.923999
45.472643
45.035104
44.613921
44.208314
43.822278
43.433967
42.972724
42.216754
41.201883
40.549342
40.079967
39.669327
39.263109
39.134419
39.072495
38.314976
38.244764
37.938801
37.964404
38.476956
38.581113
39.500395
39.637035
40.708286
40.81912
41.382718
41.431869
41.615172
41.611214
41.507121
41.470374
41.301614
41.156623
40.995142
41.070798
41.250872
41.133787
40.564506
40.435361
39.910388
39.76467
39.048984
38.876497
38.140884
37.977621
37.388762
37.240934
36.702721
36.579063
36.188879
36.084876
35.771558
35.663583
35.615331
35.793714
35.983159
35.885426
35.492516
35.35386
34.840625
34.683924
34.152818
33.989712
33.473706
33.306056
32.819457
32.654436
32.53754
32.618696
32.700129
32.579887
32.169578
32.032692
31.684367
31.883973
32.245339
32.455935
32.181813
31.853065
32.269155
32.494925
32.90606
33.149846
33.593599
33.83419
34.278824
34.507737
34.938083
35.144805
35.491925
35.666598
35.298025
34.906594
35.237697
35.38066
35.646764
35.799819
36.131156
36.320688
36.771551
36.996041
37.505299
37.758156
38.378406
38.645258
39.254411
39.48574
39.94919
40.159347
40.670952
40.885974
40.538144
40.109608
40.665643
40.847288
41.025249
41.094363
41.201804
41.210934
41.063798
40.982827
40.500503
40.303633
39.37027
39.136887
38.345288
38.16552
37.725905
37.67633
37.953485
38.070526
38.758276
38.899258
39.102044
39.282729
39.328163
39.2265
39.220787
39.134117
39.130391
39.036808
36.883497
37.657764
37.853235
38.18741
38.557488
39.232724
41.53914
42.524981
42.969563
43.309747
43.641065
43.981196
44.338
44.70501
45.097112
45.502217
45.925605
46.354046
46.802107
47.253816
47.718571
48.186469
48.67283
49.159606
49.661572
50.166833
50.690157
51.212459
51.754039
52.299203
52.858806
53.421574
54.003125
54.581885
55.178581
55.779239
56.394269
57.012259
57.64722
58.280705
58.931255
59.580444
60.24086
60.904749
61.574251
62.24044
62.911038
63.567775
64.228332
64.864243
65.492139
66.084399
66.651985
67.172803
67.654428
68.076851
68.467813
68.737991
68.591693
67.638363
64.057882
63.140217
69.233971
68.976214
59.777971
58.841001
42.996994
41.992303
37.622811
33.353209
29.229824
25.624703
22.535603
19.187524
16.329495
14.417931
12.98739
11.977267
11.637492
11.040051
10.755152
10.632957
10.598434
10.604609
10.63267
10.673689
10.722608
10.77664
10.834226
10.894195
10.955296
11.016049
11.074962
11.074287
11.074751
11.074618
11.074719
11.074662
11.074625
11.074587
11.074557
11.074539
11.07453
11.074557
11.074443
11.074579
11.074131
11.07483
11.074494
11.075447
11.075085
11.018063
10.95701
10.895893
10.833924
10.773468
10.714277
10.65669
10.600483
10.545541
10.491763
10.439112
10.387575
10.337139
10.287779
10.239443
10.192053
10.145506
10.099677
10.054433
10.009632
9.9651454
9.9208648
9.8767058
9.8326156
9.7885726
9.7445854
9.7006865
9.6569299
9.6133805
9.5701145
9.5272055
9.4847277
9.4427372
9.4012888
9.3604223
9.3201623
9.2805188
9.2414883
9.2030534
9.1651844
9.1278409
9.0909733
9.0545254
9.0184358
9.0212004
9.0572577
9.0936684
9.1304937
9.16779
9.205606
9.2439827
9.2829498
9.3225238
9.3627082
9.4034932
9.4448538
9.4867522
9.5291369
9.5719485
9.6151122
9.6585551
9.7022008
9.745984
9.7898511
9.8337702
9.877733
9.9217623
9.965912
10.010268
10.05494
10.10006
10.145771
10.192208
10.239499
10.287746
10.337027
10.387394
10.438872
10.491474
10.545213
10.600126
10.656293
10.71383
10.772856
10.833276
10.89484
10.95643
11.017213
11.015913
10.955094
10.893391
10.832008
10.771741
10.712906
10.655515
10.599466
10.544653
10.491009
10.43851
10.387147
10.336914
10.287788
10.23972
10.192631
10.146419
10.100951
10.05609
10.011688
9.9676087
9.9237379
9.8799867
9.8362985
9.7926493
9.749046
9.705519
9.6621216
9.618919
9.5759864
9.533395
9.491218
9.4495168
9.4083447
9.3677381
9.3277203
9.2883
9.2494735
9.2112249
9.1735251
9.1363327
9.0995996
9.06327
9.0272831
9.0376721
9.0735466
9.1097467
9.1463322
9.1833579
9.2208715
9.2589131
9.2975113
9.336682
9.376429
9.4167431
9.4576017
9.4989697
9.5407964
9.5830168
9.6255573
9.6683491
9.7113205
9.7544082
9.7975608
9.8407497
9.8839714
9.9272531
9.9706561
10.014275
10.05823
10.102666
10.147737
10.19359
10.240358
10.288151
10.337047
10.38709
10.438299
10.490674
10.544215
10.598938
10.6549
10.712207
10.770974
10.831216
10.892654
10.954548
11.015713
11.015088
10.953971
10.892126
10.830745
10.770567
10.711869
10.654637
10.598753
10.544122
10.490697
10.438474
10.387466
10.337685
10.289119
10.241727
10.195432
10.15012
10.105647
10.061856
10.018581
9.9756642
9.9329746
9.890409
9.8478989
9.805411
9.7629444
9.7205243
9.6781979
9.6360243
9.5940705
9.5524051
9.5111029
9.470229
9.4298327
9.3899471
9.3505947
9.3117852
9.2735154
9.2357698
9.1985208
9.1617308
9.1253536
9.089336
9.0536197
9.0765367
9.1120419
9.147817
9.1839178
9.2203945
9.2572905
9.2946405
9.3324694
9.3707913
9.4096081
9.4489093
9.4886723
9.5288656
9.5694411
9.6103347
9.6514712
9.692779
9.7341958
9.7756678
9.817154
9.858635
9.9001188
9.9416473
9.9833002
10.025194
10.067476
10.110324
10.153921
10.198445
10.244053
10.290867
10.338965
10.388382
10.439118
10.491146
10.544437
10.598978
10.654803
10.711998
10.770677
10.830858
10.892267
10.954173
11.015392
11.015359
10.954204
10.892349
10.830987
10.770856
10.712234
10.655109
10.599378
10.544972
10.491878
10.440131
10.389788
10.340894
10.293471
10.247492
10.202878
10.159495
10.117161
10.075672
10.034813
9.9943798
9.9541969
9.9141289
9.8740799
9.8339955
9.7938578
9.753678
9.7134901
9.6733423
9.6332931
9.5934226
9.5538057
9.5145056
9.4755695
9.4370287
9.3989069
9.3612165
9.3239578
9.2871201
9.2506826
9.2146147
9.1788775
9.1434247
9.1082045
9.1514257
9.186239
9.2212436
9.2564864
9.2920076
9.3278402
9.3640086
9.4005281
9.4374042
9.4746321
9.5121957
9.5500701
9.588221
9.6265996
9.6651438
9.7037779
9.7424035
9.7809635
9.8194147
9.8577304
9.8959092
9.9339821
9.9720201
10.010142
10.048514
10.087347
10.126891
10.167407
10.209147
10.252327
10.297104
10.343558
10.391702
10.441487
10.492833
10.545651
10.59987
10.655475
10.712515
10.771077
10.831163
10.892495
10.954334
11.015478
11.015492
10.954383
10.892581
10.831294
10.771266
10.712784
10.65586
10.600429
10.546472
10.494046
10.443266
10.394276
10.347208
10.302152
10.25912
10.218026
10.178678
10.140798
10.104059
10.068126
10.032679
9.9974508
9.9622356
9.9268859
9.8913113
9.8554667
9.8193424
9.7829574
9.7463505
9.7095802
9.6727846
9.6360391
9.5994071
9.5629415
9.5266801
9.4906516
9.4548771
9.419368
9.3841259
9.3491431
9.3144034
9.2798818
9.245546
9.211356
9.2979125
9.3311272
9.3644264
9.3978397
9.4313888
9.4650871
9.4989399
9.5329447
9.5670905
9.6013581
9.6357217
9.6701488
9.7045971
9.7390118
9.773328
9.8074794
9.8412461
9.8745657
9.9074056
9.9397596
9.9716536
10.00315
10.034359
10.065461
10.096708
10.128441
10.161076
10.195068
10.23087
10.268868
10.30932
10.352325
10.39783
10.445676
10.495648
10.547523
10.601114
10.656308
10.71308
10.771463
10.831426
10.892668
10.954437
11.015522
11.01556
10.954501
10.892767
10.831577
10.771695
10.713441
10.656877
10.602013
10.548938
10.497852
10.449048
10.402879
10.359695
10.319778
10.283248
10.24998
10.21959
10.191491
10.16501
10.13951
10.114449
10.089434
10.06419
10.038518
10.012274
9.9853451
9.9576539
9.9291622
9.899874
9.8698604
9.8395087
9.8088408
9.7779121
9.7467721
9.7154571
9.6840003
9.6524342
9.6207885
9.5890895
9.5573573
9.5256052
9.4938395
9.462058
9.4302495
9.6441439
9.6744337
9.7044743
9.7342375
9.7636808
9.7927524
9.8213946
9.849544
9.8771348
9.9040997
9.9303818
9.9559489
9.980792
10.004902
10.028265
10.050875
10.07222
10.09208
10.110526
10.127745
10.144006
10.159595
10.174768
10.189819
10.205075
10.220936
10.238032
10.257162
10.279216
10.305087
10.335447
10.37057
10.410213
10.453871
10.500955
10.550899
10.603233
10.657629
10.713905
10.771983
10.831759
10.892885
10.954579
11.01561
11.015667
10.954664
10.893018
10.831974
10.77234
10.714505
10.658636
10.604907
10.553641
10.505374
10.460864
10.421049
10.386974
10.359454
10.338736
10.324319
10.315344
10.310685
10.309268
10.31002
10.312251
10.315783
10.320277
10.324951
10.32891
10.331166
10.330877
10.327499
10.320882
10.311832
10.301029
10.28843
10.273923
10.257373
10.238716
10.218043
10.19555
10.17145
10.145941
10.119198
10.091389
10.062682
10.033231
10.00315
10.683015
10.715585
10.746355
10.774883
10.800766
10.823568
10.842727
10.857511
10.867133
10.871122
10.869778
10.863839
10.853733
10.839489
10.820444
10.793509
10.758461
10.716294
10.669048
10.620098
10.57418
10.532874
10.496006
10.462457
10.432834
10.410094
10.395711
10.390869
10.396262
10.411937
10.437282
10.471071
10.511679
10.557469
10.607192
10.659975
10.715275
10.772777
10.83222
10.893158
10.954747
11.015719
11.015768
10.954816
10.893291
10.832484
10.773291
10.71624
10.661723
10.610268
10.562763
10.520626
10.486026
10.461464
10.449623
10.453776
10.476204
10.517626
10.578731
10.66116
10.764159
10.869857
10.981956
11.108306
11.247994
11.393421
11.527647
11.644351
11.740503
11.815605
11.872624
11.921419
11.961217
11.992854
12.015572
12.024746
12.019064
12.001107
11.973881
11.939783
11.900202
11.855931
11.807745
11.75671
13.598372
13.70609
13.810833
13.910307
14.003723
14.090352
14.166926
14.225032
14.252961
14.236939
14.180363
14.120579
14.050065
13.962787
13.85315
13.715628
13.531329
13.297525
13.016558
12.69429
12.351615
12.022356
11.729632
11.46262
11.139276
10.903979
10.739581
10.625491
10.550136
10.508444
10.497011
10.50751
10.533243
10.569943
10.614313
10.663945
10.71741
10.773864
10.832726
10.893354
10.954784
11.015688
11.015738
10.954827
10.89347
10.833034
10.774561
10.718842
10.666713
10.619477
10.579467
10.550424
10.537741
10.550543
10.60584
10.725939
10.899057
11.173181
11.602179
12.266957
13.378615
13.988919
14.740782
15.440024
16.097803
16.688971
17.20534
17.632947
17.96854
18.220492
18.391234
18.494003
18.562357
18.632121
18.719886
18.806541
18.586352
18.292404
18.001294
17.721568
17.457641
17.201277
16.944512
16.689004
22.116407
22.637983
23.124113
23.665396
24.319836
24.985528
25.509817
28.951475
30.484422
28.892595
28.982143
27.611382
27.617518
26.435044
26.456942
25.514784
25.598679
24.847337
24.9538
24.268922
24.302847
23.672488
32.363558
32.7428
33.169116
34.368005
34.818512
35.02596
35.198444
35.371209
35.54952
35.740742
35.938182
36.149936
36.368949
36.61569
36.878673
37.282373
37.277148
36.892828
37.096308
37.111839
38.043237
38.451396
38.596766
39.070222
39.104706
39.013667
39.103568
39.044619
39.072808
38.642752
36.676063
31.936576
32.865507
33.78981
34.322418
34.674167
35.005627
36.08843
37.015581
37.380743
37.733193
38.131417
38.582256
39.105034
39.641899
40.207447
40.75523
41.310477
41.828784
42.337228
42.787152
43.207719
43.578143
43.932704
44.225872
44.489102
44.676611
44.819292
44.87552
44.878857
44.799343
44.667186
44.415118
43.947298
43.649383
29.185741
27.325249
22.126036
17.582881
15.150275
13.323038
12.162259
11.478812
11.055606
10.781621
10.632831
10.579713
10.572524
10.591305
10.625726
10.669985
10.720523
10.775374
10.833364
10.893517
10.954686
11.015437
11.013406
11.013545
11.013676
11.013761
11.013744
11.013695
11.013638
11.013588
11.013549
11.013516
11.01347
11.013345
11.013195
11.013053
11.013558
11.014627
11.016418
11.018082
11.017699
11.018625
11.018364
11.018865
11.018614
11.018557
11.01836
11.018244
11.018168
11.018137
11.018125
11.018121
11.018119
11.018117
11.018116
11.018114
11.018112
11.01811
11.018107
11.018105
11.018103
11.018101
11.018099
11.018096
11.018094
11.018092
11.01809
11.018088
11.018085
11.018083
11.01808
11.018078
11.018075
11.018072
11.018069
11.018069
11.018077
11.018104
11.018176
11.018288
11.018481
11.018536
11.018783
11.018281
11.018539
11.017612
11.017995
11.017977
11.075059
11.076225
11.075892
11.077199
11.076708
11.077377
11.077041
11.077062
11.076883
11.076809
11.076761
11.07675
11.07675
11.076753
11.076757
11.076759
11.076761
11.076762
11.076763
11.076764
11.076766
11.076767
11.076767
11.076768
11.076769
11.07677
11.07677
11.076771
11.076771
11.076772
11.076772
11.076772
11.076773
11.076773
11.076772
11.076771
11.076769
11.076767
11.076769
11.07678
11.07683
11.076905
11.077085
11.077065
11.077402
11.076732
11.077225
11.075918
11.076251
11.075173
11.13113
11.131008
11.131524
11.13149
11.131748
11.131601
11.131531
11.131403
11.131332
11.131291
11.131277
11.131272
11.131272
11.131273
11.131274
11.131274
11.131275
11.131275
11.131275
11.131275
11.131275
11.131275
11.131275
11.131275
11.131275
11.131275
11.131274
11.131274
11.131273
11.131273
11.131273
11.131272
11.131271
11.13127
11.131269
11.131268
11.131268
11.131272
11.131286
11.131327
11.131397
11.131525
11.131595
11.131742
11.131484
11.131518
11.131002
11.131124
11.130413
11.130357
11.130555
11.130764
11.13088
11.130815
11.130675
11.130536
11.130438
11.130382
11.130356
11.130345
11.130343
11.130342
11.130342
11.130343
11.130344
11.130345
11.130345
11.130346
11.130347
11.130347
11.130348
11.130348
11.130348
11.130348
11.130349
11.130349
11.130349
11.130349
11.130349
11.130349
11.130349
11.130349
11.130349
11.13035
11.130353
11.130364
11.130391
11.130448
11.130546
11.130686
11.130826
11.130891
11.130775
11.130567
11.130369
11.130426
11.130164
11.129876
11.13004
11.130308
11.130429
11.130356
11.13019
11.130029
11.129916
11.129851
11.129818
11.129804
11.129799
11.129797
11.129796
11.129796
11.129796
11.129795
11.129795
11.129794
11.129794
11.129793
11.129793
11.129793
11.129792
11.129791
11.129791
11.12979
11.12979
11.129789
11.129788
11.129787
11.129786
11.129786
11.129786
11.129786
11.129791
11.129804
11.129835
11.129899
11.130011
11.130171
11.130337
11.13041
11.130287
11.130019
11.129854
11.130142
11.129929
11.129751
11.129966
11.130281
11.130413
11.130325
11.130137
11.129961
11.129841
11.129774
11.129742
11.129728
11.129724
11.129723
11.129724
11.129724
11.129725
11.129726
11.129727
11.129728
11.129729
11.12973
11.12973
11.129731
11.129732
11.129733
11.129734
11.129735
11.129736
11.129737
11.129737
11.129738
11.129739
11.12974
11.129741
11.129744
11.12975
11.129765
11.129799
11.129868
11.12999
11.130167
11.130356
11.130444
11.130314
11.13
11.129786
11.129964
11.13015
11.129946
11.130203
11.130538
11.130664
11.130557
11.130349
11.130158
11.13003
11.129959
11.129924
11.129909
11.129902
11.129899
11.129897
11.129896
11.129894
11.129893
11.129891
11.12989
11.129889
11.129887
11.129886
11.129885
11.129884
11.129883
11.129881
11.12988
11.129879
11.129878
11.129877
11.129876
11.129875
11.129874
11.129873
11.129874
11.129878
11.12989
11.129922
11.129991
11.130117
11.130305
11.130512
11.130617
11.130489
11.130152
11.129894
11.130097
11.130133
11.130022
11.130305
11.130644
11.130761
11.13064
11.130419
11.130222
11.130092
11.130023
11.129991
11.129979
11.129976
11.129976
11.129977
11.129978
11.129979
11.129981
11.129982
11.129983
11.129984
11.129986
11.129987
11.129989
11.12999
11.129992
11.129994
11.129996
11.129997
11.13
11.130002
11.130004
11.130006
11.130008
11.130011
11.130015
11.130022
11.130038
11.130073
11.130146
11.130279
11.130479
11.130701
11.130825
11.130711
11.130375
11.130094
11.130205
11.130262
11.130154
11.130439
11.130768
11.13087
11.130734
11.130502
11.130296
11.13016
11.130086
11.13005
11.130034
11.130026
11.130022
11.130018
11.130015
11.130012
11.130009
11.130006
11.130004
11.130001
11.129999
11.129997
11.129995
11.129992
11.129991
11.129989
11.129987
11.129985
11.129984
11.129982
11.129981
11.129979
11.129977
11.129976
11.129976
11.129979
11.12999
11.130021
11.130091
11.130223
11.130425
11.130654
11.130787
11.130681
11.130349
11.130061
11.130168
11.130138
11.130045
11.13033
11.130656
11.130754
11.130615
11.130382
11.130178
11.130046
11.129977
11.129946
11.129935
11.129933
11.129933
11.129935
11.129936
11.129938
11.12994
11.129942
11.129944
11.129946
11.129948
11.12995
11.129952
11.129955
11.129958
11.12996
11.129963
11.129966
11.12997
11.129973
11.129977
11.129981
11.129985
11.129989
11.129994
11.130003
11.13002
11.130056
11.130131
11.130268
11.130477
11.130714
11.130857
11.130764
11.130442
11.13016
11.130254
11.130251
11.130156
11.130435
11.130751
11.13084
11.130693
11.130454
11.130244
11.130107
11.130031
11.129994
11.129977
11.129968
11.129961
11.129956
11.129951
11.129947
11.129942
11.129938
11.129934
11.129931
11.129927
11.129924
11.129921
11.129918
11.129915
11.129913
11.12991
11.129908
11.129906
11.129904
11.129902
11.129899
11.129898
11.129896
11.129895
11.129897
11.129908
11.129938
11.130006
11.130138
11.130342
11.130576
11.130718
11.130625
11.130303
11.13002
11.130113
11.130099
11.130005
11.130287
11.130607
11.1307
11.130557
11.130322
11.130119
11.129987
11.129919
11.129889
11.129879
11.129877
11.129878
11.12988
11.129882
11.129885
11.129887
11.129889
11.129891
11.129894
11.129897
11.1299
11.129902
11.129906
11.12991
11.129913
11.129917
11.129921
11.129926
11.129931
11.129936
11.129941
11.129946
11.129952
11.129959
11.129969
11.129987
11.130025
11.130101
11.130239
11.130449
11.130689
11.130838
11.130751
11.130436
11.130159
11.130255
11.130269
11.130173
11.13045
11.130764
11.13085
11.130702
11.130461
11.130251
11.130112
11.130035
11.129997
11.129979
11.129968
11.129961
11.129954
11.129948
11.129942
11.129937
11.129931
11.129926
11.129922
11.129917
11.129913
11.129909
11.129906
11.129903
11.1299
11.129897
11.129894
11.129891
11.129889
11.129886
11.129884
11.129882
11.12988
11.129878
11.12988
11.12989
11.12992
11.129988
11.130119
11.130323
11.130557
11.1307
11.130608
11.130287
11.130006
11.130099
11.130114
11.13002
11.130303
11.130625
11.130719
11.130577
11.130344
11.13014
11.130008
11.12994
11.129911
11.1299
11.129899
11.1299
11.129902
11.129904
11.129907
11.129909
11.129912
11.129915
11.129918
11.129921
11.129924
11.129927
11.129931
11.129935
11.12994
11.129944
11.129949
11.129954
11.12996
11.129966
11.129972
11.129978
11.129985
11.129993
11.130004
11.130023
11.130061
11.130138
11.130277
11.130488
11.130728
11.130876
11.130788
11.130472
11.130194
11.13029
11.130313
11.130218
11.130499
11.13082
11.130912
11.130768
11.130529
11.130319
11.13018
11.130103
11.130065
11.130045
11.130033
11.130025
11.130018
11.130011
11.130005
11.129999
11.129993
11.129988
11.129983
11.129979
11.129974
11.12997
11.129966
11.129963
11.129959
11.129956
11.129953
11.12995
11.129948
11.129945
11.129942
11.12994
11.129938
11.129937
11.12994
11.129951
11.129981
11.130049
11.130181
11.130384
11.130616
11.130755
11.130657
11.130331
11.130045
11.130138
11.130168
11.130062
11.130349
11.130683
11.130788
11.130656
11.130428
11.130227
11.130096
11.130027
11.129997
11.129985
11.129978
11.129974
11.129975
11.129977
11.12998
11.129982
11.129985
11.129988
11.129991
11.129994
11.129997
11.130001
11.130005
11.130009
11.130013
11.130018
11.130022
11.130028
11.130033
11.130039
11.130045
11.130052
11.13006
11.130073
11.130088
11.130108
11.130146
11.130223
11.130361
11.130568
11.130801
11.130938
11.130837
11.130509
11.130225
11.130332
11.130279
11.130168
11.130449
11.130785
11.130899
11.130775
11.130552
11.130351
11.130217
11.130142
11.130104
11.130085
11.130068
11.130039
11.130017
11.130008
11.130001
11.129996
11.129991
11.129986
11.129981
11.129977
11.129972
11.129968
11.129965
11.129961
11.129958
11.129955
11.129952
11.129949
11.129947
11.129944
11.129942
11.129944
11.129958
11.129978
11.129987
11.129999
11.130029
11.130098
11.130227
11.130423
11.130642
11.130763
11.130646
11.130306
11.130023
11.130133
11.130098
11.129894
11.130153
11.130491
11.13062
11.130515
11.13031
11.130122
11.129998
11.12993
11.129899
11.129887
11.129877
11.129852
11.129796
11.129766
11.129762
11.129763
11.129766
11.129768
11.129771
11.129774
11.129777
11.12978
11.129784
11.129788
11.129791
11.129796
11.1298
11.129804
11.129809
11.129815
11.129827
11.129865
11.129928
11.12996
11.129977
11.129995
11.130032
11.130105
11.130233
11.130423
11.130631
11.130737
11.130609
11.130273
11.130015
11.130218
11.130021
11.129844
11.130061
11.130377
11.13051
11.130425
11.130238
11.130063
11.129942
11.129873
11.129838
11.12982
11.129804
11.129771
11.1297
11.12959
11.129536
11.129523
11.129517
11.129513
11.129509
11.129505
11.129502
11.129498
11.129495
11.129492
11.129489
11.129486
11.129484
11.129482
11.129481
11.129488
11.129535
11.129637
11.129702
11.129729
11.129739
11.129752
11.129783
11.129849
11.129968
11.130142
11.130329
11.130415
11.130283
11.129967
11.129751
11.129929
11.130142
11.129855
11.13002
11.130289
11.130413
11.130342
11.130177
11.130018
11.129907
11.129844
11.129814
11.129802
11.129792
11.129765
11.129699
11.129583
11.12944
11.129384
11.129376
11.129377
11.129379
11.129382
11.129384
11.129387
11.12939
11.129393
11.129396
11.129399
11.129403
11.129409
11.129422
11.129484
11.129634
11.129756
11.129828
11.12986
11.129874
11.12989
11.129922
11.129986
11.130097
11.130255
11.130418
11.130486
11.13036
11.130088
11.12992
11.130206
11.130454
11.1304
11.130603
11.130816
11.130938
11.130879
11.130744
11.130609
11.130514
11.130459
11.130433
11.130421
11.13041
11.13038
11.130311
11.13019
11.130027
11.129859
11.129805
11.129794
11.129789
11.129787
11.129784
11.129781
11.129778
11.129776
11.129773
11.129771
11.12977
11.129775
11.129825
11.129986
11.130143
11.130259
11.130323
11.130349
11.130357
11.130367
11.130392
11.130446
11.130543
11.130681
11.130819
11.130883
11.130766
11.130557
11.130357
11.130414
11.131124
11.131002
11.131519
11.131486
11.131745
11.131599
11.131531
11.131404
11.131335
11.131296
11.131283
11.13128
11.131275
11.131252
11.131191
11.131079
11.130925
11.13075
11.130596
11.130572
11.130571
11.130573
11.130575
11.130577
11.13058
11.130583
11.130585
11.130588
11.130595
11.130623
11.130783
11.130963
11.131123
11.131239
11.131304
11.131331
11.131338
11.131343
11.131356
11.131394
11.131461
11.131584
11.131648
11.131787
11.131523
11.131551
11.13103
11.131148
11.075269
11.07554
11.074605
11.016233
10.955859
10.895035
10.835309
10.778079
10.724731
10.677233
10.639103
10.616859
10.623401
10.687153
10.890629
11.38728
11.76377
12.263397
12.630859
12.426838
14.357003
17.392932
21.2153
27.372514
33.981694
37.835345
42.591986
47.64353
52.725658
59.46226
81.396289
90.6026
91.740691
90.054406
88.526578
87.723823
86.362326
82.261912
77.096938
74.031696
71.119724
66.56115
59.525172
56.668323
44.970628
30.815457
23.951705
17.207986
14.157828
12.736189
13.855448
12.188832
12.501416
11.604183
10.959794
10.721429
10.640198
10.625477
10.643874
10.68002
10.726593
10.779602
10.836732
10.896522
10.957187
11.017512
11.01672
11.01495
11.013899
10.953063
10.952498
10.952553
10.952637
10.95268
10.952635
10.952556
10.952472
10.952395
10.95233
10.952271
10.952199
10.952058
10.951899
10.951785
10.952313
10.953531
10.955557
10.957363
10.957011
10.957609
10.957468
10.95782
10.957602