/*--------------------------------*- C++ -*----------------------------------*\
| =========                 |                                                 |
| \\      /  F ield         | OpenFOAM: The Open Source CFD Toolbox           |
|  \\    /   O peration     | Version:  v2012                                 |
|   \\  /    A nd           | Website:  www.openfoam.com                      |
|    \\/     M anipulation  |                                                 |
\*---------------------------------------------------------------------------*/
FoamFile
{
    version     2.0;
    format      ascii;
    class       surfaceScalarField;
    location    "200";
    object      phi;
}
// * * * * * * * * * * * * * * * * * * * * * * * * * * * * * * * * * * * * * //

dimensions      [0 3 -1 0 0 0 0];
oriented        oriented;


internalField   nonuniform List<scalar> 
141264
(
-6.2279653e-05
-0.0042777705
7.4342746e-06
9.7433543e-05
0.0042702672
-3.5084946e-05
-0.0040518334
3.6071641e-06
0.0039854418
5.0486188e-07
6.7243938e-05
-7.5574947e-06
5.5081725e-05
-5.6542824e-05
0.0039254412
-1.6282086e-06
-3.1038685e-05
0.004119162
-0.00012079448
-5.3085257e-05
0.0043953284
-2.3270151e-05
-8.7441776e-05
0.0047350686
-8.1893409e-05
-0.00010667593
0.0049672774
-1.6693783e-05
-0.00011141544
0.0051384154
-1.8165184e-05
-0.00010848206
0.0051995269
5.0318045e-07
-0.00010621902
0.005222479
2.5883113e-06
-0.00010504444
0.0052194555
2.399013e-06
-0.0001046747
0.0052125579
2.7836272e-07
-0.00010455227
0.0052079118
-1.8489798e-06
-0.00010454808
0.0052078961
-2.0548699e-06
-0.0001046641
0.0052125519
3.1628679e-09
-0.00010502823
0.005219458
1.8628844e-05
-0.00010619743
0.0052224927
1.7113338e-05
-0.00010845465
0.005199538
8.2232421e-05
-0.0001113813
0.0051384632
2.3539353e-05
-0.00010663482
0.0049673198
0.00012099747
-8.7395417e-05
0.0047351156
1.7655048e-06
-5.303873e-05
0.0043953764
5.6612564e-05
-3.0997513e-05
0.0041192096
-6.7213845e-05
0.0039254921
-7.5024012e-06
0.0040518927
5.5011348e-05
-0.00014602752
0.0041963094
8.7667446e-05
-2.4601631e-05
0.0043970539
0.0001005566
-8.5859776e-05
0.0044678678
0.00010525824
2.8956445e-07
0.0045131188
0.00010757182
-4.2831839e-06
0.0044673104
0.00010606383
1.6972037e-05
0.0044167221
0.0001034524
1.3189887e-05
0.0043627656
0.00010026325
9.9122187e-06
0.0043254533
9.8086226e-05
4.8543276e-06
0.0043025652
9.6691469e-05
2.0269547e-06
0.004290951
9.5960223e-05
4.3716978e-07
0.004285633
9.5606981e-05
-2.580781e-07
0.0042834859
9.5456387e-05
-5.0730963e-07
0.0042827048
9.5395293e-05
-5.9254263e-07
0.0042824514
9.537023e-05
-6.1633466e-07
0.0042823948
9.5359908e-05
-6.4463164e-07
0.0042824004
9.5354419e-05
-6.6629914e-07
0.0042824084
9.5350748e-05
-6.6405653e-07
0.0042823971
9.5347025e-05
-6.6491217e-07
0.0042824063
9.5340742e-05
-6.7319533e-07
0.0042824123
9.5331814e-05
-6.8637333e-07
0.0042824225
9.5324028e-05
-7.0032737e-07
0.0042824414
9.5318772e-05
-7.0266072e-07
0.0042824338
9.5313555e-05
-6.971586e-07
0.0042824371
9.530752e-05
-7.0107917e-07
0.0042824456
9.5300039e-05
-6.981786e-07
0.0042824527
9.5292368e-05
-6.9844536e-07
0.0042824594
9.5285044e-05
-6.9242824e-07
0.0042824683
9.5278123e-05
-6.8648323e-07
0.0042824778
9.5270536e-05
-6.7996686e-07
0.0042824843
9.5261691e-05
-6.6309329e-07
0.0042824858
9.5251308e-05
-6.3748982e-07
0.0042824929
9.5241818e-05
-6.8413118e-07
0.0042825853
9.5237755e-05
-8.9774352e-07
0.004282849
9.5248472e-05
-1.5497822e-06
0.0042836312
9.529594e-05
-3.0887874e-06
0.0042857845
9.5433765e-05
-5.8579405e-06
0.004291111
9.5774787e-05
-1.0849985e-05
0.004302734
9.6493704e-05
-1.4054428e-05
0.0043256307
9.7875813e-05
-1.7756179e-05
0.0043629514
0.00010003981
3.5856981e-06
0.0044169167
0.00010321613
-8.9361903e-07
0.0044675125
0.00010581474
8.5353517e-05
0.0045133289
0.00010731218
2.4197675e-05
0.0044680798
0.0001049913
0.00014572579
0.0043972686
0.00010028883
7.3005653e-06
0.0041965176
8.7405164e-05
6.7110687e-05
0.0040520971
5.475509e-05
-5.6861258e-05
0.0039256747
-2.2587159e-06
0.0041193621
-3.0887459e-05
-0.00012175206
0.0043955352
-5.2918466e-05
-2.4577695e-05
0.0047352832
-8.7261819e-05
-8.3565567e-05
0.0049674847
-0.00010648878
-1.8738921e-05
0.0051386112
-0.00011122422
-2.0540108e-05
0.0051996608
-0.00010828506
-2.1802019e-06
0.005222576
-0.00010601579
-3.5306628e-07
0.0052194841
-0.00010483348
-7.3894579e-07
0.0052125005
-0.00010445576
-2.9942651e-06
0.0052077649
-0.00010432259
-5.1963204e-06
0.0052077039
-0.00010430626
-5.4073944e-06
0.0052122556
-0.00010440846
-3.2668133e-06
0.0052190385
-0.00010475825
1.5536338e-05
0.0052219417
-0.00010591211
1.4282255e-05
0.005198868
-0.00010815638
7.9782511e-05
0.005137637
-0.00011107462
2.1537976e-05
0.0049664043
-0.00010633057
0.0001194869
0.0047341452
-8.7102703e-05
7.6051119e-07
-5.2759184e-05
0.0043944059
5.6114611e-05
-3.072822e-05
0.0041182559
-6.693911e-05
0.0039245504
-6.9690532e-06
0.0040509776
5.551849e-05
-0.00014524907
0.0041953973
8.8175962e-05
-2.3588481e-05
0.0043961408
0.00010107081
-8.4621493e-05
0.004466979
0.00010577803
1.7307897e-06
0.0045122697
0.0001080877
-2.6600709e-06
0.0044665169
0.00010656191
1.8752326e-05
0.0044159841
0.00010392936
1.5105284e-05
0.0043620786
0.00010071711
1.193867e-05
0.0043248142
9.8519704e-05
6.9677704e-06
0.0043019726
9.7107541e-05
4.2051667e-06
0.0042904015
9.6361063e-05
2.6607045e-06
0.0042851215
9.5993151e-05
1.9915022e-06
0.0042830097
9.5827873e-05
1.7493348e-06
0.0042822649
9.5752221e-05
1.678419e-06
0.0042820351
9.5714175e-05
1.6523272e-06
0.0042819873
9.5692946e-05
1.633078e-06
0.0042820109
9.5680319e-05
1.5967034e-06
0.004282047
9.5668732e-05
1.5593942e-06
0.0042820663
9.5654824e-05
1.5463912e-06
0.0042820668
9.5641426e-05
1.5130168e-06
0.0042820899
9.5629552e-05
1.4752025e-06
0.0042821079
9.5617224e-05
1.4346929e-06
0.0042821236
9.5605415e-05
1.3958836e-06
0.0042821318
9.5595089e-05
1.351506e-06
0.0042821487
9.5585384e-05
1.3154563e-06
0.0042821548
9.5578499e-05
1.2786116e-06
0.0042821683
9.5571822e-05
1.2467978e-06
0.0042821702
9.5562875e-05
1.2149698e-06
0.0042821741
9.5554675e-05
1.1675896e-06
0.0042821892
9.5548234e-05
1.1300089e-06
0.0042822021
9.5542416e-05
1.1068785e-06
0.0042822045
9.5533515e-05
1.0620288e-06
0.004282209
9.5523903e-05
9.5540544e-07
0.0042822982
9.5523421e-05
6.7078414e-07
0.0042825624
9.5539873e-05
-5.2329562e-08
0.0042833484
9.5593463e-05
-1.6663452e-06
0.0042855052
9.5736057e-05
-4.5167867e-06
0.0042908327
9.6080822e-05
-9.596321e-06
0.0043024547
9.6803741e-05
-1.289476e-05
0.0043253515
9.8191891e-05
-1.6700339e-05
0.0043626765
0.00010036447
4.5253946e-06
0.0044166475
0.00010355025
-8.3873076e-08
0.0044672478
0.00010615809
8.602472e-05
0.0045130638
0.00010766073
2.4725311e-05
0.0044678179
0.00010533708
0.00014611247
0.0043970024
0.00010062207
0.0041962528
8.7731127e-05
-2.9595485e-05
0.0041354754
9.3980075e-05
-2.5113259e-05
0.0042838635
0.00010865667
-4.0505304e-05
0.0043681006
0.00011510932
-2.4091967e-05
0.0043792602
0.00011739021
-1.7043294e-05
0.0043431288
0.00011707032
-7.0014202e-06
0.0042910833
0.00011552228
-2.7723755e-06
0.0042449346
0.00011351289
-1.251059e-06
0.0042118862
0.00011194394
-1.5092945e-06
0.0041918583
0.0001108547
-2.0905518e-06
0.004181191
0.00011022295
-2.6079776e-06
0.0041761275
0.00010989515
-2.9604054e-06
0.0041739509
0.00010974989
-3.1861614e-06
0.0041730918
0.0001096964
-3.3407568e-06
0.0041727668
0.00010968596
-3.4088872e-06
0.0041725819
0.0001096953
-3.5248282e-06
0.0041726061
0.00010971434
-3.70819e-06
0.0041726495
0.000109736
-3.8270991e-06
0.0041725517
0.00010975646
-3.9408116e-06
0.0041725102
0.00010977759
-3.9903677e-06
0.0041724175
0.00010980229
-4.1717688e-06
0.0041725208
0.00010982896
-4.2861976e-06
0.0041724149
0.00010985433
-4.3223936e-06
0.0041723038
0.00010988109
-4.4969175e-06
0.0041723942
0.0001099122
-4.6096413e-06
0.0041722913
0.00010994499
-4.7251366e-06
0.0041722454
0.00010997793
-4.8388978e-06
0.0041721909
0.00011001283
-4.8908773e-06
0.0041720675
0.00011005135
-4.9947944e-06
0.0041720768
0.00011009336
-5.1559662e-06
0.0041720716
0.0001101366
-5.2306902e-06
0.0041719061
0.00011017952
-5.2208604e-06
0.0041717509
0.00011022666
-5.2787961e-06
0.0041718072
0.00011028582
-5.3761305e-06
0.0041719963
0.00011036593
-5.559705e-06
0.0041727037
0.0001104896
-5.859489e-06
0.0041747153
0.00011070594
-6.1666315e-06
0.0041796028
0.00011110579
-6.0860767e-06
0.0041900814
0.00011181063
-4.1529094e-06
0.0042099062
0.0001129748
5.6937852e-07
0.0042427353
0.00011462097
1.119383e-05
0.0042886503
0.00011670942
1.8919205e-05
0.004340456
0.00011833546
3.6097572e-05
0.0043763646
0.00011872681
2.1546753e-05
0.0043650309
0.00011649893
2.690326e-05
0.0042807136
0.00011007069
-5.4181278e-06
0.0041323226
9.5396084e-05
-4.2507693e-07
0.0039823071
6.3677456e-05
0.0039040943
2.0031074e-05
0.0038692677
8.1045227e-06
2.6722119e-05
0.0038477343
3.1011366e-06
1.8432235e-05
0.0038325802
1.5461581e-06
1.360791e-05
0.0038152399
2.5450713e-06
1.4795232e-05
0.0038006243
1.4533453e-06
1.3162253e-05
0.0037836809
1.8181993e-06
1.5125256e-05
0.003767635
2.0107665e-07
1.5844803e-05
0.0037494691
-1.6996142e-06
1.9865492e-05
0.003726209
-4.0109994e-06
2.7271143e-05
0.0036757724
-2.8726033e-07
5.0723848e-05
0.0035311391
2.7141119e-05
0.0001174921
0.0030742343
0.00015085542
0.0003060494
0.0016960061
0.00059687071
0.00078135753
0.00076024995
0.00061206556
0.00032369057
0.00057557791
8.0535484e-05
0.00010413655
0.00025379984
8.1350769e-05
0.0002404273
8.1691648e-05
9.4568405e-05
7.7539788e-05
5.7622711e-05
3.7282647e-06
2.0340673e-05
7.5358083e-05
2.7925126e-05
-4.5660497e-05
9.0822148e-05
-1.1978418e-05
-3.485648e-06
0.00014032289
1.8614373e-05
-6.8115114e-05
0.00012701163
-4.063487e-06
1.7374745e-05
0.00012420886
2.5955878e-06
2.0718564e-07
0.00017900059
2.1322948e-06
-5.6924025e-05
0.00016907431
1.2914385e-05
-2.9881025e-06
0.0002136677
9.929997e-06
-5.4523396e-05
0.00018039951
-6.8436739e-06
4.0111866e-05
0.00014060824
1.5827219e-06
3.8208547e-05
0.00011104853
2.3519607e-05
6.0401068e-06
0.00016329249
4.3917166e-06
-5.6635676e-05
0.00028171062
-7.9971174e-05
-3.8446959e-05
0.00031488122
-8.4184149e-05
5.1013555e-05
0.00016033975
0.0001153135
3.922797e-05
0.00014961382
8.6220899e-06
2.1038409e-06
0.00015097444
-2.5068805e-05
2.3708177e-05
0.00015461126
-4.8870003e-06
1.2501821e-06
0.00023910504
-7.8601236e-06
-7.6633652e-05
0.00023551743
-6.5134025e-06
1.0101008e-05
0.00021678848
-6.6027289e-06
2.5331684e-05
0.00019126286
-7.2786656e-06
3.2804286e-05
0.00018470751
-2.2205948e-06
8.7759354e-06
0.00021525125
4.9231512e-05
-7.9775245e-05
0.00023051036
-3.9943772e-05
2.4684664e-05
0.00019387884
1.7546299e-05
1.9085219e-05
0.00014976869
9.7018134e-06
3.4408339e-05
0.00011173688
2.5188443e-05
1.2843361e-05
0.00015228663
7.3083859e-07
-4.1280588e-05
0.00045460504
-6.9855958e-05
-0.00023246245
0.0004446011
-0.00011726593
0.00012726987
0.00071778421
-0.00015706983
-0.00011611328
0.00054807252
5.7232006e-05
0.00011247968
0.00025880148
0.00020001416
8.9256878e-05
0.00022933303
1.6842722e-05
1.2625732e-05
0.00024498895
-2.4447207e-05
8.7912846e-06
0.00026118784
-1.4244751e-05
-1.9541398e-06
0.00026780634
-5.5675222e-06
-1.0509791e-06
0.00026976482
-2.4216676e-06
4.6319162e-07
0.00026899447
-1.3175238e-06
2.0878693e-06
0.00026733347
-1.0744825e-06
2.7354887e-06
0.00026494
-8.8673527e-07
3.2802037e-06
0.0002624062
-8.2517454e-07
3.3589785e-06
0.00025994415
-7.0948046e-07
3.1715313e-06
0.00025722452
-5.6367813e-07
3.2833048e-06
0.00025514627
-5.6457415e-07
2.6428223e-06
0.0002525727
-3.8850984e-07
2.9620843e-06
0.0002508864
-5.0817612e-07
2.1944748e-06
0.00024897195
-3.6229305e-07
2.2767382e-06
0.00024731941
-3.8225582e-07
2.0347937e-06
0.00024621128
-3.7230573e-07
1.4804353e-06
0.00024462429
-2.5671635e-07
1.8437097e-06
0.00024402201
-4.1732067e-07
1.0195977e-06
0.00024316786
-3.0628162e-07
1.1604337e-06
0.00024245102
-3.0287837e-07
1.0197173e-06
0.00024233889
-3.710315e-07
4.8316372e-07
0.00024193169
-2.6225726e-07
6.6946306e-07
0.00024189009
-2.943955e-07
3.3599331e-07
0.00024225867
-3.4198709e-07
-2.6592366e-08
0.00024230638
-2.7816804e-07
2.3045386e-07
0.00024293477
-3.4792417e-07
-2.8046932e-07
0.00024370908
-3.0746837e-07
-4.6683865e-07
0.0002442362
-2.6114409e-07
-2.6597291e-07
0.0002453504
-3.5012123e-07
-7.6407617e-07
0.00024659689
-3.0934687e-07
-9.3714612e-07
0.00024759071
-2.6760715e-07
-7.2620893e-07
0.00024910565
-3.4372346e-07
-1.171225e-06
0.00025078209
-3.2549492e-07
-1.3509394e-06
0.00025228735
-2.7787274e-07
-1.227387e-06
0.00025406864
-3.1757557e-07
-1.4637134e-06
0.00025617021
-3.3679624e-07
-1.764778e-06
0.00025816135
-2.8811572e-07
-1.7030225e-06
0.00026017012
-2.9757195e-07
-1.7112007e-06
0.00026259979
-3.4169709e-07
-2.0879708e-06
0.00026499246
-2.4071955e-07
-2.1519536e-06
0.00026713217
-2.0646186e-07
-1.9332487e-06
0.00026954717
-2.578939e-07
-2.1571015e-06
0.00027170764
-8.0481172e-08
-2.0799879e-06
0.00027324438
1.7549652e-07
-1.71224e-06
0.00027365979
5.9510429e-07
-1.0105122e-06
0.00027257605
1.3614414e-06
-2.7770323e-07
0.00026843285
3.0533131e-06
1.0898863e-06
0.00025886831
6.6668646e-06
2.8976726e-06
0.00024220551
1.3524871e-05
3.1379345e-06
0.00022973986
2.0524366e-05
-8.0587182e-06
0.00026498275
-2.0178832e-05
-1.506406e-05
0.00059581704
-0.00022004191
-0.00011079238
0.0010522759
-0.00020225481
-0.000254204
0.0011792894
-3.773338e-05
-8.9280166e-05
0.0011824219
1.2034403e-05
-1.5166876e-05
0.0010971073
5.8691964e-05
2.6622643e-05
0.00070116494
0.00021958064
0.00017636169
0.00017565031
0.00021140539
0.00031410924
0.00010637967
2.1027051e-05
4.8243585e-05
0.00011966643
-8.5541447e-06
-4.7326108e-06
0.00012955793
-1.8228874e-05
8.3373666e-06
0.00015122554
-8.6884783e-06
-1.2979131e-05
0.00031820503
-4.9843733e-05
-0.00011713575
0.00029063142
-4.5799086e-05
7.3372697e-05
0.00016844122
4.7461505e-05
7.4728688e-05
0.00011469786
5.9708869e-05
-5.9655082e-06
0.00014349776
-2.9217292e-06
-2.5878171e-05
0.00018029706
-2.6050533e-05
-1.0748759e-05
0.00020911739
-2.1610626e-05
-7.2097096e-06
0.00022702512
-1.4574992e-05
-3.3327344e-06
0.00023832067
-1.0038615e-05
-1.2569333e-06
0.00024522399
-6.9513998e-06
4.8076301e-08
0.00024828342
-4.4583349e-06
1.3988996e-06
0.00024674576
-1.9642022e-06
3.5018696e-06
0.00023953325
3.5583162e-07
6.8566778e-06
0.00022471308
1.4662375e-06
1.3353929e-05
0.00021358538
-8.5385038e-06
1.9666204e-05
0.00024625725
-1.4282956e-05
-1.8388914e-05
0.00055648181
-0.00010423031
-0.00020599425
0.00097892085
-0.00023375386
-0.00018868519
0.0011073615
-9.3527504e-05
-3.4913136e-05
-2.6886381e-05
4.2906871e-05
-0.0039535199
6.9287337e-06
-1.3839706e-05
2.7295954e-06
-0.0039498584
6.1686761e-06
-1.2308928e-05
2.4787914e-06
-0.0039466485
5.4784638e-06
-1.0924228e-05
2.2358513e-06
-0.0039438261
4.8558153e-06
-9.6817497e-06
2.0035564e-06
-0.003941329
4.3002291e-06
-8.5780377e-06
1.7806535e-06
-0.003939074
3.813835e-06
-7.6195383e-06
1.5507506e-06
-0.0039369577
3.4105664e-06
-6.8237004e-06
1.2968363e-06
-0.0039348509
3.1131172e-06
-6.2254167e-06
1.0054942e-06
-0.0039326402
2.9787474e-06
-5.8649975e-06
6.755669e-07
-0.0039303274
2.9686864e-06
-5.7501225e-06
4.6857911e-07
-0.0039282468
3.1366935e-06
-5.8303205e-06
6.1301002e-07
-0.0039270236
2.8330316e-06
-6.010479e-06
1.9542858e-06
-0.0039280016
3.207748e-06
-6.3342693e-06
4.1044612e-06
-0.0039317355
1.6754194e-06
-6.1805306e-06
8.2390413e-06
-0.0039382865
1.8192361e-06
-6.0619464e-06
1.0793768e-05
-0.0039525697
-6.0850232e-07
-3.1613945e-06
1.8053014e-05
2.6197548e-06
-6.467546e-06
3.6719884e-05
-8.2677254e-06
0.004095421
5.0941836e-05
-1.8890099e-05
0.0042343754
6.0110494e-05
-2.44788e-05
0.0043090865
6.460276e-05
-2.3723998e-05
0.0043125879
6.5917547e-05
-1.8873185e-05
0.0042728172
6.5460803e-05
-1.3487064e-05
0.0042213094
6.4387806e-05
-9.1045084e-06
0.0041772644
6.3287611e-05
-6.5384546e-06
0.004146861
6.2459194e-05
-5.4090448e-06
0.0041288099
6.1918977e-05
-5.1236229e-06
0.0041192932
6.1612387e-05
-5.2148476e-06
0.0041147568
6.1461952e-05
-5.4366937e-06
0.0041127687
6.1404065e-05
-5.6838455e-06
0.0041119437
6.139524e-05
-5.9235797e-06
0.0041115954
6.1411148e-05
-6.2139685e-06
0.0041114332
6.1438995e-05
-6.4282058e-06
0.0041113484
6.1471914e-05
-6.571257e-06
0.0041112845
6.150808e-05
-6.7747462e-06
0.0041112079
6.1547302e-05
-6.9774132e-06
0.0041111238
6.1589076e-05
-7.2448008e-06
0.0041110519
6.1633006e-05
-7.3850555e-06
0.0041109823
6.1678753e-05
-7.5899419e-06
0.0041108924
6.1727361e-05
-7.8574737e-06
0.0041107926
6.1778732e-05
-7.995445e-06
0.0041106991
6.1833032e-05
-8.1997418e-06
0.0041106039
6.1891697e-05
-8.4059467e-06
0.0041104974
6.1954207e-05
-8.609545e-06
0.0041103738
6.2020648e-05
-8.8701917e-06
0.0041102368
6.2091278e-05
-9.0531288e-06
0.0041100946
6.216516e-05
-9.154477e-06
0.0041099297
6.2243267e-05
-9.299655e-06
0.0041097244
6.2326807e-05
-9.4191156e-06
0.0041094541
6.2416212e-05
-9.4993909e-06
0.0041093733
6.251419e-05
-9.5251857e-06
0.0041093955
6.2626568e-05
-9.4510283e-06
0.0041098642
6.2765353e-05
-9.1588451e-06
0.0041114681
6.2955013e-05
-8.3881299e-06
0.0041155932
6.3238894e-05
-6.655861e-06
0.0041246685
6.3680673e-05
-3.3529281e-06
0.0041422442
6.4359123e-05
1.9173577e-06
0.0041721355
6.5329577e-05
8.3572662e-06
0.0042156347
6.6575687e-05
1.4432868e-05
0.0042665821
6.7798338e-05
1.6575902e-05
0.0043058281
6.8393387e-05
1.2504219e-05
0.0043019171
6.7185469e-05
3.4664279e-06
0.0042270014
6.2749948e-05
-5.8402778e-06
0.0040880427
5.3586624e-05
0.0039452491
3.9322286e-05
0.0039245106
1.6935822e-06
2.2146035e-05
0.003908895
5.3575589e-07
1.6626007e-05
0.0038933746
2.0106637e-06
1.6054798e-05
0.0038777623
2.9462939e-06
1.4119394e-05
0.0038615811
3.3562331e-06
1.4643107e-05
0.0038435426
1.9209113e-06
1.6318717e-05
0.0038221319
-1.3994094e-06
2.111048e-05
0.0037936583
-5.4152478e-06
2.9877864e-05
0.0037422461
-2.6016975e-06
5.3726592e-05
0.0036273111
2.4210488e-05
0.00011786559
0.0033551592
0.00010122429
0.00032178311
0.0014212154
0.00011119274
0.0013590783
0.0010605435
5.2935461e-05
1.7375377e-05
0.00095816308
0.00039274149
0.00055373516
0.00011126586
0.00060454993
2.9720713e-05
0.00019394212
0.00019877925
-4.7303539e-05
0.00034048286
-6.1490977e-08
6.0330131e-05
1.6854123e-05
0.00011681936
8.8582373e-06
6.8940211e-05
0.00012091932
2.7237774e-05
7.7378101e-05
-0.00022197409
0.00012621645
0.00013808055
6.1178618e-05
-0.00029777421
0.00012575281
1.3272927e-06
3.852059e-05
8.4417893e-05
1.3814773e-05
-1.0932313e-05
6.6035102e-05
7.4031212e-06
-7.5670796e-06
6.5378944e-05
8.6339234e-06
-9.0910945e-06
5.6535037e-05
1.3929189e-05
-1.0295861e-05
1.1122532e-05
5.0412366e-05
-2.892694e-05
-4.0987647e-06
3.3385427e-06
1.9391301e-05
3.3363845e-05
4.9131743e-05
3.1235305e-05
1.7580392e-06
4.9005235e-05
-1.1327007e-05
-6.442922e-06
5.4533354e-06
4.4037462e-05
9.0203385e-06
-9.5059013e-06
3.3578971e-05
-2.0051001e-07
1.9881543e-05
1.7190105e-06
9.1751476e-05
1.8752473e-05
-4.6584944e-05
0.000144954
4.8931364e-05
-8.3519518e-05
0.00015901699
3.092248e-05
-4.9048959e-05
0.00013282973
1.5721775e-05
1.3061079e-05
0.00020097002
7.7922544e-06
-7.3800249e-05
0.00019437055
-1.6285077e-06
2.1142363e-05
0.00022045314
-9.7120332e-05
8.0967732e-05
0.00023982475
6.5549864e-05
-9.1765143e-05
0.00017608696
3.3898012e-05
3.1422502e-05
0.00013871167
3.4137445e-05
2.6757445e-05
0.00017353887
-3.0435477e-05
0.00013492329
-4.1355601e-05
0.00012808797
-6.2188781e-05
-1.5160048e-05
-0.0001245109
1.4998479e-05
0.00039055988
-0.00015295949
-0.00023852227
2.3191452e-06
4.9503443e-05
-0.00027696871
9.5553028e-06
6.3028583e-05
-0.00028926375
1.1131105e-05
3.5061948e-05
-0.00011409522
3.4498759e-05
-0.00011645212
-9.3215174e-05
-0.00024568343
-5.0698156e-06
5.9194167e-05
7.7463864e-05
-0.00029819764
-6.5925916e-06
5.7478296e-05
-0.00017132592
2.7933408e-05
-0.00014701288
-0.000209776
2.5213257e-05
2.8958596e-05
-7.4981563e-05
2.7618245e-05
-9.5508666e-05
-6.6904016e-05
-0.0001554521
1.1957356e-05
2.2470338e-05
4.6042841e-05
-5.8965942e-05
3.1865203e-05
-0.00010959889
-2.081126e-05
1.581819e-05
-3.0445788e-05
-2.3527084e-05
7.9144432e-06
-3.046304e-05
1.7373365e-06
2.9283084e-05
2.3015887e-05
1.2150508e-05
5.5648898e-05
-1.0547624e-05
8.7314891e-05
-1.7888359e-05
-1.3777634e-05
0.00015422317
7.3641685e-05
-0.00010868476
0.00013930291
-2.8365104e-05
5.5242722e-05
0.00024226097
7.5240389e-05
-0.0001505802
0.0002018699
9.1945495e-06
5.6409771e-05
0.00029726033
0.00011560593
-0.00018306295
0.00029096788
-9.5478691e-05
9.5178548e-05
0.00021489466
1.1951247e-06
6.9808286e-05
0.00031397717
0.00012323834
-0.0001878221
0.00033659274
-9.5921839e-05
8.4437377e-05
0.00027079673
1.9740136e-05
5.5611179e-05
0.00020354247
7.6263212e-06
6.1947086e-05
0.00038658987
1.7670211e-05
-0.00018571913
1.640988e-05
0.0003601187
-2.3032343e-05
3.3093633e-05
5.7564404e-05
0.000321646
2.775936e-05
0.0001669608
5.9171047e-06
0.00017618434
-6.0145421e-07
0.00017566626
-4.6175536e-05
2.1624812e-05
0.00015988285
-9.1276863e-06
2.0024098e-05
0.00025301025
-6.6077845e-06
-9.4379739e-05
0.00027512932
-3.8414263e-05
9.7817889e-06
0.00025485533
-1.5254039e-05
2.8925302e-05
0.00021267784
8.9992112e-06
2.5899617e-05
0.00017831776
8.1816528e-06
2.3957833e-05
3.8111479e-05
0.00010847724
-5.5342327e-08
3.178438e-05
9.4428631e-05
-7.0856395e-06
5.284451e-05
1.6403495e-06
0.0002262218
1.6943015e-05
-8.1843069e-05
0.00024191473
-2.521855e-06
4.3752238e-06
0.00019200143
3.1074662e-05
2.8540458e-05
0.00014966567
4.0918998e-05
2.6605204e-05
0.00017035753
-1.9961023e-05
0.00019829414
-9.7792568e-05
0.00022689601
-8.7988944e-05
-5.7878854e-05
0.00017744145
-3.8046952e-05
-6.956832e-05
-0.00013665931
2.6618391e-05
0.00050031731
-0.00021283494
-0.00018435959
-8.9003878e-06
1.8553711e-05
-0.00029537176
-1.3523893e-05
3.6547123e-05
-0.00031161331
1.012186e-05
4.7038686e-05
-0.0003357455
2.991338e-05
2.5293474e-05
-0.00029823348
-8.7241677e-05
4.7207802e-05
-0.00020865769
0.00011795142
-0.0001905842
-0.00026118834
-8.840009e-06
6.1315312e-05
-0.00029450031
-3.9859973e-06
4.5479625e-05
-0.00031139751
-6.4607736e-06
3.2357189e-05
-0.00034110649
-2.9055011e-06
1.7360442e-05
-0.0003094681
-0.00011650872
4.6456065e-05
-0.00022798044
0.00010352804
-0.00019162348
-0.00026315493
-3.3571357e-05
5.9618158e-05
-3.1308777e-05
4.3624312e-05
0.00030819222
-3.0172581e-05
5.0790282e-05
0.00023846348
-2.6856854e-05
6.3014239e-05
8.441028e-05
0.00012624465
-1.5056572e-05
4.2865118e-05
0.00011098712
-3.9557524e-05
0.0003593571
2.3428369e-05
-0.0001455537
0.00035917768
-1.2137866e-05
9.4117898e-06
0.00032944491
-1.174958e-05
3.502158e-05
0.00029131307
-8.3717205e-06
4.2517563e-05
0.00023398026
-7.4989633e-06
5.5991763e-05
7.120616e-05
0.00012467751
-2.2523367e-06
4.0348927e-05
0.00012469661
-2.27807e-05
0.0003603634
4.0185409e-05
-0.0001511747
0.00036504783
1.4259075e-05
1.0969879e-05
0.00032981563
7.9339358e-06
3.7420126e-05
0.00027551015
2.3861282e-06
3.8395452e-05
0.00022565142
1.6309644e-06
3.9327388e-05
0.00052495609
1.2400378e-05
-0.00028508666
0.00057696878
0.00040944593
-0.00012118634
0.00021727704
6.1866446e-05
0.00039799674
4.0562786e-05
7.6542804e-05
0.0002336578
2.8222806e-05
0.00025017729
3.2323288e-07
0.00029335291
-7.8262505e-05
1.0639672e-05
0.00030229133
-2.2087756e-05
-1.0954133e-06
0.00030422706
-7.7115259e-06
2.0827157e-07
0.000302877
-3.8632914e-06
2.7916895e-06
0.00029995308
-2.509171e-06
4.1155672e-06
0.00029635275
-2.1974931e-06
4.7233341e-06
0.0002925971
-2.0050158e-06
4.8739343e-06
0.00028870467
-1.7729011e-06
4.8401573e-06
0.00028513558
-1.6079372e-06
4.4675476e-06
0.0002814085
-1.2653166e-06
4.4287196e-06
0.00027826987
-1.2276615e-06
3.8017141e-06
0.00027502215
-9.5423816e-07
3.8134484e-06
0.00027233318
-1.0135623e-06
3.1943616e-06
0.00026992167
-8.921886e-07
2.9414037e-06
0.00026760128
-7.9446194e-07
2.7325936e-06
0.00026595863
-8.4459232e-07
2.1149334e-06
0.00026407168
-6.1850743e-07
2.2487441e-06
0.00026283853
-7.8973423e-07
1.6055617e-06
0.00026182389
-7.1607415e-07
1.424438e-06
0.00026087839
-6.1915441e-07
1.2617713e-06
0.00026049298
-7.267438e-07
7.4112472e-07
0.00026006131
-5.8558593e-07
7.5499561e-07
0.00025994018
-5.5044657e-07
3.7718739e-07
0.00026025175
-6.5433014e-07
7.6921251e-10
0.00026046537
-5.9214701e-07
1.0036241e-07
0.00026112367
-6.1903713e-07
-3.8719052e-07
0.00026208166
-5.9082671e-07
-6.7463569e-07
0.00026291095
-5.2752211e-07
-5.629101e-07
0.00026421929
-5.9613598e-07
-1.0623231e-06
0.00026580777
-5.8333689e-07
-1.3144864e-06
0.00026722517
-5.1664864e-07
-1.1683594e-06
0.00026909881
-5.7292622e-07
-1.6444405e-06
0.00027124095
-5.8168879e-07
-1.8859488e-06
0.00027330642
-5.2599748e-07
-1.8173451e-06
0.00027559751
-5.2713894e-07
-2.0815257e-06
0.00027825066
-5.7098944e-07
-2.4189518e-06
0.0002809619
-5.3678408e-07
-2.4625711e-06
0.00028361656
-5.0463539e-07
-2.4476049e-06
0.00028669511
-5.7660839e-07
-2.8436316e-06
0.00028993103
-4.4004699e-07
-3.0365945e-06
0.00029291768
-3.5141636e-07
-2.8416916e-06
0.00029606387
-3.546552e-07
-3.049428e-06
0.00029919242
-9.0468821e-08
-3.11857e-06
0.00030184969
4.0650734e-07
-2.8882812e-06
0.00030356938
1.2324066e-06
-2.3569931e-06
0.00030416894
2.5653103e-06
-1.8034295e-06
0.00030252563
5.3701832e-06
-6.73558e-07
0.00029709412
1.1216549e-05
8.8183104e-07
0.00028597201
2.3320167e-05
1.326807e-06
0.00024467846
7.3536258e-05
-1.1718339e-05
0.00022588862
-1.3889915e-06
3.7755097e-05
-3.1908382e-05
-0.00041039784
1.0542896e-05
0.00054482369
-0.00010721365
-0.00035044445
2.897534e-05
-1.5392465e-05
-0.00034840369
2.1713502e-05
-4.3410068e-07
-0.00034693396
1.0484108e-05
-7.3728927e-07
-0.00034468553
5.2642326e-06
-2.142478e-06
-0.00034168068
2.8481113e-06
-3.2876473e-06
-0.00033813847
1.4938616e-06
-3.8036712e-06
-0.0003341167
5.4000663e-07
-4.1552615e-06
-0.00032989425
-1.0227283e-07
-4.2106551e-06
-0.00032587224
-3.4342775e-07
-4.0332292e-06
-0.00032185715
-4.7533849e-07
-3.8911721e-06
-0.00031771026
-6.0239584e-07
-3.984545e-06
-0.00031397551
-7.0183453e-07
-3.6095162e-06
-0.00031050258
-6.6711798e-07
-3.3104522e-06
-0.00030707251
-7.3208052e-07
-3.2347683e-06
-0.00030382711
-6.9822734e-07
-3.1181626e-06
-0.00030091063
-6.8694167e-07
-2.7566817e-06
-0.00029822896
-7.5838688e-07
-2.4492761e-06
-0.00029566092
-7.555905e-07
-2.3941447e-06
-0.00029332582
-7.3471083e-07
-2.1733165e-06
-0.0002914122
-7.8473115e-07
-1.6455318e-06
-0.00028957584
-7.91818e-07
-1.6278808e-06
-0.00028799929
-7.8747632e-07
-1.3852056e-06
-0.000286794
-8.3362845e-07
-8.9918604e-07
-0.0002857732
-8.353558e-07
-7.7626851e-07
-0.00028503195
-8.5795045e-07
-5.0234268e-07
-0.00028466122
-9.6010461e-07
-2.7733702e-09
-0.00028452922
-9.1816955e-07
1.3184339e-07
-0.00028461894
-8.3505266e-07
3.7432732e-07
-0.00028506774
-1.0186148e-06
8.8182295e-07
-0.00028594552
-1.0406576e-06
1.1916929e-06
-0.00028701544
-9.89776e-07
1.4405461e-06
-0.00028841372
-1.2149569e-06
1.8971677e-06
-0.00029031557
-1.1277181e-06
2.2398328e-06
-0.00029234179
-1.2202469e-06
2.6279554e-06
-0.00029490663
-1.3283524e-06
3.0486001e-06
-0.00029786346
-1.3032967e-06
3.4656615e-06
-0.00030103041
-1.5776268e-06
3.8523886e-06
-0.00030476972
-1.5564287e-06
4.2821747e-06
-0.00030870441
-1.79174e-06
4.7721947e-06
-0.00031322755
-1.9686952e-06
5.2641717e-06
-0.00031789947
-2.2446054e-06
5.6512118e-06
-0.00032303394
-2.6394834e-06
6.1660186e-06
-0.00032832854
-2.9336842e-06
6.4553779e-06
-0.00033389968
-3.3273504e-06
6.8934796e-06
-0.00033960024
-3.3469292e-06
6.8499906e-06
-0.0003451664
-3.2177142e-06
6.274707e-06
-0.00035031386
-2.7574801e-06
4.0416483e-06
-0.00035225304
-6.5787305e-06
8.0638879e-07
-0.00037249287
1.7894933e-05
-1.9742864e-05
-6.6856658e-05
1.4098025e-05
-0.0002036936
-5.5403347e-06
0.00014312229
-7.4501846e-07
-0.00017073689
8.8638797e-07
6.7196869e-06
-6.3046074e-05
0.00010662955
0.00019512557
-6.3239933e-07
0.00016337566
-0.00045996848
0.00023417914
0.00017706302
0.00012057277
-0.00051492394
0.00021665575
3.4188741e-05
-4.042476e-05
0.00016527676
1.8022282e-05
1.762678e-05
0.00014325724
-6.1225031e-06
1.6532487e-05
0.00017337217
-8.9022142e-06
0.0001260059
-1.9574781e-06
0.00011209779
-5.6647259e-06
1.4032499e-05
0.00030136306
-0.00016528704
0.00011914407
0.00039783705
8.9670949e-07
-7.9475772e-05
0.00038485383
2.4595667e-05
-1.8191178e-05
0.00037861364
-5.7595647e-09
3.4884752e-06
0.000371226
-3.6601338e-06
7.8300555e-06
0.00036411563
-4.5205807e-06
8.2840243e-06
0.00035680715
-4.4870922e-06
8.4682235e-06
0.00035041482
-4.2073653e-06
7.666013e-06
0.00034397158
-3.5625713e-06
7.3663259e-06
0.00033824608
-3.2311436e-06
6.712041e-06
0.00033277762
-2.6579349e-06
6.1576949e-06
0.00032775476
-2.489969e-06
5.7210876e-06
0.00032357386
-2.165315e-06
4.7897892e-06
0.00031924438
-2.0330541e-06
4.7849018e-06
0.00031594678
-1.8956081e-06
3.8899148e-06
0.00031268722
-1.6993545e-06
3.6305589e-06
0.00031012699
-1.7479751e-06
3.0879671e-06
0.00030805814
-1.4880686e-06
2.4291973e-06
0.00030587401
-1.4847408e-06
2.4539147e-06
0.00030480563
-1.415446e-06
1.4940532e-06
0.00030369951
-1.2951624e-06
1.3606179e-06
0.00030284793
-1.317189e-06
1.1501523e-06
0.00030295762
-1.1864074e-06
2.4166618e-07
0.00030307397
-1.1010907e-06
6.6569533e-08
0.0003031683
-1.1281807e-06
7.3749517e-08
0.00030409875
-1.1178943e-06
-6.7050975e-07
0.00030521513
-9.8545725e-07
-9.662774e-07
0.00030644069
-1.0097934e-06
-1.049388e-06
0.00030842083
-1.0061519e-06
-1.7614653e-06
0.00031047176
-8.9289916e-07
-1.9498546e-06
0.00031252971
-9.1822482e-07
-1.9244561e-06
0.00031539342
-9.1729032e-07
-2.6811315e-06
0.00031836944
-8.2811697e-07
-2.9034866e-06
0.00032131231
-8.4911837e-07
-2.8521381e-06
0.0003248204
-8.5372251e-07
-3.3413094e-06
0.00032866033
-7.5807714e-07
-3.7800818e-06
0.00033250445
-7.789926e-07
-3.7972082e-06
0.00033663049
-7.9218307e-07
-4.0009778e-06
0.00034091565
-4.2559517e-06
-7.3104594e-07
0.00034573006
-4.7230053e-06
-6.9379798e-07
0.00035052221
-4.7197747e-06
-5.4771166e-07
0.00035545772
-4.9185123e-06
-3.6042424e-07
0.00036050862
-5.0484721e-06
-1.0470178e-07
0.00036571675
-5.1635941e-06
4.954723e-07
0.00037099668
-4.9814163e-06
1.1953496e-06
0.0003764824
-4.4722791e-06
1.8346706e-06
0.00038290608
-3.1477313e-06
1.988277e-06
0.00039228325
-7.2929765e-07