/*--------------------------------*- C++ -*----------------------------------*\
| =========                 |                                                 |
| \\      /  F ield         | OpenFOAM: The Open Source CFD Toolbox           |
|  \\    /   O peration     | Version:  v2012                                 |
|   \\  /    A nd           | Website:  www.openfoam.com                      |
|    \\/     M anipulation  |                                                 |
\*---------------------------------------------------------------------------*/
FoamFile
{
    version     2.0;
    format      ascii;
    class       volScalarField;
    location    "200";
    object      k;
}
// * * * * * * * * * * * * * * * * * * * * * * * * * * * * * * * * * * * * * //

dimensions      [0 2 -2 0 0 0 0];


internalField   nonuniform List<scalar> 
121349
(
0.061928747
0.060313192
0.05871086
0.057122855
0.055549315
0.053991249
0.052448826
0.050923002
0.049413978
0.047922306
0.046448538
0.044993197
0.043556903
0.042140591
0.040744642
0.039369952
0.038016883
0.036686242
0.035378388
0.034094079
0.032833679
0.031597886
0.030387059
0.029201681
0.028042215
0.026909101
0.0258028
0.024723866
0.023672617
0.022649535
0.021654874
0.020689009
0.019752126
0.018844428
0.01796607
0.017117211
0.016297879
0.01550809
0.01474779
0.014016851
0.013315081
0.012642221
0.011997896
0.01138175
0.010793708
0.01023349
0.0097014796
0.0091987203
0.0087226393
0.0082772701
0.0078569582
0.0074634646
0.006440846
0.0072418547
0.008039534
0.0083678413
0.0084472357
0.0088436707
0.0088962251
0.0086928933
0.0087493578
0.0087336972
0.0089407249
0.0089752398
0.0087322702
0.0088781036
0.0090568547
0.0092368813
0.0095735561
0.0097366711
0.0099540445
0.010133739
0.010385515
0.010051966
0.0099534776
0.01009638
0.0099773312
0.010168057
0.010328269
0.010385025
0.010076098
0.010293649
0.01029104
0.010341813
0.010312797
0.010330924
0.010198377
0.010821934
0.011094509
0.011100473
0.011482033
0.011926798
0.012688577
0.015486229
0.014605887
0.01630074
0.014608716
0.014746556
0.0119824
0.0099089062
0.0090399062
0.010245571
0.014378235
0.019358177
0.026854916
0.02909858
0.032101675
0.031763478
0.033195044
0.032210406
0.033494313
0.032789269
0.03428315
0.033439936
0.035226306
0.034486591
0.035943419
0.034733338
0.03556373
0.033242644
0.032196432
0.031804724
0.032570798
0.033453759
0.032690443
0.031836758
0.031711556
0.031486542
0.031758708
0.031712933
0.03180052
0.031598806
0.031573043
0.031358217
0.031291162
0.031323349
0.03150827
0.031464775
0.031500492
0.031317021
0.03139668
0.031281768
0.031208186
0.031113352
0.031378211
0.031543642
0.03139242
0.03095746
0.03053084
0.030414193
0.031037649
0.032588563
0.030553366
0.029856016
0.030063233
0.030371018
0.030546841
0.030842509
0.031016107
0.031146989
0.031000693
0.03124153
0.031277314
0.031152967
0.030913657
0.031102631
0.031129029
0.03111426
0.030957307
0.030928968
0.030862491
0.030851494
0.031059229
0.031041314
0.031142506
0.031198246
0.031076531
0.03141892
0.031502819
0.031345259
0.031204117
0.031343135
0.031368244
0.031230916
0.03123769
0.031429612
0.031452207
0.03131967
0.031155177
0.031226058
0.031462198
0.031475936
0.031617716
0.031828925
0.032137024
0.032396263
0.032418414
0.032614556
0.032711869
0.032562977
0.032519636
0.032601108
0.032588759
0.03240581
0.032176215
0.032383396
0.032497312
0.032678248
0.03271288
0.032943139
0.033029839
0.033010366
0.033023152
0.032988025
0.033271085
0.033326413
0.033312285
0.033612637
0.033844577
0.034213426
0.035096031
0.036264065
0.038211209
0.037415041
0.038531159
0.037994491
0.039049342
0.037890039
0.03849016
0.037142127
0.037789515
0.036378141
0.036993343
0.0356498
0.036715426
0.035655453
0.036635368
0.035465763
0.036725066
0.03546709
0.036406657
0.034858117
0.036238508
0.034759104
0.035864232
0.033526212
0.032588413
0.026893422
0.020951729
0.015408356
0.0098259023
0.011808292
0.017474838
0.022608665
0.027964657
0.031646355
0.034172814
0.034689022
0.035014984
0.034920149
0.034794653
0.034997292
0.035542075
0.035467515
0.035448437
0.03533984
0.036215023
0.035573421
0.035828382
0.035820816
0.03683987
0.036718081
0.037491322
0.037365431
0.038197613
0.037987765
0.037941232
0.037376361
0.037379565
0.036770085
0.037195145
0.038011792
0.038477649
0.038115417
0.037811929
0.037819029
0.037403385
0.037146337
0.036494109
0.03624057
0.036258467
0.036486256
0.035773479
0.0359809
0.035931141
0.035412571
0.035234829
0.034932575
0.035171463
0.035348502
0.034730237
0.033897888
0.031351075
0.028138132
0.023499636
0.018328671
0.012749865
0.013716581
0.019022682
0.024196159
0.02822372
0.031289556
0.033294287
0.034066281
0.034905675
0.034405775
0.034746528
0.034589497
0.034974529
0.035286273
0.035392351
0.035612994
0.035977964
0.035834621
0.035908196
0.035971717
0.036496082
0.036426645
0.037057446
0.03706735
0.037491857
0.037706107
0.037448854
0.036482676
0.035383119
0.035038474
0.035743285
0.036807866
0.037318388
0.037424375
0.037247073
0.037158449
0.036705474
0.036202006
0.03599821
0.036210819
0.03626846
0.036056162
0.035942146
0.036409477
0.035937399
0.035145696
0.034690325
0.035073455
0.034795802
0.034727629
0.033749256
0.033260382
0.031173813
0.028319265
0.024451829
0.019945785
0.01417448
0.01421763
0.019927271
0.02465961
0.028003893
0.031232892
0.033111679
0.033745246
0.034347747
0.034697641
0.034877889
0.034500909
0.035040973
0.035689491
0.036148375
0.035809901
0.036008539
0.036445639
0.036039564
0.035797436
0.035850542
0.036648749
0.03746757
0.037250324
0.03743119
0.036924512
0.036436502
0.035569651
0.035073631
0.034531676
0.035442128
0.036494651
0.036864455
0.03691871
0.036942181
0.037028507
0.036030484
0.035579847
0.03555536
0.035704023
0.035712389
0.036058348
0.035503483
0.036048236
0.035548143
0.034783462
0.034531715
0.035144245
0.034851362
0.034154264
0.033178878
0.032248098
0.030470832
0.027402854
0.023556651
0.019758438
0.01412106
0.014133969
0.019702718
0.023716265
0.027248795
0.029990144
0.032054977
0.032753463
0.033911355
0.0337487
0.034049421
0.033657647
0.03395531
0.034891647
0.035147412
0.035181818
0.035426237
0.034881926
0.034790654
0.034892061
0.035040879
0.035740528
0.036699151
0.036251002
0.036383036
0.036231081
0.036040179
0.035353844
0.034662267
0.035056385
0.035561069
0.036103284
0.036530392
0.036625993
0.036247643
0.036571453
0.035291656
0.034676935
0.034220202
0.034263266
0.034233118
0.034259294
0.033817781
0.034530452
0.034037883
0.033453875
0.033109504
0.033298044
0.03293335
0.033122293
0.032316042
0.032460939
0.03022962
0.027377823
0.023788765
0.019393454
0.014127982
0.014519134
0.019550637
0.02311142
0.026935448
0.029827126
0.031618191
0.031514649
0.032203675
0.032158102
0.032487692
0.032269297
0.032303244
0.033287291
0.033850274
0.033229558
0.033303837
0.033755869
0.033472328
0.03376065
0.033944527
0.035059865
0.035948021
0.036191733
0.036398116
0.036844121
0.035771478
0.0351397
0.034140957
0.034700443
0.035328079
0.036160654
0.037168384
0.03694568
0.035698398
0.035662062
0.034505998
0.033974146
0.033274958
0.033605959
0.033432627
0.033307043
0.032515934
0.033287355
0.032764844
0.03217992
0.031908429
0.032124777
0.032072769
0.031758847
0.031006857
0.030969932
0.029409746
0.026901796
0.022891144
0.01892516
0.014076611
0.014092281
0.018610069
0.022893038
0.026413523
0.028706509
0.03039436
0.030655944
0.031396222
0.031882698
0.031751292
0.031510149
0.031548199
0.032391093
0.033002635
0.032645917
0.033062682
0.033094739
0.033120188
0.033301377
0.03367693
0.034250567
0.035275293
0.035647432
0.036711726
0.036474659
0.035944541
0.035177346
0.034144063
0.03395874
0.034784559
0.035889816
0.036318419
0.036097251
0.035460921
0.035092326
0.033890449
0.033318193
0.032841203
0.032759565
0.03280378
0.032831001
0.032475524
0.032647335
0.032103776
0.031143502
0.031161495
0.03205875
0.032062454
0.031570375
0.030605966
0.03054598
0.028996664
0.026145809
0.022674444
0.018989449
0.014268386
0.014096616
0.018945212
0.022162575
0.025791896
0.028992866
0.030535903
0.031022914
0.031852993
0.031334707
0.031637157
0.03058723
0.03106315
0.032498216
0.03279838
0.032114196
0.032056447
0.032434304
0.032293681
0.032897333
0.032884699
0.034004434
0.035204035
0.035059619
0.035661738
0.036231033
0.035775776
0.034921488
0.034454992
0.03385013
0.034723558
0.035973539
0.036026261
0.035911706
0.035110373
0.034755947
0.033738367
0.033236342
0.032997911
0.032805407
0.032642253
0.032569062
0.031783186
0.032762286
0.03220611
0.032225937
0.03125746
0.031377941
0.031429328
0.031196784
0.030630347
0.030553081
0.028781418
0.026126011
0.02255575
0.01852606
0.014021745
0.014300894
0.019309056
0.022947958
0.026224064
0.028923351
0.030301511
0.030671582
0.031121479
0.030812778
0.030807415
0.030968816
0.03181895
0.031672072
0.032471556
0.031507577
0.031918909
0.032166486
0.032821208
0.033588763
0.033470353
0.034529813
0.035055877
0.035259667
0.035556593
0.035650047
0.035469565
0.034732051
0.034081571
0.033803391
0.034235818
0.034930175
0.035154716
0.035455855
0.03497448
0.034864049
0.034218462
0.034367489
0.0341064
0.033743114
0.032915886
0.032119485
0.031869873
0.032144639
0.031517239
0.031690494
0.031435437
0.030792838
0.030649861
0.030778416
0.030456494
0.030625157
0.028954806
0.026602651
0.023659282
0.01999515
0.014952552
0.014851445
0.019864109
0.02361813
0.026849765
0.029233231
0.030768362
0.030705748
0.031185601
0.031117203
0.031277952
0.031130131
0.031146276
0.031574669
0.032072284
0.031692267
0.032078514
0.032686465
0.033281428
0.033234126
0.033949792
0.034202839
0.034818748
0.035329755
0.035556278
0.035061916
0.034761902
0.034439687
0.033683465
0.033256016
0.034094981
0.035145248
0.035556814
0.035431893
0.034704252
0.034868059
0.034115856
0.033987624
0.033166988
0.03320345
0.032598359
0.031725753
0.031736752
0.03196371
0.03128722
0.031020659
0.03114878
0.031261581
0.031089419
0.031108382
0.030913908
0.030714033
0.029387762
0.026983872
0.024057345
0.020203313
0.0151799
0.015187234
0.020258641
0.024124078
0.027174442
0.029136879
0.030302032
0.031060725
0.031198239
0.031224432
0.031544884
0.030686723
0.03110179
0.031263789
0.031969486
0.031548675
0.031630528
0.032453826
0.032961572
0.032827936
0.033651631
0.03415709
0.034369552
0.034653891
0.035460616
0.035159139
0.035114498
0.034612694
0.033757395
0.034163023
0.034510661
0.034913882
0.03506266
0.035468259
0.034547125
0.034467266
0.033835835
0.033418584
0.032799067
0.03278396
0.032530038
0.031967082
0.032037073
0.031574814
0.031191714
0.031432685
0.031028356
0.03147055
0.030872573
0.031190275
0.03068507
0.030408793
0.029137268
0.027492847
0.024133101
0.020274685
0.015270911
0.015674682
0.020739868
0.024227842
0.02745712
0.029385417
0.03030708
0.030450682
0.031003175
0.031019969
0.031344
0.030664973
0.03155316
0.031533867
0.032029259
0.032055126
0.032097958
0.032782764
0.032891557
0.032927171
0.033449617
0.034099437
0.034578357
0.034730832
0.035349685
0.03491403
0.034637798
0.034370234
0.033954884
0.033932469
0.034417017
0.034878983
0.035241662
0.035433122
0.035135758
0.035192066
0.034416363
0.033479524
0.033312946
0.033244635
0.032845125
0.032179669
0.032102874
0.032337583
0.031997127
0.031610799
0.031377607
0.031537045
0.031448039
0.031013723
0.030963198
0.030535985
0.029088368
0.02721253
0.023923459
0.02041901
0.01551546
0.015446407
0.020545275
0.024352597
0.027302918
0.028851821
0.030243986
0.031038766
0.031470381
0.030959818
0.031314713
0.031144646
0.031599183
0.031844495
0.031694871
0.031644712
0.032136988
0.032362293
0.032613116
0.033177887
0.032993954
0.034119877
0.034752242
0.034915884
0.0353381
0.035069521
0.034922313
0.03448112
0.033795627
0.034271963
0.034291444
0.034998959
0.035450216
0.035370795
0.035024306
0.034871205
0.03401495
0.033018113
0.033146761
0.032538014
0.032421474
0.032421616
0.031972827
0.031822952
0.03144307
0.031323376
0.031151879
0.031401248
0.031236439
0.031218984
0.031180923
0.030254614
0.029064088
0.027774432
0.024335331
0.020823995
0.015509395
0.015367116
0.020537735
0.023521649
0.027324231
0.029007422
0.030001548
0.030788613
0.031517188
0.031362065
0.031319362
0.031207428
0.031095316
0.031289991
0.031712156
0.031642092
0.032338161
0.032408115
0.032720181
0.032725882
0.032670083
0.033882027
0.034387497
0.034842688
0.035099366
0.035164986
0.034813961
0.034325367
0.034288515
0.033764367
0.034215122
0.034933963
0.035639916
0.035568786
0.034794802
0.034348166
0.033910739
0.033386638
0.03298815
0.033223467
0.032990621
0.032687126
0.031964759
0.032252721
0.031654211
0.031332333
0.031221172
0.031455392
0.031706435
0.031377395
0.031114684
0.030743785
0.029423632
0.026989614
0.023993135
0.020414469
0.015216885
0.015641114
0.020468102
0.024139718
0.027129127
0.028976817
0.030080471
0.031059941
0.031300371
0.031273173
0.031433179
0.031667799
0.031449674
0.031574668
0.031872976
0.031598164
0.032476501
0.032396167
0.032692704
0.032649203
0.033158974
0.033526708
0.033920272
0.03487619
0.035290019
0.035006391
0.034941038
0.034472975
0.033892403
0.033388906
0.033983942
0.034932958
0.034735475
0.034648054
0.034281581
0.033541683
0.033385183
0.033097226
0.032718546
0.03229839
0.032021129
0.031820725
0.031576298
0.03203041
0.031408193
0.031896928
0.031378132
0.031643193
0.031857213
0.031821637
0.031165855
0.030641897
0.028802554
0.027075454
0.024291592
0.020565524
0.015351732
0.015202881
0.020216323
0.024068087
0.02688333
0.028871263
0.030578572
0.030904576
0.03151225
0.031212021
0.031513234
0.031323856
0.031621622
0.031498809
0.03224057
0.031692866
0.031580567
0.032232
0.03256679
0.032729089
0.033136478
0.033046268
0.033347843
0.034053911
0.034303499
0.034925269
0.034477011
0.033411311
0.033177409
0.033051062
0.033705484
0.034765265
0.034845154
0.034560425
0.034417099
0.033548379
0.032911945
0.032514182
0.03223757
0.03243138
0.032327501
0.031881409
0.031583854
0.032359003
0.031901289
0.031383996
0.031197377
0.031732488
0.03174122
0.031423374
0.03053594
0.030453158
0.02891605
0.026786841
0.024179815
0.020269546
0.015068702
0.015506444
0.020323276
0.023727275
0.027068268
0.029338169
0.030269476
0.030356186
0.031077301
0.030837776
0.030973662
0.030845292
0.031263287
0.030919538
0.031630143
0.031138003
0.031631184
0.032315082
0.032217655
0.032352838
0.032971462
0.032829759
0.033211458
0.034058127
0.034086064
0.034157736
0.034177027
0.033392836
0.0328776
0.033191454
0.033401118
0.034345846
0.034508279
0.034818491
0.034544263
0.033282987
0.033010332
0.032524197
0.032300581
0.032433926
0.032099021
0.031780966
0.031599994
0.031537945
0.030690284
0.030852612
0.0305686
0.030761394
0.030732902
0.031107441
0.030427239
0.03016766
0.029107224
0.02763487
0.024508453
0.020457205
0.015676087
0.015644674
0.020711729
0.024312645
0.027250769
0.02865668
0.029921281
0.030435587
0.031027691
0.030462701
0.030516387
0.030525675
0.030923048
0.030498263
0.03104845
0.030751741
0.031709381
0.032131375
0.032271566
0.032134581
0.032667085
0.033003132
0.033562013
0.034574273
0.034614189
0.034713431
0.03385213
0.033371932
0.032581436
0.032644816
0.033591978
0.034419178
0.034985767
0.034998786
0.034449861
0.034285038
0.033807538
0.032692685
0.032312325
0.032101277
0.032002672
0.031716697
0.031035047
0.031070732
0.030404055
0.030778567
0.030874106
0.030972411
0.030484158
0.030795491
0.030943838
0.030179424
0.029066655
0.027148125
0.024424749
0.020648283
0.015307222
0.015281986
0.020580009
0.023861847
0.026818689
0.028665129
0.029951352
0.031126216
0.031000893
0.030725661
0.030822128
0.030645354
0.030029919
0.030303752
0.030962151
0.030670576
0.031139
0.031934769
0.032236227
0.032294604
0.032939894
0.033521637
0.034053507
0.034185728
0.034427372
0.034205627
0.033886096
0.033476187
0.032569933
0.032922334
0.033113612
0.034201138
0.034370491
0.033986539
0.034300295
0.034235819
0.033178288
0.032394536
0.032081816
0.031947675
0.0314824
0.031226712
0.03058793
0.030927491
0.030733298
0.030439351
0.030805686
0.030843908
0.031078722
0.031044244
0.030871964
0.030682775
0.029064739
0.027274591
0.023843349
0.020455332
0.015736815
0.016255848
0.02113586
0.024286224
0.027350937
0.029018773
0.03054519
0.030493646
0.030847695
0.03063568
0.03060576
0.030993035
0.030653367
0.030666906
0.030684675
0.030415545
0.031208242
0.031393498
0.031972245
0.032129138
0.032486914
0.033480222
0.034147696
0.033823283
0.033589065
0.034254559
0.033986051
0.033125615
0.033134965
0.032645921
0.033075658
0.033795578
0.034775408
0.034386103
0.034007865
0.034203992
0.03372111
0.032999419
0.032595342
0.031726551
0.031591576
0.03104648
0.030079747
0.030454762
0.030415147
0.030425024
0.031005044
0.030924008
0.031137367
0.030749282
0.030626358
0.030874786
0.029920014
0.027852613
0.024707017
0.021259679
0.01639419
0.016812855
0.021953512
0.025573472
0.028367423
0.029547009
0.030812188
0.030863295
0.030604459
0.031172722
0.030528753
0.030272575
0.030415031
0.030059773
0.030395069
0.030484635
0.030857148
0.031279621
0.03187813
0.032663191
0.032979827
0.033412598
0.033784211
0.033940979
0.034430158
0.034591453
0.033822986
0.032906205
0.032461404
0.032861472
0.032813998
0.033720086
0.034471834
0.034350611
0.03396169
0.033865637
0.033390061
0.033111814
0.032231295
0.032009374
0.031438853
0.031023132
0.030534843
0.031051026
0.030703389
0.030638347
0.029985307
0.030996281
0.030920794
0.031026416
0.030918424
0.03130166
0.030615983
0.028943882
0.026092674
0.022545657
0.017592522
0.017885769
0.022626691
0.02591564
0.028821528
0.030054642
0.031280878
0.031090228
0.030789504
0.030952248
0.030714642
0.030197494
0.030595008
0.030294591
0.030637582
0.030600511
0.031156104
0.031356595
0.031903785
0.031697685
0.032748148
0.033452933
0.034162157
0.03398421
0.033967544
0.034287701
0.033766105
0.033024573
0.032985138
0.032551069
0.033098166
0.033891545
0.034350614
0.034179128
0.034134821
0.034085756
0.033560574
0.032549052
0.032143008
0.032289545
0.031864228
0.031273249
0.030659906
0.030722645
0.030325739
0.030200562
0.029955749
0.030464523
0.030706077
0.030898105
0.03107802
0.031359275
0.030854685
0.029107133
0.026213042
0.023018634
0.018779492
0.018609638
0.022830469
0.025935037
0.028603368
0.029777772
0.030638137
0.031140992
0.030638557
0.03068852
0.030514354
0.029884739
0.029923421
0.030374066
0.030749383
0.030301642
0.031224777
0.031402501
0.031823104
0.031882687
0.032446856
0.033329997
0.033978694
0.033971766
0.034269706
0.034188287
0.033788766
0.033222717
0.032751004
0.033050598
0.033031647
0.033568261
0.034080368
0.034055128
0.033332029
0.033097465
0.03297067
0.032779014
0.031578967
0.031370811
0.031101589
0.031045993
0.030772788
0.031249819
0.030215158
0.030045028
0.030065589
0.030651353
0.030482644
0.0298979
0.030408489
0.030243253
0.028967555
0.027628531
0.025520528
0.022676858
0.01889759
0.017716067
0.021292029
0.024025865
0.026019712
0.027270034
0.028381897
0.028451011
0.029203121
0.029951714
0.030533795
0.030068184
0.030420314
0.030694662
0.03122406
0.030757046
0.031208806
0.03141855
0.031655324
0.031866356
0.03253853
0.032686536
0.033342905
0.033545898
0.034232239
0.034054723
0.033853502
0.033342344
0.033097453
0.032182204
0.032928253
0.03432839
0.034370358
0.03381575
0.033675478
0.033522245
0.032620294
0.032233303
0.031820422
0.032206757
0.032167613
0.031368171
0.031189238
0.030802531
0.030639875
0.030506113
0.030589478
0.03055048
0.030073128
0.028694662
0.027070317
0.026072553
0.024676282
0.023397297
0.021525295
0.019424609
0.016606769
0.014312286
0.01667661
0.018812041
0.020256225
0.021923769
0.023876347
0.025401269
0.027488641
0.029315163
0.030093749
0.030023827
0.030589625
0.030717117
0.030954615
0.030715478
0.03119448
0.031631126
0.032277811
0.032323759
0.032363257
0.032984958
0.033506207
0.03358859
0.03368764
0.033806563
0.034267722
0.033371874
0.032583915
0.032570477
0.033174921
0.034228247
0.034222031
0.034236383
0.033964764
0.033399895
0.033162009
0.032494924
0.032303792
0.032675428
0.031678777
0.030768117
0.030779948
0.030901177
0.030858506
0.030573159
0.030460706
0.030089804
0.028581405
0.026452926
0.024330183
0.022053913
0.019443488
0.017652443
0.016365955
0.014292949
0.012015617
0.011034156
0.013451922
0.015035528
0.016055632
0.017875656
0.020637764
0.023625364
0.026257794
0.028424878
0.029971314
0.030380451
0.030662565
0.03076744
0.030691423
0.030799421
0.030977909
0.031699181
0.032269139
0.03175004
0.032528596
0.033120003
0.033604715
0.034284571
0.034087793
0.034161347
0.033505965
0.032774674
0.03214338
0.032770688
0.03306548
0.033510534
0.033658169
0.034058258
0.034074359
0.034039445
0.03413988
0.033229676
0.032395438
0.032438168
0.031556528
0.030909497
0.031032548
0.031162434
0.031238947
0.031005503
0.030241306
0.029966937
0.028546222
0.026665082
0.024023075
0.021934675
0.019712836
0.017546598
0.015787344
0.013957706
0.011829785
0.015249093
0.017408743
0.020249409
0.022417047
0.02373652
0.02502405
0.026179413
0.027452445
0.02895589
0.030062255
0.030515771
0.031111829
0.031392196
0.03107134
0.03125223
0.031143955
0.031731029
0.031959751
0.031880989
0.03300493
0.033305522
0.034015745
0.034113934
0.034298525
0.034023041
0.033735652
0.032773436
0.031915461
0.032065198
0.03239248
0.033506633
0.034244318
0.033950262
0.033955323
0.033645855
0.033078848
0.032855395
0.031852589
0.031943705
0.031772237
0.031533266
0.031729444
0.032136889
0.031734544
0.031037829
0.030657599
0.030329267
0.03004257
0.02926364
0.027966591
0.027277019
0.026538691
0.026139591
0.024531337
0.022491006
0.020434997
0.025985619
0.027034627
0.028277539
0.028807691
0.029502261
0.029178494
0.02921684
0.029746163
0.030114145
0.030410957
0.030321764
0.030488879
0.031758271
0.031987605
0.031573025
0.031208963
0.031679106
0.031803194
0.03197891
0.032942484
0.033559994
0.033985937
0.03371059
0.033785961
0.034322275
0.033704859
0.032603654
0.032371868
0.032211839
0.032804163
0.033971246
0.034491322
0.034670081
0.034082092
0.034142186
0.033870613
0.033049051
0.032139853
0.031801822
0.031956165
0.031956791
0.031939386
0.032613264
0.032030205
0.031337329
0.031318039
0.031049393
0.031208266
0.030700543
0.03030114
0.030588583
0.030424966
0.029962642
0.030019511
0.029629449
0.029410104
0.030946475
0.030776428
0.03127337
0.031160416
0.031619052
0.031614293
0.031072083
0.031253158
0.03155562
0.031157966
0.030960614
0.030713357
0.031902076
0.032143555
0.031546159
0.031911874
0.032090825
0.032463948
0.032879831
0.033416148
0.0333181
0.034113844
0.034364594
0.034134032
0.033866529
0.033442784
0.032856085
0.032429286
0.0323745
0.03261431
0.032957889
0.033913139
0.034070409
0.034071157
0.034763088
0.034010732
0.033231794
0.032748317
0.03291407
0.032478154
0.032254275
0.031749828
0.032150331
0.031875976
0.031366671
0.030828415
0.031581502
0.031460675
0.031365169
0.031360543
0.032451462
0.032123272
0.031690385
0.031964441
0.031857536
0.031849081
0.031993669
0.031690508
0.031522406
0.0316183
0.03241998
0.032621847
0.031957602
0.031435516
0.031510462
0.031635252
0.031335615
0.031699521
0.031370396
0.03207271
0.031846545
0.032331744
0.032002677
0.032545839
0.032617147
0.032959451
0.033703119
0.034687203
0.034257759
0.034290475
0.033646019
0.033066965
0.033141377
0.032405039
0.032040143
0.032803095
0.033580698
0.034274346
0.03414103
0.034317232
0.035028769
0.034190877
0.033221637
0.032634447
0.032583467
0.032363188
0.032418793
0.031835396
0.032269159
0.031662706
0.031588335
0.031256169
0.031908117
0.031611784
0.0317265
0.031882294
0.032665134
0.032259418
0.032236432
0.032040207
0.032466002
0.032323647
0.03221841
0.032575285
0.03207882
0.032252944
0.032440954
0.032652605
0.032183852
0.031893724
0.032091924
0.031945448
0.031665365
0.031692483
0.032172037
0.03232631
0.031906181
0.032521101
0.032400981
0.032653226
0.032764387
0.033005793
0.03383056
0.03466847
0.034362104
0.034252574
0.033912933
0.0336757
0.033468687
0.032590508
0.032887297
0.0331195
0.033534479
0.034038831
0.034274859
0.034284039
0.034428422
0.033533701
0.033601074
0.032892577
0.033079209
0.03286218
0.032937709
0.032327738
0.032606989
0.032373451
0.03186177
0.032199649
0.032639198
0.032430553
0.032447905
0.032046175
0.032323191
0.032185012
0.032325286
0.032523722
0.032658276
0.033003397
0.033150741
0.032391556
0.032512869
0.032431484
0.032525121
0.032478101
0.032540165
0.033081496
0.032889883
0.032690372
0.032567458
0.032275173
0.032849864
0.032866346
0.032901841
0.033493219
0.03345981
0.033660706
0.033192758
0.033814951
0.033599032
0.034098505
0.033825072
0.034288792
0.034396722
0.033677738
0.033590482
0.03276981
0.032329987
0.033149959
0.034412345
0.034909808
0.034831389
0.034448717
0.034793503
0.03392068
0.034410992
0.034010793
0.033914058
0.033976091
0.033894617
0.033514577
0.033598552
0.033327644
0.033162352
0.033476238
0.033529608
0.033407898
0.033180907
0.032895956
0.032593642
0.032725001
0.03266053
0.032979844
0.03295082
0.033320567
0.034107441
0.033714082
0.033481485
0.033516973
0.033665919
0.033346241
0.033644368
0.034209745
0.034051954
0.034286918
0.033792004
0.033833832
0.034038664
0.034559851
0.034068601
0.034264749
0.033960812
0.033665233
0.034530524
0.034946593
0.034045781
0.034478881
0.034587829
0.03428331
0.034567028
0.034259179
0.033682412
0.032628497
0.032360354
0.033159074
0.034263836
0.034630699
0.034694641
0.034631509
0.03436979
0.034283665
0.034449221
0.034476173
0.034079184
0.033818315
0.033994007
0.034354088
0.034207101
0.034454311
0.034028106
0.034156538
0.034813563
0.03487391
0.034867672
0.034219779
0.034182046
0.033795961
0.033807017
0.033768012
0.033840602
0.034325774
0.034562682
0.034062428
0.034246262
0.034206782
0.034102088
0.034546146
0.034486961
0.034796565
0.034875559
0.035115105
0.034445804
0.034272237
0.03471406
0.034665346
0.034788268
0.034948776
0.034547933
0.034843009
0.03455862
0.034599584
0.034366914
0.034702921
0.034665035
0.034541538
0.034014297
0.033999903
0.033085712
0.032123493
0.031881426
0.032708779
0.033869697
0.034306904
0.034176322
0.034445455
0.034978962
0.034254522
0.034329023
0.034301661
0.034973436
0.034766013
0.034685242
0.034931613
0.035418724
0.035246021
0.035211071
0.035111944
0.03501303
0.034724248
0.034940875
0.034668716
0.035197438
0.034417813
0.03427206
0.033972363
0.034363237
0.034997008
0.034666738
0.034303872
0.034291978
0.034399182
0.03444115
0.034840279
0.034401056
0.034564989
0.034508587
0.034578678
0.034431943
0.034817124
0.034706122
0.035080952
0.03525251
0.034524005
0.034386594
0.034308168
0.033997
0.033829285
0.034168696
0.034657976
0.034282047
0.033778352
0.033881796
0.033709636
0.032871868
0.031740797
0.03159581
0.03244979
0.033051825
0.033581788
0.033504261
0.033614681
0.034330375
0.033963447
0.034477411
0.034060216
0.034261464
0.033798133
0.034304414
0.034532641
0.035028199
0.034376381
0.03428046
0.034214348
0.034816425
0.034360032
0.034433894
0.034311032
0.034745366
0.034120294
0.034328828
0.033937834
0.034117066
0.033549308
0.032639846
0.033324505
0.033137979
0.033241609
0.033232273
0.033677822
0.033228322
0.032976067
0.033257991
0.033285445
0.033370484
0.033488914
0.033397918
0.033940893
0.033732191
0.033678625
0.033289036
0.033803975
0.033289996
0.033413936
0.033099865
0.033106395
0.032662923
0.032778856
0.032635758
0.03211371
0.03138771
0.030728549
0.030712892
0.031032289
0.031281909
0.031919962
0.032084515
0.032504587
0.031982755
0.031759036
0.032135811
0.03200775
0.032013239
0.031936734
0.032541482
0.032164613
0.032433463
0.032248801
0.031984277
0.032200994
0.032516821
0.032492928
0.032804749
0.032493587
0.032978545
0.032499618
0.032696265
0.032473725
0.032721751
0.032686562
0.033947908
0.033107513
0.034494953
0.035922594
0.037390963
0.03888389
0.040410422
0.041970116
0.043556872
0.045168441
0.046803648
0.048463689
0.050149337
0.051855498
0.053584788
0.055342924
0.057109907
0.058897522
0.060708691
0.062552788
0.064417098
0.066304005
0.068222487
0.070169001
0.072121134
0.074095018
0.076093199
0.078122782
0.080187771
0.082275865
0.084384182
0.08651193
0.088668601
0.090828695
0.093006926
0.095216238
0.097462658
0.099734895
0.1020272
0.10434203
0.10669062
0.10904653
0.11142141
0.11383149
0.11628338
0.11875988
0.12126763
0.1238002
0.12635961
0.12894462
0.13155329
0.13418861
0.13685594
0.13953153
0.14222168
0.14495151
0.14770198
0.1504673
0.15326487
0.15611327
0.1366125
0.13405177
0.13151656
0.12900843
0.12652565
0.12406958
0.12163834
0.11923321
0.11685242
0.11449713
0.11216576
0.10985935
0.10757646
0.10531807
0.10308286
0.10087154
0.098682792
0.096517261
0.094373927
0.092253602
0.090155669
0.088081094
0.086029232
0.084000716
0.081994778
0.080011896
0.078051436
0.076113939
0.074199016
0.072307204
0.070438063
0.068591973
0.066768615
0.064968461
0.063191262
0.061437427
0.059706767
0.0579997
0.056316086
0.05465624
0.053019996
0.051407449
0.049818454
0.048252675
0.046713188
0.045198336
0.043720004
0.042269681
0.040853354
0.039479588
0.03872989
0.040136072
0.04156971
0.0430339
0.044529332
0.046055406
0.047607393
0.04918397
0.050783781
0.05240718
0.054054142
0.055724816
0.057418376
0.059135145
0.060874993
0.062638052
0.064423293
0.066230991
0.06806122
0.069914278
0.071788597
0.073685713
0.075605335
0.077548392
0.079513908
0.081501682
0.083511776
0.085544688
0.087599949
0.089678758
0.09178122
0.093907543
0.096056323
0.098227292
0.10042038
0.10263615
0.10487382
0.10713486
0.10941943
0.11172785
0.11406038
0.1164174
0.1187991
0.12120574
0.12363758
0.12609496
0.12857914
0.13108934
0.13362775
0.13622356
0.13671811
0.13415641
0.13162478
0.12912125
0.12664479
0.12419491
0.12177121
0.11937316
0.11700059
0.11465334
0.11233118
0.11003224
0.10775687
0.10550468
0.10327559
0.1010695
0.09888654
0.096726642
0.094589758
0.09247586
0.090386619
0.08832073
0.086278253
0.084258899
0.082262566
0.080289215
0.078338925
0.076411794
0.074509014
0.072628448
0.070770109
0.068931104
0.067106229
0.065302911
0.063523027
0.061765138
0.060030899
0.058320296
0.056633859
0.0549715
0.053334403
0.051722437
0.050135963
0.048573635
0.047036333
0.045527162
0.044053329
0.042617248
0.041210362
0.0398305
0.039333296
0.040757751
0.042209854
0.043691713
0.045203741
0.046743691
0.048313959
0.049894362
0.051496254
0.053122843
0.054780021
0.05647096
0.058181546
0.059912091
0.061671433
0.063437589
0.065222934
0.067033021
0.068871997
0.070741168
0.072640244
0.074543974
0.076466195
0.078412448
0.080380994
0.082373387
0.084387943
0.086424333
0.088482497
0.090562509
0.092663909
0.094788437