/*--------------------------------*- C++ -*----------------------------------*\
| =========                 |                                                 |
| \\      /  F ield         | OpenFOAM: The Open Source CFD Toolbox           |
|  \\    /   O peration     | Version:  v2012                                 |
|   \\  /    A nd           | Website:  www.openfoam.com                      |
|    \\/     M anipulation  |                                                 |
\*---------------------------------------------------------------------------*/
FoamFile
{
    version     2.0;
    format      ascii;
    class       volScalarField;
    location    "200";
    object      omega;
}
// * * * * * * * * * * * * * * * * * * * * * * * * * * * * * * * * * * * * * //

dimensions      [0 0 -1 0 0 0 0];


internalField   nonuniform List<scalar> 
121349
(
22.936735
22.769316
22.606436
22.447924
22.293621
22.143368
21.997018
21.854422
21.715442
21.579945
21.447799
21.318877
21.193054
21.070204
20.950212
20.832959
20.718336
20.606233
20.496546
20.389171
20.284012
20.18097
20.079955
19.980878
19.88365
19.788187
19.694406
19.602225
19.511564
19.422346
19.334497
19.247943
19.162617
19.078449
18.995374
18.913328
18.832248
18.752075
18.672748
18.594204
18.516368
18.439155
18.362406
18.286026
18.209689
18.134591
18.059898
17.990691
17.923541
17.86341
17.80826
17.763786
17.609162
16.911891
16.347966
15.97663
15.764214
15.599683
15.532611
15.520485
15.493184
15.483441
15.459294
15.462664
15.495393
15.478214
15.455524
15.432483
15.395432
15.38274
15.359852
15.334491
15.297064
15.326293
15.334498
15.314161
15.317579
15.28798
15.271416
15.267922
15.303141
15.278958
15.281529
15.278036
15.283757
15.284794
15.29832
15.229653
15.200978
15.210246
15.193737
15.17925
15.119163
14.911677
15.040065
15.027385
15.31
15.551825
16.093134
16.813628
17.951641
19.326209
19.838021
18.698123
16.052462
13.983812
12.709861
12.050438
11.610596
11.418286
11.198001
11.147534
10.991681
11.02333
10.874053
10.946942
10.813029
10.945827
10.840138
11.067464
11.165406
11.216543
11.169187
11.028426
11.140556
11.236353
11.253724
11.277915
11.253599
11.250054
11.237708
11.256142
11.254566
11.272113
11.27467
11.275375
11.256911
11.25135
11.247986
11.260234
11.249013
11.254943
11.260115
11.270472
11.239088
11.222487
11.225132
11.264717
11.288819
11.296824
11.221665
11.030813
11.25722
11.338472
11.327167
11.313517
11.316956
11.293493
11.288293
11.279404
11.300728
11.280389
11.280278
11.289389
11.313486
11.296351
11.295025
11.301344
11.322541
11.324181
11.331846
11.335145
11.328017
11.332046
11.32423
11.325283
11.345815
11.318858
11.314396
11.331661
11.354872
11.343806
11.345624
11.360842
11.367572
11.352179
11.34819
11.361626
11.385353
11.380185
11.36308
11.369577
11.360338
11.346854
11.327335
11.31711
11.32329
11.313911
11.309716
11.321931
11.325665
11.32013
11.321432
11.341107
11.361558
11.347955
11.344762
11.332939
11.331857
11.31986
11.305157
11.317801
11.323367
11.326412
11.311248
11.31199
11.316669
11.29547
11.280484
11.253266
11.182659
11.07185
10.87283
10.948222
10.811686
10.900427
10.795709
10.950406
10.871663
11.033169
10.947056
11.121285
11.045011
11.219733
11.114493
11.276335
11.184129
11.36086
11.268116
11.465209
11.42564
11.681226
11.657806
11.957871
12.043994
12.488087
12.834706
13.588411
14.450174
15.412777
16.725556
16.45211
15.238364
14.301168
13.496118
12.878391
12.405299
12.116978
11.909923
11.752394
11.656638
11.535183
11.412342
11.367827
11.32544
11.299295
11.187784
11.218325
11.16866
11.153994
11.038609
11.040409
10.960452
10.967478
10.874749
10.876048
10.857222
10.896242
10.910203
10.957754
10.907025
10.838772
10.812999
10.865974
10.910849
10.911253
10.956149
10.991267
11.066127
11.106617
11.129183
11.151235
11.246506
11.253596
11.310395
11.410346
11.501436
11.619965
11.721972
11.859699
12.09651
12.405279
12.881954
13.453927
14.195769
15.084373
16.140564
15.720495
14.867245
14.052717
13.387142
12.836078
12.407784
12.111425
11.867966
11.751648
11.613504
11.525489
11.429452
11.340607
11.295774
11.254398
11.179872
11.155942
11.121593
11.092161
11.036042
11.029498
10.970438
10.964308
10.919598
10.882989
10.886815
10.974203
11.083171
11.106403
11.039181
10.944413
10.898087
10.896377
10.921213
10.928366
10.987229
11.047736
11.076257
11.069257
11.097105
11.144143
11.194899
11.183906
11.260708
11.39813
11.497237
11.562013
11.698956
11.842568
12.101668
12.362461
12.77778
13.283646
13.894119
14.57515
15.284475
14.962981
14.289631
13.692544
13.170406
12.684517
12.308769
12.057042
11.827487
11.669107
11.543674
11.489346
11.375044
11.263642
11.183768
11.182817
11.129392
11.060838
11.067529
11.080793
11.066966
10.979399
10.896928
10.908938
10.887461
10.935946
10.972072
11.045647
11.097734
11.150146
11.057211
10.950442
10.92153
10.921189
10.926224
10.917299
11.004686
11.058137
11.066434
11.07402
11.097962
11.096498
11.184244
11.160246
11.239286
11.355367
11.4449
11.485842
11.613108
11.795038
12.032728
12.285728
12.622748
13.050889
13.532707
14.066573
14.765337
14.64509
13.913927
13.378016
12.925549
12.540678
12.219948
11.99042
11.761353
11.64337
11.517623
11.457018
11.372103
11.263975
11.200184
11.168851
11.115607
11.132837
11.105638
11.080086
11.065143
10.996342
10.920988
10.953672
10.949715
10.969294
10.992456
11.057469
11.12519
11.090712
11.041857
10.981636
10.939865
10.927285
10.95521
10.910764
11.001983
11.056803
11.101378
11.118486
11.144639
11.172508
11.22952
11.210793
11.288877
11.375927
11.458567
11.526702
11.647451
11.764712
11.964919
12.139884
12.451441
12.824809
13.275813
13.834881
14.57451
14.498094
13.774598
13.244977
12.783061
12.419556
12.138706
11.968044
11.781878
11.661749
11.548113
11.481553
11.420683
11.314171
11.235931
11.244799
11.209134
11.150543
11.146216
11.113806
11.089833
11.013484
10.95751
10.957597
10.946617
10.905773
11.006133
11.075898
11.169362
11.116151
11.058146
10.973264
10.881582
10.896722
10.990502
10.978488
11.042691
11.078345
11.127774
11.121821
11.155048
11.193333
11.272845
11.253293
11.32617
11.413597
11.488984
11.550543
11.648828
11.782264
11.967785
12.141089
12.407588
12.748057
13.217135
13.784542
14.518527
14.51251
13.796736
13.202219
12.751436
12.420274
12.151826
11.970026
11.788071
11.645177
11.561327
11.501251
11.440385
11.340154
11.263385
11.25266
11.19848
11.171359
11.146797
11.121247
11.094552
11.058113
11.003306
10.992741
10.915557
10.937657
10.987718
11.060193
11.155019
11.157785
11.080028
10.975492
10.937654
10.950047
10.995858
11.011709
11.086698
11.116201
11.151464
11.169595
11.184009
11.206731
11.258365
11.278316
11.350482
11.455162
11.514899
11.53878
11.630569
11.771122
11.965357
12.135758
12.397993
12.754886
13.208365
13.766614
14.492834
14.508571
13.765502
13.235851
12.773465
12.395493
12.132203
11.940644
11.75649
11.669285
11.560318
11.545017
11.455779
11.323905
11.267182
11.277264
11.250173
11.206177
11.197042
11.144518
11.137719
11.070633
10.998803
11.027231
10.98526
10.947859
10.988799
11.073878
11.123153
11.172847
11.091535
10.958539
10.954719
10.960846
11.017304
11.025138
11.082283
11.110936
11.133832
11.158857
11.188787
11.220433
11.29434
11.267738
11.339928
11.387079
11.501429
11.568307
11.6568
11.785935
11.957626
12.130926
12.408868
12.763202
13.218017
13.798191
14.519075
14.490082
13.745432
13.20417
12.766356
12.40746
12.144537
11.953237
11.789573
11.6878
11.595112
11.513258
11.40914
11.368995
11.283145
11.30656
11.253988
11.211699
11.154701
11.095642
11.097131
11.023962
10.999088
10.996659
10.977428
10.981086
11.005202
11.078409
11.140784
11.163753
11.130794
11.056709
11.026094
10.985597
11.018966
11.010418
11.043419
11.032531
11.061312
11.093197
11.161052
11.237105
11.280806
11.297952
11.373368
11.412659
11.48524
11.59229
11.692624
11.80578
11.966719
12.13262
12.410635
12.756857
13.180033
13.708473
14.425588
14.447443
13.72895
13.190898
12.754545
12.405823
12.128974
11.953809
11.782397
11.663066
11.563314
11.499134
11.439147
11.364322
11.296148
11.286816
11.235934
11.172245
11.117719
11.11458
11.056477
11.038515
11.00899
10.981104
10.976189
11.033722
11.06915
11.093125
11.164201
11.211611
11.126728
11.017395
10.984091
10.987488
11.028362
10.994886
11.041154
11.047945
11.111649
11.122091
11.176551
11.254273
11.281343
11.29981
11.377055
11.438979
11.494007
11.561555
11.663596
11.783795
11.943138
12.132238
12.401954
12.755123
13.178844
13.721107
14.431017
14.442672
13.725739
13.183223
12.752634
12.416025
12.149017
11.931851
11.775494
11.653181
11.544282
11.514159
11.42942
11.371995
11.294008
11.288815
11.255892
11.179814
11.131496
11.127492
11.066008
11.037709
11.03219
11.032613
10.979366
11.012174
11.017704
11.071688
11.155263
11.115113
11.084032
11.036674
11.021933
10.974317
11.042667
11.02733
11.055791
11.082229
11.129109
11.13935
11.172657
11.229193
11.253092
11.310781
11.374723
11.410186
11.491154
11.541668
11.666074
11.772199
11.948048
12.143015
12.417447
12.742598
13.189387
13.731131
14.435203
14.392519
13.698707
13.184441
12.740584
12.400798
12.144002
11.955222
11.773205
11.649905
11.541467
11.504174
11.397181
11.348083
11.281379
11.250452
11.217853
11.153336
11.127754
11.11265
11.074232
11.03081
11.009581
11.022209
10.98148
11.026451
11.056626
11.087203
11.128902
11.137396
11.080699
11.024517
10.987582
10.964605
10.981247
10.962886
11.007092
11.067345
11.0844
11.098578
11.143286
11.208279
11.244679
11.263325
11.319895
11.389446
11.45953
11.524667
11.621845
11.765662
11.923909
12.127197
12.409894
12.74768
13.198326
13.714054
14.391796
14.381999
13.690561
13.166517
12.739634
12.415362
12.130464
11.910661
11.737239
11.641324
11.529937
11.465908
11.384177
11.323177
11.295252
11.266411
11.208283
11.170054
11.133954
11.08597
11.093532
11.029219
10.992831
10.999497
10.973871
11.007142
11.027497
11.072392
11.142556
11.092546
11.091692
11.016747
10.972352
10.964669
10.978686
10.980212
11.031995
11.089239
11.085105
11.136074
11.162173
11.188764
11.242691
11.282096
11.341703
11.395026
11.461572
11.518938
11.619641
11.741657
11.894808
12.120322
12.395732
12.711143
13.165516
13.669377
14.366216
14.37923
13.692241
13.208032
12.723839
12.389827
12.122993
11.902521
11.716925
11.603533
11.514727
11.452924
11.400193
11.341582
11.281929
11.254786
11.186178
11.154417
11.118221
11.107969
11.107681
11.035242
11.00704
10.983726
10.987274
10.997113
11.037206
11.081568
11.091113
11.135025
11.085693
11.016461
10.943724
10.940426
10.98824
11.004397
11.025487
11.057508
11.087568
11.080495
11.115064
11.161373
11.231883
11.244104
11.315678
11.380401
11.445368
11.500914
11.578325
11.714111
11.879639
12.080829
12.359188
12.731563
13.177731
13.694223
14.387934
14.352834
13.689763
13.168141
12.723891
12.373795
12.099271
11.870141
11.70905
11.594295
11.495469
11.415301
11.370421
11.31633
11.262724
11.247785
11.168639
11.14539
11.106975
11.10332
11.068459
11.047312
11.030412
10.972061
10.950197
10.984913
11.000164
11.047389
11.110164
11.149343
11.091923
10.993099
10.995167
10.991372
11.006732
11.051339
11.045695
11.058707
11.094963
11.13378
11.169699
11.204994
11.245004
11.249236
11.319328
11.339333
11.422937
11.477843
11.556995
11.676993
11.857714
12.06532
12.373342
12.721395
13.155898
13.67765
14.374469
14.391613
13.70088
13.16359
12.718594
12.357305
12.060345
11.863812
11.684119
11.579243
11.477094
11.420462
11.348744
11.3078
11.230479
11.233944
11.214116
11.152138
11.113115
11.092165
11.058282
11.070997
11.065882
11.024437
11.027555
10.992394
11.04405
11.140121
11.166008
11.171291
11.106198
11.002044
10.983455
10.99546
10.995529
11.035973
11.066575
11.094813
11.118117
11.117655
11.141228
11.190856
11.234107
11.217779
11.279144
11.354867
11.420841
11.459622
11.548249
11.679101
11.870477
12.059894
12.351151
12.718593
13.154065
13.697347
14.407888
14.373761
13.698945
13.175452
12.698195
12.325278
12.061382
11.873793
11.691278
11.58693
11.491929
11.432648
11.355053
11.330862
11.256365
11.25417
11.201199
11.139618
11.126795
11.106681
11.060784
11.078834
11.064822
11.015288
11.029653
11.036163
11.049429
11.124869
11.18075
11.142123
11.124381
11.033904
11.007849
10.966046
10.972961
11.053732
11.056584
11.087409
11.106622
11.107324
11.14598
11.185283
11.222224
11.256864
11.337832
11.371979
11.441217
11.497835
11.588309
11.684565
11.863052
12.059584
12.33218
12.667102
13.125425
13.686
14.36137
14.362109
13.663062
13.133421
12.685594
12.349044
12.064023
11.856467
11.68254
11.595366
11.504937
11.436106
11.361713
11.343531
11.28112
11.268447
11.185303
11.13927
11.116484
11.114594
11.07627
11.054355
11.027865
10.969775
10.985102
10.992206
11.079097
11.128197
11.199013
11.199383
11.10283
11.018041
10.96049
10.949548
10.980723
10.974083
10.997321
11.069499
11.096767
11.119307
11.142711
11.180479
11.245037
11.275342
11.344033
11.36463
11.412345
11.475041
11.588731
11.689194
11.829793
12.049141
12.327908
12.690291
13.130384
13.669169
14.392475
14.3983
13.675852
13.159555
12.70189
12.341622
12.055597
11.816603
11.674681
11.571601
11.478458
11.421987
11.403128
11.346162
11.277561
11.264141
11.210901
11.140991
11.107361
11.095523
11.04991
11.009536
10.992782
11.001773
10.99125
11.020997
11.057116
11.094802
11.186495
11.150232
11.135285
11.027941
11.003994
11.027693
10.992466
10.976475
11.034094
11.082479
11.107341
11.123065
11.165466
11.203435
11.26737
11.276257
11.322038
11.379799
11.41056
11.47513
11.550188
11.668223
11.82483
12.021997
12.321694
12.677325
13.161798
13.692995
14.371405
14.329275
13.647416
13.134128
12.67216
12.322904
12.027147
11.841616
11.675738
11.570285
11.485843
11.402081
11.366816
11.320704
11.285315
11.275
11.19962
11.168477
11.120173
11.099943
11.075389
11.009669
10.982814
11.029129
11.058019
11.00623
11.052932
11.132658
11.131145
11.178835
11.133571
11.055053
10.961601
10.99071
11.005612
10.97423
10.991622
11.037073
11.069655
11.130298
11.153049
11.207501
11.292387
11.297666
11.334583
11.379931
11.403383
11.474322
11.549654
11.684646
11.840939
12.016985
12.284148
12.647386
13.108761
13.639489
14.324583
14.302028
13.59936
13.069274
12.632723
12.309721
12.029655
11.841477
11.702823
11.560734
11.503965
11.449184
11.385216
11.357959
11.303568
11.266977
11.218915
11.169846
11.118003
11.05933
11.03432
11.011354
11.000632
10.998678
10.97301
10.964519
11.045174
11.138319
11.184934
11.140018
11.150679
11.061159
10.979445
10.980796
11.001554
10.990544
11.00936
11.025149
11.087515
11.110995
11.161486
11.208579
11.262966
11.266454
11.325812
11.378733
11.475988
11.499659
11.596697
11.711523
11.867927
12.037464
12.288424
12.624752
13.059452
13.583461
14.274353
14.310046
13.618786
13.103091
12.670289
12.356734
12.089192
11.913425
11.77176
11.634531
11.542575
11.483202
11.39347
11.355916
11.292814
11.259146
11.199958
11.162315
11.113607
11.118944
11.04635
10.998369
10.961591
10.991926
11.002445
10.997971
11.053079
11.119638
11.128209
11.174418
11.110937
11.026842
10.980817
10.989775
10.98124
10.960635
10.984996
11.048194
11.083704
11.086239
11.130926
11.191295
11.259658
11.293444
11.36415
11.433149
11.524301
11.601937
11.712384
11.846246
12.003851
12.178603
12.414712
12.737307
13.159475
13.670164
14.341402
14.432352
13.784278
13.29318
12.896211
12.603634
12.357613
12.144458
11.978162
11.804827
11.667421
11.573728
11.475415
11.374739
11.300199
11.285165
11.195775
11.157326
11.113829
11.099225
11.057946
11.003157
10.970642
10.984135
10.975502
10.98795
11.034812
11.089218
11.141472
11.104602
11.112292
11.061741
10.993916
10.982324
11.034015
11.026326
11.020379
11.02966
11.113735
11.13935
11.176479
11.208022
11.264091
11.283473
11.404906
11.503955
11.627238
11.756806
11.950255
12.193202
12.406407
12.634927
12.894506
13.168873
13.512493
13.961696
14.560585
14.828942
14.291382
13.907365
13.637308
13.412812
13.151549
12.856279
12.498453
12.163166
11.884314
11.700266
11.527428
11.402848
11.295853
11.26699
11.199673
11.155783
11.118348
11.092541
11.04175
11.034432
11.000571
11.009348
10.965444
10.993479
11.025777
11.075265
11.09864
11.19139
11.123037
10.973108
10.951329
10.997254
10.992439
10.979506
11.030398
11.055075
11.089903
11.080671
11.107118
11.191195
11.246507
11.329172
11.427291
11.568602
11.758999
12.023484
12.391735
12.889935
13.477167
14.010776
14.363299
14.51084
14.625954
14.830241
15.221872
15.866318
15.756847
15.917955
16.148293
15.992308
15.278043
14.311638
13.384495
12.67223
12.179256
11.855933
11.602869
11.442089
11.328774
11.27264
11.1966
11.134192
11.07166
11.052319
11.042236
10.99707
10.973814
10.99577
11.005803
10.999858
10.969759
11.056251
11.134619
11.13693
11.081566
10.976234
10.964286
10.960684
10.962535
10.978455
10.979998
11.031357
11.049805
11.041367
11.126172
11.217941
11.267011
11.331606
11.444726
11.628662
11.888504
12.284266
12.918774
13.870473
15.158411
16.571253
17.727416
18.245869
17.880125
17.20777
16.844059
18.164471
18.841248
19.250069
18.778496
18.165484
17.139467
15.583765
14.084869
13.006397
12.317061
11.898107
11.620777
11.441663
11.335418
11.258524
11.199655
11.117635
11.062163
11.081253
11.022233
10.978744
10.959006
10.930707
10.962168
10.96602
11.027104
11.108316
11.170295
11.112965
11.077465
11.02353
11.007756
10.967947
10.941362
10.926188
10.904296
10.973427
11.032198
11.043882
11.120387
11.1942
11.236185
11.295252
11.395307
11.56808
11.848793
12.233649
12.867475
13.844898
15.193706
16.527736
17.465063
18.18903
19.03371
19.631988
19.478131
19.624151
18.85517
17.773612
16.864697
16.101845
15.247163
14.256136
13.308692
12.570084
12.067978
11.740622
11.506521
11.352819
11.27792
11.208223
11.171006
11.103505
11.068728
11.063127
10.985974
10.963964
10.926221
10.930196
10.934984
10.961545
10.994602
11.096394
11.186107
11.168345
11.129876
11.022521
10.953959
10.963903
10.948246
10.95299
10.97565
10.988756
11.060202
11.065709
11.09455
11.136416
11.164541
11.191321
11.290165
11.44197
11.623804
11.871288
12.218528
12.722533
13.360077
14.021262
14.651698
15.272385
16.031505
17.023744
18.080661
15.675035
14.988526
14.379006
13.903746
13.482806
13.079996
12.660759
12.254539
11.926019
11.686545
11.526728
11.398379
11.243196
11.171038
11.154666
11.144187
11.090854
11.066287
11.044363
10.981233
10.938673
10.922367
10.964227
10.975925
10.936857
11.007538
11.113498
11.137646
11.151663
11.092206
10.975513
10.914127
10.893624
10.929159
10.903669
10.912819
10.969037
11.029999
11.058994
11.065059
11.087142
11.113577
11.107879
11.187911
11.292708
11.38232
11.509621
11.656296
11.879261
12.142382
12.403238
12.667681
12.926001
13.187508
13.486487
13.787846
12.664154
12.54811
12.399433
12.257802
12.093581
11.930075
11.781131
11.616506
11.473644
11.390328
11.323179
11.274572
11.15826
11.10829
11.119268
11.076213
11.044251
11.008257
10.973201
10.937175
10.950587
10.899864
10.898773
10.936596
10.965123
11.019826
11.074137
11.117378
11.119902
11.098026
11.062803
10.965301
10.942539
10.924148
10.847271
10.894895
10.947817
10.978666
10.971756
11.008424
11.040067
11.087913
11.082239
11.126125
11.193021
11.266565
11.279751
11.352963
11.440251
11.539087
11.599214
11.715286
11.825691
11.901265
11.9698
12.019177
11.64642
11.634894
11.607279
11.553169
11.461042
11.388398
11.353582
11.315029
11.259692
11.208631
11.188746
11.137647
11.129686
11.067721
11.065981
11.022436
11.027988
10.984888
10.976397
10.955384
10.906176
10.839927
10.900032
10.917832
10.979208
11.048445
11.039333
11.113307
11.16093
11.077216
10.98927
10.9167
10.919994
10.895983
10.813693
10.862715
10.933524
10.968507
10.971341
10.994336
11.003512
11.051606
11.036825
11.091598
11.113812
11.152843
11.140186
11.186199
11.214002
11.246795
11.246207
11.305728
11.341217
11.380914
11.380677
11.403668
11.263008
11.233786
11.246704
11.220577
11.190677
11.153719
11.154233
11.146233
11.111511
11.098931
11.097792
11.083574
11.039149
11.016556
11.035834
10.985464
10.980521
10.957989
10.949389
10.936454
10.8834
10.835255
10.884729
10.913435
10.946529
10.978245
11.001618
11.095175
11.068424
11.045484
10.991195
10.938418
10.908384
10.892535
10.85822
10.90529
10.896088
10.937069
10.923175
10.944222
10.948029
10.996766
10.985864
11.013923
11.056872
11.042782
11.029621
11.059583
11.073426
11.111876
11.108862
11.134315
11.14019
11.138927
11.139152
11.127276
11.060011
11.101249
11.087495
11.084388
11.06626
11.062177
11.053111
11.007088
11.006088
11.005795
11.007191
11.020335
10.972664
10.961592
10.955314
10.909314
10.902827
10.88333
10.913709
10.874862
10.896843
10.882139
10.921542
10.904612
10.898037
10.971048
10.991788
11.075395
11.130254
11.039006
10.905258
10.855162
10.857113
10.872664
10.823335
10.874016
10.829526
10.85823
10.86866
10.870468
10.889319
10.922228
10.915367
10.942767
10.961411
10.942275
10.944363
10.96378
10.987136
11.014057
11.035974
11.033897
11.04337
11.030715
11.037687
11.023245
10.956691
10.975687
10.984537
10.976989
10.961973
10.979528
10.964968
10.919396
10.926393
10.899928
10.930455
10.923825
10.896308
10.856025
10.887495
10.871923
10.881937
10.897178
10.8314
10.801522
10.871716
10.84913
10.851945
10.896738
10.880406
10.911277
10.977589
11.081566
11.108101
11.031002
10.910986
10.87797
10.866925
10.858596
10.861701
10.858486
10.848427
10.851636
10.881155
10.910771
10.912747
10.890026
10.904447
10.887852
10.920635
10.918082
10.868007
10.871406
10.875418
10.927921
10.930168
10.959496
10.967937
10.97406
10.961129
10.938596
10.932078
10.959783
10.94863
10.9471
10.943576
10.905083
10.914487
10.886802
10.879876
10.852688
10.90445
10.918672
10.879623
10.875469
10.861643
10.847235
10.874861
10.84238
10.869425
10.857361
10.875579
10.845991
10.851728
10.86938
10.917776
10.926595
11.028185
11.11952
11.143161
11.05699
10.935773
10.898122
10.907192
10.884075
10.828176
10.897375
10.89993
10.90598
10.842751
10.874931
10.870327
10.868899
10.821615
10.844263
10.852102
10.864374
10.871714
10.895925
10.888609
10.913198
10.867298
10.938201
10.956084
10.983022
10.943649
10.907886
10.929239
10.952084
10.961032
10.944842
10.92551
10.896297
10.941519
10.92499
10.920849
10.913616
10.92825
10.892813
10.899425
10.856403
10.83951
10.890406
10.899544
10.907898
10.93873
10.950224
10.905139
10.858723
10.898476
10.934776
10.916211
10.941864
11.021224
11.135164
11.137622
11.040127
10.993296
10.941022
10.94963
10.964119
10.901551
10.939932
10.890424
10.939891
10.915856
10.958107
10.912637
10.903733
10.861902
10.926658
10.93943
10.942559
10.879685
10.934662
10.937059
10.951264
10.903717
10.963603
10.944602
10.987252
10.950425
11.021922
11.100076
11.021418
11.053206
11.044177
11.042357
11.001359
11.04922
11.067469
11.032494
11.026731
11.027032
11.016754
11.019063
10.964044
10.967049
10.978703
11.008566
10.956136
11.007662
10.985205
11.0272
11.010358
11.048544
11.02002
11.034701
11.082453
11.149765
11.221369
11.223701
11.193953
11.169449
11.126725
11.097532
11.075116
11.126905
11.169204
11.130551
11.139656
11.136807
11.156885
11.096676
11.132374
11.110876
11.137039
11.154827
11.142066
11.107979
11.123069
11.084859
11.124695
11.085141
11.1432
11.107265
11.133391
11.091193
11.096817
11.046815
11.160845
11.104807
11.050307
10.997979
10.947694
10.898318
10.848887
10.799338
10.74957
10.699647
10.649584
10.599395
10.549375
10.499436
10.44932
10.399923
10.350706
10.301587
10.252205
10.203131
10.154284
10.105368
10.056492
10.008619
9.9610571
9.913747
9.8664563
9.8191368
9.7722415
9.7259606
9.6802796
9.6348431
9.5906325
9.5470213
9.503621
9.4603316
9.4175691
9.3755766
9.3342791
9.2933271
9.2536664
9.2148018
9.1762751
9.1380254
9.1005864
9.0638747
9.0280732
8.9931573
8.9591844
8.9262723
8.8943942
8.8633778
8.8339728
8.8058673
8.7785037
8.7524593
8.7277882
8.7041596
8.6811778
8.8735141
8.9012574
8.9298887
8.9593579
8.9896548
9.0207293
9.052579
9.0851551
9.1184549
9.1524322
9.1870841
9.2223662
9.2582754
9.2947693
9.331844
9.3694615
9.4076196
9.4462833
9.4854484
9.5250779
9.5651615
9.6056586
9.6465577
9.6878213
9.7294392
9.7713774
9.8136243
9.856145
9.898924
9.9419254
9.9851329
10.028513
10.072046
10.115697
10.159444
10.203252
10.247096
10.290938
10.334748
10.37848
10.422088
10.465502
10.508669
10.551545
10.59436
10.637131
10.681225
10.726279
10.775183
10.824525
10.895842
10.842939
10.792367
10.744314
10.697926
10.652602
10.607611
10.56263
10.517521
10.472269
10.426923
10.381532
10.336161
10.290836
10.245587
10.200437
10.155433
10.110593
10.065933
10.021465
9.9772485
9.9332682
9.8895554
9.8461123
9.8029846
9.7601998
9.7177738
9.6757162
9.6340625
9.5928105
9.5519849
9.5116086
9.4717373
9.4324003
9.3936144
9.3553877
9.3177597
9.2807221
9.2442971
9.2085034
9.1733628
9.1388965
9.1051288
9.0720809
9.039781
9.00825
8.9774728
8.9475344
8.9183868
8.8893104
8.8721595
8.8994102
8.9274517
8.9562806
8.9858816
9.0162306
9.0473035
9.0790765
9.1115228
9.1446149
9.1783268
9.212666
9.2476001
9.2831124
9.3191808
9.3557826
9.3928896
9.4304775
9.4685228
9.5070002
9.5458474
9.585062
9.6246176
9.6644936
9.7046664
9.7451118
9.785804
9.8267159
9.867794
9.90906
9.9504903
9.9921387
10.0343
10.076662
10.119139
10.161741
10.204381
10.247019
10.289605
10.332095
10.374413
10.416504
10.458306
10.499857
10.541257
10.582723
10.624587
10.667793
10.713761
10.762473
10.847646
10.793583
10.742182
10.693592
10.647117
10.601737
10.556491
10.511893
10.467234
10.42243
10.377283
10.331739
10.286476
10.241444
10.196276
10.151963
10.107885
10.06387
10.019843
9.9757735
9.9316574
9.88861
9.8459425
9.8035363
9.7614555
9.7196905
9.6783042
9.6373244
9.5967701
9.5566631
9.5170263
9.4778416
9.4391851
9.4010282
9.3634016
9.3262929
9.2897666
9.2538355
9.2185095
9.1838234
9.1497651
9.1163543
9.0836096
9.0515387
9.0202228
8.9896548
8.9598383
8.9308012
8.9025575
8.8748073
8.8626136
8.8890746
8.9163464
8.9444161
8.9732598
9.0028511
9.0331995
9.0642356
9.0959282
9.1282897
9.16126
9.1948485
9.2289998
9.2637247
9.2989698
9.3347463
9.3709988
9.4077771
9.4450712
9.4829743
9.5217642
9.5611153
9.6009422
9.6412526
9.6819452
9.7229748
9.7638596
9.8050225
9.8466233
9.888497
9.9301931
9.9720866
10.014332
10.056714
10.099199
10.141785
10.184412
10.227044
10.269647
10.3122
10.354619
10.39685
10.438861
10.480686
10.522427
10.564283
10.606559
10.649942
10.695853
10.745267
10.897067
10.842309
10.789821
10.739651
10.692154
10.645882
10.599617
10.553685
10.507732
10.461794
10.415648
10.368913
10.323006
10.277378
10.231406
10.185863
10.14056
10.095345
10.050052
10.004627
9.9592887
9.9148175
9.8705488
9.8261863
9.7821737
9.7387383
9.6958869
9.6532336
9.6118609
9.5710671
9.5305127
9.4901325
9.4500309
9.4113552
9.37339
9.3359821
9.2992036
9.2630498
9.2275373
9.1926767
9.1585147
9.1250538
9.0923229
9.0602907
9.029033
8.9985436
8.9688153
8.9398554
8.9117524
8.8841794
8.8889936
8.9156744
8.9432254
8.9715881
9.0007294
9.0306686
9.0614238
9.0929151
9.1251152
9.1580566
9.1917264
9.22623
9.2618495
9.2981795
9.3351399
9.3727697
9.4109669
9.4496547
9.4883498
9.5275246
9.5673493
9.6076313
9.6483312
9.6894759
9.7310254
9.7729488
9.8147438
9.8568195
9.8993525
9.9421699
9.9848013
10.027638
10.070868
10.114277
10.157833
10.201512
10.245249
10.288984
10.332674
10.376296
10.41978
10.463078
10.506139
10.548975
10.591687
10.634475
10.677707
10.722174
10.769372
10.82039
10.978102
10.922683
10.869825
10.819344
10.771419
10.724505
10.6773
10.6308
10.584231
10.537534
10.490727
10.443841
10.396929
10.349742
10.302299
10.255082
10.208105
10.161357
10.115044
10.069133
10.023261
9.9784017
9.933939
9.8896004
9.8453068
9.8010871
9.7581782
9.7158272
9.6739406
9.6325135
9.5915221
9.5509374
9.5108961
9.47104
9.4309356
9.3921291
9.3541145
9.3163304
9.2788661
9.2423102
9.2062797
9.1717283
9.1382072
9.1049717
9.0728244
9.0415974
9.0112047
8.981663
8.9529706
8.9243597
8.9440268
8.9716566
8.9999653
9.0290758
9.0590315
9.0899549
9.1216362
9.154387
9.1881441
9.2226866
9.2575631
9.2931971
9.3297321
9.3669012
9.404635
9.4429668
9.4813067
9.5198799
9.558794
9.5982312
9.638477
9.6792348
9.7204622
9.7621315
9.8036952
9.8456247
9.8880953
9.9309091
9.9739678
10.01728
10.060352
10.103593
10.147187
10.190944
10.234813
10.278793
10.322783
10.366719
10.410562
10.454285
10.497813
10.541107
10.584107
10.62681
10.669315
10.711833
10.754774
10.798946
10.845774
10.896211
11.066273
11.011105
10.958587
10.908371
10.860731
10.814204
10.767588
10.721215
10.674728
10.628181
10.581342
10.533856
10.487068
10.44054
10.393827
10.346518
10.300063
10.25383
10.20751
10.161032
10.114631
10.069185
10.023987
9.978394
9.9337699
9.8895169
9.8453041
9.8012352
9.7584232
9.7162079
9.6741659
9.6322436
9.5907719
9.5504901
9.5105604
9.4715117
9.4332025
9.3955373
9.3585122
9.3215935
9.2855451
9.2503095
9.2153884
9.1807108
9.14683
9.1137689
9.0815699
9.050214
9.0198493
8.9901012
9.0175738
9.0462299
9.0758695
9.1064414
9.1374515
9.1693062
9.2016898
9.2350379
9.2693583
9.3044455
9.3398006
9.3758914
9.4128531
9.4504981
9.4887697
9.527648
9.5670234
9.6068906
9.6467459
9.6870849
9.7280909
9.7695251
9.8113584
9.8536435
9.8963062
9.9392593
9.98247
10.025931
10.069561
10.11336
10.156855
10.20046
10.244345
10.28832
10.33234
10.376432
10.420505
10.464512
10.508441
10.552256
10.59588
10.63925
10.682289
10.724981
10.767439
10.809894
10.852739
10.896792
10.943525
10.994056
11.163896
11.107788
11.054389
11.004367
10.95632
10.909015
10.861769
10.815057
10.768225
10.720972
10.673347
10.625697
10.578341
10.531207
10.483914
10.437495
10.391293
10.345138
10.298951
10.252697
10.206376
10.161125
10.116238
10.07156
10.027102
9.9826838
9.9382361
9.8939846
9.8508271
9.8079307
9.7651166
9.7228852
9.6809451
9.6401134
9.5997307
9.5594228
9.519689
9.4805962
9.4421605
9.4043681
9.3674378
9.3312904
9.2957008
9.2616621
9.2285311
9.1958939
9.1636624
9.1320973
9.1020837
9.0727269
9.0437401
9.0842805
9.1114668
9.1396414
9.1683462
9.1980676
9.2288842
9.2605324
9.2929485
9.3262025
9.3602196
9.3949714
9.4304715
9.4666801
9.5030807
9.5401119
9.5774562
9.6155377
9.6544148
9.6938391
9.7333574
9.7733802
9.8141012
9.8552616
9.8963554
9.9378469
9.979898
10.022262
10.064903
10.107828
10.150938
10.194234
10.237252
10.280393
10.32382
10.367325
10.410878
10.454474
10.498055
10.541565
10.58498
10.628276
10.671368
10.714185
10.756657
10.798768
10.840638
10.8825
10.92475
10.968195
11.014306
11.064191
11.222443
11.16832
11.116924
11.068314
11.021751
10.976176
10.930486
10.884994
10.839364
10.793646
10.747633
10.700946
10.65498
10.609204
10.563015
10.517225
10.471623
10.426088
10.380488
10.334735
10.289072