/*--------------------------------*- C++ -*----------------------------------*\
| =========                 |                                                 |
| \\      /  F ield         | OpenFOAM: The Open Source CFD Toolbox           |
|  \\    /   O peration     | Version:  v2012                                 |
|   \\  /    A nd           | Website:  www.openfoam.com                      |
|    \\/     M anipulation  |                                                 |
\*---------------------------------------------------------------------------*/
FoamFile
{
    version     2.0;
    format      ascii;
    class       volVectorField;
    location    "0";
    object      U;
}
// * * * * * * * * * * * * * * * * * * * * * * * * * * * * * * * * * * * * * //

dimensions      [0 1 -1 0 0 0 0];


internalField   nonuniform List<vector> 
24441
(
(5.1754495 -0.0016917446 0.01942495)
(5.1883897 -0.0014449583 0.018001189)
(5.2004985 -0.0011645178 0.016201829)
(5.2115309 -0.00085437894 0.014049297)
(5.2212523 -0.00051776045 0.011561052)
(5.2294337 -0.00015748473 0.0087489146)
(5.2358448 0.00022398694 0.0056182481)
(5.2402573 0.00062081854 0.0021907817)
(5.2424475 0.0010293692 -0.0015182778)
(5.2421964 0.0014454435 -0.0054747266)
(5.2393105 0.0018626717 -0.0096106878)
(5.2336573 0.0022714335 -0.013805575)
(5.9614378 -0.2986231 0.03576799)
(5.9657833 -0.3155276 -0.0079086998)
(6.0276529 -0.35876713 -0.09618258)
(6.0477758 -0.29891279 -0.18044666)
(5.7688196 -0.36809227 -0.1456288)
(5.4883522 -0.13478077 0.48683173)
(5.8982019 -0.3443229 0.23569575)
(5.9803582 -0.23415576 0.064955069)
(5.9674407 -0.23080772 0.076264243)
(5.9868441 -0.23015347 0.064428839)
(6.0058739 -0.2236343 0.070481781)
(6.0249249 -0.22218433 0.080310896)
(6.0312341 -0.21782103 0.092054095)
(6.0092739 -0.23964358 0.044799838)
(6.0712932 -0.27672592 -0.056940378)
(6.1088847 -0.23478636 -0.15769264)
(5.8362847 -0.31077191 -0.13808632)
(5.5717893 -0.075011518 0.48103252)
(5.958597 -0.29006794 0.24478838)
(6.0318811 -0.17734442 0.065027583)
(6.0449893 -0.16472909 0.078585291)
(6.0527671 -0.1790981 0.064393939)
(6.0995166 -0.20331673 -0.0038044545)
(6.1119595 -0.14179573 -0.091231786)
(5.8652735 -0.23547762 -0.12068549)
(5.665847 -0.016863711 0.44788426)
(6.0535226 -0.2348255 0.20175386)
(6.0872269 -0.12603326 -0.016579478)
(6.1441011 -0.12350432 -0.065790974)
(6.1627675 -0.05191017 -0.093973428)
(5.9349821 -0.16504004 -0.083729673)
(5.8317865 0.02824099 0.36066589)
(6.141191 -0.18435813 0.12306984)
(6.0852753 -0.075685351 -0.11560469)
(6.1637554 -0.050537992 -0.13673412)
(6.2303018 -0.0013240757 -0.052348023)
(6.1316462 -0.10996865 0.061932998)
(6.0181283 -0.033039941 0.068688989)
(6.0105342 0.029687575 0.13569007)
(6.020104 -0.043606878 0.14413782)
(6.0447539 0.085922633 0.17536491)
(6.1709569 0.090098716 0.29911057)
(6.2818823 -0.037143076 0.41870611)
(6.1659456 -0.019837288 0.061574017)
(5.9484342 0.078358611 -0.018599148)
(5.8924489 0.23667949 0.052369831)
(5.8652224 0.022546129 0.10839292)
(5.7174091 0.18366814 -0.092010101)
(6.1209469 0.22723229 -0.45141807)
(6.0879142 0.30091122 -0.3673468)
(5.9619157 0.32613068 -0.15397358)
(5.9411094 0.36355851 -0.070448641)
(5.9419344 0.42120534 -0.012008872)
(5.9500391 0.47122813 0.035816668)
(5.9634545 0.51566664 0.069220518)
(5.9715225 0.56576219 0.078067956)
(5.9749816 0.63015259 0.077809507)
(5.9745023 0.69756389 0.081843432)
(5.9423446 0.77988355 0.11168321)
(5.9411051 0.88137628 0.16299522)
(5.9310227 0.92097766 0.26717001)
(6.0936165 1.0322321 -0.23980402)
(6.0968139 1.079985 -0.33506944)
(5.7831487 1.2852278 -0.0016233901)
(5.9388197 1.1347047 -0.169427)
(5.9945253 1.0901882 -0.17748806)
(5.9621805 0.99687151 -0.25171191)
(5.843838 0.90134874 0.24705827)
(5.9648844 0.77495427 0.19826681)
(6.0418085 0.80282888 0.17420898)
(6.0241405 0.73822275 0.10431109)
(5.9915872 0.65429644 0.086178702)
(5.9790004 0.58431326 0.082996266)
(5.9719856 0.53049105 0.088755515)
(5.9644323 0.48292098 0.068155197)
(5.9534945 0.43898296 0.032848062)
(5.9398476 0.38360011 -0.0086146689)
(5.9473302 0.33953025 -0.07609385)
(5.9734116 0.30291593 -0.14853214)
(6.0965208 0.26278006 -0.3406265)
(6.1471846 0.21155044 -0.42726924)
(5.8746384 0.14004091 0.049417605)
(5.7632078 0.16916286 -0.085818048)
(5.8430006 0.088520256 0.12191826)
(5.9057965 0.15685332 0.079056986)
(6.0641399 -0.031916207 -0.027739255)
(6.1897601 0.0083037801 0.15554678)
(6.0456019 0.085999544 0.21733134)
(6.0488468 -0.023341933 0.090152385)
(6.0367561 0.024884956 0.18007201)
(6.0247846 -0.08735604 0.15590725)
(6.1954293 0.017777713 0.27645892)
(6.0680173 0.06864753 0.2269172)
(6.0221236 0.056542689 0.094356371)
(5.8948096 0.0061437253 0.11096866)
(5.8813544 -0.016012868 0.11539897)
(5.8157503 -0.084168766 0.1229681)
(5.9444553 -0.16663495 0.22192075)
(5.8898539 -0.038733409 0.26798626)
(5.9298974 0.010464145 0.18592402)
(5.8204111 -0.03711246 0.15507668)
(5.8363831 -0.068916138 0.14350718)
(5.7469058 -0.14488962 0.18164497)
(5.8926346 -0.23188646 0.19088493)
(5.822821 -0.090142882 0.25080786)
(5.8979966 -0.04864224 0.1753247)
(5.8147773 -0.098325402 0.098040906)
(5.7622583 -0.11657396 0.066994085)
(5.7234256 -0.12960383 0.10162427)
(5.7632943 -0.14313399 0.16123158)
(5.7181616 -0.21214895 0.24481477)
(5.9490256 -0.33169313 0.19862967)
(5.9165951 -0.11528875 0.28179506)
(6.0067804 -0.04595464 0.12789651)
(5.815038 -0.15011171 0.018155161)
(5.6914259 -0.16356772 0.045754897)
(5.7258473 -0.16019274 0.087254759)
(5.7584209 -0.16628757 0.071239666)
(5.7108979 -0.17184995 0.057291203)
(5.6676627 -0.17436672 0.066860554)
(5.6356938 -0.18085554 0.1035866)
(5.6874904 -0.19701773 0.15916272)
(5.6472413 -0.27891147 0.25101853)
(5.8735316 -0.39737803 0.19396239)
(5.8598763 -0.18037363 0.29062525)
(5.9777488 -0.1068373 0.14876374)
(5.8337672 -0.19975954 0.026289451)
(5.7852892 -0.23117839 -0.006474438)
(5.7208893 -0.22380635 0.00060639291)
(5.4040167 -0.25636554 -0.03837597)
(5.3659639 -0.26828992 0.057134807)
(5.3498017 -0.27024709 0.096588819)
(5.3634233 -0.28031556 0.13232429)
(5.3755544 -0.28675499 0.17412582)
(5.331885 -0.28043312 0.24761862)
(5.4348211 -0.25006495 0.23532586)
(5.5366433 -0.30373507 0.062610912)
(5.4853797 -0.26205167 0.032277292)
(5.4458389 -0.2666479 0.081024118)
(5.4140944 -0.26785042 0.10192441)
(5.3343929 -0.26036001 0.15754701)
(5.4281815 -0.21824671 0.12194861)
(5.4762973 -0.25344193 0.023828929)
(5.4261967 -0.21479763 0.051351337)
(5.4149876 -0.22967797 0.13921698)
(5.421849 -0.23326241 0.18578671)
(5.3727482 -0.22889535 0.26198674)
(5.4969201 -0.19837533 0.25406088)
(5.5753249 -0.23470643 0.12074324)
(5.5259636 -0.21091532 0.09078283)
(5.4853689 -0.22550302 0.14129197)
(5.4013294 -0.2128137 0.20908184)
(5.5305469 -0.1717698 0.19210161)
(5.5218761 -0.20695741 0.1836966)
(5.5478169 -0.19062427 0.1851222)
(5.4849767 -0.18436169 0.26753512)
(5.6078551 -0.15890116 0.2486046)
(5.5877979 -0.19278531 0.22872482)
(5.5325749 -0.17824174 0.24498386)
(5.6521142 -0.12356672 0.21186629)
(5.590717 -0.15370256 0.2365763)
(5.5749069 -0.14305274 0.26589481)
(5.7177054 -0.1042865 0.23569044)
(5.6538221 -0.12906083 0.29967883)
(5.6309202 -0.13570028 0.32624292)
(5.8002702 -0.078312216 0.24347031)
(5.6703921 -0.10994489 0.43281581)
(5.8506798 -0.016256647 0.26727392)
(5.8158095 -0.10874335 0.29572066)
(5.8325033 -0.047195829 0.29394253)
(5.9055096 -0.017483387 0.2733334)
(5.9749083 -0.007687345 0.15929667)
(5.9198278 -0.013570245 0.21192882)
(5.9027281 0.026071709 0.16385674)
(5.8933809 0.022029292 0.16646693)
(5.8917766 0.031295381 0.11781341)
(5.9710407 0.055365496 0.0049639878)
(6.0915516 0.08873087 -0.074235849)
(6.0635098 0.1484699 -0.071327639)
(5.9758224 0.19285023 -0.12377988)
(5.947982 0.2172305 -0.045533222)
(5.9442561 0.24856237 -0.01081391)
(5.9411043 0.29665193 0.019109851)
(5.9445977 0.33650796 0.062005999)
(5.9575321 0.38129205 0.091369558)
(5.9680977 0.42791277 0.1124017)
(5.9757873 0.47257149 0.12342367)
(5.981849 0.51939751 0.11843578)
(5.9850506 0.58268116 0.10104534)
(5.9911778 0.64502793 0.10693412)
(6.0125386 0.7252513 0.12181355)
(6.0853485 0.85559249 0.19015193)
(6.0616455 0.55387463 0.21737973)
(5.8085687 0.8427633 0.22223721)
(6.0248347 0.95730056 -0.4666077)
(5.9898582 1.0757209 -0.14558424)
(5.9661684 1.1841287 -0.10723387)
(5.9009839 1.3122213 0.014671379)
(5.7900208 1.3138341 0.029417304)
(5.6407753 1.4985845 0.15420471)
(5.6049225 1.6076481 -0.32233199)
(5.4354228 1.7470291 -0.19069258)
(5.2918643 1.9879386 -0.13068973)
(5.0955709 2.2199428 -0.016269522)
(4.6743445 2.3645766 -0.41364676)
(5.8694527 1.3427069 0.074193998)
(5.9310861 1.1806072 -0.14098521)
(6.0131713 1.1103535 -0.16648413)
(5.9726158 0.96084311 -0.36493696)
(5.7456219 0.88555155 0.10904115)
(6.0811827 0.53829762 0.18789535)
(6.0977677 0.91218734 0.17626839)
(6.0218063 0.75822252 0.11563709)
(5.9942034 0.67698354 0.094493651)
(5.9833418 0.59754463 0.090349976)
(5.9764552 0.54999404 0.098057251)
(5.9748026 0.49526042 0.092241451)
(5.9631935 0.44836261 0.072125653)
(5.9490217 0.40373238 0.043831309)
(5.9426841 0.35933108 -0.011892226)
(5.9515438 0.30551464 -0.064049744)
(5.9795765 0.2635853 -0.12451653)
(6.1074103 0.24501618 -0.3069071)
(6.1617988 0.17214647 -0.38622471)
(5.8921994 0.10177453 0.10643843)
(5.7912754 0.13875901 -0.03837981)
(5.8929463 -0.013210539 0.11489258)
(5.9798126 0.13145585 -0.014938191)
(6.0153982 0.13233874 0.13404943)
(5.9994994 0.07396782 0.1851889)
(6.0170806 -0.016043876 0.16637146)
(6.0162098 0.023160008 0.10316852)
(6.0068758 -0.061213293 0.21539611)
(5.9665904 -0.012203883 0.37506994)
(5.9253375 -0.17261454 0.28221353)
(5.87809 0.075090958 0.24344019)
(5.9236932 -0.077910398 0.21479034)
(5.7686253 -0.031825879 0.16705969)
(5.7390817 -0.097250712 0.16931959)
(5.7667641 -0.15636474 0.23944373)
(5.7464215 -0.17861475 0.22246587)
(5.6684239 -0.18368825 0.16451449)
(5.7916843 -0.18047784 0.22329769)
(5.6910925 -0.098417735 0.1810387)
(5.675248 -0.16767094 0.18477267)
(5.7307678 -0.22356864 0.23606226)
(5.7397504 -0.21926216 0.19861702)
(5.6770229 -0.10182618 0.12790184)
(5.5969092 -0.20663386 0.1768849)
(5.7831267 -0.23604227 0.17653219)
(5.6739697 -0.15913751 0.083686949)
(5.6122646 -0.22698301 0.053144567)
(5.562457 -0.27193401 0.12127178)
(5.6772945 -0.31406274 0.22930612)
(5.7924992 -0.36120384 0.2470328)
(5.7466903 0.081282677 0.20784813)
(5.6369248 -0.075101892 0.1370774)
(5.6682547 -0.075384301 0.07327493)
(5.5854867 -0.11183959 0.0191357)
(5.5095667 -0.29582158 0.018021484)
(5.6664549 -0.3513419 0.043362515)
(5.6043878 -0.26342306 0.028986586)
(5.5754165 -0.28216473 0.039793293)
(5.5386455 -0.30161262 0.052604329)
(5.4976015 -0.33765111 0.12867702)
(5.6175035 -0.37618605 0.23143599)
(5.7348768 -0.41786951 0.23597678)
(5.6883906 0.015465659 0.18289336)
(5.5946343 -0.1366224 0.11914113)
(5.6336305 -0.13120016 0.079086217)
(5.5814654 -0.14150351 0.050768047)
(5.5587925 -0.17849583 0.012769232)
(5.5110276 -0.21682561 -0.021651566)
(5.3013229 0.13169157 0.007874496)
(5.2989032 0.13126885 0.013836391)
(5.3000105 0.10833719 0.0089813128)
(5.3005944 0.1062007 0.015788067)
(5.301767 0.096365183 0.010008462)
(5.3020631 0.096147762 0.01467508)
(5.303783 0.087197756 0.0070219529)
(5.306319 0.087736598 0.012897881)
(5.3077788 0.079131734 0.0069803892)
(5.3080364 0.080085236 0.012857163)
(5.3102961 0.073797813 0.0047816385)
(5.3136344 0.074898343 0.011730352)
(5.315937 0.067555056 0.0048842234)
(5.3168263 0.067609113 0.011710995)
(5.3196555 0.059397318 0.0025345201)
(5.3232337 0.059763232 0.010419224)
(5.3256521 0.052407024 0.0027035229)
(5.3269022 0.053346596 0.010505842)
(5.3298346 0.046734107 0.00050485736)
(5.3334885 0.047884819 0.0092794015)
(5.3359739 0.041579684 0.00081318064)
(5.3374172 0.043264656 0.00946259)
(5.3404615 0.037251714 -0.0011446035)
(5.3443492 0.039029803 0.0083201611)
(5.3470656 0.033012384 -0.00062130299)
(5.3490159 0.035257236 0.008494594)
(5.3518731 0.029201043 -0.0016403059)
(5.3558018 0.031794643 0.0073296197)
(5.3589411 0.025791346 -0.0014172719)
(5.3614749 0.028677616 0.0074360524)
(5.3646469 0.022375585 -0.0020930311)
(5.369063 0.025762657 0.0062041535)
(5.3727931 0.01952618 -0.0019501098)
(5.3759336 0.023091816 0.0063036778)
(5.3798459 0.016742907 -0.0026884045)
(5.3849684 0.020407093 0.0051011042)
(5.3894956 0.014090052 -0.0026577021)
(5.3933643 0.017728673 0.0051989822)
(5.3982851 0.011509219 -0.0038001492)
(5.4043711 0.014927077 0.0040505991)
(5.4098071 0.0090969132 -0.0038670386)
(5.4148058 0.012124108 0.0040243242)
(5.4208443 0.0068315075 -0.0051597248)
(5.4281749 0.0092628197 0.0027993197)
(5.435116 0.0040740217 -0.0052935272)
(5.4417026 0.006393259 0.0026659905)
(5.4498746 0.00090759204 -0.0066669585)
(5.4594173 0.0034128846 0.0012989981)
(5.4693801 -0.0017962747 -0.0070243686)
(5.4794811 1.1050815e-05 0.00090402697)
(5.4915859 -0.0058938784 -0.0088925558)
(5.5056596 -0.0035116503 -0.0010059253)
(5.5203637 -0.01055216 -0.0096608626)
(5.5358899 -0.0080153933 -0.0020848697)
(5.5541946 -0.015651342 -0.012175759)
(5.5767793 -0.013713311 -0.0059141288)
(5.6016759 -0.02058905 -0.014138142)
(5.6304762 -0.018260809 -0.009004149)
(5.6669747 -0.023692117 -0.019518407)
(5.7151043 -0.019384957 -0.017064075)
(5.7745391 -0.023654688 -0.026848826)
(5.850106 -0.017069138 -0.028180548)
(5.9507883 -0.019392451 -0.046513824)
(6.0794989 -0.022169298 -0.051001435)
(6.2440915 -0.035176609 -0.081434193)
(6.4446438 -0.074661301 -0.087176016)
(6.6961864 -0.15027599 -0.16505747)
(7.1745689 -0.27340073 -0.23780678)
(8.4137007 -0.91320346 -1.0384186)
(6.2337948 -0.42960368 -6.6518878)
(4.3401187 0.23420764 -6.1075069)
(3.3295419 1.1769131 -5.497057)
(3.4825963 0.046419118 -3.7867911)
(3.5219444 0.046212281 -2.9054935)
(3.617608 0.13084492 -2.3075456)
(4.3852554 0.084567817 -2.1196545)
(4.505534 0.090900301 -2.1123139)
(4.874123 -0.10723047 -1.7141149)
(4.8366804 -0.0049411955 -1.9144274)
(4.3650934 0.034908539 -2.542751)
(5.1921865 -0.04664084 -3.1314073)
(6.4378421 -0.21055142 -3.5622606)
(7.4917775 -1.080758 -4.816412)
(8.1045394 -0.31110971 -0.29368632)
(7.0709324 -0.19279901 -0.15863992)
(6.7262271 -0.10824976 -0.11484634)
(6.4485654 -0.066152336 -0.053354946)
(6.2309238 -0.021049861 -0.066558562)
(6.0587212 -0.028479666 -0.025760031)
(5.9288782 -0.014216909 -0.040625725)
(5.8309996 -0.02291997 -0.0093943567)
(5.7596874 -0.019319403 -0.026249143)
(5.7035991 -0.020859017 -0.002801603)
(5.6595095 -0.018833061 -0.019583538)
(5.6251679 -0.016690766 0.0011512067)
(5.5979977 -0.015532713 -0.015873964)
(5.5740048 -0.01203104 0.0025281256)
(5.5523565 -0.01122985 -0.014632853)
(5.5340099 -0.0078888819 0.004342606)
(5.5187376 -0.0074780086 -0.012906448)
(5.5041567 -0.004699302 0.0048984022)
(5.4902552 -0.0038544269 -0.012358004)
(5.4782582 -0.0027136115 0.0061467232)
(5.4683451 -0.00099579256 -0.011101652)
(5.4585339 -0.00014912927 0.0063419217)
(5.4489093 0.0013977629 -0.010906871)
(5.4407389 0.0018121393 0.0072225871)
(5.4340896 0.0038390101 -0.010004908)
(5.4270903 0.0037488067 0.0071641568)
(5.4198541 0.0057180689 -0.010054932)
(5.4136137 0.0056512484 0.0078666206)
(5.4087787 0.0069257852 -0.0093114142)
(5.4031957 0.007804596 0.0075387301)
(5.3973274 0.0084001908 -0.0094540236)
(5.3924656 0.009815248 0.0081612694)
(5.3885624 0.0097639182 -0.0087350067)
(5.3840465 0.01187321 0.007849733)
(5.3789538 0.011384032 -0.0088730665)
(5.3749639 0.013770922 0.0085015975)
(5.3718266 0.013118214 -0.0081447402)
(5.3680205 0.015860968 0.0081881001)
(5.3636495 0.015014465 -0.0082809258)
(5.3602446 0.017913107 0.0088100401)
(5.3577779 0.01726628 -0.007495194)
(5.3545051 0.020349718 0.0084732274)
(5.3506754 0.019509099 -0.0075416216)
(5.3476912 0.022796936 0.0090582374)
(5.3456491 0.021933869 -0.0067553411)
(5.3426761 0.025763108 0.0086809556)
(5.3390376 0.024810216 -0.0067712523)
(5.3361895 0.028657497 0.0092739651)
(5.3343426 0.027072816 -0.005952234)
(5.3315879 0.032053616 0.0089452084)
(5.3280178 0.030336153 -0.0059695069)
(5.3252414 0.035766017 0.0096013711)
(5.323404 0.033459301 -0.0051041916)
(5.3206969 0.04036797 0.0094249787)
(5.3168783 0.038486129 -0.0053215425)
(5.3141471 0.045772051 0.01051184)
(5.3120606 0.044930754 -0.0049038425)
(5.3094339 0.051244489 0.010331715)
(5.3055971 0.049344333 -0.00520575)
(5.3030984 0.055429817 0.011304671)
(5.3017766 0.053568952 -0.0046643898)
(5.2996195 0.061386112 0.01114335)
(5.2962776 0.059735327 -0.0050201441)
(5.2939129 0.067951501 0.012081125)
(5.2927121 0.067306316 -0.0046650999)
(5.2907723 0.075566489 0.012178635)
(5.2883981 0.074598158 -0.0046290776)
(5.2866663 0.084381312 0.013678301)
(5.2873375 0.084625501 -0.0040334404)
(5.2879156 0.10169612 0.01145843)
(5.2805313 0.00023095028 0.10596907)
(5.2812207 0.016593904 0.055462587)
(5.2812623 -0.0012338547 0.095381344)
(5.2835535 0.015700792 0.041822959)
(5.2867446 -0.0014660178 0.085258787)
(5.2889158 0.014442392 0.035322553)
(5.2903027 -0.002057837 0.079014109)
(5.2931414 0.013964754 0.025736309)
(5.2970874 -0.001802315 0.071825675)
(5.2993756 0.012714623 0.022169172)
(5.3009846 -0.002044415 0.067557315)
(5.3038269 0.011408508 0.015513383)
(5.3081309 -0.0016651685 0.062088465)
(5.3109209 0.010030298 0.013409047)
(5.3127881 -0.0018532789 0.058330407)
(5.3158091 0.0091662477 0.0057358052)
(5.3199066 -0.0015233743 0.052858851)
(5.3226125 0.0082342171 0.0032852417)
(5.3246604 -0.0017648943 0.050147935)
(5.3272462 0.0078066404 -0.00016986628)
(5.3311465 -0.0016338152 0.045552223)
(5.333769 0.007030655 -0.0011525624)
(5.3357507 -0.0019645065 0.043674353)
(5.3384214 0.0068997563 -0.0039677908)
(5.3422631 -0.0018898439 0.03983918)
(5.345157 0.0065462806 -0.0048661761)
(5.3472173 -0.0022855017 0.038457302)
(5.3501358 0.0066833399 -0.0077847288)
(5.35418 -0.0022296624 0.034971119)
(5.357377 0.0063589853 -0.0084137088)
(5.3598102 -0.0025930088 0.033910518)
(5.3631711 0.0065159709 -0.011234576)
(5.3677338 -0.0025111855 0.030608248)
(5.3714641 0.0061656182 -0.011735568)
(5.3744373 -0.0028680488 0.029698302)
(5.3784766 0.0062858805 -0.014239662)
(5.3836914 -0.0027953929 0.026415467)
(5.3881899 0.0059200461 -0.01460916)
(5.3919372 -0.0031664197 0.025444261)
(5.3968468 0.0060234698 -0.017063312)
(5.4030036 -0.0030956561 0.022074011)
(5.4084249 0.0056700172 -0.017698047)
(5.4133155 -0.0034401321 0.020977272)
(5.4194408 0.0058240094 -0.020643124)
(5.4268516 -0.0033028737 0.017864208)
(5.4338154 0.0055296984 -0.021797478)
(5.4402823 -0.0036019114 0.016850323)
(5.4485305 0.0057393258 -0.026250948)
(5.4581574 -0.0033883692 0.01329192)
(5.4679912 0.0055524072 -0.028640078)
(5.4775244 -0.0036131854 0.011362459)
(5.4894573 0.005829341 -0.034245458)
(5.5033974 -0.0033649157 0.0071494522)
(5.5180734 0.0056211733 -0.038379388)
(5.5329541 -0.0035431636 0.0039623093)
(5.5511959 0.0060151875 -0.046285565)
(5.5728035 -0.0030608656 -0.0043946039)
(5.5964518 0.006083783 -0.053361804)
(5.6231692 -0.003758114 -0.014306027)
(5.6556838 0.0075009082 -0.065125838)
(5.6982876 -0.0033526211 -0.035168485)
(5.7505466 0.0097289763 -0.079856946)
(5.8173346 6.3344802e-05 -0.060464726)
(5.9059476 0.015172473 -0.10963398)
(6.0242113 0.0060951311 -0.11466178)
(6.1774479 0.022323725 -0.17670703)
(6.3715275 0.014089248 -0.22387926)
(6.6563273 0.044542754 -0.39718744)
(7.0642931 0.010236821 -0.51550715)
(7.7051441 0.0021521432 -0.96973833)
(6.6777868 0.044130864 -1.4218841)
(6.1795962 -0.1479455 -2.3940229)
(5.4250208 -0.044050745 -2.3811619)
(5.3343133 -0.085918329 -1.7780246)
(5.7118882 -0.013781585 -1.7810327)
(6.1666965 -0.088005349 -1.4409079)
(6.2546343 0.019473732 -0.91179298)
(6.6368427 -0.043068711 -0.76805676)
(6.4307608 0.081174874 -0.61768568)
(6.2394189 -0.020594324 -0.3302325)
(6.0971658 0.051101201 -0.29780741)
(5.9806825 -0.018980909 -0.16989099)
(5.8742523 0.048037494 -0.1941369)
(5.7999536 -0.023099703 -0.073436988)
(5.7380944 0.044012341 -0.14431829)
(5.6907331 -0.02509257 -0.030042164)
(5.6484254 0.041344964 -0.12261303)
(5.6170021 -0.02734857 0.0070261413)
(5.592534 0.038300579 -0.10496971)
(5.569051 -0.027456187 0.021796456)
(5.5452621 0.037745053 -0.096885626)
(5.5282087 -0.02890088 0.036981773)
(5.5151014 0.035801483 -0.085082036)
(5.5009667 -0.028673521 0.03983747)
(5.4853394 0.035853861 -0.081112783)
(5.4738986 -0.030164637 0.047513685)
(5.4660745 0.03422538 -0.072240204)
(5.4565973 -0.02971684 0.048447259)
(5.4451788 0.034572737 -0.070657156)
(5.4372902 -0.030940628 0.054679866)
(5.4324982 0.033258662 -0.063512685)
(5.4255723 -0.030284129 0.054477785)
(5.4165066 0.033820992 -0.063495526)
(5.4103931 -0.031303172 0.060033757)
(5.407533 0.032650547 -0.057930205)
(5.4020426 -0.030523084 0.059655022)
(5.3943868 0.033274733 -0.058537509)
(5.3892993 -0.031483193 0.065267625)
(5.387418 0.032149361 -0.053421251)
(5.3828722 -0.030683788 0.064606826)
(5.3760863 0.032806873 -0.054286604)
(5.3718512 -0.031643509 0.070048586)
(5.3707384 0.031702107 -0.049305145)
(5.3669219 -0.030824703 0.069282472)
(5.3607808 0.032387347 -0.050226502)
(5.3571535 -0.031767618 0.074739448)
(5.3566032 0.031287903 -0.045167752)
(5.3533272 -0.030942216 0.074117263)
(5.3477028 0.031994207 -0.046024651)
(5.3445099 -0.031863654 0.079682505)
(5.3442832 0.030951129 -0.040928005)
(5.3412573 -0.031016254 0.079336132)
(5.3358718 0.031663283 -0.041550712)
(5.3328618 -0.031940776 0.085190717)
(5.3327018 0.030669432 -0.036224401)
(5.3297362 -0.031114473 0.085347466)
(5.3244174 0.031335901 -0.03626972)
(5.3214553 -0.032112844 0.091859243)
(5.3213205 0.030297018 -0.02992421)
(5.3185469 -0.031374147 0.09269545)
(5.3129244 0.030905595 -0.028861335)
(5.3095172 -0.032284914 0.099409331)
(5.3094602 0.030154719 -0.015901666)
(5.3065606 -0.031524566 0.10075282)
(5.3009889 0.030728993 -0.014247575)
(5.297601 -0.032417855 0.1077054)
(5.297789 0.029984602 -0.0010802629)
(5.2950789 -0.031626412 0.10986763)
(5.2899133 0.030605619 0.0019612041)
(5.2863537 -0.032353625 0.11806963)
(5.286527 0.029980789 0.016964943)
(5.2836084 -0.031367532 0.12286228)
(5.2790995 0.030658495 0.024573968)
(5.2755814 -0.03134016 0.135195)
(5.2764277 0.030169843 0.046082589)
(5.2739278 -0.030184095 0.14625041)
(5.3194339 0.20665058 0.066341259)
(5.3193243 0.1960597 0.068522417)
(5.3204049 0.17927991 0.021201179)
(5.3157637 0.16820592 0.021871075)
(5.3159583 0.16087597 0.014201247)
(5.3152287 0.14208395 0.022425464)
(5.314988 0.13460964 0.012422721)
(5.3162701 0.12814851 0.02066677)
(5.3169225 0.12203904 0.010141145)
(5.3159765 0.11605746 0.019029493)
(5.3173246 0.11270148 0.0066260603)
(5.3193786 0.10833812 0.016982479)
(5.3211308 0.10442099 0.0061657139)
(5.3220667 0.098096892 0.016553619)
(5.324437 0.092405283 0.003926584)
(5.3274271 0.08689027 0.014716387)
(5.3296205 0.082751431 0.0034689048)
(5.3309521 0.077797842 0.014307205)
(5.3334124 0.073513258 0.0016923668)
(5.3366494 0.06938771 0.012657287)
(5.3389009 0.066166767 0.0015333161)
(5.3406161 0.062571957 0.012155207)
(5.34328 0.05885725 4.5666837e-05)
(5.3468406 0.055983477 0.010652596)
(5.3493995 0.053061351 5.2272285e-05)
(5.3514332 0.050584436 0.010343348)
(5.3541704 0.047481828 -0.0010806686)
(5.3579216 0.045283522 0.0089608638)
(5.3608973 0.042682035 -0.0010609234)
(5.3634818 0.040816888 0.0087020024)
(5.3666102 0.037945188 -0.0019987316)
(5.3708977 0.036302331 0.0073226535)
(5.3745153 0.03379875 -0.0019812283)
(5.3776043 0.032355325 0.0072203125)
(5.3816858 0.029728701 -0.003269113)
(5.3867684 0.028158491 0.0060137793)
(5.3912761 0.025764066 -0.003265039)
(5.3951803 0.024194665 0.006019654)
(5.4001602 0.021571817 -0.0045445962)
(5.4061669 0.019959462 0.0048140838)
(5.4116401 0.017592564 -0.004576474)
(5.4165997 0.015924288 0.0047723225)
(5.4227398 0.013398472 -0.0059487137)
(5.4300532 0.011640047 0.003458957)
(5.4370319 0.009296961 -0.0061055179)
(5.4437153 0.0074743531 0.0032746013)
(5.451916 0.0048422839 -0.0076398792)
(5.4617312 0.0030046542 0.0016903077)
(5.4715208 0.001310629 -0.0080439698)
(5.481667 -0.0012432211 0.0012403518)
(5.4940464 -0.0043236077 -0.010005881)
(5.5082842 -0.0072238309 -0.00095116757)
(5.5233123 -0.010527389 -0.011165482)
(5.5392648 -0.013620907 -0.0021980078)
(5.5582189 -0.017821233 -0.013955636)
(5.5810171 -0.022015147 -0.005474604)
(5.606997 -0.023877881 -0.01653416)
(5.6373382 -0.02742389 -0.0085938035)
(5.675788 -0.028408138 -0.023175838)
(5.7259686 -0.029802274 -0.01760103)
(5.7880245 -0.027036941 -0.03187874)
(5.8660754 -0.028079845 -0.029968022)
(5.9697539 -0.028450787 -0.054121136)
(6.0998642 -0.043186557 -0.054659237)
(6.2684058 -0.065684816 -0.095414496)
(6.4823553 -0.12676846 -0.1032233)
(6.7641226 -0.2088999 -0.22555104)
(7.5066057 -0.35722503 -0.16832546)
(8.7243789 -0.95349738 -2.1010493)
(4.6744721 0.11370123 -6.5907891)
(2.7821154 1.4039661 -4.400708)
(2.5386017 1.2922147 -3.7819105)
(2.3803295 1.0056059 -4.1538728)
(1.9967418 0.73766675 -4.2499234)
(2.4923409 0.080420368 -3.8290258)
(2.7884278 0.070490427 -2.9629616)
(3.2609823 0.038749327 -2.4074619)
(3.7058058 0.15328882 -1.6597167)
(3.8934812 0.079889658 -1.1874324)
(4.143395 0.11411917 -0.93652231)
(4.5756464 0.082133519 -0.73010177)
(4.6848004 0.11808591 -0.69786525)
(4.9107575 0.058511768 -0.68222038)
(4.8452565 0.060460932 -0.86284814)
(4.6640935 0.016514977 -0.81016022)
(4.6856227 0.02262697 -0.54284446)
(4.5445107 0.098365036 -0.73399878)
(4.3477918 0.13560192 -0.87851597)
(4.2164908 0.078264851 -1.106619)
(4.2950201 0.011179583 -1.4651629)
(4.782402 -0.064523518 -1.2288276)
(4.5278083 0.044162614 -0.95238653)
(4.7697825 0.01943368 -0.83144494)
(4.9385146 -0.027093335 -0.99371496)
(5.1475038 0.067455312 -1.0466268)
(5.1482528 0.047687424 -1.4010664)
(5.5725817 0.0097939256 -1.2223474)
(5.8105782 -0.0015322415 -0.85982808)
(6.1795164 -0.061295309 -0.82642434)
(6.1082329 0.067658193 -0.39913001)
(5.9849886 -0.076170073 -0.49892037)
(5.9165094 0.07269071 -0.1986554)
(5.8313865 -0.081713522 -0.34917012)
(5.7858392 0.073283208 -0.071540723)
(5.7398582 -0.087164584 -0.26077706)
(5.7109772 0.075922562 -0.020356682)
(5.6567438 -0.081892557 -0.22268878)
(5.6363355 0.071381671 0.02788872)
(5.6146692 -0.08189983 -0.18141326)
(5.5997798 0.073286786 0.038363439)
(5.5623877 -0.078121155 -0.1730185)
(5.5509326 0.070763449 0.067186212)
(5.5424949 -0.07907409 -0.1459498)
(5.5335685 0.073870916 0.065998423)
(5.5046259 -0.075483768 -0.14649611)
(5.497229 0.072294617 0.08728526)
(5.4961157 -0.076715609 -0.12470259)
(5.4898926 0.075096868 0.082056597)
(5.4664785 -0.073529108 -0.12944549)
(5.4610509 0.073443975 0.10069706)
(5.4640789 -0.074881133 -0.11035356)
(5.4592043 0.076192494 0.093467869)
(5.4389585 -0.07181142 -0.1172018)
(5.4344246 0.074531989 0.11066544)
(5.4398343 -0.073197721 -0.099656002)
(5.4355661 0.077240265 0.10259771)
(5.4173463 -0.07022175 -0.10740952)
(5.4132166 0.075536196 0.11910164)
(5.4201875 -0.071681425 -0.090652324)
(5.4162067 0.078196257 0.11054024)
(5.3994263 -0.068790149 -0.098932045)
(5.3955414 0.076445902 0.12663808)
(5.4038049 -0.070321889 -0.082603705)
(5.3999847 0.079133157 0.11790841)
(5.3843069 -0.067435926 -0.091071844)
(5.3804853 0.077443273 0.1340799)
(5.3897589 -0.068962785 -0.07470582)
(5.3859861 0.080202099 0.12567598)
(5.371398 -0.066023524 -0.082888216)
(5.3675189 0.078611004 0.14192905)
(5.3774123 -0.067383481 -0.066379165)
(5.3734068 0.081484056 0.13411866)
(5.3595924 -0.064345115 -0.07397843)
(5.3554118 0.079998072 0.15069713)
(5.3656153 -0.065444855 -0.056990573)
(5.3611409 0.082977159 0.14378238)
(5.3479502 -0.062301772 -0.063667562)
(5.3433142 0.081542957 0.16089684)
(5.3538212 -0.063352404 -0.045948878)
(5.3488324 0.084647084 0.15522975)
(5.3365282 -0.060069691 -0.051472619)
(5.3315263 0.083480549 0.17331797)
(5.3413748 -0.062424772 -0.030974617)
(5.3358602 0.08653579 0.16877986)
(5.3242001 -0.059082909 -0.03508937)
(5.3187842 0.085621769 0.18761164)
(5.3288125 -0.061091393 -0.013633111)
(5.3228885 0.089016593 0.18550093)
(5.3122284 -0.057367517 -0.014864837)
(5.3059056 0.088940744 0.2067652)
(5.3148885 -0.058318037 0.0098305516)
(5.308186 0.091907299 0.20873697)
(5.2967357 -0.053252167 0.015688641)
(5.290681 0.089324077 0.23255778)
(5.2984819 -0.05234127 0.04842035)
(5.2914997 0.091826165 0.24354794)
(5.2497914 0.023910164 0.19677325)
(5.2606139 0.028474041 0.14039111)
(5.269225 0.02080311 0.16132204)
(5.2777886 0.025675854 0.10838991)
(5.2844524 0.01736267 0.13580817)
(5.2915116 0.023127095 0.0843636)
(5.2977995 0.014579401 0.11563897)
(5.3044522 0.020347015 0.063737726)
(5.3105658 0.012040378 0.098161108)
(5.3169861 0.017473568 0.046016644)
(5.3230435 0.0097141834 0.083490786)
(5.3293434 0.01492101 0.030878075)
(5.3353712 0.0077069338 0.070842897)
(5.3417797 0.012707348 0.017498551)
(5.3482057 0.0060092677 0.059366212)
(5.3552954 0.010841143 0.0050692957)
(5.3628093 0.0046199913 0.048327202)
(5.3708426 0.0092655347 -0.0063472955)
(5.3795428 0.0030314669 0.036498795)
(5.389067 0.0073677694 -0.019334996)
(5.3994278 0.00094526574 0.02260988)
(5.4110155 0.0051926409 -0.034677069)
(5.4239191 -0.0012391702 0.006154227)
(5.4387478 0.0032016013 -0.053186203)
(5.4562267 -0.0035677003 -0.016055669)
(5.4770898 0.0016159904 -0.07804177)
(5.502743 -0.0064115106 -0.049259769)
(5.5337052 -0.00019978136 -0.11668161)
(5.5733237 -0.0087310702 -0.10399309)
(5.6213994 -0.0019300242 -0.18819415)
(5.6842505 -0.0077320205 -0.21502606)
(5.7562377 -0.001358119 -0.35985165)
(5.8245685 -0.004584424 -0.51430402)
(5.6354388 -0.05009526 -0.54404214)
(5.5650363 0.054071013 -0.74642927)
(5.3821745 -0.046653489 -0.96653708)
(5.3180709 0.053117122 -0.68752025)
(5.4767823 -0.084108794 -0.7362936)
(5.5236306 0.072915135 -0.42393894)
(5.5674137 -0.089433972 -0.51591386)
(5.632246 0.04382806 -0.39213977)
(5.6113614 -0.040373626 -0.25779068)
(5.5725218 0.041342753 -0.23260277)
(5.5433387 -0.034400885 -0.1214453)
(5.5102272 0.041889092 -0.15515856)
(5.4880426 -0.032176649 -0.046181232)
(5.4641301 0.041392248 -0.11265441)
(5.4481249 -0.031496181 0.00067430674)
(5.4315425 0.040398364 -0.085421889)
(5.418829 -0.031786179 0.029790442)
(5.4068661 0.039090147 -0.064645231)
(5.3958567 -0.033105832 0.048166012)
(5.3861949 0.037580123 -0.04717696)
(5.3772028 -0.034089656 0.06374018)
(5.3690881 0.036529388 -0.032398823)